<event>
 7    0  0.4691878E-002  0.4777386E+03  0.7546771E-02  0.1019759E+00
         21   -1    0    0  502  501  0.00000000000E+00  0.00000000000E+00  0.24193390137E+03  0.24193390137E+03  0.00000000000E+00 0. -1.
         21   -1    0    0  501  502 -0.00000000000E+00 -0.00000000000E+00 -0.23584352686E+03  0.23584352686E+03  0.00000000000E+00 0. -1.
      99926    2    1    2    0    0  0.00000000000E+00  0.00000000000E+00  0.60903745105E+01  0.47777742822E+03  0.47773860872E+03 0.  0.
      99925    2    3    3    0    0  0.74605830601E+02 -0.73976480783E+02  0.85839796852E+02  0.29599176286E+03  0.26306672782E+03 0.  0.
         25    1    4    4    0    0  0.86034446679E+01 -0.31175119285E+02  0.71139017014E+02  0.14749296649E+03  0.12509000000E+03 0.  0.
         25    1    3    3    0    0 -0.74605830601E+02  0.73976480783E+02 -0.79749422341E+02  0.18178566537E+03  0.12509000000E+03 0.  0.
         25    1    4    4    0    0  0.66002385933E+02 -0.42801361498E+02  0.14700779838E+02  0.14849879637E+03  0.12509000000E+03 0.  0.
<mgrwt>
<rscale>  2 0.47773861E+03</rscale>
<asrwt>0</asrwt>
<pdfrwt beam="1">  1       21 0.35578515E-01 0.47773861E+03</pdfrwt>
<pdfrwt beam="2">  1       21 0.34682871E-01 0.47773861E+03</pdfrwt>
<totfact> 0.56031394E+04</totfact>
</mgrwt>
</event>
<event>
 7    0  0.4691878E-002  0.4585204E+03  0.7546771E-02  0.1025211E+00
         21   -1    0    0  502  501  0.00000000000E+00  0.00000000000E+00  0.49130023943E+02  0.49130023943E+02  0.00000000000E+00 0.  1.
         21   -1    0    0  501  502 -0.00000000000E+00 -0.00000000000E+00 -0.10698189347E+04  0.10698189347E+04  0.00000000000E+00 0.  1.
      99926    2    1    2    0    0  0.71054273576E-14 -0.35527136788E-14 -0.10206889107E+04  0.11189489586E+04  0.45852035887E+03 0.  0.
      99925    2    3    3    0    0 -0.57924832567E+02  0.19937524164E+02 -0.39900403528E+03  0.48185211860E+03  0.26310540270E+03 0.  0.
         25    1    4    4    0    0 -0.17758355822E+02 -0.29028365494E+02 -0.20300934657E+03  0.24086989870E+03  0.12509000000E+03 0.  0.
         25    1    3    3    0    0  0.57924832567E+02 -0.19937524164E+02 -0.62168487544E+03  0.63709684000E+03  0.12509000000E+03 0.  0.
         25    1    4    4    0    0 -0.40166476745E+02  0.48965889658E+02 -0.19599468871E+03  0.24098221990E+03  0.12509000000E+03 0.  0.
<mgrwt>
<rscale>  2 0.45852036E+03</rscale>
<asrwt>0</asrwt>
<pdfrwt beam="1">  1       21 0.72250031E-02 0.45852036E+03</pdfrwt>
<pdfrwt beam="2">  1       21 0.15732632E+00 0.45852036E+03</pdfrwt>
<totfact> 0.33896237E+04</totfact>
</mgrwt>
</event>
<event>
 7    0  0.4691878E-002  0.4578006E+03  0.7546771E-02  0.1025421E+00
         21   -1    0    0  502  501  0.00000000000E+00  0.00000000000E+00  0.15027236473E+03  0.15027236473E+03  0.00000000000E+00 0.  1.
         21   -1    0    0  501  502 -0.00000000000E+00 -0.00000000000E+00 -0.34866921527E+03  0.34866921527E+03  0.00000000000E+00 0.  1.
      99926    2    1    2    0    0  0.00000000000E+00 -0.14210854715E-13 -0.19839685054E+03  0.49894158000E+03  0.45780060064E+03 0.  0.
      99925    2    3    3    0    0 -0.53593920100E+02 -0.10259682774E+03 -0.12064017993E+03  0.31161292427E+03  0.26296415007E+03 0.  0.
         25    1    3    3    0    0  0.53593920100E+02  0.10259682774E+03 -0.77756670602E+02  0.18732865573E+03  0.12509000000E+03 0.  0.
         25    1    4    4    0    0 -0.49782376133E+02 -0.39099739803E+02 -0.93946404103E+02  0.16876169462E+03  0.12509000000E+03 0.  0.
         25    1    4    4    0    0 -0.38115439665E+01 -0.63497087941E+02 -0.26693775830E+02  0.14285122965E+03  0.12509000000E+03 0.  0.
<mgrwt>
<rscale>  2 0.45780060E+03</rscale>
<asrwt>0</asrwt>
<pdfrwt beam="1">  1       21 0.22098878E-01 0.45780060E+03</pdfrwt>
<pdfrwt beam="2">  1       21 0.51274884E-01 0.45780060E+03</pdfrwt>
<totfact> 0.63912312E+04</totfact>
</mgrwt>
</event>
<event>
 7    0  0.4691878E-002  0.4523585E+03  0.7546771E-02  0.1027021E+00
         21   -1    0    0  502  501  0.00000000000E+00  0.00000000000E+00  0.45472776724E+03  0.45472776724E+03  0.00000000000E+00 0.  1.
         21   -1    0    0  501  502 -0.00000000000E+00 -0.00000000000E+00 -0.11250038409E+03  0.11250038409E+03  0.00000000000E+00 0.  1.
      99926    2    1    2    0    0  0.00000000000E+00  0.00000000000E+00  0.34222738315E+03  0.56722815133E+03  0.45235847940E+03 0.  0.
      99925    2    3    3    0    0 -0.10483032346E+03  0.30618987641E+02  0.19591838174E+03  0.34591219819E+03  0.26333309217E+03 0.  0.
         25    1    3    3    0    0  0.10483032346E+03 -0.30618987641E+02  0.14630900140E+03  0.22131595314E+03  0.12509000000E+03 0.  0.
         25    1    4    4    0    0 -0.40186629977E+02  0.11734431982E+02  0.14237704232E+03  0.19409119609E+03  0.12509000000E+03 0.  0.
         25    1    4    4    0    0 -0.64643693484E+02  0.18884555659E+02  0.53541339426E+02  0.15182100210E+03  0.12509000000E+03 0.  0.
<mgrwt>
<rscale>  2 0.45235848E+03</rscale>
<asrwt>0</asrwt>
<pdfrwt beam="1">  1       21 0.66871730E-01 0.45235848E+03</pdfrwt>
<pdfrwt beam="2">  1       21 0.16544174E-01 0.45235848E+03</pdfrwt>
<totfact> 0.62027859E+04</totfact>
</mgrwt>
</event>
<event>
 7    0  0.4691878E-002  0.4603081E+03  0.7546771E-02  0.1024692E+00
         21   -1    0    0  502  501  0.00000000000E+00  0.00000000000E+00  0.23127306777E+03  0.23127306777E+03  0.00000000000E+00 0. -1.
         21   -1    0    0  501  502 -0.00000000000E+00 -0.00000000000E+00 -0.22904043988E+03  0.22904043988E+03  0.00000000000E+00 0. -1.
      99926    2    1    2    0    0 -0.14210854715E-13 -0.17763568394E-14  0.22326278913E+01  0.46031350765E+03  0.46030809324E+03 0.  0.
      99925    2    3    3    0    0  0.10247620874E+03 -0.10119436823E+02  0.59214240772E+02  0.28856314036E+03  0.26298019565E+03 0.  0.
         25    1    4    4    0    0  0.66279907009E+02 -0.36011404429E+02  0.81142775970E+01  0.14629831483E+03  0.12509000000E+03 0.  0.
         25    1    4    4    0    0  0.36196301732E+02  0.25891967606E+02  0.51099963175E+02  0.14226482553E+03  0.12509000000E+03 0.  0.
         25    1    3    3    0    0 -0.10247620874E+03  0.10119436823E+02 -0.56981612880E+02  0.17175036730E+03  0.12509000000E+03 0.  0.
<mgrwt>
<rscale>  2 0.46030809E+03</rscale>
<asrwt>0</asrwt>
<pdfrwt beam="1">  1       21 0.34010745E-01 0.46030809E+03</pdfrwt>
<pdfrwt beam="2">  1       21 0.33682418E-01 0.46030809E+03</pdfrwt>
<totfact> 0.65346478E+04</totfact>
</mgrwt>
</event>
<event>
 7    0  0.4691878E-002  0.4242201E+03  0.7546771E-02  0.1035702E+00
         21   -1    0    0  502  501  0.00000000000E+00  0.00000000000E+00  0.16168830351E+03  0.16168830351E+03  0.00000000000E+00 0. -1.
         21   -1    0    0  501  502 -0.00000000000E+00 -0.00000000000E+00 -0.27825555676E+03  0.27825555676E+03  0.00000000000E+00 0. -1.
      99926    2    1    2    0    0  0.00000000000E+00  0.00000000000E+00 -0.11656725326E+03  0.43994386027E+03  0.42422007928E+03 0.  0.
      99925    2    3    3    0    0  0.35236927859E+02  0.66410696808E+02 -0.10662438805E+03  0.29366197348E+03  0.26309042705E+03 0.  0.
         25    1    4    4    0    0 -0.10370368511E+02  0.32409525522E+01 -0.38684448554E+02  0.13138509419E+03  0.12509000000E+03 0.  0.
         25    1    4    4    0    0  0.45607296370E+02  0.63169744256E+02 -0.67939939501E+02  0.16227687929E+03  0.12509000000E+03 0.  0.
         25    1    3    3    0    0 -0.35236927859E+02 -0.66410696808E+02 -0.99428652008E+01  0.14628188679E+03  0.12509000000E+03 0.  0.
<mgrwt>
<rscale>  2 0.42422008E+03</rscale>
<asrwt>0</asrwt>
<pdfrwt beam="1">  1       21 0.23777692E-01 0.42422008E+03</pdfrwt>
<pdfrwt beam="2">  1       21 0.40919934E-01 0.42422008E+03</pdfrwt>
<totfact> 0.89722845E+04</totfact>
</mgrwt>
</event>
<event>
 7    0  0.4691878E-002  0.4552167E+03  0.7546771E-02  0.1026178E+00
         21   -1    0    0  502  501  0.00000000000E+00  0.00000000000E+00  0.47589290746E+02  0.47589290746E+02  0.00000000000E+00 0. -1.
         21   -1    0    0  501  502 -0.00000000000E+00 -0.00000000000E+00 -0.10885969924E+04  0.10885969924E+04  0.00000000000E+00 0. -1.
      99926    2    1    2    0    0  0.14210854715E-13  0.00000000000E+00 -0.10410077017E+04  0.11361862832E+04  0.45521669028E+03 0.  0.
      99925    2    3    3    0    0 -0.93310148162E+02  0.32108059669E+02 -0.79442288761E+03  0.84260615803E+03  0.26294429438E+03 0.  0.
         25    1    4    4    0    0 -0.59885630131E+02  0.86229191839E+01 -0.52028693638E+03  0.53852265291E+03  0.12509000000E+03 0.  0.
         25    1    3    3    0    0  0.93310148162E+02 -0.32108059669E+02 -0.24658481404E+03  0.29358012512E+03  0.12509000000E+03 0.  0.
         25    1    4    4    0    0 -0.33424518031E+02  0.23485140485E+02 -0.27413595123E+03  0.30408350512E+03  0.12509000000E+03 0.  0.
<mgrwt>
<rscale>  2 0.45521669E+03</rscale>
<asrwt>0</asrwt>
<pdfrwt beam="1">  1       21 0.69984259E-02 0.45521669E+03</pdfrwt>
<pdfrwt beam="2">  1       21 0.16008778E+00 0.45521669E+03</pdfrwt>
<totfact> 0.34189161E+04</totfact>
</mgrwt>
</event>
<event>
 7    0  0.4691878E-002  0.4482365E+03  0.7546771E-02  0.1028249E+00
         21   -1    0    0  502  501  0.00000000000E+00  0.00000000000E+00  0.48864846132E+02  0.48864846132E+02  0.00000000000E+00 0. -1.
         21   -1    0    0  501  502 -0.00000000000E+00 -0.00000000000E+00 -0.10279165200E+04  0.10279165200E+04  0.00000000000E+00 0. -1.
      99926    2    1    2    0    0  0.00000000000E+00  0.00000000000E+00 -0.97905167389E+03  0.10767813662E+04  0.44823646700E+03 0.  0.
      99925    2    3    3    0    0  0.49070806518E+02  0.63068866113E+02 -0.78989072353E+03  0.83633386842E+03  0.26294744422E+03 0.  0.
         25    1    4    4    0    0  0.49558856096E+02  0.11771943513E+02 -0.47059447202E+03  0.48959301881E+03  0.12509000000E+03 0.  0.
         25    1    3    3    0    0 -0.49070806518E+02 -0.63068866113E+02 -0.18916095036E+03  0.24044749774E+03  0.12509000000E+03 0.  0.
         25    1    4    4    0    0 -0.48804957792E+00  0.51296922600E+02 -0.31929625151E+03  0.34674084961E+03  0.12509000000E+03 0.  0.
<mgrwt>
<rscale>  2 0.44823647E+03</rscale>
<asrwt>0</asrwt>
<pdfrwt beam="1">  1       21 0.71860075E-02 0.44823647E+03</pdfrwt>
<pdfrwt beam="2">  1       21 0.15116418E+00 0.44823647E+03</pdfrwt>
<totfact> 0.38291063E+04</totfact>
</mgrwt>
</event>
<event>
 7    0  0.4691878E-002  0.4356199E+03  0.7546771E-02  0.1032099E+00
         21   -1    0    0  502  501  0.00000000000E+00  0.00000000000E+00  0.53373528805E+02  0.53373528805E+02  0.00000000000E+00 0. -1.
         21   -1    0    0  501  502 -0.00000000000E+00 -0.00000000000E+00 -0.88885228848E+03  0.88885228848E+03  0.00000000000E+00 0. -1.
      99926    2    1    2    0    0  0.00000000000E+00  0.00000000000E+00 -0.83547875967E+03  0.94222581728E+03  0.43561994088E+03 0.  0.
      99925    2    3    3    0    0  0.49642382694E+02  0.70199339461E+02 -0.61664553737E+03  0.67590307942E+03  0.26306071654E+03 0.  0.
         25    1    4    4    0    0 -0.57707351277E+01  0.53211464325E+01 -0.27828458469E+03  0.30520719873E+03  0.12509000000E+03 0.  0.
         25    1    4    4    0    0  0.55413117822E+02  0.64878193029E+02 -0.33836095268E+03  0.37069588069E+03  0.12509000000E+03 0.  0.
         25    1    3    3    0    0 -0.49642382694E+02 -0.70199339461E+02 -0.21883322230E+03  0.26632273786E+03  0.12509000000E+03 0.  0.
<mgrwt>
<rscale>  2 0.43561994E+03</rscale>
<asrwt>0</asrwt>
<pdfrwt beam="1">  1       21 0.78490487E-02 0.43561994E+03</pdfrwt>
<pdfrwt beam="2">  1       21 0.13071357E+00 0.43561994E+03</pdfrwt>
<totfact> 0.48384524E+04</totfact>
</mgrwt>
</event>
<event>
 7    0  0.4691878E-002  0.4366831E+03  0.7546771E-02  0.1031769E+00
         21   -1    0    0  502  501  0.00000000000E+00  0.00000000000E+00  0.22799978572E+03  0.22799978572E+03  0.00000000000E+00 0. -1.
         21   -1    0    0  501  502 -0.00000000000E+00 -0.00000000000E+00 -0.20909247727E+03  0.20909247727E+03  0.00000000000E+00 0. -1.
      99926    2    1    2    0    0  0.00000000000E+00 -0.71054273576E-14  0.18907308449E+02  0.43709226299E+03  0.43668313461E+03 0.  0.
      99925    2    3    3    0    0  0.21288301491E+02 -0.35830885042E+02  0.97558309325E+02  0.28356528770E+03  0.26297263084E+03 0.  0.
         25    1    4    4    0    0 -0.38878846883E+01 -0.50562263321E+02  0.70575864526E+02  0.15231585234E+03  0.12509000000E+03 0.  0.
         25    1    3    3    0    0 -0.21288301491E+02  0.35830885042E+02 -0.78651000876E+02  0.15352697529E+03  0.12509000000E+03 0.  0.
         25    1    4    4    0    0  0.25176186179E+02  0.14731378280E+02  0.26982444799E+02  0.13124943537E+03  0.12509000000E+03 0.  0.
<mgrwt>
<rscale>  2 0.43668313E+03</rscale>
<asrwt>0</asrwt>
<pdfrwt beam="1">  1       21 0.33529381E-01 0.43668313E+03</pdfrwt>
<pdfrwt beam="2">  1       21 0.30748893E-01 0.43668313E+03</pdfrwt>
<totfact> 0.81098062E+04</totfact>
</mgrwt>
</event>
<event>
 7    0  0.4691878E-002  0.4591742E+03  0.7546771E-02  0.1025021E+00
         21   -1    0    0  502  501  0.00000000000E+00  0.00000000000E+00  0.25672269224E+02  0.25672269224E+02  0.00000000000E+00 0. -1.
         21   -1    0    0  501  502 -0.00000000000E+00 -0.00000000000E+00 -0.20531973879E+04  0.20531973879E+04  0.00000000000E+00 0. -1.
      99926    2    1    2    0    0  0.00000000000E+00  0.00000000000E+00 -0.20275251187E+04  0.20788696572E+04  0.45917419837E+03 0.  0.
      99925    2    3    3    0    0 -0.71115351828E+02 -0.90201643273E+02 -0.13650293224E+04  0.13949530555E+04  0.26342977525E+03 0.  0.
         25    1    4    4    0    0 -0.74718138761E+02 -0.55168853266E+02 -0.66969379375E+03  0.68757813238E+03  0.12509000000E+03 0.  0.
         25    1    3    3    0    0  0.71115351828E+02  0.90201643273E+02 -0.66249579636E+03  0.68391660165E+03  0.12509000000E+03 0.  0.
         25    1    4    4    0    0  0.36027869327E+01 -0.35032790007E+02 -0.69533552860E+03  0.70737492314E+03  0.12509000000E+03 0.  0.
<mgrwt>
<rscale>  2 0.45917420E+03</rscale>
<asrwt>0</asrwt>
<pdfrwt beam="1">  1       21 0.37753336E-02 0.45917420E+03</pdfrwt>
<pdfrwt beam="2">  1       21 0.30194080E+00 0.45917420E+03</pdfrwt>
<totfact> 0.12068809E+04</totfact>
</mgrwt>
</event>
<event>
 7    0  0.4691878E-002  0.4249320E+03  0.7546771E-02  0.1035473E+00
         21   -1    0    0  502  501  0.00000000000E+00  0.00000000000E+00  0.46495831058E+02  0.46495831058E+02  0.00000000000E+00 0. -1.
         21   -1    0    0  501  502 -0.00000000000E+00 -0.00000000000E+00 -0.97087839941E+03  0.97087839941E+03  0.00000000000E+00 0. -1.
      99926    2    1    2    0    0  0.35527136788E-14 -0.44408920985E-15 -0.92438256836E+03  0.10173742305E+04  0.42493198532E+03 0.  0.
      99925    2    3    3    0    0 -0.26075793323E+02 -0.27910509913E+01 -0.41356339714E+03  0.49080849787E+03  0.26300296799E+03 0.  0.
         25    1    4    4    0    0  0.18974974352E+02 -0.16788992942E+02 -0.23887539859E+03  0.27083368344E+03  0.12509000000E+03 0.  0.
         25    1    4    4    0    0 -0.45050767675E+02  0.13997941950E+02 -0.17468799855E+03  0.21997481443E+03  0.12509000000E+03 0.  0.
         25    1    3    3    0    0  0.26075793323E+02  0.27910509913E+01 -0.51081917122E+03  0.52656573260E+03  0.12509000000E+03 0.  0.
<mgrwt>
<rscale>  2 0.42493199E+03</rscale>
<asrwt>0</asrwt>
<pdfrwt beam="1">  1       21 0.68376230E-02 0.42493199E+03</pdfrwt>
<pdfrwt beam="2">  1       21 0.14277622E+00 0.42493199E+03</pdfrwt>
<totfact> 0.49038012E+04</totfact>
</mgrwt>
</event>
<event>
 7    0  0.4691878E-002  0.4512914E+03  0.7546771E-02  0.1027338E+00
         21   -1    0    0  502  501  0.00000000000E+00  0.00000000000E+00  0.45218589890E+03  0.45218589890E+03  0.00000000000E+00 0. -1.
         21   -1    0    0  501  502 -0.00000000000E+00 -0.00000000000E+00 -0.11259967213E+03  0.11259967213E+03  0.00000000000E+00 0. -1.
      99926    2    1    2    0    0  0.00000000000E+00 -0.17763568394E-14  0.33958622676E+03  0.56478557103E+03  0.45129140900E+03 0.  0.
      99925    2    3    3    0    0 -0.16223059127E+02 -0.12462606940E+02  0.79795134338E+02  0.27572256056E+03  0.26312955500E+03 0.  0.
         25    1    4    4    0    0  0.18961262641E+02  0.24383031828E+02  0.40139103127E+02  0.13495450130E+03  0.12509000000E+03 0.  0.
         25    1    4    4    0    0 -0.35184321768E+02 -0.36845638768E+02  0.39656031210E+02  0.14076805925E+03  0.12509000000E+03 0.  0.
         25    1    3    3    0    0  0.16223059127E+02  0.12462606940E+02  0.25979109243E+03  0.28906301047E+03  0.12509000000E+03 0.  0.
<mgrwt>
<rscale>  2 0.45129141E+03</rscale>
<asrwt>0</asrwt>
<pdfrwt beam="1">  1       21 0.66497926E-01 0.45129141E+03</pdfrwt>
<pdfrwt beam="2">  1       21 0.16558775E-01 0.45129141E+03</pdfrwt>
<totfact> 0.62719370E+04</totfact>
</mgrwt>
</event>
<event>
 7    0  0.4691878E-002  0.4347703E+03  0.7546771E-02  0.1032364E+00
         21   -1    0    0  502  501  0.00000000000E+00  0.00000000000E+00  0.14941843061E+03  0.14941843061E+03  0.00000000000E+00 0.  1.
         21   -1    0    0  501  502 -0.00000000000E+00 -0.00000000000E+00 -0.31626823935E+03  0.31626823935E+03  0.00000000000E+00 0.  1.
      99926    2    1    2    0    0 -0.17763568394E-14  0.00000000000E+00 -0.16684980874E+03  0.46568666996E+03  0.43477030246E+03 0.  0.
      99925    2    3    3    0    0  0.13669366194E+02 -0.46544486995E+02 -0.22123364889E+02  0.26833801278E+03  0.26298784190E+03 0.  0.
         25    1    4    4    0    0  0.24097274084E+02 -0.57756009833E+02  0.26796404604E+01  0.13989683293E+03  0.12509000000E+03 0.  0.
         25    1    4    4    0    0 -0.10427907890E+02  0.11211522838E+02 -0.24803005350E+02  0.12844117985E+03  0.12509000000E+03 0.  0.
         25    1    3    3    0    0 -0.13669366194E+02  0.46544486995E+02 -0.14472644385E+03  0.19734865718E+03  0.12509000000E+03 0.  0.
<mgrwt>
<rscale>  2 0.43477030E+03</rscale>
<asrwt>0</asrwt>
<pdfrwt beam="1">  1       21 0.21973299E-01 0.43477030E+03</pdfrwt>
<pdfrwt beam="2">  1       21 0.46510035E-01 0.43477030E+03</pdfrwt>
<totfact> 0.79824116E+04</totfact>
</mgrwt>
</event>
<event>
 7    0  0.4691878E-002  0.4514037E+03  0.7546771E-02  0.1027304E+00
         21   -1    0    0  502  501  0.00000000000E+00  0.00000000000E+00  0.43224569796E+02  0.43224569796E+02  0.00000000000E+00 0.  1.
         21   -1    0    0  501  502 -0.00000000000E+00 -0.00000000000E+00 -0.11785273022E+04  0.11785273022E+04  0.00000000000E+00 0.  1.
      99926    2    1    2    0    0  0.00000000000E+00  0.00000000000E+00 -0.11353027324E+04  0.12217518720E+04  0.45140374668E+03 0.  0.
      99925    2    3    3    0    0  0.25650829860E+02  0.28614132293E+02 -0.43192545056E+03  0.50630526857E+03  0.26135932450E+03 0.  0.
         25    1    4    4    0    0  0.77904634043E+01 -0.22318554218E+02 -0.19124368060E+03  0.22973998923E+03  0.12509000000E+03 0.  0.
         25    1    3    3    0    0 -0.25650829860E+02 -0.28614132293E+02 -0.70337728182E+03  0.71544660340E+03  0.12509000000E+03 0.  0.
         25    1    4    4    0    0  0.17860366456E+02  0.50932686511E+02 -0.24068176996E+03  0.27656527934E+03  0.12509000000E+03 0.  0.
<mgrwt>
<rscale>  2 0.45140375E+03</rscale>
<asrwt>0</asrwt>
<pdfrwt beam="1">  1       21 0.63565551E-02 0.45140375E+03</pdfrwt>
<pdfrwt beam="2">  1       21 0.17331282E+00 0.45140375E+03</pdfrwt>
<totfact> 0.32371221E+04</totfact>
</mgrwt>
</event>
<event>
 7    0  0.4691878E-002  0.4454178E+03  0.7546771E-02  0.1029097E+00
         21   -1    0    0  502  501  0.00000000000E+00  0.00000000000E+00  0.74951781379E+03  0.74951781379E+03  0.00000000000E+00 0.  1.
         21   -1    0    0  501  502 -0.00000000000E+00 -0.00000000000E+00 -0.66174893664E+02  0.66174893664E+02  0.00000000000E+00 0.  1.
      99926    2    1    2    0    0  0.00000000000E+00  0.00000000000E+00  0.68334292013E+03  0.81569270746E+03  0.44541783362E+03 0.  0.
      99925    2    3    3    0    0  0.69909132983E+02  0.75537139483E+02  0.46047148228E+03  0.54017078052E+03  0.26297783141E+03 0.  0.
         25    1    4    4    0    0  0.67135083019E+02  0.21074249867E+02  0.20068486299E+03  0.24672487859E+03  0.12509000000E+03 0.  0.
         25    1    3    3    0    0 -0.69909132983E+02 -0.75537139483E+02  0.22287143785E+03  0.27552192694E+03  0.12509000000E+03 0.  0.
         25    1    4    4    0    0  0.27740499645E+01  0.54462889616E+02  0.25978661929E+03  0.29344590193E+03  0.12509000000E+03 0.  0.
<mgrwt>
<rscale>  2 0.44541783E+03</rscale>
<asrwt>0</asrwt>
<pdfrwt beam="1">  1       21 0.11022320E+00 0.44541783E+03</pdfrwt>
<pdfrwt beam="2">  1       21 0.97316025E-02 0.44541783E+03</pdfrwt>
<totfact> 0.50722804E+04</totfact>
</mgrwt>
</event>
<event>
 7    0  0.4691878E-002  0.4534014E+03  0.7546771E-02  0.1026713E+00
         21   -1    0    0  502  501  0.00000000000E+00  0.00000000000E+00  0.35993833023E+03  0.35993833023E+03  0.00000000000E+00 0.  1.
         21   -1    0    0  501  502 -0.00000000000E+00 -0.00000000000E+00 -0.14278338487E+03  0.14278338487E+03  0.00000000000E+00 0.  1.
      99926    2    1    2    0    0  0.00000000000E+00  0.00000000000E+00  0.21715494536E+03  0.50272171510E+03  0.45340142539E+03 0.  0.
      99925    2    3    3    0    0 -0.39548940382E+02 -0.57689856430E+02  0.40724481524E+02  0.27541695297E+03  0.26325610414E+03 0.  0.
         25    1    4    4    0    0 -0.23861757157E+02 -0.48869295930E+02  0.57318030336E+02  0.14795423698E+03  0.12509000000E+03 0.  0.
         25    1    4    4    0    0 -0.15687183225E+02 -0.88205605003E+01 -0.16593548813E+02  0.12746271599E+03  0.12509000000E+03 0.  0.
         25    1    3    3    0    0  0.39548940382E+02  0.57689856430E+02  0.17643046383E+03  0.22730476213E+03  0.12509000000E+03 0.  0.
<mgrwt>
<rscale>  2 0.45340143E+03</rscale>
<asrwt>0</asrwt>
<pdfrwt beam="1">  1       21 0.52932107E-01 0.45340143E+03</pdfrwt>
<pdfrwt beam="2">  1       21 0.20997557E-01 0.45340143E+03</pdfrwt>
<totfact> 0.65912254E+04</totfact>
</mgrwt>
</event>
<event>
 7    0  0.4691878E-002  0.4559819E+03  0.7546771E-02  0.1025953E+00
         21   -1    0    0  502  501  0.00000000000E+00  0.00000000000E+00  0.11793885391E+04  0.11793885391E+04  0.00000000000E+00 0.  1.
         21   -1    0    0  501  502 -0.00000000000E+00 -0.00000000000E+00 -0.44073585531E+02  0.44073585531E+02  0.00000000000E+00 0.  1.
      99926    2    1    2    0    0  0.71054273576E-14  0.14210854715E-13  0.11353149536E+04  0.12234621246E+04  0.45598193671E+03 0.  0.
      99925    2    3    3    0    0 -0.41837203265E+02 -0.92884969456E+02  0.57969569527E+03  0.64489645211E+03  0.26356472773E+03 0.  0.
         25    1    4    4    0    0  0.57533576227E+01 -0.26285139210E+02  0.32910279878E+03  0.35310079288E+03  0.12509000000E+03 0.  0.
         25    1    3    3    0    0  0.41837203265E+02  0.92884969456E+02  0.55561925828E+03  0.57856567250E+03  0.12509000000E+03 0.  0.
         25    1    4    4    0    0 -0.47590560887E+02 -0.66599830246E+02  0.25059289649E+03  0.29179565923E+03  0.12509000000E+03 0.  0.
<mgrwt>
<rscale>  2 0.45598194E+03</rscale>
<asrwt>0</asrwt>
<pdfrwt beam="1">  1       21 0.17343947E+00 0.45598194E+03</pdfrwt>
<pdfrwt beam="2">  1       21 0.64814104E-02 0.45598194E+03</pdfrwt>
<totfact> 0.31181866E+04</totfact>
</mgrwt>
</event>
<event>
 7    0  0.4691878E-002  0.4518349E+03  0.7546771E-02  0.1027176E+00
         21   -1    0    0  502  501  0.00000000000E+00  0.00000000000E+00  0.29533337411E+04  0.29533337411E+04  0.00000000000E+00 0.  1.
         21   -1    0    0  501  502 -0.00000000000E+00 -0.00000000000E+00 -0.17281724734E+02  0.17281724734E+02  0.00000000000E+00 0.  1.
      99926    2    1    2    0    0  0.00000000000E+00 -0.71054273576E-14  0.29360520163E+04  0.29706154658E+04  0.45183492898E+03 0.  0.
      99925    2    3    3    0    0 -0.29706663020E+02  0.43655059548E+02  0.24881976422E+04  0.25026311727E+04  0.26314830401E+03 0.  0.
         25    1    3    3    0    0  0.29706663020E+02 -0.43655059548E+02  0.44785437409E+03  0.46798429306E+03  0.12509000000E+03 0.  0.
         25    1    4    4    0    0 -0.48692674487E+01  0.13742133807E+02  0.85991926073E+03  0.86909216950E+03  0.12509000000E+03 0.  0.
         25    1    4    4    0    0 -0.24837395571E+02  0.29912925741E+02  0.16282783815E+04  0.16335390032E+04  0.12509000000E+03 0.  0.
<mgrwt>
<rscale>  2 0.45183493E+03</rscale>
<asrwt>0</asrwt>
<pdfrwt beam="1">  1       21 0.43431344E+00 0.45183493E+03</pdfrwt>
<pdfrwt beam="2">  1       21 0.25414322E-02 0.45183493E+03</pdfrwt>
<totfact> 0.34996251E+03</totfact>
</mgrwt>
</event>
<event>
 7    0  0.4691878E-002  0.4522816E+03  0.7546771E-02  0.1027044E+00
         21   -1    0    0  502  501  0.00000000000E+00  0.00000000000E+00  0.73729305814E+02  0.73729305814E+02  0.00000000000E+00 0. -1.
         21   -1    0    0  501  502 -0.00000000000E+00 -0.00000000000E+00 -0.69361389705E+03  0.69361389705E+03  0.00000000000E+00 0. -1.
      99926    2    1    2    0    0  0.00000000000E+00  0.00000000000E+00 -0.61988459124E+03  0.76734320287E+03  0.45228164293E+03 0.  0.
      99925    2    3    3    0    0  0.13825277004E+02  0.48785465628E+02 -0.22406396205E+03  0.34914153078E+03  0.26291441476E+03 0.  0.
         25    1    3    3    0    0 -0.13825277004E+02 -0.48785465628E+02 -0.39582062919E+03  0.41820167208E+03  0.12509000000E+03 0.  0.
         25    1    4    4    0    0  0.37117748640E+01  0.65331268193E+02 -0.11903679327E+03  0.18465973608E+03  0.12509000000E+03 0.  0.
         25    1    4    4    0    0  0.10113502140E+02 -0.16545802565E+02 -0.10502716878E+03  0.16448179471E+03  0.12509000000E+03 0.  0.
<mgrwt>
<rscale>  2 0.45228164E+03</rscale>
<asrwt>0</asrwt>
<pdfrwt beam="1">  1       21 0.10842545E-01 0.45228164E+03</pdfrwt>
<pdfrwt beam="2">  1       21 0.10200204E+00 0.45228164E+03</pdfrwt>
<totfact> 0.50452918E+04</totfact>
</mgrwt>
</event>
<event>
 7    0  0.4691878E-002  0.4601990E+03  0.7546771E-02  0.1024724E+00
         21   -1    0    0  502  501  0.00000000000E+00  0.00000000000E+00  0.27972438370E+03  0.27972438370E+03  0.00000000000E+00 0.  1.
         21   -1    0    0  501  502 -0.00000000000E+00 -0.00000000000E+00 -0.18927839394E+03  0.18927839394E+03  0.00000000000E+00 0.  1.
      99926    2    1    2    0    0  0.00000000000E+00  0.71054273576E-14  0.90445989758E+02  0.46900277765E+03  0.46019900953E+03 0.  0.
      99925    2    3    3    0    0 -0.91521693616E+02 -0.50545977741E+02  0.13871780263E+01  0.28323384506E+03  0.26322684220E+03 0.  0.
         25    1    4    4    0    0 -0.59033254190E+02 -0.30363643871E+02  0.39443203349E+02  0.14700391274E+03  0.12509000000E+03 0.  0.
         25    1    3    3    0    0  0.91521693616E+02  0.50545977741E+02  0.89058811732E+02  0.18576893259E+03  0.12509000000E+03 0.  0.
         25    1    4    4    0    0 -0.32488439426E+02 -0.20182333870E+02 -0.38056025323E+02  0.13622993232E+03  0.12509000000E+03 0.  0.
<mgrwt>
<rscale>  2 0.46019901E+03</rscale>
<asrwt>0</asrwt>
<pdfrwt beam="1">  1       21 0.41135939E-01 0.46019901E+03</pdfrwt>
<pdfrwt beam="2">  1       21 0.27835058E-01 0.46019901E+03</pdfrwt>
<totfact> 0.64794592E+04</totfact>
</mgrwt>
</event>
<event>
 7    0  0.4691878E-002  0.4516150E+03  0.7546771E-02  0.1027242E+00
         21   -1    0    0  502  501  0.00000000000E+00  0.00000000000E+00  0.37127973969E+03  0.37127973969E+03  0.00000000000E+00 0.  1.
         21   -1    0    0  501  502 -0.00000000000E+00 -0.00000000000E+00 -0.13733316954E+03  0.13733316954E+03  0.00000000000E+00 0.  1.
      99926    2    1    2    0    0 -0.71054273576E-14  0.14210854715E-13  0.23394657015E+03  0.50861290923E+03  0.45161498397E+03 0.  0.
      99925    2    3    3    0    0 -0.62495051520E+02  0.88893587267E+02  0.13086463209E+03  0.31346912794E+03  0.26330522387E+03 0.  0.
         25    1    3    3    0    0  0.62495051520E+02 -0.88893587267E+02  0.10308193806E+03  0.19514378129E+03  0.12509000000E+03 0.  0.
         25    1    4    4    0    0  0.70597781693E+01  0.59261507861E+02  0.59839493500E+02  0.15096370380E+03  0.12509000000E+03 0.  0.
         25    1    4    4    0    0 -0.69554829689E+02  0.29632079406E+02  0.71025138592E+02  0.16250542414E+03  0.12509000000E+03 0.  0.
<mgrwt>
<rscale>  2 0.45161498E+03</rscale>
<asrwt>0</asrwt>
<pdfrwt beam="1">  1       21 0.54599962E-01 0.45161498E+03</pdfrwt>
<pdfrwt beam="2">  1       21 0.20196054E-01 0.45161498E+03</pdfrwt>
<totfact> 0.66436611E+04</totfact>
</mgrwt>
</event>
<event>
 7    0  0.4691878E-002  0.4546888E+03  0.7546771E-02  0.1026333E+00
         21   -1    0    0  502  501  0.00000000000E+00  0.00000000000E+00  0.16487139173E+03  0.16487139173E+03  0.00000000000E+00 0. -1.
         21   -1    0    0  501  502 -0.00000000000E+00 -0.00000000000E+00 -0.31348970107E+03  0.31348970107E+03  0.00000000000E+00 0. -1.
      99926    2    1    2    0    0  0.00000000000E+00 -0.35527136788E-14 -0.14861830934E+03  0.47836109280E+03  0.45468883121E+03 0.  0.
      99925    2    3    3    0    0 -0.66615215147E+02 -0.26743256621E+02 -0.18267604399E+01  0.27257466081E+03  0.26294642039E+03 0.  0.
         25    1    3    3    0    0  0.66615215147E+02  0.26743256621E+02 -0.14679154890E+03  0.20578643199E+03  0.12509000000E+03 0.  0.
         25    1    4    4    0    0 -0.24625765186E+02 -0.51825417583E+02  0.83684867999E+01  0.13787618319E+03  0.12509000000E+03 0.  0.
         25    1    4    4    0    0 -0.41989449961E+02  0.25082160963E+02 -0.10195247240E+02  0.13469847762E+03  0.12509000000E+03 0.  0.
<mgrwt>
<rscale>  2 0.45468883E+03</rscale>
<asrwt>0</asrwt>
<pdfrwt beam="1">  1       21 0.24245793E-01 0.45468883E+03</pdfrwt>
<pdfrwt beam="2">  1       21 0.46101426E-01 0.45468883E+03</pdfrwt>
<totfact> 0.66984874E+04</totfact>
</mgrwt>
</event>
<event>
 7    0  0.4691878E-002  0.4505265E+03  0.7546771E-02  0.1027565E+00
         21   -1    0    0  502  501  0.00000000000E+00  0.00000000000E+00  0.20943444051E+03  0.20943444051E+03  0.00000000000E+00 0.  1.
         21   -1    0    0  501  502 -0.00000000000E+00 -0.00000000000E+00 -0.24228834813E+03  0.24228834813E+03  0.00000000000E+00 0.  1.
      99926    2    1    2    0    0  0.00000000000E+00 -0.44408920985E-15 -0.32853907624E+02  0.45172278864E+03  0.45052646818E+03 0.  0.
      99925    2    3    3    0    0 -0.41531603946E+02  0.26569547084E+01 -0.12168645378E+03  0.29275529859E+03  0.26299455943E+03 0.  0.
         25    1    4    4    0    0 -0.25395964240E+02 -0.86016708774E+01 -0.10405519212E+03  0.16490583631E+03  0.12509000000E+03 0.  0.
         25    1    3    3    0    0  0.41531603946E+02 -0.26569547084E+01  0.88832546151E+02  0.15896749004E+03  0.12509000000E+03 0.  0.
         25    1    4    4    0    0 -0.16135639705E+02  0.11258625586E+02 -0.17631261653E+02  0.12784946228E+03  0.12509000000E+03 0.  0.
<mgrwt>
<rscale>  2 0.45052647E+03</rscale>
<asrwt>0</asrwt>
<pdfrwt beam="1">  1       21 0.30799182E-01 0.45052647E+03</pdfrwt>
<pdfrwt beam="2">  1       21 0.35630640E-01 0.45052647E+03</pdfrwt>
<totfact> 0.71297640E+04</totfact>
</mgrwt>
</event>
<event>
 7    0  0.4691878E-002  0.4570602E+03  0.7546771E-02  0.1025637E+00
         21   -1    0    0  502  501  0.00000000000E+00  0.00000000000E+00  0.11282629636E+03  0.11282629636E+03  0.00000000000E+00 0.  1.
         21   -1    0    0  501  502 -0.00000000000E+00 -0.00000000000E+00 -0.46288851633E+03  0.46288851633E+03  0.00000000000E+00 0.  1.
      99926    2    1    2    0    0  0.00000000000E+00  0.53290705182E-14 -0.35006221997E+03  0.57571481269E+03  0.45706015765E+03 0.  0.
      99925    2    3    3    0    0 -0.91360104136E+02 -0.80289653632E+01 -0.13232241440E+03  0.30837745290E+03  0.26301387643E+03 0.  0.
         25    1    4    4    0    0 -0.56444845960E+02 -0.32768635374E+02 -0.97998401703E+02  0.17178765653E+03  0.12509000000E+03 0.  0.
         25    1    4    4    0    0 -0.34915258176E+02  0.24739670011E+02 -0.34324012700E+02  0.13658979637E+03  0.12509000000E+03 0.  0.
         25    1    3    3    0    0  0.91360104136E+02  0.80289653632E+01 -0.21773980556E+03  0.26733735979E+03  0.12509000000E+03 0.  0.
<mgrwt>
<rscale>  2 0.45706016E+03</rscale>
<asrwt>0</asrwt>
<pdfrwt beam="1">  1       21 0.16592102E-01 0.45706016E+03</pdfrwt>
<pdfrwt beam="2">  1       21 0.68071840E-01 0.45706016E+03</pdfrwt>
<totfact> 0.59227877E+04</totfact>
</mgrwt>
</event>
<event>
 7    0  0.4691878E-002  0.4559409E+03  0.7546771E-02  0.1025965E+00
         21   -1    0    0  502  501  0.00000000000E+00  0.00000000000E+00  0.15822752812E+03  0.15822752812E+03  0.00000000000E+00 0.  1.
         21   -1    0    0  501  502 -0.00000000000E+00 -0.00000000000E+00 -0.32845443414E+03  0.32845443414E+03  0.00000000000E+00 0.  1.
      99926    2    1    2    0    0  0.00000000000E+00  0.00000000000E+00 -0.17022690602E+03  0.48668196226E+03  0.45594093132E+03 0.  0.
      99925    2    3    3    0    0  0.63629921346E+02 -0.94702870295E+02 -0.10755092623E+03  0.30614612904E+03  0.26294647756E+03 0.  0.
         25    1    4    4    0    0  0.23323836840E+02 -0.17786038343E+02 -0.80123690301E+02  0.15141881776E+03  0.12509000000E+03 0.  0.
         25    1    4    4    0    0  0.40306084506E+02 -0.76916831952E+02 -0.27427235930E+02  0.15472731128E+03  0.12509000000E+03 0.  0.
         25    1    3    3    0    0 -0.63629921346E+02  0.94702870295E+02 -0.62675979791E+02  0.18053583322E+03  0.12509000000E+03 0.  0.
<mgrwt>
<rscale>  2 0.45594093E+03</rscale>
<asrwt>0</asrwt>
<pdfrwt beam="1">  1       21 0.23268754E-01 0.45594093E+03</pdfrwt>
<pdfrwt beam="2">  1       21 0.48302122E-01 0.45594093E+03</pdfrwt>
<totfact> 0.65724521E+04</totfact>
</mgrwt>
</event>
<event>
 7    0  0.4691878E-002  0.4547596E+03  0.7546771E-02  0.1026312E+00
         21   -1    0    0  502  501  0.00000000000E+00  0.00000000000E+00  0.10088105060E+03  0.10088105060E+03  0.00000000000E+00 0. -1.
         21   -1    0    0  501  502 -0.00000000000E+00 -0.00000000000E+00 -0.51250028998E+03  0.51250028998E+03  0.00000000000E+00 0. -1.
      99926    2    1    2    0    0  0.00000000000E+00 -0.88817841970E-15 -0.41161923939E+03  0.61338134058E+03  0.45475957465E+03 0.  0.
      99925    2    3    3    0    0 -0.93183111462E+02  0.68897729539E+01 -0.34465184303E+03  0.44349107745E+03  0.26299977498E+03 0.  0.
         25    1    4    4    0    0 -0.84599155019E+02  0.22555132525E+02 -0.19311369740E+03  0.24618318232E+03  0.12509000000E+03 0.  0.
         25    1    4    4    0    0 -0.85839564430E+01 -0.15665359571E+02 -0.15153814563E+03  0.19730789513E+03  0.12509000000E+03 0.  0.
         25    1    3    3    0    0  0.93183111462E+02 -0.68897729539E+01 -0.66967396355E+02  0.16989026313E+03  0.12509000000E+03 0.  0.
<mgrwt>
<rscale>  2 0.45475957E+03</rscale>
<asrwt>0</asrwt>
<pdfrwt beam="1">  1       21 0.14835449E-01 0.45475957E+03</pdfrwt>
<pdfrwt beam="2">  1       21 0.75367689E-01 0.45475957E+03</pdfrwt>
<totfact> 0.57972087E+04</totfact>
</mgrwt>
</event>
<event>
 7    0  0.4691878E-002  0.4573739E+03  0.7546771E-02  0.1025546E+00
         21   -1    0    0  502  501  0.00000000000E+00  0.00000000000E+00  0.10224444617E+03  0.10224444617E+03  0.00000000000E+00 0.  1.
         21   -1    0    0  501  502 -0.00000000000E+00 -0.00000000000E+00 -0.51149704875E+03  0.51149704875E+03  0.00000000000E+00 0.  1.
      99926    2    1    2    0    0 -0.71054273576E-14  0.00000000000E+00 -0.40925260257E+03  0.61374149492E+03  0.45737394971E+03 0.  0.
      99925    2    3    3    0    0 -0.60127181989E+02 -0.87113149041E+02 -0.31814085679E+03  0.42625059629E+03  0.26319572058E+03 0.  0.
         25    1    4    4    0    0 -0.62192840589E+02 -0.38240109167E+02 -0.12696142873E+03  0.19260573163E+03  0.12509000000E+03 0.  0.
         25    1    3    3    0    0  0.60127181989E+02  0.87113149041E+02 -0.91111745785E+02  0.18749089863E+03  0.12509000000E+03 0.  0.
         25    1    4    4    0    0  0.20656585999E+01 -0.48873039874E+02 -0.19117942806E+03  0.23364486466E+03  0.12509000000E+03 0.  0.
<mgrwt>
<rscale>  2 0.45737395E+03</rscale>
<asrwt>0</asrwt>
<pdfrwt beam="1">  1       21 0.15035948E-01 0.45737395E+03</pdfrwt>
<pdfrwt beam="2">  1       21 0.75220156E-01 0.45737395E+03</pdfrwt>
<totfact> 0.56768410E+04</totfact>
</mgrwt>
</event>
<event>
 7    0  0.4691878E-002  0.4740849E+03  0.7546771E-02  0.1020774E+00
         21   -1    0    0  502  501  0.00000000000E+00  0.00000000000E+00  0.93323326675E+02  0.93323326675E+02  0.00000000000E+00 0. -1.
         21   -1    0    0  501  502 -0.00000000000E+00 -0.00000000000E+00 -0.60209075500E+03  0.60209075500E+03  0.00000000000E+00 0. -1.
      99926    2    1    2    0    0  0.00000000000E+00  0.00000000000E+00 -0.50876742832E+03  0.69541408167E+03  0.47408485408E+03 0.  0.
      99925    2    3    3    0    0 -0.37413408109E+02  0.80276008482E+02 -0.45506685506E+03  0.53300946255E+03  0.26300046378E+03 0.  0.
         25    1    3    3    0    0  0.37413408109E+02 -0.80276008482E+02 -0.53700573263E+02  0.16240461912E+03  0.12509000000E+03 0.  0.
         25    1    4    4    0    0 -0.96573880319E+01  0.76816426568E+02 -0.20934539851E+03  0.25586526242E+03  0.12509000000E+03 0.  0.
         25    1    4    4    0    0 -0.27756020077E+02  0.34595819136E+01 -0.24572145654E+03  0.27714420013E+03  0.12509000000E+03 0.  0.
<mgrwt>
<rscale>  2 0.47408485E+03</rscale>
<asrwt>0</asrwt>
<pdfrwt beam="1">  1       21 0.13724018E-01 0.47408485E+03</pdfrwt>
<pdfrwt beam="2">  1       21 0.88542761E-01 0.47408485E+03</pdfrwt>
<totfact> 0.45860777E+04</totfact>
</mgrwt>
</event>
<event>
 7    0  0.4691878E-002  0.4629163E+03  0.7546771E-02  0.1023939E+00
         21   -1    0    0  502  501  0.00000000000E+00  0.00000000000E+00  0.81202812687E+03  0.81202812687E+03  0.00000000000E+00 0. -1.
         21   -1    0    0  501  502 -0.00000000000E+00 -0.00000000000E+00 -0.65974162605E+02  0.65974162605E+02  0.00000000000E+00 0. -1.
      99926    2    1    2    0    0 -0.71054273576E-14  0.71054273576E-14  0.74605396426E+03  0.87800228947E+03  0.46291630208E+03 0.  0.
      99925    2    3    3    0    0  0.49205530134E+02  0.36698075166E+02  0.26963961111E+03  0.38162936826E+03  0.26299718996E+03 0.  0.
         25    1    4    4    0    0  0.14117024476E+02  0.51560223816E+02  0.10783704372E+03  0.17359171397E+03  0.12509000000E+03 0.  0.
         25    1    4    4    0    0  0.35088505658E+02 -0.14862148650E+02  0.16180256739E+03  0.20803765430E+03  0.12509000000E+03 0.  0.
         25    1    3    3    0    0 -0.49205530134E+02 -0.36698075166E+02  0.47641435316E+03  0.49637292121E+03  0.12509000000E+03 0.  0.
<mgrwt>
<rscale>  2 0.46291630E+03</rscale>
<asrwt>0</asrwt>
<pdfrwt beam="1">  1       21 0.11941590E+00 0.46291630E+03</pdfrwt>
<pdfrwt beam="2">  1       21 0.97020832E-02 0.46291630E+03</pdfrwt>
<totfact> 0.41561066E+04</totfact>
</mgrwt>
</event>
<event>
 7    0  0.4691878E-002  0.4604078E+03  0.7546771E-02  0.1024663E+00
         21   -1    0    0  502  501  0.00000000000E+00  0.00000000000E+00  0.31879234916E+03  0.31879234916E+03  0.00000000000E+00 0.  1.
         21   -1    0    0  501  502 -0.00000000000E+00 -0.00000000000E+00 -0.16623305397E+03  0.16623305397E+03  0.00000000000E+00 0.  1.
      99926    2    1    2    0    0 -0.35527136788E-14  0.00000000000E+00  0.15255929519E+03  0.48502540313E+03  0.46040775747E+03 0.  0.
      99925    2    3    3    0    0 -0.27011645252E+02 -0.10954285828E+03  0.13270378421E+03  0.31540519149E+03  0.26294652250E+03 0.  0.
         25    1    4    4    0    0 -0.25182763135E+01 -0.51371833523E+02  0.10811449374E+03  0.17315212632E+03  0.12509000000E+03 0.  0.
         25    1    4    4    0    0 -0.24493368939E+02 -0.58171024761E+02  0.24589290477E+02  0.14225306517E+03  0.12509000000E+03 0.  0.
         25    1    3    3    0    0  0.27011645252E+02  0.10954285828E+03  0.19855510979E+02  0.16962021164E+03  0.12509000000E+03 0.  0.
<mgrwt>
<rscale>  2 0.46040776E+03</rscale>
<asrwt>0</asrwt>
<pdfrwt beam="1">  1       21 0.46881228E-01 0.46040776E+03</pdfrwt>
<pdfrwt beam="2">  1       21 0.24446037E-01 0.46040776E+03</pdfrwt>
<totfact> 0.63563415E+04</totfact>
</mgrwt>
</event>
<event>
 7    0  0.4691878E-002  0.4397415E+03  0.7546771E-02  0.1030826E+00
         21   -1    0    0  502  501  0.00000000000E+00  0.00000000000E+00  0.94287354333E+02  0.94287354333E+02  0.00000000000E+00 0. -1.
         21   -1    0    0  501  502 -0.00000000000E+00 -0.00000000000E+00 -0.51272134842E+03  0.51272134842E+03  0.00000000000E+00 0. -1.
      99926    2    1    2    0    0  0.00000000000E+00  0.00000000000E+00 -0.41843399408E+03  0.60700870275E+03  0.43974146701E+03 0.  0.
      99925    2    3    3    0    0  0.42470242375E+02 -0.68741148452E+02 -0.19005313036E+03  0.33436535698E+03  0.26296564911E+03 0.  0.
         25    1    4    4    0    0  0.42296183599E+02 -0.68674808941E+02 -0.11855275704E+03  0.19028258152E+03  0.12509000000E+03 0.  0.
         25    1    3    3    0    0 -0.42470242375E+02  0.68741148452E+02 -0.22838086372E+03  0.27264334577E+03  0.12509000000E+03 0.  0.
         25    1    4    4    0    0  0.17405877581E+00 -0.66339511005E-01 -0.71500373321E+02  0.14408277545E+03  0.12509000000E+03 0.  0.
<mgrwt>
<rscale>  2 0.43974147E+03</rscale>
<asrwt>0</asrwt>
<pdfrwt beam="1">  1       21 0.13865787E-01 0.43974147E+03</pdfrwt>
<pdfrwt beam="2">  1       21 0.75400198E-01 0.43974147E+03</pdfrwt>
<totfact> 0.65831824E+04</totfact>
</mgrwt>
</event>
<event>
 7    0  0.4691878E-002  0.4464782E+03  0.7546771E-02  0.1028778E+00
         21   -1    0    0  502  501  0.00000000000E+00  0.00000000000E+00  0.46380464297E+03  0.46380464297E+03  0.00000000000E+00 0. -1.
         21   -1    0    0  501  502 -0.00000000000E+00 -0.00000000000E+00 -0.10744973298E+03  0.10744973298E+03  0.00000000000E+00 0. -1.
      99926    2    1    2    0    0  0.00000000000E+00  0.00000000000E+00  0.35635490999E+03  0.57125437595E+03  0.44647815195E+03 0.  0.
      99925    2    3    3    0    0 -0.33834591625E+02  0.74731741204E+02  0.14196501942E+03  0.30983489310E+03  0.26289538130E+03 0.  0.
         25    1    4    4    0    0  0.36370988308E+01  0.45334468257E+02  0.10886690672E+03  0.17195334827E+03  0.12509000000E+03 0.  0.
         25    1    3    3    0    0  0.33834591625E+02 -0.74731741204E+02  0.21438989057E+03  0.26141948285E+03  0.12509000000E+03 0.  0.
         25    1    4    4    0    0 -0.37471690456E+02  0.29397272947E+02  0.33098112692E+02  0.13788154484E+03  0.12509000000E+03 0.  0.
<mgrwt>
<rscale>  2 0.44647815E+03</rscale>
<asrwt>0</asrwt>
<pdfrwt beam="1">  1       21 0.68206565E-01 0.44647815E+03</pdfrwt>
<pdfrwt beam="2">  1       21 0.15801431E-01 0.44647815E+03</pdfrwt>
<totfact> 0.64736747E+04</totfact>
</mgrwt>
</event>
<event>
 7    0  0.4691878E-002  0.4576556E+03  0.7546771E-02  0.1025463E+00
         21   -1    0    0  502  501  0.00000000000E+00  0.00000000000E+00  0.30118388218E+03  0.30118388218E+03  0.00000000000E+00 0. -1.
         21   -1    0    0  501  502 -0.00000000000E+00 -0.00000000000E+00 -0.17385442489E+03  0.17385442489E+03  0.00000000000E+00 0. -1.
      99926    2    1    2    0    0  0.17763568394E-14  0.14210854715E-13  0.12732945729E+03  0.47503830706E+03  0.45765555004E+03 0.  0.
      99925    2    3    3    0    0 -0.10082485959E+02 -0.90391349631E+02  0.59319397850E+01  0.27842417236E+03  0.26308283720E+03 0.  0.
         25    1    4    4    0    0 -0.23641132258E+02 -0.73016137024E+02 -0.21931526221E+02  0.14838719400E+03  0.12509000000E+03 0.  0.
         25    1    4    4    0    0  0.13558646299E+02 -0.17375212607E+02  0.27863466006E+02  0.13003697836E+03  0.12509000000E+03 0.  0.
         25    1    3    3    0    0  0.10082485959E+02  0.90391349631E+02  0.12139751750E+03  0.19661413471E+03  0.12509000000E+03 0.  0.
<mgrwt>
<rscale>  2 0.45765555E+03</rscale>
<asrwt>0</asrwt>
<pdfrwt beam="1">  1       21 0.44291747E-01 0.45765555E+03</pdfrwt>
<pdfrwt beam="2">  1       21 0.25566827E-01 0.45765555E+03</pdfrwt>
<totfact> 0.65668390E+04</totfact>
</mgrwt>
</event>
<event>
 7    0  0.4691878E-002  0.4624737E+03  0.7546771E-02  0.1024066E+00
         21   -1    0    0  502  501  0.00000000000E+00  0.00000000000E+00  0.22055292296E+03  0.22055292296E+03  0.00000000000E+00 0. -1.
         21   -1    0    0  501  502 -0.00000000000E+00 -0.00000000000E+00 -0.24243834162E+03  0.24243834162E+03  0.00000000000E+00 0. -1.
      99926    2    1    2    0    0  0.00000000000E+00  0.00000000000E+00 -0.21885418654E+02  0.46299126458E+03  0.46247371766E+03 0.  0.
      99925    2    3    3    0    0  0.54988247284E+02 -0.93026176782E+02 -0.66161241003E+02  0.29186139153E+03  0.26292239377E+03 0.  0.
         25    1    3    3    0    0 -0.54988247284E+02  0.93026176782E+02  0.44275822350E+02  0.17112987305E+03  0.12509000000E+03 0.  0.
         25    1    4    4    0    0  0.91308030865E+01 -0.23309397476E+02  0.25506370884E-01  0.12757040537E+03  0.12509000000E+03 0.  0.
         25    1    4    4    0    0  0.45857444198E+02 -0.69716779306E+02 -0.66186747374E+02  0.16429098616E+03  0.12509000000E+03 0.  0.
<mgrwt>
<rscale>  2 0.46247372E+03</rscale>
<asrwt>0</asrwt>
<pdfrwt beam="1">  1       21 0.32434253E-01 0.46247372E+03</pdfrwt>
<pdfrwt beam="2">  1       21 0.35652697E-01 0.46247372E+03</pdfrwt>
<totfact> 0.64058317E+04</totfact>
</mgrwt>
</event>
<event>
 7    0  0.4691878E-002  0.4542789E+03  0.7546771E-02  0.1026454E+00
         21   -1    0    0  502  501  0.00000000000E+00  0.00000000000E+00  0.15855048117E+03  0.15855048117E+03  0.00000000000E+00 0.  1.
         21   -1    0    0  501  502 -0.00000000000E+00 -0.00000000000E+00 -0.32539999156E+03  0.32539999156E+03  0.00000000000E+00 0.  1.
      99926    2    1    2    0    0  0.00000000000E+00  0.00000000000E+00 -0.16684951039E+03  0.48395047273E+03  0.45427888014E+03 0.  0.
      99925    2    3    3    0    0 -0.29217140101E+02 -0.41996752728E+02  0.16717812119E+01  0.26793125521E+03  0.26299618657E+03 0.  0.
         25    1    3    3    0    0  0.29217140101E+02  0.41996752728E+02 -0.16852129160E+03  0.21601921752E+03  0.12509000000E+03 0.  0.
         25    1    4    4    0    0 -0.25245159532E+02 -0.34198847869E+02  0.37833477739E+02  0.13742546858E+03  0.12509000000E+03 0.  0.
         25    1    4    4    0    0 -0.39719805689E+01 -0.77979048584E+01 -0.36161696527E+02  0.13050578664E+03  0.12509000000E+03 0.  0.
<mgrwt>
<rscale>  2 0.45427888E+03</rscale>
<asrwt>0</asrwt>
<pdfrwt beam="1">  1       21 0.23316247E-01 0.45427888E+03</pdfrwt>
<pdfrwt beam="2">  1       21 0.47852940E-01 0.45427888E+03</pdfrwt>
<totfact> 0.66795191E+04</totfact>
</mgrwt>
</event>
<event>
 7    0  0.4691878E-002  0.3984093E+03  0.7546771E-02  0.1044332E+00
         21   -1    0    0  502  501  0.00000000000E+00  0.00000000000E+00  0.67912330080E+03  0.67912330080E+03  0.00000000000E+00 0. -1.
         21   -1    0    0  501  502 -0.00000000000E+00 -0.00000000000E+00 -0.58431931428E+02  0.58431931428E+02  0.00000000000E+00 0. -1.
      99926    2    1    2    0    0  0.71054273576E-14  0.00000000000E+00  0.62069136937E+03  0.73755523223E+03  0.39840926768E+03 0.  0.
      99925    2    3    3    0    0  0.38916023158E+02 -0.10031725495E+01  0.44542887207E+03  0.51874043777E+03  0.26300056747E+03 0.  0.
         25    1    4    4    0    0 -0.62757208575E+01  0.67619801443E+01  0.27631275583E+03  0.30344909982E+03  0.12509000000E+03 0.  0.
         25    1    4    4    0    0  0.45191744015E+02 -0.77651526938E+01  0.16911611624E+03  0.21529133795E+03  0.12509000000E+03 0.  0.
         25    1    3    3    0    0 -0.38916023158E+02  0.10031725495E+01  0.17526249730E+03  0.21881479446E+03  0.12509000000E+03 0.  0.
<mgrwt>
<rscale>  2 0.39840927E+03</rscale>
<asrwt>0</asrwt>
<pdfrwt beam="1">  1       21 0.99871069E-01 0.39840927E+03</pdfrwt>
<pdfrwt beam="2">  1       21 0.85929315E-02 0.39840927E+03</pdfrwt>
<totfact> 0.81595365E+04</totfact>
</mgrwt>
</event>
<event>
 7    0  0.4691878E-002  0.4598074E+03  0.7546771E-02  0.1024837E+00
         21   -1    0    0  502  501  0.00000000000E+00  0.00000000000E+00  0.41485881830E+03  0.41485881830E+03  0.00000000000E+00 0.  1.
         21   -1    0    0  501  502 -0.00000000000E+00 -0.00000000000E+00 -0.12740650318E+03  0.12740650318E+03  0.00000000000E+00 0.  1.
      99926    2    1    2    0    0  0.00000000000E+00  0.00000000000E+00  0.28745231512E+03  0.54226532149E+03  0.45980740035E+03 0.  0.
      99925    2    3    3    0    0 -0.79507351522E+02 -0.86653374665E+02  0.18144324667E+03  0.34048411081E+03  0.26301625742E+03 0.  0.
         25    1    4    4    0    0 -0.35844187679E+01 -0.51618024841E+02  0.10734322985E+03  0.17276384356E+03  0.12509000000E+03 0.  0.
         25    1    4    4    0    0 -0.75922932755E+02 -0.35035349823E+02  0.74100016821E+02  0.16772026726E+03  0.12509000000E+03 0.  0.
         25    1    3    3    0    0  0.79507351522E+02  0.86653374665E+02  0.10600906845E+03  0.20178121067E+03  0.12509000000E+03 0.  0.
<mgrwt>
<rscale>  2 0.45980740E+03</rscale>
<asrwt>0</asrwt>
<pdfrwt beam="1">  1       21 0.61008649E-01 0.45980740E+03</pdfrwt>
<pdfrwt beam="2">  1       21 0.18736251E-01 0.45980740E+03</pdfrwt>
<totfact> 0.60062706E+04</totfact>
</mgrwt>
</event>
<event>
 7    0  0.4691878E-002  0.4497143E+03  0.7546771E-02  0.1027807E+00
         21   -1    0    0  502  501  0.00000000000E+00  0.00000000000E+00  0.24252049119E+03  0.24252049119E+03  0.00000000000E+00 0.  1.
         21   -1    0    0  501  502 -0.00000000000E+00 -0.00000000000E+00 -0.20848027259E+03  0.20848027259E+03  0.00000000000E+00 0.  1.
      99926    2    1    2    0    0  0.00000000000E+00  0.00000000000E+00  0.34040218606E+02  0.45100076378E+03  0.44971430092E+03 0.  0.
      99925    2    3    3    0    0 -0.43683630721E+02  0.25593433852E+02 -0.74323547500E+02  0.27792997666E+03  0.26297870401E+03 0.  0.
         25    1    4    4    0    0 -0.69249984310E+01 -0.20091990988E+02 -0.55545783882E+02  0.13850807165E+03  0.12509000000E+03 0.  0.
         25    1    4    4    0    0 -0.36758632290E+02  0.45685424840E+02 -0.18777763618E+02  0.13942190501E+03  0.12509000000E+03 0.  0.
         25    1    3    3    0    0  0.43683630721E+02 -0.25593433852E+02  0.10836376611E+03  0.17307078712E+03  0.12509000000E+03 0.  0.
<mgrwt>
<rscale>  2 0.44971430E+03</rscale>
<asrwt>0</asrwt>
<pdfrwt beam="1">  1       21 0.35664778E-01 0.44971430E+03</pdfrwt>
<pdfrwt beam="2">  1       21 0.30658864E-01 0.44971430E+03</pdfrwt>
<totfact> 0.71821279E+04</totfact>
</mgrwt>
</event>
<event>
 7    0  0.4691878E-002  0.4551871E+03  0.7546771E-02  0.1026186E+00
         21   -1    0    0  502  501  0.00000000000E+00  0.00000000000E+00  0.75091850209E+02  0.75091850209E+02  0.00000000000E+00 0.  1.
         21   -1    0    0  501  502 -0.00000000000E+00 -0.00000000000E+00 -0.68980612354E+03  0.68980612354E+03  0.00000000000E+00 0.  1.
      99926    2    1    2    0    0 -0.14210854715E-13  0.00000000000E+00 -0.61471427333E+03  0.76489797375E+03  0.45518707408E+03 0.  0.
      99925    2    3    3    0    0 -0.92867396823E+02 -0.29256630625E+02 -0.28932621679E+03  0.40295156989E+03  0.26302091956E+03 0.  0.
         25    1    4    4    0    0 -0.80379016905E+02 -0.28075882306E+02 -0.12641857280E+03  0.19717556941E+03  0.12509000000E+03 0.  0.
         25    1    3    3    0    0  0.92867396823E+02  0.29256630625E+02 -0.32538805654E+03  0.36194640386E+03  0.12509000000E+03 0.  0.
         25    1    4    4    0    0 -0.12488379918E+02 -0.11807483189E+01 -0.16290764400E+03  0.20577600048E+03  0.12509000000E+03 0.  0.
<mgrwt>
<rscale>  2 0.45518707E+03</rscale>
<asrwt>0</asrwt>
<pdfrwt beam="1">  1       21 0.11042919E-01 0.45518707E+03</pdfrwt>
<pdfrwt beam="2">  1       21 0.10144208E+00 0.45518707E+03</pdfrwt>
<totfact> 0.49436664E+04</totfact>
</mgrwt>
</event>
<event>
 7    0  0.4691878E-002  0.4570258E+03  0.7546771E-02  0.1025647E+00
         21   -1    0    0  502  501  0.00000000000E+00  0.00000000000E+00  0.42470114727E+03  0.42470114727E+03  0.00000000000E+00 0.  1.
         21   -1    0    0  501  502 -0.00000000000E+00 -0.00000000000E+00 -0.12295270294E+03  0.12295270294E+03  0.00000000000E+00 0.  1.
      99926    2    1    2    0    0  0.14210854715E-13  0.00000000000E+00  0.30174844434E+03  0.54765385021E+03  0.45702583733E+03 0.  0.
      99925    2    3    3    0    0 -0.69456015080E+02  0.91388053976E+02  0.17998226612E+03  0.33872700967E+03  0.26299516444E+03 0.  0.
         25    1    4    4    0    0 -0.53811362443E+02  0.13926605145E+02  0.66063285710E+02  0.15199170661E+03  0.12509000000E+03 0.  0.
         25    1    4    4    0    0 -0.15644652637E+02  0.77461448831E+02  0.11391898041E+03  0.18673530306E+03  0.12509000000E+03 0.  0.
         25    1    3    3    0    0  0.69456015080E+02 -0.91388053976E+02  0.12176617821E+03  0.20892684054E+03  0.12509000000E+03 0.  0.
<mgrwt>
<rscale>  2 0.45702584E+03</rscale>
<asrwt>0</asrwt>
<pdfrwt beam="1">  1       21 0.62456051E-01 0.45702584E+03</pdfrwt>
<pdfrwt beam="2">  1       21 0.18081280E-01 0.45702584E+03</pdfrwt>
<totfact> 0.61037528E+04</totfact>
</mgrwt>
</event>
<event>
 7    0  0.4691878E-002  0.4556019E+03  0.7546771E-02  0.1026065E+00
         21   -1    0    0  502  501  0.00000000000E+00  0.00000000000E+00  0.32214067524E+03  0.32214067524E+03  0.00000000000E+00 0.  1.
         21   -1    0    0  501  502 -0.00000000000E+00 -0.00000000000E+00 -0.16108886117E+03  0.16108886117E+03  0.00000000000E+00 0.  1.
      99926    2    1    2    0    0 -0.35527136788E-14  0.00000000000E+00  0.16105181407E+03  0.48322953641E+03  0.45560190742E+03 0.  0.
      99925    2    3    3    0    0  0.11844620343E+02 -0.50911995386E+02 -0.56118979080E+01  0.26838860154E+03  0.26318932679E+03 0.  0.
         25    1    3    3    0    0 -0.11844620343E+02  0.50911995386E+02  0.16666371197E+03  0.21484093487E+03  0.12509000000E+03 0.  0.
         25    1    4    4    0    0  0.37377060543E+02 -0.49099747745E+02  0.95530828140E+01  0.13980915340E+03  0.12509000000E+03 0.  0.
         25    1    4    4    0    0 -0.25532440200E+02 -0.18122476410E+01 -0.15164980722E+02  0.12857944814E+03  0.12509000000E+03 0.  0.
<mgrwt>
<rscale>  2 0.45560191E+03</rscale>
<asrwt>0</asrwt>
<pdfrwt beam="1">  1       21 0.47373629E-01 0.45560191E+03</pdfrwt>
<pdfrwt beam="2">  1       21 0.23689538E-01 0.45560191E+03</pdfrwt>
<totfact> 0.66149133E+04</totfact>
</mgrwt>
</event>
<event>
 7    0  0.4691878E-002  0.4582752E+03  0.7546771E-02  0.1025283E+00
         21   -1    0    0  502  501  0.00000000000E+00  0.00000000000E+00  0.30515104165E+03  0.30515104165E+03  0.00000000000E+00 0.  1.
         21   -1    0    0  501  502 -0.00000000000E+00 -0.00000000000E+00 -0.17205917464E+03  0.17205917464E+03  0.00000000000E+00 0.  1.
      99926    2    1    2    0    0  0.71054273576E-14  0.00000000000E+00  0.13309186700E+03  0.47721021629E+03  0.45827518531E+03 0.  0.
      99925    2    3    3    0    0 -0.60321981183E+02 -0.28262491654E+02  0.18275720969E+03  0.32703810099E+03  0.26289962336E+03 0.  0.
         25    1    4    4    0    0  0.10516912309E+02 -0.19699349630E+02  0.80621871046E+02  0.15048609242E+03  0.12509000000E+03 0.  0.
         25    1    4    4    0    0 -0.70838893492E+02 -0.85631420245E+01  0.10213533864E+03  0.17655200857E+03  0.12509000000E+03 0.  0.
         25    1    3    3    0    0  0.60321981183E+02  0.28262491654E+02 -0.49665342685E+02  0.15017211530E+03  0.12509000000E+03 0.  0.
<mgrwt>
<rscale>  2 0.45827519E+03</rscale>
<asrwt>0</asrwt>
<pdfrwt beam="1">  1       21 0.44875153E-01 0.45827519E+03</pdfrwt>
<pdfrwt beam="2">  1       21 0.25302820E-01 0.45827519E+03</pdfrwt>
<totfact> 0.65192733E+04</totfact>
</mgrwt>
</event>
<event>
 7    0  0.4691878E-002  0.4612443E+03  0.7546771E-02  0.1024421E+00
         21   -1    0    0  502  501  0.00000000000E+00  0.00000000000E+00  0.63676343246E+03  0.63676343246E+03  0.00000000000E+00 0. -1.
         21   -1    0    0  501  502 -0.00000000000E+00 -0.00000000000E+00 -0.83526431273E+02  0.83526431273E+02  0.00000000000E+00 0. -1.
      99926    2    1    2    0    0  0.00000000000E+00 -0.17763568394E-14  0.55323700118E+03  0.72028986373E+03  0.46124430437E+03 0.  0.
      99925    2    3    3    0    0  0.55797842422E+02 -0.60720734252E+01  0.18259022524E+03  0.32509774600E+03  0.26305718924E+03 0.  0.
         25    1    4    4    0    0  0.41448657658E+02  0.21668453281E+02  0.12833950769E+03  0.18521892566E+03  0.12509000000E+03 0.  0.
         25    1    4    4    0    0  0.14349184764E+02 -0.27740526707E+02  0.54250717547E+02  0.13987882034E+03  0.12509000000E+03 0.  0.
         25    1    3    3    0    0 -0.55797842422E+02  0.60720734252E+01  0.37064677595E+03  0.39519211773E+03  0.12509000000E+03 0.  0.
<mgrwt>
<rscale>  2 0.46124430E+03</rscale>
<asrwt>0</asrwt>
<pdfrwt beam="1">  1       21 0.93641679E-01 0.46124430E+03</pdfrwt>
<pdfrwt beam="2">  1       21 0.12283299E-01 0.46124430E+03</pdfrwt>
<totfact> 0.49346489E+04</totfact>
</mgrwt>
</event>
<event>
 7    0  0.4691878E-002  0.4508134E+03  0.7546771E-02  0.1027480E+00
         21   -1    0    0  502  501  0.00000000000E+00  0.00000000000E+00  0.54873290547E+02  0.54873290547E+02  0.00000000000E+00 0. -1.
         21   -1    0    0  501  502 -0.00000000000E+00 -0.00000000000E+00 -0.92591843866E+03  0.92591843866E+03  0.00000000000E+00 0. -1.
      99926    2    1    2    0    0  0.00000000000E+00  0.00000000000E+00 -0.87104514811E+03  0.98079172920E+03  0.45081344926E+03 0.  0.
      99925    2    3    3    0    0  0.87549509672E+02  0.17239307857E+02 -0.68695278885E+03  0.74100095537E+03  0.26308966412E+03 0.  0.
         25    1    4    4    0    0  0.74733760267E+02 -0.10121008501E+02 -0.41943559481E+03  0.44414107672E+03  0.12509000000E+03 0.  0.
         25    1    3    3    0    0 -0.87549509672E+02 -0.17239307857E+02 -0.18409235926E+03  0.23979077384E+03  0.12509000000E+03 0.  0.
         25    1    4    4    0    0  0.12815749405E+02  0.27360316357E+02 -0.26751719404E+03  0.29685987865E+03  0.12509000000E+03 0.  0.
<mgrwt>
<rscale>  2 0.45081345E+03</rscale>
<asrwt>0</asrwt>
<pdfrwt beam="1">  1       21 0.80696017E-02 0.45081345E+03</pdfrwt>
<pdfrwt beam="2">  1       21 0.13616447E+00 0.45081345E+03</pdfrwt>
<totfact> 0.41251846E+04</totfact>
</mgrwt>
</event>
<event>
 7    0  0.4691878E-002  0.3973928E+03  0.7546771E-02  0.1044686E+00
         21   -1    0    0  502  501  0.00000000000E+00  0.00000000000E+00  0.19908915544E+03  0.19908915544E+03  0.00000000000E+00 0. -1.
         21   -1    0    0  501  502 -0.00000000000E+00 -0.00000000000E+00 -0.19830443272E+03  0.19830443272E+03  0.00000000000E+00 0. -1.
      99926    2    1    2    0    0 -0.35527136788E-14 -0.35527136788E-14  0.78472272567E+00  0.39739358816E+03  0.39739281337E+03 0.  0.
      99925    2    3    3    0    0 -0.17098683213E+02 -0.16504331806E+02 -0.31936721925E+02  0.26592891999E+03  0.26293245967E+03 0.  0.
         25    1    3    3    0    0  0.17098683213E+02  0.16504331806E+02  0.32721444651E+02  0.13146466817E+03  0.12509000000E+03 0.  0.
         25    1    4    4    0    0  0.46962356016E+01  0.27580145749E+02 -0.18538185080E+01  0.12819385247E+03  0.12509000000E+03 0.  0.
         25    1    4    4    0    0 -0.21794918814E+02 -0.44084477555E+02 -0.30082903417E+02  0.13773506752E+03  0.12509000000E+03 0.  0.
<mgrwt>
<rscale>  2 0.39739281E+03</rscale>
<asrwt>0</asrwt>
<pdfrwt beam="1">  1       21 0.29277817E-01 0.39739281E+03</pdfrwt>
<pdfrwt beam="2">  1       21 0.29162416E-01 0.39739281E+03</pdfrwt>
<totfact> 0.11897126E+05</totfact>
</mgrwt>
</event>
<event>
 7    0  0.4691878E-002  0.4583251E+03  0.7546771E-02  0.1025268E+00
         21   -1    0    0  502  501  0.00000000000E+00  0.00000000000E+00  0.10967646180E+03  0.10967646180E+03  0.00000000000E+00 0.  1.
         21   -1    0    0  501  502 -0.00000000000E+00 -0.00000000000E+00 -0.47882175622E+03  0.47882175622E+03  0.00000000000E+00 0.  1.
      99926    2    1    2    0    0  0.00000000000E+00 -0.17763568394E-14 -0.36914529442E+03  0.58849821801E+03  0.45832510755E+03 0.  0.
      99925    2    3    3    0    0  0.10778265533E+03  0.11265469734E+02 -0.17658123814E+03  0.33458398944E+03  0.26271943348E+03 0.  0.
         25    1    4    4    0    0  0.66854082204E+02  0.41790727358E+02 -0.76761898820E+02  0.16660081156E+03  0.12509000000E+03 0.  0.
         25    1    3    3    0    0 -0.10778265533E+03 -0.11265469734E+02 -0.19256405629E+03  0.25391422857E+03  0.12509000000E+03 0.  0.
         25    1    4    4    0    0  0.40928573126E+02 -0.30525257624E+02 -0.99819339315E+02  0.16798317788E+03  0.12509000000E+03 0.  0.
<mgrwt>
<rscale>  2 0.45832511E+03</rscale>
<asrwt>0</asrwt>
<pdfrwt beam="1">  1       21 0.16128891E-01 0.45832511E+03</pdfrwt>
<pdfrwt beam="2">  1       21 0.70414964E-01 0.45832511E+03</pdfrwt>
<totfact> 0.57856266E+04</totfact>
</mgrwt>
</event>
<event>
 7    0  0.4691878E-002  0.4586876E+03  0.7546771E-02  0.1025163E+00
         21   -1    0    0  502  501  0.00000000000E+00  0.00000000000E+00  0.53470615623E+03  0.53470615623E+03  0.00000000000E+00 0. -1.
         21   -1    0    0  501  502 -0.00000000000E+00 -0.00000000000E+00 -0.98369115238E+02  0.98369115238E+02  0.00000000000E+00 0. -1.
      99926    2    1    2    0    0 -0.71054273576E-14  0.00000000000E+00  0.43633704099E+03  0.63307527146E+03  0.45868756905E+03 0.  0.
      99925    2    3    3    0    0  0.53128800598E+02 -0.56416039147E+02  0.39400034516E+03  0.47995655008E+03  0.26290032151E+03 0.  0.
         25    1    4    4    0    0 -0.37178748836E+01  0.89584934480E+00  0.17491829413E+03  0.21507799251E+03  0.12509000000E+03 0.  0.
         25    1    4    4    0    0  0.56846675482E+02 -0.57311888492E+02  0.21908205103E+03  0.26487855757E+03  0.12509000000E+03 0.  0.
         25    1    3    3    0    0 -0.53128800598E+02  0.56416039147E+02  0.42336695827E+02  0.15311872139E+03  0.12509000000E+03 0.  0.
<mgrwt>
<rscale>  2 0.45868757E+03</rscale>
<asrwt>0</asrwt>
<pdfrwt beam="1">  1       21 0.78633257E-01 0.45868757E+03</pdfrwt>
<pdfrwt beam="2">  1       21 0.14466047E-01 0.45868757E+03</pdfrwt>
<totfact> 0.55066749E+04</totfact>
</mgrwt>
</event>
<event>
 7    0  0.4691878E-002  0.4487870E+03  0.7546771E-02  0.1028084E+00
         21   -1    0    0  502  501  0.00000000000E+00  0.00000000000E+00  0.12341298609E+03  0.12341298609E+03  0.00000000000E+00 0.  1.
         21   -1    0    0  501  502 -0.00000000000E+00 -0.00000000000E+00 -0.40799951197E+03  0.40799951197E+03  0.00000000000E+00 0.  1.
      99926    2    1    2    0    0  0.00000000000E+00  0.00000000000E+00 -0.28458652588E+03  0.53141249806E+03  0.44878697885E+03 0.  0.
      99925    2    3    3    0    0 -0.93427012962E+02  0.21356531049E+02 -0.23713732055E+03  0.36684140900E+03  0.26297110562E+03 0.  0.
         25    1    4    4    0    0 -0.38978941884E+02  0.45524365817E+02 -0.14373833727E+03  0.19974995243E+03  0.12509000000E+03 0.  0.
         25    1    4    4    0    0 -0.54448071078E+02 -0.24167834769E+02 -0.93398983276E+02  0.16709145657E+03  0.12509000000E+03 0.  0.
         25    1    3    3    0    0  0.93427012962E+02 -0.21356531049E+02 -0.47449205333E+02  0.16457108907E+03  0.12509000000E+03 0.  0.
<mgrwt>
<rscale>  2 0.44878698E+03</rscale>
<asrwt>0</asrwt>
<pdfrwt beam="1">  1       21 0.18148968E-01 0.44878698E+03</pdfrwt>
<pdfrwt beam="2">  1       21 0.59999930E-01 0.44878698E+03</pdfrwt>
<totfact> 0.66313334E+04</totfact>
</mgrwt>
</event>
<event>
 7    0  0.4691878E-002  0.4537989E+03  0.7546771E-02  0.1026595E+00
         21   -1    0    0  502  501  0.00000000000E+00  0.00000000000E+00  0.12802040797E+03  0.12802040797E+03  0.00000000000E+00 0.  1.
         21   -1    0    0  501  502 -0.00000000000E+00 -0.00000000000E+00 -0.40214971944E+03  0.40214971944E+03  0.00000000000E+00 0.  1.
      99926    2    1    2    0    0  0.00000000000E+00  0.00000000000E+00 -0.27412931147E+03  0.53017012741E+03  0.45379894733E+03 0.  0.
      99925    2    3    3    0    0 -0.78008489600E+02  0.79106660853E+02 -0.15589793986E+03  0.32530589536E+03  0.26301439060E+03 0.  0.
         25    1    4    4    0    0 -0.10108812133E+02  0.24710626664E+02 -0.40492140325E+02  0.13416379795E+03  0.12509000000E+03 0.  0.
         25    1    4    4    0    0 -0.67899677467E+02  0.54396034190E+02 -0.11540579953E+03  0.19114209741E+03  0.12509000000E+03 0.  0.
         25    1    3    3    0    0  0.78008489600E+02 -0.79106660853E+02 -0.11823137161E+03  0.20486423205E+03  0.12509000000E+03 0.  0.
<mgrwt>
<rscale>  2 0.45379895E+03</rscale>
<asrwt>0</asrwt>
<pdfrwt beam="1">  1       21 0.18826530E-01 0.45379895E+03</pdfrwt>
<pdfrwt beam="2">  1       21 0.59139666E-01 0.45379895E+03</pdfrwt>
<totfact> 0.63800174E+04</totfact>
</mgrwt>
</event>
<event>
 7    0  0.4691878E-002  0.4576482E+03  0.7546771E-02  0.1025466E+00
         21   -1    0    0  502  501  0.00000000000E+00  0.00000000000E+00  0.37490995100E+02  0.37490995100E+02  0.00000000000E+00 0.  1.
         21   -1    0    0  501  502 -0.00000000000E+00 -0.00000000000E+00 -0.13966147889E+04  0.13966147889E+04  0.00000000000E+00 0.  1.
      99926    2    1    2    0    0  0.00000000000E+00  0.00000000000E+00 -0.13591237938E+04  0.14341057840E+04  0.45764824137E+03 0.  0.
      99925    2    3    3    0    0  0.72771548495E+02  0.90131866709E+02 -0.83960919248E+03  0.88733125940E+03  0.26266654935E+03 0.  0.
         25    1    4    4    0    0 -0.32003552690E+01  0.39407958589E+02 -0.34851261581E+03  0.37238660147E+03  0.12509000000E+03 0.  0.
         25    1    3    3    0    0 -0.72771548495E+02 -0.90131866709E+02 -0.51951460134E+03  0.54677452462E+03  0.12509000000E+03 0.  0.
         25    1    4    4    0    0  0.75971903764E+02  0.50723908120E+02 -0.49109657667E+03  0.51494465793E+03  0.12509000000E+03 0.  0.
<mgrwt>
<rscale>  2 0.45764824E+03</rscale>
<asrwt>0</asrwt>
<pdfrwt beam="1">  1       21 0.55133815E-02 0.45764824E+03</pdfrwt>
<pdfrwt beam="2">  1       21 0.20538453E+00 0.45764824E+03</pdfrwt>
<totfact> 0.24920426E+04</totfact>
</mgrwt>
</event>
<event>
 7    0  0.4691878E-002  0.4603184E+03  0.7546771E-02  0.1024689E+00
         21   -1    0    0  502  501  0.00000000000E+00  0.00000000000E+00  0.51169979346E+03  0.51169979346E+03  0.00000000000E+00 0. -1.
         21   -1    0    0  501  502 -0.00000000000E+00 -0.00000000000E+00 -0.10352410041E+03  0.10352410041E+03  0.00000000000E+00 0. -1.
      99926    2    1    2    0    0  0.44408920985E-15  0.00000000000E+00  0.40817569305E+03  0.61522389386E+03  0.46031841499E+03 0.  0.
      99925    2    3    3    0    0  0.23383828069E+01  0.66046207651E+01  0.98082711480E+02  0.28077770332E+03  0.26299583902E+03 0.  0.
         25    1    4    4    0    0  0.21565031329E+02  0.38026858168E+02  0.44258223562E+02  0.13970465623E+03  0.12509000000E+03 0.  0.
         25    1    4    4    0    0 -0.19226648522E+02 -0.31422237402E+02  0.53824487919E+02  0.14107304709E+03  0.12509000000E+03 0.  0.
         25    1    3    3    0    0 -0.23383828069E+01 -0.66046207651E+01  0.31009298157E+03  0.33444619054E+03  0.12509000000E+03 0.  0.
<mgrwt>
<rscale>  2 0.46031841E+03</rscale>
<asrwt>0</asrwt>
<pdfrwt beam="1">  1       21 0.75249968E-01 0.46031841E+03</pdfrwt>
<pdfrwt beam="2">  1       21 0.15224133E-01 0.46031841E+03</pdfrwt>
<totfact> 0.55387407E+04</totfact>
</mgrwt>
</event>
<event>
 7    0  0.4691878E-002  0.4479198E+03  0.7546771E-02  0.1028344E+00
         21   -1    0    0  502  501  0.00000000000E+00  0.00000000000E+00  0.68159561541E+03  0.68159561541E+03  0.00000000000E+00 0.  1.
         21   -1    0    0  501  502 -0.00000000000E+00 -0.00000000000E+00 -0.73589157708E+02  0.73589157708E+02  0.00000000000E+00 0.  1.
      99926    2    1    2    0    0  0.00000000000E+00  0.71054273576E-14  0.60800645770E+03  0.75518477312E+03  0.44791984656E+03 0.  0.
      99925    2    3    3    0    0  0.31292126234E+02 -0.44551054167E+02  0.53919903089E+03  0.60239091304E+03  0.26301183170E+03 0.  0.
         25    1    4    4    0    0 -0.18286344134E+00 -0.37939085646E+02  0.34720244683E+03  0.37099387440E+03  0.12509000000E+03 0.  0.
         25    1    3    3    0    0 -0.31292126234E+02  0.44551054167E+02  0.68807426816E+02  0.15279386008E+03  0.12509000000E+03 0.  0.
         25    1    4    4    0    0  0.31474989675E+02 -0.66119685209E+01  0.19199658406E+03  0.23139703864E+03  0.12509000000E+03 0.  0.
<mgrwt>
<rscale>  2 0.44791985E+03</rscale>
<asrwt>0</asrwt>
<pdfrwt beam="1">  1       21 0.10023465E+00 0.44791985E+03</pdfrwt>
<pdfrwt beam="2">  1       21 0.10821935E-01 0.44791985E+03</pdfrwt>
<totfact> 0.52887512E+04</totfact>
</mgrwt>
</event>
<event>
 7    0  0.4691878E-002  0.4514886E+03  0.7546771E-02  0.1027279E+00
         21   -1    0    0  502  501  0.00000000000E+00  0.00000000000E+00  0.38267146921E+02  0.38267146921E+02  0.00000000000E+00 0. -1.
         21   -1    0    0  501  502 -0.00000000000E+00 -0.00000000000E+00 -0.13317036375E+04  0.13317036375E+04  0.00000000000E+00 0. -1.
      99926    2    1    2    0    0  0.00000000000E+00  0.00000000000E+00 -0.12934364906E+04  0.13699707844E+04  0.45148864328E+03 0.  0.
      99925    2    3    3    0    0 -0.17640627876E+02  0.32807004014E+02 -0.11299352783E+04  0.11607636006E+04  0.26311767700E+03 0.  0.
         25    1    4    4    0    0 -0.13054821795E+02  0.25862237780E+02 -0.74336998996E+03  0.75437771294E+03  0.12509000000E+03 0.  0.
         25    1    3    3    0    0  0.17640627876E+02 -0.32807004014E+02 -0.16350121224E+03  0.20920718384E+03  0.12509000000E+03 0.  0.
         25    1    4    4    0    0 -0.45858060803E+01  0.69447662334E+01 -0.38656528839E+03  0.40638588765E+03  0.12509000000E+03 0.  0.
<mgrwt>
<rscale>  2 0.45148864E+03</rscale>
<asrwt>0</asrwt>
<pdfrwt beam="1">  1       21 0.56275212E-02 0.45148864E+03</pdfrwt>
<pdfrwt beam="2">  1       21 0.19583879E+00 0.45148864E+03</pdfrwt>
<totfact> 0.27896963E+04</totfact>
</mgrwt>
</event>
<event>
 7    0  0.4691878E-002  0.4472926E+03  0.7546771E-02  0.1028533E+00
         21   -1    0    0  502  501  0.00000000000E+00  0.00000000000E+00  0.60246480834E+02  0.60246480834E+02  0.00000000000E+00 0.  1.
         21   -1    0    0  501  502 -0.00000000000E+00 -0.00000000000E+00 -0.83021717161E+03  0.83021717161E+03  0.00000000000E+00 0.  1.
      99926    2    1    2    0    0  0.00000000000E+00  0.71054273576E-14 -0.76997069077E+03  0.89046365244E+03  0.44729257949E+03 0.  0.
      99925    2    3    3    0    0  0.33281572634E+02  0.62406293952E+02 -0.33147336185E+03  0.42902067202E+03  0.26302459734E+03 0.  0.
         25    1    3    3    0    0 -0.33281572634E+02 -0.62406293952E+02 -0.43849732893E+03  0.46144298042E+03  0.12509000000E+03 0.  0.
         25    1    4    4    0    0 -0.17619672121E+01  0.57377664998E+02 -0.21009308568E+03  0.25116113099E+03  0.12509000000E+03 0.  0.
         25    1    4    4    0    0  0.35043539846E+02  0.50286289538E+01 -0.12138027617E+03  0.17785954103E+03  0.12509000000E+03 0.  0.
<mgrwt>
<rscale>  2 0.44729258E+03</rscale>
<asrwt>0</asrwt>
<pdfrwt beam="1">  1       21 0.88597775E-02 0.44729258E+03</pdfrwt>
<pdfrwt beam="2">  1       21 0.12209075E+00 0.44729258E+03</pdfrwt>
<totfact> 0.46385119E+04</totfact>
</mgrwt>
</event>
<event>
 7    0  0.4691878E-002  0.4487684E+03  0.7546771E-02  0.1028090E+00
         21   -1    0    0  502  501  0.00000000000E+00  0.00000000000E+00  0.14095839289E+03  0.14095839289E+03  0.00000000000E+00 0.  1.
         21   -1    0    0  501  502 -0.00000000000E+00 -0.00000000000E+00 -0.35718524737E+03  0.35718524737E+03  0.00000000000E+00 0.  1.
      99926    2    1    2    0    0 -0.14210854715E-13 -0.35527136788E-14 -0.21622685448E+03  0.49814364026E+03  0.44876835198E+03 0.  0.
      99925    2    3    3    0    0  0.10215612863E+03  0.25395572581E+02 -0.11348029402E+03  0.30504994925E+03  0.26286286288E+03 0.  0.
         25    1    4    4    0    0  0.76980491435E+02 -0.18796934628E+02 -0.56633361453E+02  0.15853758716E+03  0.12509000000E+03 0.  0.
         25    1    3    3    0    0 -0.10215612863E+03 -0.25395572581E+02 -0.10274656046E+03  0.19309369101E+03  0.12509000000E+03 0.  0.
         25    1    4    4    0    0  0.25175637199E+02  0.44192507209E+02 -0.56846932567E+02  0.14651236209E+03  0.12509000000E+03 0.  0.
<mgrwt>
<rscale>  2 0.44876835E+03</rscale>
<asrwt>0</asrwt>
<pdfrwt beam="1">  1       21 0.20729176E-01 0.44876835E+03</pdfrwt>
<pdfrwt beam="2">  1       21 0.52527242E-01 0.44876835E+03</pdfrwt>
<totfact> 0.68739083E+04</totfact>
</mgrwt>
</event>
<event>
 7    0  0.4691878E-002  0.4567509E+03  0.7546771E-02  0.1025728E+00
         21   -1    0    0  502  501  0.00000000000E+00  0.00000000000E+00  0.99284280509E+03  0.99284280509E+03  0.00000000000E+00 0. -1.
         21   -1    0    0  501  502 -0.00000000000E+00 -0.00000000000E+00 -0.52531319188E+02  0.52531319188E+02  0.00000000000E+00 0. -1.
      99926    2    1    2    0    0  0.00000000000E+00  0.00000000000E+00  0.94031148590E+03  0.10453741243E+04  0.45675088308E+03 0.  0.
      99925    2    3    3    0    0  0.43678494643E+02  0.31401968778E+02  0.35851225144E+03  0.44785278419E+03  0.26295852779E+03 0.  0.
         25    1    3    3    0    0 -0.43678494643E+02 -0.31401968778E+02  0.58179923446E+03  0.59752134008E+03  0.12509000000E+03 0.  0.
         25    1    4    4    0    0  0.28519463801E+02  0.54227148976E+02  0.16686668137E+03  0.21736131430E+03  0.12509000000E+03 0.  0.
         25    1    4    4    0    0  0.15159030842E+02 -0.22825180198E+02  0.19164557007E+03  0.23049146990E+03  0.12509000000E+03 0.  0.
<mgrwt>
<rscale>  2 0.45675088E+03</rscale>
<asrwt>0</asrwt>
<pdfrwt beam="1">  1       21 0.14600628E+00 0.45675088E+03</pdfrwt>
<pdfrwt beam="2">  1       21 0.77251946E-02 0.45675088E+03</pdfrwt>
<totfact> 0.36940146E+04</totfact>
</mgrwt>
</event>
<event>
 7    0  0.4691878E-002  0.4191717E+03  0.7546771E-02  0.1037336E+00
         21   -1    0    0  502  501  0.00000000000E+00  0.00000000000E+00  0.28586326003E+03  0.28586326003E+03  0.00000000000E+00 0.  1.
         21   -1    0    0  501  502 -0.00000000000E+00 -0.00000000000E+00 -0.15366166450E+03  0.15366166450E+03  0.00000000000E+00 0.  1.
      99926    2    1    2    0    0  0.71054273576E-14  0.17763568394E-14  0.13220159553E+03  0.43952492453E+03  0.41917168013E+03 0.  0.
      99925    2    3    3    0    0  0.59445026786E+02  0.83284606684E+01  0.41586652239E+02  0.27380935340E+03  0.26389209518E+03 0.  0.
         25    1    3    3    0    0 -0.59445026786E+02 -0.83284606684E+01  0.90614943291E+02  0.16571557113E+03  0.12509000000E+03 0.  0.
         25    1    4    4    0    0  0.10543820628E+02  0.39765140976E+02  0.84843559821E+01  0.13195427612E+03  0.12509000000E+03 0.  0.
         25    1    4    4    0    0  0.48901206159E+02 -0.31436680308E+02  0.33102296257E+02  0.14185507728E+03  0.12509000000E+03 0.  0.
<mgrwt>
<rscale>  2 0.41917168E+03</rscale>
<asrwt>0</asrwt>
<pdfrwt beam="1">  1       21 0.42038715E-01 0.41917168E+03</pdfrwt>
<pdfrwt beam="2">  1       21 0.22597303E-01 0.41917168E+03</pdfrwt>
<totfact> 0.93703520E+04</totfact>
</mgrwt>
</event>
<event>
 7    0  0.4691878E-002  0.4502106E+03  0.7546771E-02  0.1027659E+00
         21   -1    0    0  502  501  0.00000000000E+00  0.00000000000E+00  0.16436206788E+03  0.16436206788E+03  0.00000000000E+00 0. -1.
         21   -1    0    0  501  502 -0.00000000000E+00 -0.00000000000E+00 -0.30829742527E+03  0.30829742527E+03  0.00000000000E+00 0. -1.
      99926    2    1    2    0    0  0.00000000000E+00  0.00000000000E+00 -0.14393535739E+03  0.47265949315E+03  0.45021062777E+03 0.  0.
      99925    2    3    3    0    0 -0.10040948668E+03  0.13301135395E+02 -0.13219443626E+03  0.31127689636E+03  0.26298089667E+03 0.  0.
         25    1    4    4    0    0 -0.92756570422E+02  0.15037754341E+02 -0.71403781595E+02  0.17197652031E+03  0.12509000000E+03 0.  0.
         25    1    4    4    0    0 -0.76529162571E+01 -0.17366189458E+01 -0.60790654661E+02  0.13930037605E+03  0.12509000000E+03 0.  0.
         25    1    3    3    0    0  0.10040948668E+03 -0.13301135395E+02 -0.11740921138E+02  0.16138259679E+03  0.12509000000E+03 0.  0.
<mgrwt>
<rscale>  2 0.45021063E+03</rscale>
<asrwt>0</asrwt>
<pdfrwt beam="1">  1       21 0.24170893E-01 0.45021063E+03</pdfrwt>
<pdfrwt beam="2">  1       21 0.45337856E-01 0.45021063E+03</pdfrwt>
<totfact> 0.69856046E+04</totfact>
</mgrwt>
</event>
<event>
 7    0  0.4691878E-002  0.4293331E+03  0.7546771E-02  0.1034071E+00
         21   -1    0    0  502  501  0.00000000000E+00  0.00000000000E+00  0.39214589117E+02  0.39214589117E+02  0.00000000000E+00 0.  1.
         21   -1    0    0  501  502 -0.00000000000E+00 -0.00000000000E+00 -0.11751170767E+04  0.11751170767E+04  0.00000000000E+00 0.  1.
      99926    2    1    2    0    0  0.14210854715E-13 -0.88817841970E-15 -0.11359024876E+04  0.12143316659E+04  0.42933312627E+03 0.  0.
      99925    2    3    3    0    0  0.66791720327E+02  0.59630080032E+01 -0.57603840003E+03  0.63675743163E+03  0.26295075025E+03 0.  0.
         25    1    4    4    0    0  0.73833337716E+02  0.55833288922E+01 -0.33231956935E+03  0.36272074602E+03  0.12509000000E+03 0.  0.
         25    1    4    4    0    0 -0.70416173884E+01  0.37967911098E+00 -0.24371883068E+03  0.27403668561E+03  0.12509000000E+03 0.  0.
         25    1    3    3    0    0 -0.66791720327E+02 -0.59630080032E+01 -0.55986408759E+03  0.57757423422E+03  0.12509000000E+03 0.  0.
<mgrwt>
<rscale>  2 0.42933313E+03</rscale>
<asrwt>0</asrwt>
<pdfrwt beam="1">  1       21 0.57668530E-02 0.42933313E+03</pdfrwt>
<pdfrwt beam="2">  1       21 0.17281129E+00 0.42933313E+03</pdfrwt>
<totfact> 0.38921228E+04</totfact>
</mgrwt>
</event>
<event>
 7    0  0.4691878E-002  0.4546661E+03  0.7546771E-02  0.1026340E+00
         21   -1    0    0  502  501  0.00000000000E+00  0.00000000000E+00  0.15709358688E+03  0.15709358688E+03  0.00000000000E+00 0. -1.
         21   -1    0    0  501  502 -0.00000000000E+00 -0.00000000000E+00 -0.32897786491E+03  0.32897786491E+03  0.00000000000E+00 0. -1.
      99926    2    1    2    0    0  0.00000000000E+00  0.00000000000E+00 -0.17188427804E+03  0.48607145179E+03  0.45466608759E+03 0.  0.
      99925    2    3    3    0    0  0.54189090451E+02  0.41454496072E+02 -0.20422993476E+03  0.33995956871E+03  0.26307358160E+03 0.  0.
         25    1    3    3    0    0 -0.54189090451E+02 -0.41454496072E+02  0.32345656719E+02  0.14611188308E+03  0.12509000000E+03 0.  0.
         25    1    4    4    0    0  0.83136608544E+01  0.45452441529E+02 -0.13500153173E+03  0.18975764298E+03  0.12509000000E+03 0.  0.
         25    1    4    4    0    0  0.45875429596E+02 -0.39979454566E+01 -0.69228403025E+02  0.15020192573E+03  0.12509000000E+03 0.  0.
<mgrwt>
<rscale>  2 0.45466609E+03</rscale>
<asrwt>0</asrwt>
<pdfrwt beam="1">  1       21 0.23101999E-01 0.45466609E+03</pdfrwt>
<pdfrwt beam="2">  1       21 0.48379097E-01 0.45466609E+03</pdfrwt>
<totfact> 0.66436665E+04</totfact>
</mgrwt>
</event>
<event>
 7    0  0.4691878E-002  0.4481698E+03  0.7546771E-02  0.1028269E+00
         21   -1    0    0  502  501  0.00000000000E+00  0.00000000000E+00  0.67880399734E+03  0.67880399734E+03  0.00000000000E+00 0. -1.
         21   -1    0    0  501  502 -0.00000000000E+00 -0.00000000000E+00 -0.73974286572E+02  0.73974286572E+02  0.00000000000E+00 0. -1.
      99926    2    1    2    0    0 -0.35527136788E-14 -0.71054273576E-14  0.60482971077E+03  0.75277828391E+03  0.44816979562E+03 0.  0.
      99925    2    3    3    0    0 -0.29760705600E+02  0.61538697361E+02  0.52021605860E+03  0.58700829536E+03  0.26321337414E+03 0.  0.
         25    1    3    3    0    0  0.29760705600E+02 -0.61538697361E+02  0.84613652168E+02  0.16576998855E+03  0.12509000000E+03 0.  0.
         25    1    4    4    0    0 -0.48207139882E+02  0.74304235322E+01  0.24730378464E+03  0.28139973263E+03  0.12509000000E+03 0.  0.
         25    1    4    4    0    0  0.18446434282E+02  0.54108273829E+02  0.27291227396E+03  0.30560856273E+03  0.12509000000E+03 0.  0.
<mgrwt>
<rscale>  2 0.44816980E+03</rscale>
<asrwt>0</asrwt>
<pdfrwt beam="1">  1       21 0.99824114E-01 0.44816980E+03</pdfrwt>
<pdfrwt beam="2">  1       21 0.10878572E-01 0.44816980E+03</pdfrwt>
<totfact> 0.52912917E+04</totfact>
</mgrwt>
</event>
<event>
 7    0  0.4691878E-002  0.4566739E+03  0.7546771E-02  0.1025750E+00
         21   -1    0    0  502  501  0.00000000000E+00  0.00000000000E+00  0.91158637677E+02  0.91158637677E+02  0.00000000000E+00 0. -1.
         21   -1    0    0  501  502 -0.00000000000E+00 -0.00000000000E+00 -0.57194547499E+03  0.57194547499E+03  0.00000000000E+00 0. -1.
      99926    2    1    2    0    0  0.71054273576E-14  0.00000000000E+00 -0.48078683731E+03  0.66310411266E+03  0.45667393324E+03 0.  0.
      99925    2    3    3    0    0  0.54466421258E+02 -0.10094566018E+03 -0.29719293431E+03  0.41308242026E+03  0.26297685900E+03 0.  0.
         25    1    4    4    0    0 -0.13121079996E+02 -0.40132632159E+02 -0.14528509281E+03  0.19631112347E+03  0.12509000000E+03 0.  0.
         25    1    3    3    0    0 -0.54466421258E+02  0.10094566018E+03 -0.18359390300E+03  0.25002169241E+03  0.12509000000E+03 0.  0.
         25    1    4    4    0    0  0.67587501254E+02 -0.60813028026E+02 -0.15190784150E+03  0.21677129679E+03  0.12509000000E+03 0.  0.
<mgrwt>
<rscale>  2 0.45667393E+03</rscale>
<asrwt>0</asrwt>
<pdfrwt beam="1">  1       21 0.13405682E-01 0.45667393E+03</pdfrwt>
<pdfrwt beam="2">  1       21 0.84109626E-01 0.45667393E+03</pdfrwt>
<totfact> 0.54232695E+04</totfact>
</mgrwt>
</event>
<event>
 7    0  0.4691878E-002  0.4519229E+03  0.7546771E-02  0.1027150E+00
         21   -1    0    0  502  501  0.00000000000E+00  0.00000000000E+00  0.97587405045E+02  0.97587405045E+02  0.00000000000E+00 0. -1.
         21   -1    0    0  501  502 -0.00000000000E+00 -0.00000000000E+00 -0.52320857050E+03  0.52320857050E+03  0.00000000000E+00 0. -1.
      99926    2    1    2    0    0 -0.14210854715E-13  0.00000000000E+00 -0.42562116545E+03  0.62079597554E+03  0.45192285489E+03 0.  0.
      99925    2    3    3    0    0  0.97202049398E+02  0.11689748712E+02 -0.19887687023E+03  0.34394696950E+03  0.26298786984E+03 0.  0.
         25    1    4    4    0    0  0.85762336460E+02 -0.12356138324E+02 -0.97222922872E+02  0.18057590465E+03  0.12509000000E+03 0.  0.
         25    1    4    4    0    0  0.11439712938E+02  0.24045887035E+02 -0.10165394736E+03  0.16337106485E+03  0.12509000000E+03 0.  0.
         25    1    3    3    0    0 -0.97202049398E+02 -0.11689748712E+02 -0.22674429522E+03  0.27684900605E+03  0.12509000000E+03 0.  0.
<mgrwt>
<rscale>  2 0.45192285E+03</rscale>
<asrwt>0</asrwt>
<pdfrwt beam="1">  1       21 0.14351089E-01 0.45192285E+03</pdfrwt>
<pdfrwt beam="2">  1       21 0.76942434E-01 0.45192285E+03</pdfrwt>
<totfact> 0.58832658E+04</totfact>
</mgrwt>
</event>
<event>
 7    0  0.4691878E-002  0.4545689E+03  0.7546771E-02  0.1026368E+00
         21   -1    0    0  502  501  0.00000000000E+00  0.00000000000E+00  0.10427492273E+04  0.10427492273E+04  0.00000000000E+00 0.  1.
         21   -1    0    0  501  502 -0.00000000000E+00 -0.00000000000E+00 -0.49540413826E+02  0.49540413826E+02  0.00000000000E+00 0.  1.
      99926    2    1    2    0    0  0.14210854715E-13  0.71054273576E-14  0.99320881349E+03  0.10922896411E+04  0.45456893091E+03 0.  0.
      99925    2    3    3    0    0 -0.10424427457E+03 -0.42444098818E+02  0.63660992770E+03  0.69798183783E+03  0.26313128964E+03 0.  0.
         25    1    3    3    0    0  0.10424427457E+03  0.42444098818E+02  0.35659888580E+03  0.39430780332E+03  0.12509000000E+03 0.  0.
         25    1    4    4    0    0 -0.37854084701E+02 -0.37799350399E+02  0.39638459860E+03  0.41908230782E+03  0.12509000000E+03 0.  0.
         25    1    4    4    0    0 -0.66390189872E+02 -0.46447484196E+01  0.24022532909E+03  0.27889953001E+03  0.12509000000E+03 0.  0.
<mgrwt>
<rscale>  2 0.45456893E+03</rscale>
<asrwt>0</asrwt>
<pdfrwt beam="1">  1       21 0.15334546E+00 0.45456893E+03</pdfrwt>
<pdfrwt beam="2">  1       21 0.72853556E-02 0.45456893E+03</pdfrwt>
<totfact> 0.35883300E+04</totfact>
</mgrwt>
</event>
<event>
 7    0  0.4691878E-002  0.4514688E+03  0.7546771E-02  0.1027285E+00
         21   -1    0    0  502  501  0.00000000000E+00  0.00000000000E+00  0.28980744841E+03  0.28980744841E+03  0.00000000000E+00 0. -1.
         21   -1    0    0  501  502 -0.00000000000E+00 -0.00000000000E+00 -0.17582715028E+03  0.17582715028E+03  0.00000000000E+00 0. -1.
      99926    2    1    2    0    0  0.00000000000E+00  0.00000000000E+00  0.11398029813E+03  0.46563459869E+03  0.45146879309E+03 0.  0.
      99925    2    3    3    0    0  0.76513432390E+02 -0.75058581155E+02  0.98694535422E+02  0.30019802902E+03  0.26246933033E+03 0.  0.
         25    1    3    3    0    0 -0.76513432390E+02  0.75058581155E+02  0.15285762713E+02  0.16543656967E+03  0.12509000000E+03 0.  0.
         25    1    4    4    0    0  0.51048337940E+02 -0.73114032870E+02  0.72497233931E+02  0.16986745314E+03  0.12509000000E+03 0.  0.
         25    1    4    4    0    0  0.25465094450E+02 -0.19445482852E+01  0.26197301491E+02  0.13033057588E+03  0.12509000000E+03 0.  0.
<mgrwt>
<rscale>  2 0.45146879E+03</rscale>
<asrwt>0</asrwt>
<pdfrwt beam="1">  1       21 0.42618743E-01 0.45146879E+03</pdfrwt>
<pdfrwt beam="2">  1       21 0.25856934E-01 0.45146879E+03</pdfrwt>
<totfact> 0.69693691E+04</totfact>
</mgrwt>
</event>
<event>
 7    0  0.4691878E-002  0.4540109E+03  0.7546771E-02  0.1026533E+00
         21   -1    0    0  502  501  0.00000000000E+00  0.00000000000E+00  0.29402760768E+03  0.29402760768E+03  0.00000000000E+00 0. -1.
         21   -1    0    0  501  502 -0.00000000000E+00 -0.00000000000E+00 -0.17526066221E+03  0.17526066221E+03  0.00000000000E+00 0. -1.
      99926    2    1    2    0    0  0.35527136788E-14  0.00000000000E+00  0.11876694548E+03  0.46928826989E+03  0.45401089515E+03 0.  0.
      99925    2    3    3    0    0 -0.20174265473E+02 -0.99723032259E+02  0.12376074513E+03  0.30796830743E+03  0.26301344490E+03 0.  0.
         25    1    4    4    0    0 -0.45728182322E+02 -0.30997717871E+02  0.53396495662E+02  0.14680129094E+03  0.12509000000E+03 0.  0.
         25    1    3    3    0    0  0.20174265473E+02  0.99723032259E+02 -0.49937996509E+01  0.16131996245E+03  0.12509000000E+03 0.  0.
         25    1    4    4    0    0  0.25553916849E+02 -0.68725314389E+02  0.70364249464E+02  0.16116701650E+03  0.12509000000E+03 0.  0.
<mgrwt>
<rscale>  2 0.45401090E+03</rscale>
<asrwt>0</asrwt>
<pdfrwt beam="1">  1       21 0.43239354E-01 0.45401090E+03</pdfrwt>
<pdfrwt beam="2">  1       21 0.25773627E-01 0.45401090E+03</pdfrwt>
<totfact> 0.68020852E+04</totfact>
</mgrwt>
</event>
<event>
 7    0  0.4691878E-002  0.4572572E+03  0.7546771E-02  0.1025580E+00
         21   -1    0    0  502  501  0.00000000000E+00  0.00000000000E+00  0.57737303387E+03  0.57737303387E+03  0.00000000000E+00 0. -1.
         21   -1    0    0  501  502 -0.00000000000E+00 -0.00000000000E+00 -0.90532531832E+02  0.90532531832E+02  0.00000000000E+00 0. -1.
      99926    2    1    2    0    0  0.00000000000E+00  0.00000000000E+00  0.48684050203E+03  0.66790556570E+03  0.45725722550E+03 0.  0.
      99925    2    3    3    0    0 -0.44753251180E+02  0.39261393152E+02  0.16147825780E+03  0.31427806598E+03  0.26296609008E+03 0.  0.
         25    1    4    4    0    0 -0.98332365791E+01  0.83020676372E+01  0.12162513815E+03  0.17494513197E+03  0.12509000000E+03 0.  0.
         25    1    4    4    0    0 -0.34920014601E+02  0.30959325515E+02  0.39853119656E+02  0.13933293402E+03  0.12509000000E+03 0.  0.
         25    1    3    3    0    0  0.44753251180E+02 -0.39261393152E+02  0.32536224423E+03  0.35362749971E+03  0.12509000000E+03 0.  0.
<mgrwt>
<rscale>  2 0.45725723E+03</rscale>
<asrwt>0</asrwt>
<pdfrwt beam="1">  1       21 0.84907797E-01 0.45725723E+03</pdfrwt>
<pdfrwt beam="2">  1       21 0.13313608E-01 0.45725723E+03</pdfrwt>
<totfact> 0.53717985E+04</totfact>
</mgrwt>
</event>
<event>
 7    0  0.4691878E-002  0.4552287E+03  0.7546771E-02  0.1026174E+00
         21   -1    0    0  502  501  0.00000000000E+00  0.00000000000E+00  0.28536309438E+02  0.28536309438E+02  0.00000000000E+00 0. -1.
         21   -1    0    0  501  502 -0.00000000000E+00 -0.00000000000E+00 -0.18155219515E+04  0.18155219515E+04  0.00000000000E+00 0. -1.
      99926    2    1    2    0    0  0.00000000000E+00  0.14210854715E-13 -0.17869856421E+04  0.18440582610E+04  0.45522871702E+03 0.  0.
      99925    2    3    3    0    0 -0.63655742794E+02  0.73723415744E+02 -0.88967009745E+03  0.93284484449E+03  0.26305783769E+03 0.  0.
         25    1    4    4    0    0 -0.49947539105E+02  0.28127974085E+00 -0.44075776812E+03  0.46087932698E+03  0.12509000000E+03 0.  0.
         25    1    4    4    0    0 -0.13708203689E+02  0.73442136003E+02 -0.44891232934E+03  0.47196551751E+03  0.12509000000E+03 0.  0.
         25    1    3    3    0    0  0.63655742794E+02 -0.73723415744E+02 -0.89731554464E+03  0.91121341648E+03  0.12509000000E+03 0.  0.
<mgrwt>
<rscale>  2 0.45522872E+03</rscale>
<asrwt>0</asrwt>
<pdfrwt beam="1">  1       21 0.41965152E-02 0.45522872E+03</pdfrwt>
<pdfrwt beam="2">  1       21 0.26698858E+00 0.45522872E+03</pdfrwt>
<totfact> 0.16398389E+04</totfact>
</mgrwt>
</event>
<event>
 7    0  0.4691878E-002  0.4437013E+03  0.7546771E-02  0.1029617E+00
         21   -1    0    0  502  501  0.00000000000E+00  0.00000000000E+00  0.45884369284E+03  0.45884369284E+03  0.00000000000E+00 0. -1.
         21   -1    0    0  501  502 -0.00000000000E+00 -0.00000000000E+00 -0.10726464893E+03  0.10726464893E+03  0.00000000000E+00 0. -1.
      99926    2    1    2    0    0  0.00000000000E+00  0.35527136788E-14  0.35157904392E+03  0.56610834177E+03  0.44370128521E+03 0.  0.
      99925    2    3    3    0    0  0.58158290668E+01  0.17562133678E+02  0.95332030303E+02  0.28035968911E+03  0.26300400543E+03 0.  0.
         25    1    3    3    0    0 -0.58158290668E+01 -0.17562133678E+02  0.25624701361E+03  0.28574865265E+03  0.12509000000E+03 0.  0.
         25    1    4    4    0    0 -0.76556999227E+01  0.45262518106E+02  0.33138792224E+02  0.13730620138E+03  0.12509000000E+03 0.  0.
         25    1    4    4    0    0  0.13471528990E+02 -0.27700384428E+02  0.62193238079E+02  0.14305348774E+03  0.12509000000E+03 0.  0.
<mgrwt>
<rscale>  2 0.44370129E+03</rscale>
<asrwt>0</asrwt>
<pdfrwt beam="1">  1       21 0.67477013E-01 0.44370129E+03</pdfrwt>
<pdfrwt beam="2">  1       21 0.15774213E-01 0.44370129E+03</pdfrwt>
<totfact> 0.66566034E+04</totfact>
</mgrwt>
</event>
<event>
 7    0  0.4691878E-002  0.4540566E+03  0.7546771E-02  0.1026519E+00
         21   -1    0    0  502  501  0.00000000000E+00  0.00000000000E+00  0.35067841921E+03  0.35067841921E+03  0.00000000000E+00 0. -1.
         21   -1    0    0  501  502 -0.00000000000E+00 -0.00000000000E+00 -0.14697755205E+03  0.14697755205E+03  0.00000000000E+00 0. -1.
      99926    2    1    2    0    0 -0.71054273576E-14  0.14210854715E-13  0.20370086716E+03  0.49765597126E+03  0.45405662912E+03 0.  0.
      99925    2    3    3    0    0 -0.41817119854E+02 -0.96534777666E+02  0.85147395488E+02  0.29573997745E+03  0.26295326674E+03 0.  0.
         25    1    3    3    0    0  0.41817119854E+02  0.96534777666E+02  0.11855347167E+03  0.20191599381E+03  0.12509000000E+03 0.  0.
         25    1    4    4    0    0 -0.53010828220E+02 -0.68734125812E+02  0.64961951428E+02  0.16553577013E+03  0.12509000000E+03 0.  0.
         25    1    4    4    0    0  0.11193708366E+02 -0.27800651854E+02  0.20185444060E+02  0.13020420731E+03  0.12509000000E+03 0.  0.
<mgrwt>
<rscale>  2 0.45405663E+03</rscale>
<asrwt>0</asrwt>
<pdfrwt beam="1">  1       21 0.51570356E-01 0.45405663E+03</pdfrwt>
<pdfrwt beam="2">  1       21 0.21614346E-01 0.45405663E+03</pdfrwt>
<totfact> 0.65927985E+04</totfact>
</mgrwt>
</event>
<event>
 7    0  0.4691878E-002  0.4457006E+03  0.7546771E-02  0.1029012E+00
         21   -1    0    0  502  501  0.00000000000E+00  0.00000000000E+00  0.15669664114E+03  0.15669664114E+03  0.00000000000E+00 0.  1.
         21   -1    0    0  501  502 -0.00000000000E+00 -0.00000000000E+00 -0.31693242071E+03  0.31693242071E+03  0.00000000000E+00 0.  1.
      99926    2    1    2    0    0  0.00000000000E+00 -0.71054273576E-14 -0.16023577958E+03  0.47362906185E+03  0.44570055325E+03 0.  0.
      99925    2    3    3    0    0  0.96439443258E+02 -0.39510841547E+02 -0.96720574150E+02  0.29886246826E+03  0.26287303523E+03 0.  0.
         25    1    3    3    0    0 -0.96439443258E+02  0.39510841547E+02 -0.63515205426E+02  0.17476659359E+03  0.12509000000E+03 0.  0.
         25    1    4    4    0    0  0.64181062072E+02  0.17297305449E+02 -0.47740764416E+02  0.14948275550E+03  0.12509000000E+03 0.  0.
         25    1    4    4    0    0  0.32258381187E+02 -0.56808146996E+02 -0.48979809734E+02  0.14937971276E+03  0.12509000000E+03 0.  0.
<mgrwt>
<rscale>  2 0.44570055E+03</rscale>
<asrwt>0</asrwt>
<pdfrwt beam="1">  1       21 0.23043624E-01 0.44570055E+03</pdfrwt>
<pdfrwt beam="2">  1       21 0.46607709E-01 0.44570055E+03</pdfrwt>
<totfact> 0.72362285E+04</totfact>
</mgrwt>
</event>
<event>
 7    0  0.4691878E-002  0.4579224E+03  0.7546771E-02  0.1025385E+00
         21   -1    0    0  502  501  0.00000000000E+00  0.00000000000E+00  0.60780628304E+02  0.60780628304E+02  0.00000000000E+00 0. -1.
         21   -1    0    0  501  502 -0.00000000000E+00 -0.00000000000E+00 -0.86249905748E+03  0.86249905748E+03  0.00000000000E+00 0. -1.
      99926    2    1    2    0    0  0.00000000000E+00  0.71054273576E-14 -0.80171842917E+03  0.92327968578E+03  0.45792241537E+03 0.  0.
      99925    2    3    3    0    0  0.76712591645E+02  0.63613753848E+02 -0.38369301702E+03  0.47570367581E+03  0.26294890088E+03 0.  0.
         25    1    4    4    0    0  0.38394662839E+02  0.54247902959E+02 -0.25641212885E+03  0.29293629518E+03  0.12509000000E+03 0.  0.
         25    1    3    3    0    0 -0.76712591645E+02 -0.63613753848E+02 -0.41802541215E+03  0.44757600997E+03  0.12509000000E+03 0.  0.
         25    1    4    4    0    0  0.38317928806E+02  0.93658508890E+01 -0.12728088817E+03  0.18276738063E+03  0.12509000000E+03 0.  0.
<mgrwt>
<rscale>  2 0.45792242E+03</rscale>
<asrwt>0</asrwt>
<pdfrwt beam="1">  1       21 0.89383283E-02 0.45792242E+03</pdfrwt>
<pdfrwt beam="2">  1       21 0.12683809E+00 0.45792242E+03</pdfrwt>
<totfact> 0.41290056E+04</totfact>
</mgrwt>
</event>
<event>
 7    0  0.4691878E-002  0.4534983E+03  0.7546771E-02  0.1026684E+00
         21   -1    0    0  502  501  0.00000000000E+00  0.00000000000E+00  0.27969168241E+03  0.27969168241E+03  0.00000000000E+00 0. -1.
         21   -1    0    0  501  502 -0.00000000000E+00 -0.00000000000E+00 -0.18382807406E+03  0.18382807406E+03  0.00000000000E+00 0. -1.
      99926    2    1    2    0    0  0.00000000000E+00  0.00000000000E+00  0.95863608347E+02  0.46351975647E+03  0.45349832770E+03 0.  0.
      99925    2    3    3    0    0 -0.65667681904E+02 -0.75712132801E+02  0.99158268487E+01  0.28164314790E+03  0.26302085019E+03 0.  0.
         25    1    3    3    0    0  0.65667681904E+02  0.75712132801E+02  0.85947781498E+02  0.18187660857E+03  0.12509000000E+03 0.  0.
         25    1    4    4    0    0 -0.70009868553E+02 -0.42295286289E+02 -0.13228538301E+02  0.15004257817E+03  0.12509000000E+03 0.  0.
         25    1    4    4    0    0  0.43421866495E+01 -0.33416846512E+02  0.23144365150E+02  0.13160056973E+03  0.12509000000E+03 0.  0.
<mgrwt>
<rscale>  2 0.45349833E+03</rscale>
<asrwt>0</asrwt>
<pdfrwt beam="1">  1       21 0.41131130E-01 0.45349833E+03</pdfrwt>
<pdfrwt beam="2">  1       21 0.27033540E-01 0.45349833E+03</pdfrwt>
<totfact> 0.68736518E+04</totfact>
</mgrwt>
</event>
<event>
 7    0  0.4691878E-002  0.4535512E+03  0.7546771E-02  0.1026668E+00
         21   -1    0    0  502  501  0.00000000000E+00  0.00000000000E+00  0.10440863597E+03  0.10440863597E+03  0.00000000000E+00 0.  1.
         21   -1    0    0  501  502 -0.00000000000E+00 -0.00000000000E+00 -0.49255662022E+03  0.49255662022E+03  0.00000000000E+00 0.  1.
      99926    2    1    2    0    0  0.35527136788E-14  0.14210854715E-13 -0.38814798425E+03  0.59696525619E+03  0.45355116515E+03 0.  0.
      99925    2    3    3    0    0 -0.29895667944E+02  0.10270405373E+03 -0.28727651972E+03  0.40392527568E+03  0.26303223365E+03 0.  0.
         25    1    4    4    0    0  0.61976917843E+01  0.17668010781E+02 -0.15264420761E+03  0.19823806951E+03  0.12509000000E+03 0.  0.
         25    1    3    3    0    0  0.29895667944E+02 -0.10270405373E+03 -0.10087146454E+03  0.19303998050E+03  0.12509000000E+03 0.  0.
         25    1    4    4    0    0 -0.36093359729E+02  0.85036042952E+02 -0.13463231211E+03  0.20568720617E+03  0.12509000000E+03 0.  0.
<mgrwt>
<rscale>  2 0.45355117E+03</rscale>
<asrwt>0</asrwt>
<pdfrwt beam="1">  1       21 0.15354211E-01 0.45355117E+03</pdfrwt>
<pdfrwt beam="2">  1       21 0.72434796E-01 0.45355117E+03</pdfrwt>
<totfact> 0.59544225E+04</totfact>
</mgrwt>
</event>
<event>
 7    0  0.4691878E-002  0.4559980E+03  0.7546771E-02  0.1025948E+00
         21   -1    0    0  502  501  0.00000000000E+00  0.00000000000E+00  0.12360386982E+03  0.12360386982E+03  0.00000000000E+00 0. -1.
         21   -1    0    0  501  502 -0.00000000000E+00 -0.00000000000E+00 -0.42056574734E+03  0.42056574734E+03  0.00000000000E+00 0. -1.
      99926    2    1    2    0    0  0.00000000000E+00  0.14210854715E-13 -0.29696187751E+03  0.54416961716E+03  0.45599804336E+03 0.  0.
      99925    2    3    3    0    0  0.34378476906E+02 -0.86313912175E+02 -0.10766286382E+03  0.29898887609E+03  0.26300396322E+03 0.  0.
         25    1    3    3    0    0 -0.34378476906E+02  0.86313912175E+02 -0.18929901369E+03  0.24518074107E+03  0.12509000000E+03 0.  0.
         25    1    4    4    0    0  0.22560415064E+02 -0.14749694774E+01 -0.54856049292E+02  0.13844797617E+03  0.12509000000E+03 0.  0.
         25    1    4    4    0    0  0.11818061842E+02 -0.84838942698E+02 -0.52806814531E+02  0.16054089991E+03  0.12509000000E+03 0.  0.
<mgrwt>
<rscale>  2 0.45599804E+03</rscale>
<asrwt>0</asrwt>
<pdfrwt beam="1">  1       21 0.18177040E-01 0.45599804E+03</pdfrwt>
<pdfrwt beam="2">  1       21 0.61847904E-01 0.45599804E+03</pdfrwt>
<totfact> 0.61764204E+04</totfact>
</mgrwt>
</event>
<event>
 7    0  0.4691878E-002  0.4703234E+03  0.7546771E-02  0.1021829E+00
         21   -1    0    0  502  501  0.00000000000E+00  0.00000000000E+00  0.21427778130E+03  0.21427778130E+03  0.00000000000E+00 0.  1.
         21   -1    0    0  501  502 -0.00000000000E+00 -0.00000000000E+00 -0.25808098347E+03  0.25808098347E+03  0.00000000000E+00 0.  1.
      99926    2    1    2    0    0  0.00000000000E+00  0.71054273576E-14 -0.43803202173E+02  0.47235876477E+03  0.47032338039E+03 0.  0.
      99925    2    3    3    0    0  0.97326486846E+02  0.56698279202E+02 -0.86125990339E+02  0.29879071932E+03  0.26300393121E+03 0.  0.
         25    1    4    4    0    0  0.61906169922E+02  0.67647395015E+02 -0.37620928051E+02  0.15959757597E+03  0.12509000000E+03 0.  0.
         25    1    4    4    0    0  0.35420316923E+02 -0.10949115814E+02 -0.48505062287E+02  0.13919314335E+03  0.12509000000E+03 0.  0.
         25    1    3    3    0    0 -0.97326486846E+02 -0.56698279202E+02  0.42322788166E+02  0.17356804546E+03  0.12509000000E+03 0.  0.
<mgrwt>
<rscale>  2 0.47032338E+03</rscale>
<asrwt>0</asrwt>
<pdfrwt beam="1">  1       21 0.31511439E-01 0.47032338E+03</pdfrwt>
<pdfrwt beam="2">  1       21 0.37953085E-01 0.47032338E+03</pdfrwt>
<totfact> 0.59658107E+04</totfact>
</mgrwt>
</event>
<event>
 7    0  0.4691878E-002  0.4529877E+03  0.7546771E-02  0.1026835E+00
         21   -1    0    0  502  501  0.00000000000E+00  0.00000000000E+00  0.58584983577E+03  0.58584983577E+03  0.00000000000E+00 0.  1.
         21   -1    0    0  501  502 -0.00000000000E+00 -0.00000000000E+00 -0.87564167157E+02  0.87564167157E+02  0.00000000000E+00 0.  1.
      99926    2    1    2    0    0  0.00000000000E+00  0.00000000000E+00  0.49828566862E+03  0.67341400293E+03  0.45298765082E+03 0.  0.
      99925    2    3    3    0    0 -0.22698867759E+02 -0.59214368067E+02  0.45013541722E+03  0.52513205935E+03  0.26290721925E+03 0.  0.
         25    1    4    4    0    0  0.19814700514E+02 -0.22868823310E+02  0.16941872974E+03  0.21275765444E+03  0.12509000000E+03 0.  0.
         25    1    4    4    0    0 -0.42513568273E+02 -0.36345544758E+02  0.28071668748E+03  0.31237440490E+03  0.12509000000E+03 0.  0.
         25    1    3    3    0    0  0.22698867759E+02  0.59214368067E+02  0.48150251395E+02  0.14828194358E+03  0.12509000000E+03 0.  0.
<mgrwt>
<rscale>  2 0.45298765E+03</rscale>
<asrwt>0</asrwt>
<pdfrwt beam="1">  1       21 0.86154386E-01 0.45298765E+03</pdfrwt>
<pdfrwt beam="2">  1       21 0.12877084E-01 0.45298765E+03</pdfrwt>
<totfact> 0.55241407E+04</totfact>
</mgrwt>
</event>
<event>
 7    0  0.4691878E-002  0.4542929E+03  0.7546771E-02  0.1026450E+00
         21   -1    0    0  502  501  0.00000000000E+00  0.00000000000E+00  0.25808328431E+03  0.25808328431E+03  0.00000000000E+00 0.  1.
         21   -1    0    0  501  502 -0.00000000000E+00 -0.00000000000E+00 -0.19991808572E+03  0.19991808572E+03  0.00000000000E+00 0.  1.
      99926    2    1    2    0    0  0.71054273576E-14  0.14210854715E-13  0.58165198591E+02  0.45800137003E+03  0.45429292821E+03 0.  0.
      99925    2    3    3    0    0 -0.37779067592E+02 -0.76233698713E+02 -0.35154554747E+02  0.28025177304E+03  0.26470054553E+03 0.  0.
         25    1    4    4    0    0  0.70672059477E+01 -0.94560502226E+01  0.64800945989E+01  0.12581280544E+03  0.12509000000E+03 0.  0.
         25    1    4    4    0    0 -0.44846273539E+02 -0.66777648491E+02 -0.41634649346E+02  0.15443896760E+03  0.12509000000E+03 0.  0.
         25    1    3    3    0    0  0.37779067592E+02  0.76233698713E+02  0.93319753338E+02  0.17774959699E+03  0.12509000000E+03 0.  0.
<mgrwt>
<rscale>  2 0.45429293E+03</rscale>
<asrwt>0</asrwt>
<pdfrwt beam="1">  1       21 0.37953424E-01 0.45429293E+03</pdfrwt>
<pdfrwt beam="2">  1       21 0.29399719E-01 0.45429293E+03</pdfrwt>
<totfact> 0.68713091E+04</totfact>
</mgrwt>
</event>
<event>
 7    0  0.4691878E-002  0.4482887E+03  0.7546771E-02  0.1028234E+00
         21   -1    0    0  502  501  0.00000000000E+00  0.00000000000E+00  0.27641124355E+02  0.27641124355E+02  0.00000000000E+00 0. -1.
         21   -1    0    0  501  502 -0.00000000000E+00 -0.00000000000E+00 -0.18176065491E+04  0.18176065491E+04  0.00000000000E+00 0. -1.
      99926    2    1    2    0    0  0.00000000000E+00  0.71054273576E-14 -0.17899654248E+04  0.18452476735E+04  0.44828869561E+03 0.  0.
      99925    2    3    3    0    0  0.74024860409E+02  0.59357507838E+02 -0.93244054650E+03  0.97346821820E+03  0.26304373286E+03 0.  0.
         25    1    3    3    0    0 -0.74024860409E+02 -0.59357507838E+02 -0.85752487828E+03  0.87177945529E+03  0.12509000000E+03 0.  0.
         25    1    4    4    0    0  0.42433279692E+02  0.13891539886E+02 -0.33071812957E+03  0.35639240653E+03  0.12509000000E+03 0.  0.
         25    1    4    4    0    0  0.31591580717E+02  0.45465967952E+02 -0.60172241693E+03  0.61707581167E+03  0.12509000000E+03 0.  0.
<mgrwt>
<rscale>  2 0.44828870E+03</rscale>
<asrwt>0</asrwt>
<pdfrwt beam="1">  1       21 0.40648715E-02 0.44828870E+03</pdfrwt>
<pdfrwt beam="2">  1       21 0.26729506E+00 0.44828870E+03</pdfrwt>
<totfact> 0.17288440E+04</totfact>
</mgrwt>
</event>
<event>
 7    0  0.4691878E-002  0.4491076E+03  0.7546771E-02  0.1027989E+00
         21   -1    0    0  502  501  0.00000000000E+00  0.00000000000E+00  0.82514289670E+03  0.82514289670E+03  0.00000000000E+00 0.  1.
         21   -1    0    0  501  502 -0.00000000000E+00 -0.00000000000E+00 -0.61109902331E+02  0.61109902331E+02  0.00000000000E+00 0.  1.
      99926    2    1    2    0    0 -0.14210854715E-13  0.35527136788E-14  0.76403299437E+03  0.88625279903E+03  0.44910756764E+03 0.  0.
      99925    2    3    3    0    0 -0.10332908100E+03  0.20340033125E+02  0.52788009204E+03  0.59901366990E+03  0.26281051962E+03 0.  0.
         25    1    4    4    0    0 -0.53265088494E+02 -0.14177153508E+02  0.32953190755E+03  0.35675894877E+03  0.12509000000E+03 0.  0.
         25    1    3    3    0    0  0.10332908100E+03 -0.20340033125E+02  0.23615290233E+03  0.28723912913E+03  0.12509000000E+03 0.  0.
         25    1    4    4    0    0 -0.50063992503E+02  0.34517186633E+02  0.19834818449E+03  0.24225472113E+03  0.12509000000E+03 0.  0.
<mgrwt>
<rscale>  2 0.44910757E+03</rscale>
<asrwt>0</asrwt>
<pdfrwt beam="1">  1       21 0.12134454E+00 0.44910757E+03</pdfrwt>
<pdfrwt beam="2">  1       21 0.89867509E-02 0.44910757E+03</pdfrwt>
<totfact> 0.45915773E+04</totfact>
</mgrwt>
</event>
<event>
 7    0  0.4691878E-002  0.4541302E+03  0.7546771E-02  0.1026497E+00
         21   -1    0    0  502  501  0.00000000000E+00  0.00000000000E+00  0.14289976736E+03  0.14289976736E+03  0.00000000000E+00 0. -1.
         21   -1    0    0  501  502 -0.00000000000E+00 -0.00000000000E+00 -0.36080224126E+03  0.36080224126E+03  0.00000000000E+00 0. -1.
      99926    2    1    2    0    0 -0.44408920985E-15  0.00000000000E+00 -0.21790247390E+03  0.50370200862E+03  0.45413018547E+03 0.  0.
      99925    2    3    3    0    0  0.31900626583E+01  0.10879098299E+03 -0.16793636462E+03  0.33052644841E+03  0.26305789487E+03 0.  0.
         25    1    4    4    0    0  0.18923593291E+01  0.80082982325E+02 -0.51449624877E+02  0.15719871845E+03  0.12509000000E+03 0.  0.
         25    1    4    4    0    0  0.12977033291E+01  0.28708000665E+02 -0.11648673974E+03  0.17332772996E+03  0.12509000000E+03 0.  0.
         25    1    3    3    0    0 -0.31900626583E+01 -0.10879098299E+03 -0.49966109273E+02  0.17317556021E+03  0.12509000000E+03 0.  0.
<mgrwt>
<rscale>  2 0.45413019E+03</rscale>
<asrwt>0</asrwt>
<pdfrwt beam="1">  1       21 0.21014672E-01 0.45413019E+03</pdfrwt>
<pdfrwt beam="2">  1       21 0.53059153E-01 0.45413019E+03</pdfrwt>
<totfact> 0.65462151E+04</totfact>
</mgrwt>
</event>
<event>
 7    0  0.4691878E-002  0.4529117E+03  0.7546771E-02  0.1026857E+00
         21   -1    0    0  502  501  0.00000000000E+00  0.00000000000E+00  0.35721450881E+02  0.35721450881E+02  0.00000000000E+00 0.  1.
         21   -1    0    0  501  502 -0.00000000000E+00 -0.00000000000E+00 -0.14356150472E+04  0.14356150472E+04  0.00000000000E+00 0.  1.
      99926    2    1    2    0    0  0.00000000000E+00  0.00000000000E+00 -0.13998935963E+04  0.14713364980E+04  0.45291170173E+03 0.  0.
      99925    2    3    3    0    0 -0.36970733800E+02  0.60793322350E+02 -0.11593111092E+04  0.11909972315E+04  0.26345681662E+03 0.  0.
         25    1    4    4    0    0 -0.15714062585E+02  0.56413389838E+02 -0.46128341835E+03  0.48151770732E+03  0.12509000000E+03 0.  0.
         25    1    4    4    0    0 -0.21256671215E+02  0.43799325120E+01 -0.69802769086E+03  0.70947952415E+03  0.12509000000E+03 0.  0.
         25    1    3    3    0    0  0.36970733800E+02 -0.60793322350E+02 -0.24058248708E+03  0.28033926659E+03  0.12509000000E+03 0.  0.
<mgrwt>
<rscale>  2 0.45291170E+03</rscale>
<asrwt>0</asrwt>
<pdfrwt beam="1">  1       21 0.52531558E-02 0.45291170E+03</pdfrwt>
<pdfrwt beam="2">  1       21 0.21111981E+00 0.45291170E+03</pdfrwt>
<totfact> 0.24891793E+04</totfact>
</mgrwt>
</event>
<event>
 7    0  0.4691878E-002  0.4483812E+03  0.7546771E-02  0.1028206E+00
         21   -1    0    0  502  501  0.00000000000E+00  0.00000000000E+00  0.15644178072E+03  0.15644178072E+03  0.00000000000E+00 0. -1.
         21   -1    0    0  501  502 -0.00000000000E+00 -0.00000000000E+00 -0.32127874079E+03  0.32127874079E+03  0.00000000000E+00 0. -1.
      99926    2    1    2    0    0  0.35527136788E-14  0.00000000000E+00 -0.16483696007E+03  0.47772052151E+03  0.44838116962E+03 0.  0.
      99925    2    3    3    0    0 -0.26984730165E+02 -0.88990566950E+02 -0.48343623184E+02  0.28312940582E+03  0.26301645932E+03 0.  0.
         25    1    4    4    0    0 -0.89053124175E+01 -0.35442726093E+02 -0.63615900032E+02  0.14501717919E+03  0.12509000000E+03 0.  0.
         25    1    4    4    0    0 -0.18079417748E+02 -0.53547840857E+02  0.15272276849E+02  0.13811222664E+03  0.12509000000E+03 0.  0.
         25    1    3    3    0    0  0.26984730165E+02  0.88990566950E+02 -0.11649333688E+03  0.19459111569E+03  0.12509000000E+03 0.  0.
<mgrwt>
<rscale>  2 0.44838117E+03</rscale>
<asrwt>0</asrwt>
<pdfrwt beam="1">  1       21 0.23006145E-01 0.44838117E+03</pdfrwt>
<pdfrwt beam="2">  1       21 0.47246873E-01 0.44838117E+03</pdfrwt>
<totfact> 0.70498114E+04</totfact>
</mgrwt>
</event>
<event>
 7    0  0.4691878E-002  0.4625515E+03  0.7546771E-02  0.1024044E+00
         21   -1    0    0  502  501  0.00000000000E+00  0.00000000000E+00  0.59828621831E+02  0.59828621831E+02  0.00000000000E+00 0. -1.
         21   -1    0    0  501  502 -0.00000000000E+00 -0.00000000000E+00 -0.89402803196E+03  0.89402803196E+03  0.00000000000E+00 0. -1.
      99926    2    1    2    0    0  0.53290705182E-14  0.00000000000E+00 -0.83419941013E+03  0.95385665380E+03  0.46255146754E+03 0.  0.
      99925    2    3    3    0    0 -0.90169870216E+01 -0.44845321415E+02 -0.75040954854E+03  0.79650145714E+03  0.26307351023E+03 0.  0.
         25    1    3    3    0    0  0.90169870216E+01  0.44845321415E+02 -0.83789861593E+02  0.15735519665E+03  0.12509000000E+03 0.  0.
         25    1    4    4    0    0 -0.43433628837E+02 -0.16272617856E+02 -0.34594401509E+03  0.37077762592E+03  0.12509000000E+03 0.  0.
         25    1    4    4    0    0  0.34416641815E+02 -0.28572703559E+02 -0.40446553345E+03  0.42572383123E+03  0.12509000000E+03 0.  0.
<mgrwt>
<rscale>  2 0.46255147E+03</rscale>
<asrwt>0</asrwt>
<pdfrwt beam="1">  1       21 0.87983279E-02 0.46255147E+03</pdfrwt>
<pdfrwt beam="2">  1       21 0.13147469E+00 0.46255147E+03</pdfrwt>
<totfact> 0.38651710E+04</totfact>
</mgrwt>
</event>
<event>
 7    0  0.4691878E-002  0.4593016E+03  0.7546771E-02  0.1024984E+00
         21   -1    0    0  502  501  0.00000000000E+00  0.00000000000E+00  0.20567948769E+03  0.20567948769E+03  0.00000000000E+00 0. -1.
         21   -1    0    0  501  502 -0.00000000000E+00 -0.00000000000E+00 -0.25641593495E+03  0.25641593495E+03  0.00000000000E+00 0. -1.
      99926    2    1    2    0    0  0.00000000000E+00  0.00000000000E+00 -0.50736447259E+02  0.46209542263E+03  0.45930163568E+03 0.  0.
      99925    2    3    3    0    0 -0.91488228646E+02 -0.72398102324E+02 -0.20272391613E+02  0.28835093211E+03  0.26291388131E+03 0.  0.
         25    1    3    3    0    0  0.91488228646E+02  0.72398102324E+02 -0.30464055646E+02  0.17374449052E+03  0.12509000000E+03 0.  0.
         25    1    4    4    0    0 -0.77433762909E+02 -0.46376446649E+02 -0.37272279310E+02  0.15869307908E+03  0.12509000000E+03 0.  0.
         25    1    4    4    0    0 -0.14054465737E+02 -0.26021655674E+02  0.16999887698E+02  0.12965785303E+03  0.12509000000E+03 0.  0.
<mgrwt>
<rscale>  2 0.45930164E+03</rscale>
<asrwt>0</asrwt>
<pdfrwt beam="1">  1       21 0.30246984E-01 0.45930164E+03</pdfrwt>
<pdfrwt beam="2">  1       21 0.37708225E-01 0.45930164E+03</pdfrwt>
<totfact> 0.65743534E+04</totfact>
</mgrwt>
</event>
<event>
 7    0  0.4691878E-002  0.4592754E+03  0.7546771E-02  0.1024992E+00
         21   -1    0    0  502  501  0.00000000000E+00  0.00000000000E+00  0.49615908517E+03  0.49615908517E+03  0.00000000000E+00 0.  1.
         21   -1    0    0  501  502 -0.00000000000E+00 -0.00000000000E+00 -0.10628338267E+03  0.10628338267E+03  0.00000000000E+00 0.  1.
      99926    2    1    2    0    0  0.00000000000E+00  0.00000000000E+00  0.38987570251E+03  0.60244246784E+03  0.45927536800E+03 0.  0.
      99925    2    3    3    0    0  0.69851867877E+02 -0.90976204833E+02  0.21266158196E+03  0.35706865931E+03  0.26290136121E+03 0.  0.
         25    1    4    4    0    0  0.60528165033E+02 -0.68408755443E+02  0.85015230809E+02  0.17668761743E+03  0.12509000000E+03 0.  0.
         25    1    4    4    0    0  0.93237028439E+01 -0.22567449390E+02  0.12764635116E+03  0.18038104188E+03  0.12509000000E+03 0.  0.
         25    1    3    3    0    0 -0.69851867877E+02  0.90976204833E+02  0.17721412054E+03  0.24537380853E+03  0.12509000000E+03 0.  0.
<mgrwt>
<rscale>  2 0.45927537E+03</rscale>
<asrwt>0</asrwt>
<pdfrwt beam="1">  1       21 0.72964570E-01 0.45927537E+03</pdfrwt>
<pdfrwt beam="2">  1       21 0.15629909E-01 0.45927537E+03</pdfrwt>
<totfact> 0.56592182E+04</totfact>
</mgrwt>
</event>
<event>
 7    0  0.4691878E-002  0.4582747E+03  0.7546771E-02  0.1025283E+00
         21   -1    0    0  502  501  0.00000000000E+00  0.00000000000E+00  0.10020318020E+04  0.10020318020E+04  0.00000000000E+00 0.  1.
         21   -1    0    0  501  502 -0.00000000000E+00 -0.00000000000E+00 -0.52397453468E+02  0.52397453468E+02  0.00000000000E+00 0.  1.
      99926    2    1    2    0    0  0.00000000000E+00  0.00000000000E+00  0.94963434850E+03  0.10544292554E+04  0.45827465440E+03 0.  0.
      99925    2    3    3    0    0  0.85784523071E+02  0.72797819523E+02  0.66293398391E+03  0.72200916868E+03  0.26297769050E+03 0.  0.
         25    1    4    4    0    0  0.14242718531E+02  0.14924558769E+02  0.23928691533E+03  0.27079758757E+03  0.12509000000E+03 0.  0.
         25    1    3    3    0    0 -0.85784523071E+02 -0.72797819523E+02  0.28670036459E+03  0.33242008676E+03  0.12509000000E+03 0.  0.
         25    1    4    4    0    0  0.71541804540E+02  0.57873260754E+02  0.42364706858E+03  0.45121158111E+03  0.12509000000E+03 0.  0.
<mgrwt>
<rscale>  2 0.45827465E+03</rscale>
<asrwt>0</asrwt>
<pdfrwt beam="1">  1       21 0.14735761E+00 0.45827465E+03</pdfrwt>
<pdfrwt beam="2">  1       21 0.77055085E-02 0.45827465E+03</pdfrwt>
<totfact> 0.36181656E+04</totfact>
</mgrwt>
</event>
<event>
 7    0  0.4691878E-002  0.4608158E+03  0.7546771E-02  0.1024545E+00
         21   -1    0    0  502  501  0.00000000000E+00  0.00000000000E+00  0.61055217960E+03  0.61055217960E+03  0.00000000000E+00 0.  1.
         21   -1    0    0  501  502 -0.00000000000E+00 -0.00000000000E+00 -0.86950489604E+02  0.86950489604E+02  0.00000000000E+00 0.  1.
      99926    2    1    2    0    0  0.00000000000E+00  0.00000000000E+00  0.52360169000E+03  0.69750266921E+03  0.46081584584E+03 0.  0.
      99925    2    3    3    0    0  0.54731221035E+02 -0.10485409046E+03  0.34019232728E+03  0.44595468318E+03  0.26297314134E+03 0.  0.
         25    1    4    4    0    0  0.26440163167E+02 -0.89569135831E+02  0.21821043876E+03  0.26830023482E+03  0.12509000000E+03 0.  0.
         25    1    4    4    0    0  0.28291057868E+02 -0.15284954632E+02  0.12198188852E+03  0.17765444835E+03  0.12509000000E+03 0.  0.
         25    1    3    3    0    0 -0.54731221035E+02  0.10485409046E+03  0.18340936272E+03  0.25154798603E+03  0.12509000000E+03 0.  0.
<mgrwt>
<rscale>  2 0.46081585E+03</rscale>
<asrwt>0</asrwt>
<pdfrwt beam="1">  1       21 0.89787083E-01 0.46081585E+03</pdfrwt>
<pdfrwt beam="2">  1       21 0.12786837E-01 0.46081585E+03</pdfrwt>
<totfact> 0.50678866E+04</totfact>
</mgrwt>
</event>
<event>
 7    0  0.4691878E-002  0.4604217E+03  0.7546771E-02  0.1024659E+00
         21   -1    0    0  502  501  0.00000000000E+00  0.00000000000E+00  0.95254059003E+02  0.95254059003E+02  0.00000000000E+00 0. -1.
         21   -1    0    0  501  502 -0.00000000000E+00 -0.00000000000E+00 -0.55637558331E+03  0.55637558331E+03  0.00000000000E+00 0. -1.
      99926    2    1    2    0    0  0.00000000000E+00  0.00000000000E+00 -0.46112152431E+03  0.65162964232E+03  0.46042168776E+03 0.  0.
      99925    2    3    3    0    0 -0.97490615832E+02 -0.22118865102E+02 -0.37797170840E+03  0.47119942214E+03  0.26300687957E+03 0.  0.
         25    1    4    4    0    0 -0.24932796629E+02  0.68879940888E+01 -0.22482766089E+03  0.25858088485E+03  0.12509000000E+03 0.  0.
         25    1    4    4    0    0 -0.72557819203E+02 -0.29006859191E+02 -0.15314404751E+03  0.21261853728E+03  0.12509000000E+03 0.  0.
         25    1    3    3    0    0  0.97490615832E+02  0.22118865102E+02 -0.83149815907E+02  0.18043022018E+03  0.12509000000E+03 0.  0.
<mgrwt>
<rscale>  2 0.46042169E+03</rscale>
<asrwt>0</asrwt>
<pdfrwt beam="1">  1       21 0.14007950E-01 0.46042169E+03</pdfrwt>
<pdfrwt beam="2">  1       21 0.81819939E-01 0.46042169E+03</pdfrwt>
<totfact> 0.53291524E+04</totfact>
</mgrwt>
</event>
<event>
 7    0  0.4691878E-002  0.4497666E+03  0.7546771E-02  0.1027792E+00
         21   -1    0    0  502  501  0.00000000000E+00  0.00000000000E+00  0.54724070109E+03  0.54724070109E+03  0.00000000000E+00 0. -1.
         21   -1    0    0  501  502 -0.00000000000E+00 -0.00000000000E+00 -0.92413615609E+02  0.92413615609E+02  0.00000000000E+00 0. -1.
      99926    2    1    2    0    0 -0.71054273576E-14  0.00000000000E+00  0.45482708548E+03  0.63965431670E+03  0.44976656966E+03 0.  0.
      99925    2    3    3    0    0  0.47269242279E+02  0.62531975063E+02  0.39367154194E+03  0.47986652688E+03  0.26296382168E+03 0.  0.
         25    1    4    4    0    0  0.47626596544E+02  0.28853366380E+02  0.25921806495E+03  0.29315921058E+03  0.12509000000E+03 0.  0.
         25    1    3    3    0    0 -0.47269242279E+02 -0.62531975063E+02  0.61155543542E+02  0.15978778982E+03  0.12509000000E+03 0.  0.
         25    1    4    4    0    0 -0.35735426495E+00  0.33678608683E+02  0.13445347699E+03  0.18670731630E+03  0.12509000000E+03 0.  0.
<mgrwt>
<rscale>  2 0.44976657E+03</rscale>
<asrwt>0</asrwt>
<pdfrwt beam="1">  1       21 0.80476572E-01 0.44976657E+03</pdfrwt>
<pdfrwt beam="2">  1       21 0.13590238E-01 0.44976657E+03</pdfrwt>
<totfact> 0.58687902E+04</totfact>
</mgrwt>
</event>
<event>
 7    0  0.4691878E-002  0.4505833E+03  0.7546771E-02  0.1027548E+00
         21   -1    0    0  502  501  0.00000000000E+00  0.00000000000E+00  0.66264725634E+02  0.66264725634E+02  0.00000000000E+00 0. -1.
         21   -1    0    0  501  502 -0.00000000000E+00 -0.00000000000E+00 -0.76596305459E+03  0.76596305459E+03  0.00000000000E+00 0. -1.
      99926    2    1    2    0    0 -0.14210854715E-13  0.00000000000E+00 -0.69969832896E+03  0.83222778022E+03  0.45058331819E+03 0.  0.
      99925    2    3    3    0    0  0.94000727542E+02 -0.12456742296E+02 -0.34327460373E+03  0.44277086706E+03  0.26309177095E+03 0.  0.
         25    1    3    3    0    0 -0.94000727542E+02  0.12456742296E+02 -0.35642372523E+03  0.38945691317E+03  0.12509000000E+03 0.  0.
         25    1    4    4    0    0  0.60759770453E+02  0.17189499309E+02 -0.22436670760E+03  0.26452817652E+03  0.12509000000E+03 0.  0.
         25    1    4    4    0    0  0.33240957089E+02 -0.29646241605E+02 -0.11890789612E+03  0.17824269054E+03  0.12509000000E+03 0.  0.
<mgrwt>
<rscale>  2 0.45058332E+03</rscale>
<asrwt>0</asrwt>
<pdfrwt beam="1">  1       21 0.97448128E-02 0.45058332E+03</pdfrwt>
<pdfrwt beam="2">  1       21 0.11264162E+00 0.45058332E+03</pdfrwt>
<totfact> 0.47882996E+04</totfact>
</mgrwt>
</event>
<event>
 7    0  0.4691878E-002  0.4554031E+03  0.7546771E-02  0.1026123E+00
         21   -1    0    0  502  501  0.00000000000E+00  0.00000000000E+00  0.28673582866E+02  0.28673582866E+02  0.00000000000E+00 0. -1.
         21   -1    0    0  501  502 -0.00000000000E+00 -0.00000000000E+00 -0.18082144706E+04  0.18082144706E+04  0.00000000000E+00 0. -1.
      99926    2    1    2    0    0 -0.35527136788E-14 -0.14210854715E-13 -0.17795408877E+04  0.18368880535E+04  0.45540306306E+03 0.  0.
      99925    2    3    3    0    0 -0.26018075948E+02 -0.99052208018E+02 -0.13172234725E+04  0.13471195564E+04  0.26299266633E+03 0.  0.
         25    1    4    4    0    0 -0.33059159045E+02 -0.87930436223E+02 -0.73653352118E+03  0.75296334939E+03  0.12509000000E+03 0.  0.
         25    1    4    4    0    0  0.70410830973E+01 -0.11121771796E+02 -0.58068995128E+03  0.59415620697E+03  0.12509000000E+03 0.  0.
         25    1    3    3    0    0  0.26018075948E+02  0.99052208018E+02 -0.46231741527E+03  0.48976849710E+03  0.12509000000E+03 0.  0.
<mgrwt>
<rscale>  2 0.45540306E+03</rscale>
<asrwt>0</asrwt>
<pdfrwt beam="1">  1       21 0.42167038E-02 0.45540306E+03</pdfrwt>
<pdfrwt beam="2">  1       21 0.26591386E+00 0.45540306E+03</pdfrwt>
<totfact> 0.16509444E+04</totfact>
</mgrwt>
</event>
<event>
 7    0  0.4691878E-002  0.4539227E+03  0.7546771E-02  0.1026559E+00
         21   -1    0    0  502  501  0.00000000000E+00  0.00000000000E+00  0.38852890921E+03  0.38852890921E+03  0.00000000000E+00 0.  1.
         21   -1    0    0  501  502 -0.00000000000E+00 -0.00000000000E+00 -0.13258075148E+03  0.13258075148E+03  0.00000000000E+00 0.  1.
      99926    2    1    2    0    0 -0.17763568394E-14  0.14210854715E-13  0.25594815773E+03  0.52110966069E+03  0.45392270159E+03 0.  0.
      99925    2    3    3    0    0  0.86371725021E+01  0.11067505490E+03  0.14143767058E+03  0.31841844654E+03  0.26279673497E+03 0.  0.
         25    1    3    3    0    0 -0.86371725021E+01 -0.11067505490E+03  0.11451048715E+03  0.20269121415E+03  0.12509000000E+03 0.  0.
         25    1    4    4    0    0 -0.11234484760E+02  0.86473700378E+02  0.10244519253E+03  0.18370204157E+03  0.12509000000E+03 0.  0.
         25    1    4    4    0    0  0.19871657262E+02  0.24201354521E+02  0.38992478048E+02  0.13471640497E+03  0.12509000000E+03 0.  0.
<mgrwt>
<rscale>  2 0.45392270E+03</rscale>
<asrwt>0</asrwt>
<pdfrwt beam="1">  1       21 0.57136604E-01 0.45392270E+03</pdfrwt>
<pdfrwt beam="2">  1       21 0.19497170E-01 0.45392270E+03</pdfrwt>
<totfact> 0.64360010E+04</totfact>
</mgrwt>
</event>
<event>
 7    0  0.4691878E-002  0.4490622E+03  0.7546771E-02  0.1028002E+00
         21   -1    0    0  502  501  0.00000000000E+00  0.00000000000E+00  0.22255065310E+03  0.22255065310E+03  0.00000000000E+00 0. -1.
         21   -1    0    0  501  502 -0.00000000000E+00 -0.00000000000E+00 -0.22652917202E+03  0.22652917202E+03  0.00000000000E+00 0. -1.
      99926    2    1    2    0    0  0.00000000000E+00  0.35527136788E-14 -0.39785189252E+01  0.44907982512E+03  0.44906220139E+03 0.  0.
      99925    2    3    3    0    0  0.44542062603E+02  0.30228157944E+02 -0.95595203734E+02  0.28494920059E+03  0.26298263643E+03 0.  0.
         25    1    3    3    0    0 -0.44542062603E+02 -0.30228157944E+02  0.91616684809E+02  0.16413062453E+03  0.12509000000E+03 0.  0.
         25    1    4    4    0    0  0.74509706697E+01 -0.46974910509E+01 -0.80562528697E+02  0.14904835630E+03  0.12509000000E+03 0.  0.
         25    1    4    4    0    0  0.37091091933E+02  0.34925648995E+02 -0.15032675037E+02  0.13590084428E+03  0.12509000000E+03 0.  0.
<mgrwt>
<rscale>  2 0.44906220E+03</rscale>
<asrwt>0</asrwt>
<pdfrwt beam="1">  1       21 0.32728037E-01 0.44906220E+03</pdfrwt>
<pdfrwt beam="2">  1       21 0.33313113E-01 0.44906220E+03</pdfrwt>
<totfact> 0.72349130E+04</totfact>
</mgrwt>
</event>
<event>
 7    0  0.4691878E-002  0.4538849E+03  0.7546771E-02  0.1026570E+00
         21   -1    0    0  502  501  0.00000000000E+00  0.00000000000E+00  0.72472836151E+02  0.72472836151E+02  0.00000000000E+00 0.  1.
         21   -1    0    0  501  502 -0.00000000000E+00 -0.00000000000E+00 -0.71065069110E+03  0.71065069110E+03  0.00000000000E+00 0.  1.
      99926    2    1    2    0    0  0.17763568394E-14  0.00000000000E+00 -0.63817785495E+03  0.78312352725E+03  0.45388488010E+03 0.  0.
      99925    2    3    3    0    0  0.14068842291E+02  0.10821516519E+03 -0.44681927516E+03  0.52979751505E+03  0.26292487139E+03 0.  0.
         25    1    4    4    0    0  0.28496734177E+01  0.59564869739E+02 -0.15210619545E+03  0.20576660842E+03  0.12509000000E+03 0.  0.
         25    1    4    4    0    0  0.11219168873E+02  0.48650295450E+02 -0.29471307971E+03  0.32403090663E+03  0.12509000000E+03 0.  0.
         25    1    3    3    0    0 -0.14068842291E+02 -0.10821516519E+03 -0.19135857979E+03  0.25332601220E+03  0.12509000000E+03 0.  0.
<mgrwt>
<rscale>  2 0.45388488E+03</rscale>
<asrwt>0</asrwt>
<pdfrwt beam="1">  1       21 0.10657770E-01 0.45388488E+03</pdfrwt>
<pdfrwt beam="2">  1       21 0.10450745E+00 0.45388488E+03</pdfrwt>
<totfact> 0.49019615E+04</totfact>
</mgrwt>
</event>
<event>
 7    0  0.4691878E-002  0.4503150E+03  0.7546771E-02  0.1027628E+00
         21   -1    0    0  502  501  0.00000000000E+00  0.00000000000E+00  0.88771494642E+02  0.88771494642E+02  0.00000000000E+00 0. -1.
         21   -1    0    0  501  502 -0.00000000000E+00 -0.00000000000E+00 -0.57108308289E+03  0.57108308289E+03  0.00000000000E+00 0. -1.
      99926    2    1    2    0    0  0.00000000000E+00  0.00000000000E+00 -0.48231158825E+03  0.65985457754E+03  0.45031499568E+03 0.  0.
      99925    2    3    3    0    0 -0.63507338619E+02 -0.44045876710E+02 -0.19271136743E+03  0.33506384904E+03  0.26297697710E+03 0.  0.
         25    1    3    3    0    0  0.63507338619E+02  0.44045876710E+02 -0.28960022082E+03  0.32479072849E+03  0.12509000000E+03 0.  0.
         25    1    4    4    0    0 -0.62730170593E+02  0.42253370147E+01 -0.10014569512E+03  0.17213249585E+03  0.12509000000E+03 0.  0.
         25    1    4    4    0    0 -0.77716802597E+00 -0.48271213725E+02 -0.92565672310E+02  0.16293135320E+03  0.12509000000E+03 0.  0.
<mgrwt>
<rscale>  2 0.45031500E+03</rscale>
<asrwt>0</asrwt>
<pdfrwt beam="1">  1       21 0.13054632E-01 0.45031500E+03</pdfrwt>
<pdfrwt beam="2">  1       21 0.83982804E-01 0.45031500E+03</pdfrwt>
<totfact> 0.57221696E+04</totfact>
</mgrwt>
</event>
<event>
 7    0  0.4691878E-002  0.4538575E+03  0.7546771E-02  0.1026578E+00
         21   -1    0    0  502  501  0.00000000000E+00  0.00000000000E+00  0.23369339359E+03  0.23369339359E+03  0.00000000000E+00 0. -1.
         21   -1    0    0  501  502 -0.00000000000E+00 -0.00000000000E+00 -0.22035996478E+03  0.22035996478E+03  0.00000000000E+00 0. -1.
      99926    2    1    2    0    0  0.00000000000E+00  0.00000000000E+00  0.13333428810E+02  0.45405335836E+03  0.45385754584E+03 0.  0.
      99925    2    3    3    0    0 -0.93828071217E+02  0.51002563077E+02 -0.24924418090E+02  0.28518613437E+03  0.26325830705E+03 0.  0.
         25    1    4    4    0    0 -0.27708638624E+02  0.54511980171E+02  0.93895869615E+01  0.13955284691E+03  0.12509000000E+03 0.  0.
         25    1    3    3    0    0  0.93828071217E+02 -0.51002563077E+02  0.38257846900E+02  0.16886722399E+03  0.12509000000E+03 0.  0.
         25    1    4    4    0    0 -0.66119432593E+02 -0.35094170943E+01 -0.34314005051E+02  0.14563328746E+03  0.12509000000E+03 0.  0.
<mgrwt>
<rscale>  2 0.45385755E+03</rscale>
<asrwt>0</asrwt>
<pdfrwt beam="1">  1       21 0.34366676E-01 0.45385755E+03</pdfrwt>
<pdfrwt beam="2">  1       21 0.32405877E-01 0.45385755E+03</pdfrwt>
<totfact> 0.69244259E+04</totfact>
</mgrwt>
</event>
<event>
 7    0  0.4691878E-002  0.4581619E+03  0.7546771E-02  0.1025316E+00
         21   -1    0    0  502  501  0.00000000000E+00  0.00000000000E+00  0.11323814700E+03  0.11323814700E+03  0.00000000000E+00 0. -1.
         21   -1    0    0  501  502 -0.00000000000E+00 -0.00000000000E+00 -0.46343112882E+03  0.46343112882E+03  0.00000000000E+00 0. -1.
      99926    2    1    2    0    0  0.00000000000E+00  0.00000000000E+00 -0.35019298182E+03  0.57666927582E+03  0.45816190278E+03 0.  0.
      99925    2    3    3    0    0  0.25158749373E+02  0.70632273648E+02 -0.33122246068E+03  0.42960034802E+03  0.26310883644E+03 0.  0.
         25    1    4    4    0    0 -0.26305718434E+02  0.46230342044E+02 -0.15631616831E+03  0.20715088203E+03  0.12509000000E+03 0.  0.
         25    1    4    4    0    0  0.51464467807E+02  0.24401931604E+02 -0.17490629237E+03  0.22244946600E+03  0.12509000000E+03 0.  0.
         25    1    3    3    0    0 -0.25158749373E+02 -0.70632273648E+02 -0.18970521142E+02  0.14706892780E+03  0.12509000000E+03 0.  0.
<mgrwt>
<rscale>  2 0.45816190E+03</rscale>
<asrwt>0</asrwt>
<pdfrwt beam="1">  1       21 0.16652668E-01 0.45816190E+03</pdfrwt>
<pdfrwt beam="2">  1       21 0.68151638E-01 0.45816190E+03</pdfrwt>
<totfact> 0.58657591E+04</totfact>
</mgrwt>
</event>
<event>
 7    0  0.4691878E-002  0.4442978E+03  0.7546771E-02  0.1029436E+00
         21   -1    0    0  502  501  0.00000000000E+00  0.00000000000E+00  0.11240613933E+04  0.11240613933E+04  0.00000000000E+00 0.  1.
         21   -1    0    0  501  502 -0.00000000000E+00 -0.00000000000E+00 -0.43903422494E+02  0.43903422494E+02  0.00000000000E+00 0.  1.
      99926    2    1    2    0    0  0.14210854715E-13  0.00000000000E+00  0.10801579708E+04  0.11679648158E+04  0.44429783820E+03 0.  0.
      99925    2    3    3    0    0 -0.91728673373E+02  0.10442745815E+02  0.56742925692E+03  0.63218366401E+03  0.26297722901E+03 0.  0.
         25    1    3    3    0    0  0.91728673373E+02 -0.10442745815E+02  0.51272871385E+03  0.53578115175E+03  0.12509000000E+03 0.  0.
         25    1    4    4    0    0 -0.80170851171E+01  0.17339202547E+02  0.29187762553E+03  0.31812729840E+03  0.12509000000E+03 0.  0.
         25    1    4    4    0    0 -0.83711588256E+02 -0.68964567319E+01  0.27555163139E+03  0.31405636562E+03  0.12509000000E+03 0.  0.
<mgrwt>
<rscale>  2 0.44429784E+03</rscale>
<asrwt>0</asrwt>
<pdfrwt beam="1">  1       21 0.16530313E+00 0.44429784E+03</pdfrwt>
<pdfrwt beam="2">  1       21 0.64563864E-02 0.44429784E+03</pdfrwt>
<totfact> 0.36106601E+04</totfact>
</mgrwt>
</event>
<event>
 7    0  0.4691878E-002  0.4532189E+03  0.7546771E-02  0.1026766E+00
         21   -1    0    0  502  501  0.00000000000E+00  0.00000000000E+00  0.16858459769E+02  0.16858459769E+02  0.00000000000E+00 0. -1.
         21   -1    0    0  501  502 -0.00000000000E+00 -0.00000000000E+00 -0.30460573002E+04  0.30460573002E+04  0.00000000000E+00 0. -1.
      99926    2    1    2    0    0  0.00000000000E+00  0.00000000000E+00 -0.30291988404E+04  0.30629157599E+04  0.45321886302E+03 0.  0.
      99925    2    3    3    0    0 -0.50836791552E+02 -0.25860235922E+02 -0.25567320699E+04  0.25708532756E+04  0.26297253883E+03 0.  0.
         25    1    4    4    0    0 -0.31498022636E+02 -0.20938530401E+02 -0.16719696677E+04  0.16770690580E+04  0.12509000000E+03 0.  0.
         25    1    3    3    0    0  0.50836791552E+02  0.25860235922E+02 -0.47246677050E+03  0.49206248435E+03  0.12509000000E+03 0.  0.
         25    1    4    4    0    0 -0.19338768915E+02 -0.49217055203E+01 -0.88476240217E+03  0.89378421756E+03  0.12509000000E+03 0.  0.
<mgrwt>
<rscale>  2 0.45321886E+03</rscale>
<asrwt>0</asrwt>
<pdfrwt beam="1">  1       21 0.24791845E-02 0.45321886E+03</pdfrwt>
<pdfrwt beam="2">  1       21 0.44794973E+00 0.45321886E+03</pdfrwt>
<totfact> 0.29529157E+03</totfact>
</mgrwt>
</event>
<event>
 7    0  0.4691878E-002  0.4490876E+03  0.7546771E-02  0.1027994E+00
         21   -1    0    0  502  501  0.00000000000E+00  0.00000000000E+00  0.31851337495E+03  0.31851337495E+03  0.00000000000E+00 0.  1.
         21   -1    0    0  501  502 -0.00000000000E+00 -0.00000000000E+00 -0.15829765039E+03  0.15829765039E+03  0.00000000000E+00 0.  1.
      99926    2    1    2    0    0  0.14210854715E-13 -0.71054273576E-14  0.16021572456E+03  0.47681102534E+03  0.44908760336E+03 0.  0.
      99925    2    3    3    0    0  0.93109986099E+02 -0.52846650686E+02  0.88447650208E+02  0.29719921449E+03  0.26275872634E+03 0.  0.
         25    1    4    4    0    0  0.82477757077E+02 -0.20039192901E+02  0.26731867764E+02  0.15351303045E+03  0.12509000000E+03 0.  0.
         25    1    4    4    0    0  0.10632229022E+02 -0.32807457786E+02  0.61715782444E+02  0.14368618404E+03  0.12509000000E+03 0.  0.
         25    1    3    3    0    0 -0.93109986099E+02  0.52846650686E+02  0.71768074349E+02  0.17961181085E+03  0.12509000000E+03 0.  0.
<mgrwt>
<rscale>  2 0.44908760E+03</rscale>
<asrwt>0</asrwt>
<pdfrwt beam="1">  1       21 0.46840202E-01 0.44908760E+03</pdfrwt>
<pdfrwt beam="2">  1       21 0.23279066E-01 0.44908760E+03</pdfrwt>
<totfact> 0.70168580E+04</totfact>
</mgrwt>
</event>
<event>
 7    0  0.4691878E-002  0.4493166E+03  0.7546771E-02  0.1027926E+00
         21   -1    0    0  502  501  0.00000000000E+00  0.00000000000E+00  0.65999567183E+02  0.65999567183E+02  0.00000000000E+00 0. -1.
         21   -1    0    0  501  502 -0.00000000000E+00 -0.00000000000E+00 -0.76472231393E+03  0.76472231393E+03  0.00000000000E+00 0. -1.
      99926    2    1    2    0    0  0.00000000000E+00  0.11102230246E-14 -0.69872274675E+03  0.83072188112E+03  0.44931655538E+03 0.  0.
      99925    2    3    3    0    0 -0.10390966880E+03  0.14933636096E+01 -0.49461307908E+03  0.56974733458E+03  0.26300280960E+03 0.  0.
         25    1    3    3    0    0  0.10390966880E+03 -0.14933636096E+01 -0.20410966767E+03  0.26097454654E+03  0.12509000000E+03 0.  0.
         25    1    4    4    0    0 -0.38317933420E+02 -0.14119351276E+02 -0.16677409662E+03  0.21243523132E+03  0.12509000000E+03 0.  0.
         25    1    4    4    0    0 -0.65591735378E+02  0.15612714885E+02 -0.32783898245E+03  0.35731210326E+03  0.12509000000E+03 0.  0.
<mgrwt>
<rscale>  2 0.44931656E+03</rscale>
<asrwt>0</asrwt>
<pdfrwt beam="1">  1       21 0.97058194E-02 0.44931656E+03</pdfrwt>
<pdfrwt beam="2">  1       21 0.11245916E+00 0.44931656E+03</pdfrwt>
<totfact> 0.48438581E+04</totfact>
</mgrwt>
</event>
<event>
 7    0  0.4691878E-002  0.4585597E+03  0.7546771E-02  0.1025200E+00
         21   -1    0    0  502  501  0.00000000000E+00  0.00000000000E+00  0.69918216822E+03  0.69918216822E+03  0.00000000000E+00 0.  1.
         21   -1    0    0  501  502 -0.00000000000E+00 -0.00000000000E+00 -0.75186756489E+02  0.75186756489E+02  0.00000000000E+00 0.  1.
      99926    2    1    2    0    0  0.00000000000E+00  0.00000000000E+00  0.62399541173E+03  0.77436892470E+03  0.45855965554E+03 0.  0.
      99925    2    3    3    0    0  0.22157538764E+02 -0.11386631864E+03  0.41003460259E+03  0.50072091906E+03  0.26293833577E+03 0.  0.
         25    1    4    4    0    0  0.54263795797E+01 -0.50194055651E+02  0.26959783273E+03  0.30146208440E+03  0.12509000000E+03 0.  0.
         25    1    3    3    0    0 -0.22157538764E+02  0.11386631864E+03  0.21396080913E+03  0.27364800564E+03  0.12509000000E+03 0.  0.
         25    1    4    4    0    0  0.16731159185E+02 -0.63672262994E+02  0.14043676987E+03  0.19925883467E+03  0.12509000000E+03 0.  0.
<mgrwt>
<rscale>  2 0.45855966E+03</rscale>
<asrwt>0</asrwt>
<pdfrwt beam="1">  1       21 0.10282090E+00 0.45855966E+03</pdfrwt>
<pdfrwt beam="2">  1       21 0.11056876E-01 0.45855966E+03</pdfrwt>
<totfact> 0.47683159E+04</totfact>
</mgrwt>
</event>
<event>
 7    0  0.4691878E-002  0.4515265E+03  0.7546771E-02  0.1027268E+00
         21   -1    0    0  502  501  0.00000000000E+00  0.00000000000E+00  0.27343511474E+03  0.27343511474E+03  0.00000000000E+00 0. -1.
         21   -1    0    0  501  502 -0.00000000000E+00 -0.00000000000E+00 -0.18640274368E+03  0.18640274368E+03  0.00000000000E+00 0. -1.
      99926    2    1    2    0    0  0.14210854715E-13  0.00000000000E+00  0.87032371062E+02  0.45983785842E+03  0.45152654675E+03 0.  0.
      99925    2    3    3    0    0  0.66911679632E+02 -0.73089472295E+02  0.10077719139E+03  0.29966397784E+03  0.26424082478E+03 0.  0.
         25    1    4    4    0    0  0.21612470485E+02 -0.65078032879E+02  0.83432357389E+02  0.16525954013E+03  0.12509000000E+03 0.  0.
         25    1    3    3    0    0 -0.66911679632E+02  0.73089472295E+02 -0.13744820333E+02  0.16017388057E+03  0.12509000000E+03 0.  0.
         25    1    4    4    0    0  0.45299209147E+02 -0.80114394152E+01  0.17344834005E+02  0.13440443772E+03  0.12509000000E+03 0.  0.
<mgrwt>
<rscale>  2 0.45152655E+03</rscale>
<asrwt>0</asrwt>
<pdfrwt beam="1">  1       21 0.40211047E-01 0.45152655E+03</pdfrwt>
<pdfrwt beam="2">  1       21 0.27412168E-01 0.45152655E+03</pdfrwt>
<totfact> 0.70111071E+04</totfact>
</mgrwt>
</event>
<event>
 7    0  0.4691878E-002  0.4497159E+03  0.7546771E-02  0.1027807E+00
         21   -1    0    0  502  501  0.00000000000E+00  0.00000000000E+00  0.18464831350E+03  0.18464831350E+03  0.00000000000E+00 0.  1.
         21   -1    0    0  501  502 -0.00000000000E+00 -0.00000000000E+00 -0.27382382989E+03  0.27382382989E+03  0.00000000000E+00 0.  1.
      99926    2    1    2    0    0 -0.71054273576E-14  0.00000000000E+00 -0.89175516382E+02  0.45847214339E+03  0.44971594762E+03 0.  0.
      99925    2    3    3    0    0 -0.61902841445E+02  0.70876968008E+02 -0.25811915343E+01  0.27958225667E+03  0.26325666055E+03 0.  0.
         25    1    4    4    0    0  0.47871175266E+01  0.25208149433E+02 -0.21368712117E+02  0.12947006314E+03  0.12509000000E+03 0.  0.
         25    1    4    4    0    0 -0.66689958972E+02  0.45668818575E+02  0.18787520583E+02  0.15011219353E+03  0.12509000000E+03 0.  0.
         25    1    3    3    0    0  0.61902841445E+02 -0.70876968008E+02 -0.86594324848E+02  0.17888988671E+03  0.12509000000E+03 0.  0.
<mgrwt>
<rscale>  2 0.44971595E+03</rscale>
<asrwt>0</asrwt>
<pdfrwt beam="1">  1       21 0.27154164E-01 0.44971595E+03</pdfrwt>
<pdfrwt beam="2">  1       21 0.40268210E-01 0.44971595E+03</pdfrwt>
<totfact> 0.71243246E+04</totfact>
</mgrwt>
</event>
<event>
 7    0  0.4691878E-002  0.4407145E+03  0.7546771E-02  0.1030528E+00
         21   -1    0    0  502  501  0.00000000000E+00  0.00000000000E+00  0.18022642228E+02  0.18022642228E+02  0.00000000000E+00 0. -1.
         21   -1    0    0  501  502 -0.00000000000E+00 -0.00000000000E+00 -0.26942398531E+04  0.26942398531E+04  0.00000000000E+00 0. -1.
      99926    2    1    2    0    0  0.35527136788E-14  0.00000000000E+00 -0.26762172109E+04  0.27122624953E+04  0.44071451507E+03 0.  0.
      99925    2    3    3    0    0 -0.25765791390E+02 -0.66089328487E+02 -0.12801619969E+04  0.13088205322E+04  0.26299196151E+03 0.  0.
         25    1    4    4    0    0 -0.27833934074E+02 -0.52547160836E+02 -0.82669545397E+03  0.83821764102E+03  0.12509000000E+03 0.  0.
         25    1    4    4    0    0  0.20681426841E+01 -0.13542167651E+02 -0.45346654289E+03  0.47060289113E+03  0.12509000000E+03 0.  0.
         25    1    3    3    0    0  0.25765791390E+02  0.66089328487E+02 -0.13960552140E+04  0.14034419632E+04  0.12509000000E+03 0.  0.
<mgrwt>
<rscale>  2 0.44071452E+03</rscale>
<asrwt>0</asrwt>
<pdfrwt beam="1">  1       21 0.26503888E-02 0.44071452E+03</pdfrwt>
<pdfrwt beam="2">  1       21 0.39621170E+00 0.44071452E+03</pdfrwt>
<totfact> 0.58143868E+03</totfact>
</mgrwt>
</event>
<event>
 7    0  0.4691878E-002  0.4561539E+03  0.7546771E-02  0.1025903E+00
         21   -1    0    0  502  501  0.00000000000E+00  0.00000000000E+00  0.43148954796E+02  0.43148954796E+02  0.00000000000E+00 0.  1.
         21   -1    0    0  501  502 -0.00000000000E+00 -0.00000000000E+00 -0.12055700268E+04  0.12055700268E+04  0.00000000000E+00 0.  1.
      99926    2    1    2    0    0  0.00000000000E+00 -0.71054273576E-14 -0.11624210720E+04  0.12487189815E+04  0.45615386258E+03 0.  0.
      99925    2    3    3    0    0 -0.46746476244E+02 -0.30622826974E+02 -0.10034453145E+04  0.10388528573E+04  0.26303948224E+03 0.  0.
         25    1    3    3    0    0  0.46746476244E+02  0.30622826974E+02 -0.15897575742E+03  0.20986612428E+03  0.12509000000E+03 0.  0.
         25    1    4    4    0    0 -0.54952625449E+02  0.48608084724E+01 -0.57544059835E+03  0.59145820548E+03  0.12509000000E+03 0.  0.
         25    1    4    4    0    0  0.82061492055E+01 -0.35483635447E+02 -0.42800471619E+03  0.44739465179E+03  0.12509000000E+03 0.  0.
<mgrwt>
<rscale>  2 0.45615386E+03</rscale>
<asrwt>0</asrwt>
<pdfrwt beam="1">  1       21 0.63454347E-02 0.45615386E+03</pdfrwt>
<pdfrwt beam="2">  1       21 0.17728971E+00 0.45615386E+03</pdfrwt>
<totfact> 0.30367430E+04</totfact>
</mgrwt>
</event>
<event>
 7    0  0.4691878E-002  0.4451324E+03  0.7546771E-02  0.1029184E+00
         21   -1    0    0  502  501  0.00000000000E+00  0.00000000000E+00  0.63838723583E+03  0.63838723583E+03  0.00000000000E+00 0.  1.
         21   -1    0    0  501  502 -0.00000000000E+00 -0.00000000000E+00 -0.77595103418E+02  0.77595103418E+02  0.00000000000E+00 0.  1.
      99926    2    1    2    0    0  0.00000000000E+00 -0.17763568394E-14  0.56079213241E+03  0.71598233924E+03  0.44513244584E+03 0.  0.
      99925    2    3    3    0    0  0.84168971485E+02  0.29052042323E+01  0.25906345570E+03  0.37866860038E+03  0.26302695464E+03 0.  0.
         25    1    3    3    0    0 -0.84168971485E+02 -0.29052042323E+01  0.30172867671E+03  0.33731373886E+03  0.12509000000E+03 0.  0.
         25    1    4    4    0    0  0.15992733276E+02 -0.22731392726E+02  0.15091880038E+03  0.19798099945E+03  0.12509000000E+03 0.  0.
         25    1    4    4    0    0  0.68176238209E+02  0.25636596959E+02  0.10814465531E+03  0.18068760094E+03  0.12509000000E+03 0.  0.
<mgrwt>
<rscale>  2 0.44513245E+03</rscale>
<asrwt>0</asrwt>
<pdfrwt beam="1">  1       21 0.93880473E-01 0.44513245E+03</pdfrwt>
<pdfrwt beam="2">  1       21 0.11411045E-01 0.44513245E+03</pdfrwt>
<totfact> 0.56287322E+04</totfact>
</mgrwt>
</event>
<event>
 7    0  0.4691878E-002  0.4549276E+03  0.7546771E-02  0.1026263E+00
         21   -1    0    0  502  501  0.00000000000E+00  0.00000000000E+00  0.73356899295E+02  0.73356899295E+02  0.00000000000E+00 0.  1.
         21   -1    0    0  501  502 -0.00000000000E+00 -0.00000000000E+00 -0.70531573563E+03  0.70531573563E+03  0.00000000000E+00 0.  1.
      99926    2    1    2    0    0  0.00000000000E+00  0.00000000000E+00 -0.63195883633E+03  0.77867263492E+03  0.45492757837E+03 0.  0.
      99925    2    3    3    0    0 -0.34566298424E+02  0.51749520260E+02 -0.23602373144E+03  0.35880961295E+03  0.26299105443E+03 0.  0.
         25    1    3    3    0    0  0.34566298424E+02 -0.51749520260E+02 -0.39593510490E+03  0.41986302198E+03  0.12509000000E+03 0.  0.
         25    1    4    4    0    0 -0.16037010331E+02  0.55659879112E+02 -0.16006642433E+03  0.21124387835E+03  0.12509000000E+03 0.  0.
         25    1    4    4    0    0 -0.18529288093E+02 -0.39103588515E+01 -0.75957307104E+02  0.14756573459E+03  0.12509000000E+03 0.  0.
<mgrwt>
<rscale>  2 0.45492758E+03</rscale>
<asrwt>0</asrwt>
<pdfrwt beam="1">  1       21 0.10787779E-01 0.45492758E+03</pdfrwt>
<pdfrwt beam="2">  1       21 0.10372291E+00 0.45492758E+03</pdfrwt>
<totfact> 0.48841481E+04</totfact>
</mgrwt>
</event>
<event>
 7    0  0.4691878E-002  0.4451980E+03  0.7546771E-02  0.1029164E+00
         21   -1    0    0  502  501  0.00000000000E+00  0.00000000000E+00  0.85268058444E+02  0.85268058444E+02  0.00000000000E+00 0. -1.
         21   -1    0    0  501  502 -0.00000000000E+00 -0.00000000000E+00 -0.58111234061E+03  0.58111234061E+03  0.00000000000E+00 0. -1.
      99926    2    1    2    0    0  0.00000000000E+00  0.00000000000E+00 -0.49584428217E+03  0.66638039906E+03  0.44519802795E+03 0.  0.
      99925    2    3    3    0    0 -0.23053185599E+02  0.30303976284E+02 -0.17041316655E+03  0.31566299222E+03  0.26296900384E+03 0.  0.
         25    1    3    3    0    0  0.23053185599E+02 -0.30303976284E+02 -0.32543111562E+03  0.35071740683E+03  0.12509000000E+03 0.  0.
         25    1    4    4    0    0 -0.25374237286E+02 -0.59289124124E+01 -0.46755914564E+02  0.13606111703E+03  0.12509000000E+03 0.  0.
         25    1    4    4    0    0  0.23210516863E+01  0.36232888697E+02 -0.12365725199E+03  0.17960187520E+03  0.12509000000E+03 0.  0.
<mgrwt>
<rscale>  2 0.44519803E+03</rscale>
<asrwt>0</asrwt>
<pdfrwt beam="1">  1       21 0.12539420E-01 0.44519803E+03</pdfrwt>
<pdfrwt beam="2">  1       21 0.85457697E-01 0.44519803E+03</pdfrwt>
<totfact> 0.59208724E+04</totfact>
</mgrwt>
</event>
<event>
 7    0  0.4691878E-002  0.4530112E+03  0.7546771E-02  0.1026828E+00
         21   -1    0    0  502  501  0.00000000000E+00  0.00000000000E+00  0.14215478375E+03  0.14215478375E+03  0.00000000000E+00 0. -1.
         21   -1    0    0  501  502 -0.00000000000E+00 -0.00000000000E+00 -0.36090795328E+03  0.36090795328E+03  0.00000000000E+00 0. -1.
      99926    2    1    2    0    0  0.14210854715E-13  0.00000000000E+00 -0.21875316953E+03  0.50306273703E+03  0.45301122305E+03 0.  0.
      99925    2    3    3    0    0 -0.92343692822E+02  0.51519956190E+02 -0.17643287435E+03  0.33388774191E+03  0.26300342499E+03 0.  0.
         25    1    3    3    0    0  0.92343692822E+02 -0.51519956190E+02 -0.42320295179E+02  0.16917499512E+03  0.12509000000E+03 0.  0.
         25    1    4    4    0    0 -0.32881510844E+02 -0.34297986523E+01 -0.50848472096E+02  0.13901810130E+03  0.12509000000E+03 0.  0.
         25    1    4    4    0    0 -0.59462181979E+02  0.54949754842E+02 -0.12558440226E+03  0.19486964061E+03  0.12509000000E+03 0.  0.
<mgrwt>
<rscale>  2 0.45301122E+03</rscale>
<asrwt>0</asrwt>
<pdfrwt beam="1">  1       21 0.20905116E-01 0.45301122E+03</pdfrwt>
<pdfrwt beam="2">  1       21 0.53074698E-01 0.45301122E+03</pdfrwt>
<totfact> 0.66093214E+04</totfact>
</mgrwt>
</event>
<event>
 7    0  0.4691878E-002  0.4543977E+03  0.7546771E-02  0.1026419E+00
         21   -1    0    0  502  501  0.00000000000E+00  0.00000000000E+00  0.51806849837E+03  0.51806849837E+03  0.00000000000E+00 0.  1.
         21   -1    0    0  501  502 -0.00000000000E+00 -0.00000000000E+00 -0.99638008935E+02  0.99638008935E+02  0.00000000000E+00 0.  1.
      99926    2    1    2    0    0  0.00000000000E+00  0.00000000000E+00  0.41843048943E+03  0.61770650730E+03  0.45439768340E+03 0.  0.
      99925    2    3    3    0    0 -0.34795946028E+02 -0.66595758123E+01  0.11828190394E+03  0.29061051331E+03  0.26307556678E+03 0.  0.
         25    1    4    4    0    0  0.21348450134E+01  0.22682804511E+02  0.84677796573E+02  0.15276421216E+03  0.12509000000E+03 0.  0.
         25    1    4    4    0    0 -0.36930791041E+02 -0.29342380324E+02  0.33604107364E+02  0.13784630115E+03  0.12509000000E+03 0.  0.
         25    1    3    3    0    0  0.34795946028E+02  0.66595758123E+01  0.30014858550E+03  0.32709599399E+03  0.12509000000E+03 0.  0.
<mgrwt>
<rscale>  2 0.45439768E+03</rscale>
<asrwt>0</asrwt>
<pdfrwt beam="1">  1       21 0.76186543E-01 0.45439768E+03</pdfrwt>
<pdfrwt beam="2">  1       21 0.14652649E-01 0.45439768E+03</pdfrwt>
<totfact> 0.57876212E+04</totfact>
</mgrwt>
</event>
<event>
 7    0  0.4691878E-002  0.4481679E+03  0.7546771E-02  0.1028270E+00
         21   -1    0    0  502  501  0.00000000000E+00  0.00000000000E+00  0.99489843356E+03  0.99489843356E+03  0.00000000000E+00 0. -1.
         21   -1    0    0  501  502 -0.00000000000E+00 -0.00000000000E+00 -0.50471109188E+02  0.50471109188E+02  0.00000000000E+00 0. -1.
      99926    2    1    2    0    0  0.14210854715E-13  0.00000000000E+00  0.94442732437E+03  0.10453695427E+04  0.44816794830E+03 0.  0.
      99925    2    3    3    0    0 -0.71031626976E+02 -0.67099488387E+02  0.49833406385E+03  0.57187768584E+03  0.26298177693E+03 0.  0.
         25    1    4    4    0    0 -0.49130391302E+01 -0.11976099698E+02  0.18511409301E+03  0.22379075148E+03  0.12509000000E+03 0.  0.
         25    1    3    3    0    0  0.71031626976E+02  0.67099488387E+02  0.44609326052E+03  0.47349185690E+03  0.12509000000E+03 0.  0.
         25    1    4    4    0    0 -0.66118587846E+02 -0.55123388689E+02  0.31321997084E+03  0.34808693436E+03  0.12509000000E+03 0.  0.
<mgrwt>
<rscale>  2 0.44816795E+03</rscale>
<asrwt>0</asrwt>
<pdfrwt beam="1">  1       21 0.14630858E+00 0.44816795E+03</pdfrwt>
<pdfrwt beam="2">  1       21 0.74222225E-02 0.44816795E+03</pdfrwt>
<totfact> 0.39513238E+04</totfact>
</mgrwt>
</event>
<event>
 7    0  0.4691878E-002  0.4512454E+03  0.7546771E-02  0.1027351E+00
         21   -1    0    0  502  501  0.00000000000E+00  0.00000000000E+00  0.67152842683E+03  0.67152842683E+03  0.00000000000E+00 0. -1.
         21   -1    0    0  501  502 -0.00000000000E+00 -0.00000000000E+00 -0.75805583032E+02  0.75805583032E+02  0.00000000000E+00 0. -1.
      99926    2    1    2    0    0  0.00000000000E+00 -0.35527136788E-14  0.59572284380E+03  0.74733400986E+03  0.45124540516E+03 0.  0.
      99925    2    3    3    0    0 -0.73362886554E+02 -0.24431279588E+02  0.24756512374E+03  0.36939180968E+03  0.26302626868E+03 0.  0.
         25    1    4    4    0    0 -0.18835543780E+02 -0.47418950955E+02  0.13530591111E+03  0.19120285641E+03  0.12509000000E+03 0.  0.
         25    1    3    3    0    0  0.73362886554E+02  0.24431279588E+02  0.34815772006E+03  0.37794220018E+03  0.12509000000E+03 0.  0.
         25    1    4    4    0    0 -0.54527342775E+02  0.22987671366E+02  0.11225921263E+03  0.17818895326E+03  0.12509000000E+03 0.  0.
<mgrwt>
<rscale>  2 0.45124541E+03</rscale>
<asrwt>0</asrwt>
<pdfrwt beam="1">  1       21 0.98754177E-01 0.45124541E+03</pdfrwt>
<pdfrwt beam="2">  1       21 0.11147880E-01 0.45124541E+03</pdfrwt>
<totfact> 0.51922629E+04</totfact>
</mgrwt>
</event>
<event>
 7    0  0.4691878E-002  0.4295308E+03  0.7546771E-02  0.1034008E+00
         21   -1    0    0  502  501  0.00000000000E+00  0.00000000000E+00  0.30534784953E+02  0.30534784953E+02  0.00000000000E+00 0. -1.
         21   -1    0    0  501  502 -0.00000000000E+00 -0.00000000000E+00 -0.15105455376E+04  0.15105455376E+04  0.00000000000E+00 0. -1.
      99926    2    1    2    0    0  0.00000000000E+00 -0.17763568394E-14 -0.14800107526E+04  0.15410803225E+04  0.42953082847E+03 0.  0.
      99925    2    3    3    0    0  0.86241305689E+02  0.12106423455E+02 -0.97219559365E+03  0.10108842531E+04  0.26294214664E+03 0.  0.
         25    1    4    4    0    0  0.78862606837E+02  0.26236808133E+02 -0.49239781982E+03  0.51479199870E+03  0.12509000000E+03 0.  0.
         25    1    3    3    0    0 -0.86241305689E+02 -0.12106423455E+02 -0.50781515896E+03  0.53019606945E+03  0.12509000000E+03 0.  0.
         25    1    4    4    0    0  0.73786988518E+01 -0.14130384678E+02 -0.47979777383E+03  0.49609225436E+03  0.12509000000E+03 0.  0.
<mgrwt>
<rscale>  2 0.42953083E+03</rscale>
<asrwt>0</asrwt>
<pdfrwt beam="1">  1       21 0.44904089E-02 0.42953083E+03</pdfrwt>
<pdfrwt beam="2">  1       21 0.22213908E+00 0.42953083E+03</pdfrwt>
<totfact> 0.27917659E+04</totfact>
</mgrwt>
</event>
<event>
 7    0  0.4691878E-002  0.4522593E+03  0.7546771E-02  0.1027050E+00
         21   -1    0    0  502  501  0.00000000000E+00  0.00000000000E+00  0.22092396813E+03  0.22092396813E+03  0.00000000000E+00 0.  1.
         21   -1    0    0  501  502 -0.00000000000E+00 -0.00000000000E+00 -0.23145798098E+03  0.23145798098E+03  0.00000000000E+00 0.  1.
      99926    2    1    2    0    0  0.00000000000E+00 -0.17763568394E-14 -0.10534012854E+02  0.45238194911E+03  0.45225928676E+03 0.  0.
      99925    2    3    3    0    0 -0.28308349440E+02 -0.13265837728E+01  0.10023124269E+03  0.28291344936E+03  0.26304105258E+03 0.  0.
         25    1    4    4    0    0  0.12618803773E+02  0.29704182464E+02  0.53786768445E+02  0.13993604691E+03  0.12509000000E+03 0.  0.
         25    1    3    3    0    0  0.28308349440E+02  0.13265837728E+01 -0.11076525555E+03  0.16946849975E+03  0.12509000000E+03 0.  0.
         25    1    4    4    0    0 -0.40927153213E+02 -0.31030766237E+02  0.46444474249E+02  0.14297740245E+03  0.12509000000E+03 0.  0.
<mgrwt>
<rscale>  2 0.45225929E+03</rscale>
<asrwt>0</asrwt>
<pdfrwt beam="1">  1       21 0.32488819E-01 0.45225929E+03</pdfrwt>
<pdfrwt beam="2">  1       21 0.34037938E-01 0.45225929E+03</pdfrwt>
<totfact> 0.70261984E+04</totfact>
</mgrwt>
</event>
<event>
 7    0  0.4691878E-002  0.4430660E+03  0.7546771E-02  0.1029810E+00
         21   -1    0    0  502  501  0.00000000000E+00  0.00000000000E+00  0.91921878196E+02  0.91921878196E+02  0.00000000000E+00 0.  1.
         21   -1    0    0  501  502 -0.00000000000E+00 -0.00000000000E+00 -0.53389750739E+03  0.53389750739E+03  0.00000000000E+00 0.  1.
      99926    2    1    2    0    0 -0.88817841970E-15  0.71054273576E-14 -0.44197562920E+03  0.62581938559E+03  0.44306596188E+03 0.  0.
      99925    2    3    3    0    0  0.43510482587E+01  0.45527721718E+02 -0.15323734376E+03  0.30784295464E+03  0.26304732679E+03 0.  0.
         25    1    4    4    0    0 -0.20934301193E+02  0.49683489391E+01 -0.10751339855E+03  0.16634172184E+03  0.12509000000E+03 0.  0.
         25    1    3    3    0    0 -0.43510482587E+01 -0.45527721718E+02 -0.28873828543E+03  0.31797643095E+03  0.12509000000E+03 0.  0.
         25    1    4    4    0    0  0.25285349451E+02  0.40559372779E+02 -0.45723945218E+02  0.14150123280E+03  0.12509000000E+03 0.  0.
<mgrwt>
<rscale>  2 0.44306596E+03</rscale>
<asrwt>0</asrwt>
<pdfrwt beam="1">  1       21 0.13517924E-01 0.44306596E+03</pdfrwt>
<pdfrwt beam="2">  1       21 0.78514335E-01 0.44306596E+03</pdfrwt>
<totfact> 0.62829933E+04</totfact>
</mgrwt>
</event>
<event>
 7    0  0.4691878E-002  0.4616199E+03  0.7546771E-02  0.1024312E+00
         21   -1    0    0  502  501  0.00000000000E+00  0.00000000000E+00  0.11041742654E+03  0.11041742654E+03  0.00000000000E+00 0. -1.
         21   -1    0    0  501  502 -0.00000000000E+00 -0.00000000000E+00 -0.48247116833E+03  0.48247116833E+03  0.00000000000E+00 0. -1.
      99926    2    1    2    0    0  0.00000000000E+00  0.00000000000E+00 -0.37205374179E+03  0.59288859487E+03  0.46161986433E+03 0.  0.
      99925    2    3    3    0    0  0.10775769135E+03 -0.20915874523E+02 -0.29239433178E+03  0.40838297556E+03  0.26312167455E+03 0.  0.
         25    1    3    3    0    0 -0.10775769135E+03  0.20915874523E+02 -0.79659410015E+02  0.18450561931E+03  0.12509000000E+03 0.  0.
         25    1    4    4    0    0  0.19977530505E+02  0.10112026993E+02 -0.15604642596E+03  0.20124450296E+03  0.12509000000E+03 0.  0.
         25    1    4    4    0    0  0.87780160849E+02 -0.31027901516E+02 -0.13634790582E+03  0.20713847260E+03  0.12509000000E+03 0.  0.
<mgrwt>
<rscale>  2 0.46161986E+03</rscale>
<asrwt>0</asrwt>
<pdfrwt beam="1">  1       21 0.16237857E-01 0.46161986E+03</pdfrwt>
<pdfrwt beam="2">  1       21 0.70951643E-01 0.46161986E+03</pdfrwt>
<totfact> 0.56123747E+04</totfact>
</mgrwt>
</event>
<event>
 7    0  0.4691878E-002  0.4509605E+03  0.7546771E-02  0.1027436E+00
         21   -1    0    0  502  501  0.00000000000E+00  0.00000000000E+00  0.24006489842E+03  0.24006489842E+03  0.00000000000E+00 0.  1.
         21   -1    0    0  501  502 -0.00000000000E+00 -0.00000000000E+00 -0.21178162238E+03  0.21178162238E+03  0.00000000000E+00 0.  1.
      99926    2    1    2    0    0  0.00000000000E+00 -0.35527136788E-14  0.28283276048E+02  0.45184652080E+03  0.45096045797E+03 0.  0.
      99925    2    3    3    0    0 -0.16199884862E+02 -0.31798872386E+02 -0.85660342540E+02  0.27891803595E+03  0.26302846223E+03 0.  0.
         25    1    4    4    0    0 -0.32596866061E+02  0.16567335679E+02 -0.42231338242E+02  0.13699644637E+03  0.12509000000E+03 0.  0.
         25    1    3    3    0    0  0.16199884862E+02  0.31798872386E+02  0.11394361859E+03  0.17292848485E+03  0.12509000000E+03 0.  0.
         25    1    4    4    0    0  0.16396981199E+02 -0.48366208066E+02 -0.43429004298E+02  0.14192158958E+03  0.12509000000E+03 0.  0.
<mgrwt>
<rscale>  2 0.45096046E+03</rscale>
<asrwt>0</asrwt>
<pdfrwt beam="1">  1       21 0.35303661E-01 0.45096046E+03</pdfrwt>
<pdfrwt beam="2">  1       21 0.31144356E-01 0.45096046E+03</pdfrwt>
<totfact> 0.71039665E+04</totfact>
</mgrwt>
</event>
<event>
 7    0  0.4691878E-002  0.4563026E+03  0.7546771E-02  0.1025859E+00
         21   -1    0    0  502  501  0.00000000000E+00  0.00000000000E+00  0.42318279863E+03  0.42318279863E+03  0.00000000000E+00 0.  1.
         21   -1    0    0  501  502 -0.00000000000E+00 -0.00000000000E+00 -0.12300360054E+03  0.12300360054E+03  0.00000000000E+00 0.  1.
      99926    2    1    2    0    0 -0.17763568394E-14  0.17763568394E-14  0.30017919809E+03  0.54618639917E+03  0.45630256592E+03 0.  0.
      99925    2    3    3    0    0 -0.13480166169E+02 -0.14054627469E+02  0.32347724451E+03  0.41746361758E+03  0.26317123105E+03 0.  0.
         25    1    3    3    0    0  0.13480166169E+02  0.14054627469E+02 -0.23298046416E+02  0.12872278159E+03  0.12509000000E+03 0.  0.
         25    1    4    4    0    0  0.28646379479E+02  0.13286948165E+02  0.15301112365E+03  0.20014262442E+03  0.12509000000E+03 0.  0.
         25    1    4    4    0    0 -0.42126545647E+02 -0.27341575634E+02  0.17046612086E+03  0.21732099316E+03  0.12509000000E+03 0.  0.
<mgrwt>
<rscale>  2 0.45630257E+03</rscale>
<asrwt>0</asrwt>
<pdfrwt beam="1">  1       21 0.62232764E-01 0.45630257E+03</pdfrwt>
<pdfrwt beam="2">  1       21 0.18088765E-01 0.45630257E+03</pdfrwt>
<totfact> 0.61483075E+04</totfact>
</mgrwt>
</event>
<event>
 7    0  0.4691878E-002  0.4331503E+03  0.7546771E-02  0.1032869E+00
         21   -1    0    0  502  501  0.00000000000E+00  0.00000000000E+00  0.86904059727E+03  0.86904059727E+03  0.00000000000E+00 0.  1.
         21   -1    0    0  501  502 -0.00000000000E+00 -0.00000000000E+00 -0.53973084832E+02  0.53973084832E+02  0.00000000000E+00 0.  1.
      99926    2    1    2    0    0  0.00000000000E+00  0.00000000000E+00  0.81506751244E+03  0.92301368210E+03  0.43315032900E+03 0.  0.
      99925    2    3    3    0    0 -0.38342463191E+02 -0.56872196753E+02  0.39559947015E+03  0.47994987423E+03  0.26296073802E+03 0.  0.
         25    1    4    4    0    0  0.12785161705E+02 -0.30083917823E+02  0.14730485816E+03  0.19599676479E+03  0.12509000000E+03 0.  0.
         25    1    4    4    0    0 -0.51127624896E+02 -0.26788278930E+02  0.24829461199E+03  0.28395310944E+03  0.12509000000E+03 0.  0.
         25    1    3    3    0    0  0.38342463191E+02  0.56872196753E+02  0.41946804229E+03  0.44306380787E+03  0.12509000000E+03 0.  0.
<mgrwt>
<rscale>  2 0.43315033E+03</rscale>
<asrwt>0</asrwt>
<pdfrwt beam="1">  1       21 0.12780008E+00 0.43315033E+03</pdfrwt>
<pdfrwt beam="2">  1       21 0.79372189E-02 0.43315033E+03</pdfrwt>
<totfact> 0.50318303E+04</totfact>
</mgrwt>
</event>
<event>
 7    0  0.4691878E-002  0.4616321E+03  0.7546771E-02  0.1024309E+00
         21   -1    0    0  502  501  0.00000000000E+00  0.00000000000E+00  0.12511245574E+04  0.12511245574E+04  0.00000000000E+00 0. -1.
         21   -1    0    0  501  502 -0.00000000000E+00 -0.00000000000E+00 -0.42582529745E+02  0.42582529745E+02  0.00000000000E+00 0. -1.
      99926    2    1    2    0    0  0.00000000000E+00 -0.35527136788E-14  0.12085420277E+04  0.12937070871E+04  0.46163209889E+03 0.  0.
      99925    2    3    3    0    0 -0.56488359114E+02  0.25295420795E+02  0.10417846217E+04  0.10762528769E+04  0.26301000722E+03 0.  0.
         25    1    3    3    0    0  0.56488359114E+02 -0.25295420795E+02  0.16675740591E+03  0.21745421025E+03  0.12509000000E+03 0.  0.
         25    1    4    4    0    0  0.77523375300E+01  0.16525820073E+02  0.57159210193E+03  0.58540433937E+03  0.12509000000E+03 0.  0.
         25    1    4    4    0    0 -0.64240696644E+02  0.87696007225E+01  0.47019251981E+03  0.49084853753E+03  0.12509000000E+03 0.  0.
<mgrwt>
<rscale>  2 0.46163210E+03</rscale>
<asrwt>0</asrwt>
<pdfrwt beam="1">  1       21 0.18398888E+00 0.46163210E+03</pdfrwt>
<pdfrwt beam="2">  1       21 0.62621375E-02 0.46163210E+03</pdfrwt>
<totfact> 0.27833846E+04</totfact>
</mgrwt>
</event>
<event>
 7    0  0.4691878E-002  0.4550705E+03  0.7546771E-02  0.1026221E+00
         21   -1    0    0  502  501  0.00000000000E+00  0.00000000000E+00  0.22629137401E+03  0.22629137401E+03  0.00000000000E+00 0. -1.
         21   -1    0    0  501  502 -0.00000000000E+00 -0.00000000000E+00 -0.22878596251E+03  0.22878596251E+03  0.00000000000E+00 0. -1.
      99926    2    1    2    0    0  0.00000000000E+00  0.14210854715E-13 -0.24945885054E+01  0.45507733652E+03  0.45507049920E+03 0.  0.
      99925    2    3    3    0    0 -0.39505950699E+02 -0.87487021573E+02 -0.61812835025E+02  0.28661113352E+03  0.26288860036E+03 0.  0.
         25    1    4    4    0    0 -0.19434095757E+02 -0.79569520195E+02 -0.55593466174E+02  0.15952157911E+03  0.12509000000E+03 0.  0.
         25    1    4    4    0    0 -0.20071854942E+02 -0.79175013778E+01 -0.62193688511E+01  0.12708955440E+03  0.12509000000E+03 0.  0.
         25    1    3    3    0    0  0.39505950699E+02  0.87487021573E+02  0.59318246519E+02  0.16846620300E+03  0.12509000000E+03 0.  0.
<mgrwt>
<rscale>  2 0.45507050E+03</rscale>
<asrwt>0</asrwt>
<pdfrwt beam="1">  1       21 0.33278143E-01 0.45507050E+03</pdfrwt>
<pdfrwt beam="2">  1       21 0.33644994E-01 0.45507050E+03</pdfrwt>
<totfact> 0.68501583E+04</totfact>
</mgrwt>
</event>
<event>
 7    0  0.4691878E-002  0.4700374E+03  0.7546771E-02  0.1021910E+00
         21   -1    0    0  502  501  0.00000000000E+00  0.00000000000E+00  0.12410260818E+03  0.12410260818E+03  0.00000000000E+00 0.  1.
         21   -1    0    0  501  502 -0.00000000000E+00 -0.00000000000E+00 -0.44506552078E+03  0.44506552078E+03  0.00000000000E+00 0.  1.
      99926    2    1    2    0    0  0.00000000000E+00 -0.71054273576E-14 -0.32096291260E+03  0.56916812895E+03  0.47003741102E+03 0.  0.
      99925    2    3    3    0    0  0.40492961298E+02 -0.53195118640E+02 -0.68949045173E+02  0.27998324340E+03  0.26299666384E+03 0.  0.
         25    1    3    3    0    0 -0.40492961298E+02  0.53195118640E+02 -0.25201386742E+03  0.28918488556E+03  0.12509000000E+03 0.  0.
         25    1    4    4    0    0  0.13525452164E+02 -0.36865159232E+02  0.51590706572E+01  0.13121014416E+03  0.12509000000E+03 0.  0.
         25    1    4    4    0    0  0.26967509134E+02 -0.16329959408E+02 -0.74108115831E+02  0.14877309923E+03  0.12509000000E+03 0.  0.
<mgrwt>
<rscale>  2 0.47003741E+03</rscale>
<asrwt>0</asrwt>
<pdfrwt beam="1">  1       21 0.18250383E-01 0.47003741E+03</pdfrwt>
<pdfrwt beam="2">  1       21 0.65450812E-01 0.47003741E+03</pdfrwt>
<totfact> 0.53913992E+04</totfact>
</mgrwt>
</event>
<event>
 7    0  0.4691878E-002  0.4602794E+03  0.7546771E-02  0.1024700E+00
         21   -1    0    0  502  501  0.00000000000E+00  0.00000000000E+00  0.89482133370E+02  0.89482133370E+02  0.00000000000E+00 0. -1.
         21   -1    0    0  501  502 -0.00000000000E+00 -0.00000000000E+00 -0.59189794895E+03  0.59189794895E+03  0.00000000000E+00 0. -1.
      99926    2    1    2    0    0  0.17763568394E-14 -0.14210854715E-13 -0.50241581558E+03  0.68138008232E+03  0.46027944212E+03 0.  0.
      99925    2    3    3    0    0  0.79775040469E+01 -0.11599306341E+03 -0.34492056665E+03  0.44906500992E+03  0.26300409598E+03 0.  0.
         25    1    4    4    0    0 -0.15254811588E+02 -0.94866861908E+02 -0.17247103297E+03  0.23372247662E+03  0.12509000000E+03 0.  0.
         25    1    3    3    0    0 -0.79775040469E+01  0.11599306341E+03 -0.15749524893E+03  0.23231507240E+03  0.12509000000E+03 0.  0.
         25    1    4    4    0    0  0.23232315635E+02 -0.21126201499E+02 -0.17244953368E+03  0.21534253329E+03  0.12509000000E+03 0.  0.
<mgrwt>
<rscale>  2 0.46027944E+03</rscale>
<asrwt>0</asrwt>
<pdfrwt beam="1">  1       21 0.13159137E-01 0.46027944E+03</pdfrwt>
<pdfrwt beam="2">  1       21 0.87043818E-01 0.46027944E+03</pdfrwt>
<totfact> 0.51740052E+04</totfact>
</mgrwt>
</event>
<event>
 7    0  0.4691878E-002  0.4556085E+03  0.7546771E-02  0.1026063E+00
         21   -1    0    0  502  501  0.00000000000E+00  0.00000000000E+00  0.21090153493E+03  0.21090153493E+03  0.00000000000E+00 0. -1.
         21   -1    0    0  501  502 -0.00000000000E+00 -0.00000000000E+00 -0.24606164408E+03  0.24606164408E+03  0.00000000000E+00 0. -1.
      99926    2    1    2    0    0 -0.71054273576E-14  0.00000000000E+00 -0.35160109151E+02  0.45696317902E+03  0.45560850925E+03 0.  0.
      99925    2    3    3    0    0 -0.37039322126E+02 -0.90516238909E+02  0.36074661048E+02  0.28293156845E+03  0.26302811707E+03 0.  0.
         25    1    4    4    0    0 -0.54898621555E+02 -0.58017291249E+02  0.34859288245E+02  0.15245505177E+03  0.12509000000E+03 0.  0.
         25    1    4    4    0    0  0.17859299429E+02 -0.32498947660E+02  0.12153728034E+01  0.13047651668E+03  0.12509000000E+03 0.  0.
         25    1    3    3    0    0  0.37039322126E+02  0.90516238909E+02 -0.71234770199E+02  0.17403161056E+03  0.12509000000E+03 0.  0.
<mgrwt>
<rscale>  2 0.45560851E+03</rscale>
<asrwt>0</asrwt>
<pdfrwt beam="1">  1       21 0.31014932E-01 0.45560851E+03</pdfrwt>
<pdfrwt beam="2">  1       21 0.36185536E-01 0.45560851E+03</pdfrwt>
<totfact> 0.68071150E+04</totfact>
</mgrwt>
</event>
<event>
 7    0  0.4691878E-002  0.4274072E+03  0.7546771E-02  0.1034682E+00
         21   -1    0    0  502  501  0.00000000000E+00  0.00000000000E+00  0.98835043307E+02  0.98835043307E+02  0.00000000000E+00 0.  1.
         21   -1    0    0  501  502 -0.00000000000E+00 -0.00000000000E+00 -0.46207532890E+03  0.46207532890E+03  0.00000000000E+00 0.  1.
      99926    2    1    2    0    0  0.00000000000E+00  0.00000000000E+00 -0.36324028559E+03  0.56091037221E+03  0.42740723037E+03 0.  0.
      99925    2    3    3    0    0 -0.50402597574E+02 -0.30239584564E+02 -0.31491797997E+03  0.41449518298E+03  0.26301723952E+03 0.  0.
         25    1    3    3    0    0  0.50402597574E+02  0.30239584564E+02 -0.48322305620E+02  0.14641518923E+03  0.12509000000E+03 0.  0.
         25    1    4    4    0    0  0.30144353752E+01 -0.16688766708E+02 -0.19697830143E+03  0.23395632304E+03  0.12509000000E+03 0.  0.
         25    1    4    4    0    0 -0.53417032949E+02 -0.13550817857E+02 -0.11793967855E+03  0.18053885994E+03  0.12509000000E+03 0.  0.
<mgrwt>
<rscale>  2 0.42740723E+03</rscale>
<asrwt>0</asrwt>
<pdfrwt beam="1">  1       21 0.14534566E-01 0.42740723E+03</pdfrwt>
<pdfrwt beam="2">  1       21 0.67952253E-01 0.42740723E+03</pdfrwt>
<totfact> 0.76536308E+04</totfact>
</mgrwt>
</event>
<event>
 7    0  0.4691878E-002  0.4628598E+03  0.7546771E-02  0.1023955E+00
         21   -1    0    0  502  501  0.00000000000E+00  0.00000000000E+00  0.37263765087E+02  0.37263765087E+02  0.00000000000E+00 0. -1.
         21   -1    0    0  501  502 -0.00000000000E+00 -0.00000000000E+00 -0.14373159165E+04  0.14373159165E+04  0.00000000000E+00 0. -1.
      99926    2    1    2    0    0 -0.71054273576E-14  0.00000000000E+00 -0.14000521514E+04  0.14745796816E+04  0.46285981751E+03 0.  0.
      99925    2    3    3    0    0  0.42413024628E+02  0.82123173591E+02 -0.11206073109E+04  0.11547672252E+04  0.26302760073E+03 0.  0.
         25    1    3    3    0    0 -0.42413024628E+02 -0.82123173591E+02 -0.27944484049E+03  0.31981245641E+03  0.12509000000E+03 0.  0.
         25    1    4    4    0    0  0.35937632594E+01  0.58705216375E+01 -0.57591964533E+03  0.58938809297E+03  0.12509000000E+03 0.  0.
         25    1    4    4    0    0  0.38819261369E+02  0.76252651953E+02 -0.54468766556E+03  0.56537913218E+03  0.12509000000E+03 0.  0.
<mgrwt>
<rscale>  2 0.46285982E+03</rscale>
<asrwt>0</asrwt>
<pdfrwt beam="1">  1       21 0.54799655E-02 0.46285982E+03</pdfrwt>
<pdfrwt beam="2">  1       21 0.21136999E+00 0.46285982E+03</pdfrwt>
<totfact> 0.22974060E+04</totfact>
</mgrwt>
</event>
<event>
 7    0  0.4691878E-002  0.4610511E+03  0.7546771E-02  0.1024477E+00
         21   -1    0    0  502  501  0.00000000000E+00  0.00000000000E+00  0.44000678088E+02  0.44000678088E+02  0.00000000000E+00 0.  1.
         21   -1    0    0  501  502 -0.00000000000E+00 -0.00000000000E+00 -0.12077546059E+04  0.12077546059E+04  0.00000000000E+00 0.  1.
      99926    2    1    2    0    0 -0.37747582837E-14  0.14210854715E-13 -0.11637539278E+04  0.12517552840E+04  0.46105106712E+03 0.  0.
      99925    2    3    3    0    0  0.19029986275E+01  0.94047823717E+02 -0.53109278880E+03  0.60002202607E+03  0.26290353157E+03 0.  0.
         25    1    3    3    0    0 -0.19029986275E+01 -0.94047823717E+02 -0.63266113900E+03  0.65173325790E+03  0.12509000000E+03 0.  0.
         25    1    4    4    0    0 -0.34338675924E+02  0.27445028700E+02 -0.26774805336E+03  0.29877901942E+03  0.12509000000E+03 0.  0.
         25    1    4    4    0    0  0.36241674551E+02  0.66602795018E+02 -0.26334473543E+03  0.30124300666E+03  0.12509000000E+03 0.  0.
<mgrwt>
<rscale>  2 0.46105107E+03</rscale>
<asrwt>0</asrwt>
<pdfrwt beam="1">  1       21 0.64706888E-02 0.46105107E+03</pdfrwt>
<pdfrwt beam="2">  1       21 0.17761095E+00 0.46105107E+03</pdfrwt>
<totfact> 0.29151123E+04</totfact>
</mgrwt>
</event>
<event>
 7    0  0.4691878E-002  0.4533879E+03  0.7546771E-02  0.1026717E+00
         21   -1    0    0  502  501  0.00000000000E+00  0.00000000000E+00  0.41926692998E+02  0.41926692998E+02  0.00000000000E+00 0.  1.
         21   -1    0    0  501  502 -0.00000000000E+00 -0.00000000000E+00 -0.12257141218E+04  0.12257141218E+04  0.00000000000E+00 0.  1.
      99926    2    1    2    0    0  0.00000000000E+00  0.00000000000E+00 -0.11837874288E+04  0.12676408148E+04  0.45338786790E+03 0.  0.
      99925    2    3    3    0    0  0.57894573025E+02 -0.70787979153E+02 -0.92514438926E+03  0.96613385040E+03  0.26298242591E+03 0.  0.
         25    1    4    4    0    0  0.61295153789E+02 -0.11013433159E+02 -0.45952568206E+03  0.48030173033E+03  0.12509000000E+03 0.  0.
         25    1    4    4    0    0 -0.34005807640E+01 -0.59774545994E+02 -0.46561870720E+03  0.48583212007E+03  0.12509000000E+03 0.  0.
         25    1    3    3    0    0 -0.57894573025E+02  0.70787979153E+02 -0.25864303958E+03  0.30150696444E+03  0.12509000000E+03 0.  0.
<mgrwt>
<rscale>  2 0.45338787E+03</rscale>
<asrwt>0</asrwt>
<pdfrwt beam="1">  1       21 0.61656907E-02 0.45338787E+03</pdfrwt>
<pdfrwt beam="2">  1       21 0.18025206E+00 0.45338787E+03</pdfrwt>
<totfact> 0.30449427E+04</totfact>
</mgrwt>
</event>
<event>
 7    0  0.4691878E-002  0.4417240E+03  0.7546771E-02  0.1030219E+00
         21   -1    0    0  502  501  0.00000000000E+00  0.00000000000E+00  0.93919193100E+03  0.93919193100E+03  0.00000000000E+00 0. -1.
         21   -1    0    0  501  502 -0.00000000000E+00 -0.00000000000E+00 -0.51938279121E+02  0.51938279121E+02  0.00000000000E+00 0. -1.
      99926    2    1    2    0    0  0.00000000000E+00  0.00000000000E+00  0.88725365188E+03  0.99113021012E+03  0.44172395299E+03 0.  0.
      99925    2    3    3    0    0 -0.10738169703E+02  0.68608257440E+02  0.40320935227E+03  0.48638394380E+03  0.26300029991E+03 0.  0.
         25    1    4    4    0    0 -0.13743548033E+02  0.53337721364E+02  0.27214289303E+03  0.30453745248E+03  0.12509000000E+03 0.  0.
         25    1    4    4    0    0  0.30053783304E+01  0.15270536076E+02  0.13106645924E+03  0.18184649133E+03  0.12509000000E+03 0.  0.
         25    1    3    3    0    0  0.10738169703E+02 -0.68608257440E+02  0.48404429961E+03  0.50474626632E+03  0.12509000000E+03 0.  0.
<mgrwt>
<rscale>  2 0.44172395E+03</rscale>
<asrwt>0</asrwt>
<pdfrwt beam="1">  1       21 0.13811645E+00 0.44172395E+03</pdfrwt>
<pdfrwt beam="2">  1       21 0.76379828E-02 0.44172395E+03</pdfrwt>
<totfact> 0.43891206E+04</totfact>
</mgrwt>
</event>
<event>
 7    0  0.4691878E-002  0.4513127E+03  0.7546771E-02  0.1027331E+00
         21   -1    0    0  502  501  0.00000000000E+00  0.00000000000E+00  0.93291597091E+02  0.93291597091E+02  0.00000000000E+00 0. -1.
         21   -1    0    0  501  502 -0.00000000000E+00 -0.00000000000E+00 -0.54582399009E+03  0.54582399009E+03  0.00000000000E+00 0. -1.
      99926    2    1    2    0    0  0.00000000000E+00  0.71054273576E-14 -0.45253239300E+03  0.63911558718E+03  0.45131271538E+03 0.  0.
      99925    2    3    3    0    0 -0.71452745397E+02 -0.43903846523E+02 -0.38589591052E+03  0.47443112689E+03  0.26293763109E+03 0.  0.
         25    1    4    4    0    0 -0.52996853805E+02 -0.73555935607E+01 -0.25373508943E+03  0.28790931729E+03  0.12509000000E+03 0.  0.
         25    1    4    4    0    0 -0.18455891593E+02 -0.36548252962E+02 -0.13216082108E+03  0.18652180960E+03  0.12509000000E+03 0.  0.
         25    1    3    3    0    0  0.71452745397E+02  0.43903846523E+02 -0.66636482488E+02  0.16468446029E+03  0.12509000000E+03 0.  0.
<mgrwt>
<rscale>  2 0.45131272E+03</rscale>
<asrwt>0</asrwt>
<pdfrwt beam="1">  1       21 0.13719353E-01 0.45131272E+03</pdfrwt>
<pdfrwt beam="2">  1       21 0.80268233E-01 0.45131272E+03</pdfrwt>
<totfact> 0.58002371E+04</totfact>
</mgrwt>
</event>
<event>
 7    0  0.4691878E-002  0.4505226E+03  0.7546771E-02  0.1027566E+00
         21   -1    0    0  502  501  0.00000000000E+00  0.00000000000E+00  0.13631291372E+03  0.13631291372E+03  0.00000000000E+00 0. -1.
         21   -1    0    0  501  502 -0.00000000000E+00 -0.00000000000E+00 -0.37225117332E+03  0.37225117332E+03  0.00000000000E+00 0. -1.
      99926    2    1    2    0    0  0.00000000000E+00  0.14210854715E-13 -0.23593825960E+03  0.50856408704E+03  0.45052255026E+03 0.  0.
      99925    2    3    3    0    0 -0.25902801935E+01 -0.10491257623E+03 -0.11568649240E+03  0.30578007925E+03  0.26287779316E+03 0.  0.
         25    1    4    4    0    0 -0.30672946257E+02 -0.30083297315E+02 -0.74172073170E+02  0.15164049244E+03  0.12509000000E+03 0.  0.
         25    1    3    3    0    0  0.25902801935E+01  0.10491257623E+03 -0.12025176720E+03  0.20278400780E+03  0.12509000000E+03 0.  0.
         25    1    4    4    0    0  0.28082666063E+02 -0.74829278919E+02 -0.41514419225E+02  0.15413958681E+03  0.12509000000E+03 0.  0.
<mgrwt>
<rscale>  2 0.45052255E+03</rscale>
<asrwt>0</asrwt>
<pdfrwt beam="1">  1       21 0.20046017E-01 0.45052255E+03</pdfrwt>
<pdfrwt beam="2">  1       21 0.54742818E-01 0.45052255E+03</pdfrwt>
<totfact> 0.67023168E+04</totfact>
</mgrwt>
</event>
<event>
 7    0  0.4691878E-002  0.4502067E+03  0.7546771E-02  0.1027660E+00
         21   -1    0    0  502  501  0.00000000000E+00  0.00000000000E+00  0.49161485563E+03  0.49161485563E+03  0.00000000000E+00 0. -1.
         21   -1    0    0  501  502 -0.00000000000E+00 -0.00000000000E+00 -0.10307158180E+03  0.10307158180E+03  0.00000000000E+00 0. -1.
      99926    2    1    2    0    0  0.00000000000E+00  0.71054273576E-14  0.38854327382E+03  0.59468643743E+03  0.45020671167E+03 0.  0.
      99925    2    3    3    0    0  0.16404229569E+02 -0.41809725750E+02  0.37615273154E+03  0.46120166095E+03  0.26305691912E+03 0.  0.
         25    1    3    3    0    0 -0.16404229569E+02  0.41809725750E+02  0.12390542282E+02  0.13348477648E+03  0.12509000000E+03 0.  0.
         25    1    4    4    0    0  0.22925550356E+02 -0.57456099611E+02  0.17672589067E+03  0.22518066696E+03  0.12509000000E+03 0.  0.
         25    1    4    4    0    0 -0.65213207867E+01  0.15646373860E+02  0.19942684088E+03  0.23602099398E+03  0.12509000000E+03 0.  0.
<mgrwt>
<rscale>  2 0.45020671E+03</rscale>
<asrwt>0</asrwt>
<pdfrwt beam="1">  1       21 0.72296301E-01 0.45020671E+03</pdfrwt>
<pdfrwt beam="2">  1       21 0.15157586E-01 0.45020671E+03</pdfrwt>
<totfact> 0.61295493E+04</totfact>
</mgrwt>
</event>
<event>
 7    0  0.4691878E-002  0.4289121E+03  0.7546771E-02  0.1034204E+00
         21   -1    0    0  502  501  0.00000000000E+00  0.00000000000E+00  0.10020043486E+03  0.10020043486E+03  0.00000000000E+00 0. -1.
         21   -1    0    0  501  502 -0.00000000000E+00 -0.00000000000E+00 -0.45899409517E+03  0.45899409517E+03  0.00000000000E+00 0. -1.
      99926    2    1    2    0    0  0.22204460493E-14  0.00000000000E+00 -0.35879366031E+03  0.55919453002E+03  0.42891214920E+03 0.  0.
      99925    2    3    3    0    0 -0.31894257332E+01  0.78009656355E+01 -0.11987390041E+03  0.28937757861E+03  0.26324627917E+03 0.  0.
         25    1    4    4    0    0 -0.39745950969E+02 -0.83964016224E+01 -0.69201525571E+02  0.14861560961E+03  0.12509000000E+03 0.  0.
         25    1    3    3    0    0  0.31894257332E+01 -0.78009656355E+01 -0.23891975990E+03  0.26981695142E+03  0.12509000000E+03 0.  0.
         25    1    4    4    0    0  0.36556525236E+02  0.16197367258E+02 -0.50672374841E+02  0.14076196900E+03  0.12509000000E+03 0.  0.
<mgrwt>
<rscale>  2 0.42891215E+03</rscale>
<asrwt>0</asrwt>
<pdfrwt beam="1">  1       21 0.14735358E-01 0.42891215E+03</pdfrwt>
<pdfrwt beam="2">  1       21 0.67499130E-01 0.42891215E+03</pdfrwt>
<totfact> 0.75719212E+04</totfact>
</mgrwt>
</event>
<event>
 7    0  0.4691878E-002  0.4490520E+03  0.7546771E-02  0.1028005E+00
         21   -1    0    0  502  501  0.00000000000E+00  0.00000000000E+00  0.51648205690E+02  0.51648205690E+02  0.00000000000E+00 0. -1.
         21   -1    0    0  501  502 -0.00000000000E+00 -0.00000000000E+00 -0.97606329607E+03  0.97606329607E+03  0.00000000000E+00 0. -1.
      99926    2    1    2    0    0  0.17763568394E-14  0.00000000000E+00 -0.92441509038E+03  0.10277115018E+04  0.44905196974E+03 0.  0.
      99925    2    3    3    0    0  0.13771532125E+02 -0.10177970095E+03 -0.65763787929E+03  0.71567568477E+03  0.26297403462E+03 0.  0.
         25    1    4    4    0    0 -0.49394728446E+01 -0.92032025858E+02 -0.37081841787E+03  0.40205484614E+03  0.12509000000E+03 0.  0.
         25    1    4    4    0    0  0.18711004969E+02 -0.97476750951E+01 -0.28681946142E+03  0.31362083863E+03  0.12509000000E+03 0.  0.
         25    1    3    3    0    0 -0.13771532125E+02  0.10177970095E+03 -0.26677721110E+03  0.31203581699E+03  0.12509000000E+03 0.  0.
<mgrwt>
<rscale>  2 0.44905197E+03</rscale>
<asrwt>0</asrwt>
<pdfrwt beam="1">  1       21 0.75953241E-02 0.44905197E+03</pdfrwt>
<pdfrwt beam="2">  1       21 0.14353873E+00 0.44905197E+03</pdfrwt>
<totfact> 0.39928162E+04</totfact>
</mgrwt>
</event>
<event>
 7    0  0.4691878E-002  0.4609811E+03  0.7546771E-02  0.1024497E+00
         21   -1    0    0  502  501  0.00000000000E+00  0.00000000000E+00  0.25455767482E+03  0.25455767482E+03  0.00000000000E+00 0. -1.
         21   -1    0    0  501  502 -0.00000000000E+00 -0.00000000000E+00 -0.20869887134E+03  0.20869887134E+03  0.00000000000E+00 0. -1.
      99926    2    1    2    0    0 -0.17763568394E-14  0.00000000000E+00  0.45858803476E+02  0.46325654616E+03  0.46098112511E+03 0.  0.
      99925    2    3    3    0    0 -0.80060885172E+01  0.44703927894E+02 -0.81463016015E+02  0.27908029242E+03  0.26303430959E+03 0.  0.
         25    1    3    3    0    0  0.80060885172E+01 -0.44703927894E+02  0.12732181949E+03  0.18417625374E+03  0.12509000000E+03 0.  0.
         25    1    4    4    0    0 -0.92888813194E+01  0.47042108557E+02 -0.75599176206E+02  0.15382453262E+03  0.12509000000E+03 0.  0.
         25    1    4    4    0    0  0.12827928022E+01 -0.23381806629E+01 -0.58638398091E+01  0.12525575980E+03  0.12509000000E+03 0.  0.
<mgrwt>
<rscale>  2 0.46098113E+03</rscale>
<asrwt>0</asrwt>
<pdfrwt beam="1">  1       21 0.37434952E-01 0.46098113E+03</pdfrwt>
<pdfrwt beam="2">  1       21 0.30691010E-01 0.46098113E+03</pdfrwt>
<totfact> 0.64797271E+04</totfact>
</mgrwt>
</event>
<event>
 7    0  0.4691878E-002  0.4557322E+03  0.7546771E-02  0.1026026E+00
         21   -1    0    0  502  501  0.00000000000E+00  0.00000000000E+00  0.15897323859E+03  0.15897323859E+03  0.00000000000E+00 0. -1.
         21   -1    0    0  501  502 -0.00000000000E+00 -0.00000000000E+00 -0.32661441070E+03  0.32661441070E+03  0.00000000000E+00 0. -1.
      99926    2    1    2    0    0  0.00000000000E+00  0.00000000000E+00 -0.16764117211E+03  0.48558764930E+03  0.45573216099E+03 0.  0.
      99925    2    3    3    0    0  0.76473799611E+02 -0.84195091192E+02 -0.98390956095E+02  0.30288527951E+03  0.26290997869E+03 0.  0.
         25    1    4    4    0    0  0.30135690639E+02 -0.48328495261E+02 -0.90420417220E+02  0.16452101159E+03  0.12509000000E+03 0.  0.
         25    1    4    4    0    0  0.46338108972E+02 -0.35866595931E+02 -0.79705388746E+01  0.13836426792E+03  0.12509000000E+03 0.  0.
         25    1    3    3    0    0 -0.76473799611E+02  0.84195091192E+02 -0.69250216015E+02  0.18270236979E+03  0.12509000000E+03 0.  0.
<mgrwt>
<rscale>  2 0.45573216E+03</rscale>
<asrwt>0</asrwt>
<pdfrwt beam="1">  1       21 0.23378418E-01 0.45573216E+03</pdfrwt>
<pdfrwt beam="2">  1       21 0.48031530E-01 0.45573216E+03</pdfrwt>
<totfact> 0.65911636E+04</totfact>
</mgrwt>
</event>
<event>
 7    0  0.4691878E-002  0.4533142E+03  0.7546771E-02  0.1026738E+00
         21   -1    0    0  502  501  0.00000000000E+00  0.00000000000E+00  0.27505236038E+03  0.27505236038E+03  0.00000000000E+00 0.  1.
         21   -1    0    0  501  502 -0.00000000000E+00 -0.00000000000E+00 -0.18677698054E+03  0.18677698054E+03  0.00000000000E+00 0.  1.
      99926    2    1    2    0    0  0.00000000000E+00  0.00000000000E+00  0.88275379834E+02  0.46182934092E+03  0.45331423698E+03 0.  0.
      99925    2    3    3    0    0 -0.10197421597E+03 -0.43418055848E+02  0.68906105698E+02  0.29358385011E+03  0.26298204758E+03 0.  0.
         25    1    3    3    0    0  0.10197421597E+03  0.43418055848E+02  0.19369274136E+02  0.16824549081E+03  0.12509000000E+03 0.  0.
         25    1    4    4    0    0 -0.36439501808E+02 -0.59390490113E+02  0.38015968673E+02  0.14814786391E+03  0.12509000000E+03 0.  0.
         25    1    4    4    0    0 -0.65534714161E+02  0.15972434265E+02  0.30890137026E+02  0.14543598620E+03  0.12509000000E+03 0.  0.
<mgrwt>
<rscale>  2 0.45331424E+03</rscale>
<asrwt>0</asrwt>
<pdfrwt beam="1">  1       21 0.40448877E-01 0.45331424E+03</pdfrwt>
<pdfrwt beam="2">  1       21 0.27467203E-01 0.45331424E+03</pdfrwt>
<totfact> 0.68965770E+04</totfact>
</mgrwt>
</event>
<event>
 7    0  0.4691878E-002  0.4527643E+03  0.7546771E-02  0.1026901E+00
         21   -1    0    0  502  501  0.00000000000E+00  0.00000000000E+00  0.17298897215E+02  0.17298897215E+02  0.00000000000E+00 0. -1.
         21   -1    0    0  501  502 -0.00000000000E+00 -0.00000000000E+00 -0.29625518595E+04  0.29625518595E+04  0.00000000000E+00 0. -1.
      99926    2    1    2    0    0  0.00000000000E+00  0.00000000000E+00 -0.29452529623E+04  0.29798507567E+04  0.45276431004E+03 0.  0.
      99925    2    3    3    0    0  0.89530793179E+02  0.48784728760E+02 -0.15670511215E+04  0.15922328213E+04  0.26298370119E+03 0.  0.
         25    1    4    4    0    0  0.38969819726E+02 -0.66075386097E+01 -0.89285749199E+03  0.90244352484E+03  0.12509000000E+03 0.  0.
         25    1    4    4    0    0  0.50560973453E+02  0.55392267370E+02 -0.67419362948E+03  0.68978929642E+03  0.12509000000E+03 0.  0.
         25    1    3    3    0    0 -0.89530793179E+02 -0.48784728760E+02 -0.13782018408E+04  0.13876179354E+04  0.12509000000E+03 0.  0.
<mgrwt>
<rscale>  2 0.45276431E+03</rscale>
<asrwt>0</asrwt>
<pdfrwt beam="1">  1       21 0.25439579E-02 0.45276431E+03</pdfrwt>
<pdfrwt beam="2">  1       21 0.43566898E+00 0.45276431E+03</pdfrwt>
<totfact> 0.34201573E+03</totfact>
</mgrwt>
</event>
<event>
 7    0  0.4691878E-002  0.4529735E+03  0.7546771E-02  0.1026839E+00
         21   -1    0    0  502  501  0.00000000000E+00  0.00000000000E+00  0.96937341861E+02  0.96937341861E+02  0.00000000000E+00 0.  1.
         21   -1    0    0  501  502 -0.00000000000E+00 -0.00000000000E+00 -0.52916921250E+03  0.52916921250E+03  0.00000000000E+00 0.  1.
      99926    2    1    2    0    0  0.00000000000E+00  0.00000000000E+00 -0.43223187063E+03  0.62610655436E+03  0.45297353942E+03 0.  0.
      99925    2    3    3    0    0 -0.82174630119E+02 -0.22951396203E+02 -0.37150028197E+03  0.46296468240E+03  0.26276301343E+03 0.  0.
         25    1    4    4    0    0 -0.33696771073E+02  0.96061931477E+00 -0.24443631812E+03  0.27664601369E+03  0.12509000000E+03 0.  0.
         25    1    4    4    0    0 -0.48477859045E+02 -0.23912015518E+02 -0.12706396385E+03  0.18631866872E+03  0.12509000000E+03 0.  0.
         25    1    3    3    0    0  0.82174630119E+02  0.22951396203E+02 -0.60731588661E+02  0.16314187195E+03  0.12509000000E+03 0.  0.
<mgrwt>
<rscale>  2 0.45297354E+03</rscale>
<asrwt>0</asrwt>
<pdfrwt beam="1">  1       21 0.14255491E-01 0.45297354E+03</pdfrwt>
<pdfrwt beam="2">  1       21 0.77819002E-01 0.45297354E+03</pdfrwt>
<totfact> 0.58022165E+04</totfact>
</mgrwt>
</event>
<event>
 7    0  0.4691878E-002  0.4555291E+03  0.7546771E-02  0.1026086E+00
         21   -1    0    0  502  501  0.00000000000E+00  0.00000000000E+00  0.31919036635E+02  0.31919036635E+02  0.00000000000E+00 0.  1.
         21   -1    0    0  501  502 -0.00000000000E+00 -0.00000000000E+00 -0.16252585715E+04  0.16252585715E+04  0.00000000000E+00 0.  1.
      99926    2    1    2    0    0 -0.35527136788E-14  0.00000000000E+00 -0.15933395348E+04  0.16571776081E+04  0.45552908967E+03 0.  0.
      99925    2    3    3    0    0  0.20696407048E+02 -0.82474791929E+02 -0.12766229560E+04  0.13061970788E+04  0.26297186963E+03 0.  0.
         25    1    4    4    0    0  0.44172138385E+02 -0.49324152726E+02 -0.56022971907E+03  0.57783120033E+03  0.12509000000E+03 0.  0.
         25    1    3    3    0    0 -0.20696407048E+02  0.82474791929E+02 -0.31671657885E+03  0.35098052936E+03  0.12509000000E+03 0.  0.
         25    1    4    4    0    0 -0.23475731336E+02 -0.33150639203E+02 -0.71639323693E+03  0.72836587843E+03  0.12509000000E+03 0.  0.
<mgrwt>
<rscale>  2 0.45552909E+03</rscale>
<asrwt>0</asrwt>
<pdfrwt beam="1">  1       21 0.46939750E-02 0.45552909E+03</pdfrwt>
<pdfrwt beam="2">  1       21 0.23900866E+00 0.45552909E+03</pdfrwt>
<totfact> 0.20085372E+04</totfact>
</mgrwt>
</event>
<event>
 7    0  0.4691878E-002  0.4745853E+03  0.7546771E-02  0.1020634E+00
         21   -1    0    0  502  501  0.00000000000E+00  0.00000000000E+00  0.31639843366E+03  0.31639843366E+03  0.00000000000E+00 0. -1.
         21   -1    0    0  501  502 -0.00000000000E+00 -0.00000000000E+00 -0.17796486258E+03  0.17796486258E+03  0.00000000000E+00 0. -1.
      99926    2    1    2    0    0 -0.14210854715E-13  0.00000000000E+00  0.13843357108E+03  0.49436329625E+03  0.47458530853E+03 0.  0.
      99925    2    3    3    0    0 -0.84643571535E+02  0.87810058356E+02  0.36730686377E+02  0.29220957898E+03  0.26298698480E+03 0.  0.
         25    1    4    4    0    0 -0.81373188758E+02  0.37477531710E+02  0.65719516329E+01  0.15400279179E+03  0.12509000000E+03 0.  0.
         25    1    3    3    0    0  0.84643571535E+02 -0.87810058356E+02  0.10170288470E+03  0.20215371727E+03  0.12509000000E+03 0.  0.
         25    1    4    4    0    0 -0.32703827770E+01  0.50332526646E+02  0.30158734745E+02  0.13820678718E+03  0.12509000000E+03 0.  0.
<mgrwt>
<rscale>  2 0.47458531E+03</rscale>
<asrwt>0</asrwt>
<pdfrwt beam="1">  1       21 0.46529181E-01 0.47458531E+03</pdfrwt>
<pdfrwt beam="2">  1       21 0.26171303E-01 0.47458531E+03</pdfrwt>
<totfact> 0.56380246E+04</totfact>
</mgrwt>
</event>
<event>
 7    0  0.4691878E-002  0.4561872E+03  0.7546771E-02  0.1025893E+00
         21   -1    0    0  502  501  0.00000000000E+00  0.00000000000E+00  0.15541452086E+04  0.15541452086E+04  0.00000000000E+00 0.  1.
         21   -1    0    0  501  502 -0.00000000000E+00 -0.00000000000E+00 -0.33476075439E+02  0.33476075439E+02  0.00000000000E+00 0.  1.
      99926    2    1    2    0    0 -0.14210854715E-13 -0.49960036108E-15  0.15206691332E+04  0.15876212841E+04  0.45618716443E+03 0.  0.
      99925    2    3    3    0    0 -0.10502999874E+03 -0.25498471620E+00  0.79877324430E+03  0.84747768439E+03  0.26296076527E+03 0.  0.
         25    1    3    3    0    0  0.10502999874E+03  0.25498471620E+00  0.72189588890E+03  0.74014359969E+03  0.12509000000E+03 0.  0.
         25    1    4    4    0    0 -0.42680110143E+02  0.39320382576E+02  0.38738097143E+03  0.41119242383E+03  0.12509000000E+03 0.  0.
         25    1    4    4    0    0 -0.62349888595E+02 -0.39575367292E+02  0.41139227287E+03  0.43628526056E+03  0.12509000000E+03 0.  0.
<mgrwt>
<rscale>  2 0.45618716E+03</rscale>
<asrwt>0</asrwt>
<pdfrwt beam="1">  1       21 0.22855072E+00 0.45618716E+03</pdfrwt>
<pdfrwt beam="2">  1       21 0.49229533E-02 0.45618716E+03</pdfrwt>
<totfact> 0.21511940E+04</totfact>
</mgrwt>
</event>
<event>
 7    0  0.4691878E-002  0.4559434E+03  0.7546771E-02  0.1025964E+00
         21   -1    0    0  502  501  0.00000000000E+00  0.00000000000E+00  0.32771775739E+02  0.32771775739E+02  0.00000000000E+00 0. -1.
         21   -1    0    0  501  502 -0.00000000000E+00 -0.00000000000E+00 -0.15858489331E+04  0.15858489331E+04  0.00000000000E+00 0. -1.
      99926    2    1    2    0    0  0.00000000000E+00  0.00000000000E+00 -0.15530771573E+04  0.16186207088E+04  0.45594335434E+03 0.  0.
      99925    2    3    3    0    0  0.78435578090E+02 -0.59628148118E+02 -0.11803122495E+04  0.12132704399E+04  0.26302185815E+03 0.  0.
         25    1    4    4    0    0  0.21708284323E+02 -0.10183171129E+02 -0.69124547707E+03  0.70288175695E+03  0.12509000000E+03 0.  0.
         25    1    3    3    0    0 -0.78435578090E+02  0.59628148118E+02 -0.37276490780E+03  0.40535026896E+03  0.12509000000E+03 0.  0.
         25    1    4    4    0    0  0.56727293767E+02 -0.49444976989E+02 -0.48906677247E+03  0.51038868291E+03  0.12509000000E+03 0.  0.
<mgrwt>
<rscale>  2 0.45594335E+03</rscale>
<asrwt>0</asrwt>
<pdfrwt beam="1">  1       21 0.48193776E-02 0.45594335E+03</pdfrwt>
<pdfrwt beam="2">  1       21 0.23321314E+00 0.45594335E+03</pdfrwt>
<totfact> 0.20859034E+04</totfact>
</mgrwt>
</event>
<event>
 7    0  0.4691878E-002  0.4510450E+03  0.7546771E-02  0.1027411E+00
         21   -1    0    0  502  501  0.00000000000E+00  0.00000000000E+00  0.48870643210E+02  0.48870643210E+02  0.00000000000E+00 0. -1.
         21   -1    0    0  501  502 -0.00000000000E+00 -0.00000000000E+00 -0.10407149433E+04  0.10407149433E+04  0.00000000000E+00 0. -1.
      99926    2    1    2    0    0  0.00000000000E+00 -0.14210854715E-13 -0.99184430009E+03  0.10895855865E+04  0.45104504731E+03 0.  0.
      99925    2    3    3    0    0  0.77783853119E+02  0.74512762870E+02 -0.57964797766E+03  0.64556329432E+03  0.26297853397E+03 0.  0.
         25    1    4    4    0    0  0.68831751838E+02  0.67211383374E+02 -0.29919375184E+03  0.33825964784E+03  0.12509000000E+03 0.  0.
         25    1    4    4    0    0  0.89521012811E+01  0.73013794960E+01 -0.28045422582E+03  0.30730364648E+03  0.12509000000E+03 0.  0.
         25    1    3    3    0    0 -0.77783853119E+02 -0.74512762870E+02 -0.41219632242E+03  0.44402229218E+03  0.12509000000E+03 0.  0.
<mgrwt>
<rscale>  2 0.45104505E+03</rscale>
<asrwt>0</asrwt>
<pdfrwt beam="1">  1       21 0.71868596E-02 0.45104505E+03</pdfrwt>
<pdfrwt beam="2">  1       21 0.15304631E+00 0.45104505E+03</pdfrwt>
<totfact> 0.36985599E+04</totfact>
</mgrwt>
</event>
<event>
 7    0  0.4691878E-002  0.4480841E+03  0.7546771E-02  0.1028295E+00
         21   -1    0    0  502  501  0.00000000000E+00  0.00000000000E+00  0.11238064385E+03  0.11238064385E+03  0.00000000000E+00 0.  1.
         21   -1    0    0  501  502 -0.00000000000E+00 -0.00000000000E+00 -0.44665029221E+03  0.44665029221E+03  0.00000000000E+00 0.  1.
      99926    2    1    2    0    0  0.17763568394E-14  0.00000000000E+00 -0.33426964836E+03  0.55903093605E+03  0.44808413234E+03 0.  0.
      99925    2    3    3    0    0 -0.66257318973E+01 -0.10404977528E+03 -0.18426223894E+03  0.33762635833E+03  0.26299948494E+03 0.  0.
         25    1    4    4    0    0 -0.27441349692E+02 -0.63683755117E+02 -0.13207711777E+03  0.19468056266E+03  0.12509000000E+03 0.  0.
         25    1    3    3    0    0  0.66257318973E+01  0.10404977528E+03 -0.15000740942E+03  0.22140457773E+03  0.12509000000E+03 0.  0.
         25    1    4    4    0    0  0.20815617795E+02 -0.40366020162E+02 -0.52185121173E+02  0.14294579567E+03  0.12509000000E+03 0.  0.
<mgrwt>
<rscale>  2 0.44808413E+03</rscale>
<asrwt>0</asrwt>
<pdfrwt beam="1">  1       21 0.16526565E-01 0.44808413E+03</pdfrwt>
<pdfrwt beam="2">  1       21 0.65683866E-01 0.44808413E+03</pdfrwt>
<totfact> 0.64743375E+04</totfact>
</mgrwt>
</event>
<event>
 7    0  0.4691878E-002  0.4598787E+03  0.7546771E-02  0.1024816E+00
         21   -1    0    0  502  501  0.00000000000E+00  0.00000000000E+00  0.11804153778E+03  0.11804153778E+03  0.00000000000E+00 0. -1.
         21   -1    0    0  501  502 -0.00000000000E+00 -0.00000000000E+00 -0.44791104798E+03  0.44791104798E+03  0.00000000000E+00 0. -1.
      99926    2    1    2    0    0  0.00000000000E+00  0.00000000000E+00 -0.32986951020E+03  0.56595258576E+03  0.45987871832E+03 0.  0.
      99925    2    3    3    0    0  0.48642106817E+02 -0.89390033854E+02 -0.13380219238E+03  0.31208936683E+03  0.26294507695E+03 0.  0.
         25    1    3    3    0    0 -0.48642106817E+02  0.89390033854E+02 -0.19606731782E+03  0.25386321893E+03  0.12509000000E+03 0.  0.
         25    1    4    4    0    0  0.69513068786E+01 -0.42521514223E+02 -0.24562625880E+02  0.13456310984E+03  0.12509000000E+03 0.  0.
         25    1    4    4    0    0  0.41690799939E+02 -0.46868519631E+02 -0.10923956650E+03  0.17752625699E+03  0.12509000000E+03 0.  0.
<mgrwt>
<rscale>  2 0.45987872E+03</rscale>
<asrwt>0</asrwt>
<pdfrwt beam="1">  1       21 0.17359050E-01 0.45987872E+03</pdfrwt>
<pdfrwt beam="2">  1       21 0.65869272E-01 0.45987872E+03</pdfrwt>
<totfact> 0.58533113E+04</totfact>
</mgrwt>
</event>
<event>
 7    0  0.4691878E-002  0.4563648E+03  0.7546771E-02  0.1025841E+00
         21   -1    0    0  502  501  0.00000000000E+00  0.00000000000E+00  0.70191494786E+02  0.70191494786E+02  0.00000000000E+00 0. -1.
         21   -1    0    0  501  502 -0.00000000000E+00 -0.00000000000E+00 -0.74178812704E+03  0.74178812704E+03  0.00000000000E+00 0. -1.
      99926    2    1    2    0    0  0.00000000000E+00  0.00000000000E+00 -0.67159663225E+03  0.81197962182E+03  0.45636484287E+03 0.  0.
      99925    2    3    3    0    0  0.63157528637E+01 -0.10638778155E+03 -0.49677067052E+03  0.57204239296E+03  0.26285576171E+03 0.  0.
         25    1    4    4    0    0  0.16544508643E+02 -0.94330995322E+02 -0.27331659811E+03  0.31547032879E+03  0.12509000000E+03 0.  0.
         25    1    3    3    0    0 -0.63157528637E+01  0.10638778155E+03 -0.17482596173E+03  0.23993722886E+03  0.12509000000E+03 0.  0.
         25    1    4    4    0    0 -0.10228755779E+02 -0.12056786225E+02 -0.22345407241E+03  0.25657206417E+03  0.12509000000E+03 0.  0.
<mgrwt>
<rscale>  2 0.45636484E+03</rscale>
<asrwt>0</asrwt>
<pdfrwt beam="1">  1       21 0.10322279E-01 0.45636484E+03</pdfrwt>
<pdfrwt beam="2">  1       21 0.10908649E+00 0.45636484E+03</pdfrwt>
<totfact> 0.46688772E+04</totfact>
</mgrwt>
</event>
<event>
 7    0  0.4691878E-002  0.4561048E+03  0.7546771E-02  0.1025917E+00
         21   -1    0    0  502  501  0.00000000000E+00  0.00000000000E+00  0.88818425488E+02  0.88818425488E+02  0.00000000000E+00 0.  1.
         21   -1    0    0  501  502 -0.00000000000E+00 -0.00000000000E+00 -0.58555306010E+03  0.58555306010E+03  0.00000000000E+00 0.  1.
      99926    2    1    2    0    0  0.00000000000E+00  0.00000000000E+00 -0.49673463461E+03  0.67437148559E+03  0.45610481619E+03 0.  0.
      99925    2    3    3    0    0  0.65895162971E+02  0.51919857628E+02 -0.19751341096E+03  0.33938089930E+03  0.26292585111E+03 0.  0.
         25    1    4    4    0    0  0.53395453033E+02 -0.81217896248E+01 -0.10699924015E+03  0.17324371090E+03  0.12509000000E+03 0.  0.
         25    1    3    3    0    0 -0.65895162971E+02 -0.51919857628E+02 -0.29922122366E+03  0.33499058629E+03  0.12509000000E+03 0.  0.
         25    1    4    4    0    0  0.12499709938E+02  0.60041647252E+02 -0.90514170803E+02  0.16613718840E+03  0.12509000000E+03 0.  0.
<mgrwt>
<rscale>  2 0.45610482E+03</rscale>
<asrwt>0</asrwt>
<pdfrwt beam="1">  1       21 0.13061533E-01 0.45610482E+03</pdfrwt>
<pdfrwt beam="2">  1       21 0.86110744E-01 0.45610482E+03</pdfrwt>
<totfact> 0.53846552E+04</totfact>
</mgrwt>
</event>
<event>
 7    0  0.4691878E-002  0.4549091E+03  0.7546771E-02  0.1026268E+00
         21   -1    0    0  502  501  0.00000000000E+00  0.00000000000E+00  0.93241291191E+02  0.93241291191E+02  0.00000000000E+00 0. -1.
         21   -1    0    0  501  502 -0.00000000000E+00 -0.00000000000E+00 -0.55485699263E+03  0.55485699263E+03  0.00000000000E+00 0. -1.
      99926    2    1    2    0    0  0.00000000000E+00  0.00000000000E+00 -0.46161570144E+03  0.64809828382E+03  0.45490914442E+03 0.  0.
      99925    2    3    3    0    0 -0.53401116806E+02  0.47759758110E+02 -0.41502503215E+03  0.49660283064E+03  0.26312719417E+03 0.  0.
         25    1    3    3    0    0  0.53401116806E+02 -0.47759758110E+02 -0.46590669288E+02  0.15149545318E+03  0.12509000000E+03 0.  0.
         25    1    4    4    0    0 -0.37700066990E+02 -0.75274679951E+01 -0.24571460083E+03  0.27839024944E+03  0.12509000000E+03 0.  0.
         25    1    4    4    0    0 -0.15701049815E+02  0.55287226106E+02 -0.16931043133E+03  0.21821258119E+03  0.12509000000E+03 0.  0.
<mgrwt>
<rscale>  2 0.45490914E+03</rscale>
<asrwt>0</asrwt>
<pdfrwt beam="1">  1       21 0.13711955E-01 0.45490914E+03</pdfrwt>
<pdfrwt beam="2">  1       21 0.81596615E-01 0.45490914E+03</pdfrwt>
<totfact> 0.55851204E+04</totfact>
</mgrwt>
</event>
<event>
 7    0  0.4691878E-002  0.4587469E+03  0.7546771E-02  0.1025145E+00
         21   -1    0    0  502  501  0.00000000000E+00  0.00000000000E+00  0.76114572024E+02  0.76114572024E+02  0.00000000000E+00 0.  1.
         21   -1    0    0  501  502 -0.00000000000E+00 -0.00000000000E+00 -0.69122362653E+03  0.69122362653E+03  0.00000000000E+00 0.  1.
      99926    2    1    2    0    0 -0.71054273576E-14 -0.14210854715E-13 -0.61510905450E+03  0.76733819855E+03  0.45874694770E+03 0.  0.
      99925    2    3    3    0    0 -0.51750147343E+02 -0.10412813193E+03 -0.40122171121E+03  0.49363023496E+03  0.26300418574E+03 0.  0.
         25    1    3    3    0    0  0.51750147343E+02  0.10412813193E+03 -0.21388734330E+03  0.27370796359E+03  0.12509000000E+03 0.  0.
         25    1    4    4    0    0 -0.45379605875E+02 -0.35998139028E+02 -0.14278072200E+03  0.19846666551E+03  0.12509000000E+03 0.  0.
         25    1    4    4    0    0 -0.63705414682E+01 -0.68129992902E+02 -0.25844098920E+03  0.29516356945E+03  0.12509000000E+03 0.  0.
<mgrwt>
<rscale>  2 0.45874695E+03</rscale>
<asrwt>0</asrwt>
<pdfrwt beam="1">  1       21 0.11193320E-01 0.45874695E+03</pdfrwt>
<pdfrwt beam="2">  1       21 0.10165053E+00 0.45874695E+03</pdfrwt>
<totfact> 0.47958734E+04</totfact>
</mgrwt>
</event>
<event>
 7    0  0.4691878E-002  0.4562932E+03  0.7546771E-02  0.1025862E+00
         21   -1    0    0  502  501  0.00000000000E+00  0.00000000000E+00  0.18411716512E+03  0.18411716512E+03  0.00000000000E+00 0. -1.
         21   -1    0    0  501  502 -0.00000000000E+00 -0.00000000000E+00 -0.28270518733E+03  0.28270518733E+03  0.00000000000E+00 0. -1.
      99926    2    1    2    0    0  0.00000000000E+00  0.14210854715E-13 -0.98588022205E+02  0.46682235245E+03  0.45629322878E+03 0.  0.
      99925    2    3    3    0    0 -0.77991203966E+02 -0.82772727897E+02 -0.48859122392E+02  0.29059969796E+03  0.26292017464E+03 0.  0.
         25    1    4    4    0    0 -0.20397045424E+02 -0.41313300502E+02 -0.60337574564E+02  0.14632484158E+03  0.12509000000E+03 0.  0.
         25    1    3    3    0    0  0.77991203966E+02  0.82772727897E+02 -0.49728899813E+02  0.17622265449E+03  0.12509000000E+03 0.  0.
         25    1    4    4    0    0 -0.57594158541E+02 -0.41459427395E+02  0.11478452171E+02  0.14427485638E+03  0.12509000000E+03 0.  0.
<mgrwt>
<rscale>  2 0.45629323E+03</rscale>
<asrwt>0</asrwt>
<pdfrwt beam="1">  1       21 0.27076054E-01 0.45629323E+03</pdfrwt>
<pdfrwt beam="2">  1       21 0.41574292E-01 0.45629323E+03</pdfrwt>
<totfact> 0.66983569E+04</totfact>
</mgrwt>
</event>
<event>
 7    0  0.4691878E-002  0.4558739E+03  0.7546771E-02  0.1025985E+00
         21   -1    0    0  502  501  0.00000000000E+00  0.00000000000E+00  0.23210232771E+03  0.23210232771E+03  0.00000000000E+00 0. -1.
         21   -1    0    0  501  502 -0.00000000000E+00 -0.00000000000E+00 -0.22384636157E+03  0.22384636157E+03  0.00000000000E+00 0. -1.
      99926    2    1    2    0    0  0.00000000000E+00  0.00000000000E+00  0.82559661474E+01  0.45594868928E+03  0.45587393683E+03 0.  0.
      99925    2    3    3    0    0  0.54020095019E+02 -0.75880482607E+02  0.70777592086E+02  0.28792345273E+03  0.26308635234E+03 0.  0.
         25    1    4    4    0    0  0.13549652542E+02 -0.35944188776E+02  0.74290338966E+02  0.15047305524E+03  0.12509000000E+03 0.  0.
         25    1    3    3    0    0 -0.54020095019E+02  0.75880482607E+02 -0.62521625938E+02  0.16802523655E+03  0.12509000000E+03 0.  0.
         25    1    4    4    0    0  0.40470442477E+02 -0.39936293831E+02 -0.35127468800E+01  0.13745039749E+03  0.12509000000E+03 0.  0.
<mgrwt>
<rscale>  2 0.45587394E+03</rscale>
<asrwt>0</asrwt>
<pdfrwt beam="1">  1       21 0.34132695E-01 0.45587394E+03</pdfrwt>
<pdfrwt beam="2">  1       21 0.32918582E-01 0.45587394E+03</pdfrwt>
<totfact> 0.68000935E+04</totfact>
</mgrwt>
</event>
<event>
 7    0  0.4691878E-002  0.4577016E+03  0.7546771E-02  0.1025450E+00
         21   -1    0    0  502  501  0.00000000000E+00  0.00000000000E+00  0.54934480361E+02  0.54934480361E+02  0.00000000000E+00 0. -1.
         21   -1    0    0  501  502 -0.00000000000E+00 -0.00000000000E+00 -0.95336641675E+03  0.95336641675E+03  0.00000000000E+00 0. -1.
      99926    2    1    2    0    0  0.71054273576E-14  0.00000000000E+00 -0.89843193639E+03  0.10083008971E+04  0.45770160016E+03 0.  0.
      99925    2    3    3    0    0  0.45935761522E+02 -0.10479179665E+03 -0.60189062820E+03  0.66672269173E+03  0.26297415180E+03 0.  0.
         25    1    4    4    0    0 -0.17700483429E+02 -0.47637706945E+02 -0.29695846427E+03  0.32621234777E+03  0.12509000000E+03 0.  0.
         25    1    3    3    0    0 -0.45935761522E+02  0.10479179665E+03 -0.29654130818E+03  0.34157820538E+03  0.12509000000E+03 0.  0.
         25    1    4    4    0    0  0.63636244951E+02 -0.57154089703E+02 -0.30493216393E+03  0.34051034396E+03  0.12509000000E+03 0.  0.
<mgrwt>
<rscale>  2 0.45770160E+03</rscale>
<asrwt>0</asrwt>
<pdfrwt beam="1">  1       21 0.80786002E-02 0.45770160E+03</pdfrwt>
<pdfrwt beam="2">  1       21 0.14020094E+00 0.45770160E+03</pdfrwt>
<totfact> 0.38036657E+04</totfact>
</mgrwt>
</event>
<event>
 7    0  0.4691878E-002  0.4592360E+03  0.7546771E-02  0.1025003E+00
         21   -1    0    0  502  501  0.00000000000E+00  0.00000000000E+00  0.42263641570E+03  0.42263641570E+03  0.00000000000E+00 0.  1.
         21   -1    0    0  501  502 -0.00000000000E+00 -0.00000000000E+00 -0.12475124712E+03  0.12475124712E+03  0.00000000000E+00 0.  1.
      99926    2    1    2    0    0  0.00000000000E+00  0.00000000000E+00  0.29788516858E+03  0.54738766282E+03  0.45923597392E+03 0.  0.
      99925    2    3    3    0    0  0.39245169531E+02  0.82703120451E+02  0.27376129105E+03  0.39051364001E+03  0.26301267858E+03 0.  0.
         25    1    4    4    0    0  0.29037366120E+01  0.55407460704E+02  0.18668651639E+03  0.23146874927E+03  0.12509000000E+03 0.  0.
         25    1    3    3    0    0 -0.39245169531E+02 -0.82703120451E+02  0.24123877531E+02  0.15687402281E+03  0.12509000000E+03 0.  0.
         25    1    4    4    0    0  0.36341432919E+02  0.27295659747E+02  0.87074774656E+02  0.15904489074E+03  0.12509000000E+03 0.  0.
<mgrwt>
<rscale>  2 0.45923597E+03</rscale>
<asrwt>0</asrwt>
<pdfrwt beam="1">  1       21 0.62152414E-01 0.45923597E+03</pdfrwt>
<pdfrwt beam="2">  1       21 0.18345772E-01 0.45923597E+03</pdfrwt>
<totfact> 0.60002906E+04</totfact>
</mgrwt>
</event>
<event>
 7    0  0.4691878E-002  0.4560639E+03  0.7546771E-02  0.1025929E+00
         21   -1    0    0  502  501  0.00000000000E+00  0.00000000000E+00  0.64318199931E+03  0.64318199931E+03  0.00000000000E+00 0.  1.
         21   -1    0    0  501  502 -0.00000000000E+00 -0.00000000000E+00 -0.80845820843E+02  0.80845820843E+02  0.00000000000E+00 0.  1.
      99926    2    1    2    0    0  0.00000000000E+00  0.00000000000E+00  0.56233617847E+03  0.72402782016E+03  0.45606392835E+03 0.  0.
      99925    2    3    3    0    0 -0.60288216974E+02  0.87197106764E+02  0.28650702605E+03  0.40314274110E+03  0.26305852808E+03 0.  0.
         25    1    4    4    0    0  0.84232930163E+01  0.35043682167E+02  0.15286735702E+03  0.20078582736E+03  0.12509000000E+03 0.  0.
         25    1    3    3    0    0  0.60288216974E+02 -0.87197106764E+02  0.27582915242E+03  0.32088507905E+03  0.12509000000E+03 0.  0.
         25    1    4    4    0    0 -0.68711509991E+02  0.52153424597E+02  0.13363966903E+03  0.20235691375E+03  0.12509000000E+03 0.  0.
<mgrwt>
<rscale>  2 0.45606393E+03</rscale>
<asrwt>0</asrwt>
<pdfrwt beam="1">  1       21 0.94585585E-01 0.45606393E+03</pdfrwt>
<pdfrwt beam="2">  1       21 0.11889092E-01 0.45606393E+03</pdfrwt>
<totfact> 0.51188122E+04</totfact>
</mgrwt>
</event>
<event>
 7    0  0.4691878E-002  0.4324621E+03  0.7546771E-02  0.1033085E+00
         21   -1    0    0  502  501  0.00000000000E+00  0.00000000000E+00  0.48245530684E+03  0.48245530684E+03  0.00000000000E+00 0.  1.
         21   -1    0    0  501  502 -0.00000000000E+00 -0.00000000000E+00 -0.96912333275E+02  0.96912333275E+02  0.00000000000E+00 0.  1.
      99926    2    1    2    0    0  0.00000000000E+00  0.00000000000E+00  0.38554297356E+03  0.57936764011E+03  0.43246211157E+03 0.  0.
      99925    2    3    3    0    0  0.22135718874E+02 -0.85327392340E+02  0.27532302439E+03  0.39077628498E+03  0.26293075745E+03 0.  0.
         25    1    3    3    0    0 -0.22135718874E+02  0.85327392340E+02  0.11021994918E+03  0.18859135513E+03  0.12509000000E+03 0.  0.
         25    1    4    4    0    0  0.17157010674E+02 -0.15176857886E+02  0.87318795639E+02  0.15426205043E+03  0.12509000000E+03 0.  0.
         25    1    4    4    0    0  0.49787082001E+01 -0.70150534454E+02  0.18800422875E+03  0.23651423455E+03  0.12509000000E+03 0.  0.
<mgrwt>
<rscale>  2 0.43246211E+03</rscale>
<asrwt>0</asrwt>
<pdfrwt beam="1">  1       21 0.70949309E-01 0.43246211E+03</pdfrwt>
<pdfrwt beam="2">  1       21 0.14251814E-01 0.43246211E+03</pdfrwt>
<totfact> 0.71955033E+04</totfact>
</mgrwt>
</event>
<event>
 7    0  0.4691878E-002  0.4615840E+03  0.7546771E-02  0.1024323E+00
         21   -1    0    0  502  501  0.00000000000E+00  0.00000000000E+00  0.54016092602E+03  0.54016092602E+03  0.00000000000E+00 0.  1.
         21   -1    0    0  501  502 -0.00000000000E+00 -0.00000000000E+00 -0.98609419983E+02  0.98609419983E+02  0.00000000000E+00 0.  1.
      99926    2    1    2    0    0  0.00000000000E+00 -0.88817841970E-15  0.44155150604E+03  0.63877034601E+03  0.46158403617E+03 0.  0.
      99925    2    3    3    0    0  0.11061084253E+03 -0.41855738405E+01  0.33718514982E+03  0.44181318842E+03  0.26315924968E+03 0.  0.
         25    1    4    4    0    0  0.51192385179E+02 -0.20806314170E+02  0.22283922644E+03  0.26145437834E+03  0.12509000000E+03 0.  0.
         25    1    3    3    0    0 -0.11061084253E+03  0.41855738405E+01  0.10436635622E+03  0.19695715758E+03  0.12509000000E+03 0.  0.
         25    1    4    4    0    0  0.59418457347E+02  0.16620740330E+02  0.11434592338E+03  0.18035881009E+03  0.12509000000E+03 0.  0.
<mgrwt>
<rscale>  2 0.46158404E+03</rscale>
<asrwt>0</asrwt>
<pdfrwt beam="1">  1       21 0.79435429E-01 0.46158404E+03</pdfrwt>
<pdfrwt beam="2">  1       21 0.14501386E-01 0.46158404E+03</pdfrwt>
<totfact> 0.53517495E+04</totfact>
</mgrwt>
</event>
<event>
 7    0  0.4691878E-002  0.4571658E+03  0.7546771E-02  0.1025606E+00
         21   -1    0    0  502  501  0.00000000000E+00  0.00000000000E+00  0.74825438607E+02  0.74825438607E+02  0.00000000000E+00 0.  1.
         21   -1    0    0  501  502 -0.00000000000E+00 -0.00000000000E+00 -0.69829396898E+03  0.69829396898E+03  0.00000000000E+00 0.  1.
      99926    2    1    2    0    0  0.00000000000E+00  0.00000000000E+00 -0.62346853037E+03  0.77311940758E+03  0.45716584520E+03 0.  0.
      99925    2    3    3    0    0  0.10909390520E+03  0.36931820456E+02 -0.38709630017E+03  0.48194114805E+03  0.26297962862E+03 0.  0.
         25    1    3    3    0    0 -0.10909390520E+03 -0.36931820456E+02 -0.23637223020E+03  0.29117825953E+03  0.12509000000E+03 0.  0.
         25    1    4    4    0    0  0.18031478414E+02 -0.23411581365E+01 -0.15068983963E+03  0.19668642837E+03  0.12509000000E+03 0.  0.
         25    1    4    4    0    0  0.91062426785E+02  0.39272978593E+02 -0.23640646054E+03  0.28525471969E+03  0.12509000000E+03 0.  0.
<mgrwt>
<rscale>  2 0.45716585E+03</rscale>
<asrwt>0</asrwt>
<pdfrwt beam="1">  1       21 0.11003741E-01 0.45716585E+03</pdfrwt>
<pdfrwt beam="2">  1       21 0.10269029E+00 0.45716585E+03</pdfrwt>
<totfact> 0.48266622E+04</totfact>
</mgrwt>
</event>
<event>
 7    0  0.4691878E-002  0.4518447E+03  0.7546771E-02  0.1027173E+00
         21   -1    0    0  502  501  0.00000000000E+00  0.00000000000E+00  0.30341202110E+03  0.30341202110E+03  0.00000000000E+00 0.  1.
         21   -1    0    0  501  502 -0.00000000000E+00 -0.00000000000E+00 -0.16822310849E+03  0.16822310849E+03  0.00000000000E+00 0.  1.
      99926    2    1    2    0    0  0.00000000000E+00  0.00000000000E+00  0.13518891261E+03  0.47163512958E+03  0.45184472262E+03 0.  0.
      99925    2    3    3    0    0 -0.90209569239E+02  0.61270824752E+02  0.10008571860E+03  0.30201313019E+03  0.26325443850E+03 0.  0.
         25    1    3    3    0    0  0.90209569239E+02 -0.61270824752E+02  0.35103194010E+02  0.16962199939E+03  0.12509000000E+03 0.  0.
         25    1    4    4    0    0 -0.24945876486E+02  0.66157879523E+02  0.46879280495E+02  0.15114343127E+03  0.12509000000E+03 0.  0.
         25    1    4    4    0    0 -0.65263692753E+02 -0.48870547703E+01  0.53206438103E+02  0.15086969892E+03  0.12509000000E+03 0.  0.
<mgrwt>
<rscale>  2 0.45184472E+03</rscale>
<asrwt>0</asrwt>
<pdfrwt beam="1">  1       21 0.44619415E-01 0.45184472E+03</pdfrwt>
<pdfrwt beam="2">  1       21 0.24738692E-01 0.45184472E+03</pdfrwt>
<totfact> 0.69026397E+04</totfact>
</mgrwt>
</event>
<event>
 7    0  0.4691878E-002  0.4594902E+03  0.7546771E-02  0.1024929E+00
         21   -1    0    0  502  501  0.00000000000E+00  0.00000000000E+00  0.77156474268E+03  0.77156474268E+03  0.00000000000E+00 0.  1.
         21   -1    0    0  501  502 -0.00000000000E+00 -0.00000000000E+00 -0.68410082855E+02  0.68410082855E+02  0.00000000000E+00 0.  1.
      99926    2    1    2    0    0  0.00000000000E+00  0.00000000000E+00  0.70315465983E+03  0.83997482554E+03  0.45949018695E+03 0.  0.
      99925    2    3    3    0    0 -0.27626565367E+02 -0.97319254888E+02  0.54985695261E+03  0.61775430528E+03  0.26276120123E+03 0.  0.
         25    1    4    4    0    0 -0.20550149318E+02 -0.49214997346E+02  0.36348365068E+03  0.38808800163E+03  0.12509000000E+03 0.  0.
         25    1    3    3    0    0  0.27626565367E+02  0.97319254888E+02  0.15329770722E+03  0.22222052026E+03  0.12509000000E+03 0.  0.
         25    1    4    4    0    0 -0.70764160482E+01 -0.48104257542E+02  0.18637330193E+03  0.22966630364E+03  0.12509000000E+03 0.  0.
<mgrwt>
<rscale>  2 0.45949019E+03</rscale>
<asrwt>0</asrwt>
<pdfrwt beam="1">  1       21 0.11346540E+00 0.45949019E+03</pdfrwt>
<pdfrwt beam="2">  1       21 0.10060307E-01 0.45949019E+03</pdfrwt>
<totfact> 0.44309564E+04</totfact>
</mgrwt>
</event>
<event>
 7    0  0.4691878E-002  0.4527640E+03  0.7546771E-02  0.1026901E+00
         21   -1    0    0  502  501  0.00000000000E+00  0.00000000000E+00  0.15313908706E+04  0.15313908706E+04  0.00000000000E+00 0. -1.
         21   -1    0    0  501  502 -0.00000000000E+00 -0.00000000000E+00 -0.33465534001E+02  0.33465534001E+02  0.00000000000E+00 0. -1.
      99926    2    1    2    0    0  0.00000000000E+00  0.00000000000E+00  0.14979253366E+04  0.15648564046E+04  0.45276401468E+03 0.  0.
      99925    2    3    3    0    0  0.49746107637E+02  0.71560259678E+02  0.70675173708E+03  0.75912771660E+03  0.26302343290E+03 0.  0.
         25    1    4    4    0    0  0.39805306509E+02  0.58533743946E+02  0.46098306420E+03  0.48287012248E+03  0.12509000000E+03 0.  0.
         25    1    4    4    0    0  0.99408011285E+01  0.13026515731E+02  0.24576867288E+03  0.27625759412E+03  0.12509000000E+03 0.  0.
         25    1    3    3    0    0 -0.49746107637E+02 -0.71560259678E+02  0.79117359950E+03  0.80572868798E+03  0.12509000000E+03 0.  0.
<mgrwt>
<rscale>  2 0.45276401E+03</rscale>
<asrwt>0</asrwt>
<pdfrwt beam="1">  1       21 0.22520449E+00 0.45276401E+03</pdfrwt>
<pdfrwt beam="2">  1       21 0.49214031E-02 0.45276401E+03</pdfrwt>
<totfact> 0.22623769E+04</totfact>
</mgrwt>
</event>
<event>
 7    0  0.4691878E-002  0.4528118E+03  0.7546771E-02  0.1026887E+00
         21   -1    0    0  502  501  0.00000000000E+00  0.00000000000E+00  0.31137207022E+04  0.31137207022E+04  0.00000000000E+00 0. -1.
         21   -1    0    0  501  502 -0.00000000000E+00 -0.00000000000E+00 -0.16462503159E+02  0.16462503159E+02  0.00000000000E+00 0. -1.
      99926    2    1    2    0    0  0.00000000000E+00  0.00000000000E+00  0.30972581991E+04  0.31301832054E+04  0.45281182359E+03 0.  0.
      99925    2    3    3    0    0 -0.53348151503E+02  0.77028629944E+02  0.23654523562E+04  0.23818739546E+04  0.26301948770E+03 0.  0.
         25    1    3    3    0    0  0.53348151503E+02 -0.77028629944E+02  0.73180584284E+03  0.74830925078E+03  0.12509000000E+03 0.  0.
         25    1    4    4    0    0 -0.20305582286E+01  0.70552944771E+02  0.12648966263E+04  0.12730250683E+04  0.12509000000E+03 0.  0.
         25    1    4    4    0    0 -0.51317593275E+02  0.64756851725E+01  0.11005557300E+04  0.11088488864E+04  0.12509000000E+03 0.  0.
<mgrwt>
<rscale>  2 0.45281182E+03</rscale>
<asrwt>0</asrwt>
<pdfrwt beam="1">  1       21 0.45789969E+00 0.45281182E+03</pdfrwt>
<pdfrwt beam="2">  1       21 0.24209585E-02 0.45281182E+03</pdfrwt>
<totfact> 0.26302011E+03</totfact>
</mgrwt>
</event>
<event>
 7    0  0.4691878E-002  0.4679805E+03  0.7546771E-02  0.1022492E+00
         21   -1    0    0  502  501  0.00000000000E+00  0.00000000000E+00  0.16058878853E+04  0.16058878853E+04  0.00000000000E+00 0.  1.
         21   -1    0    0  501  502 -0.00000000000E+00 -0.00000000000E+00 -0.34094187932E+02  0.34094187932E+02  0.00000000000E+00 0.  1.
      99926    2    1    2    0    0  0.00000000000E+00 -0.35527136788E-14  0.15717936974E+04  0.16399820733E+04  0.46798052677E+03 0.  0.
      99925    2    3    3    0    0 -0.89512526236E+02  0.29167698665E+02  0.12665355671E+04  0.12969175295E+04  0.26271560383E+03 0.  0.
         25    1    4    4    0    0 -0.65289732631E+01  0.30635263534E+02  0.58819197406E+03  0.60216148442E+03  0.12509000000E+03 0.  0.
         25    1    3    3    0    0  0.89512526236E+02 -0.29167698665E+02  0.30525813028E+03  0.34306454378E+03  0.12509000000E+03 0.  0.
         25    1    4    4    0    0 -0.82983552973E+02 -0.14675648693E+01  0.67834359305E+03  0.69475604506E+03  0.12509000000E+03 0.  0.
<mgrwt>
<rscale>  2 0.46798053E+03</rscale>
<asrwt>0</asrwt>
<pdfrwt beam="1">  1       21 0.23615993E+00 0.46798053E+03</pdfrwt>
<pdfrwt beam="2">  1       21 0.50138522E-02 0.46798053E+03</pdfrwt>
<totfact> 0.18595266E+04</totfact>
</mgrwt>
</event>
<event>
 7    0  0.4691878E-002  0.4517039E+03  0.7546771E-02  0.1027215E+00
         21   -1    0    0  502  501  0.00000000000E+00  0.00000000000E+00  0.10820025202E+03  0.10820025202E+03  0.00000000000E+00 0. -1.
         21   -1    0    0  501  502 -0.00000000000E+00 -0.00000000000E+00 -0.47143241063E+03  0.47143241063E+03  0.00000000000E+00 0. -1.
      99926    2    1    2    0    0  0.00000000000E+00  0.00000000000E+00 -0.36323215862E+03  0.57963266265E+03  0.45170391027E+03 0.  0.
      99925    2    3    3    0    0 -0.99838298056E+02  0.32536019471E+02 -0.18656852346E+03  0.33904208426E+03  0.26289816019E+03 0.  0.
         25    1    4    4    0    0 -0.53454206599E+02  0.49438376751E+02 -0.12455623423E+03  0.19095357782E+03  0.12509000000E+03 0.  0.
         25    1    3    3    0    0  0.99838298056E+02 -0.32536019471E+02 -0.17666363516E+03  0.24059057839E+03  0.12509000000E+03 0.  0.
         25    1    4    4    0    0 -0.46384091458E+02 -0.16902357280E+02 -0.62012289228E+02  0.14808850643E+03  0.12509000000E+03 0.  0.
<mgrwt>
<rscale>  2 0.45170391E+03</rscale>
<asrwt>0</asrwt>
<pdfrwt beam="1">  1       21 0.15911802E-01 0.45170391E+03</pdfrwt>
<pdfrwt beam="2">  1       21 0.69328297E-01 0.45170391E+03</pdfrwt>
<totfact> 0.61537711E+04</totfact>
</mgrwt>
</event>
<event>
 7    0  0.4691878E-002  0.4511143E+03  0.7546771E-02  0.1027390E+00
         21   -1    0    0  502  501  0.00000000000E+00  0.00000000000E+00  0.71961098450E+03  0.71961098450E+03  0.00000000000E+00 0. -1.
         21   -1    0    0  501  502 -0.00000000000E+00 -0.00000000000E+00 -0.70699351296E+02  0.70699351296E+02  0.00000000000E+00 0. -1.
      99926    2    1    2    0    0  0.00000000000E+00  0.00000000000E+00  0.64891163320E+03  0.79031033579E+03  0.45111430831E+03 0.  0.
      99925    2    3    3    0    0 -0.58234367487E+02  0.92614760368E+02  0.42469543507E+03  0.51122406419E+03  0.26270724360E+03 0.  0.
         25    1    3    3    0    0  0.58234367487E+02 -0.92614760368E+02  0.22421619813E+03  0.27908627160E+03  0.12509000000E+03 0.  0.
         25    1    4    4    0    0  0.84369433338E+01  0.29122225866E+02  0.17677652631E+03  0.21867037844E+03  0.12509000000E+03 0.  0.
         25    1    4    4    0    0 -0.66671310821E+02  0.63492534503E+02  0.24791890877E+03  0.29255368575E+03  0.12509000000E+03 0.  0.
<mgrwt>
<rscale>  2 0.45111431E+03</rscale>
<asrwt>0</asrwt>
<pdfrwt beam="1">  1       21 0.10582514E+00 0.45111431E+03</pdfrwt>
<pdfrwt beam="2">  1       21 0.10396964E-01 0.45111431E+03</pdfrwt>
<totfact> 0.49736622E+04</totfact>
</mgrwt>
</event>
<event>
 7    0  0.4691878E-002  0.4523501E+03  0.7546771E-02  0.1027024E+00
         21   -1    0    0  502  501  0.00000000000E+00  0.00000000000E+00  0.16434577831E+04  0.16434577831E+04  0.00000000000E+00 0. -1.
         21   -1    0    0  501  502 -0.00000000000E+00 -0.00000000000E+00 -0.31126538624E+02  0.31126538624E+02  0.00000000000E+00 0. -1.
      99926    2    1    2    0    0  0.00000000000E+00  0.00000000000E+00  0.16123312444E+04  0.16745843217E+04  0.45235009522E+03 0.  0.
      99925    2    3    3    0    0  0.85588550643E+02 -0.11690949320E+02  0.12730949759E+04  0.13028440464E+04  0.26300135593E+03 0.  0.
         25    1    4    4    0    0  0.15767622339E+02 -0.34817885492E+02  0.65656469743E+03  0.66946666316E+03  0.12509000000E+03 0.  0.
         25    1    3    3    0    0 -0.85588550643E+02  0.11690949320E+02  0.33923626855E+03  0.37174027533E+03  0.12509000000E+03 0.  0.
         25    1    4    4    0    0  0.69820928303E+02  0.23126936172E+02  0.61653027845E+03  0.63337738320E+03  0.12509000000E+03 0.  0.
<mgrwt>
<rscale>  2 0.45235010E+03</rscale>
<asrwt>0</asrwt>
<pdfrwt beam="1">  1       21 0.24168491E+00 0.45235010E+03</pdfrwt>
<pdfrwt beam="2">  1       21 0.45774333E-02 0.45235010E+03</pdfrwt>
<totfact> 0.20208300E+04</totfact>
</mgrwt>
</event>
<event>
 7    0  0.4691878E-002  0.4624945E+03  0.7546771E-02  0.1024060E+00
         21   -1    0    0  502  501  0.00000000000E+00  0.00000000000E+00  0.11967668020E+04  0.11967668020E+04  0.00000000000E+00 0. -1.
         21   -1    0    0  501  502 -0.00000000000E+00 -0.00000000000E+00 -0.44683137111E+02  0.44683137111E+02  0.00000000000E+00 0. -1.
      99926    2    1    2    0    0  0.00000000000E+00 -0.17763568394E-14  0.11520836649E+04  0.12414499391E+04  0.46249451934E+03 0.  0.
      99925    2    3    3    0    0 -0.37896897831E+02 -0.12143701958E+02  0.41679834324E+03  0.49453919699E+03  0.26318152304E+03 0.  0.
         25    1    4    4    0    0 -0.31761290248E+02 -0.41752711730E+02  0.24278216076E+03  0.27810565291E+03  0.12509000000E+03 0.  0.
         25    1    4    4    0    0 -0.61356075824E+01  0.29609009772E+02  0.17401618248E+03  0.21643354408E+03  0.12509000000E+03 0.  0.
         25    1    3    3    0    0  0.37896897831E+02  0.12143701958E+02  0.73528532168E+03  0.74691074215E+03  0.12509000000E+03 0.  0.
<mgrwt>
<rscale>  2 0.46249452E+03</rscale>
<asrwt>0</asrwt>
<pdfrwt beam="1">  1       21 0.17599510E+00 0.46249452E+03</pdfrwt>
<pdfrwt beam="2">  1       21 0.65710503E-02 0.46249452E+03</pdfrwt>
<totfact> 0.29126773E+04</totfact>
</mgrwt>
</event>
<event>
 7    0  0.4691878E-002  0.4559807E+03  0.7546771E-02  0.1025953E+00
         21   -1    0    0  502  501  0.00000000000E+00  0.00000000000E+00  0.18294152358E+03  0.18294152358E+03  0.00000000000E+00 0. -1.
         21   -1    0    0  501  502 -0.00000000000E+00 -0.00000000000E+00 -0.28413229154E+03  0.28413229154E+03  0.00000000000E+00 0. -1.
      99926    2    1    2    0    0 -0.71054273576E-14 -0.88817841970E-15 -0.10119076796E+03  0.46707381512E+03  0.45598067640E+03 0.  0.
      99925    2    3    3    0    0 -0.35873451549E+02 -0.74997895307E+01 -0.17431100526E+03  0.31761737139E+03  0.26297018213E+03 0.  0.
         25    1    3    3    0    0  0.35873451549E+02  0.74997895307E+01  0.73120237294E+02  0.14945644373E+03  0.12509000000E+03 0.  0.
         25    1    4    4    0    0 -0.45938554130E+01 -0.13082084734E+02 -0.13055248620E+03  0.18133864508E+03  0.12509000000E+03 0.  0.
         25    1    4    4    0    0 -0.31279596136E+02  0.55822952038E+01 -0.43758519059E+02  0.13627872631E+03  0.12509000000E+03 0.  0.
<mgrwt>
<rscale>  2 0.45598068E+03</rscale>
<asrwt>0</asrwt>
<pdfrwt beam="1">  1       21 0.26903165E-01 0.45598068E+03</pdfrwt>
<pdfrwt beam="2">  1       21 0.41784161E-01 0.45598068E+03</pdfrwt>
<totfact> 0.67130660E+04</totfact>
</mgrwt>
</event>
<event>
 7    0  0.4691878E-002  0.4522550E+03  0.7546771E-02  0.1027052E+00
         21   -1    0    0  502  501  0.00000000000E+00  0.00000000000E+00  0.76821657171E+03  0.76821657171E+03  0.00000000000E+00 0.  1.
         21   -1    0    0  501  502 -0.00000000000E+00 -0.00000000000E+00 -0.66561492649E+02  0.66561492649E+02  0.00000000000E+00 0.  1.
      99926    2    1    2    0    0  0.00000000000E+00  0.71054273576E-14  0.70165507906E+03  0.83477806436E+03  0.45225497981E+03 0.  0.
      99925    2    3    3    0    0  0.98352103399E+02  0.22145237669E+02  0.52588603154E+03  0.59664823851E+03  0.26319090894E+03 0.  0.
         25    1    4    4    0    0  0.81767130735E+02  0.35058179455E+02  0.31822281690E+03  0.35331035778E+03  0.12509000000E+03 0.  0.
         25    1    3    3    0    0 -0.98352103399E+02 -0.22145237669E+02  0.17576904752E+03  0.23812982586E+03  0.12509000000E+03 0.  0.
         25    1    4    4    0    0  0.16584972664E+02 -0.12912941786E+02  0.20766321464E+03  0.24333788073E+03  0.12509000000E+03 0.  0.
<mgrwt>
<rscale>  2 0.45225498E+03</rscale>
<asrwt>0</asrwt>
<pdfrwt beam="1">  1       21 0.11297302E+00 0.45225498E+03</pdfrwt>
<pdfrwt beam="2">  1       21 0.97884552E-02 0.45225498E+03</pdfrwt>
<totfact> 0.47135139E+04</totfact>
</mgrwt>
</event>
<event>
 7    0  0.4691878E-002  0.4549550E+03  0.7546771E-02  0.1026255E+00
         21   -1    0    0  502  501  0.00000000000E+00  0.00000000000E+00  0.22036258297E+03  0.22036258297E+03  0.00000000000E+00 0. -1.
         21   -1    0    0  501  502 -0.00000000000E+00 -0.00000000000E+00 -0.23482209445E+03  0.23482209445E+03  0.00000000000E+00 0. -1.
      99926    2    1    2    0    0  0.00000000000E+00  0.00000000000E+00 -0.14459511486E+02  0.45518467742E+03  0.45495495721E+03 0.  0.
      99925    2    3    3    0    0 -0.21964245075E+02  0.92242734687E+02  0.52658741377E+02  0.28446995008E+03  0.26298110063E+03 0.  0.
         25    1    3    3    0    0  0.21964245075E+02 -0.92242734687E+02 -0.67118252863E+02  0.17071472734E+03  0.12509000000E+03 0.  0.
         25    1    4    4    0    0  0.23545504972E+02  0.22839385011E+02  0.20287540136E+02  0.13090118677E+03  0.12509000000E+03 0.  0.
         25    1    4    4    0    0 -0.45509750048E+02  0.69403349676E+02  0.32371201241E+02  0.15356876331E+03  0.12509000000E+03 0.  0.
<mgrwt>
<rscale>  2 0.45495496E+03</rscale>
<asrwt>0</asrwt>
<pdfrwt beam="1">  1       21 0.32406262E-01 0.45495496E+03</pdfrwt>
<pdfrwt beam="2">  1       21 0.34532661E-01 0.45495496E+03</pdfrwt>
<totfact> 0.68556912E+04</totfact>
</mgrwt>
</event>
<event>
 7    0  0.4691878E-002  0.4560170E+03  0.7546771E-02  0.1025943E+00
         21   -1    0    0  502  501  0.00000000000E+00  0.00000000000E+00  0.95620146167E+03  0.95620146167E+03  0.00000000000E+00 0. -1.
         21   -1    0    0  501  502 -0.00000000000E+00 -0.00000000000E+00 -0.54369159464E+02  0.54369159464E+02  0.00000000000E+00 0. -1.
      99926    2    1    2    0    0 -0.71054273576E-14  0.00000000000E+00  0.90183230220E+03  0.10105706211E+04  0.45601697227E+03 0.  0.
      99925    2    3    3    0    0 -0.53220833561E+02  0.10089240170E+03  0.57417106765E+03  0.64176020022E+03  0.26300571441E+03 0.  0.
         25    1    4    4    0    0  0.11140311817E+02  0.64670060825E+02  0.27255890657E+03  0.30698890691E+03  0.12509000000E+03 0.  0.
         25    1    4    4    0    0 -0.64361145378E+02  0.36222340871E+02  0.30161216108E+03  0.33477129331E+03  0.12509000000E+03 0.  0.
         25    1    3    3    0    0  0.53220833561E+02 -0.10089240170E+03  0.32766123455E+03  0.36881042091E+03  0.12509000000E+03 0.  0.
<mgrwt>
<rscale>  2 0.45601697E+03</rscale>
<asrwt>0</asrwt>
<pdfrwt beam="1">  1       21 0.14061785E+00 0.45601697E+03</pdfrwt>
<pdfrwt beam="2">  1       21 0.79954652E-02 0.45601697E+03</pdfrwt>
<totfact> 0.38451870E+04</totfact>
</mgrwt>
</event>
<event>
 7    0  0.4691878E-002  0.4610802E+03  0.7546771E-02  0.1024468E+00
         21   -1    0    0  502  501  0.00000000000E+00  0.00000000000E+00  0.39128258294E+03  0.39128258294E+03  0.00000000000E+00 0.  1.
         21   -1    0    0  501  502 -0.00000000000E+00 -0.00000000000E+00 -0.13583210969E+03  0.13583210969E+03  0.00000000000E+00 0.  1.
      99926    2    1    2    0    0  0.00000000000E+00  0.00000000000E+00  0.25545047325E+03  0.52711469263E+03  0.46108020442E+03 0.  0.
      99925    2    3    3    0    0 -0.10864074413E+03  0.42920312177E+02  0.18499812006E+03  0.34203090984E+03  0.26289898131E+03 0.  0.
         25    1    4    4    0    0 -0.80649693228E+02  0.24114371525E+02  0.13745384623E+03  0.20402682146E+03  0.12509000000E+03 0.  0.
         25    1    4    4    0    0 -0.27991050906E+02  0.18805940651E+02  0.47544273825E+02  0.13800408837E+03  0.12509000000E+03 0.  0.
         25    1    3    3    0    0  0.10864074413E+03 -0.42920312177E+02  0.70452353194E+02  0.18508378280E+03  0.12509000000E+03 0.  0.
<mgrwt>
<rscale>  2 0.46108020E+03</rscale>
<asrwt>0</asrwt>
<pdfrwt beam="1">  1       21 0.57541556E-01 0.46108020E+03</pdfrwt>
<pdfrwt beam="2">  1       21 0.19975310E-01 0.46108020E+03</pdfrwt>
<totfact> 0.60436175E+04</totfact>
</mgrwt>
</event>
<event>
 7    0  0.4691878E-002  0.4522736E+03  0.7546771E-02  0.1027046E+00
         21   -1    0    0  502  501  0.00000000000E+00  0.00000000000E+00  0.37582294740E+03  0.37582294740E+03  0.00000000000E+00 0. -1.
         21   -1    0    0  501  502 -0.00000000000E+00 -0.00000000000E+00 -0.13606899510E+03  0.13606899510E+03  0.00000000000E+00 0. -1.
      99926    2    1    2    0    0  0.00000000000E+00  0.14210854715E-13  0.23975395231E+03  0.51189194250E+03  0.45227359325E+03 0.  0.
      99925    2    3    3    0    0  0.37631524107E+02  0.84073405006E+02  0.22052691118E+03  0.35536189348E+03  0.26299332263E+03 0.  0.
         25    1    4    4    0    0  0.33751261034E+02  0.31115913185E+01  0.10319853221E+03  0.16566917267E+03  0.12509000000E+03 0.  0.
         25    1    4    4    0    0  0.38802630731E+01  0.80961813688E+02  0.11732837897E+03  0.18969272081E+03  0.12509000000E+03 0.  0.
         25    1    3    3    0    0 -0.37631524107E+02 -0.84073405006E+02  0.19227041130E+02  0.15653004902E+03  0.12509000000E+03 0.  0.
<mgrwt>
<rscale>  2 0.45227359E+03</rscale>
<asrwt>0</asrwt>
<pdfrwt beam="1">  1       21 0.55268080E-01 0.45227359E+03</pdfrwt>
<pdfrwt beam="2">  1       21 0.20010146E-01 0.45227359E+03</pdfrwt>
<totfact> 0.65856365E+04</totfact>
</mgrwt>
</event>
<event>
 7    0  0.4691878E-002  0.4506609E+03  0.7546771E-02  0.1027525E+00
         21   -1    0    0  502  501  0.00000000000E+00  0.00000000000E+00  0.91539050900E+02  0.91539050900E+02  0.00000000000E+00 0.  1.
         21   -1    0    0  501  502 -0.00000000000E+00 -0.00000000000E+00 -0.55466832801E+03  0.55466832801E+03  0.00000000000E+00 0.  1.
      99926    2    1    2    0    0  0.00000000000E+00  0.14210854715E-13 -0.46312927711E+03  0.64620737891E+03  0.45066090272E+03 0.  0.
      99925    2    3    3    0    0  0.36650481174E+02 -0.96135682235E+02 -0.34475599278E+03  0.44559564019E+03  0.26289437581E+03 0.  0.
         25    1    3    3    0    0 -0.36650481174E+02  0.96135682235E+02 -0.11837328433E+03  0.20061173872E+03  0.12509000000E+03 0.  0.
         25    1    4    4    0    0  0.45052554372E+02 -0.81081964558E+02 -0.20069751685E+03  0.25402956324E+03  0.12509000000E+03 0.  0.
         25    1    4    4    0    0 -0.84020731987E+01 -0.15053717677E+02 -0.14405847593E+03  0.19156607695E+03  0.12509000000E+03 0.  0.
<mgrwt>
<rscale>  2 0.45066090E+03</rscale>
<asrwt>0</asrwt>
<pdfrwt beam="1">  1       21 0.13461625E-01 0.45066090E+03</pdfrwt>
<pdfrwt beam="2">  1       21 0.81568870E-01 0.45066090E+03</pdfrwt>
<totfact> 0.57876554E+04</totfact>
</mgrwt>
</event>
<event>
 7    0  0.4691878E-002  0.4368923E+03  0.7546771E-02  0.1031705E+00
         21   -1    0    0  502  501  0.00000000000E+00  0.00000000000E+00  0.51032024376E+02  0.51032024376E+02  0.00000000000E+00 0.  1.
         21   -1    0    0  501  502 -0.00000000000E+00 -0.00000000000E+00 -0.93507404325E+03  0.93507404325E+03  0.00000000000E+00 0.  1.
      99926    2    1    2    0    0  0.71054273576E-14  0.00000000000E+00 -0.88404201887E+03  0.98610606762E+03  0.43689230420E+03 0.  0.
      99925    2    3    3    0    0 -0.63498515328E+02 -0.70743529012E+02 -0.56119448355E+03  0.62705906860E+03  0.26311046881E+03 0.  0.
         25    1    4    4    0    0 -0.72192020151E+02 -0.46598644295E+02 -0.29017033109E+03  0.32745908228E+03  0.12509000000E+03 0.  0.
         25    1    3    3    0    0  0.63498515328E+02  0.70743529012E+02 -0.32284753532E+03  0.35904699903E+03  0.12509000000E+03 0.  0.
         25    1    4    4    0    0  0.86935048235E+01 -0.24144884717E+02 -0.27102415246E+03  0.29959998632E+03  0.12509000000E+03 0.  0.
<mgrwt>
<rscale>  2 0.43689230E+03</rscale>
<asrwt>0</asrwt>
<pdfrwt beam="1">  1       21 0.75047103E-02 0.43689230E+03</pdfrwt>
<pdfrwt beam="2">  1       21 0.13751087E+00 0.43689230E+03</pdfrwt>
<totfact> 0.45863102E+04</totfact>
</mgrwt>
</event>
<event>
 7    0  0.4691878E-002  0.4414463E+03  0.7546771E-02  0.1030304E+00
         21   -1    0    0  502  501  0.00000000000E+00  0.00000000000E+00  0.83189649134E+03  0.83189649134E+03  0.00000000000E+00 0.  1.
         21   -1    0    0  501  502 -0.00000000000E+00 -0.00000000000E+00 -0.58563436530E+02  0.58563436530E+02  0.00000000000E+00 0.  1.
      99926    2    1    2    0    0  0.00000000000E+00  0.35527136788E-14  0.77333305481E+03  0.89045992787E+03  0.44144633816E+03 0.  0.
      99925    2    3    3    0    0  0.54443698104E+02 -0.28224424232E+02  0.65209206329E+03  0.70577744221E+03  0.26293916508E+03 0.  0.
         25    1    4    4    0    0  0.58417289972E+02  0.70498136211E+01  0.29604674558E+03  0.32673148503E+03  0.12509000000E+03 0.  0.
         25    1    4    4    0    0 -0.39735918685E+01 -0.35274237853E+02  0.35604531771E+03  0.37904595718E+03  0.12509000000E+03 0.  0.
         25    1    3    3    0    0 -0.54443698104E+02  0.28224424232E+02  0.12124099152E+03  0.18468248566E+03  0.12509000000E+03 0.  0.
<mgrwt>
<rscale>  2 0.44144634E+03</rscale>
<asrwt>0</asrwt>
<pdfrwt beam="1">  1       21 0.12233771E+00 0.44144634E+03</pdfrwt>
<pdfrwt beam="2">  1       21 0.86122706E-02 0.44144634E+03</pdfrwt>
<totfact> 0.48603999E+04</totfact>
</mgrwt>
</event>
<event>
 7    0  0.4691878E-002  0.4579082E+03  0.7546771E-02  0.1025390E+00
         21   -1    0    0  502  501  0.00000000000E+00  0.00000000000E+00  0.32124956348E+02  0.32124956348E+02  0.00000000000E+00 0. -1.
         21   -1    0    0  501  502 -0.00000000000E+00 -0.00000000000E+00 -0.16317526276E+04  0.16317526276E+04  0.00000000000E+00 0. -1.
      99926    2    1    2    0    0 -0.35527136788E-14  0.00000000000E+00 -0.15996276713E+04  0.16638775840E+04  0.45790820885E+03 0.  0.
      99925    2    3    3    0    0 -0.26884686600E+02 -0.74635141805E+02 -0.13112362269E+04  0.13396703600E+04  0.26283652724E+03 0.  0.
         25    1    4    4    0    0  0.93808109355E+01 -0.51673580517E+02 -0.80989203992E+03  0.82117646275E+03  0.12509000000E+03 0.  0.
         25    1    3    3    0    0  0.26884686600E+02  0.74635141805E+02 -0.28839144439E+03  0.32420722395E+03  0.12509000000E+03 0.  0.
         25    1    4    4    0    0 -0.36265497536E+02 -0.22961561289E+02 -0.50134418697E+03  0.51849389728E+03  0.12509000000E+03 0.  0.
<mgrwt>
<rscale>  2 0.45790821E+03</rscale>
<asrwt>0</asrwt>
<pdfrwt beam="1">  1       21 0.47242578E-02 0.45790821E+03</pdfrwt>
<pdfrwt beam="2">  1       21 0.23996365E+00 0.45790821E+03</pdfrwt>
<totfact> 0.19578243E+04</totfact>
</mgrwt>
</event>
<event>
 7    0  0.4691878E-002  0.4535966E+03  0.7546771E-02  0.1026655E+00
         21   -1    0    0  502  501  0.00000000000E+00  0.00000000000E+00  0.34513060537E+02  0.34513060537E+02  0.00000000000E+00 0.  1.
         21   -1    0    0  501  502 -0.00000000000E+00 -0.00000000000E+00 -0.14903768423E+04  0.14903768423E+04  0.00000000000E+00 0.  1.
      99926    2    1    2    0    0  0.00000000000E+00  0.17763568394E-14 -0.14558637818E+04  0.15248899028E+04  0.45359658809E+03 0.  0.
      99925    2    3    3    0    0  0.10264341815E+03  0.13456452510E+02 -0.77492431331E+03  0.82485932122E+03  0.26299897536E+03 0.  0.
         25    1    4    4    0    0  0.80468156310E+02  0.34475148045E+02 -0.45781337594E+03  0.48260154921E+03  0.12509000000E+03 0.  0.
         25    1    4    4    0    0  0.22175261840E+02 -0.21018695535E+02 -0.31711093737E+03  0.34225777201E+03  0.12509000000E+03 0.  0.
         25    1    3    3    0    0 -0.10264341815E+03 -0.13456452510E+02 -0.68093946845E+03  0.70003058161E+03  0.12509000000E+03 0.  0.
<mgrwt>
<rscale>  2 0.45359659E+03</rscale>
<asrwt>0</asrwt>
<pdfrwt beam="1">  1       21 0.50754497E-02 0.45359659E+03</pdfrwt>
<pdfrwt beam="2">  1       21 0.21917308E+00 0.45359659E+03</pdfrwt>
<totfact> 0.23429995E+04</totfact>
</mgrwt>
</event>
<event>
 7    0  0.4691878E-002  0.4434846E+03  0.7546771E-02  0.1029683E+00
         21   -1    0    0  502  501  0.00000000000E+00  0.00000000000E+00  0.24814457209E+03  0.24814457209E+03  0.00000000000E+00 0.  1.
         21   -1    0    0  501  502 -0.00000000000E+00 -0.00000000000E+00 -0.19814920189E+03  0.19814920189E+03  0.00000000000E+00 0.  1.
      99926    2    1    2    0    0 -0.88817841970E-15 -0.71054273576E-14  0.49995370200E+02  0.44629377398E+03  0.44348460588E+03 0.  0.
      99925    2    3    3    0    0  0.45293957148E+01  0.58490498853E+02  0.11544129639E+03  0.29341365350E+03  0.26329304067E+03 0.  0.
         25    1    4    4    0    0  0.96844586954E+01 -0.11926522698E+02  0.50408759948E+02  0.13573717937E+03  0.12509000000E+03 0.  0.
         25    1    4    4    0    0 -0.51550629806E+01  0.70417021551E+02  0.65032536441E+02  0.15767647413E+03  0.12509000000E+03 0.  0.
         25    1    3    3    0    0 -0.45293957148E+01 -0.58490498853E+02 -0.65445926189E+02  0.15288012047E+03  0.12509000000E+03 0.  0.
<mgrwt>
<rscale>  2 0.44348461E+03</rscale>
<asrwt>0</asrwt>
<pdfrwt beam="1">  1       21 0.36491849E-01 0.44348461E+03</pdfrwt>
<pdfrwt beam="2">  1       21 0.29139588E-01 0.44348461E+03</pdfrwt>
<totfact> 0.75928039E+04</totfact>
</mgrwt>
</event>
<event>
 7    0  0.4691878E-002  0.4578413E+03  0.7546771E-02  0.1025409E+00
         21   -1    0    0  502  501  0.00000000000E+00  0.00000000000E+00  0.36723904388E+03  0.36723904388E+03  0.00000000000E+00 0. -1.
         21   -1    0    0  501  502 -0.00000000000E+00 -0.00000000000E+00 -0.14269907382E+03  0.14269907382E+03  0.00000000000E+00 0. -1.
      99926    2    1    2    0    0 -0.35527136788E-14 -0.71054273576E-14  0.22453997005E+03  0.50993811770E+03  0.45784133249E+03 0.  0.
      99925    2    3    3    0    0 -0.29556166775E+02  0.56848179487E+02  0.24836032806E+03  0.36738917852E+03  0.26303359754E+03 0.  0.
         25    1    4    4    0    0  0.53085693178E+01  0.41842421310E+02  0.16906124296E+03  0.21449517734E+03  0.12509000000E+03 0.  0.
         25    1    4    4    0    0 -0.34864736093E+02  0.15005758176E+02  0.79299085100E+02  0.15289400119E+03  0.12509000000E+03 0.  0.
         25    1    3    3    0    0  0.29556166775E+02 -0.56848179487E+02 -0.23820358007E+02  0.14254893918E+03  0.12509000000E+03 0.  0.
<mgrwt>
<rscale>  2 0.45784133E+03</rscale>
<asrwt>0</asrwt>
<pdfrwt beam="1">  1       21 0.54005742E-01 0.45784133E+03</pdfrwt>
<pdfrwt beam="2">  1       21 0.20985158E-01 0.45784133E+03</pdfrwt>
<totfact> 0.63142013E+04</totfact>
</mgrwt>
</event>
<event>
 7    0  0.4691878E-002  0.4321605E+03  0.7546771E-02  0.1033180E+00
         21   -1    0    0  502  501  0.00000000000E+00  0.00000000000E+00  0.87459137791E+03  0.87459137791E+03  0.00000000000E+00 0. -1.
         21   -1    0    0  501  502 -0.00000000000E+00 -0.00000000000E+00 -0.53385690268E+02  0.53385690268E+02  0.00000000000E+00 0. -1.
      99926    2    1    2    0    0  0.35527136788E-14  0.00000000000E+00  0.82120568764E+03  0.92797706818E+03  0.43216045359E+03 0.  0.
      99925    2    3    3    0    0  0.30464901768E+02 -0.83306648130E+02  0.49488113483E+03  0.56741732315E+03  0.26303416725E+03 0.  0.
         25    1    3    3    0    0 -0.30464901768E+02  0.83306648130E+02  0.32632455281E+03  0.36055974502E+03  0.12509000000E+03 0.  0.
         25    1    4    4    0    0  0.29907631698E+02 -0.16280826754E+02  0.29549027555E+03  0.32267869902E+03  0.12509000000E+03 0.  0.
         25    1    4    4    0    0  0.55727007000E+00 -0.67025821376E+02  0.19939085927E+03  0.24473862413E+03  0.12509000000E+03 0.  0.
<mgrwt>
<rscale>  2 0.43216045E+03</rscale>
<asrwt>0</asrwt>
<pdfrwt beam="1">  1       21 0.12861637E+00 0.43216045E+03</pdfrwt>
<pdfrwt beam="2">  1       21 0.78508374E-02 0.43216045E+03</pdfrwt>
<totfact> 0.50477637E+04</totfact>
</mgrwt>
</event>
<event>
 7    0  0.4691878E-002  0.4314978E+03  0.7546771E-02  0.1033388E+00
         21   -1    0    0  502  501  0.00000000000E+00  0.00000000000E+00  0.11040444016E+03  0.11040444016E+03  0.00000000000E+00 0.  1.
         21   -1    0    0  501  502 -0.00000000000E+00 -0.00000000000E+00 -0.42160982349E+03  0.42160982349E+03  0.00000000000E+00 0.  1.
      99926    2    1    2    0    0  0.00000000000E+00  0.00000000000E+00 -0.31120538333E+03  0.53201426365E+03  0.43149784021E+03 0.  0.
      99925    2    3    3    0    0 -0.81964261017E+02 -0.34466074964E+02 -0.21089032399E+03  0.34866577132E+03  0.26303429611E+03 0.  0.
         25    1    3    3    0    0  0.81964261017E+02  0.34466074964E+02 -0.10031505934E+03  0.18334849233E+03  0.12509000000E+03 0.  0.
         25    1    4    4    0    0 -0.63993051732E+02  0.14211079026E+02 -0.12246447659E+03  0.18692811871E+03  0.12509000000E+03 0.  0.
         25    1    4    4    0    0 -0.17971209285E+02 -0.48677153990E+02 -0.88425847402E+02  0.16173765261E+03  0.12509000000E+03 0.  0.
<mgrwt>
<rscale>  2 0.43149784E+03</rscale>
<asrwt>0</asrwt>
<pdfrwt beam="1">  1       21 0.16235947E-01 0.43149784E+03</pdfrwt>
<pdfrwt beam="2">  1       21 0.62001444E-01 0.43149784E+03</pdfrwt>
<totfact> 0.76305845E+04</totfact>
</mgrwt>
</event>
<event>
 7    0  0.4691878E-002  0.4567376E+03  0.7546771E-02  0.1025732E+00
         21   -1    0    0  502  501  0.00000000000E+00  0.00000000000E+00  0.57950293081E+02  0.57950293081E+02  0.00000000000E+00 0. -1.
         21   -1    0    0  501  502 -0.00000000000E+00 -0.00000000000E+00 -0.89994901936E+03  0.89994901936E+03  0.00000000000E+00 0. -1.
      99926    2    1    2    0    0  0.00000000000E+00  0.00000000000E+00 -0.84199872628E+03  0.95789931244E+03  0.45673760270E+03 0.  0.
      99925    2    3    3    0    0  0.66137610314E+02  0.92615907679E+02 -0.56217671748E+03  0.63094403329E+03  0.26286084079E+03 0.  0.
         25    1    3    3    0    0 -0.66137610314E+02 -0.92615907679E+02 -0.27982200880E+03  0.32695527915E+03  0.12509000000E+03 0.  0.
         25    1    4    4    0    0  0.13737354960E+02  0.60358034309E+02 -0.35280147427E+03  0.37940505475E+03  0.12509000000E+03 0.  0.
         25    1    4    4    0    0  0.52400255353E+02  0.32257873370E+02 -0.20937524321E+03  0.25153897854E+03  0.12509000000E+03 0.  0.
<mgrwt>
<rscale>  2 0.45673760E+03</rscale>
<asrwt>0</asrwt>
<pdfrwt beam="1">  1       21 0.85221025E-02 0.45673760E+03</pdfrwt>
<pdfrwt beam="2">  1       21 0.13234544E+00 0.45673760E+03</pdfrwt>
<totfact> 0.40272654E+04</totfact>
</mgrwt>
</event>
<event>
 7    0  0.4691878E-002  0.4536839E+03  0.7546771E-02  0.1026629E+00
         21   -1    0    0  502  501  0.00000000000E+00  0.00000000000E+00  0.75209892423E+03  0.75209892423E+03  0.00000000000E+00 0. -1.
         21   -1    0    0  501  502 -0.00000000000E+00 -0.00000000000E+00 -0.68418231704E+02  0.68418231704E+02  0.00000000000E+00 0. -1.
      99926    2    1    2    0    0  0.00000000000E+00  0.00000000000E+00  0.68368069253E+03  0.82051715594E+03  0.45368393607E+03 0.  0.
      99925    2    3    3    0    0 -0.65947263246E+02  0.68715672707E+02  0.53759599678E+03  0.60590324297E+03  0.26275159160E+03 0.  0.
         25    1    4    4    0    0 -0.51170430391E+02  0.38980627517E+02  0.35708190494E+03  0.38378756781E+03  0.12509000000E+03 0.  0.
         25    1    3    3    0    0  0.65947263246E+02 -0.68715672707E+02  0.14608469575E+03  0.21461391296E+03  0.12509000000E+03 0.  0.
         25    1    4    4    0    0 -0.14776832855E+02  0.29735045190E+02  0.18051409184E+03  0.22211567516E+03  0.12509000000E+03 0.  0.
<mgrwt>
<rscale>  2 0.45368394E+03</rscale>
<asrwt>0</asrwt>
<pdfrwt beam="1">  1       21 0.11060278E+00 0.45368394E+03</pdfrwt>
<pdfrwt beam="2">  1       21 0.10061505E-01 0.45368394E+03</pdfrwt>
<totfact> 0.47274689E+04</totfact>
</mgrwt>
</event>
<event>
 7    0  0.4691878E-002  0.4767343E+03  0.7546771E-02  0.1020037E+00
         21   -1    0    0  502  501  0.00000000000E+00  0.00000000000E+00  0.43280578027E+03  0.43280578027E+03  0.00000000000E+00 0. -1.
         21   -1    0    0  501  502 -0.00000000000E+00 -0.00000000000E+00 -0.13128033896E+03  0.13128033896E+03  0.00000000000E+00 0. -1.
      99926    2    1    2    0    0  0.35527136788E-14  0.14210854715E-13  0.30152544131E+03  0.56408611923E+03  0.47673426366E+03 0.  0.
      99925    2    3    3    0    0 -0.10542150202E+02 -0.10124398749E+03  0.85702687955E+02  0.29466367974E+03  0.26290730591E+03 0.  0.
         25    1    4    4    0    0 -0.29350860930E+02 -0.23493669455E+02  0.60934836344E+02  0.14413184215E+03  0.12509000000E+03 0.  0.
         25    1    3    3    0    0  0.10542150202E+02  0.10124398749E+03  0.21582275335E+03  0.26942243949E+03  0.12509000000E+03 0.  0.
         25    1    4    4    0    0  0.18808710728E+02 -0.77750318036E+02  0.24767851611E+02  0.15053183759E+03  0.12509000000E+03 0.  0.
<mgrwt>
<rscale>  2 0.47673426E+03</rscale>
<asrwt>0</asrwt>
<pdfrwt beam="1">  1       21 0.63647909E-01 0.47673426E+03</pdfrwt>
<pdfrwt beam="2">  1       21 0.19305932E-01 0.47673426E+03</pdfrwt>
<totfact> 0.51501046E+04</totfact>
</mgrwt>
</event>
<event>
 7    0  0.4691878E-002  0.4076219E+03  0.7546771E-02  0.1041172E+00
         21   -1    0    0  502  501  0.00000000000E+00  0.00000000000E+00  0.28350827695E+02  0.28350827695E+02  0.00000000000E+00 0.  1.
         21   -1    0    0  501  502 -0.00000000000E+00 -0.00000000000E+00 -0.14651745761E+04  0.14651745761E+04  0.00000000000E+00 0.  1.
      99926    2    1    2    0    0 -0.17763568394E-14  0.17763568394E-14 -0.14368237484E+04  0.14935254038E+04  0.40762194225E+03 0.  0.
      99925    2    3    3    0    0  0.11332825022E+02  0.85526988430E+01 -0.74120575006E+03  0.78660709925E+03  0.26298894100E+03 0.  0.
         25    1    4    4    0    0  0.22374362416E+02  0.16663677641E+02 -0.47773341734E+03  0.49462613800E+03  0.12509000000E+03 0.  0.
         25    1    4    4    0    0 -0.11041537395E+02 -0.81109787978E+01 -0.26347233272E+03  0.29198096125E+03  0.12509000000E+03 0.  0.
         25    1    3    3    0    0 -0.11332825022E+02 -0.85526988430E+01 -0.69561799835E+03  0.70691830455E+03  0.12509000000E+03 0.  0.
<mgrwt>
<rscale>  2 0.40762194E+03</rscale>
<asrwt>0</asrwt>
<pdfrwt beam="1">  1       21 0.41692388E-02 0.40762194E+03</pdfrwt>
<pdfrwt beam="2">  1       21 0.21546688E+00 0.40762194E+03</pdfrwt>
<totfact> 0.35227966E+04</totfact>
</mgrwt>
</event>
<event>
 7    0  0.4691878E-002  0.4552180E+03  0.7546771E-02  0.1026177E+00
         21   -1    0    0  502  501  0.00000000000E+00  0.00000000000E+00  0.13766253449E+04  0.13766253449E+04  0.00000000000E+00 0. -1.
         21   -1    0    0  501  502 -0.00000000000E+00 -0.00000000000E+00 -0.37632505527E+02  0.37632505527E+02  0.00000000000E+00 0. -1.
      99926    2    1    2    0    0  0.00000000000E+00  0.14210854715E-13  0.13389928394E+04  0.14142578504E+04  0.45521801766E+03 0.  0.
      99925    2    3    3    0    0  0.78395778434E+02 -0.80712355530E+02  0.88457558046E+03  0.92969316361E+03  0.26304949821E+03 0.  0.
         25    1    4    4    0    0  0.69305282270E+02 -0.69243455484E+02  0.53649656312E+03  0.55953011413E+03  0.12509000000E+03 0.  0.
         25    1    3    3    0    0 -0.78395778434E+02  0.80712355530E+02  0.45441725890E+03  0.48456468681E+03  0.12509000000E+03 0.  0.
         25    1    4    4    0    0  0.90904961638E+01 -0.11468900046E+02  0.34807901734E+03  0.37016304948E+03  0.12509000000E+03 0.  0.
<mgrwt>
<rscale>  2 0.45521802E+03</rscale>
<asrwt>0</asrwt>
<pdfrwt beam="1">  1       21 0.20244487E+00 0.45521802E+03</pdfrwt>
<pdfrwt beam="2">  1       21 0.55341929E-02 0.45521802E+03</pdfrwt>
<totfact> 0.25910609E+04</totfact>
</mgrwt>
</event>
<event>
 7    0  0.4691878E-002  0.4529631E+03  0.7546771E-02  0.1026842E+00
         21   -1    0    0  502  501  0.00000000000E+00  0.00000000000E+00  0.32556687426E+03  0.32556687426E+03  0.00000000000E+00 0. -1.
         21   -1    0    0  501  502 -0.00000000000E+00 -0.00000000000E+00 -0.15755253367E+03  0.15755253367E+03  0.00000000000E+00 0. -1.
      99926    2    1    2    0    0  0.00000000000E+00  0.00000000000E+00  0.16801434059E+03  0.48311940794E+03  0.45296307099E+03 0.  0.
      99925    2    3    3    0    0  0.78374353081E+02  0.34169272340E+02  0.18177628539E+03  0.33097809988E+03  0.26304715599E+03 0.  0.
         25    1    3    3    0    0 -0.78374353081E+02 -0.34169272340E+02 -0.13761944806E+02  0.15214130806E+03  0.12509000000E+03 0.  0.
         25    1    4    4    0    0  0.52292405921E+02  0.50969664988E+02  0.11981394052E+03  0.18797683610E+03  0.12509000000E+03 0.  0.
         25    1    4    4    0    0  0.26081947160E+02 -0.16800392648E+02  0.61962344876E+02  0.14300126378E+03  0.12509000000E+03 0.  0.
<mgrwt>
<rscale>  2 0.45296307E+03</rscale>
<asrwt>0</asrwt>
<pdfrwt beam="1">  1       21 0.47877482E-01 0.45296307E+03</pdfrwt>
<pdfrwt beam="2">  1       21 0.23169490E-01 0.45296307E+03</pdfrwt>
<totfact> 0.67559551E+04</totfact>
</mgrwt>
</event>
<event>
 7    0  0.4691878E-002  0.4532426E+03  0.7546771E-02  0.1026759E+00
         21   -1    0    0  502  501  0.00000000000E+00  0.00000000000E+00  0.57184669708E+03  0.57184669708E+03  0.00000000000E+00 0.  1.
         21   -1    0    0  501  502 -0.00000000000E+00 -0.00000000000E+00 -0.89809400678E+02  0.89809400678E+02  0.00000000000E+00 0.  1.
      99926    2    1    2    0    0  0.00000000000E+00  0.00000000000E+00  0.48203729640E+03  0.66165609776E+03  0.45324258028E+03 0.  0.
      99925    2    3    3    0    0  0.89105402914E+02 -0.41255506758E+02  0.38027123885E+03  0.47285559925E+03  0.26333327359E+03 0.  0.
         25    1    4    4    0    0  0.57656733637E+02  0.70846657932E+01  0.14420945046E+03  0.19954539615E+03  0.12509000000E+03 0.  0.
         25    1    4    4    0    0  0.31448669277E+02 -0.48340172551E+02  0.23606178839E+03  0.27331020310E+03  0.12509000000E+03 0.  0.
         25    1    3    3    0    0 -0.89105402914E+02  0.41255506758E+02  0.10176605755E+03  0.18880049850E+03  0.12509000000E+03 0.  0.
<mgrwt>
<rscale>  2 0.45324258E+03</rscale>
<asrwt>0</asrwt>
<pdfrwt beam="1">  1       21 0.84095101E-01 0.45324258E+03</pdfrwt>
<pdfrwt beam="2">  1       21 0.13207265E-01 0.45324258E+03</pdfrwt>
<totfact> 0.55803601E+04</totfact>
</mgrwt>
</event>
<event>
 7    0  0.4691878E-002  0.4547863E+03  0.7546771E-02  0.1026304E+00
         21   -1    0    0  502  501  0.00000000000E+00  0.00000000000E+00  0.82209034597E+03  0.82209034597E+03  0.00000000000E+00 0. -1.
         21   -1    0    0  501  502 -0.00000000000E+00 -0.00000000000E+00 -0.62897757815E+02  0.62897757815E+02  0.00000000000E+00 0. -1.
      99926    2    1    2    0    0 -0.71054273576E-14  0.00000000000E+00  0.75919258815E+03  0.88498810378E+03  0.45478627720E+03 0.  0.
      99925    2    3    3    0    0  0.41609710261E+02 -0.66476661195E+02  0.63603235154E+03  0.69272144923E+03  0.26301205209E+03 0.  0.
         25    1    3    3    0    0 -0.41609710261E+02  0.66476661195E+02  0.12316023662E+03  0.19226665456E+03  0.12509000000E+03 0.  0.
         25    1    4    4    0    0  0.50984391911E+02 -0.60440977497E+02  0.31621911145E+03  0.34913400655E+03  0.12509000000E+03 0.  0.
         25    1    4    4    0    0 -0.93746816498E+01 -0.60356836972E+01  0.31981324008E+03  0.34358744268E+03  0.12509000000E+03 0.  0.
<mgrwt>
<rscale>  2 0.45478628E+03</rscale>
<asrwt>0</asrwt>
<pdfrwt beam="1">  1       21 0.12089563E+00 0.45478628E+03</pdfrwt>
<pdfrwt beam="2">  1       21 0.92496708E-02 0.45478628E+03</pdfrwt>
<totfact> 0.43962668E+04</totfact>
</mgrwt>
</event>
<event>
 7    0  0.4691878E-002  0.4552458E+03  0.7546771E-02  0.1026169E+00
         21   -1    0    0  502  501  0.00000000000E+00  0.00000000000E+00  0.40285684413E+03  0.40285684413E+03  0.00000000000E+00 0.  1.
         21   -1    0    0  501  502 -0.00000000000E+00 -0.00000000000E+00 -0.12861187633E+03  0.12861187633E+03  0.00000000000E+00 0.  1.
      99926    2    1    2    0    0 -0.35527136788E-14  0.71054273576E-14  0.27424496780E+03  0.53146872046E+03  0.45524575612E+03 0.  0.
      99925    2    3    3    0    0 -0.23651734666E+02  0.58871458722E+02  0.28224715556E+03  0.39098101170E+03  0.26301604795E+03 0.  0.
         25    1    3    3    0    0  0.23651734666E+02 -0.58871458722E+02 -0.80021877656E+01  0.14048770876E+03  0.12509000000E+03 0.  0.
         25    1    4    4    0    0 -0.27023494606E+02 -0.64962897055E+01  0.15302191020E+03  0.19958878762E+03  0.12509000000E+03 0.  0.
         25    1    4    4    0    0  0.33717599398E+01  0.65367748427E+02  0.12922524536E+03  0.19139222408E+03  0.12509000000E+03 0.  0.
<mgrwt>
<rscale>  2 0.45524576E+03</rscale>
<asrwt>0</asrwt>
<pdfrwt beam="1">  1       21 0.59243653E-01 0.45524576E+03</pdfrwt>
<pdfrwt beam="2">  1       21 0.18913511E-01 0.45524576E+03</pdfrwt>
<totfact> 0.62984428E+04</totfact>
</mgrwt>
</event>
<event>
 7    0  0.4691878E-002  0.4612598E+03  0.7546771E-02  0.1024416E+00
         21   -1    0    0  502  501  0.00000000000E+00  0.00000000000E+00  0.33689607231E+02  0.33689607231E+02  0.00000000000E+00 0. -1.
         21   -1    0    0  501  502 -0.00000000000E+00 -0.00000000000E+00 -0.15788297630E+04  0.15788297630E+04  0.00000000000E+00 0. -1.
      99926    2    1    2    0    0  0.00000000000E+00  0.71054273576E-14 -0.15451401558E+04  0.16125193703E+04  0.46125981659E+03 0.  0.
      99925    2    3    3    0    0 -0.27373248881E+02 -0.58683405053E+02 -0.61790749548E+03  0.67464893611E+03  0.26296098047E+03 0.  0.
         25    1    3    3    0    0  0.27373248881E+02  0.58683405053E+02 -0.92723266032E+03  0.93787043414E+03  0.12509000000E+03 0.  0.
         25    1    4    4    0    0 -0.67438307253E+01 -0.74743816035E+01 -0.38075676584E+03  0.40090468751E+03  0.12509000000E+03 0.  0.
         25    1    4    4    0    0 -0.20629418155E+02 -0.51209023449E+02 -0.23715072963E+03  0.27374424860E+03  0.12509000000E+03 0.  0.
<mgrwt>
<rscale>  2 0.46125982E+03</rscale>
<asrwt>0</asrwt>
<pdfrwt beam="1">  1       21 0.49543534E-02 0.46125982E+03</pdfrwt>
<pdfrwt beam="2">  1       21 0.23218088E+00 0.46125982E+03</pdfrwt>
<totfact> 0.20150964E+04</totfact>
</mgrwt>
</event>
<event>
 7    0  0.4691878E-002  0.4504883E+03  0.7546771E-02  0.1027577E+00
         21   -1    0    0  502  501  0.00000000000E+00  0.00000000000E+00  0.49223558623E+02  0.49223558623E+02  0.00000000000E+00 0. -1.
         21   -1    0    0  501  502 -0.00000000000E+00 -0.00000000000E+00 -0.10307042898E+04  0.10307042898E+04  0.00000000000E+00 0. -1.
      99926    2    1    2    0    0  0.00000000000E+00  0.00000000000E+00 -0.98148073113E+03  0.10799278484E+04  0.45048832628E+03 0.  0.
      99925    2    3    3    0    0  0.99344901478E+02  0.26881407065E+02 -0.53576918980E+03  0.60569340670E+03  0.26310427341E+03 0.  0.
         25    1    3    3    0    0 -0.99344901478E+02 -0.26881407065E+02 -0.44571154133E+03  0.47423444167E+03  0.12509000000E+03 0.  0.
         25    1    4    4    0    0  0.33124701760E+02 -0.49891150871E+01 -0.32470447651E+03  0.34957494518E+03  0.12509000000E+03 0.  0.
         25    1    4    4    0    0  0.66220199718E+02  0.31870522153E+02 -0.21106471329E+03  0.25611846152E+03  0.12509000000E+03 0.  0.
<mgrwt>
<rscale>  2 0.45048833E+03</rscale>
<asrwt>0</asrwt>
<pdfrwt beam="1">  1       21 0.72387586E-02 0.45048833E+03</pdfrwt>
<pdfrwt beam="2">  1       21 0.15157416E+00 0.45048833E+03</pdfrwt>
<totfact> 0.37500904E+04</totfact>
</mgrwt>
</event>
<event>
 7    0  0.4691878E-002  0.4502413E+03  0.7546771E-02  0.1027650E+00
         21   -1    0    0  502  501  0.00000000000E+00  0.00000000000E+00  0.42974243275E+03  0.42974243275E+03  0.00000000000E+00 0.  1.
         21   -1    0    0  501  502 -0.00000000000E+00 -0.00000000000E+00 -0.11792948385E+03  0.11792948385E+03  0.00000000000E+00 0.  1.
      99926    2    1    2    0    0  0.00000000000E+00  0.14210854715E-13  0.31181294889E+03  0.54767191660E+03  0.45024128324E+03 0.  0.
      99925    2    3    3    0    0 -0.11948364744E+02  0.70459548280E+02  0.95691309883E+02  0.28793477579E+03  0.26199674990E+03 0.  0.
         25    1    3    3    0    0  0.11948364744E+02 -0.70459548280E+02  0.21612163901E+03  0.25973714080E+03  0.12509000000E+03 0.  0.
         25    1    4    4    0    0  0.14978321142E+02  0.66326658585E+02  0.63695850326E+02  0.15597514287E+03  0.12509000000E+03 0.  0.
         25    1    4    4    0    0 -0.26926685886E+02  0.41328896941E+01  0.31995459557E+02  0.13195963293E+03  0.12509000000E+03 0.  0.
<mgrwt>
<rscale>  2 0.45024128E+03</rscale>
<asrwt>0</asrwt>
<pdfrwt beam="1">  1       21 0.63197416E-01 0.45024128E+03</pdfrwt>
<pdfrwt beam="2">  1       21 0.17342571E-01 0.45024128E+03</pdfrwt>
<totfact> 0.64411833E+04</totfact>
</mgrwt>
</event>
<event>
 7    0  0.4691878E-002  0.4505284E+03  0.7546771E-02  0.1027565E+00
         21   -1    0    0  502  501  0.00000000000E+00  0.00000000000E+00  0.13613796363E+03  0.13613796363E+03  0.00000000000E+00 0.  1.
         21   -1    0    0  501  502 -0.00000000000E+00 -0.00000000000E+00 -0.37273920966E+03  0.37273920966E+03  0.00000000000E+00 0.  1.
      99926    2    1    2    0    0  0.00000000000E+00  0.00000000000E+00 -0.23660124603E+03  0.50887717328E+03  0.45052838742E+03 0.  0.
      99925    2    3    3    0    0  0.41803367331E+02 -0.84568983059E+02 -0.86100185623E+02  0.29162729020E+03  0.26217131805E+03 0.  0.
         25    1    4    4    0    0  0.17258650809E+02 -0.12110667315E+01 -0.36691500566E+02  0.13150323960E+03  0.12509000000E+03 0.  0.
         25    1    3    3    0    0 -0.41803367331E+02  0.84568983059E+02 -0.15050106040E+03  0.21724988308E+03  0.12509000000E+03 0.  0.
         25    1    4    4    0    0  0.24544716522E+02 -0.83357916328E+02 -0.49408685057E+02  0.16012405061E+03  0.12509000000E+03 0.  0.
<mgrwt>
<rscale>  2 0.45052839E+03</rscale>
<asrwt>0</asrwt>
<pdfrwt beam="1">  1       21 0.20020289E-01 0.45052839E+03</pdfrwt>
<pdfrwt beam="2">  1       21 0.54814589E-01 0.45052839E+03</pdfrwt>
<totfact> 0.66997531E+04</totfact>
</mgrwt>
</event>
<event>
 7    0  0.4691878E-002  0.4681193E+03  0.7546771E-02  0.1022452E+00
         21   -1    0    0  502  501  0.00000000000E+00  0.00000000000E+00  0.23159162848E+03  0.23159162848E+03  0.00000000000E+00 0. -1.
         21   -1    0    0  501  502 -0.00000000000E+00 -0.00000000000E+00 -0.23655400642E+03  0.23655400642E+03  0.00000000000E+00 0. -1.
      99926    2    1    2    0    0  0.00000000000E+00  0.00000000000E+00 -0.49623779422E+01  0.46814563489E+03  0.46811933337E+03 0.  0.
      99925    2    3    3    0    0 -0.27112561256E+02 -0.11271270303E+03 -0.49713554701E+02  0.29182371248E+03  0.26315470211E+03 0.  0.
         25    1    3    3    0    0  0.27112561256E+02  0.11271270303E+03  0.44751176759E+02  0.17632192241E+03  0.12509000000E+03 0.  0.
         25    1    4    4    0    0 -0.25428949564E+02 -0.27678564486E+02 -0.51885288967E+02  0.14054296752E+03  0.12509000000E+03 0.  0.
         25    1    4    4    0    0 -0.16836116920E+01 -0.85034138544E+02  0.21717342660E+01  0.15128074496E+03  0.12509000000E+03 0.  0.
<mgrwt>
<rscale>  2 0.46811933E+03</rscale>
<asrwt>0</asrwt>
<pdfrwt beam="1">  1       21 0.34057592E-01 0.46811933E+03</pdfrwt>
<pdfrwt beam="2">  1       21 0.34787354E-01 0.46811933E+03</pdfrwt>
<totfact> 0.60957998E+04</totfact>
</mgrwt>
</event>
<event>
 7    0  0.4691878E-002  0.4639267E+03  0.7546771E-02  0.1023648E+00
         21   -1    0    0  502  501  0.00000000000E+00  0.00000000000E+00  0.78527857398E+02  0.78527857398E+02  0.00000000000E+00 0. -1.
         21   -1    0    0  501  502 -0.00000000000E+00 -0.00000000000E+00 -0.68519639774E+03  0.68519639774E+03  0.00000000000E+00 0. -1.
      99926    2    1    2    0    0  0.00000000000E+00  0.00000000000E+00 -0.60666854034E+03  0.76372425514E+03  0.46392673995E+03 0.  0.
      99925    2    3    3    0    0 -0.58002605411E+01  0.52743060366E+02 -0.19899733270E+03  0.33400481750E+03  0.26295209878E+03 0.  0.
         25    1    3    3    0    0  0.58002605411E+01 -0.52743060366E+02 -0.40767120764E+03  0.42971943763E+03  0.12509000000E+03 0.  0.
         25    1    4    4    0    0 -0.10124041868E+02  0.67000276576E+02 -0.10382573419E+03  0.17612161839E+03  0.12509000000E+03 0.  0.
         25    1    4    4    0    0  0.43237813270E+01 -0.14257216210E+02 -0.95171598510E+02  0.15788319911E+03  0.12509000000E+03 0.  0.
<mgrwt>
<rscale>  2 0.46392674E+03</rscale>
<asrwt>0</asrwt>
<pdfrwt beam="1">  1       21 0.11548215E-01 0.46392674E+03</pdfrwt>
<pdfrwt beam="2">  1       21 0.10076417E+00 0.46392674E+03</pdfrwt>
<totfact> 0.46242300E+04</totfact>
</mgrwt>
</event>
<event>
 7    0  0.4691878E-002  0.4538682E+03  0.7546771E-02  0.1026575E+00
         21   -1    0    0  502  501  0.00000000000E+00  0.00000000000E+00  0.31406307393E+03  0.31406307393E+03  0.00000000000E+00 0. -1.
         21   -1    0    0  501  502 -0.00000000000E+00 -0.00000000000E+00 -0.16397690050E+03  0.16397690050E+03  0.00000000000E+00 0. -1.
      99926    2    1    2    0    0  0.00000000000E+00 -0.71054273576E-14  0.15008617343E+03  0.47803997442E+03  0.45386821622E+03 0.  0.
      99925    2    3    3    0    0 -0.51909461166E+02 -0.55850438311E+02  0.79777374772E+01  0.27394151954E+03  0.26299514865E+03 0.  0.
         25    1    3    3    0    0  0.51909461166E+02  0.55850438311E+02  0.14210843595E+03  0.20409845489E+03  0.12509000000E+03 0.  0.
         25    1    4    4    0    0 -0.34111340018E+02 -0.16565435975E+02  0.42049915210E+02  0.13730877851E+03  0.12509000000E+03 0.  0.
         25    1    4    4    0    0 -0.17798121147E+02 -0.39285002335E+02 -0.34072177733E+02  0.13663274103E+03  0.12509000000E+03 0.  0.
<mgrwt>
<rscale>  2 0.45386822E+03</rscale>
<asrwt>0</asrwt>
<pdfrwt beam="1">  1       21 0.46185746E-01 0.45386822E+03</pdfrwt>
<pdfrwt beam="2">  1       21 0.24114250E-01 0.45386822E+03</pdfrwt>
<totfact> 0.67446896E+04</totfact>
</mgrwt>
</event>
<event>
 7    0  0.4691878E-002  0.4504885E+03  0.7546771E-02  0.1027576E+00
         21   -1    0    0  502  501  0.00000000000E+00  0.00000000000E+00  0.24803140418E+03  0.24803140418E+03  0.00000000000E+00 0.  1.
         21   -1    0    0  501  502 -0.00000000000E+00 -0.00000000000E+00 -0.20455057946E+03  0.20455057946E+03  0.00000000000E+00 0.  1.
      99926    2    1    2    0    0  0.00000000000E+00 -0.35527136788E-14  0.43480824715E+02  0.45258198364E+03  0.45048847910E+03 0.  0.
      99925    2    3    3    0    0 -0.99588665705E+02  0.30346616362E+02 -0.44422923209E+01  0.28292658966E+03  0.26303783324E+03 0.  0.
         25    1    4    4    0    0 -0.35133121007E+02  0.53059987512E+02 -0.29585537002E+01  0.14037791709E+03  0.12509000000E+03 0.  0.
         25    1    4    4    0    0 -0.64455544698E+02 -0.22713371150E+02 -0.14837386207E+01  0.14254867257E+03  0.12509000000E+03 0.  0.
         25    1    3    3    0    0  0.99588665705E+02 -0.30346616362E+02  0.47923117036E+02  0.16965539398E+03  0.12509000000E+03 0.  0.
<mgrwt>
<rscale>  2 0.45048848E+03</rscale>
<asrwt>0</asrwt>
<pdfrwt beam="1">  1       21 0.36475207E-01 0.45048848E+03</pdfrwt>
<pdfrwt beam="2">  1       21 0.30080967E-01 0.45048848E+03</pdfrwt>
<totfact> 0.71253785E+04</totfact>
</mgrwt>
</event>
<event>
 7    0  0.4691878E-002  0.4540026E+03  0.7546771E-02  0.1026535E+00
         21   -1    0    0  502  501  0.00000000000E+00  0.00000000000E+00  0.15690283660E+03  0.15690283660E+03  0.00000000000E+00 0. -1.
         21   -1    0    0  501  502 -0.00000000000E+00 -0.00000000000E+00 -0.32841717162E+03  0.32841717162E+03  0.00000000000E+00 0. -1.
      99926    2    1    2    0    0  0.00000000000E+00  0.71054273576E-14 -0.17151433502E+03  0.48532000822E+03  0.45400258068E+03 0.  0.
      99925    2    3    3    0    0  0.68285611750E+02  0.49568272502E+02 -0.28916439514E+02  0.27771074467E+03  0.26299649963E+03 0.  0.
         25    1    3    3    0    0 -0.68285611750E+02 -0.49568272502E+02 -0.14259789551E+03  0.20760926355E+03  0.12509000000E+03 0.  0.
         25    1    4    4    0    0  0.48086621843E+02  0.62318028940E+02 -0.27621691167E+02  0.15035400179E+03  0.12509000000E+03 0.  0.
         25    1    4    4    0    0  0.20198989906E+02 -0.12749756439E+02 -0.12947483473E+01  0.12735674288E+03  0.12509000000E+03 0.  0.
<mgrwt>
<rscale>  2 0.45400258E+03</rscale>
<asrwt>0</asrwt>
<pdfrwt beam="1">  1       21 0.23073947E-01 0.45400258E+03</pdfrwt>
<pdfrwt beam="2">  1       21 0.48296642E-01 0.45400258E+03</pdfrwt>
<totfact> 0.66842530E+04</totfact>
</mgrwt>
</event>
<event>
 7    0  0.4691878E-002  0.4566965E+03  0.7546771E-02  0.1025744E+00
         21   -1    0    0  502  501  0.00000000000E+00  0.00000000000E+00  0.10906632394E+04  0.10906632394E+04  0.00000000000E+00 0. -1.
         21   -1    0    0  501  502 -0.00000000000E+00 -0.00000000000E+00 -0.47808464322E+02  0.47808464322E+02  0.00000000000E+00 0. -1.
      99926    2    1    2    0    0  0.00000000000E+00  0.00000000000E+00  0.10428547751E+04  0.11384717037E+04  0.45669654945E+03 0.  0.
      99925    2    3    3    0    0 -0.76629252682E+02 -0.51573798719E+02  0.82558593849E+03  0.87129169974E+03  0.26272644540E+03 0.  0.
         25    1    3    3    0    0  0.76629252682E+02  0.51573798719E+02  0.21726883660E+03  0.26718000400E+03  0.12509000000E+03 0.  0.
         25    1    4    4    0    0 -0.34140054891E+02 -0.65951894498E+02  0.41827860046E+03  0.44285402949E+03  0.12509000000E+03 0.  0.
         25    1    4    4    0    0 -0.42489197791E+02  0.14378095779E+02  0.40730733804E+03  0.42843767025E+03  0.12509000000E+03 0.  0.
<mgrwt>
<rscale>  2 0.45669655E+03</rscale>
<asrwt>0</asrwt>
<pdfrwt beam="1">  1       21 0.16039164E+00 0.45669655E+03</pdfrwt>
<pdfrwt beam="2">  1       21 0.70306572E-02 0.45669655E+03</pdfrwt>
<totfact> 0.33721475E+04</totfact>
</mgrwt>
</event>
<event>
 7    0  0.4691878E-002  0.4187779E+03  0.7546771E-02  0.1037465E+00
         21   -1    0    0  502  501  0.00000000000E+00  0.00000000000E+00  0.17176308025E+03  0.17176308025E+03  0.00000000000E+00 0. -1.
         21   -1    0    0  501  502 -0.00000000000E+00 -0.00000000000E+00 -0.25525701553E+03  0.25525701553E+03  0.00000000000E+00 0. -1.
      99926    2    1    2    0    0  0.00000000000E+00 -0.71054273576E-14 -0.83493935282E+02  0.42702009579E+03  0.41877789456E+03 0.  0.
      99925    2    3    3    0    0 -0.44987163425E+02 -0.36888080199E+02 -0.10157992953E+03  0.28788280164E+03  0.26300846006E+03 0.  0.
         25    1    3    3    0    0  0.44987163425E+02  0.36888080199E+02  0.18085994246E+02  0.13913729414E+03  0.12509000000E+03 0.  0.
         25    1    4    4    0    0 -0.59126260582E+02 -0.26581527958E+02 -0.71717117263E+02  0.15809283769E+03  0.12509000000E+03 0.  0.
         25    1    4    4    0    0  0.14139097157E+02 -0.10306552241E+02 -0.29862812265E+02  0.12978996396E+03  0.12509000000E+03 0.  0.
<mgrwt>
<rscale>  2 0.41877789E+03</rscale>
<asrwt>0</asrwt>
<pdfrwt beam="1">  1       21 0.25259277E-01 0.41877789E+03</pdfrwt>
<pdfrwt beam="2">  1       21 0.37537796E-01 0.41877789E+03</pdfrwt>
<totfact> 0.95350240E+04</totfact>
</mgrwt>
</event>
<event>
 7    0  0.4691878E-002  0.4598984E+03  0.7546771E-02  0.1024811E+00
         21   -1    0    0  502  501  0.00000000000E+00  0.00000000000E+00  0.14713061289E+03  0.14713061289E+03  0.00000000000E+00 0.  1.
         21   -1    0    0  501  502 -0.00000000000E+00 -0.00000000000E+00 -0.35938562385E+03  0.35938562385E+03  0.00000000000E+00 0.  1.
      99926    2    1    2    0    0 -0.14210854715E-13  0.00000000000E+00 -0.21225501097E+03  0.50651623674E+03  0.45989836747E+03 0.  0.
      99925    2    3    3    0    0  0.94492887414E+02  0.69262294010E+02 -0.14554712707E+03  0.32260424416E+03  0.26298927926E+03 0.  0.
         25    1    4    4    0    0  0.58471161777E+02  0.73436199868E+02 -0.94431028456E+02  0.18269230812E+03  0.12509000000E+03 0.  0.
         25    1    3    3    0    0 -0.94492887414E+02 -0.69262294010E+02 -0.66707883892E+02  0.18391199259E+03  0.12509000000E+03 0.  0.
         25    1    4    4    0    0  0.36021725636E+02 -0.41739058579E+01 -0.51116098619E+02  0.13991193604E+03  0.12509000000E+03 0.  0.
<mgrwt>
<rscale>  2 0.45989837E+03</rscale>
<asrwt>0</asrwt>
<pdfrwt beam="1">  1       21 0.21636855E-01 0.45989837E+03</pdfrwt>
<pdfrwt beam="2">  1       21 0.52850827E-01 0.45989837E+03</pdfrwt>
<totfact> 0.62355337E+04</totfact>
</mgrwt>
</event>
<event>
 7    0  0.4691878E-002  0.4617070E+03  0.7546771E-02  0.1024287E+00
         21   -1    0    0  502  501  0.00000000000E+00  0.00000000000E+00  0.23552208135E+03  0.23552208135E+03  0.00000000000E+00 0. -1.
         21   -1    0    0  501  502 -0.00000000000E+00 -0.00000000000E+00 -0.22627745650E+03  0.22627745650E+03  0.00000000000E+00 0. -1.
      99926    2    1    2    0    0  0.00000000000E+00  0.00000000000E+00  0.92446248521E+01  0.46179953785E+03  0.46170699591E+03 0.  0.
      99925    2    3    3    0    0 -0.96188085165E+02  0.13783838299E+02 -0.63374034098E+02  0.28754937385E+03  0.26310878411E+03 0.  0.
         25    1    4    4    0    0 -0.53328720680E+02  0.76454501420E+01 -0.73548329464E+02  0.15478782324E+03  0.12509000000E+03 0.  0.
         25    1    3    3    0    0  0.96188085165E+02 -0.13783838299E+02  0.72618658951E+02  0.17425016400E+03  0.12509000000E+03 0.  0.
         25    1    4    4    0    0 -0.42859364485E+02  0.61383881569E+01  0.10174295366E+02  0.13276155061E+03  0.12509000000E+03 0.  0.
<mgrwt>
<rscale>  2 0.46170700E+03</rscale>
<asrwt>0</asrwt>
<pdfrwt beam="1">  1       21 0.34635600E-01 0.46170700E+03</pdfrwt>
<pdfrwt beam="2">  1       21 0.33276096E-01 0.46170700E+03</pdfrwt>
<totfact> 0.64527577E+04</totfact>
</mgrwt>
</event>
<event>
 7    0  0.4691878E-002  0.4487368E+03  0.7546771E-02  0.1028099E+00
         21   -1    0    0  502  501  0.00000000000E+00  0.00000000000E+00  0.47909033572E+03  0.47909033572E+03  0.00000000000E+00 0. -1.
         21   -1    0    0  501  502 -0.00000000000E+00 -0.00000000000E+00 -0.10507657048E+03  0.10507657048E+03  0.00000000000E+00 0. -1.
      99926    2    1    2    0    0  0.14210854715E-13  0.00000000000E+00  0.37401376525E+03  0.58416690620E+03  0.44873675769E+03 0.  0.
      99925    2    3    3    0    0 -0.10519195771E+03 -0.12724878096E+02  0.21615700797E+03  0.35658497719E+03  0.26306220439E+03 0.  0.
         25    1    4    4    0    0 -0.59543724061E+02 -0.46657500724E+02  0.11087536671E+03  0.18347542749E+03  0.12509000000E+03 0.  0.
         25    1    4    4    0    0 -0.45648233651E+02  0.33932622628E+02  0.10528164126E+03  0.17310954971E+03  0.12509000000E+03 0.  0.
         25    1    3    3    0    0  0.10519195771E+03  0.12724878096E+02  0.15785675728E+03  0.22758192901E+03  0.12509000000E+03 0.  0.
<mgrwt>
<rscale>  2 0.44873676E+03</rscale>
<asrwt>0</asrwt>
<pdfrwt beam="1">  1       21 0.70454460E-01 0.44873676E+03</pdfrwt>
<pdfrwt beam="2">  1       21 0.15452437E-01 0.44873676E+03</pdfrwt>
<totfact> 0.62711121E+04</totfact>
</mgrwt>
</event>
<event>
 7    0  0.4691878E-002  0.4536232E+03  0.7546771E-02  0.1026647E+00
         21   -1    0    0  502  501  0.00000000000E+00  0.00000000000E+00  0.59854323438E+02  0.59854323438E+02  0.00000000000E+00 0.  1.
         21   -1    0    0  501  502 -0.00000000000E+00 -0.00000000000E+00 -0.85947831838E+03  0.85947831838E+03  0.00000000000E+00 0.  1.
      99926    2    1    2    0    0  0.00000000000E+00  0.00000000000E+00 -0.79962399495E+03  0.91933264182E+03  0.45362316191E+03 0.  0.
      99925    2    3    3    0    0  0.39510580880E+02  0.92820819349E+02 -0.60183841110E+03  0.66449262184E+03  0.26299083805E+03 0.  0.
         25    1    4    4    0    0  0.58932014697E+02  0.35889763009E+02 -0.30871388359E+03  0.34016588228E+03  0.12509000000E+03 0.  0.
         25    1    3    3    0    0 -0.39510580880E+02 -0.92820819349E+02 -0.19778558385E+03  0.25484001998E+03  0.12509000000E+03 0.  0.
         25    1    4    4    0    0 -0.19421433817E+02  0.56931056339E+02 -0.29312452751E+03  0.32432673956E+03  0.12509000000E+03 0.  0.
<mgrwt>
<rscale>  2 0.45362316E+03</rscale>
<asrwt>0</asrwt>
<pdfrwt beam="1">  1       21 0.88021069E-02 0.45362316E+03</pdfrwt>
<pdfrwt beam="2">  1       21 0.12639386E+00 0.45362316E+03</pdfrwt>
<totfact> 0.42868142E+04</totfact>
</mgrwt>
</event>
<event>
 7    0  0.4691878E-002  0.4544761E+03  0.7546771E-02  0.1026396E+00
         21   -1    0    0  502  501  0.00000000000E+00  0.00000000000E+00  0.85793536431E+02  0.85793536431E+02  0.00000000000E+00 0.  1.
         21   -1    0    0  501  502 -0.00000000000E+00 -0.00000000000E+00 -0.60187661904E+03  0.60187661904E+03  0.00000000000E+00 0.  1.
      99926    2    1    2    0    0  0.00000000000E+00  0.00000000000E+00 -0.51608308261E+03  0.68767015548E+03  0.45447606601E+03 0.  0.
      99925    2    3    3    0    0  0.63445810299E+02  0.73306461511E+02 -0.41181887908E+03  0.49815039297E+03  0.26298254068E+03 0.  0.
         25    1    4    4    0    0  0.47278216757E+02  0.48856658384E+02 -0.27977089797E+03  0.31391315088E+03  0.12509000000E+03 0.  0.
         25    1    4    4    0    0  0.16167593542E+02  0.24449803127E+02 -0.13204798111E+03  0.18423724208E+03  0.12509000000E+03 0.  0.
         25    1    3    3    0    0 -0.63445810299E+02 -0.73306461511E+02 -0.10426420353E+03  0.18951976251E+03  0.12509000000E+03 0.  0.
<mgrwt>
<rscale>  2 0.45447607E+03</rscale>
<asrwt>0</asrwt>
<pdfrwt beam="1">  1       21 0.12616696E-01 0.45447607E+03</pdfrwt>
<pdfrwt beam="2">  1       21 0.88511269E-01 0.45447607E+03</pdfrwt>
<totfact> 0.53799229E+04</totfact>
</mgrwt>
</event>
<event>
 7    0  0.4691878E-002  0.4531603E+03  0.7546771E-02  0.1026784E+00
         21   -1    0    0  502  501  0.00000000000E+00  0.00000000000E+00  0.61946443089E+03  0.61946443089E+03  0.00000000000E+00 0.  1.
         21   -1    0    0  501  502 -0.00000000000E+00 -0.00000000000E+00 -0.82875722342E+02  0.82875722342E+02  0.00000000000E+00 0.  1.
      99926    2    1    2    0    0  0.00000000000E+00  0.00000000000E+00  0.53658870855E+03  0.70234015323E+03  0.45316029030E+03 0.  0.
      99925    2    3    3    0    0  0.23253212484E+02  0.38470732133E+02  0.18008199485E+03  0.32185985922E+03  0.26295158297E+03 0.  0.
         25    1    4    4    0    0  0.38454837029E+02  0.32884326171E+02  0.12600969580E+03  0.18462422629E+03  0.12509000000E+03 0.  0.
         25    1    3    3    0    0 -0.23253212484E+02 -0.38470732133E+02  0.35650671369E+03  0.38048029401E+03  0.12509000000E+03 0.  0.
         25    1    4    4    0    0 -0.15201624544E+02  0.55864059625E+01  0.54072299055E+02  0.13723563293E+03  0.12509000000E+03 0.  0.
<mgrwt>
<rscale>  2 0.45316029E+03</rscale>
<asrwt>0</asrwt>
<pdfrwt beam="1">  1       21 0.91097708E-01 0.45316029E+03</pdfrwt>
<pdfrwt beam="2">  1       21 0.12187607E-01 0.45316029E+03</pdfrwt>
<totfact> 0.53547091E+04</totfact>
</mgrwt>
</event>
<event>
 7    0  0.4691878E-002  0.4560592E+03  0.7546771E-02  0.1025930E+00
         21   -1    0    0  502  501  0.00000000000E+00  0.00000000000E+00  0.36049342202E+04  0.36049342202E+04  0.00000000000E+00 0. -1.
         21   -1    0    0  501  502 -0.00000000000E+00 -0.00000000000E+00 -0.14423977749E+02  0.14423977749E+02  0.00000000000E+00 0. -1.
      99926    2    1    2    0    0  0.00000000000E+00  0.00000000000E+00  0.35905102425E+04  0.36193581980E+04  0.45605916712E+03 0.  0.
      99925    2    3    3    0    0 -0.63022340317E+02 -0.69932097922E+02  0.17448899979E+04  0.17671098591E+04  0.26300919287E+03 0.  0.
         25    1    4    4    0    0 -0.42734490139E+02  0.13366571090E+00  0.94778730702E+03  0.95696109742E+03  0.12509000000E+03 0.  0.
         25    1    3    3    0    0  0.63022340317E+02  0.69932097922E+02  0.18456202446E+04  0.18522483389E+04  0.12509000000E+03 0.  0.
         25    1    4    4    0    0 -0.20287850178E+02 -0.70065763633E+02  0.79710269087E+03  0.81014876164E+03  0.12509000000E+03 0.  0.
<mgrwt>
<rscale>  2 0.45605917E+03</rscale>
<asrwt>0</asrwt>
<pdfrwt beam="1">  1       21 0.53013676E+00 0.45605917E+03</pdfrwt>
<pdfrwt beam="2">  1       21 0.21211757E-02 0.45605917E+03</pdfrwt>
<totfact> 0.10053260E+03</totfact>
</mgrwt>
</event>
<event>
 7    0  0.4691878E-002  0.4556024E+03  0.7546771E-02  0.1026064E+00
         21   -1    0    0  502  501  0.00000000000E+00  0.00000000000E+00  0.19734762451E+03  0.19734762451E+03  0.00000000000E+00 0.  1.
         21   -1    0    0  501  502 -0.00000000000E+00 -0.00000000000E+00 -0.26295416717E+03  0.26295416717E+03  0.00000000000E+00 0.  1.
      99926    2    1    2    0    0  0.00000000000E+00  0.00000000000E+00 -0.65606542656E+02  0.46030179169E+03  0.45560237158E+03 0.  0.
      99925    2    3    3    0    0  0.20069033582E+02 -0.23249749885E+02  0.69486899189E+02  0.27364418239E+03  0.26288665318E+03 0.  0.
         25    1    3    3    0    0 -0.20069033582E+02  0.23249749885E+02 -0.13509344184E+03  0.18665760930E+03  0.12509000000E+03 0.  0.
         25    1    4    4    0    0  0.29599134821E+02 -0.81404454400E+00  0.12161862815E+00  0.12854685660E+03  0.12509000000E+03 0.  0.
         25    1    4    4    0    0 -0.95301012393E+01 -0.22435705341E+02  0.69365280561E+02  0.14509732579E+03  0.12509000000E+03 0.  0.
<mgrwt>
<rscale>  2 0.45560237E+03</rscale>
<asrwt>0</asrwt>
<pdfrwt beam="1">  1       21 0.29021710E-01 0.45560237E+03</pdfrwt>
<pdfrwt beam="2">  1       21 0.38669730E-01 0.45560237E+03</pdfrwt>
<totfact> 0.67832153E+04</totfact>
</mgrwt>
</event>
<event>
 7    0  0.4691878E-002  0.4527084E+03  0.7546771E-02  0.1026917E+00
         21   -1    0    0  502  501  0.00000000000E+00  0.00000000000E+00  0.17171029157E+03  0.17171029157E+03  0.00000000000E+00 0. -1.
         21   -1    0    0  501  502 -0.00000000000E+00 -0.00000000000E+00 -0.29838764516E+03  0.29838764516E+03  0.00000000000E+00 0. -1.
      99926    2    1    2    0    0  0.00000000000E+00 -0.14210854715E-13 -0.12667735359E+03  0.47009793673E+03  0.45270842515E+03 0.  0.
      99925    2    3    3    0    0 -0.23614419021E+02  0.92498368505E+02 -0.13865763473E+03  0.31228594669E+03  0.26302658396E+03 0.  0.
         25    1    4    4    0    0  0.11921379214E+02  0.14169200377E+02 -0.46716840869E+02  0.13480673886E+03  0.12509000000E+03 0.  0.
         25    1    3    3    0    0  0.23614419021E+02 -0.92498368505E+02  0.11980281146E+02  0.15781199003E+03  0.12509000000E+03 0.  0.
         25    1    4    4    0    0 -0.35535798235E+02  0.78329168129E+02 -0.91940793866E+02  0.17747920783E+03  0.12509000000E+03 0.  0.
<mgrwt>
<rscale>  2 0.45270843E+03</rscale>
<asrwt>0</asrwt>
<pdfrwt beam="1">  1       21 0.25251514E-01 0.45270843E+03</pdfrwt>
<pdfrwt beam="2">  1       21 0.43880536E-01 0.45270843E+03</pdfrwt>
<totfact> 0.68668407E+04</totfact>
</mgrwt>
</event>
<event>
 7    0  0.4691878E-002  0.4528567E+03  0.7546771E-02  0.1026874E+00
         21   -1    0    0  502  501  0.00000000000E+00  0.00000000000E+00  0.56755629391E+02  0.56755629391E+02  0.00000000000E+00 0.  1.
         21   -1    0    0  501  502 -0.00000000000E+00 -0.00000000000E+00 -0.90334280579E+03  0.90334280579E+03  0.00000000000E+00 0.  1.
      99926    2    1    2    0    0 -0.35527136788E-14  0.00000000000E+00 -0.84658717640E+03  0.96009843518E+03  0.45285666385E+03 0.  0.
      99925    2    3    3    0    0 -0.27003841042E+02  0.10164800392E+03 -0.45752195579E+03  0.53810225259E+03  0.26299461988E+03 0.  0.
         25    1    3    3    0    0  0.27003841042E+02 -0.10164800392E+03 -0.38906522061E+03  0.42199618259E+03  0.12509000000E+03 0.  0.
         25    1    4    4    0    0 -0.31551783073E+02  0.90467901561E+02 -0.25268819774E+03  0.29778984134E+03  0.12509000000E+03 0.  0.
         25    1    4    4    0    0  0.45479420315E+01  0.11180102358E+02 -0.20483375805E+03  0.24031241126E+03  0.12509000000E+03 0.  0.
<mgrwt>
<rscale>  2 0.45285666E+03</rscale>
<asrwt>0</asrwt>
<pdfrwt beam="1">  1       21 0.83464168E-02 0.45285666E+03</pdfrwt>
<pdfrwt beam="2">  1       21 0.13284452E+00 0.45285666E+03</pdfrwt>
<totfact> 0.41424468E+04</totfact>
</mgrwt>
</event>
<event>
 7    0  0.4691878E-002  0.4536022E+03  0.7546771E-02  0.1026653E+00
         21   -1    0    0  502  501  0.00000000000E+00  0.00000000000E+00  0.12124222014E+03  0.12124222014E+03  0.00000000000E+00 0.  1.
         21   -1    0    0  501  502 -0.00000000000E+00 -0.00000000000E+00 -0.42426420850E+03  0.42426420850E+03  0.00000000000E+00 0.  1.
      99926    2    1    2    0    0  0.00000000000E+00 -0.35527136788E-14 -0.30302198837E+03  0.54550642864E+03  0.45360218061E+03 0.  0.
      99925    2    3    3    0    0  0.76799284022E+02  0.18159456552E+02 -0.95580940507E+02  0.29073752880E+03  0.26299182226E+03 0.  0.
         25    1    4    4    0    0  0.76103466301E+01  0.35867683920E+02 -0.50690809346E+02  0.13986234081E+03  0.12509000000E+03 0.  0.
         25    1    4    4    0    0  0.69188937392E+02 -0.17708227367E+02 -0.44890131161E+02  0.15087518799E+03  0.12509000000E+03 0.  0.
         25    1    3    3    0    0 -0.76799284022E+02 -0.18159456552E+02 -0.20744104786E+03  0.25476889984E+03  0.12509000000E+03 0.  0.
<mgrwt>
<rscale>  2 0.45360218E+03</rscale>
<asrwt>0</asrwt>
<pdfrwt beam="1">  1       21 0.17829739E-01 0.45360218E+03</pdfrwt>
<pdfrwt beam="2">  1       21 0.62391794E-01 0.45360218E+03</pdfrwt>
<totfact> 0.62856788E+04</totfact>
</mgrwt>
</event>
<event>
 7    0  0.4691878E-002  0.3932744E+03  0.7546771E-02  0.1046134E+00
         21   -1    0    0  502  501  0.00000000000E+00  0.00000000000E+00  0.43438196300E+03  0.43438196300E+03  0.00000000000E+00 0. -1.
         21   -1    0    0  501  502 -0.00000000000E+00 -0.00000000000E+00 -0.89014248952E+02  0.89014248952E+02  0.00000000000E+00 0. -1.
      99926    2    1    2    0    0 -0.17763568394E-14  0.00000000000E+00  0.34536771405E+03  0.52339621196E+03  0.39327437849E+03 0.  0.
      99925    2    3    3    0    0 -0.37460941457E+01  0.14708802724E+02  0.26627526119E+03  0.37462287329E+03  0.26307679557E+03 0.  0.
         25    1    4    4    0    0 -0.40358527007E+02  0.18340231982E+02  0.12382770484E+03  0.18151028455E+03  0.12509000000E+03 0.  0.
         25    1    3    3    0    0  0.37460941457E+01 -0.14708802724E+02  0.79092452863E+02  0.14877333867E+03  0.12509000000E+03 0.  0.
         25    1    4    4    0    0  0.36612432862E+02 -0.36314292586E+01  0.14244755635E+03  0.19311258874E+03  0.12509000000E+03 0.  0.
<mgrwt>
<rscale>  2 0.39327438E+03</rscale>
<asrwt>0</asrwt>
<pdfrwt beam="1">  1       21 0.63879700E-01 0.39327438E+03</pdfrwt>
<pdfrwt beam="2">  1       21 0.13090331E-01 0.39327438E+03</pdfrwt>
<totfact> 0.10721473E+05</totfact>
</mgrwt>
</event>
<event>
 7    0  0.4691878E-002  0.4640323E+03  0.7546771E-02  0.1023618E+00
         21   -1    0    0  502  501  0.00000000000E+00  0.00000000000E+00  0.26604722734E+02  0.26604722734E+02  0.00000000000E+00 0. -1.
         21   -1    0    0  501  502 -0.00000000000E+00 -0.00000000000E+00 -0.20233807627E+04  0.20233807627E+04  0.00000000000E+00 0. -1.
      99926    2    1    2    0    0  0.00000000000E+00 -0.35527136788E-14 -0.19967760400E+04  0.20499854855E+04  0.46403225827E+03 0.  0.
      99925    2    3    3    0    0 -0.11422831839E+03 -0.31455010620E+02 -0.13640989584E+04  0.13942680737E+04  0.26302084825E+03 0.  0.
         25    1    3    3    0    0  0.11422831839E+03  0.31455010620E+02 -0.63267708160E+03  0.65571741177E+03  0.12509000000E+03 0.  0.
         25    1    4    4    0    0 -0.40685774322E+02 -0.38767170719E+02 -0.80512971243E+03  0.81672491556E+03  0.12509000000E+03 0.  0.
         25    1    4    4    0    0 -0.73542544072E+02  0.73121600995E+01 -0.55896924598E+03  0.57754315815E+03  0.12509000000E+03 0.  0.
<mgrwt>
<rscale>  2 0.46403226E+03</rscale>
<asrwt>0</asrwt>
<pdfrwt beam="1">  1       21 0.39124592E-02 0.46403226E+03</pdfrwt>
<pdfrwt beam="2">  1       21 0.29755600E+00 0.46403226E+03</pdfrwt>
<totfact> 0.12043896E+04</totfact>
</mgrwt>
</event>
<event>
 7    0  0.4691878E-002  0.4216948E+03  0.7546771E-02  0.1036516E+00
         21   -1    0    0  502  501  0.00000000000E+00  0.00000000000E+00  0.56151133477E+02  0.56151133477E+02  0.00000000000E+00 0. -1.
         21   -1    0    0  501  502 -0.00000000000E+00 -0.00000000000E+00 -0.79173176692E+03  0.79173176692E+03  0.00000000000E+00 0. -1.
      99926    2    1    2    0    0  0.00000000000E+00 -0.71054273576E-14 -0.73558063344E+03  0.84788290039E+03  0.42169484759E+03 0.  0.
      99925    2    3    3    0    0  0.27782301423E+02  0.63379673359E+02 -0.55052426473E+03  0.61404063097E+03  0.26302108501E+03 0.  0.
         25    1    3    3    0    0 -0.27782301423E+02 -0.63379673359E+02 -0.18505636871E+03  0.23384226942E+03  0.12509000000E+03 0.  0.
         25    1    4    4    0    0  0.31355387817E+02  0.51143177935E+02 -0.21651154753E+03  0.25714498499E+03  0.12509000000E+03 0.  0.
         25    1    4    4    0    0 -0.35730863944E+01  0.12236495424E+02 -0.33401271720E+03  0.35689564598E+03  0.12509000000E+03 0.  0.
<mgrwt>
<rscale>  2 0.42169485E+03</rscale>
<asrwt>0</asrwt>
<pdfrwt beam="1">  1       21 0.82575197E-02 0.42169485E+03</pdfrwt>
<pdfrwt beam="2">  1       21 0.11643114E+00 0.42169485E+03</pdfrwt>
<totfact> 0.59654523E+04</totfact>
</mgrwt>
</event>
<event>
 7    0  0.4691878E-002  0.4428873E+03  0.7546771E-02  0.1029865E+00
         21   -1    0    0  502  501  0.00000000000E+00  0.00000000000E+00  0.43859220294E+03  0.43859220294E+03  0.00000000000E+00 0.  1.
         21   -1    0    0  501  502 -0.00000000000E+00 -0.00000000000E+00 -0.11180610904E+03  0.11180610904E+03  0.00000000000E+00 0.  1.
      99926    2    1    2    0    0  0.00000000000E+00  0.71054273576E-14  0.32678609390E+03  0.55039831198E+03  0.44288728889E+03 0.  0.
      99925    2    3    3    0    0 -0.33145568000E+02  0.61014180659E+02  0.29976645316E+03  0.40479979548E+03  0.26302393249E+03 0.  0.
         25    1    4    4    0    0 -0.12994962607E+02 -0.87262336548E+01  0.15973296962E+03  0.20348745880E+03  0.12509000000E+03 0.  0.
         25    1    3    3    0    0  0.33145568000E+02 -0.61014180659E+02  0.27019640737E+02  0.14559851649E+03  0.12509000000E+03 0.  0.
         25    1    4    4    0    0 -0.20150605392E+02  0.69740414314E+02  0.14003348354E+03  0.20131233668E+03  0.12509000000E+03 0.  0.
<mgrwt>
<rscale>  2 0.44288729E+03</rscale>
<asrwt>0</asrwt>
<pdfrwt beam="1">  1       21 0.64498853E-01 0.44288729E+03</pdfrwt>
<pdfrwt beam="2">  1       21 0.16442075E-01 0.44288729E+03</pdfrwt>
<totfact> 0.68139078E+04</totfact>
</mgrwt>
</event>
<event>
 7    0  0.4691878E-002  0.4540486E+03  0.7546771E-02  0.1026522E+00
         21   -1    0    0  502  501  0.00000000000E+00  0.00000000000E+00  0.11249897552E+03  0.11249897552E+03  0.00000000000E+00 0.  1.
         21   -1    0    0  501  502 -0.00000000000E+00 -0.00000000000E+00 -0.45813784904E+03  0.45813784904E+03  0.00000000000E+00 0.  1.
      99926    2    1    2    0    0 -0.71054273576E-14  0.00000000000E+00 -0.34563887353E+03  0.57063682456E+03  0.45404862586E+03 0.  0.
      99925    2    3    3    0    0 -0.45653432811E+02  0.10119642576E+03 -0.19717753108E+03  0.34700044376E+03  0.26306914812E+03 0.  0.
         25    1    3    3    0    0  0.45653432811E+02 -0.10119642576E+03 -0.14846134245E+03  0.22363638080E+03  0.12509000000E+03 0.  0.
         25    1    4    4    0    0 -0.10696497495E+02  0.83300785547E+01 -0.89973192377E+02  0.15468189524E+03  0.12509000000E+03 0.  0.
         25    1    4    4    0    0 -0.34956935316E+02  0.92866347206E+02 -0.10720433870E+03  0.19231854852E+03  0.12509000000E+03 0.  0.
<mgrwt>
<rscale>  2 0.45404863E+03</rscale>
<asrwt>0</asrwt>
<pdfrwt beam="1">  1       21 0.16543967E-01 0.45404863E+03</pdfrwt>
<pdfrwt beam="2">  1       21 0.67373213E-01 0.45404863E+03</pdfrwt>
<totfact> 0.60980532E+04</totfact>
</mgrwt>
</event>
<event>
 7    0  0.4691878E-002  0.4402999E+03  0.7546771E-02  0.1030655E+00
         21   -1    0    0  502  501  0.00000000000E+00  0.00000000000E+00  0.38989064913E+03  0.38989064913E+03  0.00000000000E+00 0.  1.
         21   -1    0    0  501  502 -0.00000000000E+00 -0.00000000000E+00 -0.12430665786E+03  0.12430665786E+03  0.00000000000E+00 0.  1.
      99926    2    1    2    0    0  0.00000000000E+00  0.00000000000E+00  0.26558399127E+03  0.51419730699E+03  0.44029991381E+03 0.  0.
      99925    2    3    3    0    0 -0.69160778193E+02  0.68658566502E+02  0.18756809386E+03  0.33747379316E+03  0.26307709752E+03 0.  0.
         25    1    4    4    0    0 -0.74705354469E+02  0.40033161134E+02  0.87110661355E+02  0.17441135112E+03  0.12509000000E+03 0.  0.
         25    1    3    3    0    0  0.69160778193E+02 -0.68658566502E+02  0.78015897406E+02  0.17672351384E+03  0.12509000000E+03 0.  0.
         25    1    4    4    0    0  0.55445762765E+01  0.28625405368E+02  0.10045743251E+03  0.16306244204E+03  0.12509000000E+03 0.  0.
<mgrwt>
<rscale>  2 0.44029991E+03</rscale>
<asrwt>0</asrwt>
<pdfrwt beam="1">  1       21 0.57336860E-01 0.44029991E+03</pdfrwt>
<pdfrwt beam="2">  1       21 0.18280391E-01 0.44029991E+03</pdfrwt>
<totfact> 0.72358685E+04</totfact>
</mgrwt>
</event>
<event>
 7    0  0.4691878E-002  0.4584184E+03  0.7546771E-02  0.1025241E+00
         21   -1    0    0  502  501  0.00000000000E+00  0.00000000000E+00  0.10997235489E+03  0.10997235489E+03  0.00000000000E+00 0. -1.
         21   -1    0    0  501  502 -0.00000000000E+00 -0.00000000000E+00 -0.47772780266E+03  0.47772780266E+03  0.00000000000E+00 0. -1.
      99926    2    1    2    0    0  0.71054273576E-14  0.71054273576E-14 -0.36775544777E+03  0.58770015755E+03  0.45841837421E+03 0.  0.
      99925    2    3    3    0    0  0.50757193226E+02  0.39322894501E+02 -0.10644605945E+03  0.29096342706E+03  0.26307103531E+03 0.  0.
         25    1    4    4    0    0  0.18553885573E+02 -0.15765768255E+02 -0.29378534706E+02  0.13078001575E+03  0.12509000000E+03 0.  0.
         25    1    4    4    0    0  0.32203307653E+02  0.55088662756E+02 -0.77067524748E+02  0.16018341131E+03  0.12509000000E+03 0.  0.
         25    1    3    3    0    0 -0.50757193226E+02 -0.39322894501E+02 -0.26130938832E+03  0.29673673048E+03  0.12509000000E+03 0.  0.
<mgrwt>
<rscale>  2 0.45841837E+03</rscale>
<asrwt>0</asrwt>
<pdfrwt beam="1">  1       21 0.16172405E-01 0.45841837E+03</pdfrwt>
<pdfrwt beam="2">  1       21 0.70254088E-01 0.45841837E+03</pdfrwt>
<totfact> 0.57862489E+04</totfact>
</mgrwt>
</event>
<event>
 7    0  0.4691878E-002  0.4445698E+03  0.7546771E-02  0.1029354E+00
         21   -1    0    0  502  501  0.00000000000E+00  0.00000000000E+00  0.10476594568E+03  0.10476594568E+03  0.00000000000E+00 0.  1.
         21   -1    0    0  501  502 -0.00000000000E+00 -0.00000000000E+00 -0.47162818525E+03  0.47162818525E+03  0.00000000000E+00 0.  1.
      99926    2    1    2    0    0 -0.35527136788E-14 -0.44408920985E-15 -0.36686223957E+03  0.57639413093E+03  0.44456978232E+03 0.  0.
      99925    2    3    3    0    0 -0.29216664452E+02 -0.30137706609E+01 -0.36117231558E+03  0.44777617094E+03  0.26305011201E+03 0.  0.
         25    1    3    3    0    0  0.29216664452E+02  0.30137706609E+01 -0.56899239884E+01  0.12861795998E+03  0.12509000000E+03 0.  0.
         25    1    4    4    0    0 -0.39894560540E+02  0.86784241114E+01 -0.13305344274E+03  0.18712994878E+03  0.12509000000E+03 0.  0.
         25    1    4    4    0    0  0.10677896088E+02 -0.11692194772E+02 -0.22811887283E+03  0.26064622216E+03  0.12509000000E+03 0.  0.
<mgrwt>
<rscale>  2 0.44456978E+03</rscale>
<asrwt>0</asrwt>
<pdfrwt beam="1">  1       21 0.15406757E-01 0.44456978E+03</pdfrwt>
<pdfrwt beam="2">  1       21 0.69357086E-01 0.44456978E+03</pdfrwt>
<totfact> 0.65382488E+04</totfact>
</mgrwt>
</event>
<event>
 7    0  0.4691878E-002  0.4205486E+03  0.7546771E-02  0.1036888E+00
         21   -1    0    0  502  501  0.00000000000E+00  0.00000000000E+00  0.18070968033E+03  0.18070968033E+03  0.00000000000E+00 0. -1.
         21   -1    0    0  501  502 -0.00000000000E+00 -0.00000000000E+00 -0.24467579916E+03  0.24467579916E+03  0.00000000000E+00 0. -1.
      99926    2    1    2    0    0 -0.17763568394E-14  0.00000000000E+00 -0.63966118827E+02  0.42538547949E+03  0.42054862003E+03 0.  0.
      99925    2    3    3    0    0  0.10901902550E+02 -0.73997765490E+02 -0.58479627982E+02  0.27953579503E+03  0.26291799679E+03 0.  0.
         25    1    4    4    0    0 -0.23684827709E+02 -0.39757491478E+02 -0.63396358834E+00  0.13337743138E+03  0.12509000000E+03 0.  0.
         25    1    4    4    0    0  0.34586730259E+02 -0.34240274012E+02 -0.57845664393E+02  0.14615836365E+03  0.12509000000E+03 0.  0.
         25    1    3    3    0    0 -0.10901902550E+02  0.73997765490E+02 -0.54864908447E+01  0.14584968446E+03  0.12509000000E+03 0.  0.
<mgrwt>
<rscale>  2 0.42054862E+03</rscale>
<asrwt>0</asrwt>
<pdfrwt beam="1">  1       21 0.26574953E-01 0.42054862E+03</pdfrwt>
<pdfrwt beam="2">  1       21 0.35981735E-01 0.42054862E+03</pdfrwt>
<totfact> 0.94090199E+04</totfact>
</mgrwt>
</event>
<event>
 7    0  0.4691878E-002  0.4569738E+03  0.7546771E-02  0.1025663E+00
         21   -1    0    0  502  501  0.00000000000E+00  0.00000000000E+00  0.21796066668E+03  0.21796066668E+03  0.00000000000E+00 0.  1.
         21   -1    0    0  501  502 -0.00000000000E+00 -0.00000000000E+00 -0.23952149377E+03  0.23952149377E+03  0.00000000000E+00 0.  1.
      99926    2    1    2    0    0 -0.14210854715E-13  0.00000000000E+00 -0.21560827092E+02  0.45748216045E+03  0.45697380436E+03 0.  0.
      99925    2    3    3    0    0 -0.11425029943E+03  0.13121870916E+02 -0.14897712741E+02  0.28743152209E+03  0.26300118560E+03 0.  0.
         25    1    4    4    0    0 -0.26974973070E+02  0.17268801662E+02 -0.34342128480E+02  0.13361418552E+03  0.12509000000E+03 0.  0.
         25    1    4    4    0    0 -0.87275326359E+02 -0.41469307462E+01  0.19444415739E+02  0.15381733657E+03  0.12509000000E+03 0.  0.
         25    1    3    3    0    0  0.11425029943E+03 -0.13121870916E+02 -0.66631143512E+01  0.17005063837E+03  0.12509000000E+03 0.  0.
<mgrwt>
<rscale>  2 0.45697380E+03</rscale>
<asrwt>0</asrwt>
<pdfrwt beam="1">  1       21 0.32053039E-01 0.45697380E+03</pdfrwt>
<pdfrwt beam="2">  1       21 0.35223749E-01 0.45697380E+03</pdfrwt>
<totfact> 0.67298235E+04</totfact>
</mgrwt>
</event>
<event>
 7    0  0.4691878E-002  0.4568176E+03  0.7546771E-02  0.1025708E+00
         21   -1    0    0  502  501  0.00000000000E+00  0.00000000000E+00  0.56424597053E+02  0.56424597053E+02  0.00000000000E+00 0.  1.
         21   -1    0    0  501  502 -0.00000000000E+00 -0.00000000000E+00 -0.92460709404E+03  0.92460709404E+03  0.00000000000E+00 0.  1.
      99926    2    1    2    0    0  0.71054273576E-14  0.00000000000E+00 -0.86818249699E+03  0.98103169109E+03  0.45681761224E+03 0.  0.
      99925    2    3    3    0    0 -0.59721521609E+02 -0.61968682406E+02 -0.38213274613E+03  0.47181793819E+03  0.26302082310E+03 0.  0.
         25    1    3    3    0    0  0.59721521609E+02  0.61968682406E+02 -0.48604975086E+03  0.50921375291E+03  0.12509000000E+03 0.  0.
         25    1    4    4    0    0 -0.49873984338E+02 -0.29062066272E+02 -0.25691437788E+03  0.29152105185E+03  0.12509000000E+03 0.  0.
         25    1    4    4    0    0 -0.98475372709E+01 -0.32906616134E+02 -0.12521836826E+03  0.18029688634E+03  0.12509000000E+03 0.  0.
<mgrwt>
<rscale>  2 0.45681761E+03</rscale>
<asrwt>0</asrwt>
<pdfrwt beam="1">  1       21 0.82977356E-02 0.45681761E+03</pdfrwt>
<pdfrwt beam="2">  1       21 0.13597162E+00 0.45681761E+03</pdfrwt>
<totfact> 0.39346954E+04</totfact>
</mgrwt>
</event>
<event>
 7    0  0.4691878E-002  0.4590516E+03  0.7546771E-02  0.1025057E+00
         21   -1    0    0  502  501  0.00000000000E+00  0.00000000000E+00  0.20582953947E+03  0.20582953947E+03  0.00000000000E+00 0. -1.
         21   -1    0    0  501  502 -0.00000000000E+00 -0.00000000000E+00 -0.25595005740E+03  0.25595005740E+03  0.00000000000E+00 0. -1.
      99926    2    1    2    0    0  0.00000000000E+00  0.00000000000E+00 -0.50120517929E+02  0.46177959687E+03  0.45905155458E+03 0.  0.
      99925    2    3    3    0    0 -0.51585843862E+02 -0.10437047144E+03 -0.42313947500E+02  0.29071602612E+03  0.26300388418E+03 0.  0.
         25    1    4    4    0    0  0.76393088101E+01 -0.67523528975E+02 -0.38379223617E+02  0.14743900064E+03  0.12509000000E+03 0.  0.
         25    1    4    4    0    0 -0.59225152672E+02 -0.36846942463E+02 -0.39347238832E+01  0.14327702548E+03  0.12509000000E+03 0.  0.
         25    1    3    3    0    0  0.51585843862E+02  0.10437047144E+03 -0.78065704289E+01  0.17106357075E+03  0.12509000000E+03 0.  0.
<mgrwt>
<rscale>  2 0.45905155E+03</rscale>
<asrwt>0</asrwt>
<pdfrwt beam="1">  1       21 0.30269050E-01 0.45905155E+03</pdfrwt>
<pdfrwt beam="2">  1       21 0.37639714E-01 0.45905155E+03</pdfrwt>
<totfact> 0.65895896E+04</totfact>
</mgrwt>
</event>
<event>
 7    0  0.4691878E-002  0.4560588E+03  0.7546771E-02  0.1025930E+00
         21   -1    0    0  502  501  0.00000000000E+00  0.00000000000E+00  0.38039822103E+03  0.38039822103E+03  0.00000000000E+00 0.  1.
         21   -1    0    0  501  502 -0.00000000000E+00 -0.00000000000E+00 -0.13669206364E+03  0.13669206364E+03  0.00000000000E+00 0.  1.
      99926    2    1    2    0    0  0.00000000000E+00  0.00000000000E+00  0.24370615739E+03  0.51709028467E+03  0.45605884636E+03 0.  0.
      99925    2    3    3    0    0  0.45942272447E+02  0.95055345604E+02  0.10419207924E+03  0.30201379309E+03  0.26307818366E+03 0.  0.
         25    1    4    4    0    0  0.30307851045E+02  0.55657006136E+01  0.44680227005E+02  0.13635752140E+03  0.12509000000E+03 0.  0.
         25    1    4    4    0    0  0.15634421402E+02  0.89489644990E+02  0.59511852231E+02  0.16565627169E+03  0.12509000000E+03 0.  0.
         25    1    3    3    0    0 -0.45942272447E+02 -0.95055345604E+02  0.13951407816E+03  0.21507649158E+03  0.12509000000E+03 0.  0.
<mgrwt>
<rscale>  2 0.45605885E+03</rscale>
<asrwt>0</asrwt>
<pdfrwt beam="1">  1       21 0.55940915E-01 0.45605885E+03</pdfrwt>
<pdfrwt beam="2">  1       21 0.20101774E-01 0.45605885E+03</pdfrwt>
<totfact> 0.63550341E+04</totfact>
</mgrwt>
</event>
<event>
 7    0  0.4691878E-002  0.4475141E+03  0.7546771E-02  0.1028466E+00
         21   -1    0    0  502  501  0.00000000000E+00  0.00000000000E+00  0.41212819542E+02  0.41212819542E+02  0.00000000000E+00 0.  1.
         21   -1    0    0  501  502 -0.00000000000E+00 -0.00000000000E+00 -0.12148455114E+04  0.12148455114E+04  0.00000000000E+00 0.  1.
      99926    2    1    2    0    0  0.00000000000E+00 -0.71054273576E-14 -0.11736326919E+04  0.12560583310E+04  0.44751406160E+03 0.  0.
      99925    2    3    3    0    0 -0.12384562899E+02  0.62566260183E+02 -0.98152798488E+03  0.10181095111E+04  0.26283431516E+03 0.  0.
         25    1    4    4    0    0  0.11042454420E+02  0.57894388025E+02 -0.60595897490E+03  0.62153638938E+03  0.12509000000E+03 0.  0.
         25    1    4    4    0    0 -0.23427017320E+02  0.46718721578E+01 -0.37556900998E+03  0.39657312174E+03  0.12509000000E+03 0.  0.
         25    1    3    3    0    0  0.12384562899E+02 -0.62566260183E+02 -0.19210470699E+03  0.23794881983E+03  0.12509000000E+03 0.  0.
<mgrwt>
<rscale>  2 0.44751406E+03</rscale>
<asrwt>0</asrwt>
<pdfrwt beam="1">  1       21 0.60607093E-02 0.44751406E+03</pdfrwt>
<pdfrwt beam="2">  1       21 0.17865374E+00 0.44751406E+03</pdfrwt>
<totfact> 0.32256681E+04</totfact>
</mgrwt>
</event>
<event>
 7    0  0.4691878E-002  0.4561466E+03  0.7546771E-02  0.1025905E+00
         21   -1    0    0  502  501  0.00000000000E+00  0.00000000000E+00  0.30727852574E+03  0.30727852574E+03  0.00000000000E+00 0. -1.
         21   -1    0    0  501  502 -0.00000000000E+00 -0.00000000000E+00 -0.16928433077E+03  0.16928433077E+03  0.00000000000E+00 0. -1.
      99926    2    1    2    0    0  0.00000000000E+00  0.00000000000E+00  0.13799419497E+03  0.47656285651E+03  0.45614664129E+03 0.  0.
      99925    2    3    3    0    0  0.16375225783E+01 -0.80420558237E+02  0.19557866766E+01  0.27500863478E+03  0.26297485894E+03 0.  0.
         25    1    4    4    0    0 -0.23407593419E+01 -0.36784551888E+02  0.41230310338E+02  0.13676998575E+03  0.12509000000E+03 0.  0.
         25    1    3    3    0    0 -0.16375225783E+01  0.80420558237E+02  0.13603840829E+03  0.20155422173E+03  0.12509000000E+03 0.  0.
         25    1    4    4    0    0  0.39782819202E+01 -0.43636006349E+02 -0.39274523661E+02  0.13823864903E+03  0.12509000000E+03 0.  0.
<mgrwt>
<rscale>  2 0.45614664E+03</rscale>
<asrwt>0</asrwt>
<pdfrwt beam="1">  1       21 0.45188018E-01 0.45614664E+03</pdfrwt>
<pdfrwt beam="2">  1       21 0.24894755E-01 0.45614664E+03</pdfrwt>
<totfact> 0.66345364E+04</totfact>
</mgrwt>
</event>
<event>
 7    0  0.4691878E-002  0.4830211E+03  0.7546771E-02  0.1018308E+00
         21   -1    0    0  502  501  0.00000000000E+00  0.00000000000E+00  0.88817087145E+03  0.88817087145E+03  0.00000000000E+00 0. -1.
         21   -1    0    0  501  502 -0.00000000000E+00 -0.00000000000E+00 -0.65671317293E+02  0.65671317293E+02  0.00000000000E+00 0. -1.
      99926    2    1    2    0    0  0.00000000000E+00  0.00000000000E+00  0.82249955415E+03  0.95384218874E+03  0.48302112214E+03 0.  0.
      99925    2    3    3    0    0 -0.69257624863E+02  0.25495636520E+02  0.27578756191E+03  0.38816723203E+03  0.26299881109E+03 0.  0.
         25    1    4    4    0    0 -0.52226784014E+02  0.38867491951E+02  0.18246431214E+03  0.23060583731E+03  0.12509000000E+03 0.  0.
         25    1    4    4    0    0 -0.17030840849E+02 -0.13371855430E+02  0.93323249771E+02  0.15756139472E+03  0.12509000000E+03 0.  0.
         25    1    3    3    0    0  0.69257624863E+02 -0.25495636520E+02  0.54671199224E+03  0.56567495671E+03  0.12509000000E+03 0.  0.
<mgrwt>
<rscale>  2 0.48302112E+03</rscale>
<asrwt>0</asrwt>
<pdfrwt beam="1">  1       21 0.13061336E+00 0.48302112E+03</pdfrwt>
<pdfrwt beam="2">  1       21 0.96575472E-02 0.48302112E+03</pdfrwt>
<totfact> 0.33108981E+04</totfact>
</mgrwt>
</event>
<event>
 7    0  0.4691878E-002  0.4533041E+03  0.7546771E-02  0.1026741E+00
         21   -1    0    0  502  501  0.00000000000E+00  0.00000000000E+00  0.38402320269E+02  0.38402320269E+02  0.00000000000E+00 0.  1.
         21   -1    0    0  501  502 -0.00000000000E+00 -0.00000000000E+00 -0.13377097889E+04  0.13377097889E+04  0.00000000000E+00 0.  1.
      99926    2    1    2    0    0  0.00000000000E+00 -0.71054273576E-14 -0.12993074686E+04  0.13761121091E+04  0.45330413516E+03 0.  0.
      99925    2    3    3    0    0 -0.14315093678E+02  0.32014054346E+02 -0.49728875752E+03  0.56363974493E+03  0.26299017496E+03 0.  0.
         25    1    3    3    0    0  0.14315093678E+02 -0.32014054346E+02 -0.80201871108E+03  0.81247236421E+03  0.12509000000E+03 0.  0.
         25    1    4    4    0    0  0.31249608634E+01  0.11799768285E+02 -0.16379767116E+03  0.20646109825E+03  0.12509000000E+03 0.  0.
         25    1    4    4    0    0 -0.17440054541E+02  0.20214286061E+02 -0.33349108635E+03  0.35717864667E+03  0.12509000000E+03 0.  0.
<mgrwt>
<rscale>  2 0.45330414E+03</rscale>
<asrwt>0</asrwt>
<pdfrwt beam="1">  1       21 0.56474015E-02 0.45330414E+03</pdfrwt>
<pdfrwt beam="2">  1       21 0.19672198E+00 0.45330414E+03</pdfrwt>
<totfact> 0.27334106E+04</totfact>
</mgrwt>
</event>
<event>
 7    0  0.4691878E-002  0.4548532E+03  0.7546771E-02  0.1026285E+00
         21   -1    0    0  502  501  0.00000000000E+00  0.00000000000E+00  0.10627898703E+03  0.10627898703E+03  0.00000000000E+00 0.  1.
         21   -1    0    0  501  502 -0.00000000000E+00 -0.00000000000E+00 -0.48667065457E+03  0.48667065457E+03  0.00000000000E+00 0.  1.
      99926    2    1    2    0    0 -0.14210854715E-13  0.17763568394E-14 -0.38039166755E+03  0.59294964160E+03  0.45485322548E+03 0.  0.
      99925    2    3    3    0    0  0.99271899448E+02 -0.11714327739E+02 -0.30821129526E+03  0.41730895799E+03  0.26298370368E+03 0.  0.
         25    1    4    4    0    0  0.28371962378E+02  0.26574391804E+02 -0.16625778546E+03  0.21166087469E+03  0.12509000000E+03 0.  0.
         25    1    4    4    0    0  0.70899937070E+02 -0.38288719543E+02 -0.14195350980E+03  0.20564808330E+03  0.12509000000E+03 0.  0.
         25    1    3    3    0    0 -0.99271899448E+02  0.11714327739E+02 -0.72180372290E+02  0.17564068361E+03  0.12509000000E+03 0.  0.
<mgrwt>
<rscale>  2 0.45485323E+03</rscale>
<asrwt>0</asrwt>
<pdfrwt beam="1">  1       21 0.15629263E-01 0.45485323E+03</pdfrwt>
<pdfrwt beam="2">  1       21 0.71569214E-01 0.45485323E+03</pdfrwt>
<totfact> 0.59182964E+04</totfact>
</mgrwt>
</event>
<event>
 7    0  0.4691878E-002  0.4582392E+03  0.7546771E-02  0.1025293E+00
         21   -1    0    0  502  501  0.00000000000E+00  0.00000000000E+00  0.82726979264E+03  0.82726979264E+03  0.00000000000E+00 0. -1.
         21   -1    0    0  501  502 -0.00000000000E+00 -0.00000000000E+00 -0.63456678644E+02  0.63456678644E+02  0.00000000000E+00 0. -1.
      99926    2    1    2    0    0 -0.88817841970E-15  0.00000000000E+00  0.76381311400E+03  0.89072647129E+03  0.45823920995E+03 0.  0.
      99925    2    3    3    0    0  0.58966100521E+01 -0.99259256861E+02  0.59607770364E+03  0.65905893781E+03  0.26298837358E+03 0.  0.
         25    1    4    4    0    0 -0.12511346952E+02 -0.89450808134E+02  0.32090508829E+03  0.35606960650E+03  0.12509000000E+03 0.  0.
         25    1    3    3    0    0 -0.58966100521E+01  0.99259256861E+02  0.16773541035E+03  0.23166753348E+03  0.12509000000E+03 0.  0.
         25    1    4    4    0    0  0.18407957004E+02 -0.98084487276E+01  0.27517261535E+03  0.30298933131E+03  0.12509000000E+03 0.  0.
<mgrwt>
<rscale>  2 0.45823921E+03</rscale>
<asrwt>0</asrwt>
<pdfrwt beam="1">  1       21 0.12165732E+00 0.45823921E+03</pdfrwt>
<pdfrwt beam="2">  1       21 0.93318650E-02 0.45823921E+03</pdfrwt>
<totfact> 0.42547550E+04</totfact>
</mgrwt>
</event>
<event>
 7    0  0.4691878E-002  0.4543351E+03  0.7546771E-02  0.1026437E+00
         21   -1    0    0  502  501  0.00000000000E+00  0.00000000000E+00  0.74452555460E+02  0.74452555460E+02  0.00000000000E+00 0. -1.
         21   -1    0    0  501  502 -0.00000000000E+00 -0.00000000000E+00 -0.69312731685E+03  0.69312731685E+03  0.00000000000E+00 0. -1.
      99926    2    1    2    0    0  0.00000000000E+00  0.00000000000E+00 -0.61867476139E+03  0.76757987231E+03  0.45433511860E+03 0.  0.
      99925    2    3    3    0    0  0.84773016561E+02  0.10569124956E+02 -0.26543382667E+03  0.38322998379E+03  0.26289148598E+03 0.  0.
         25    1    4    4    0    0  0.82878026349E+02  0.93251306323E+01 -0.16075691871E+03  0.22010456680E+03  0.12509000000E+03 0.  0.
         25    1    3    3    0    0 -0.84773016561E+02 -0.10569124956E+02 -0.35324093472E+03  0.38434988851E+03  0.12509000000E+03 0.  0.
         25    1    4    4    0    0  0.18949902126E+01  0.12439943232E+01 -0.10467690796E+03  0.16312541700E+03  0.12509000000E+03 0.  0.
<mgrwt>
<rscale>  2 0.45433512E+03</rscale>
<asrwt>0</asrwt>
<pdfrwt beam="1">  1       21 0.10948906E-01 0.45433512E+03</pdfrwt>
<pdfrwt beam="2">  1       21 0.10193048E+00 0.45433512E+03</pdfrwt>
<totfact> 0.49631344E+04</totfact>
</mgrwt>
</event>
<event>
 7    0  0.4691878E-002  0.4584582E+03  0.7546771E-02  0.1025229E+00
         21   -1    0    0  502  501  0.00000000000E+00  0.00000000000E+00  0.19686027195E+04  0.19686027195E+04  0.00000000000E+00 0.  1.
         21   -1    0    0  501  502 -0.00000000000E+00 -0.00000000000E+00 -0.26692021705E+02  0.26692021705E+02  0.00000000000E+00 0.  1.
      99926    2    1    2    0    0  0.17763568394E-14 -0.14210854715E-13  0.19419106978E+04  0.19952947412E+04  0.45845822718E+03 0.  0.
      99925    2    3    3    0    0 -0.97998968749E+01  0.10551080355E+03  0.10088740032E+04  0.10479650472E+04  0.26301220145E+03 0.  0.
         25    1    3    3    0    0  0.97998968749E+01 -0.10551080355E+03  0.93303669461E+03  0.94732969405E+03  0.12509000000E+03 0.  0.
         25    1    4    4    0    0 -0.16721904527E+02  0.79966660174E+02  0.65136981962E+03  0.66828469895E+03  0.12509000000E+03 0.  0.
         25    1    4    4    0    0  0.69220076523E+01  0.25544143373E+02  0.35750418358E+03  0.37968034822E+03  0.12509000000E+03 0.  0.
<mgrwt>
<rscale>  2 0.45845823E+03</rscale>
<asrwt>0</asrwt>
<pdfrwt beam="1">  1       21 0.28950030E+00 0.45845823E+03</pdfrwt>
<pdfrwt beam="2">  1       21 0.39252986E-02 0.45845823E+03</pdfrwt>
<totfact> 0.13422738E+04</totfact>
</mgrwt>
</event>
<event>
 7    0  0.4691878E-002  0.4617865E+03  0.7546771E-02  0.1024264E+00
         21   -1    0    0  502  501  0.00000000000E+00  0.00000000000E+00  0.31363701330E+04  0.31363701330E+04  0.00000000000E+00 0. -1.
         21   -1    0    0  501  502 -0.00000000000E+00 -0.00000000000E+00 -0.16997894653E+02  0.16997894653E+02  0.00000000000E+00 0. -1.
      99926    2    1    2    0    0 -0.14210854715E-13  0.71054273576E-14  0.31193722383E+04  0.31533680276E+04  0.46178648362E+03 0.  0.
      99925    2    3    3    0    0  0.93449191500E+02 -0.59861074315E+02  0.22522457576E+04  0.22702644430E+04  0.26300872355E+03 0.  0.
         25    1    3    3    0    0 -0.93449191500E+02  0.59861074315E+02  0.86712648067E+03  0.88310358463E+03  0.12509000000E+03 0.  0.
         25    1    4    4    0    0  0.70992963544E+02 -0.19316240253E+01  0.10100468861E+04  0.10202381841E+04  0.12509000000E+03 0.  0.
         25    1    4    4    0    0  0.22456227956E+02 -0.57929450289E+02  0.12421988716E+04  0.12500262589E+04  0.12509000000E+03 0.  0.
<mgrwt>
<rscale>  2 0.46178648E+03</rscale>
<asrwt>0</asrwt>
<pdfrwt beam="1">  1       21 0.46123050E+00 0.46178648E+03</pdfrwt>
<pdfrwt beam="2">  1       21 0.24996926E-02 0.46178648E+03</pdfrwt>
<totfact> 0.23538208E+03</totfact>
</mgrwt>
</event>
<event>
 7    0  0.4691878E-002  0.4479980E+03  0.7546771E-02  0.1028321E+00
         21   -1    0    0  502  501  0.00000000000E+00  0.00000000000E+00  0.16866175186E+03  0.16866175186E+03  0.00000000000E+00 0. -1.
         21   -1    0    0  501  502 -0.00000000000E+00 -0.00000000000E+00 -0.29749216668E+03  0.29749216668E+03  0.00000000000E+00 0. -1.
      99926    2    1    2    0    0  0.00000000000E+00 -0.71054273576E-14 -0.12883041481E+03  0.46615391854E+03  0.44799799106E+03 0.  0.
      99925    2    3    3    0    0  0.71832858195E+02  0.55621452740E+02 -0.23815367893E+02  0.27925990125E+03  0.26299280442E+03 0.  0.
         25    1    4    4    0    0  0.77686668382E+02  0.25847743011E+02 -0.14583448461E+02  0.15021154860E+03  0.12509000000E+03 0.  0.
         25    1    3    3    0    0 -0.71832858195E+02 -0.55621452740E+02 -0.10501504692E+03  0.18689401730E+03  0.12509000000E+03 0.  0.
         25    1    4    4    0    0 -0.58538101866E+01  0.29773709728E+02 -0.92319194317E+01  0.12904835265E+03  0.12509000000E+03 0.  0.
<mgrwt>
<rscale>  2 0.44799799E+03</rscale>
<asrwt>0</asrwt>
<pdfrwt beam="1">  1       21 0.24803199E-01 0.44799799E+03</pdfrwt>
<pdfrwt beam="2">  1       21 0.43748847E-01 0.44799799E+03</pdfrwt>
<totfact> 0.71619401E+04</totfact>
</mgrwt>
</event>
<event>
 7    0  0.4691878E-002  0.4475916E+03  0.7546771E-02  0.1028443E+00
         21   -1    0    0  502  501  0.00000000000E+00  0.00000000000E+00  0.12026298269E+03  0.12026298269E+03  0.00000000000E+00 0. -1.
         21   -1    0    0  501  502 -0.00000000000E+00 -0.00000000000E+00 -0.41645858618E+03  0.41645858618E+03  0.00000000000E+00 0. -1.
      99926    2    1    2    0    0 -0.14210854715E-13 -0.71054273576E-14 -0.29619560349E+03  0.53672156888E+03  0.44759156267E+03 0.  0.
      99925    2    3    3    0    0 -0.97195087603E+02 -0.41434634414E+02 -0.19177990134E+03  0.34252100003E+03  0.26339588251E+03 0.  0.
         25    1    3    3    0    0  0.97195087603E+02  0.41434634414E+02 -0.10441570215E+03  0.19420056884E+03  0.12509000000E+03 0.  0.
         25    1    4    4    0    0 -0.37757884087E+02  0.15538105410E+02 -0.11225386358E+03  0.17296106070E+03  0.12509000000E+03 0.  0.
         25    1    4    4    0    0 -0.59437203517E+02 -0.56972739824E+02 -0.79526037763E+02  0.16955993933E+03  0.12509000000E+03 0.  0.
<mgrwt>
<rscale>  2 0.44759156E+03</rscale>
<asrwt>0</asrwt>
<pdfrwt beam="1">  1       21 0.17685732E-01 0.44759156E+03</pdfrwt>
<pdfrwt beam="2">  1       21 0.61243911E-01 0.44759156E+03</pdfrwt>
<totfact> 0.66570868E+04</totfact>
</mgrwt>
</event>
<event>
 7    0  0.4691878E-002  0.4630894E+03  0.7546771E-02  0.1023889E+00
         21   -1    0    0  502  501  0.00000000000E+00  0.00000000000E+00  0.40177792093E+02  0.40177792093E+02  0.00000000000E+00 0.  1.
         21   -1    0    0  501  502 -0.00000000000E+00 -0.00000000000E+00 -0.13343924204E+04  0.13343924204E+04  0.00000000000E+00 0.  1.
      99926    2    1    2    0    0  0.00000000000E+00  0.00000000000E+00 -0.12942146283E+04  0.13745702125E+04  0.46308937037E+03 0.  0.
      99925    2    3    3    0    0  0.11788169639E+03  0.13346358169E+02 -0.87280039477E+03  0.91925528418E+03  0.26301241180E+03 0.  0.
         25    1    4    4    0    0  0.14820037363E+02  0.10846775131E+02 -0.38426300345E+03  0.40452793471E+03  0.12509000000E+03 0.  0.
         25    1    3    3    0    0 -0.11788169639E+03 -0.13346358169E+02 -0.42141423354E+03  0.45531492832E+03  0.12509000000E+03 0.  0.
         25    1    4    4    0    0  0.10306165902E+03  0.24995830383E+01 -0.48853739132E+03  0.51472734947E+03  0.12509000000E+03 0.  0.
<mgrwt>
<rscale>  2 0.46308937E+03</rscale>
<asrwt>0</asrwt>
<pdfrwt beam="1">  1       21 0.59084979E-02 0.46308937E+03</pdfrwt>
<pdfrwt beam="2">  1       21 0.19623421E+00 0.46308937E+03</pdfrwt>
<totfact> 0.25383786E+04</totfact>
</mgrwt>
</event>
<event>
 7    0  0.4691878E-002  0.4514914E+03  0.7546771E-02  0.1027278E+00
         21   -1    0    0  502  501  0.00000000000E+00  0.00000000000E+00  0.33194068413E+03  0.33194068413E+03  0.00000000000E+00 0. -1.
         21   -1    0    0  501  502 -0.00000000000E+00 -0.00000000000E+00 -0.15352477914E+03  0.15352477914E+03  0.00000000000E+00 0. -1.
      99926    2    1    2    0    0  0.00000000000E+00  0.00000000000E+00  0.17841590500E+03  0.48546546327E+03  0.45149139623E+03 0.  0.
      99925    2    3    3    0    0 -0.85326701613E+02  0.68431376685E+02  0.12377156128E+03  0.31054544805E+03  0.26297447899E+03 0.  0.
         25    1    4    4    0    0 -0.32522633892E+01  0.27740825483E+02  0.39731140154E+02  0.13418719094E+03  0.12509000000E+03 0.  0.
         25    1    3    3    0    0  0.85326701613E+02 -0.68431376685E+02  0.54644343718E+02  0.17492001522E+03  0.12509000000E+03 0.  0.
         25    1    4    4    0    0 -0.82074438224E+02  0.40690551202E+02  0.84040421126E+02  0.17635825711E+03  0.12509000000E+03 0.  0.
<mgrwt>
<rscale>  2 0.45149140E+03</rscale>
<asrwt>0</asrwt>
<pdfrwt beam="1">  1       21 0.48814807E-01 0.45149140E+03</pdfrwt>
<pdfrwt beam="2">  1       21 0.22577173E-01 0.45149140E+03</pdfrwt>
<totfact> 0.68183806E+04</totfact>
</mgrwt>
</event>
<event>
 7    0  0.4691878E-002  0.4571218E+03  0.7546771E-02  0.1025619E+00
         21   -1    0    0  502  501  0.00000000000E+00  0.00000000000E+00  0.31311508195E+02  0.31311508195E+02  0.00000000000E+00 0. -1.
         21   -1    0    0  501  502 -0.00000000000E+00 -0.00000000000E+00 -0.16683989400E+04  0.16683989400E+04  0.00000000000E+00 0. -1.
      99926    2    1    2    0    0 -0.14210854715E-13  0.00000000000E+00 -0.16370874319E+04  0.16997104482E+04  0.45712180908E+03 0.  0.
      99925    2    3    3    0    0 -0.10422294665E+03  0.20062015784E+02 -0.85984530622E+03  0.90534419956E+03  0.26277226255E+03 0.  0.
         25    1    3    3    0    0  0.10422294665E+03 -0.20062015784E+02 -0.77724212563E+03  0.79436624868E+03  0.12509000000E+03 0.  0.
         25    1    4    4    0    0 -0.12292708699E+02  0.12548656653E+02 -0.33735447453E+03  0.36022788490E+03  0.12509000000E+03 0.  0.
         25    1    4    4    0    0 -0.91930237949E+02  0.75133591316E+01 -0.52249083169E+03  0.54511631466E+03  0.12509000000E+03 0.  0.
<mgrwt>
<rscale>  2 0.45712181E+03</rscale>
<asrwt>0</asrwt>
<pdfrwt beam="1">  1       21 0.46046321E-02 0.45712181E+03</pdfrwt>
<pdfrwt beam="2">  1       21 0.24535286E+00 0.45712181E+03</pdfrwt>
<totfact> 0.18953491E+04</totfact>
</mgrwt>
</event>
<event>
 7    0  0.4691878E-002  0.4600443E+03  0.7546771E-02  0.1024768E+00
         21   -1    0    0  502  501  0.00000000000E+00  0.00000000000E+00  0.47175170072E+03  0.47175170072E+03  0.00000000000E+00 0.  1.
         21   -1    0    0  501  502 -0.00000000000E+00 -0.00000000000E+00 -0.11215684726E+03  0.11215684726E+03  0.00000000000E+00 0.  1.
      99926    2    1    2    0    0  0.00000000000E+00  0.00000000000E+00  0.35959485346E+03  0.58390854798E+03  0.46004427370E+03 0.  0.
      99925    2    3    3    0    0  0.87194124352E+02  0.48052472711E+02  0.30528225413E+03  0.41506180681E+03  0.26299656525E+03 0.  0.
         25    1    4    4    0    0  0.38845880490E+02 -0.60235257303E+01  0.18622159702E+03  0.22775266538E+03  0.12509000000E+03 0.  0.
         25    1    4    4    0    0  0.48348243862E+02  0.54075998442E+02  0.11906065711E+03  0.18730914143E+03  0.12509000000E+03 0.  0.
         25    1    3    3    0    0 -0.87194124352E+02 -0.48052472711E+02  0.54312599330E+02  0.16884674116E+03  0.12509000000E+03 0.  0.
<mgrwt>
<rscale>  2 0.46004427E+03</rscale>
<asrwt>0</asrwt>
<pdfrwt beam="1">  1       21 0.69375249E-01 0.46004427E+03</pdfrwt>
<pdfrwt beam="2">  1       21 0.16493654E-01 0.46004427E+03</pdfrwt>
<totfact> 0.57358226E+04</totfact>
</mgrwt>
</event>
<event>
 7    0  0.4691878E-002  0.4460937E+03  0.7546771E-02  0.1028893E+00
         21   -1    0    0  502  501  0.00000000000E+00  0.00000000000E+00  0.29973921924E+03  0.29973921924E+03  0.00000000000E+00 0. -1.
         21   -1    0    0  501  502 -0.00000000000E+00 -0.00000000000E+00 -0.16597724799E+03  0.16597724799E+03  0.00000000000E+00 0. -1.
      99926    2    1    2    0    0  0.00000000000E+00  0.00000000000E+00  0.13376197125E+03  0.46571646722E+03  0.44609367053E+03 0.  0.
      99925    2    3    3    0    0  0.81243619716E+02 -0.50953548260E+02  0.12867548201E+03  0.30801367620E+03  0.26290350935E+03 0.  0.
         25    1    3    3    0    0 -0.81243619716E+02  0.50953548260E+02  0.50864892366E+01  0.15770279103E+03  0.12509000000E+03 0.  0.
         25    1    4    4    0    0  0.33005505090E+02 -0.44001122290E+02  0.10350825184E+03  0.17142616028E+03  0.12509000000E+03 0.  0.
         25    1    4    4    0    0  0.48238114625E+02 -0.69524259703E+01  0.25167230166E+02  0.13658751591E+03  0.12509000000E+03 0.  0.
<mgrwt>
<rscale>  2 0.44609367E+03</rscale>
<asrwt>0</asrwt>
<pdfrwt beam="1">  1       21 0.44079297E-01 0.44609367E+03</pdfrwt>
<pdfrwt beam="2">  1       21 0.24408419E-01 0.44609367E+03</pdfrwt>
<totfact> 0.72762829E+04</totfact>
</mgrwt>
</event>
<event>
 7    0  0.4691878E-002  0.4576978E+03  0.7546771E-02  0.1025451E+00
         21   -1    0    0  502  501  0.00000000000E+00  0.00000000000E+00  0.21730984954E+03  0.21730984954E+03  0.00000000000E+00 0. -1.
         21   -1    0    0  501  502 -0.00000000000E+00 -0.00000000000E+00 -0.24100064418E+03  0.24100064418E+03  0.00000000000E+00 0. -1.
      99926    2    1    2    0    0 -0.35527136788E-14 -0.17763568394E-14 -0.23690794634E+02  0.45831049372E+03  0.45769777682E+03 0.  0.
      99925    2    3    3    0    0  0.11128003033E+02 -0.89164435272E+01 -0.12982989832E+03  0.29364005664E+03  0.26299305114E+03 0.  0.
         25    1    3    3    0    0 -0.11128003033E+02  0.89164435272E+01  0.10613910369E+03  0.16467043708E+03  0.12509000000E+03 0.  0.
         25    1    4    4    0    0  0.37886909848E+02  0.99277328591E+01 -0.87446440291E+02  0.15757019337E+03  0.12509000000E+03 0.  0.
         25    1    4    4    0    0 -0.26758906815E+02 -0.18844176386E+02 -0.42383458029E+02  0.13606986328E+03  0.12509000000E+03 0.  0.
<mgrwt>
<rscale>  2 0.45769778E+03</rscale>
<asrwt>0</asrwt>
<pdfrwt beam="1">  1       21 0.31957331E-01 0.45769778E+03</pdfrwt>
<pdfrwt beam="2">  1       21 0.35441271E-01 0.45769778E+03</pdfrwt>
<totfact> 0.66853316E+04</totfact>
</mgrwt>
</event>
<event>
 7    0  0.4691878E-002  0.4587159E+03  0.7546771E-02  0.1025154E+00
         21   -1    0    0  502  501  0.00000000000E+00  0.00000000000E+00  0.12201492279E+03  0.12201492279E+03  0.00000000000E+00 0. -1.
         21   -1    0    0  501  502 -0.00000000000E+00 -0.00000000000E+00 -0.43113642169E+03  0.43113642169E+03  0.00000000000E+00 0. -1.
      99926    2    1    2    0    0  0.00000000000E+00  0.00000000000E+00 -0.30912149890E+03  0.55315134449E+03  0.45871593478E+03 0.  0.
      99925    2    3    3    0    0 -0.65252768395E+02  0.95795854674E+02 -0.18030207429E+03  0.33943021354E+03  0.26319054374E+03 0.  0.
         25    1    4    4    0    0 -0.43052369796E+01  0.45181711773E+02 -0.49870349569E+02  0.14210729049E+03  0.12509000000E+03 0.  0.
         25    1    4    4    0    0 -0.60947531415E+02  0.50614142901E+02 -0.13043172472E+03  0.19732292305E+03  0.12509000000E+03 0.  0.
         25    1    3    3    0    0  0.65252768395E+02 -0.95795854674E+02 -0.12881942461E+03  0.21372113095E+03  0.12509000000E+03 0.  0.
<mgrwt>
<rscale>  2 0.45871593E+03</rscale>
<asrwt>0</asrwt>
<pdfrwt beam="1">  1       21 0.17943371E-01 0.45871593E+03</pdfrwt>
<pdfrwt beam="2">  1       21 0.63402416E-01 0.45871593E+03</pdfrwt>
<totfact> 0.59878915E+04</totfact>
</mgrwt>
</event>
<event>
 7    0  0.4691878E-002  0.4464849E+03  0.7546771E-02  0.1028775E+00
         21   -1    0    0  502  501  0.00000000000E+00  0.00000000000E+00  0.40133108665E+02  0.40133108665E+02  0.00000000000E+00 0.  1.
         21   -1    0    0  501  502 -0.00000000000E+00 -0.00000000000E+00 -0.12417974458E+04  0.12417974458E+04  0.00000000000E+00 0.  1.
      99926    2    1    2    0    0  0.00000000000E+00  0.00000000000E+00 -0.12016643371E+04  0.12819305544E+04  0.44648490156E+03 0.  0.
      99925    2    3    3    0    0 -0.42289501306E+02 -0.89102284284E+02 -0.65819556668E+03  0.71559723251E+03  0.26292656048E+03 0.  0.
         25    1    4    4    0    0 -0.49759618460E+02 -0.74372433994E+02 -0.38889501068E+03  0.41820343853E+03  0.12509000000E+03 0.  0.
         25    1    4    4    0    0  0.74701171542E+01 -0.14729850290E+02 -0.26930055599E+03  0.29739379398E+03  0.12509000000E+03 0.  0.
         25    1    3    3    0    0  0.42289501306E+02  0.89102284284E+02 -0.54346877041E+03  0.56633332190E+03  0.12509000000E+03 0.  0.
<mgrwt>
<rscale>  2 0.44648490E+03</rscale>
<asrwt>0</asrwt>
<pdfrwt beam="1">  1       21 0.59019291E-02 0.44648490E+03</pdfrwt>
<pdfrwt beam="2">  1       21 0.18261723E+00 0.44648490E+03</pdfrwt>
<totfact> 0.31691707E+04</totfact>
</mgrwt>
</event>
<event>
 7    0  0.4691878E-002  0.4631404E+03  0.7546771E-02  0.1023874E+00
         21   -1    0    0  502  501  0.00000000000E+00  0.00000000000E+00  0.61666603796E+03  0.61666603796E+03  0.00000000000E+00 0. -1.
         21   -1    0    0  501  502 -0.00000000000E+00 -0.00000000000E+00 -0.86959149950E+02  0.86959149950E+02  0.00000000000E+00 0. -1.
      99926    2    1    2    0    0  0.71054273576E-14 -0.14210854715E-13  0.52970688801E+03  0.70362518791E+03  0.46314038677E+03 0.  0.
      99925    2    3    3    0    0 -0.46282291409E+02  0.10430152392E+03  0.39029259098E+03  0.48429732213E+03  0.26304891419E+03 0.  0.
         25    1    3    3    0    0  0.46282291409E+02 -0.10430152392E+03  0.13941429703E+03  0.21932786578E+03  0.12509000000E+03 0.  0.
         25    1    4    4    0    0 -0.50227634539E+02  0.44194462542E+02  0.14773060500E+03  0.20481163430E+03  0.12509000000E+03 0.  0.
         25    1    4    4    0    0  0.39453431305E+01  0.60107061379E+02  0.24256198598E+03  0.27948568783E+03  0.12509000000E+03 0.  0.
<mgrwt>
<rscale>  2 0.46314039E+03</rscale>
<asrwt>0</asrwt>
<pdfrwt beam="1">  1       21 0.90686180E-01 0.46314039E+03</pdfrwt>
<pdfrwt beam="2">  1       21 0.12788111E-01 0.46314039E+03</pdfrwt>
<totfact> 0.49461180E+04</totfact>
</mgrwt>
</event>
<event>
 7    0  0.4691878E-002  0.4542833E+03  0.7546771E-02  0.1026452E+00
         21   -1    0    0  502  501  0.00000000000E+00  0.00000000000E+00  0.44371417319E+03  0.44371417319E+03  0.00000000000E+00 0.  1.
         21   -1    0    0  501  502 -0.00000000000E+00 -0.00000000000E+00 -0.11627604395E+03  0.11627604395E+03  0.00000000000E+00 0.  1.
      99926    2    1    2    0    0  0.00000000000E+00  0.00000000000E+00  0.32743812924E+03  0.55999021714E+03  0.45428329796E+03 0.  0.
      99925    2    3    3    0    0 -0.95388419878E+02  0.53321277227E+02  0.23919255502E+03  0.37190274089E+03  0.26297616061E+03 0.  0.
         25    1    3    3    0    0  0.95388419878E+02 -0.53321277227E+02  0.88245574222E+02  0.18808747625E+03  0.12509000000E+03 0.  0.
         25    1    4    4    0    0 -0.88049080664E+02  0.40853764208E+02  0.14436000942E+03  0.21426383521E+03  0.12509000000E+03 0.  0.
         25    1    4    4    0    0 -0.73393392141E+01  0.12467513019E+02  0.94832545596E+02  0.15763890568E+03  0.12509000000E+03 0.  0.
<mgrwt>
<rscale>  2 0.45428330E+03</rscale>
<asrwt>0</asrwt>
<pdfrwt beam="1">  1       21 0.65252084E-01 0.45428330E+03</pdfrwt>
<pdfrwt beam="2">  1       21 0.17099418E-01 0.45428330E+03</pdfrwt>
<totfact> 0.61559378E+04</totfact>
</mgrwt>
</event>
<event>
 7    0  0.4691878E-002  0.4423841E+03  0.7546771E-02  0.1030018E+00
         21   -1    0    0  502  501  0.00000000000E+00  0.00000000000E+00  0.86782683144E+02  0.86782683144E+02  0.00000000000E+00 0. -1.
         21   -1    0    0  501  502 -0.00000000000E+00 -0.00000000000E+00 -0.56377510983E+03  0.56377510983E+03  0.00000000000E+00 0. -1.
      99926    2    1    2    0    0  0.00000000000E+00  0.35527136788E-14 -0.47699242669E+03  0.65055779298E+03  0.44238407169E+03 0.  0.
      99925    2    3    3    0    0  0.92177144796E+02  0.20407423819E+02 -0.25029059041E+03  0.37495968043E+03  0.26274758482E+03 0.  0.
         25    1    4    4    0    0  0.50070908338E+02  0.44898923827E+02 -0.10151071378E+03  0.17457073734E+03  0.12509000000E+03 0.  0.
         25    1    3    3    0    0 -0.92177144796E+02 -0.20407423819E+02 -0.22670183628E+03  0.27559811255E+03  0.12509000000E+03 0.  0.
         25    1    4    4    0    0  0.42106236458E+02 -0.24491500008E+02 -0.14877987663E+03  0.20038894309E+03  0.12509000000E+03 0.  0.
<mgrwt>
<rscale>  2 0.44238407E+03</rscale>
<asrwt>0</asrwt>
<pdfrwt beam="1">  1       21 0.12762159E-01 0.44238407E+03</pdfrwt>
<pdfrwt beam="2">  1       21 0.82908108E-01 0.44238407E+03</pdfrwt>
<totfact> 0.61570718E+04</totfact>
</mgrwt>
</event>
<event>
 7    0  0.4691878E-002  0.4544290E+03  0.7546771E-02  0.1026409E+00
         21   -1    0    0  502  501  0.00000000000E+00  0.00000000000E+00  0.14254852716E+03  0.14254852716E+03  0.00000000000E+00 0. -1.
         21   -1    0    0  501  502 -0.00000000000E+00 -0.00000000000E+00 -0.36216735585E+03  0.36216735585E+03  0.00000000000E+00 0. -1.
      99926    2    1    2    0    0 -0.14210854715E-13  0.00000000000E+00 -0.21961882869E+03  0.50471588301E+03  0.45442897426E+03 0.  0.
      99925    2    3    3    0    0 -0.64895756382E+02 -0.91962749335E+02 -0.13442825828E+03  0.31610637146E+03  0.26302789774E+03 0.  0.
         25    1    3    3    0    0  0.64895756382E+02  0.91962749335E+02 -0.85190570415E+02  0.18860951156E+03  0.12509000000E+03 0.  0.
         25    1    4    4    0    0 -0.12959320773E+02 -0.74683393060E+02 -0.93371587882E+02  0.17352612114E+03  0.12509000000E+03 0.  0.
         25    1    4    4    0    0 -0.51936435609E+02 -0.17279356275E+02 -0.41056670393E+02  0.14258025032E+03  0.12509000000E+03 0.  0.
<mgrwt>
<rscale>  2 0.45442897E+03</rscale>
<asrwt>0</asrwt>
<pdfrwt beam="1">  1       21 0.20963019E-01 0.45442897E+03</pdfrwt>
<pdfrwt beam="2">  1       21 0.53259905E-01 0.45442897E+03</pdfrwt>
<totfact> 0.65235784E+04</totfact>
</mgrwt>
</event>
<event>
 7    0  0.4691878E-002  0.4593833E+03  0.7546771E-02  0.1024960E+00
         21   -1    0    0  502  501  0.00000000000E+00  0.00000000000E+00  0.38480183869E+03  0.38480183869E+03  0.00000000000E+00 0.  1.
         21   -1    0    0  501  502 -0.00000000000E+00 -0.00000000000E+00 -0.13710497788E+03  0.13710497788E+03  0.00000000000E+00 0.  1.
      99926    2    1    2    0    0  0.00000000000E+00  0.00000000000E+00  0.24769686082E+03  0.52190681657E+03  0.45938327170E+03 0.  0.
      99925    2    3    3    0    0  0.11376227865E+02 -0.10440567772E+03  0.95998800606E+02  0.29899478533E+03  0.26296795971E+03 0.  0.
         25    1    4    4    0    0  0.41206919970E+01 -0.26081083722E+02  0.10502369012E+02  0.12827708636E+03  0.12509000000E+03 0.  0.
         25    1    3    3    0    0 -0.11376227865E+02  0.10440567772E+03  0.15169806021E+03  0.22291203124E+03  0.12509000000E+03 0.  0.
         25    1    4    4    0    0  0.72555358680E+01 -0.78324593994E+02  0.85496431594E+02  0.17071769897E+03  0.12509000000E+03 0.  0.
<mgrwt>
<rscale>  2 0.45938327E+03</rscale>
<asrwt>0</asrwt>
<pdfrwt beam="1">  1       21 0.56588506E-01 0.45938327E+03</pdfrwt>
<pdfrwt beam="2">  1       21 0.20162497E-01 0.45938327E+03</pdfrwt>
<totfact> 0.61587682E+04</totfact>
</mgrwt>
</event>
<event>
 7    0  0.4691878E-002  0.4550861E+03  0.7546771E-02  0.1026216E+00
         21   -1    0    0  502  501  0.00000000000E+00  0.00000000000E+00  0.21402415333E+02  0.21402415333E+02  0.00000000000E+00 0. -1.
         21   -1    0    0  501  502 -0.00000000000E+00 -0.00000000000E+00 -0.24191584909E+04  0.24191584909E+04  0.00000000000E+00 0. -1.
      99926    2    1    2    0    0 -0.14210854715E-13  0.00000000000E+00 -0.23977560756E+04  0.24405609062E+04  0.45508607880E+03 0.  0.
      99925    2    3    3    0    0 -0.83358475365E+02  0.32404411697E+02 -0.18823844367E+04  0.19027374077E+04  0.26275424613E+03 0.  0.
         25    1    4    4    0    0 -0.41072478466E+02  0.54155086384E+02 -0.10644261969E+04  0.10739042595E+04  0.12509000000E+03 0.  0.
         25    1    4    4    0    0 -0.42285996899E+02 -0.21750674687E+02 -0.81795823988E+03  0.82883314827E+03  0.12509000000E+03 0.  0.
         25    1    3    3    0    0  0.83358475365E+02 -0.32404411697E+02 -0.51537163882E+03  0.53782349848E+03  0.12509000000E+03 0.  0.
<mgrwt>
<rscale>  2 0.45508608E+03</rscale>
<asrwt>0</asrwt>
<pdfrwt beam="1">  1       21 0.31474154E-02 0.45508608E+03</pdfrwt>
<pdfrwt beam="2">  1       21 0.35575844E+00 0.45508608E+03</pdfrwt>
<totfact> 0.77540938E+03</totfact>
</mgrwt>
</event>
<event>
 7    0  0.4691878E-002  0.4549751E+03  0.7546771E-02  0.1026249E+00
         21   -1    0    0  502  501  0.00000000000E+00  0.00000000000E+00  0.36473454246E+02  0.36473454246E+02  0.00000000000E+00 0.  1.
         21   -1    0    0  501  502 -0.00000000000E+00 -0.00000000000E+00 -0.14188563725E+04  0.14188563725E+04  0.00000000000E+00 0.  1.
      99926    2    1    2    0    0  0.71054273576E-14  0.71054273576E-14 -0.13823829182E+04  0.14553298267E+04  0.45497513331E+03 0.  0.
      99925    2    3    3    0    0 -0.36325018954E+02  0.40395307752E+02 -0.11871854441E+04  0.12172104241E+04  0.26313618146E+03 0.  0.
         25    1    4    4    0    0  0.13871559408E+02  0.19623859376E+02 -0.45807547019E+03  0.47545573979E+03  0.12509000000E+03 0.  0.
         25    1    4    4    0    0 -0.50196578362E+02  0.20771448377E+02 -0.72910997392E+03  0.74175468432E+03  0.12509000000E+03 0.  0.
         25    1    3    3    0    0  0.36325018954E+02 -0.40395307752E+02 -0.19519747411E+03  0.23811940259E+03  0.12509000000E+03 0.  0.
<mgrwt>
<rscale>  2 0.45497513E+03</rscale>
<asrwt>0</asrwt>
<pdfrwt beam="1">  1       21 0.53637449E-02 0.45497513E+03</pdfrwt>
<pdfrwt beam="2">  1       21 0.20865529E+00 0.45497513E+03</pdfrwt>
<totfact> 0.24898896E+04</totfact>
</mgrwt>
</event>
<event>
 7    0  0.4691878E-002  0.4411008E+03  0.7546771E-02  0.1030410E+00
         21   -1    0    0  502  501  0.00000000000E+00  0.00000000000E+00  0.46765968947E+03  0.46765968947E+03  0.00000000000E+00 0. -1.
         21   -1    0    0  501  502 -0.00000000000E+00 -0.00000000000E+00 -0.10401253419E+03  0.10401253419E+03  0.00000000000E+00 0. -1.
      99926    2    1    2    0    0  0.00000000000E+00  0.00000000000E+00  0.36364715528E+03  0.57167222366E+03  0.44110075692E+03 0.  0.
      99925    2    3    3    0    0 -0.18681970161E+02 -0.96434793226E+02  0.25229264055E+03  0.37751759094E+03  0.26309555230E+03 0.  0.
         25    1    4    4    0    0  0.30016470879E+02 -0.47525968389E+02  0.13805770506E+03  0.19459482064E+03  0.12509000000E+03 0.  0.
         25    1    4    4    0    0 -0.48698441041E+02 -0.48908824837E+02  0.11423493549E+03  0.18292277030E+03  0.12509000000E+03 0.  0.
         25    1    3    3    0    0  0.18681970161E+02  0.96434793226E+02  0.11135451473E+03  0.19415463272E+03  0.12509000000E+03 0.  0.
<mgrwt>
<rscale>  2 0.44110076E+03</rscale>
<asrwt>0</asrwt>
<pdfrwt beam="1">  1       21 0.68773483E-01 0.44110076E+03</pdfrwt>
<pdfrwt beam="2">  1       21 0.15295961E-01 0.44110076E+03</pdfrwt>
<totfact> 0.67583767E+04</totfact>
</mgrwt>
</event>
<event>
 7    0  0.4691878E-002  0.4544642E+03  0.7546771E-02  0.1026399E+00
         21   -1    0    0  502  501  0.00000000000E+00  0.00000000000E+00  0.15140493387E+03  0.15140493387E+03  0.00000000000E+00 0. -1.
         21   -1    0    0  501  502 -0.00000000000E+00 -0.00000000000E+00 -0.34103534035E+03  0.34103534035E+03  0.00000000000E+00 0. -1.
      99926    2    1    2    0    0  0.00000000000E+00  0.26645352591E-14 -0.18963040647E+03  0.49244027422E+03  0.45446422589E+03 0.  0.
      99925    2    3    3    0    0  0.77842562118E+02 -0.58632868675E+01 -0.31547266348E+02  0.27626527589E+03  0.26312246206E+03 0.  0.
         25    1    4    4    0    0  0.58445028469E+02 -0.23850278738E+02 -0.46285867629E+02  0.14756200998E+03  0.12509000000E+03 0.  0.
         25    1    3    3    0    0 -0.77842562118E+02  0.58632868675E+01 -0.15808314012E+03  0.21617499833E+03  0.12509000000E+03 0.  0.
         25    1    4    4    0    0  0.19397533649E+02  0.17986991870E+02  0.14738601281E+02  0.12870326591E+03  0.12509000000E+03 0.  0.
<mgrwt>
<rscale>  2 0.45446423E+03</rscale>
<asrwt>0</asrwt>
<pdfrwt beam="1">  1       21 0.22265432E-01 0.45446423E+03</pdfrwt>
<pdfrwt beam="2">  1       21 0.50152254E-01 0.45446423E+03</pdfrwt>
<totfact> 0.66085718E+04</totfact>
</mgrwt>
</event>
<event>
 7    0  0.4691878E-002  0.4510140E+03  0.7546771E-02  0.1027420E+00
         21   -1    0    0  502  501  0.00000000000E+00  0.00000000000E+00  0.50707409318E+03  0.50707409318E+03  0.00000000000E+00 0.  1.
         21   -1    0    0  501  502 -0.00000000000E+00 -0.00000000000E+00 -0.10028792850E+03  0.10028792850E+03  0.00000000000E+00 0.  1.
      99926    2    1    2    0    0  0.00000000000E+00  0.00000000000E+00  0.40678616468E+03  0.60736202168E+03  0.45101401487E+03 0.  0.
      99925    2    3    3    0    0  0.16391306621E+02  0.58357805040E+02  0.37935517205E+03  0.46567830421E+03  0.26319503814E+03 0.  0.
         25    1    4    4    0    0  0.16783808859E+02  0.10544144263E+02  0.24599759677E+03  0.27668610543E+03  0.12509000000E+03 0.  0.
         25    1    4    4    0    0 -0.39250223823E+00  0.47813660777E+02  0.13335757528E+03  0.18899219878E+03  0.12509000000E+03 0.  0.
         25    1    3    3    0    0 -0.16391306621E+02 -0.58357805040E+02  0.27430992621E+02  0.14168371748E+03  0.12509000000E+03 0.  0.
<mgrwt>
<rscale>  2 0.45101401E+03</rscale>
<asrwt>0</asrwt>
<pdfrwt beam="1">  1       21 0.74569719E-01 0.45101401E+03</pdfrwt>
<pdfrwt beam="2">  1       21 0.14748225E-01 0.45101401E+03</pdfrwt>
<totfact> 0.60097431E+04</totfact>
</mgrwt>
</event>
<event>
 7    0  0.4691878E-002  0.4506469E+03  0.7546771E-02  0.1027529E+00
         21   -1    0    0  502  501  0.00000000000E+00  0.00000000000E+00  0.23621432532E+03  0.23621432532E+03  0.00000000000E+00 0. -1.
         21   -1    0    0  501  502 -0.00000000000E+00 -0.00000000000E+00 -0.21493471039E+03  0.21493471039E+03  0.00000000000E+00 0. -1.
      99926    2    1    2    0    0  0.00000000000E+00  0.00000000000E+00  0.21279614927E+02  0.45114903571E+03  0.45064690214E+03 0.  0.
      99925    2    3    3    0    0  0.28531199253E+02  0.10184673463E+03  0.39828474484E+02  0.28629044486E+03  0.26303825721E+03 0.  0.
         25    1    4    4    0    0  0.14222308409E+02  0.51299031752E+02 -0.21082105324E+02  0.13757117423E+03  0.12509000000E+03 0.  0.
         25    1    4    4    0    0  0.14308890845E+02  0.50547702877E+02  0.60910579808E+02  0.14871927063E+03  0.12509000000E+03 0.  0.
         25    1    3    3    0    0 -0.28531199253E+02 -0.10184673463E+03 -0.18548859556E+02  0.16485859085E+03  0.12509000000E+03 0.  0.
<mgrwt>
<rscale>  2 0.45064690E+03</rscale>
<asrwt>0</asrwt>
<pdfrwt beam="1">  1       21 0.34737401E-01 0.45064690E+03</pdfrwt>
<pdfrwt beam="2">  1       21 0.31608046E-01 0.45064690E+03</pdfrwt>
<totfact> 0.71272368E+04</totfact>
</mgrwt>
</event>
<event>
 7    0  0.4691878E-002  0.4549119E+03  0.7546771E-02  0.1026267E+00
         21   -1    0    0  502  501  0.00000000000E+00  0.00000000000E+00  0.35280413609E+03  0.35280413609E+03  0.00000000000E+00 0. -1.
         21   -1    0    0  501  502 -0.00000000000E+00 -0.00000000000E+00 -0.14664287400E+03  0.14664287400E+03  0.00000000000E+00 0. -1.
      99926    2    1    2    0    0  0.71054273576E-14  0.71054273576E-14  0.20616126209E+03  0.49944701009E+03  0.45491191444E+03 0.  0.
      99925    2    3    3    0    0  0.58263852336E+02 -0.47032963059E+02  0.36214812240E+02  0.27553613492E+03  0.26268207574E+03 0.  0.
         25    1    4    4    0    0 -0.11440642618E+02 -0.26654155935E+02  0.13419646188E+02  0.12910820011E+03  0.12509000000E+03 0.  0.
         25    1    3    3    0    0 -0.58263852336E+02  0.47032963059E+02  0.16994644985E+03  0.22391087517E+03  0.12509000000E+03 0.  0.
         25    1    4    4    0    0  0.69704494953E+02 -0.20378807124E+02  0.22795166052E+02  0.14642793481E+03  0.12509000000E+03 0.  0.
<mgrwt>
<rscale>  2 0.45491191E+03</rscale>
<asrwt>0</asrwt>
<pdfrwt beam="1">  1       21 0.51882961E-01 0.45491191E+03</pdfrwt>
<pdfrwt beam="2">  1       21 0.21565129E-01 0.45491191E+03</pdfrwt>
<totfact> 0.65355214E+04</totfact>
</mgrwt>
</event>
<event>
 7    0  0.4691878E-002  0.4250533E+03  0.7546771E-02  0.1035434E+00
         21   -1    0    0  502  501  0.00000000000E+00  0.00000000000E+00  0.26512082646E+02  0.26512082646E+02  0.00000000000E+00 0. -1.
         21   -1    0    0  501  502 -0.00000000000E+00 -0.00000000000E+00 -0.17036599398E+04  0.17036599398E+04  0.00000000000E+00 0. -1.
      99926    2    1    2    0    0  0.00000000000E+00  0.71054273576E-14 -0.16771478572E+04  0.17301720225E+04  0.42505328196E+03 0.  0.
      99925    2    3    3    0    0  0.51025514186E+02 -0.41228775772E+02 -0.12871598523E+04  0.13153930848E+04  0.26301153442E+03 0.  0.
         25    1    3    3    0    0 -0.51025514186E+02  0.41228775772E+02 -0.38998800490E+03  0.41477893765E+03  0.12509000000E+03 0.  0.
         25    1    4    4    0    0  0.89217619058E+01  0.17745191485E+00 -0.46196238453E+03  0.47868192168E+03  0.12509000000E+03 0.  0.
         25    1    4    4    0    0  0.42103752281E+02 -0.41406227686E+02 -0.82519746777E+03  0.83671116316E+03  0.12509000000E+03 0.  0.
<mgrwt>
<rscale>  2 0.42505328E+03</rscale>
<asrwt>0</asrwt>
<pdfrwt beam="1">  1       21 0.38988347E-02 0.42505328E+03</pdfrwt>
<pdfrwt beam="2">  1       21 0.25053829E+00 0.42505328E+03</pdfrwt>
<totfact> 0.23686408E+04</totfact>
</mgrwt>
</event>
<event>
 7    0  0.4691878E-002  0.4590768E+03  0.7546771E-02  0.1025049E+00
         21   -1    0    0  502  501  0.00000000000E+00  0.00000000000E+00  0.61306676634E+03  0.61306676634E+03  0.00000000000E+00 0.  1.
         21   -1    0    0  501  502 -0.00000000000E+00 -0.00000000000E+00 -0.85941509577E+02  0.85941509577E+02  0.00000000000E+00 0.  1.
      99926    2    1    2    0    0  0.00000000000E+00  0.00000000000E+00  0.52712525676E+03  0.69900827592E+03  0.45907682743E+03 0.  0.
      99925    2    3    3    0    0  0.37491608579E+02 -0.11095836855E+03  0.34439287359E+03  0.44849677473E+03  0.26234619361E+03 0.  0.
         25    1    3    3    0    0 -0.37491608579E+02  0.11095836855E+03  0.18273238317E+03  0.25051150118E+03  0.12509000000E+03 0.  0.
         25    1    4    4    0    0  0.53947157683E+02 -0.43796814012E+02  0.19342749263E+03  0.24060374009E+03  0.12509000000E+03 0.  0.
         25    1    4    4    0    0 -0.16455549104E+02 -0.67161554540E+02  0.15096538096E+03  0.20789303464E+03  0.12509000000E+03 0.  0.
<mgrwt>
<rscale>  2 0.45907683E+03</rscale>
<asrwt>0</asrwt>
<pdfrwt beam="1">  1       21 0.90156875E-01 0.45907683E+03</pdfrwt>
<pdfrwt beam="2">  1       21 0.12638458E-01 0.45907683E+03</pdfrwt>
<totfact> 0.51291236E+04</totfact>
</mgrwt>
</event>
<event>
 7    0  0.4691878E-002  0.4443518E+03  0.7546771E-02  0.1029420E+00
         21   -1    0    0  502  501  0.00000000000E+00  0.00000000000E+00  0.51363559587E+03  0.51363559587E+03  0.00000000000E+00 0. -1.
         21   -1    0    0  501  502 -0.00000000000E+00 -0.00000000000E+00 -0.96103403013E+02  0.96103403013E+02  0.00000000000E+00 0. -1.
      99926    2    1    2    0    0  0.00000000000E+00  0.00000000000E+00  0.41753219286E+03  0.60973899888E+03  0.44435179159E+03 0.  0.
      99925    2    3    3    0    0  0.95717198285E+02 -0.24533409034E+02  0.23499418175E+03  0.36739357639E+03  0.26456020923E+03 0.  0.
         25    1    4    4    0    0  0.37941052421E+02 -0.45814419718E+02  0.14969780684E+03  0.20394956726E+03  0.12509000000E+03 0.  0.
         25    1    4    4    0    0  0.57776145864E+02  0.21281010684E+02  0.85296374911E+02  0.16344400913E+03  0.12509000000E+03 0.  0.
         25    1    3    3    0    0 -0.95717198285E+02  0.24533409034E+02  0.18253801110E+03  0.24234542249E+03  0.12509000000E+03 0.  0.
<mgrwt>
<rscale>  2 0.44435179E+03</rscale>
<asrwt>0</asrwt>
<pdfrwt beam="1">  1       21 0.75534645E-01 0.44435179E+03</pdfrwt>
<pdfrwt beam="2">  1       21 0.14132854E-01 0.44435179E+03</pdfrwt>
<totfact> 0.63235755E+04</totfact>
</mgrwt>
</event>
<event>
 7    0  0.4691878E-002  0.4492753E+03  0.7546771E-02  0.1027938E+00
         21   -1    0    0  502  501  0.00000000000E+00  0.00000000000E+00  0.11132352332E+03  0.11132352332E+03  0.00000000000E+00 0.  1.
         21   -1    0    0  501  502 -0.00000000000E+00 -0.00000000000E+00 -0.45329201142E+03  0.45329201142E+03  0.00000000000E+00 0.  1.
      99926    2    1    2    0    0  0.14210854715E-13 -0.71054273576E-14 -0.34196848811E+03  0.56461553474E+03  0.44927525551E+03 0.  0.
      99925    2    3    3    0    0  0.96093635037E+02 -0.48571746866E+02 -0.21724575263E+03  0.35774245739E+03  0.26304134180E+03 0.  0.
         25    1    3    3    0    0 -0.96093635037E+02  0.48571746866E+02 -0.12472273547E+03  0.20687307735E+03  0.12509000000E+03 0.  0.
         25    1    4    4    0    0  0.79329967846E+02 -0.48362641039E+02 -0.14192973687E+03  0.21076941703E+03  0.12509000000E+03 0.  0.
         25    1    4    4    0    0  0.16763667190E+02 -0.20910582641E+00 -0.75316015769E+02  0.14697304037E+03  0.12509000000E+03 0.  0.
<mgrwt>
<rscale>  2 0.44927526E+03</rscale>
<asrwt>0</asrwt>
<pdfrwt beam="1">  1       21 0.16371106E-01 0.44927526E+03</pdfrwt>
<pdfrwt beam="2">  1       21 0.66660590E-01 0.44927526E+03</pdfrwt>
<totfact> 0.63748540E+04</totfact>
</mgrwt>
</event>
<event>
 7    0  0.4691878E-002  0.4644882E+03  0.7546771E-02  0.1023488E+00
         21   -1    0    0  502  501  0.00000000000E+00  0.00000000000E+00  0.26678349404E+03  0.26678349404E+03  0.00000000000E+00 0.  1.
         21   -1    0    0  501  502 -0.00000000000E+00 -0.00000000000E+00 -0.20217636056E+03  0.20217636056E+03  0.00000000000E+00 0.  1.
      99926    2    1    2    0    0  0.00000000000E+00  0.00000000000E+00  0.64607133478E+02  0.46895985461E+03  0.46448817373E+03 0.  0.
      99925    2    3    3    0    0 -0.14271975788E+02 -0.68692295323E+02  0.14090078430E+03  0.30650816952E+03  0.26300552511E+03 0.  0.
         25    1    4    4    0    0  0.24484639704E+02 -0.27348965103E+02  0.96451772471E+02  0.16216632199E+03  0.12509000000E+03 0.  0.
         25    1    4    4    0    0 -0.38756615493E+02 -0.41343330220E+02  0.44449011831E+02  0.14434184754E+03  0.12509000000E+03 0.  0.
         25    1    3    3    0    0  0.14271975788E+02  0.68692295323E+02 -0.76293650823E+02  0.16245168508E+03  0.12509000000E+03 0.  0.
<mgrwt>
<rscale>  2 0.46448817E+03</rscale>
<asrwt>0</asrwt>
<pdfrwt beam="1">  1       21 0.39232867E-01 0.46448817E+03</pdfrwt>
<pdfrwt beam="2">  1       21 0.29731818E-01 0.46448817E+03</pdfrwt>
<totfact> 0.62655645E+04</totfact>
</mgrwt>
</event>
<event>
 7    0  0.4691878E-002  0.4550013E+03  0.7546771E-02  0.1026241E+00
         21   -1    0    0  502  501  0.00000000000E+00  0.00000000000E+00  0.40795713689E+03  0.40795713689E+03  0.00000000000E+00 0.  1.
         21   -1    0    0  501  502 -0.00000000000E+00 -0.00000000000E+00 -0.12686761586E+03  0.12686761586E+03  0.00000000000E+00 0.  1.
      99926    2    1    2    0    0  0.00000000000E+00  0.00000000000E+00  0.28108952104E+03  0.53482475275E+03  0.45500131573E+03 0.  0.
      99925    2    3    3    0    0  0.47476686201E+02 -0.81116892083E+02  0.25113123209E+03  0.37551689642E+03  0.26289172267E+03 0.  0.
         25    1    4    4    0    0  0.29079965883E+02 -0.77031498754E+02  0.10887784679E+03  0.18515234224E+03  0.12509000000E+03 0.  0.
         25    1    4    4    0    0  0.18396720318E+02 -0.40853933289E+01  0.14225338529E+03  0.19036455417E+03  0.12509000000E+03 0.  0.
         25    1    3    3    0    0 -0.47476686201E+02  0.81116892083E+02  0.29958288950E+02  0.15930785634E+03  0.12509000000E+03 0.  0.
<mgrwt>
<rscale>  2 0.45500132E+03</rscale>
<asrwt>0</asrwt>
<pdfrwt beam="1">  1       21 0.59993696E-01 0.45500132E+03</pdfrwt>
<pdfrwt beam="2">  1       21 0.18657002E-01 0.45500132E+03</pdfrwt>
<totfact> 0.62879924E+04</totfact>
</mgrwt>
</event>
<event>
 7    0  0.4691878E-002  0.4530434E+03  0.7546771E-02  0.1026818E+00
         21   -1    0    0  502  501  0.00000000000E+00  0.00000000000E+00  0.16152874833E+03  0.16152874833E+03  0.00000000000E+00 0. -1.
         21   -1    0    0  501  502 -0.00000000000E+00 -0.00000000000E+00 -0.31766528447E+03  0.31766528447E+03  0.00000000000E+00 0. -1.
      99926    2    1    2    0    0 -0.71054273576E-14  0.71054273576E-14 -0.15613653614E+03  0.47919403279E+03  0.45304337888E+03 0.  0.
      99925    2    3    3    0    0  0.59744235782E+02 -0.62261412903E+02 -0.17279748839E+03  0.32631842102E+03  0.26301878765E+03 0.  0.
         25    1    4    4    0    0  0.42405986418E+02 -0.41724872283E+02 -0.45407246906E+02  0.14576885409E+03  0.12509000000E+03 0.  0.
         25    1    3    3    0    0 -0.59744235782E+02  0.62261412903E+02  0.16660952252E+02  0.15287561178E+03  0.12509000000E+03 0.  0.
         25    1    4    4    0    0  0.17338249365E+02 -0.20536540620E+02 -0.12739024149E+03  0.18054956693E+03  0.12509000000E+03 0.  0.
<mgrwt>
<rscale>  2 0.45304338E+03</rscale>
<asrwt>0</asrwt>
<pdfrwt beam="1">  1       21 0.23754228E-01 0.45304338E+03</pdfrwt>
<pdfrwt beam="2">  1       21 0.46715482E-01 0.45304338E+03</pdfrwt>
<totfact> 0.67805782E+04</totfact>
</mgrwt>
</event>
<event>
 7    0  0.4691878E-002  0.3957068E+03  0.7546771E-02  0.1045276E+00
         21   -1    0    0  502  501  0.00000000000E+00  0.00000000000E+00  0.25511115591E+02  0.25511115591E+02  0.00000000000E+00 0. -1.
         21   -1    0    0  501  502 -0.00000000000E+00 -0.00000000000E+00 -0.15344669607E+04  0.15344669607E+04  0.00000000000E+00 0. -1.
      99926    2    1    2    0    0 -0.71054273576E-14 -0.35527136788E-14 -0.15089558451E+04  0.15599780763E+04  0.39570678035E+03 0.  0.
      99925    2    3    3    0    0 -0.35191953278E+02 -0.18106506232E+01 -0.10477894471E+04  0.10808500070E+04  0.26293014308E+03 0.  0.
         25    1    4    4    0    0 -0.15801389717E+01  0.36249018934E+02 -0.50609131737E+03  0.52258245075E+03  0.12509000000E+03 0.  0.
         25    1    3    3    0    0  0.35191953278E+02  0.18106506232E+01 -0.46116639800E+03  0.47912806929E+03  0.12509000000E+03 0.  0.
         25    1    4    4    0    0 -0.33611814307E+02 -0.38059669557E+02 -0.54169812971E+03  0.55826755623E+03  0.12509000000E+03 0.  0.
<mgrwt>
<rscale>  2 0.39570678E+03</rscale>
<asrwt>0</asrwt>
<pdfrwt beam="1">  1       21 0.37516362E-02 0.39570678E+03</pdfrwt>
<pdfrwt beam="2">  1       21 0.22565681E+00 0.39570678E+03</pdfrwt>
<totfact> 0.36472438E+04</totfact>
</mgrwt>
</event>
<event>
 7    0  0.4691878E-002  0.4539158E+03  0.7546771E-02  0.1026561E+00
         21   -1    0    0  502  501  0.00000000000E+00  0.00000000000E+00  0.18732387919E+03  0.18732387919E+03  0.00000000000E+00 0. -1.
         21   -1    0    0  501  502 -0.00000000000E+00 -0.00000000000E+00 -0.27497764094E+03  0.27497764094E+03  0.00000000000E+00 0. -1.
      99926    2    1    2    0    0  0.00000000000E+00 -0.71054273576E-14 -0.87653761748E+02  0.46230152013E+03  0.45391575602E+03 0.  0.
      99925    2    3    3    0    0  0.52838026544E+02  0.40967883771E+02  0.36333950948E+02  0.27391180292E+03  0.26312980683E+03 0.  0.
         25    1    4    4    0    0  0.41189352585E+02  0.36959375966E+02 -0.16079291459E+02  0.13772657678E+03  0.12509000000E+03 0.  0.
         25    1    3    3    0    0 -0.52838026544E+02 -0.40967883771E+02 -0.12398771270E+03  0.18838971721E+03  0.12509000000E+03 0.  0.
         25    1    4    4    0    0  0.11648673959E+02  0.40085078047E+01  0.52413242407E+02  0.13618522614E+03  0.12509000000E+03 0.  0.
<mgrwt>
<rscale>  2 0.45391576E+03</rscale>
<asrwt>0</asrwt>
<pdfrwt beam="1">  1       21 0.27547630E-01 0.45391576E+03</pdfrwt>
<pdfrwt beam="2">  1       21 0.40437888E-01 0.45391576E+03</pdfrwt>
<totfact> 0.68600331E+04</totfact>
</mgrwt>
</event>
<event>
 7    0  0.4691878E-002  0.4497157E+03  0.7546771E-02  0.1027807E+00
         21   -1    0    0  502  501  0.00000000000E+00  0.00000000000E+00  0.27555755747E+03  0.27555755747E+03  0.00000000000E+00 0. -1.
         21   -1    0    0  501  502 -0.00000000000E+00 -0.00000000000E+00 -0.18348633963E+03  0.18348633963E+03  0.00000000000E+00 0. -1.
      99926    2    1    2    0    0 -0.71054273576E-14 -0.14210854715E-13  0.92071217833E+02  0.45904389710E+03  0.44971567719E+03 0.  0.
      99925    2    3    3    0    0  0.53510434877E+02  0.80511889336E+02  0.10743675611E+03  0.30020706626E+03  0.26312752631E+03 0.  0.
         25    1    4    4    0    0 -0.83941507164E+01  0.58938502821E+02  0.43696484235E+02  0.14526217579E+03  0.12509000000E+03 0.  0.
         25    1    3    3    0    0 -0.53510434877E+02 -0.80511889336E+02 -0.15365538277E+02  0.15883683084E+03  0.12509000000E+03 0.  0.
         25    1    4    4    0    0  0.61904585593E+02  0.21573386516E+02  0.63740271875E+02  0.15494489047E+03  0.12509000000E+03 0.  0.
<mgrwt>
<rscale>  2 0.44971568E+03</rscale>
<asrwt>0</asrwt>
<pdfrwt beam="1">  1       21 0.40523170E-01 0.44971568E+03</pdfrwt>
<pdfrwt beam="2">  1       21 0.26983285E-01 0.44971568E+03</pdfrwt>
<totfact> 0.71197886E+04</totfact>
</mgrwt>
</event>
<event>
 7    0  0.4691878E-002  0.4481099E+03  0.7546771E-02  0.1028287E+00
         21   -1    0    0  502  501  0.00000000000E+00  0.00000000000E+00  0.23948076783E+03  0.23948076783E+03  0.00000000000E+00 0. -1.
         21   -1    0    0  501  502 -0.00000000000E+00 -0.00000000000E+00 -0.20962272575E+03  0.20962272575E+03  0.00000000000E+00 0. -1.
      99926    2    1    2    0    0  0.00000000000E+00  0.00000000000E+00  0.29858042073E+02  0.44910349358E+03  0.44810985848E+03 0.  0.
      99925    2    3    3    0    0  0.74415951509E+02 -0.35427590075E+02 -0.48854118507E+02  0.27988186287E+03  0.26297202188E+03 0.  0.
         25    1    4    4    0    0  0.26406087302E+02 -0.56603922784E+02 -0.28893720259E+02  0.14277128805E+03  0.12509000000E+03 0.  0.
         25    1    3    3    0    0 -0.74415951509E+02  0.35427590075E+02  0.78712160580E+02  0.16922163071E+03  0.12509000000E+03 0.  0.
         25    1    4    4    0    0  0.48009864207E+02  0.21176332709E+02 -0.19960398248E+02  0.13711057482E+03  0.12509000000E+03 0.  0.
<mgrwt>
<rscale>  2 0.44810986E+03</rscale>
<asrwt>0</asrwt>
<pdfrwt beam="1">  1       21 0.35217760E-01 0.44810986E+03</pdfrwt>
<pdfrwt beam="2">  1       21 0.30826871E-01 0.44810986E+03</pdfrwt>
<totfact> 0.72906312E+04</totfact>
</mgrwt>
</event>
<event>
 7    0  0.4691878E-002  0.4378237E+03  0.7546771E-02  0.1031417E+00
         21   -1    0    0  502  501  0.00000000000E+00  0.00000000000E+00  0.26939608594E+03  0.26939608594E+03  0.00000000000E+00 0.  1.
         21   -1    0    0  501  502 -0.00000000000E+00 -0.00000000000E+00 -0.17788822385E+03  0.17788822385E+03  0.00000000000E+00 0.  1.
      99926    2    1    2    0    0  0.00000000000E+00  0.35527136788E-14  0.91507862089E+02  0.44728430978E+03  0.43782366879E+03 0.  0.
      99925    2    3    3    0    0  0.61607993670E+02 -0.31353097721E+02  0.12673692107E+03  0.30008663209E+03  0.26308017405E+03 0.  0.
         25    1    3    3    0    0 -0.61607993670E+02  0.31353097721E+02 -0.35229058981E+02  0.14719767769E+03  0.12509000000E+03 0.  0.
         25    1    4    4    0    0  0.20911830814E+02 -0.53600286222E+02  0.52088144309E+02  0.14721065936E+03  0.12509000000E+03 0.  0.
         25    1    4    4    0    0  0.40696162856E+02  0.22247188501E+02  0.74648776761E+02  0.15287597273E+03  0.12509000000E+03 0.  0.
<mgrwt>
<rscale>  2 0.43782367E+03</rscale>
<asrwt>0</asrwt>
<pdfrwt beam="1">  1       21 0.39617072E-01 0.43782367E+03</pdfrwt>
<pdfrwt beam="2">  1       21 0.26160033E-01 0.43782367E+03</pdfrwt>
<totfact> 0.79447730E+04</totfact>
</mgrwt>
</event>
<event>
 7    0  0.4691878E-002  0.4532015E+03  0.7546771E-02  0.1026772E+00
         21   -1    0    0  502  501  0.00000000000E+00  0.00000000000E+00  0.78308410520E+03  0.78308410520E+03  0.00000000000E+00 0.  1.
         21   -1    0    0  501  502 -0.00000000000E+00 -0.00000000000E+00 -0.65571359782E+02  0.65571359782E+02  0.00000000000E+00 0.  1.
      99926    2    1    2    0    0  0.00000000000E+00  0.00000000000E+00  0.71751274542E+03  0.84865546498E+03  0.45320145455E+03 0.  0.
      99925    2    3    3    0    0 -0.72169388809E+02 -0.16048022140E+02  0.29609624104E+03  0.40289169575E+03  0.26302618663E+03 0.  0.
         25    1    4    4    0    0 -0.23721814087E+02  0.28156290882E+02  0.16384768211E+03  0.20940170059E+03  0.12509000000E+03 0.  0.
         25    1    4    4    0    0 -0.48447574722E+02 -0.44204313022E+02  0.13224855893E+03  0.19348999516E+03  0.12509000000E+03 0.  0.
         25    1    3    3    0    0  0.72169388809E+02  0.16048022140E+02  0.42141650438E+03  0.44576376923E+03  0.12509000000E+03 0.  0.
<mgrwt>
<rscale>  2 0.45320145E+03</rscale>
<asrwt>0</asrwt>
<pdfrwt beam="1">  1       21 0.11515942E+00 0.45320145E+03</pdfrwt>
<pdfrwt beam="2">  1       21 0.96428475E-02 0.45320145E+03</pdfrwt>
<totfact> 0.46147234E+04</totfact>
</mgrwt>
</event>
<event>
 7    0  0.4691878E-002  0.4579577E+03  0.7546771E-02  0.1025375E+00
         21   -1    0    0  502  501  0.00000000000E+00  0.00000000000E+00  0.75409268462E+02  0.75409268462E+02  0.00000000000E+00 0.  1.
         21   -1    0    0  501  502 -0.00000000000E+00 -0.00000000000E+00 -0.69529017646E+03  0.69529017646E+03  0.00000000000E+00 0.  1.
      99926    2    1    2    0    0  0.00000000000E+00  0.00000000000E+00 -0.61988090800E+03  0.77069944492E+03  0.45795774292E+03 0.  0.
      99925    2    3    3    0    0  0.30245043946E+01 -0.88136131172E+02 -0.51560604691E+03  0.58550257670E+03  0.26303335619E+03 0.  0.
         25    1    4    4    0    0  0.50331268757E+01 -0.86739157934E+02 -0.28126842352E+03  0.31985691809E+03  0.12509000000E+03 0.  0.
         25    1    4    4    0    0 -0.20086224811E+01 -0.13969732384E+01 -0.23433762339E+03  0.26564565860E+03  0.12509000000E+03 0.  0.
         25    1    3    3    0    0 -0.30245043946E+01  0.88136131172E+02 -0.10427486109E+03  0.18519686823E+03  0.12509000000E+03 0.  0.
<mgrwt>
<rscale>  2 0.45795774E+03</rscale>
<asrwt>0</asrwt>
<pdfrwt beam="1">  1       21 0.11089599E-01 0.45795774E+03</pdfrwt>
<pdfrwt beam="2">  1       21 0.10224855E+00 0.45795774E+03</pdfrwt>
<totfact> 0.48088363E+04</totfact>
</mgrwt>
</event>
<event>
 7    0  0.4691878E-002  0.4559919E+03  0.7546771E-02  0.1025950E+00
         21   -1    0    0  502  501  0.00000000000E+00  0.00000000000E+00  0.50300876645E+03  0.50300876645E+03  0.00000000000E+00 0.  1.
         21   -1    0    0  501  502 -0.00000000000E+00 -0.00000000000E+00 -0.10334243255E+03  0.10334243255E+03  0.00000000000E+00 0.  1.
      99926    2    1    2    0    0 -0.88817841970E-15 -0.71054273576E-14  0.39966633390E+03  0.60635119900E+03  0.45599188379E+03 0.  0.
      99925    2    3    3    0    0 -0.73372134145E+01  0.55990073277E+02  0.38307568030E+03  0.46810691922E+03  0.26303685669E+03 0.  0.
         25    1    3    3    0    0  0.73372134145E+01 -0.55990073277E+02  0.16590653605E+02  0.13824427979E+03  0.12509000000E+03 0.  0.
         25    1    4    4    0    0 -0.11118524338E+02  0.50962422471E+02  0.25611645303E+03  0.28976531142E+03  0.12509000000E+03 0.  0.
         25    1    4    4    0    0  0.37813109233E+01  0.50276508062E+01  0.12695922727E+03  0.17834160780E+03  0.12509000000E+03 0.  0.
<mgrwt>
<rscale>  2 0.45599188E+03</rscale>
<asrwt>0</asrwt>
<pdfrwt beam="1">  1       21 0.73971876E-01 0.45599188E+03</pdfrwt>
<pdfrwt beam="2">  1       21 0.15197417E-01 0.45599188E+03</pdfrwt>
<totfact> 0.57834521E+04</totfact>
</mgrwt>
</event>
<event>
 7    0  0.4691878E-002  0.4506762E+03  0.7546771E-02  0.1027521E+00
         21   -1    0    0  502  501  0.00000000000E+00  0.00000000000E+00  0.36479548960E+02  0.36479548960E+02  0.00000000000E+00 0.  1.
         21   -1    0    0  501  502 -0.00000000000E+00 -0.00000000000E+00 -0.13919374429E+04  0.13919374429E+04  0.00000000000E+00 0.  1.
      99926    2    1    2    0    0  0.71054273576E-14  0.00000000000E+00 -0.13554578939E+04  0.14284169918E+04  0.45067615911E+03 0.  0.
      99925    2    3    3    0    0 -0.53091415343E+02  0.71361149556E+02 -0.65638337876E+03  0.71269092839E+03  0.26301731398E+03 0.  0.
         25    1    4    4    0    0 -0.51420566875E+02  0.52858179750E+01 -0.29359096903E+03  0.32328807551E+03  0.12509000000E+03 0.  0.
         25    1    3    3    0    0  0.53091415343E+02 -0.71361149556E+02 -0.69907451517E+03  0.71572606346E+03  0.12509000000E+03 0.  0.
         25    1    4    4    0    0 -0.16708484679E+01  0.66075331581E+02 -0.36279240973E+03  0.38940285289E+03  0.12509000000E+03 0.  0.
<mgrwt>
<rscale>  2 0.45067616E+03</rscale>
<asrwt>0</asrwt>
<pdfrwt beam="1">  1       21 0.53646392E-02 0.45067616E+03</pdfrwt>
<pdfrwt beam="2">  1       21 0.20469670E+00 0.45067616E+03</pdfrwt>
<totfact> 0.26462469E+04</totfact>
</mgrwt>
</event>
<event>
 7    0  0.4691878E-002  0.4553575E+03  0.7546771E-02  0.1026136E+00
         21   -1    0    0  502  501  0.00000000000E+00  0.00000000000E+00  0.12796267230E+03  0.12796267230E+03  0.00000000000E+00 0.  1.
         21   -1    0    0  501  502 -0.00000000000E+00 -0.00000000000E+00 -0.40509953767E+03  0.40509953767E+03  0.00000000000E+00 0.  1.
      99926    2    1    2    0    0  0.00000000000E+00  0.00000000000E+00 -0.27713686537E+03  0.53306220998E+03  0.45535752718E+03 0.  0.
      99925    2    3    3    0    0  0.46934319110E+02 -0.43939186915E+02 -0.28383840928E+03  0.39225773118E+03  0.26299886432E+03 0.  0.
         25    1    3    3    0    0 -0.46934319110E+02  0.43939186915E+02  0.67015439166E+01  0.14080447879E+03  0.12509000000E+03 0.  0.
         25    1    4    4    0    0  0.79494262502E+01  0.16540295245E+02 -0.13376096961E+03  0.18405510000E+03  0.12509000000E+03 0.  0.
         25    1    4    4    0    0  0.38984892860E+02 -0.60479482160E+02 -0.15007743967E+03  0.20820263118E+03  0.12509000000E+03 0.  0.
<mgrwt>
<rscale>  2 0.45535753E+03</rscale>
<asrwt>0</asrwt>
<pdfrwt beam="1">  1       21 0.18818040E-01 0.45535753E+03</pdfrwt>
<pdfrwt beam="2">  1       21 0.59573461E-01 0.45535753E+03</pdfrwt>
<totfact> 0.62821466E+04</totfact>
</mgrwt>
</event>
<event>
 7    0  0.4691878E-002  0.4548207E+03  0.7546771E-02  0.1026294E+00
         21   -1    0    0  502  501  0.00000000000E+00  0.00000000000E+00  0.19514546928E+03  0.19514546928E+03  0.00000000000E+00 0.  1.
         21   -1    0    0  501  502 -0.00000000000E+00 -0.00000000000E+00 -0.26500984494E+03  0.26500984494E+03  0.00000000000E+00 0.  1.
      99926    2    1    2    0    0  0.00000000000E+00 -0.35527136788E-14 -0.69864375656E+02  0.46015531422E+03  0.45482071437E+03 0.  0.
      99925    2    3    3    0    0  0.10879322528E+03 -0.28714252636E+02 -0.39978145389E+02  0.28927181873E+03  0.26347572722E+03 0.  0.
         25    1    4    4    0    0  0.69488777777E+02 -0.50195057548E+02 -0.38249874206E+02  0.15639307854E+03  0.12509000000E+03 0.  0.
         25    1    4    4    0    0  0.39304447499E+02  0.21480804911E+02 -0.17282711827E+01  0.13287874019E+03  0.12509000000E+03 0.  0.
         25    1    3    3    0    0 -0.10879322528E+03  0.28714252636E+02 -0.29886230268E+02  0.17088349549E+03  0.12509000000E+03 0.  0.
<mgrwt>
<rscale>  2 0.45482071E+03</rscale>
<asrwt>0</asrwt>
<pdfrwt beam="1">  1       21 0.28697863E-01 0.45482071E+03</pdfrwt>
<pdfrwt beam="2">  1       21 0.38972036E-01 0.45482071E+03</pdfrwt>
<totfact> 0.68266793E+04</totfact>
</mgrwt>
</event>
<event>
 7    0  0.4691878E-002  0.4477942E+03  0.7546771E-02  0.1028382E+00
         21   -1    0    0  502  501  0.00000000000E+00  0.00000000000E+00  0.17563205249E+03  0.17563205249E+03  0.00000000000E+00 0.  1.
         21   -1    0    0  501  502 -0.00000000000E+00 -0.00000000000E+00 -0.28542575467E+03  0.28542575467E+03  0.00000000000E+00 0.  1.
      99926    2    1    2    0    0  0.17763568394E-14  0.00000000000E+00 -0.10979370218E+03  0.46105780716E+03  0.44779419883E+03 0.  0.
      99925    2    3    3    0    0  0.26116718160E+01  0.10465588431E+03 -0.51115801020E+02  0.28770764380E+03  0.26306498862E+03 0.  0.
         25    1    3    3    0    0 -0.26116718160E+01 -0.10465588431E+03 -0.58677901155E+02  0.17335016335E+03  0.12509000000E+03 0.  0.
         25    1    4    4    0    0  0.34590691378E+02  0.56569093937E+02 -0.24818371365E+01  0.14159889101E+03  0.12509000000E+03 0.  0.
         25    1    4    4    0    0 -0.31979019562E+02  0.48086790375E+02 -0.48633963883E+02  0.14610875280E+03  0.12509000000E+03 0.  0.
<mgrwt>
<rscale>  2 0.44779420E+03</rscale>
<asrwt>0</asrwt>
<pdfrwt beam="1">  1       21 0.25828243E-01 0.44779420E+03</pdfrwt>
<pdfrwt beam="2">  1       21 0.41974375E-01 0.44779420E+03</pdfrwt>
<totfact> 0.72142936E+04</totfact>
</mgrwt>
</event>
<event>
 7    0  0.4691878E-002  0.4553476E+03  0.7546771E-02  0.1026139E+00
         21   -1    0    0  502  501  0.00000000000E+00  0.00000000000E+00  0.27043784549E+03  0.27043784549E+03  0.00000000000E+00 0.  1.
         21   -1    0    0  501  502 -0.00000000000E+00 -0.00000000000E+00 -0.19167202228E+03  0.19167202228E+03  0.00000000000E+00 0.  1.
      99926    2    1    2    0    0  0.00000000000E+00  0.12490009027E-14  0.78765823211E+02  0.46210986777E+03  0.45534764190E+03 0.  0.
      99925    2    3    3    0    0 -0.34273831096E+02 -0.17884827602E+00 -0.60166569668E+02  0.27204554872E+03  0.26308560772E+03 0.  0.
         25    1    4    4    0    0  0.58578849678E+01  0.11281795231E+02  0.31280141702E+01  0.12577315410E+03  0.12509000000E+03 0.  0.
         25    1    4    4    0    0 -0.40131716064E+02 -0.11460643507E+02 -0.63294583838E+02  0.14627239462E+03  0.12509000000E+03 0.  0.
         25    1    3    3    0    0  0.34273831096E+02  0.17884827602E+00  0.13893239288E+03  0.19006431905E+03  0.12509000000E+03 0.  0.
<mgrwt>
<rscale>  2 0.45534764E+03</rscale>
<asrwt>0</asrwt>
<pdfrwt beam="1">  1       21 0.39770271E-01 0.45534764E+03</pdfrwt>
<pdfrwt beam="2">  1       21 0.28187062E-01 0.45534764E+03</pdfrwt>
<totfact> 0.67837509E+04</totfact>
</mgrwt>
</event>
<event>
 7    0  0.4691878E-002  0.4691861E+03  0.7546771E-02  0.1022150E+00
         21   -1    0    0  502  501  0.00000000000E+00  0.00000000000E+00  0.75227783497E+03  0.75227783497E+03  0.00000000000E+00 0. -1.
         21   -1    0    0  501  502 -0.00000000000E+00 -0.00000000000E+00 -0.73156343380E+02  0.73156343380E+02  0.00000000000E+00 0. -1.
      99926    2    1    2    0    0  0.00000000000E+00  0.00000000000E+00  0.67912149159E+03  0.82543417835E+03  0.46918608510E+03 0.  0.
      99925    2    3    3    0    0  0.34927918655E+02 -0.87313846165E+02  0.56962039311E+03  0.63443243516E+03  0.26304648887E+03 0.  0.
         25    1    4    4    0    0  0.12020033577E+02 -0.85678209205E+02  0.30283766759E+03  0.33888552307E+03  0.12509000000E+03 0.  0.
         25    1    4    4    0    0  0.22907885078E+02 -0.16356369601E+01  0.26678272552E+03  0.29554691209E+03  0.12509000000E+03 0.  0.
         25    1    3    3    0    0 -0.34927918655E+02  0.87313846165E+02  0.10950109849E+03  0.19100174319E+03  0.12509000000E+03 0.  0.
<mgrwt>
<rscale>  2 0.46918609E+03</rscale>
<asrwt>0</asrwt>
<pdfrwt beam="1">  1       21 0.11062909E+00 0.46918609E+03</pdfrwt>
<pdfrwt beam="2">  1       21 0.10758286E-01 0.46918609E+03</pdfrwt>
<totfact> 0.41717939E+04</totfact>
</mgrwt>
</event>
<event>
 7    0  0.4691878E-002  0.4530240E+03  0.7546771E-02  0.1026824E+00
         21   -1    0    0  502  501  0.00000000000E+00  0.00000000000E+00  0.59790043144E+03  0.59790043144E+03  0.00000000000E+00 0.  1.
         21   -1    0    0  501  502 -0.00000000000E+00 -0.00000000000E+00 -0.85813108528E+02  0.85813108528E+02  0.00000000000E+00 0.  1.
      99926    2    1    2    0    0  0.00000000000E+00 -0.35527136788E-14  0.51208732292E+03  0.68371353997E+03  0.45302403739E+03 0.  0.
      99925    2    3    3    0    0  0.67998232987E+02 -0.20783615896E+02  0.45202759827E+03  0.52779562245E+03  0.26302766224E+03 0.  0.
         25    1    4    4    0    0  0.22522691567E+02 -0.49116228944E+02  0.21815276782E+03  0.25721161285E+03  0.12509000000E+03 0.  0.
         25    1    4    4    0    0  0.45475541420E+02  0.28332613047E+02  0.23387483046E+03  0.27058400960E+03  0.12509000000E+03 0.  0.
         25    1    3    3    0    0 -0.67998232987E+02  0.20783615896E+02  0.60059724643E+02  0.15591791752E+03  0.12509000000E+03 0.  0.
<mgrwt>
<rscale>  2 0.45302404E+03</rscale>
<asrwt>0</asrwt>
<pdfrwt beam="1">  1       21 0.87926532E-01 0.45302404E+03</pdfrwt>
<pdfrwt beam="2">  1       21 0.12619575E-01 0.45302404E+03</pdfrwt>
<totfact> 0.54641561E+04</totfact>
</mgrwt>
</event>
<event>
 7    0  0.4691878E-002  0.4536950E+03  0.7546771E-02  0.1026626E+00
         21   -1    0    0  502  501  0.00000000000E+00  0.00000000000E+00  0.75394971969E+02  0.75394971969E+02  0.00000000000E+00 0.  1.
         21   -1    0    0  501  502 -0.00000000000E+00 -0.00000000000E+00 -0.68253614583E+03  0.68253614583E+03  0.00000000000E+00 0.  1.
      99926    2    1    2    0    0  0.39968028887E-14  0.00000000000E+00 -0.60714117386E+03  0.75793111780E+03  0.45369502348E+03 0.  0.
      99925    2    3    3    0    0  0.31240308000E+01 -0.89770866549E+02 -0.27102214465E+03  0.38821220032E+03  0.26303448735E+03 0.  0.
         25    1    4    4    0    0  0.34930187418E+02 -0.69457863528E+02 -0.14213943955E+03  0.20468424750E+03  0.12509000000E+03 0.  0.
         25    1    3    3    0    0 -0.31240308000E+01  0.89770866549E+02 -0.33611902921E+03  0.36971891748E+03  0.12509000000E+03 0.  0.
         25    1    4    4    0    0 -0.31806156618E+02 -0.20313003020E+02 -0.12888270510E+03  0.18352795282E+03  0.12509000000E+03 0.  0.
<mgrwt>
<rscale>  2 0.45369502E+03</rscale>
<asrwt>0</asrwt>
<pdfrwt beam="1">  1       21 0.11087495E-01 0.45369502E+03</pdfrwt>
<pdfrwt beam="2">  1       21 0.10037297E+00 0.45369502E+03</pdfrwt>
<totfact> 0.50380566E+04</totfact>
</mgrwt>
</event>
<event>
 7    0  0.4691878E-002  0.4608033E+03  0.7546771E-02  0.1024548E+00
         21   -1    0    0  502  501  0.00000000000E+00  0.00000000000E+00  0.14598016436E+03  0.14598016436E+03  0.00000000000E+00 0. -1.
         21   -1    0    0  501  502 -0.00000000000E+00 -0.00000000000E+00 -0.36364482369E+03  0.36364482369E+03  0.00000000000E+00 0. -1.
      99926    2    1    2    0    0  0.00000000000E+00  0.00000000000E+00 -0.21766465933E+03  0.50962498805E+03  0.46080334691E+03 0.  0.
      99925    2    3    3    0    0  0.24913185043E+02  0.54852066839E+02 -0.24912256064E+03  0.36726444689E+03  0.26304316699E+03 0.  0.
         25    1    3    3    0    0 -0.24913185043E+02 -0.54852066839E+02  0.31457901314E+02  0.14236054116E+03  0.12509000000E+03 0.  0.
         25    1    4    4    0    0  0.40044882907E+02  0.18168844543E+02 -0.16376703518E+03  0.21071509075E+03  0.12509000000E+03 0.  0.
         25    1    4    4    0    0 -0.15131697864E+02  0.36683222296E+02 -0.85355525461E+02  0.15654935613E+03  0.12509000000E+03 0.  0.
<mgrwt>
<rscale>  2 0.46080335E+03</rscale>
<asrwt>0</asrwt>
<pdfrwt beam="1">  1       21 0.21467672E-01 0.46080335E+03</pdfrwt>
<pdfrwt beam="2">  1       21 0.53477179E-01 0.46080335E+03</pdfrwt>
<totfact> 0.61707915E+04</totfact>
</mgrwt>
</event>
<event>
 7    0  0.4691878E-002  0.4694035E+03  0.7546771E-02  0.1022089E+00
         21   -1    0    0  502  501  0.00000000000E+00  0.00000000000E+00  0.20813894351E+03  0.20813894351E+03  0.00000000000E+00 0. -1.
         21   -1    0    0  501  502 -0.00000000000E+00 -0.00000000000E+00 -0.26465456649E+03  0.26465456649E+03  0.00000000000E+00 0. -1.
      99926    2    1    2    0    0  0.00000000000E+00 -0.35527136788E-14 -0.56515622982E+02  0.47279351001E+03  0.46940354437E+03 0.  0.
      99925    2    3    3    0    0  0.12314401298E+03 -0.18417966211E+02 -0.14485744906E+02  0.29136118609E+03  0.26301679517E+03 0.  0.
         25    1    4    4    0    0  0.99108432695E+02 -0.28729469660E+02  0.41679271333E+01  0.16221203277E+03  0.12509000000E+03 0.  0.
         25    1    4    4    0    0  0.24035580283E+02  0.10311503449E+02 -0.18653672040E+02  0.12914915332E+03  0.12509000000E+03 0.  0.
         25    1    3    3    0    0 -0.12314401298E+03  0.18417966211E+02 -0.42029878076E+02  0.18143232392E+03  0.12509000000E+03 0.  0.
<mgrwt>
<rscale>  2 0.46940354E+03</rscale>
<asrwt>0</asrwt>
<pdfrwt beam="1">  1       21 0.30608668E-01 0.46940354E+03</pdfrwt>
<pdfrwt beam="2">  1       21 0.38919789E-01 0.46940354E+03</pdfrwt>
<totfact> 0.60057205E+04</totfact>
</mgrwt>
</event>
<event>
 6    0  0.4691878E-002  0.4515324E+03  0.7546771E-02  0.1027266E+00
         21   -1    0    0  502  501  0.00000000000E+00  0.00000000000E+00  0.45706832729E+03  0.45706832729E+03  0.00000000000E+00 0. -1.
         21   -1    0    0  501  502 -0.00000000000E+00 -0.00000000000E+00 -0.11151586868E+03  0.11151586868E+03  0.00000000000E+00 0. -1.
      99926    2    1    2    0    0  0.00000000000E+00  0.00000000000E+00  0.34555245861E+03  0.56858419597E+03  0.45153237564E+03 0.  0.
         25    1    3    3    0    0  0.55108474875E+02  0.88409614303E+01  0.89000656680E+02  0.16335155828E+03  0.12509000000E+03 0.  0.
         25    1    3    3    0    0 -0.90455582843E+02  0.41237002562E+02  0.75303300816E+02  0.17663747638E+03  0.12509000000E+03 0.  0.
         25    1    3    3    0    0  0.35347107969E+02 -0.50077963992E+02  0.18124850112E+03  0.22859516131E+03  0.12509000000E+03 0.  0.
<mgrwt>
<rscale>  2 0.45153238E+03</rscale>
<asrwt>0</asrwt>
<pdfrwt beam="1">  1       21 0.67215930E-01 0.45153238E+03</pdfrwt>
<pdfrwt beam="2">  1       21 0.16399393E-01 0.45153238E+03</pdfrwt>
<totfact> 0.62347083E+04</totfact>
</mgrwt>
</event>
<event>
 7    0  0.4691878E-002  0.4480119E+03  0.7546771E-02  0.1028317E+00
         21   -1    0    0  502  501  0.00000000000E+00  0.00000000000E+00  0.14856803627E+03  0.14856803627E+03  0.00000000000E+00 0.  1.
         21   -1    0    0  501  502 -0.00000000000E+00 -0.00000000000E+00 -0.33774868781E+03  0.33774868781E+03  0.00000000000E+00 0.  1.
      99926    2    1    2    0    0  0.00000000000E+00  0.00000000000E+00 -0.18918065154E+03  0.48631672408E+03  0.44801187172E+03 0.  0.
      99925    2    3    3    0    0  0.65731013157E+02  0.40019572226E+02 -0.19969284897E+03  0.33907492754E+03  0.26300654042E+03 0.  0.
         25    1    4    4    0    0  0.56476210204E+02  0.31756478312E+01 -0.66857449423E+02  0.15269929175E+03  0.12509000000E+03 0.  0.
         25    1    4    4    0    0  0.92548029531E+01  0.36843924394E+02 -0.13283539955E+03  0.18637563579E+03  0.12509000000E+03 0.  0.
         25    1    3    3    0    0 -0.65731013157E+02 -0.40019572226E+02  0.10512197434E+02  0.14724179653E+03  0.12509000000E+03 0.  0.
<mgrwt>
<rscale>  2 0.44801187E+03</rscale>
<asrwt>0</asrwt>
<pdfrwt beam="1">  1       21 0.21848241E-01 0.44801187E+03</pdfrwt>
<pdfrwt beam="2">  1       21 0.49668924E-01 0.44801187E+03</pdfrwt>
<totfact> 0.70049253E+04</totfact>
</mgrwt>
</event>
<event>
 7    0  0.4691878E-002  0.4489211E+03  0.7546771E-02  0.1028044E+00
         21   -1    0    0  502  501  0.00000000000E+00  0.00000000000E+00  0.54989370280E+02  0.54989370280E+02  0.00000000000E+00 0. -1.
         21   -1    0    0  501  502 -0.00000000000E+00 -0.00000000000E+00 -0.91622315671E+03  0.91622315671E+03  0.00000000000E+00 0. -1.
      99926    2    1    2    0    0  0.00000000000E+00 -0.17763568394E-14 -0.86123378643E+03  0.97121252699E+03  0.44892108181E+03 0.  0.
      99925    2    3    3    0    0 -0.10611510536E+03 -0.14147981264E+02 -0.52683282905E+03  0.59847657573E+03  0.26298441205E+03 0.  0.
         25    1    4    4    0    0 -0.29459377563E+02 -0.40782798163E+02 -0.25167226366E+03  0.28551274568E+03  0.12509000000E+03 0.  0.
         25    1    3    3    0    0  0.10611510536E+03  0.14147981264E+02 -0.33440095739E+03  0.37273595126E+03  0.12509000000E+03 0.  0.
         25    1    4    4    0    0 -0.76655727797E+02  0.26634816899E+02 -0.27516056539E+03  0.31296383005E+03  0.12509000000E+03 0.  0.
<mgrwt>
<rscale>  2 0.44892108E+03</rscale>
<asrwt>0</asrwt>
<pdfrwt beam="1">  1       21 0.80866719E-02 0.44892108E+03</pdfrwt>
<pdfrwt beam="2">  1       21 0.13473870E+00 0.44892108E+03</pdfrwt>
<totfact> 0.42266777E+04</totfact>
</mgrwt>
</event>
<event>
 7    0  0.4691878E-002  0.4500039E+03  0.7546771E-02  0.1027721E+00
         21   -1    0    0  502  501  0.00000000000E+00  0.00000000000E+00  0.36737541900E+03  0.36737541900E+03  0.00000000000E+00 0. -1.
         21   -1    0    0  501  502 -0.00000000000E+00 -0.00000000000E+00 -0.13780422459E+03  0.13780422459E+03  0.00000000000E+00 0. -1.
      99926    2    1    2    0    0  0.00000000000E+00  0.00000000000E+00  0.22957119441E+03  0.50517964359E+03  0.45000393220E+03 0.  0.
      99925    2    3    3    0    0 -0.96113627029E+01  0.10462917150E+03  0.11506478140E+03  0.30568310592E+03  0.26298786189E+03 0.  0.
         25    1    4    4    0    0 -0.42476212578E+01  0.95800003266E+02  0.67353771554E+02  0.17140513865E+03  0.12509000000E+03 0.  0.
         25    1    4    4    0    0 -0.53637414450E+01  0.88291682369E+01  0.47711009846E+02  0.13427796727E+03  0.12509000000E+03 0.  0.
         25    1    3    3    0    0  0.96113627029E+01 -0.10462917150E+03  0.11450641301E+03  0.19949653767E+03  0.12509000000E+03 0.  0.
<mgrwt>
<rscale>  2 0.45000393E+03</rscale>
<asrwt>0</asrwt>
<pdfrwt beam="1">  1       21 0.54025797E-01 0.45000393E+03</pdfrwt>
<pdfrwt beam="2">  1       21 0.20265327E-01 0.45000393E+03</pdfrwt>
<totfact> 0.67547212E+04</totfact>
</mgrwt>
</event>
<event>
 7    0  0.4691878E-002  0.4555653E+03  0.7546771E-02  0.1026075E+00
         21   -1    0    0  502  501  0.00000000000E+00  0.00000000000E+00  0.51839381473E+02  0.51839381473E+02  0.00000000000E+00 0. -1.
         21   -1    0    0  501  502 -0.00000000000E+00 -0.00000000000E+00 -0.10008788164E+04  0.10008788164E+04  0.00000000000E+00 0. -1.
      99926    2    1    2    0    0  0.14210854715E-13  0.00000000000E+00 -0.94903943493E+03  0.10527181979E+04  0.45556531374E+03 0.  0.
      99925    2    3    3    0    0 -0.80883297877E+02 -0.25837305023E+02 -0.77143998566E+03  0.81948280887E+03  0.26310216332E+03 0.  0.
         25    1    4    4    0    0 -0.79802610041E+02 -0.96067452989E+01 -0.46130311311E+03  0.48467392790E+03  0.12509000000E+03 0.  0.
         25    1    4    4    0    0 -0.10806878364E+01 -0.16230559725E+02 -0.31013687256E+03  0.33480888097E+03  0.12509000000E+03 0.  0.
         25    1    3    3    0    0  0.80883297877E+02  0.25837305023E+02 -0.17759944927E+03  0.23323538901E+03  0.12509000000E+03 0.  0.
<mgrwt>
<rscale>  2 0.45556531E+03</rscale>
<asrwt>0</asrwt>
<pdfrwt beam="1">  1       21 0.76234381E-02 0.45556531E+03</pdfrwt>
<pdfrwt beam="2">  1       21 0.14718807E+00 0.45556531E+03</pdfrwt>
<totfact> 0.37014215E+04</totfact>
</mgrwt>
</event>
<event>
 7    0  0.4691878E-002  0.4613071E+03  0.7546771E-02  0.1024403E+00
         21   -1    0    0  502  501  0.00000000000E+00  0.00000000000E+00  0.59791424883E+02  0.59791424883E+02  0.00000000000E+00 0. -1.
         21   -1    0    0  501  502 -0.00000000000E+00 -0.00000000000E+00 -0.88977744810E+03  0.88977744810E+03  0.00000000000E+00 0. -1.
      99926    2    1    2    0    0  0.00000000000E+00  0.35527136788E-14 -0.82998602322E+03  0.94956887298E+03  0.46130710574E+03 0.  0.
      99925    2    3    3    0    0 -0.11654140900E+03  0.18669762315E+02 -0.54994557421E+03  0.62093439333E+03  0.26303787977E+03 0.  0.
         25    1    3    3    0    0  0.11654140900E+03 -0.18669762315E+02 -0.28004044901E+03  0.32863447965E+03  0.12509000000E+03 0.  0.
         25    1    4    4    0    0 -0.27123970803E+02 -0.18159565123E+02 -0.27213378889E+03  0.30128024621E+03  0.12509000000E+03 0.  0.
         25    1    4    4    0    0 -0.89417438194E+02  0.36829327439E+02 -0.27781178532E+03  0.31965414712E+03  0.12509000000E+03 0.  0.
<mgrwt>
<rscale>  2 0.46130711E+03</rscale>
<asrwt>0</asrwt>
<pdfrwt beam="1">  1       21 0.87928567E-02 0.46130711E+03</pdfrwt>
<pdfrwt beam="2">  1       21 0.13084962E+00 0.46130711E+03</pdfrwt>
<totfact> 0.39189400E+04</totfact>
</mgrwt>
</event>
<event>
 7    0  0.4691878E-002  0.4456550E+03  0.7546771E-02  0.1029026E+00
         21   -1    0    0  502  501  0.00000000000E+00  0.00000000000E+00  0.20634327260E+03  0.20634327260E+03  0.00000000000E+00 0.  1.
         21   -1    0    0  501  502 -0.00000000000E+00 -0.00000000000E+00 -0.24062863143E+03  0.24062863143E+03  0.00000000000E+00 0.  1.
      99926    2    1    2    0    0  0.35527136788E-14 -0.14210854715E-13 -0.34285358823E+02  0.44697190403E+03  0.44565502035E+03 0.  0.
      99925    2    3    3    0    0 -0.21070364512E+02 -0.89137710837E+02 -0.71310146365E+02  0.28757355164E+03  0.26310438779E+03 0.  0.
         25    1    4    4    0    0  0.17602643324E+02 -0.52656566880E+02 -0.64996856196E+02  0.15150797505E+03  0.12509000000E+03 0.  0.
         25    1    3    3    0    0  0.21070364512E+02  0.89137710837E+02  0.37024787542E+02  0.15939835240E+03  0.12509000000E+03 0.  0.
         25    1    4    4    0    0 -0.38673007836E+02 -0.36481143956E+02 -0.63132901685E+01  0.13606557659E+03  0.12509000000E+03 0.  0.
<mgrwt>
<rscale>  2 0.44565502E+03</rscale>
<asrwt>0</asrwt>
<pdfrwt beam="1">  1       21 0.30344599E-01 0.44565502E+03</pdfrwt>
<pdfrwt beam="2">  1       21 0.35386563E-01 0.44565502E+03</pdfrwt>
<totfact> 0.74542865E+04</totfact>
</mgrwt>
</event>
<event>
 7    0  0.4691878E-002  0.4509380E+03  0.7546771E-02  0.1027443E+00
         21   -1    0    0  502  501  0.00000000000E+00  0.00000000000E+00  0.22666444993E+03  0.22666444993E+03  0.00000000000E+00 0.  1.
         21   -1    0    0  501  502 -0.00000000000E+00 -0.00000000000E+00 -0.22427986465E+03  0.22427986465E+03  0.00000000000E+00 0.  1.
      99926    2    1    2    0    0  0.00000000000E+00  0.00000000000E+00  0.23845852808E+01  0.45094431458E+03  0.45093800972E+03 0.  0.
      99925    2    3    3    0    0  0.98707923190E+01 -0.10661602883E+03 -0.22683975346E+02  0.28438996617E+03  0.26248558051E+03 0.  0.
         25    1    4    4    0    0  0.35370906508E+02 -0.75866253713E+02  0.32091135669E+01  0.15054765355E+03  0.12509000000E+03 0.  0.
         25    1    4    4    0    0 -0.25500114189E+02 -0.30749775114E+02 -0.25893088913E+02  0.13384231262E+03  0.12509000000E+03 0.  0.
         25    1    3    3    0    0 -0.98707923190E+01  0.10661602883E+03  0.25068560627E+02  0.16655434841E+03  0.12509000000E+03 0.  0.
<mgrwt>
<rscale>  2 0.45093801E+03</rscale>
<asrwt>0</asrwt>
<pdfrwt beam="1">  1       21 0.33333007E-01 0.45093801E+03</pdfrwt>
<pdfrwt beam="2">  1       21 0.32982333E-01 0.45093801E+03</pdfrwt>
<totfact> 0.71121204E+04</totfact>
</mgrwt>
</event>
<event>
 7    0  0.4691878E-002  0.4522451E+03  0.7546771E-02  0.1027055E+00
         21   -1    0    0  502  501  0.00000000000E+00  0.00000000000E+00  0.58582677623E+03  0.58582677623E+03  0.00000000000E+00 0. -1.
         21   -1    0    0  501  502 -0.00000000000E+00 -0.00000000000E+00 -0.87280754902E+02  0.87280754902E+02  0.00000000000E+00 0. -1.
      99926    2    1    2    0    0  0.00000000000E+00  0.00000000000E+00  0.49854602133E+03  0.67310753113E+03  0.45224508078E+03 0.  0.
      99925    2    3    3    0    0 -0.10557763901E+03  0.27644739669E+02  0.34022633180E+03  0.44370940193E+03  0.26308403034E+03 0.  0.
         25    1    4    4    0    0 -0.38224994828E+02  0.26467791870E+02  0.10893633608E+03  0.17226818527E+03  0.12509000000E+03 0.  0.
         25    1    3    3    0    0  0.10557763901E+03 -0.27644739669E+02  0.15831968953E+03  0.22939812921E+03  0.12509000000E+03 0.  0.
         25    1    4    4    0    0 -0.67352644181E+02  0.11769477986E+01  0.23128999571E+03  0.27144121666E+03  0.12509000000E+03 0.  0.
<mgrwt>
<rscale>  2 0.45224508E+03</rscale>
<asrwt>0</asrwt>
<pdfrwt beam="1">  1       21 0.86150995E-01 0.45224508E+03</pdfrwt>
<pdfrwt beam="2">  1       21 0.12835405E-01 0.45224508E+03</pdfrwt>
<totfact> 0.55584548E+04</totfact>
</mgrwt>
</event>
<event>
 7    0  0.4691878E-002  0.4542451E+03  0.7546771E-02  0.1026464E+00
         21   -1    0    0  502  501  0.00000000000E+00  0.00000000000E+00  0.35213137380E+02  0.35213137380E+02  0.00000000000E+00 0. -1.
         21   -1    0    0  501  502 -0.00000000000E+00 -0.00000000000E+00 -0.14649262755E+04  0.14649262755E+04  0.00000000000E+00 0. -1.
      99926    2    1    2    0    0  0.00000000000E+00  0.00000000000E+00 -0.14297131381E+04  0.15001394129E+04  0.45424508887E+03 0.  0.
      99925    2    3    3    0    0  0.10845671345E+03 -0.11701322141E+02 -0.80969871701E+03  0.85829428349E+03  0.26297772742E+03 0.  0.
         25    1    4    4    0    0  0.11796987692E+02 -0.62305187889E+01 -0.38937291925E+03  0.40919037944E+03  0.12509000000E+03 0.  0.
         25    1    3    3    0    0 -0.10845671345E+03  0.11701322141E+02 -0.62001442112E+03  0.64184512939E+03  0.12509000000E+03 0.  0.
         25    1    4    4    0    0  0.96659725757E+02 -0.54708033518E+01 -0.42032579776E+03  0.44910390405E+03  0.12509000000E+03 0.  0.
<mgrwt>
<rscale>  2 0.45424509E+03</rscale>
<asrwt>0</asrwt>
<pdfrwt beam="1">  1       21 0.51784045E-02 0.45424509E+03</pdfrwt>
<pdfrwt beam="2">  1       21 0.21543025E+00 0.45424509E+03</pdfrwt>
<totfact> 0.23915641E+04</totfact>
</mgrwt>
</event>
<event>
 7    0  0.4691878E-002  0.4632267E+03  0.7546771E-02  0.1023850E+00
         21   -1    0    0  502  501  0.00000000000E+00  0.00000000000E+00  0.74250806088E+03  0.74250806088E+03  0.00000000000E+00 0. -1.
         21   -1    0    0  501  502 -0.00000000000E+00 -0.00000000000E+00 -0.72248044384E+02  0.72248044384E+02  0.00000000000E+00 0. -1.
      99926    2    1    2    0    0  0.00000000000E+00  0.00000000000E+00  0.67026001650E+03  0.81475610527E+03  0.46322674939E+03 0.  0.
      99925    2    3    3    0    0 -0.43077687290E+02 -0.11265718395E+03  0.41356917155E+03  0.50478025746E+03  0.26308994742E+03 0.  0.
         25    1    4    4    0    0  0.70294833093E+01 -0.28507151986E+02  0.21513099261E+03  0.25058117134E+03  0.12509000000E+03 0.  0.
         25    1    4    4    0    0 -0.50107170600E+02 -0.84150031966E+02  0.19843817894E+03  0.25419908612E+03  0.12509000000E+03 0.  0.
         25    1    3    3    0    0  0.43077687290E+02  0.11265718395E+03  0.25669084495E+03  0.30997584780E+03  0.12509000000E+03 0.  0.
<mgrwt>
<rscale>  2 0.46322675E+03</rscale>
<asrwt>0</asrwt>
<pdfrwt beam="1">  1       21 0.10919236E+00 0.46322675E+03</pdfrwt>
<pdfrwt beam="2">  1       21 0.10624713E-01 0.46322675E+03</pdfrwt>
<totfact> 0.44140143E+04</totfact>
</mgrwt>
</event>
<event>
 7    0  0.4691878E-002  0.4532065E+03  0.7546771E-02  0.1026770E+00
         21   -1    0    0  502  501  0.00000000000E+00  0.00000000000E+00  0.16376111981E+04  0.16376111981E+04  0.00000000000E+00 0.  1.
         21   -1    0    0  501  502 -0.00000000000E+00 -0.00000000000E+00 -0.31356063176E+02  0.31356063176E+02  0.00000000000E+00 0.  1.
      99926    2    1    2    0    0  0.00000000000E+00  0.00000000000E+00  0.16062551349E+04  0.16689672612E+04  0.45320653209E+03 0.  0.
      99925    2    3    3    0    0 -0.20902024165E+02 -0.58043398722E+02  0.13559137804E+04  0.13823940026E+04  0.26211651520E+03 0.  0.
         25    1    3    3    0    0  0.20902024165E+02  0.58043398722E+02  0.25034135443E+03  0.28657325868E+03  0.12509000000E+03 0.  0.
         25    1    4    4    0    0  0.17573160785E+01 -0.64971686155E+02  0.65287238782E+03  0.66791786249E+03  0.12509000000E+03 0.  0.
         25    1    4    4    0    0 -0.22659340243E+02  0.69282874329E+01  0.70304139263E+03  0.71447614006E+03  0.12509000000E+03 0.  0.
<mgrwt>
<rscale>  2 0.45320653E+03</rscale>
<asrwt>0</asrwt>
<pdfrwt beam="1">  1       21 0.24082512E+00 0.45320653E+03</pdfrwt>
<pdfrwt beam="2">  1       21 0.46111869E-02 0.45320653E+03</pdfrwt>
<totfact> 0.20195020E+04</totfact>
</mgrwt>
</event>
<event>
 7    0  0.4691878E-002  0.4563744E+03  0.7546771E-02  0.1025838E+00
         21   -1    0    0  502  501  0.00000000000E+00  0.00000000000E+00  0.48378454541E+03  0.48378454541E+03  0.00000000000E+00 0. -1.
         21   -1    0    0  501  502 -0.00000000000E+00 -0.00000000000E+00 -0.10762930914E+03  0.10762930914E+03  0.00000000000E+00 0. -1.
      99926    2    1    2    0    0  0.00000000000E+00 -0.44408920985E-15  0.37615523627E+03  0.59141385455E+03  0.45637439190E+03 0.  0.
      99925    2    3    3    0    0  0.11208743236E+03  0.36443695851E+01  0.20700576204E+03  0.35301098826E+03  0.26303706658E+03 0.  0.
         25    1    4    4    0    0  0.58255239059E+02  0.34089907886E+02  0.74058765230E+02  0.16027477501E+03  0.12509000000E+03 0.  0.
         25    1    4    4    0    0  0.53832193297E+02 -0.30445538301E+02  0.13294699681E+03  0.19273621325E+03  0.12509000000E+03 0.  0.
         25    1    3    3    0    0 -0.11208743236E+03 -0.36443695851E+01  0.16914947423E+03  0.23840286629E+03  0.12509000000E+03 0.  0.
<mgrwt>
<rscale>  2 0.45637439E+03</rscale>
<asrwt>0</asrwt>
<pdfrwt beam="1">  1       21 0.71144785E-01 0.45637439E+03</pdfrwt>
<pdfrwt beam="2">  1       21 0.15827840E-01 0.45637439E+03</pdfrwt>
<totfact> 0.58571096E+04</totfact>
</mgrwt>
</event>
<event>
 7    0  0.4691878E-002  0.4497218E+03  0.7546771E-02  0.1027805E+00
         21   -1    0    0  502  501  0.00000000000E+00  0.00000000000E+00  0.16083004454E+03  0.16083004454E+03  0.00000000000E+00 0. -1.
         21   -1    0    0  501  502 -0.00000000000E+00 -0.00000000000E+00 -0.31438423693E+03  0.31438423693E+03  0.00000000000E+00 0. -1.
      99926    2    1    2    0    0  0.00000000000E+00  0.00000000000E+00 -0.15355419239E+03  0.47521428146E+03  0.44972182881E+03 0.  0.
      99925    2    3    3    0    0 -0.48831898877E+02  0.68462534715E+02 -0.16891156051E+03  0.32370510728E+03  0.26302510944E+03 0.  0.
         25    1    4    4    0    0 -0.63661889851E+02  0.24481591250E+02 -0.80467896093E+02  0.16362999398E+03  0.12509000000E+03 0.  0.
         25    1    3    3    0    0  0.48831898877E+02 -0.68462534715E+02  0.15357368120E+02  0.15150917419E+03  0.12509000000E+03 0.  0.
         25    1    4    4    0    0  0.14829990974E+02  0.43980943465E+02 -0.88443664414E+02  0.16007511329E+03  0.12509000000E+03 0.  0.
<mgrwt>
<rscale>  2 0.44972183E+03</rscale>
<asrwt>0</asrwt>
<pdfrwt beam="1">  1       21 0.23651478E-01 0.44972183E+03</pdfrwt>
<pdfrwt beam="2">  1       21 0.46232975E-01 0.44972183E+03</pdfrwt>
<totfact> 0.69934271E+04</totfact>
</mgrwt>
</event>
<event>
 7    0  0.4691878E-002  0.4349444E+03  0.7546771E-02  0.1032309E+00
         21   -1    0    0  502  501  0.00000000000E+00  0.00000000000E+00  0.29358434409E+03  0.29358434409E+03  0.00000000000E+00 0.  1.
         21   -1    0    0  501  502 -0.00000000000E+00 -0.00000000000E+00 -0.16109223231E+03  0.16109223231E+03  0.00000000000E+00 0.  1.
      99926    2    1    2    0    0  0.00000000000E+00  0.17763568394E-14  0.13249211178E+03  0.45467657640E+03  0.43494439810E+03 0.  0.
      99925    2    3    3    0    0  0.89705883889E+02 -0.10670370372E+02  0.61568644601E+02  0.28485711725E+03  0.26304348850E+03 0.  0.
         25    1    4    4    0    0  0.18493934938E+02 -0.27728100032E+02  0.59029291925E+01  0.12958867942E+03  0.12509000000E+03 0.  0.
         25    1    4    4    0    0  0.71211948951E+02  0.17057729660E+02  0.55665715409E+02  0.15526843783E+03  0.12509000000E+03 0.  0.
         25    1    3    3    0    0 -0.89705883889E+02  0.10670370372E+02  0.70923467179E+02  0.16981945915E+03  0.12509000000E+03 0.  0.
<mgrwt>
<rscale>  2 0.43494440E+03</rscale>
<asrwt>0</asrwt>
<pdfrwt beam="1">  1       21 0.43174168E-01 0.43494440E+03</pdfrwt>
<pdfrwt beam="2">  1       21 0.23690034E-01 0.43494440E+03</pdfrwt>
<totfact> 0.80685981E+04</totfact>
</mgrwt>
</event>
<event>
 7    0  0.4691878E-002  0.4553133E+03  0.7546771E-02  0.1026149E+00
         21   -1    0    0  502  501  0.00000000000E+00  0.00000000000E+00  0.14102188737E+04  0.14102188737E+04  0.00000000000E+00 0. -1.
         21   -1    0    0  501  502 -0.00000000000E+00 -0.00000000000E+00 -0.36751415666E+02  0.36751415666E+02  0.00000000000E+00 0. -1.
      99926    2    1    2    0    0  0.00000000000E+00  0.00000000000E+00  0.13734674580E+04  0.14469702893E+04  0.45531325483E+03 0.  0.
      99925    2    3    3    0    0  0.89689582647E+01 -0.10807680175E+03  0.75797625410E+03  0.80960228930E+03  0.26299587025E+03 0.  0.
         25    1    3    3    0    0 -0.89689582647E+01  0.10807680175E+03  0.61549120388E+03  0.63736800002E+03  0.12509000000E+03 0.  0.
         25    1    4    4    0    0  0.68852696345E+00 -0.18675087630E+02  0.41039670101E+03  0.42944405138E+03  0.12509000000E+03 0.  0.
         25    1    4    4    0    0  0.82804313012E+01 -0.89401714116E+02  0.34757955309E+03  0.38015823792E+03  0.12509000000E+03 0.  0.
<mgrwt>
<rscale>  2 0.45531325E+03</rscale>
<asrwt>0</asrwt>
<pdfrwt beam="1">  1       21 0.20738509E+00 0.45531325E+03</pdfrwt>
<pdfrwt beam="2">  1       21 0.54046209E-02 0.45531325E+03</pdfrwt>
<totfact> 0.25045752E+04</totfact>
</mgrwt>
</event>
<event>
 7    0  0.4691878E-002  0.4514579E+03  0.7546771E-02  0.1027288E+00
         21   -1    0    0  502  501  0.00000000000E+00  0.00000000000E+00  0.97390496332E+02  0.97390496332E+02  0.00000000000E+00 0.  1.
         21   -1    0    0  501  502 -0.00000000000E+00 -0.00000000000E+00 -0.52318828165E+03  0.52318828165E+03  0.00000000000E+00 0.  1.
      99926    2    1    2    0    0  0.00000000000E+00  0.00000000000E+00 -0.42579778531E+03  0.62057877798E+03  0.45145793348E+03 0.  0.
      99925    2    3    3    0    0 -0.97025774992E+02  0.42524372364E+02 -0.31357135567E+03  0.42192177994E+03  0.26166518690E+03 0.  0.
         25    1    4    4    0    0 -0.57077190475E+02  0.13758847917E+02 -0.10402089020E+03  0.17295943243E+03  0.12509000000E+03 0.  0.
         25    1    3    3    0    0  0.97025774992E+02 -0.42524372364E+02 -0.11222642965E+03  0.19865699804E+03  0.12509000000E+03 0.  0.
         25    1    4    4    0    0 -0.39948584516E+02  0.28765524448E+02 -0.20955046546E+03  0.24896234751E+03  0.12509000000E+03 0.  0.
<mgrwt>
<rscale>  2 0.45145793E+03</rscale>
<asrwt>0</asrwt>
<pdfrwt beam="1">  1       21 0.14322132E-01 0.45145793E+03</pdfrwt>
<pdfrwt beam="2">  1       21 0.76939453E-01 0.45145793E+03</pdfrwt>
<totfact> 0.59063835E+04</totfact>
</mgrwt>
</event>
<event>
 7    0  0.4691878E-002  0.4417174E+03  0.7546771E-02  0.1030221E+00
         21   -1    0    0  502  501  0.00000000000E+00  0.00000000000E+00  0.82903018890E+02  0.82903018890E+02  0.00000000000E+00 0.  1.
         21   -1    0    0  501  502 -0.00000000000E+00 -0.00000000000E+00 -0.58838114198E+03  0.58838114198E+03  0.00000000000E+00 0.  1.
      99926    2    1    2    0    0  0.00000000000E+00  0.00000000000E+00 -0.50547812309E+03  0.67128416087E+03  0.44171743424E+03 0.  0.
      99925    2    3    3    0    0  0.56112939813E+02  0.82713595960E+02 -0.33438242716E+03  0.43695224619E+03  0.26291720539E+03 0.  0.
         25    1    4    4    0    0 -0.11659774421E+02  0.38045158380E+02 -0.17395945624E+03  0.21792839405E+03  0.12509000000E+03 0.  0.
         25    1    3    3    0    0 -0.56112939813E+02 -0.82713595960E+02 -0.17109569593E+03  0.23433191468E+03  0.12509000000E+03 0.  0.
         25    1    4    4    0    0  0.67772714234E+02  0.44668437580E+02 -0.16042297092E+03  0.21902385214E+03  0.12509000000E+03 0.  0.
<mgrwt>
<rscale>  2 0.44171743E+03</rscale>
<asrwt>0</asrwt>
<pdfrwt beam="1">  1       21 0.12191621E-01 0.44171743E+03</pdfrwt>
<pdfrwt beam="2">  1       21 0.86526633E-01 0.44171743E+03</pdfrwt>
<totfact> 0.60584259E+04</totfact>
</mgrwt>
</event>
<event>
 7    0  0.4691878E-002  0.4527084E+03  0.7546771E-02  0.1026917E+00
         21   -1    0    0  502  501  0.00000000000E+00  0.00000000000E+00  0.24628342695E+04  0.24628342695E+04  0.00000000000E+00 0.  1.
         21   -1    0    0  501  502 -0.00000000000E+00 -0.00000000000E+00 -0.20803763246E+02  0.20803763246E+02  0.00000000000E+00 0.  1.
      99926    2    1    2    0    0  0.22204460493E-15  0.00000000000E+00  0.24420305062E+04  0.24836380327E+04  0.45270838763E+03 0.  0.
      99925    2    3    3    0    0  0.93815204736E+00  0.34443697820E+02  0.96071913217E+03  0.99665513321E+03  0.26296949475E+03 0.  0.
         25    1    4    4    0    0 -0.17849417198E+01  0.17592897500E+02  0.32853091054E+03  0.35198403847E+03  0.12509000000E+03 0.  0.
         25    1    3    3    0    0 -0.93815204736E+00 -0.34443697820E+02  0.14813113740E+04  0.14869828995E+04  0.12509000000E+03 0.  0.
         25    1    4    4    0    0  0.27230937671E+01  0.16850800321E+02  0.63218822164E+03  0.64467109473E+03  0.12509000000E+03 0.  0.
<mgrwt>
<rscale>  2 0.45270839E+03</rscale>
<asrwt>0</asrwt>
<pdfrwt beam="1">  1       21 0.36218131E+00 0.45270839E+03</pdfrwt>
<pdfrwt beam="2">  1       21 0.30593786E-02 0.45270839E+03</pdfrwt>
<totfact> 0.74321947E+03</totfact>
</mgrwt>
</event>
<event>
 7    0  0.4691878E-002  0.4460900E+03  0.7546771E-02  0.1028895E+00
         21   -1    0    0  502  501  0.00000000000E+00  0.00000000000E+00  0.10183311905E+03  0.10183311905E+03  0.00000000000E+00 0. -1.
         21   -1    0    0  501  502 -0.00000000000E+00 -0.00000000000E+00 -0.48853519317E+03  0.48853519317E+03  0.00000000000E+00 0. -1.
      99926    2    1    2    0    0 -0.71054273576E-14  0.00000000000E+00 -0.38670207413E+03  0.59036831222E+03  0.44608995722E+03 0.  0.
      99925    2    3    3    0    0  0.44409549186E+02 -0.72085817493E+02 -0.32662191769E+03  0.42780845727E+03  0.26300118983E+03 0.  0.
         25    1    4    4    0    0  0.21215041993E+01 -0.67251831044E+02 -0.19556649414E+03  0.24170451235E+03  0.12509000000E+03 0.  0.
         25    1    3    3    0    0 -0.44409549186E+02  0.72085817493E+02 -0.60080156433E+02  0.16255985494E+03  0.12509000000E+03 0.  0.
         25    1    4    4    0    0  0.42288044987E+02 -0.48339864497E+01 -0.13105542355E+03  0.18610394492E+03  0.12509000000E+03 0.  0.
<mgrwt>
<rscale>  2 0.44608996E+03</rscale>
<asrwt>0</asrwt>
<pdfrwt beam="1">  1       21 0.14975459E-01 0.44608996E+03</pdfrwt>
<pdfrwt beam="2">  1       21 0.71843410E-01 0.44608996E+03</pdfrwt>
<totfact> 0.63639394E+04</totfact>
</mgrwt>
</event>
<event>
 7    0  0.4691878E-002  0.4522786E+03  0.7546771E-02  0.1027045E+00
         21   -1    0    0  502  501  0.00000000000E+00  0.00000000000E+00  0.42792742947E+03  0.42792742947E+03  0.00000000000E+00 0.  1.
         21   -1    0    0  501  502 -0.00000000000E+00 -0.00000000000E+00 -0.11950388216E+03  0.11950388216E+03  0.00000000000E+00 0.  1.
      99926    2    1    2    0    0 -0.35527136788E-14  0.17763568394E-14  0.30842354731E+03  0.54743131163E+03  0.45227862698E+03 0.  0.
      99925    2    3    3    0    0 -0.31837396938E+02 -0.15438927015E+02  0.67562648499E+02  0.27372807638E+03  0.26288850872E+03 0.  0.
         25    1    3    3    0    0  0.31837396938E+02  0.15438927015E+02  0.24086089881E+03  0.27370323525E+03  0.12509000000E+03 0.  0.
         25    1    4    4    0    0 -0.46071261835E+02 -0.19715290363E+02  0.96958752333E+01  0.13510281987E+03  0.12509000000E+03 0.  0.
         25    1    4    4    0    0  0.14233864897E+02  0.42763633479E+01  0.57866773266E+02  0.13862525651E+03  0.12509000000E+03 0.  0.
<mgrwt>
<rscale>  2 0.45227863E+03</rscale>
<asrwt>0</asrwt>
<pdfrwt beam="1">  1       21 0.62930504E-01 0.45227863E+03</pdfrwt>
<pdfrwt beam="2">  1       21 0.17574100E-01 0.45227863E+03</pdfrwt>
<totfact> 0.63390545E+04</totfact>
</mgrwt>
</event>
<event>
 7    0  0.4691878E-002  0.4562135E+03  0.7546771E-02  0.1025885E+00
         21   -1    0    0  502  501  0.00000000000E+00  0.00000000000E+00  0.58841974693E+02  0.58841974693E+02  0.00000000000E+00 0.  1.
         21   -1    0    0  501  502 -0.00000000000E+00 -0.00000000000E+00 -0.88427837744E+03  0.88427837744E+03  0.00000000000E+00 0.  1.
      99926    2    1    2    0    0  0.00000000000E+00  0.00000000000E+00 -0.82543640275E+03  0.94312035214E+03  0.45621348471E+03 0.  0.
      99925    2    3    3    0    0 -0.26242405494E+02  0.10324277431E+03 -0.43284399664E+03  0.51753365154E+03  0.26294375967E+03 0.  0.
         25    1    4    4    0    0  0.13850392153E+02  0.26312555344E+02 -0.23533640086E+03  0.26816956128E+03  0.12509000000E+03 0.  0.
         25    1    3    3    0    0  0.26242405494E+02 -0.10324277431E+03 -0.39259240611E+03  0.42558670060E+03  0.12509000000E+03 0.  0.
         25    1    4    4    0    0 -0.40092797647E+02  0.76930218971E+02 -0.19750759579E+03  0.24936409025E+03  0.12509000000E+03 0.  0.
<mgrwt>
<rscale>  2 0.45621348E+03</rscale>
<asrwt>0</asrwt>
<pdfrwt beam="1">  1       21 0.86532326E-02 0.45621348E+03</pdfrwt>
<pdfrwt beam="2">  1       21 0.13004092E+00 0.45621348E+03</pdfrwt>
<totfact> 0.41029884E+04</totfact>
</mgrwt>
</event>
<event>
 7    0  0.4691878E-002  0.4529507E+03  0.7546771E-02  0.1026846E+00
         21   -1    0    0  502  501  0.00000000000E+00  0.00000000000E+00  0.89085082083E+03  0.89085082083E+03  0.00000000000E+00 0. -1.
         21   -1    0    0  501  502 -0.00000000000E+00 -0.00000000000E+00 -0.57575400768E+02  0.57575400768E+02  0.00000000000E+00 0. -1.
      99926    2    1    2    0    0  0.00000000000E+00  0.00000000000E+00  0.83327542007E+03  0.94842622160E+03  0.45295073919E+03 0.  0.
      99925    2    3    3    0    0  0.71911243101E+02 -0.19515650116E+02  0.35240447244E+03  0.44599566535E+03  0.26300405668E+03 0.  0.
         25    1    3    3    0    0 -0.71911243101E+02  0.19515650116E+02  0.48087094763E+03  0.50243055625E+03  0.12509000000E+03 0.  0.
         25    1    4    4    0    0  0.77933460489E+02 -0.85234870071E+01  0.18824639179E+03  0.23922894101E+03  0.12509000000E+03 0.  0.
         25    1    4    4    0    0 -0.60222173885E+01 -0.10992163109E+02  0.16415808065E+03  0.20676672434E+03  0.12509000000E+03 0.  0.
<mgrwt>
<rscale>  2 0.45295074E+03</rscale>
<asrwt>0</asrwt>
<pdfrwt beam="1">  1       21 0.13100747E+00 0.45295074E+03</pdfrwt>
<pdfrwt beam="2">  1       21 0.84669712E-02 0.45295074E+03</pdfrwt>
<totfact> 0.41871573E+04</totfact>
</mgrwt>
</event>
<event>
 7    0  0.4691878E-002  0.4508047E+03  0.7546771E-02  0.1027482E+00
         21   -1    0    0  502  501  0.00000000000E+00  0.00000000000E+00  0.40381962127E+02  0.40381962127E+02  0.00000000000E+00 0.  1.
         21   -1    0    0  501  502 -0.00000000000E+00 -0.00000000000E+00 -0.12581412908E+04  0.12581412908E+04  0.00000000000E+00 0.  1.
      99926    2    1    2    0    0  0.35527136788E-14  0.00000000000E+00 -0.12177593286E+04  0.12985232529E+04  0.45080467590E+03 0.  0.
      99925    2    3    3    0    0 -0.19288989773E+02  0.89639118909E+02 -0.59842741967E+03  0.66006670909E+03  0.26299324528E+03 0.  0.
         25    1    4    4    0    0  0.12800573504E+02  0.37996121875E+02 -0.21228367175E+03  0.24963858947E+03  0.12509000000E+03 0.  0.
         25    1    3    3    0    0  0.19288989773E+02 -0.89639118909E+02 -0.61933190896E+03  0.63845654380E+03  0.12509000000E+03 0.  0.
         25    1    4    4    0    0 -0.32089563278E+02  0.51642997034E+02 -0.38614374792E+03  0.41042811962E+03  0.12509000000E+03 0.  0.
<mgrwt>
<rscale>  2 0.45080468E+03</rscale>
<asrwt>0</asrwt>
<pdfrwt beam="1">  1       21 0.59385239E-02 0.45080468E+03</pdfrwt>
<pdfrwt beam="2">  1       21 0.18502077E+00 0.45080468E+03</pdfrwt>
<totfact> 0.30128710E+04</totfact>
</mgrwt>
</event>
<event>
 7    0  0.4691878E-002  0.4565089E+03  0.7546771E-02  0.1025799E+00
         21   -1    0    0  502  501  0.00000000000E+00  0.00000000000E+00  0.18373637927E+03  0.18373637927E+03  0.00000000000E+00 0. -1.
         21   -1    0    0  501  502 -0.00000000000E+00 -0.00000000000E+00 -0.28355896789E+03  0.28355896789E+03  0.00000000000E+00 0. -1.
      99926    2    1    2    0    0  0.71054273576E-14  0.00000000000E+00 -0.99822588630E+02  0.46729534716E+03  0.45650891807E+03 0.  0.
      99925    2    3    3    0    0 -0.63123917348E+02 -0.64696241885E+02 -0.13481992847E+03  0.30904695206E+03  0.26298930171E+03 0.  0.
         25    1    4    4    0    0 -0.57024019821E+02 -0.61009862528E+02 -0.93585997466E+02  0.17714341417E+03  0.12509000000E+03 0.  0.
         25    1    3    3    0    0  0.63123917348E+02  0.64696241885E+02  0.34997339836E+02  0.15824839510E+03  0.12509000000E+03 0.  0.
         25    1    4    4    0    0 -0.60998975278E+01 -0.36863793576E+01 -0.41233931000E+02  0.13190353789E+03  0.12509000000E+03 0.  0.
<mgrwt>
<rscale>  2 0.45650892E+03</rscale>
<asrwt>0</asrwt>
<pdfrwt beam="1">  1       21 0.27020056E-01 0.45650892E+03</pdfrwt>
<pdfrwt beam="2">  1       21 0.41699848E-01 0.45650892E+03</pdfrwt>
<totfact> 0.66834355E+04</totfact>
</mgrwt>
</event>
<event>
 7    0  0.4691878E-002  0.4565165E+03  0.7546771E-02  0.1025796E+00
         21   -1    0    0  502  501  0.00000000000E+00  0.00000000000E+00  0.59251687992E+03  0.59251687992E+03  0.00000000000E+00 0. -1.
         21   -1    0    0  501  502 -0.00000000000E+00 -0.00000000000E+00 -0.87933051616E+02  0.87933051616E+02  0.00000000000E+00 0. -1.
      99926    2    1    2    0    0  0.00000000000E+00  0.14210854715E-13  0.50458382830E+03  0.68044993153E+03  0.45651645046E+03 0.  0.
      99925    2    3    3    0    0  0.19182142935E+02  0.10015145377E+03  0.23941336889E+03  0.37002900932E+03  0.26306736445E+03 0.  0.
         25    1    3    3    0    0 -0.19182142935E+02 -0.10015145377E+03  0.26517045941E+03  0.31042092221E+03  0.12509000000E+03 0.  0.
         25    1    4    4    0    0 -0.15928459268E+01  0.14152580301E+02  0.81342879700E+02  0.14988997587E+03  0.12509000000E+03 0.  0.
         25    1    4    4    0    0  0.20774988862E+02  0.85998873467E+02  0.15807048919E+03  0.22013903346E+03  0.12509000000E+03 0.  0.
<mgrwt>
<rscale>  2 0.45651645E+03</rscale>
<asrwt>0</asrwt>
<pdfrwt beam="1">  1       21 0.87134833E-01 0.45651645E+03</pdfrwt>
<pdfrwt beam="2">  1       21 0.12931331E-01 0.45651645E+03</pdfrwt>
<totfact> 0.53337876E+04</totfact>
</mgrwt>
</event>
<event>
 7    0  0.4691878E-002  0.4555030E+03  0.7546771E-02  0.1026094E+00
         21   -1    0    0  502  501  0.00000000000E+00  0.00000000000E+00  0.11556918806E+03  0.11556918806E+03  0.00000000000E+00 0. -1.
         21   -1    0    0  501  502 -0.00000000000E+00 -0.00000000000E+00 -0.44882842406E+03  0.44882842406E+03  0.00000000000E+00 0. -1.
      99926    2    1    2    0    0  0.00000000000E+00  0.00000000000E+00 -0.33325923600E+03  0.56439761213E+03  0.45550295959E+03 0.  0.
      99925    2    3    3    0    0  0.80087601023E+01 -0.57585545504E+02 -0.33081260671E+03  0.42643482952E+03  0.26273455765E+03 0.  0.
         25    1    4    4    0    0 -0.58948807272E+01 -0.56190601706E+02 -0.21685662474E+03  0.25664457355E+03  0.12509000000E+03 0.  0.
         25    1    4    4    0    0  0.13903640829E+02 -0.13949437975E+01 -0.11395598196E+03  0.16979025597E+03  0.12509000000E+03 0.  0.
         25    1    3    3    0    0 -0.80087601023E+01  0.57585545504E+02 -0.24466292933E+01  0.13796278261E+03  0.12509000000E+03 0.  0.
<mgrwt>
<rscale>  2 0.45550296E+03</rscale>
<asrwt>0</asrwt>
<pdfrwt beam="1">  1       21 0.16995469E-01 0.45550296E+03</pdfrwt>
<pdfrwt beam="2">  1       21 0.66004180E-01 0.45550296E+03</pdfrwt>
<totfact> 0.60683261E+04</totfact>
</mgrwt>
</event>
<event>
 7    0  0.4691878E-002  0.4521204E+03  0.7546771E-02  0.1027092E+00
         21   -1    0    0  502  501  0.00000000000E+00  0.00000000000E+00  0.81420996780E+03  0.81420996780E+03  0.00000000000E+00 0.  1.
         21   -1    0    0  501  502 -0.00000000000E+00 -0.00000000000E+00 -0.62764158525E+02  0.62764158525E+02  0.00000000000E+00 0.  1.
      99926    2    1    2    0    0  0.14210854715E-13  0.00000000000E+00  0.75144580928E+03  0.87697412633E+03  0.45212035341E+03 0.  0.
      99925    2    3    3    0    0 -0.98956219451E+02 -0.64663752770E+01  0.56838483221E+03  0.63408942775E+03  0.26300938676E+03 0.  0.
         25    1    3    3    0    0  0.98956219451E+02  0.64663752770E+01  0.18306097707E+03  0.24288469858E+03  0.12509000000E+03 0.  0.
         25    1    4    4    0    0 -0.66252412339E+02  0.18908324931E+02  0.36291044554E+03  0.38999795701E+03  0.12509000000E+03 0.  0.
         25    1    4    4    0    0 -0.32703807112E+02 -0.25374700208E+02  0.20547438666E+03  0.24409147073E+03  0.12509000000E+03 0.  0.
<mgrwt>
<rscale>  2 0.45212035E+03</rscale>
<asrwt>0</asrwt>
<pdfrwt beam="1">  1       21 0.11973675E+00 0.45212035E+03</pdfrwt>
<pdfrwt beam="2">  1       21 0.92300238E-02 0.45212035E+03</pdfrwt>
<totfact> 0.45256376E+04</totfact>
</mgrwt>
</event>
<event>
 7    0  0.4691878E-002  0.4810202E+03  0.7546771E-02  0.1018855E+00
         21   -1    0    0  502  501  0.00000000000E+00  0.00000000000E+00  0.16856420793E+04  0.16856420793E+04  0.00000000000E+00 0.  1.
         21   -1    0    0  501  502 -0.00000000000E+00 -0.00000000000E+00 -0.34316369512E+02  0.34316369512E+02  0.00000000000E+00 0.  1.
      99926    2    1    2    0    0 -0.14210854715E-13  0.00000000000E+00  0.16513257098E+04  0.17199584489E+04  0.48102023433E+03 0.  0.
      99925    2    3    3    0    0  0.97733461334E+02  0.22459964432E+02  0.68635061463E+03  0.74175564681E+03  0.26280790305E+03 0.  0.
         25    1    4    4    0    0  0.39164954766E+02 -0.28362342321E+02  0.32540470549E+03  0.35195744998E+03  0.12509000000E+03 0.  0.
         25    1    3    3    0    0 -0.97733461334E+02 -0.22459964432E+02  0.96497509521E+03  0.97820280205E+03  0.12509000000E+03 0.  0.
         25    1    4    4    0    0  0.58568506568E+02  0.50822306754E+02  0.36094590914E+03  0.38979819683E+03  0.12509000000E+03 0.  0.
<mgrwt>
<rscale>  2 0.48102023E+03</rscale>
<asrwt>0</asrwt>
<pdfrwt beam="1">  1       21 0.24788849E+00 0.48102023E+03</pdfrwt>
<pdfrwt beam="2">  1       21 0.50465261E-02 0.48102023E+03</pdfrwt>
<totfact> 0.15478531E+04</totfact>
</mgrwt>
</event>
<event>
 7    0  0.4691878E-002  0.4439135E+03  0.7546771E-02  0.1029553E+00
         21   -1    0    0  502  501  0.00000000000E+00  0.00000000000E+00  0.69312729021E+02  0.69312729021E+02  0.00000000000E+00 0. -1.
         21   -1    0    0  501  502 -0.00000000000E+00 -0.00000000000E+00 -0.71076130456E+03  0.71076130456E+03  0.00000000000E+00 0. -1.
      99926    2    1    2    0    0  0.00000000000E+00  0.00000000000E+00 -0.64144857554E+03  0.78007403358E+03  0.44391353078E+03 0.  0.
      99925    2    3    3    0    0  0.48931275594E+02 -0.64351475949E+02 -0.51623715026E+03  0.58549553706E+03  0.26413793067E+03 0.  0.
         25    1    3    3    0    0 -0.48931275594E+02  0.64351475949E+02 -0.12521142527E+03  0.19457849652E+03  0.12509000000E+03 0.  0.
         25    1    4    4    0    0 -0.55694533001E+01 -0.99195018863E+01 -0.28624069064E+03  0.31258703813E+03  0.12509000000E+03 0.  0.
         25    1    4    4    0    0  0.54500728894E+02 -0.54431974063E+02 -0.22999645962E+03  0.27290849893E+03  0.12509000000E+03 0.  0.
<mgrwt>
<rscale>  2 0.44391353E+03</rscale>
<asrwt>0</asrwt>
<pdfrwt beam="1">  1       21 0.10193048E-01 0.44391353E+03</pdfrwt>
<pdfrwt beam="2">  1       21 0.10452373E+00 0.44391353E+03</pdfrwt>
<totfact> 0.53226651E+04</totfact>
</mgrwt>
</event>
<event>
 7    0  0.4691878E-002  0.4597028E+03  0.7546771E-02  0.1024867E+00
         21   -1    0    0  502  501  0.00000000000E+00  0.00000000000E+00  0.16384205898E+03  0.16384205898E+03  0.00000000000E+00 0. -1.
         21   -1    0    0  501  502 -0.00000000000E+00 -0.00000000000E+00 -0.32245483626E+03  0.32245483626E+03  0.00000000000E+00 0. -1.
      99926    2    1    2    0    0  0.14210854715E-13  0.00000000000E+00 -0.15861277727E+03  0.48629689524E+03  0.45970279225E+03 0.  0.
      99925    2    3    3    0    0 -0.87944371456E+02  0.48669328388E+02 -0.36414676803E+02  0.28459711870E+03  0.26375476354E+03 0.  0.
         25    1    4    4    0    0 -0.48892864205E+01  0.37792718637E+02 -0.28550625775E+02  0.13384633367E+03  0.12509000000E+03 0.  0.
         25    1    3    3    0    0  0.87944371456E+02 -0.48669328388E+02 -0.12219810047E+03  0.20169977654E+03  0.12509000000E+03 0.  0.
         25    1    4    4    0    0 -0.83055085036E+02  0.10876609752E+02 -0.78640510285E+01  0.15075078503E+03  0.12509000000E+03 0.  0.
<mgrwt>
<rscale>  2 0.45970279E+03</rscale>
<asrwt>0</asrwt>
<pdfrwt beam="1">  1       21 0.24094421E-01 0.45970279E+03</pdfrwt>
<pdfrwt beam="2">  1       21 0.47419828E-01 0.45970279E+03</pdfrwt>
<totfact> 0.63828226E+04</totfact>
</mgrwt>
</event>
<event>
 6    0  0.4691878E-002  0.4518999E+03  0.7546771E-02  0.1027157E+00
         21   -1    0    0  502  501  0.00000000000E+00  0.00000000000E+00  0.16517068288E+04  0.16517068288E+04  0.00000000000E+00 0.  1.
         21   -1    0    0  501  502 -0.00000000000E+00 -0.00000000000E+00 -0.30909467048E+02  0.30909467048E+02  0.00000000000E+00 0.  1.
      99926    2    1    2    0    0 -0.14210854715E-13 -0.35527136788E-14  0.16207973617E+04  0.16826162958E+04  0.45189989067E+03 0.  0.
         25    1    3    3    0    0  0.78475709507E+02 -0.24581388706E+02  0.51470982605E+03  0.53603768037E+03  0.12509000000E+03 0.  0.
         25    1    3    3    0    0 -0.73085452014E+01  0.39276420013E+02  0.29807897481E+03  0.32572171455E+03  0.12509000000E+03 0.  0.
         25    1    3    3    0    0 -0.71167164306E+02 -0.14695031307E+02  0.80800856086E+03  0.82085690089E+03  0.12509000000E+03 0.  0.
<mgrwt>
<rscale>  2 0.45189989E+03</rscale>
<asrwt>0</asrwt>
<pdfrwt beam="1">  1       21 0.24289800E+00 0.45189989E+03</pdfrwt>
<pdfrwt beam="2">  1       21 0.45455110E-02 0.45189989E+03</pdfrwt>
<totfact> 0.20105319E+04</totfact>
</mgrwt>
</event>
<event>
 7    0  0.4691878E-002  0.4584628E+03  0.7546771E-02  0.1025228E+00
         21   -1    0    0  502  501  0.00000000000E+00  0.00000000000E+00  0.53932375276E+03  0.53932375276E+03  0.00000000000E+00 0.  1.
         21   -1    0    0  501  502 -0.00000000000E+00 -0.00000000000E+00 -0.97431337289E+02  0.97431337289E+02  0.00000000000E+00 0.  1.
      99926    2    1    2    0    0  0.00000000000E+00  0.39968028887E-14  0.44189241547E+03  0.63675509005E+03  0.45846279877E+03 0.  0.
      99925    2    3    3    0    0 -0.74083757750E+02 -0.36073952732E+01  0.40184933387E+03  0.48591619272E+03  0.26292630669E+03 0.  0.
         25    1    3    3    0    0  0.74083757750E+02  0.36073952732E+01  0.40043081595E+02  0.15083889733E+03  0.12509000000E+03 0.  0.
         25    1    4    4    0    0 -0.21584960345E+02 -0.39238355747E+02  0.20065735751E+03  0.24065835182E+03  0.12509000000E+03 0.  0.
         25    1    4    4    0    0 -0.52498797405E+02  0.35630960474E+02  0.20119197636E+03  0.24525784090E+03  0.12509000000E+03 0.  0.
<mgrwt>
<rscale>  2 0.45846280E+03</rscale>
<asrwt>0</asrwt>
<pdfrwt beam="1">  1       21 0.79312315E-01 0.45846280E+03</pdfrwt>
<pdfrwt beam="2">  1       21 0.14328138E-01 0.45846280E+03</pdfrwt>
<totfact> 0.54953675E+04</totfact>
</mgrwt>
</event>
<event>
 7    0  0.4691878E-002  0.4576141E+03  0.7546771E-02  0.1025475E+00
         21   -1    0    0  502  501  0.00000000000E+00  0.00000000000E+00  0.13450327850E+03  0.13450327850E+03  0.00000000000E+00 0. -1.
         21   -1    0    0  501  502 -0.00000000000E+00 -0.00000000000E+00 -0.38922962072E+03  0.38922962072E+03  0.00000000000E+00 0. -1.
      99926    2    1    2    0    0 -0.14210854715E-13  0.00000000000E+00 -0.25472634222E+03  0.52373289923E+03  0.45761407355E+03 0.  0.
      99925    2    3    3    0    0  0.77753953022E+02  0.72520015031E+02 -0.21146808753E+03  0.35395771114E+03  0.26317765756E+03 0.  0.
         25    1    3    3    0    0 -0.77753953022E+02 -0.72520015031E+02 -0.43258254688E+02  0.16977518809E+03  0.12509000000E+03 0.  0.
         25    1    4    4    0    0  0.70617394016E+02  0.39959816672E+02 -0.78995819562E+02  0.16873485382E+03  0.12509000000E+03 0.  0.
         25    1    4    4    0    0  0.71365590062E+01  0.32560198359E+02 -0.13247226797E+03  0.18522285732E+03  0.12509000000E+03 0.  0.
<mgrwt>
<rscale>  2 0.45761407E+03</rscale>
<asrwt>0</asrwt>
<pdfrwt beam="1">  1       21 0.19779894E-01 0.45761407E+03</pdfrwt>
<pdfrwt beam="2">  1       21 0.57239649E-01 0.45761407E+03</pdfrwt>
<totfact> 0.62330895E+04</totfact>
</mgrwt>
</event>
<event>
 7    0  0.4691878E-002  0.4561781E+03  0.7546771E-02  0.1025896E+00
         21   -1    0    0  502  501  0.00000000000E+00  0.00000000000E+00  0.12628129713E+03  0.12628129713E+03  0.00000000000E+00 0.  1.
         21   -1    0    0  501  502 -0.00000000000E+00 -0.00000000000E+00 -0.41197404904E+03  0.41197404904E+03  0.00000000000E+00 0.  1.
      99926    2    1    2    0    0  0.00000000000E+00  0.00000000000E+00 -0.28569275191E+03  0.53825534618E+03  0.45617811126E+03 0.  0.
      99925    2    3    3    0    0  0.11389919622E+02  0.10639174372E+03 -0.22676544257E+03  0.36341579320E+03  0.26305805329E+03 0.  0.
         25    1    4    4    0    0  0.33784548788E+02  0.80650959150E+02 -0.14231255563E+03  0.20867760910E+03  0.12509000000E+03 0.  0.
         25    1    3    3    0    0 -0.11389919622E+02 -0.10639174372E+03 -0.58927309335E+02  0.17483955298E+03  0.12509000000E+03 0.  0.
         25    1    4    4    0    0 -0.22394629167E+02  0.25740784569E+02 -0.84452886942E+02  0.15473818410E+03  0.12509000000E+03 0.  0.
<mgrwt>
<rscale>  2 0.45617811E+03</rscale>
<asrwt>0</asrwt>
<pdfrwt beam="1">  1       21 0.18570779E-01 0.45617811E+03</pdfrwt>
<pdfrwt beam="2">  1       21 0.60584419E-01 0.45617811E+03</pdfrwt>
<totfact> 0.62068593E+04</totfact>
</mgrwt>
</event>
<event>
 7    0  0.4691878E-002  0.4480331E+03  0.7546771E-02  0.1028310E+00
         21   -1    0    0  502  501  0.00000000000E+00  0.00000000000E+00  0.37827560359E+03  0.37827560359E+03  0.00000000000E+00 0. -1.
         21   -1    0    0  501  502 -0.00000000000E+00 -0.00000000000E+00 -0.13266365524E+03  0.13266365524E+03  0.00000000000E+00 0. -1.
      99926    2    1    2    0    0  0.00000000000E+00  0.00000000000E+00  0.24561194835E+03  0.51093925884E+03  0.44803314280E+03 0.  0.
      99925    2    3    3    0    0 -0.24448557705E+02  0.75000406403E+02  0.73850894065E+02  0.28428498289E+03  0.26294715060E+03 0.  0.
         25    1    4    4    0    0 -0.40062780006E+02  0.68686601098E+02  0.36417941646E+02  0.15263240182E+03  0.12509000000E+03 0.  0.
         25    1    3    3    0    0  0.24448557705E+02 -0.75000406403E+02  0.17176105429E+03  0.22665427594E+03  0.12509000000E+03 0.  0.
         25    1    4    4    0    0  0.15614222301E+02  0.63138053044E+01  0.37432952419E+02  0.13165258107E+03  0.12509000000E+03 0.  0.
<mgrwt>
<rscale>  2 0.44803314E+03</rscale>
<asrwt>0</asrwt>
<pdfrwt beam="1">  1       21 0.55628765E-01 0.44803314E+03</pdfrwt>
<pdfrwt beam="2">  1       21 0.19509361E-01 0.44803314E+03</pdfrwt>
<totfact> 0.68201879E+04</totfact>
</mgrwt>
</event>
<event>
 7    0  0.4691878E-002  0.4618314E+03  0.7546771E-02  0.1024251E+00
         21   -1    0    0  502  501  0.00000000000E+00  0.00000000000E+00  0.13385168633E+03  0.13385168633E+03  0.00000000000E+00 0. -1.
         21   -1    0    0  501  502 -0.00000000000E+00 -0.00000000000E+00 -0.39836667676E+03  0.39836667676E+03  0.00000000000E+00 0. -1.
      99926    2    1    2    0    0  0.00000000000E+00  0.00000000000E+00 -0.26451499043E+03  0.53221836310E+03  0.46183136084E+03 0.  0.
      99925    2    3    3    0    0 -0.67084823784E+02 -0.86453424210E+02 -0.22076163732E+03  0.36035669736E+03  0.26295756442E+03 0.  0.
         25    1    4    4    0    0 -0.70990341566E+02 -0.28586628273E+02 -0.12193698602E+03  0.19071696456E+03  0.12509000000E+03 0.  0.
         25    1    4    4    0    0  0.39055177822E+01 -0.57866795937E+02 -0.98824651301E+02  0.16963973280E+03  0.12509000000E+03 0.  0.
         25    1    3    3    0    0  0.67084823784E+02  0.86453424210E+02 -0.43753353114E+02  0.17186166573E+03  0.12509000000E+03 0.  0.
<mgrwt>
<rscale>  2 0.46183136E+03</rscale>
<asrwt>0</asrwt>
<pdfrwt beam="1">  1       21 0.19684071E-01 0.46183136E+03</pdfrwt>
<pdfrwt beam="2">  1       21 0.58583335E-01 0.46183136E+03</pdfrwt>
<totfact> 0.59754832E+04</totfact>
</mgrwt>
</event>
<event>
 7    0  0.4691878E-002  0.4349309E+03  0.7546771E-02  0.1032314E+00
         21   -1    0    0  502  501  0.00000000000E+00  0.00000000000E+00  0.12034222725E+04  0.12034222725E+04  0.00000000000E+00 0.  1.
         21   -1    0    0  501  502 -0.00000000000E+00 -0.00000000000E+00 -0.39297277445E+02  0.39297277445E+02  0.00000000000E+00 0.  1.
      99926    2    1    2    0    0 -0.71054273576E-14  0.00000000000E+00  0.11641249951E+04  0.12427195500E+04  0.43493088613E+03 0.  0.
      99925    2    3    3    0    0 -0.63585910681E+02 -0.57218161895E+02  0.85666029980E+03  0.89993808456E+03  0.26211562467E+03 0.  0.
         25    1    3    3    0    0  0.63585910681E+02  0.57218161895E+02  0.30746469530E+03  0.34278146543E+03  0.12509000000E+03 0.  0.
         25    1    4    4    0    0  0.59414470631E+01 -0.18854712979E+02  0.35855978586E+03  0.38026757571E+03  0.12509000000E+03 0.  0.
         25    1    4    4    0    0 -0.69527357745E+02 -0.38363448916E+02  0.49810051394E+03  0.51967050886E+03  0.12509000000E+03 0.  0.
<mgrwt>
<rscale>  2 0.43493089E+03</rscale>
<asrwt>0</asrwt>
<pdfrwt beam="1">  1       21 0.17697384E+00 0.43493089E+03</pdfrwt>
<pdfrwt beam="2">  1       21 0.57790122E-02 0.43493089E+03</pdfrwt>
<totfact> 0.36149184E+04</totfact>
</mgrwt>
</event>
<event>
 7    0  0.4691878E-002  0.4498353E+03  0.7546771E-02  0.1027771E+00
         21   -1    0    0  502  501  0.00000000000E+00  0.00000000000E+00  0.11590360398E+04  0.11590360398E+04  0.00000000000E+00 0. -1.
         21   -1    0    0  501  502 -0.00000000000E+00 -0.00000000000E+00 -0.43646579267E+02  0.43646579267E+02  0.00000000000E+00 0. -1.
      99926    2    1    2    0    0 -0.88817841970E-15  0.14210854715E-13  0.11153894606E+04  0.12026826191E+04  0.44983534048E+03 0.  0.
      99925    2    3    3    0    0  0.40642359563E+01 -0.67947010424E+02  0.93005144606E+03  0.96894986154E+03  0.26312511777E+03 0.  0.
         25    1    3    3    0    0 -0.40642359563E+01  0.67947010424E+02  0.18533801451E+03  0.23373275757E+03  0.12509000000E+03 0.  0.
         25    1    4    4    0    0 -0.32326941323E+02 -0.38263054132E+02  0.54361321849E+03  0.56006422120E+03  0.12509000000E+03 0.  0.
         25    1    4    4    0    0  0.36391177279E+02 -0.29683956292E+02  0.38643822757E+03  0.40888564034E+03  0.12509000000E+03 0.  0.
<mgrwt>
<rscale>  2 0.44983534E+03</rscale>
<asrwt>0</asrwt>
<pdfrwt beam="1">  1       21 0.17044646E+00 0.44983534E+03</pdfrwt>
<pdfrwt beam="2">  1       21 0.64186154E-02 0.44983534E+03</pdfrwt>
<totfact> 0.33394447E+04</totfact>
</mgrwt>
</event>
<event>
 7    0  0.4691878E-002  0.4594025E+03  0.7546771E-02  0.1024955E+00
         21   -1    0    0  502  501  0.00000000000E+00  0.00000000000E+00  0.53988940739E+03  0.53988940739E+03  0.00000000000E+00 0. -1.
         21   -1    0    0  501  502 -0.00000000000E+00 -0.00000000000E+00 -0.97728638892E+02  0.97728638892E+02  0.00000000000E+00 0. -1.
      99926    2    1    2    0    0  0.00000000000E+00  0.88817841970E-15  0.44216076850E+03  0.63761804629E+03  0.45940246816E+03 0.  0.
      99925    2    3    3    0    0 -0.19129616353E+02  0.18510303519E+01  0.11664607622E+03  0.28836642993E+03  0.26302000357E+03 0.  0.
         25    1    4    4    0    0 -0.19730930090E+01  0.24909911882E+02  0.92983979830E+02  0.15785412700E+03  0.12509000000E+03 0.  0.
         25    1    3    3    0    0  0.19129616353E+02 -0.18510303519E+01  0.32551469228E+03  0.34925161636E+03  0.12509000000E+03 0.  0.
         25    1    4    4    0    0 -0.17156523344E+02 -0.23058881530E+02  0.23662096390E+02  0.13051230293E+03  0.12509000000E+03 0.  0.
<mgrwt>
<rscale>  2 0.45940247E+03</rscale>
<asrwt>0</asrwt>
<pdfrwt beam="1">  1       21 0.79395500E-01 0.45940247E+03</pdfrwt>
<pdfrwt beam="2">  1       21 0.14371859E-01 0.45940247E+03</pdfrwt>
<totfact> 0.54501949E+04</totfact>
</mgrwt>
</event>
<event>
 6    0  0.4691878E-002  0.4574419E+03  0.7546771E-02  0.1025526E+00
         21   -1    0    0  502  501  0.00000000000E+00  0.00000000000E+00  0.12372529114E+03  0.12372529114E+03  0.00000000000E+00 0. -1.
         21   -1    0    0  501  502 -0.00000000000E+00 -0.00000000000E+00 -0.42281801646E+03  0.42281801646E+03  0.00000000000E+00 0. -1.
      99926    2    1    2    0    0  0.00000000000E+00  0.00000000000E+00 -0.29909272533E+03  0.54654330760E+03  0.45744194029E+03 0.  0.
         25    1    3    3    0    0  0.16840181313E+02 -0.94016787390E+02 -0.19430662237E+03  0.25005063410E+03  0.12509000000E+03 0.  0.
         25    1    3    3    0    0  0.65075029260E+01  0.24786949166E+02 -0.76633023456E+02  0.14891900089E+03  0.12509000000E+03 0.  0.
         25    1    3    3    0    0 -0.23347684239E+02  0.69229838224E+02 -0.28153079500E+02  0.14757367260E+03  0.12509000000E+03 0.  0.
<mgrwt>
<rscale>  2 0.45744194E+03</rscale>
<asrwt>0</asrwt>
<pdfrwt beam="1">  1       21 0.18194896E-01 0.45744194E+03</pdfrwt>
<pdfrwt beam="2">  1       21 0.62179120E-01 0.45744194E+03</pdfrwt>
<totfact> 0.60910037E+04</totfact>
</mgrwt>
</event>
<event>
 7    0  0.4691878E-002  0.4281985E+03  0.7546771E-02  0.1034431E+00
         21   -1    0    0  502  501  0.00000000000E+00  0.00000000000E+00  0.28929959124E+03  0.28929959124E+03  0.00000000000E+00 0. -1.
         21   -1    0    0  501  502 -0.00000000000E+00 -0.00000000000E+00 -0.15844644071E+03  0.15844644071E+03  0.00000000000E+00 0. -1.
      99926    2    1    2    0    0  0.17763568394E-14 -0.71054273576E-14  0.13085315053E+03  0.44774603194E+03  0.42819850784E+03 0.  0.
      99925    2    3    3    0    0 -0.10390397009E+02  0.63115402738E+02  0.24936510413E+02  0.27179900251E+03  0.26298546310E+03 0.  0.
         25    1    3    3    0    0  0.10390397009E+02 -0.63115402738E+02  0.10591664012E+03  0.17594702943E+03  0.12509000000E+03 0.  0.
         25    1    4    4    0    0  0.18987702359E+02  0.46147246079E+02 -0.16604144083E+02  0.13569564054E+03  0.12509000000E+03 0.  0.
         25    1    4    4    0    0 -0.29378099367E+02  0.16968156659E+02  0.41540654496E+02  0.13610336197E+03  0.12509000000E+03 0.  0.
<mgrwt>
<rscale>  2 0.42819851E+03</rscale>
<asrwt>0</asrwt>
<pdfrwt beam="1">  1       21 0.42544057E-01 0.42819851E+03</pdfrwt>
<pdfrwt beam="2">  1       21 0.23300947E-01 0.42819851E+03</pdfrwt>
<totfact> 0.86010506E+04</totfact>
</mgrwt>
</event>
<event>
 7    0  0.4691878E-002  0.4789197E+03  0.7546771E-02  0.1019432E+00
         21   -1    0    0  502  501  0.00000000000E+00  0.00000000000E+00  0.27810815288E+02  0.27810815288E+02  0.00000000000E+00 0. -1.
         21   -1    0    0  501  502 -0.00000000000E+00 -0.00000000000E+00 -0.20618244324E+04  0.20618244324E+04  0.00000000000E+00 0. -1.
      99926    2    1    2    0    0  0.35527136788E-14  0.00000000000E+00 -0.20340136171E+04  0.20896352477E+04  0.47891969451E+03 0.  0.
      99925    2    3    3    0    0  0.26204468531E+02 -0.12651693688E+03 -0.10928971099E+04  0.11314906878E+04  0.26297124207E+03 0.  0.
         25    1    3    3    0    0 -0.26204468531E+02  0.12651693688E+03 -0.94111650718E+03  0.95814455990E+03  0.12509000000E+03 0.  0.
         25    1    4    4    0    0  0.43144930210E+02 -0.68776748593E+02 -0.66995896506E+03  0.68635577444E+03  0.12509000000E+03 0.  0.
         25    1    4    4    0    0 -0.16940461679E+02 -0.57740188288E+02 -0.42293814487E+03  0.44513491334E+03  0.12509000000E+03 0.  0.
<mgrwt>
<rscale>  2 0.47891969E+03</rscale>
<asrwt>0</asrwt>
<pdfrwt beam="1">  1       21 0.40898259E-02 0.47891969E+03</pdfrwt>
<pdfrwt beam="2">  1       21 0.30320946E+00 0.47891969E+03</pdfrwt>
<totfact> 0.10259546E+04</totfact>
</mgrwt>
</event>
<event>
 7    0  0.4691878E-002  0.4780034E+03  0.7546771E-02  0.1019685E+00
         21   -1    0    0  502  501  0.00000000000E+00  0.00000000000E+00  0.41508385331E+03  0.41508385331E+03  0.00000000000E+00 0.  1.
         21   -1    0    0  501  502 -0.00000000000E+00 -0.00000000000E+00 -0.13761511920E+03  0.13761511920E+03  0.00000000000E+00 0.  1.
      99926    2    1    2    0    0  0.00000000000E+00  0.00000000000E+00  0.27746873411E+03  0.55269897251E+03  0.47800340565E+03 0.  0.
      99925    2    3    3    0    0  0.56862051986E+02 -0.58736311213E+02  0.49133674213E+02  0.27981134933E+03  0.26305327608E+03 0.  0.
         25    1    4    4    0    0  0.93088460638E+01 -0.88759677551E+00  0.47144623265E+02  0.13400584333E+03  0.12509000000E+03 0.  0.
         25    1    3    3    0    0 -0.56862051986E+02  0.58736311213E+02  0.22833505990E+03  0.27288762319E+03  0.12509000000E+03 0.  0.
         25    1    4    4    0    0  0.47553205923E+02 -0.57848714438E+02  0.19890509487E+01  0.14580550600E+03  0.12509000000E+03 0.  0.
<mgrwt>
<rscale>  2 0.47800341E+03</rscale>
<asrwt>0</asrwt>
<pdfrwt beam="1">  1       21 0.61041743E-01 0.47800341E+03</pdfrwt>
<pdfrwt beam="2">  1       21 0.20237518E-01 0.47800341E+03</pdfrwt>
<totfact> 0.51623800E+04</totfact>
</mgrwt>
</event>
<event>
 6    0  0.4691878E-002  0.4522346E+03  0.7546771E-02  0.1027058E+00
         21   -1    0    0  502  501  0.00000000000E+00  0.00000000000E+00  0.15911981974E+03  0.15911981974E+03  0.00000000000E+00 0.  1.
         21   -1    0    0  501  502 -0.00000000000E+00 -0.00000000000E+00 -0.32132411187E+03  0.32132411187E+03  0.00000000000E+00 0.  1.
      99926    2    1    2    0    0  0.00000000000E+00  0.00000000000E+00 -0.16220429213E+03  0.48044393161E+03  0.45223460619E+03 0.  0.
         25    1    3    3    0    0  0.38628340219E+02  0.10600596173E+03 -0.65139496661E+02  0.18061028408E+03  0.12509000000E+03 0.  0.
         25    1    3    3    0    0 -0.27892090828E+02 -0.83810570549E+02 -0.74733740844E+02  0.17039606975E+03  0.12509000000E+03 0.  0.
         25    1    3    3    0    0 -0.10736249390E+02 -0.22195391181E+02 -0.22331054628E+02  0.12943757778E+03  0.12509000000E+03 0.  0.
<mgrwt>
<rscale>  2 0.45223461E+03</rscale>
<asrwt>0</asrwt>
<pdfrwt beam="1">  1       21 0.23399974E-01 0.45223461E+03</pdfrwt>
<pdfrwt beam="2">  1       21 0.47253545E-01 0.45223461E+03</pdfrwt>
<totfact> 0.68151580E+04</totfact>
</mgrwt>
</event>
<event>
 7    0  0.4691878E-002  0.4569269E+03  0.7546771E-02  0.1025676E+00
         21   -1    0    0  502  501  0.00000000000E+00  0.00000000000E+00  0.18047760792E+03  0.18047760792E+03  0.00000000000E+00 0.  1.
         21   -1    0    0  501  502 -0.00000000000E+00 -0.00000000000E+00 -0.28920789383E+03  0.28920789383E+03  0.00000000000E+00 0.  1.
      99926    2    1    2    0    0  0.00000000000E+00  0.14210854715E-13 -0.10873028591E+03  0.46968550176E+03  0.45692690387E+03 0.  0.
      99925    2    3    3    0    0  0.34458684308E+02  0.76035927370E+02  0.12688697460E+02  0.27640089089E+03  0.26318735962E+03 0.  0.
         25    1    4    4    0    0  0.30267816119E+02  0.78677706810E+02  0.36694704491E+01  0.15088835394E+03  0.12509000000E+03 0.  0.
         25    1    4    4    0    0  0.41908681886E+01 -0.26417794395E+01  0.90192270105E+01  0.12551253695E+03  0.12509000000E+03 0.  0.
         25    1    3    3    0    0 -0.34458684308E+02 -0.76035927370E+02 -0.12141898337E+03  0.19328461087E+03  0.12509000000E+03 0.  0.
<mgrwt>
<rscale>  2 0.45692690E+03</rscale>
<asrwt>0</asrwt>
<pdfrwt beam="1">  1       21 0.26540825E-01 0.45692690E+03</pdfrwt>
<pdfrwt beam="2">  1       21 0.42530573E-01 0.45692690E+03</pdfrwt>
<totfact> 0.66437895E+04</totfact>
</mgrwt>
</event>
<event>
 7    0  0.4691878E-002  0.4603121E+03  0.7546771E-02  0.1024691E+00
         21   -1    0    0  502  501  0.00000000000E+00  0.00000000000E+00  0.66445166504E+03  0.66445166504E+03  0.00000000000E+00 0. -1.
         21   -1    0    0  501  502 -0.00000000000E+00 -0.00000000000E+00 -0.79722585302E+02  0.79722585302E+02  0.00000000000E+00 0. -1.
      99926    2    1    2    0    0 -0.35527136788E-14 -0.71054273576E-14  0.58472907973E+03  0.74417425034E+03  0.46031208780E+03 0.  0.
      99925    2    3    3    0    0 -0.16261739537E+02 -0.48029260610E+02  0.19386333859E+03  0.33065908768E+03  0.26302316280E+03 0.  0.
         25    1    4    4    0    0 -0.23386340703E+02 -0.53990769612E+02  0.13060401480E+03  0.19017581580E+03  0.12509000000E+03 0.  0.
         25    1    3    3    0    0  0.16261739537E+02  0.48029260610E+02  0.39086574114E+03  0.41351516265E+03  0.12509000000E+03 0.  0.
         25    1    4    4    0    0  0.71246011660E+01  0.59615090015E+01  0.63259323794E+02  0.14048327188E+03  0.12509000000E+03 0.  0.
<mgrwt>
<rscale>  2 0.46031209E+03</rscale>
<asrwt>0</asrwt>
<pdfrwt beam="1">  1       21 0.97713477E-01 0.46031209E+03</pdfrwt>
<pdfrwt beam="2">  1       21 0.11723910E-01 0.46031209E+03</pdfrwt>
<totfact> 0.48511677E+04</totfact>
</mgrwt>
</event>
<event>
 7    0  0.4691878E-002  0.4539343E+03  0.7546771E-02  0.1026555E+00
         21   -1    0    0  502  501  0.00000000000E+00  0.00000000000E+00  0.45431077752E+02  0.45431077752E+02  0.00000000000E+00 0.  1.
         21   -1    0    0  501  502 -0.00000000000E+00 -0.00000000000E+00 -0.11338953465E+04  0.11338953465E+04  0.00000000000E+00 0.  1.
      99926    2    1    2    0    0 -0.71054273576E-14  0.00000000000E+00 -0.10884642688E+04  0.11793264243E+04  0.45393430208E+03 0.  0.
      99925    2    3    3    0    0  0.50962327716E+02  0.97541145064E+01 -0.94403997369E+03  0.98134110486E+03  0.26291936134E+03 0.  0.
         25    1    4    4    0    0 -0.15567014486E+02  0.36433119599E+01 -0.43319715443E+03  0.45117944143E+03  0.12509000000E+03 0.  0.
         25    1    4    4    0    0  0.66529342202E+02  0.61108025464E+01 -0.51084281926E+03  0.53016166343E+03  0.12509000000E+03 0.  0.
         25    1    3    3    0    0 -0.50962327716E+02 -0.97541145064E+01 -0.14442429510E+03  0.19798531943E+03  0.12509000000E+03 0.  0.
<mgrwt>
<rscale>  2 0.45393430E+03</rscale>
<asrwt>0</asrwt>
<pdfrwt beam="1">  1       21 0.66810422E-02 0.45393430E+03</pdfrwt>
<pdfrwt beam="2">  1       21 0.16674928E+00 0.45393430E+03</pdfrwt>
<totfact> 0.33092087E+04</totfact>
</mgrwt>
</event>
<event>
 7    0  0.4691878E-002  0.4764228E+03  0.7546771E-02  0.1020123E+00
         21   -1    0    0  502  501  0.00000000000E+00  0.00000000000E+00  0.11852688943E+03  0.11852688943E+03  0.00000000000E+00 0.  1.
         21   -1    0    0  501  502 -0.00000000000E+00 -0.00000000000E+00 -0.47874938007E+03  0.47874938007E+03  0.00000000000E+00 0.  1.
      99926    2    1    2    0    0  0.00000000000E+00  0.71054273576E-14 -0.36022249065E+03  0.59727626950E+03  0.47642281572E+03 0.  0.
      99925    2    3    3    0    0 -0.30342373832E+02  0.52761790144E+02 -0.75400495202E+02  0.28029749523E+03  0.26301518018E+03 0.  0.
         25    1    4    4    0    0 -0.41565607760E+02  0.39669781886E+02 -0.68702171251E+02  0.15384696220E+03  0.12509000000E+03 0.  0.
         25    1    3    3    0    0  0.30342373832E+02 -0.52761790144E+02 -0.28482199544E+03  0.31697877427E+03  0.12509000000E+03 0.  0.
         25    1    4    4    0    0  0.11223233927E+02  0.13092008258E+02 -0.66983239511E+01  0.12645053303E+03  0.12509000000E+03 0.  0.
<mgrwt>
<rscale>  2 0.47642282E+03</rscale>
<asrwt>0</asrwt>
<pdfrwt beam="1">  1       21 0.17430425E-01 0.47642282E+03</pdfrwt>
<pdfrwt beam="2">  1       21 0.70404321E-01 0.47642282E+03</pdfrwt>
<totfact> 0.49854458E+04</totfact>
</mgrwt>
</event>
<event>
 7    0  0.4691878E-002  0.4599823E+03  0.7546771E-02  0.1024786E+00
         21   -1    0    0  502  501  0.00000000000E+00  0.00000000000E+00  0.23226525615E+04  0.23226525615E+04  0.00000000000E+00 0.  1.
         21   -1    0    0  501  502 -0.00000000000E+00 -0.00000000000E+00 -0.22773932866E+02  0.22773932866E+02  0.00000000000E+00 0.  1.
      99926    2    1    2    0    0  0.00000000000E+00 -0.71054273576E-14  0.22998786286E+04  0.23454264944E+04  0.45998231926E+03 0.  0.
      99925    2    3    3    0    0  0.66274005838E+02 -0.59611632950E+02  0.18326527900E+04  0.18536000178E+04  0.26319381980E+03 0.  0.
         25    1    4    4    0    0  0.57092695259E+02 -0.62083461640E+02  0.90204040621E+03  0.91457002717E+03  0.12509000000E+03 0.  0.
         25    1    3    3    0    0 -0.66274005838E+02  0.59611632950E+02  0.46722583862E+03  0.49182647652E+03  0.12509000000E+03 0.  0.
         25    1    4    4    0    0  0.91813105793E+01  0.24718286897E+01  0.93061238380E+03  0.93902999067E+03  0.12509000000E+03 0.  0.
<mgrwt>
<rscale>  2 0.45998232E+03</rscale>
<asrwt>0</asrwt>
<pdfrwt beam="1">  1       21 0.34156639E+00 0.45998232E+03</pdfrwt>
<pdfrwt beam="2">  1       21 0.33491094E-02 0.45998232E+03</pdfrwt>
<totfact> 0.85112653E+03</totfact>
</mgrwt>
</event>
<event>
 7    0  0.4691878E-002  0.4533962E+03  0.7546771E-02  0.1026714E+00
         21   -1    0    0  502  501  0.00000000000E+00  0.00000000000E+00  0.69405988253E+02  0.69405988253E+02  0.00000000000E+00 0. -1.
         21   -1    0    0  501  502 -0.00000000000E+00 -0.00000000000E+00 -0.74045538557E+03  0.74045538557E+03  0.00000000000E+00 0. -1.
      99926    2    1    2    0    0  0.00000000000E+00  0.71054273576E-14 -0.67104939731E+03  0.80986137382E+03  0.45339624080E+03 0.  0.
      99925    2    3    3    0    0 -0.99624555999E+02 -0.46940046657E+02 -0.45585498886E+03  0.53767658058E+03  0.26299033120E+03 0.  0.
         25    1    4    4    0    0 -0.39763518313E+02 -0.55103002564E+02 -0.18662671858E+03  0.23472221554E+03  0.12509000000E+03 0.  0.
         25    1    3    3    0    0  0.99624555999E+02  0.46940046657E+02 -0.21519440846E+03  0.27218479324E+03  0.12509000000E+03 0.  0.
         25    1    4    4    0    0 -0.59861037686E+02  0.81629559071E+01 -0.26922827028E+03  0.30295436504E+03  0.12509000000E+03 0.  0.
<mgrwt>
<rscale>  2 0.45339624E+03</rscale>
<asrwt>0</asrwt>
<pdfrwt beam="1">  1       21 0.10206763E-01 0.45339624E+03</pdfrwt>
<pdfrwt beam="2">  1       21 0.10889049E+00 0.45339624E+03</pdfrwt>
<totfact> 0.47891402E+04</totfact>
</mgrwt>
</event>
<event>
 7    0  0.4691878E-002  0.4582610E+03  0.7546771E-02  0.1025287E+00
         21   -1    0    0  502  501  0.00000000000E+00  0.00000000000E+00  0.25191337731E+03  0.25191337731E+03  0.00000000000E+00 0. -1.
         21   -1    0    0  501  502 -0.00000000000E+00 -0.00000000000E+00 -0.20840813628E+03  0.20840813628E+03  0.00000000000E+00 0. -1.
      99926    2    1    2    0    0  0.00000000000E+00  0.00000000000E+00  0.43505241026E+02  0.46032151359E+03  0.45826104993E+03 0.  0.
      99925    2    3    3    0    0 -0.81008331679E+02 -0.11728352207E+02 -0.55394049132E+02  0.28107731776E+03  0.26312744789E+03 0.  0.
         25    1    3    3    0    0  0.81008331679E+02  0.11728352207E+02  0.98899290158E+02  0.17924419584E+03  0.12509000000E+03 0.  0.
         25    1    4    4    0    0 -0.90549794579E+01 -0.14945748640E+02 -0.52287956078E+02  0.13670006037E+03  0.12509000000E+03 0.  0.
         25    1    4    4    0    0 -0.71953352221E+02  0.32173964331E+01 -0.31060930533E+01  0.14437725738E+03  0.12509000000E+03 0.  0.
<mgrwt>
<rscale>  2 0.45826105E+03</rscale>
<asrwt>0</asrwt>
<pdfrwt beam="1">  1       21 0.37046085E-01 0.45826105E+03</pdfrwt>
<pdfrwt beam="2">  1       21 0.30648255E-01 0.45826105E+03</pdfrwt>
<totfact> 0.66412830E+04</totfact>
</mgrwt>
</event>
<event>
 7    0  0.4691878E-002  0.4399059E+03  0.7546771E-02  0.1030776E+00
         21   -1    0    0  502  501  0.00000000000E+00  0.00000000000E+00  0.20447741740E+03  0.20447741740E+03  0.00000000000E+00 0. -1.
         21   -1    0    0  501  502 -0.00000000000E+00 -0.00000000000E+00 -0.23659970950E+03  0.23659970950E+03  0.00000000000E+00 0. -1.
      99926    2    1    2    0    0  0.00000000000E+00  0.00000000000E+00 -0.32122292098E+02  0.44107712690E+03  0.43990588792E+03 0.  0.
      99925    2    3    3    0    0 -0.30745416300E+02  0.85632229902E+02  0.16906992376E+02  0.27881333470E+03  0.26300735692E+03 0.  0.
         25    1    4    4    0    0 -0.42800146830E+02  0.26538405294E+02 -0.16860544817E+02  0.13589674608E+03  0.12509000000E+03 0.  0.
         25    1    3    3    0    0  0.30745416300E+02 -0.85632229902E+02 -0.49029284474E+02  0.16226379219E+03  0.12509000000E+03 0.  0.
         25    1    4    4    0    0  0.12054730530E+02  0.59093824608E+02  0.33767537192E+02  0.14291658862E+03  0.12509000000E+03 0.  0.
<mgrwt>
<rscale>  2 0.43990589E+03</rscale>
<asrwt>0</asrwt>
<pdfrwt beam="1">  1       21 0.30070209E-01 0.43990589E+03</pdfrwt>
<pdfrwt beam="2">  1       21 0.34794075E-01 0.43990589E+03</pdfrwt>
<totfact> 0.78629407E+04</totfact>
</mgrwt>
</event>
<event>
 7    0  0.4691878E-002  0.4538310E+03  0.7546771E-02  0.1026586E+00
         21   -1    0    0  502  501  0.00000000000E+00  0.00000000000E+00  0.18992795440E+03  0.18992795440E+03  0.00000000000E+00 0.  1.
         21   -1    0    0  501  502 -0.00000000000E+00 -0.00000000000E+00 -0.27110617896E+03  0.27110617896E+03  0.00000000000E+00 0.  1.
      99926    2    1    2    0    0  0.35527136788E-14  0.00000000000E+00 -0.81178224557E+02  0.46103413336E+03  0.45383099055E+03 0.  0.
      99925    2    3    3    0    0  0.15595173149E+02  0.61557400281E+02 -0.14486195853E+03  0.30697035103E+03  0.26308418126E+03 0.  0.
         25    1    4    4    0    0 -0.28200087096E+02  0.10675040822E+02 -0.68790011270E+02  0.14590673445E+03  0.12509000000E+03 0.  0.
         25    1    4    4    0    0  0.43795260245E+02  0.50882359459E+02 -0.76071947259E+02  0.16106361657E+03  0.12509000000E+03 0.  0.
         25    1    3    3    0    0 -0.15595173149E+02 -0.61557400281E+02  0.63683733972E+02  0.15406378234E+03  0.12509000000E+03 0.  0.
<mgrwt>
<rscale>  2 0.45383099E+03</rscale>
<asrwt>0</asrwt>
<pdfrwt beam="1">  1       21 0.27930582E-01 0.45383099E+03</pdfrwt>
<pdfrwt beam="2">  1       21 0.39868556E-01 0.45383099E+03</pdfrwt>
<totfact> 0.68742118E+04</totfact>
</mgrwt>
</event>
<event>
 7    0  0.4691878E-002  0.4614103E+03  0.7546771E-02  0.1024373E+00
         21   -1    0    0  502  501  0.00000000000E+00  0.00000000000E+00  0.46376770932E+03  0.46376770932E+03  0.00000000000E+00 0. -1.
         21   -1    0    0  501  502 -0.00000000000E+00 -0.00000000000E+00 -0.11476622022E+03  0.11476622022E+03  0.00000000000E+00 0. -1.
      99926    2    1    2    0    0  0.00000000000E+00  0.00000000000E+00  0.34900148910E+03  0.57853392954E+03  0.46141030357E+03 0.  0.
      99925    2    3    3    0    0  0.95381889830E+02 -0.50215544357E+02  0.15491725644E+03  0.32370947375E+03  0.26300030656E+03 0.  0.
         25    1    4    4    0    0  0.40272639774E+02 -0.46331851872E+02  0.11661357148E+03  0.18169963997E+03  0.12509000000E+03 0.  0.
         25    1    3    3    0    0 -0.95381889830E+02  0.50215544357E+02  0.19408423265E+03  0.25482445579E+03  0.12509000000E+03 0.  0.
         25    1    4    4    0    0  0.55109250055E+02 -0.38836924849E+01  0.38303684967E+02  0.14200983378E+03  0.12509000000E+03 0.  0.
<mgrwt>
<rscale>  2 0.46141030E+03</rscale>
<asrwt>0</asrwt>
<pdfrwt beam="1">  1       21 0.68201133E-01 0.46141030E+03</pdfrwt>
<pdfrwt beam="2">  1       21 0.16877385E-01 0.46141030E+03</pdfrwt>
<totfact> 0.57071492E+04</totfact>
</mgrwt>
</event>
<event>
 7    0  0.4691878E-002  0.4511867E+03  0.7546771E-02  0.1027369E+00
         21   -1    0    0  502  501  0.00000000000E+00  0.00000000000E+00  0.31348593143E+02  0.31348593143E+02  0.00000000000E+00 0.  1.
         21   -1    0    0  501  502 -0.00000000000E+00 -0.00000000000E+00 -0.16234339584E+04  0.16234339584E+04  0.00000000000E+00 0.  1.
      99926    2    1    2    0    0  0.17763568394E-14  0.00000000000E+00 -0.15920853653E+04  0.16547825516E+04  0.45118674917E+03 0.  0.
      99925    2    3    3    0    0  0.10928358202E+02  0.34038603912E+02 -0.62523990150E+03  0.67922337114E+03  0.26294751931E+03 0.  0.
         25    1    4    4    0    0  0.21746452767E+02 -0.29003288055E+00 -0.22502739721E+03  0.25837536633E+03  0.12509000000E+03 0.  0.
         25    1    3    3    0    0 -0.10928358202E+02 -0.34038603912E+02 -0.96684546379E+03  0.97555918043E+03  0.12509000000E+03 0.  0.
         25    1    4    4    0    0 -0.10818094565E+02  0.34328636792E+02 -0.40021250428E+03  0.42084800482E+03  0.12509000000E+03 0.  0.
<mgrwt>
<rscale>  2 0.45118675E+03</rscale>
<asrwt>0</asrwt>
<pdfrwt beam="1">  1       21 0.46100869E-02 0.45118675E+03</pdfrwt>
<pdfrwt beam="2">  1       21 0.23874031E+00 0.45118675E+03</pdfrwt>
<totfact> 0.20829593E+04</totfact>
</mgrwt>
</event>
<event>
 7    0  0.4691878E-002  0.4423929E+03  0.7546771E-02  0.1030015E+00
         21   -1    0    0  502  501  0.00000000000E+00  0.00000000000E+00  0.55984853472E+02  0.55984853472E+02  0.00000000000E+00 0. -1.
         21   -1    0    0  501  502 -0.00000000000E+00 -0.00000000000E+00 -0.87394840376E+03  0.87394840376E+03  0.00000000000E+00 0. -1.
      99926    2    1    2    0    0  0.71054273576E-14 -0.14210854715E-13 -0.81796355029E+03  0.92993325723E+03  0.44239291733E+03 0.  0.
      99925    2    3    3    0    0  0.52379253673E+02 -0.74582944426E+02 -0.42938489202E+03  0.51166649597E+03  0.26291636653E+03 0.  0.
         25    1    4    4    0    0  0.33176385376E+02 -0.19938388706E+02 -0.14337614526E+03  0.19417115908E+03  0.12509000000E+03 0.  0.
         25    1    3    3    0    0 -0.52379253673E+02  0.74582944426E+02 -0.38857865827E+03  0.41826676126E+03  0.12509000000E+03 0.  0.
         25    1    4    4    0    0  0.19202868297E+02 -0.54644555720E+02 -0.28600874676E+03  0.31749533689E+03  0.12509000000E+03 0.  0.
<mgrwt>
<rscale>  2 0.44239292E+03</rscale>
<asrwt>0</asrwt>
<pdfrwt beam="1">  1       21 0.82330664E-02 0.44239292E+03</pdfrwt>
<pdfrwt beam="2">  1       21 0.12852183E+00 0.44239292E+03</pdfrwt>
<totfact> 0.46370526E+04</totfact>
</mgrwt>
</event>
<event>
 7    0  0.4691878E-002  0.4270922E+03  0.7546771E-02  0.1034782E+00
         21   -1    0    0  502  501  0.00000000000E+00  0.00000000000E+00  0.47342961886E+03  0.47342961886E+03  0.00000000000E+00 0. -1.
         21   -1    0    0  501  502 -0.00000000000E+00 -0.00000000000E+00 -0.96322537123E+02  0.96322537123E+02  0.00000000000E+00 0. -1.
      99926    2    1    2    0    0 -0.35527136788E-14  0.00000000000E+00  0.37710708174E+03  0.56975215598E+03  0.42709222441E+03 0.  0.
      99925    2    3    3    0    0  0.17954753722E+02 -0.75369304372E+02  0.28851252003E+03  0.39799823409E+03  0.26298329776E+03 0.  0.
         25    1    4    4    0    0 -0.69326562650E+01  0.82575107197E+00  0.14138135184E+03  0.18890457468E+03  0.12509000000E+03 0.  0.
         25    1    3    3    0    0 -0.17954753722E+02  0.75369304372E+02  0.88594561703E+02  0.17175392189E+03  0.12509000000E+03 0.  0.
         25    1    4    4    0    0  0.24887409987E+02 -0.76195055444E+02  0.14713116819E+03  0.20909365940E+03  0.12509000000E+03 0.  0.
<mgrwt>
<rscale>  2 0.42709222E+03</rscale>
<asrwt>0</asrwt>
<pdfrwt beam="1">  1       21 0.69622002E-01 0.42709222E+03</pdfrwt>
<pdfrwt beam="2">  1       21 0.14165079E-01 0.42709222E+03</pdfrwt>
<totfact> 0.76016804E+04</totfact>
</mgrwt>
</event>
<event>
 7    0  0.4691878E-002  0.4551411E+03  0.7546771E-02  0.1026200E+00
         21   -1    0    0  502  501  0.00000000000E+00  0.00000000000E+00  0.17392093700E+03  0.17392093700E+03  0.00000000000E+00 0. -1.
         21   -1    0    0  501  502 -0.00000000000E+00 -0.00000000000E+00 -0.29776947500E+03  0.29776947500E+03  0.00000000000E+00 0. -1.
      99926    2    1    2    0    0  0.00000000000E+00  0.00000000000E+00 -0.12384853800E+03  0.47169041201E+03  0.45514105991E+03 0.  0.
      99925    2    3    3    0    0 -0.12382987387E+02  0.10644000921E+03 -0.39881909407E+02  0.28681013520E+03  0.26303359675E+03 0.  0.
         25    1    4    4    0    0 -0.21031403549E+02  0.57380462694E+02 -0.58256317980E+02  0.15091767332E+03  0.12509000000E+03 0.  0.
         25    1    4    4    0    0  0.86484161617E+01  0.49059546512E+02  0.18374408573E+02  0.13589246188E+03  0.12509000000E+03 0.  0.
         25    1    3    3    0    0  0.12382987387E+02 -0.10644000921E+03 -0.83966628592E+02  0.18488027681E+03  0.12509000000E+03 0.  0.
<mgrwt>
<rscale>  2 0.45514106E+03</rscale>
<asrwt>0</asrwt>
<pdfrwt beam="1">  1       21 0.25576609E-01 0.45514106E+03</pdfrwt>
<pdfrwt beam="2">  1       21 0.43789628E-01 0.45514106E+03</pdfrwt>
<totfact> 0.67234935E+04</totfact>
</mgrwt>
</event>
<event>
 7    0  0.4691878E-002  0.4384630E+03  0.7546771E-02  0.1031219E+00
         21   -1    0    0  502  501  0.00000000000E+00  0.00000000000E+00  0.18164445234E+03  0.18164445234E+03  0.00000000000E+00 0.  1.
         21   -1    0    0  501  502 -0.00000000000E+00 -0.00000000000E+00 -0.26459631349E+03  0.26459631349E+03  0.00000000000E+00 0.  1.
      99926    2    1    2    0    0  0.00000000000E+00  0.00000000000E+00 -0.82951861141E+02  0.44624076583E+03  0.43846300850E+03 0.  0.
      99925    2    3    3    0    0  0.93462993273E+02 -0.25314821460E+02 -0.56023674737E+02  0.28577641895E+03  0.26297022303E+03 0.  0.
         25    1    4    4    0    0  0.53428447407E+02  0.26101426035E+02 -0.37715673700E+02  0.14354742623E+03  0.12509000000E+03 0.  0.
         25    1    3    3    0    0 -0.93462993273E+02  0.25314821460E+02 -0.26928186403E+02  0.16046434688E+03  0.12509000000E+03 0.  0.
         25    1    4    4    0    0  0.40034545866E+02 -0.51416247495E+02 -0.18308001037E+02  0.14222899272E+03  0.12509000000E+03 0.  0.
<mgrwt>
<rscale>  2 0.43846301E+03</rscale>
<asrwt>0</asrwt>
<pdfrwt beam="1">  1       21 0.26712420E-01 0.43846301E+03</pdfrwt>
<pdfrwt beam="2">  1       21 0.38911222E-01 0.43846301E+03</pdfrwt>
<totfact> 0.79122925E+04</totfact>
</mgrwt>
</event>
<event>
 7    0  0.4691878E-002  0.4540985E+03  0.7546771E-02  0.1026507E+00
         21   -1    0    0  502  501  0.00000000000E+00  0.00000000000E+00  0.36397716963E+04  0.36397716963E+04  0.00000000000E+00 0. -1.
         21   -1    0    0  501  502 -0.00000000000E+00 -0.00000000000E+00 -0.14163350733E+02  0.14163350733E+02  0.00000000000E+00 0. -1.
      99926    2    1    2    0    0  0.00000000000E+00  0.00000000000E+00  0.36256083456E+04  0.36539350470E+04  0.45409850527E+03 0.  0.
      99925    2    3    3    0    0 -0.18532371365E+02 -0.11077984524E+03  0.23127833265E+04  0.23303895579E+04  0.26293184200E+03 0.  0.
         25    1    3    3    0    0  0.18532371365E+02  0.11077984524E+03  0.13128250191E+04  0.13235454891E+04  0.12509000000E+03 0.  0.
         25    1    4    4    0    0  0.24080200244E+02 -0.50090538332E+02  0.13069915788E+04  0.13141397997E+04  0.12509000000E+03 0.  0.
         25    1    4    4    0    0 -0.42612571609E+02 -0.60689306911E+02  0.10057917477E+04  0.10162497582E+04  0.12509000000E+03 0.  0.
<mgrwt>
<rscale>  2 0.45409851E+03</rscale>
<asrwt>0</asrwt>
<pdfrwt beam="1">  1       21 0.53525989E+00 0.45409851E+03</pdfrwt>
<pdfrwt beam="2">  1       21 0.20828482E-02 0.45409851E+03</pdfrwt>
<totfact> 0.95100647E+02</totfact>
</mgrwt>
</event>
<event>
 7    0  0.4691878E-002  0.4489888E+03  0.7546771E-02  0.1028024E+00
         21   -1    0    0  502  501  0.00000000000E+00  0.00000000000E+00  0.39386502062E+03  0.39386502062E+03  0.00000000000E+00 0.  1.
         21   -1    0    0  501  502 -0.00000000000E+00 -0.00000000000E+00 -0.12795685514E+03  0.12795685514E+03  0.00000000000E+00 0.  1.
      99926    2    1    2    0    0  0.00000000000E+00  0.00000000000E+00  0.26590816549E+03  0.52182187576E+03  0.44898877219E+03 0.  0.
      99925    2    3    3    0    0  0.94474248284E+02 -0.14240773015E+02  0.11139242370E+03  0.30125259920E+03  0.26309061797E+03 0.  0.
         25    1    4    4    0    0  0.49112867504E+02 -0.25523405272E+01  0.12370271006E+02  0.13497822010E+03  0.12509000000E+03 0.  0.
         25    1    3    3    0    0 -0.94474248284E+02  0.14240773015E+02  0.15451574178E+03  0.22056927656E+03  0.12509000000E+03 0.  0.
         25    1    4    4    0    0  0.45361380781E+02 -0.11688432488E+02  0.99022152697E+02  0.16627437910E+03  0.12509000000E+03 0.  0.
<mgrwt>
<rscale>  2 0.44898877E+03</rscale>
<asrwt>0</asrwt>
<pdfrwt beam="1">  1       21 0.57921326E-01 0.44898877E+03</pdfrwt>
<pdfrwt beam="2">  1       21 0.18817185E-01 0.44898877E+03</pdfrwt>
<totfact> 0.66894807E+04</totfact>
</mgrwt>
</event>
<event>
 7    0  0.4691878E-002  0.4495588E+03  0.7546771E-02  0.1027854E+00
         21   -1    0    0  502  501  0.00000000000E+00  0.00000000000E+00  0.37685291488E+03  0.37685291488E+03  0.00000000000E+00 0. -1.
         21   -1    0    0  501  502 -0.00000000000E+00 -0.00000000000E+00 -0.13407292829E+03  0.13407292829E+03  0.00000000000E+00 0. -1.
      99926    2    1    2    0    0 -0.71054273576E-14  0.00000000000E+00  0.24277998659E+03  0.51092584316E+03  0.44955877850E+03 0.  0.
      99925    2    3    3    0    0  0.49054701907E+02  0.90347944096E+02  0.19097449122E+03  0.34092457190E+03  0.26303838626E+03 0.  0.
         25    1    4    4    0    0 -0.51809625625E+01  0.45008101284E+02  0.12598534868E+03  0.18322769370E+03  0.12509000000E+03 0.  0.
         25    1    3    3    0    0 -0.49054701907E+02 -0.90347944096E+02  0.51805495374E+02  0.17000127127E+03  0.12509000000E+03 0.  0.
         25    1    4    4    0    0  0.54235664470E+02  0.45339842812E+02  0.64989142537E+02  0.15769687820E+03  0.12509000000E+03 0.  0.
<mgrwt>
<rscale>  2 0.44955878E+03</rscale>
<asrwt>0</asrwt>
<pdfrwt beam="1">  1       21 0.55419546E-01 0.44955878E+03</pdfrwt>
<pdfrwt beam="2">  1       21 0.19716607E-01 0.44955878E+03</pdfrwt>
<totfact> 0.67372021E+04</totfact>
</mgrwt>
</event>
<event>
 7    0  0.4691878E-002  0.4505600E+03  0.7546771E-02  0.1027555E+00
         21   -1    0    0  502  501  0.00000000000E+00  0.00000000000E+00  0.70217382292E+02  0.70217382292E+02  0.00000000000E+00 0.  1.
         21   -1    0    0  501  502 -0.00000000000E+00 -0.00000000000E+00 -0.72277071885E+03  0.72277071885E+03  0.00000000000E+00 0.  1.
      99926    2    1    2    0    0  0.00000000000E+00  0.00000000000E+00 -0.65255333655E+03  0.79298810114E+03  0.45055995328E+03 0.  0.
      99925    2    3    3    0    0 -0.65046624965E+01  0.10009358724E+03 -0.33998184681E+03  0.44169124498E+03  0.26351937860E+03 0.  0.
         25    1    3    3    0    0  0.65046624965E+01 -0.10009358724E+03 -0.31257148975E+03  0.35129685615E+03  0.12509000000E+03 0.  0.
         25    1    4    4    0    0  0.25117117888E+02  0.17680664277E+02 -0.15086421979E+03  0.19837085576E+03  0.12509000000E+03 0.  0.
         25    1    4    4    0    0 -0.31621780385E+02  0.82412922962E+02 -0.18911762701E+03  0.24332038923E+03  0.12509000000E+03 0.  0.
<mgrwt>
<rscale>  2 0.45055995E+03</rscale>
<asrwt>0</asrwt>
<pdfrwt beam="1">  1       21 0.10326086E-01 0.45055995E+03</pdfrwt>
<pdfrwt beam="2">  1       21 0.10628981E+00 0.45055995E+03</pdfrwt>
<totfact> 0.49819336E+04</totfact>
</mgrwt>
</event>
<event>
 7    0  0.4691878E-002  0.4554388E+03  0.7546771E-02  0.1026112E+00
         21   -1    0    0  502  501  0.00000000000E+00  0.00000000000E+00  0.12337583815E+03  0.12337583815E+03  0.00000000000E+00 0. -1.
         21   -1    0    0  501  502 -0.00000000000E+00 -0.00000000000E+00 -0.42031013360E+03  0.42031013360E+03  0.00000000000E+00 0. -1.
      99926    2    1    2    0    0  0.00000000000E+00  0.00000000000E+00 -0.29693429545E+03  0.54368597175E+03  0.45543875556E+03 0.  0.
      99925    2    3    3    0    0  0.75637850909E+02  0.44232847403E+02 -0.10025047073E+03  0.29466857420E+03  0.26287217893E+03 0.  0.
         25    1    4    4    0    0  0.66741526234E+02 -0.56522667307E+01 -0.45333312290E+02  0.14895971518E+03  0.12509000000E+03 0.  0.
         25    1    3    3    0    0 -0.75637850909E+02 -0.44232847403E+02 -0.19668382472E+03  0.24901739756E+03  0.12509000000E+03 0.  0.
         25    1    4    4    0    0  0.88963246745E+01  0.49885114134E+02 -0.54917158436E+02  0.14570885902E+03  0.12509000000E+03 0.  0.
<mgrwt>
<rscale>  2 0.45543876E+03</rscale>
<asrwt>0</asrwt>
<pdfrwt beam="1">  1       21 0.18143505E-01 0.45543876E+03</pdfrwt>
<pdfrwt beam="2">  1       21 0.61810315E-01 0.45543876E+03</pdfrwt>
<totfact> 0.62069901E+04</totfact>
</mgrwt>
</event>
<event>
 7    0  0.4691878E-002  0.4398546E+03  0.7546771E-02  0.1030791E+00
         21   -1    0    0  502  501  0.00000000000E+00  0.00000000000E+00  0.38037113666E+02  0.38037113666E+02  0.00000000000E+00 0. -1.
         21   -1    0    0  501  502 -0.00000000000E+00 -0.00000000000E+00 -0.12716006633E+04  0.12716006633E+04  0.00000000000E+00 0. -1.
      99926    2    1    2    0    0  0.00000000000E+00  0.00000000000E+00 -0.12335635497E+04  0.13096377770E+04  0.43985460765E+03 0.  0.
      99925    2    3    3    0    0  0.68210262678E+02  0.22139125148E+02 -0.98768778440E+03  0.10246023742E+04  0.26294502275E+03 0.  0.
         25    1    4    4    0    0  0.16081838048E+02 -0.25070113645E+02 -0.49647112930E+03  0.51285302616E+03  0.12509000000E+03 0.  0.
         25    1    3    3    0    0 -0.68210262678E+02 -0.22139125148E+02 -0.24587576526E+03  0.28503540278E+03  0.12509000000E+03 0.  0.
         25    1    4    4    0    0  0.52128424629E+02  0.47209238793E+02 -0.49121665510E+03  0.51174934805E+03  0.12509000000E+03 0.  0.
<mgrwt>
<rscale>  2 0.43985461E+03</rscale>
<asrwt>0</asrwt>
<pdfrwt beam="1">  1       21 0.55936946E-02 0.43985461E+03</pdfrwt>
<pdfrwt beam="2">  1       21 0.18700005E+00 0.43985461E+03</pdfrwt>
<totfact> 0.32498471E+04</totfact>
</mgrwt>
</event>
<event>
 7    0  0.4691878E-002  0.4593778E+03  0.7546771E-02  0.1024962E+00
         21   -1    0    0  502  501  0.00000000000E+00  0.00000000000E+00  0.11917794937E+03  0.11917794937E+03  0.00000000000E+00 0. -1.
         21   -1    0    0  501  502 -0.00000000000E+00 -0.00000000000E+00 -0.44267402978E+03  0.44267402978E+03  0.00000000000E+00 0. -1.
      99926    2    1    2    0    0  0.00000000000E+00  0.00000000000E+00 -0.32349608041E+03  0.56185197914E+03  0.45937776658E+03 0.  0.
      99925    2    3    3    0    0  0.48460469660E+02 -0.81153887193E+02 -0.11780478958E+03  0.30321944880E+03  0.26292526535E+03 0.  0.
         25    1    4    4    0    0  0.74127872283E+01 -0.38002917753E+02 -0.17351391899E+02  0.13208993176E+03  0.12509000000E+03 0.  0.
         25    1    3    3    0    0 -0.48460469660E+02  0.81153887193E+02 -0.20569129083E+03  0.25863253034E+03  0.12509000000E+03 0.  0.
         25    1    4    4    0    0  0.41047682432E+02 -0.43150969440E+02 -0.10045339768E+03  0.17112951704E+03  0.12509000000E+03 0.  0.
<mgrwt>
<rscale>  2 0.45937777E+03</rscale>
<asrwt>0</asrwt>
<pdfrwt beam="1">  1       21 0.17526169E-01 0.45937777E+03</pdfrwt>
<pdfrwt beam="2">  1       21 0.65099122E-01 0.45937777E+03</pdfrwt>
<totfact> 0.59019711E+04</totfact>
</mgrwt>
</event>
<event>
 7    0  0.4691878E-002  0.4603629E+03  0.7546771E-02  0.1024676E+00
         21   -1    0    0  502  501  0.00000000000E+00  0.00000000000E+00  0.49750131049E+03  0.49750131049E+03  0.00000000000E+00 0.  1.
         21   -1    0    0  501  502 -0.00000000000E+00 -0.00000000000E+00 -0.10649920346E+03  0.10649920346E+03  0.00000000000E+00 0.  1.
      99926    2    1    2    0    0  0.00000000000E+00  0.00000000000E+00  0.39100210703E+03  0.60400051395E+03  0.46036287118E+03 0.  0.
      99925    2    3    3    0    0 -0.84144359523E+02 -0.79622578326E+02  0.21479752709E+03  0.35881570548E+03  0.26304126032E+03 0.  0.
         25    1    4    4    0    0 -0.36928222565E+02 -0.14437182895E+02  0.14152512627E+03  0.19299998792E+03  0.12509000000E+03 0.  0.
         25    1    4    4    0    0 -0.47216136957E+02 -0.65185395432E+02  0.73272400828E+02  0.16581571756E+03  0.12509000000E+03 0.  0.
         25    1    3    3    0    0  0.84144359523E+02  0.79622578326E+02  0.17620457993E+03  0.24518480848E+03  0.12509000000E+03 0.  0.
<mgrwt>
<rscale>  2 0.46036287E+03</rscale>
<asrwt>0</asrwt>
<pdfrwt beam="1">  1       21 0.73161956E-01 0.46036287E+03</pdfrwt>
<pdfrwt beam="2">  1       21 0.15661648E-01 0.46036287E+03</pdfrwt>
<totfact> 0.56021106E+04</totfact>
</mgrwt>
</event>
<event>
 7    0  0.4691878E-002  0.4621875E+03  0.7546771E-02  0.1024149E+00
         21   -1    0    0  502  501  0.00000000000E+00  0.00000000000E+00  0.20462442334E+03  0.20462442334E+03  0.00000000000E+00 0. -1.
         21   -1    0    0  501  502 -0.00000000000E+00 -0.00000000000E+00 -0.26098708973E+03  0.26098708973E+03  0.00000000000E+00 0. -1.
      99926    2    1    2    0    0  0.00000000000E+00  0.14210854715E-13 -0.56362666396E+02  0.46561151307E+03  0.46218754953E+03 0.  0.
      99925    2    3    3    0    0  0.48035366597E+02  0.10483526640E+03 -0.43901571400E+01  0.28771693940E+03  0.26356011498E+03 0.  0.
         25    1    4    4    0    0  0.12164154997E+02  0.46622007607E+02 -0.41648232248E+02  0.14036973181E+03  0.12509000000E+03 0.  0.
         25    1    4    4    0    0  0.35871211601E+02  0.58213258796E+02  0.37258075108E+02  0.14734720758E+03  0.12509000000E+03 0.  0.
         25    1    3    3    0    0 -0.48035366597E+02 -0.10483526640E+03 -0.51972509256E+02  0.17789457368E+03  0.12509000000E+03 0.  0.
<mgrwt>
<rscale>  2 0.46218755E+03</rscale>
<asrwt>0</asrwt>
<pdfrwt beam="1">  1       21 0.30091827E-01 0.46218755E+03</pdfrwt>
<pdfrwt beam="2">  1       21 0.38380454E-01 0.46218755E+03</pdfrwt>
<totfact> 0.64024154E+04</totfact>
</mgrwt>
</event>
<event>
 7    0  0.4691878E-002  0.4492799E+03  0.7546771E-02  0.1027937E+00
         21   -1    0    0  502  501  0.00000000000E+00  0.00000000000E+00  0.22456267628E+04  0.22456267628E+04  0.00000000000E+00 0.  1.
         21   -1    0    0  501  502 -0.00000000000E+00 -0.00000000000E+00 -0.22471721131E+02  0.22471721131E+02  0.00000000000E+00 0.  1.
      99926    2    1    2    0    0  0.00000000000E+00 -0.71054273576E-14  0.22231550416E+04  0.22680984839E+04  0.44927986101E+03 0.  0.
      99925    2    3    3    0    0 -0.17111818433E+02 -0.62669960720E+02  0.18401132887E+04  0.18599455336E+04  0.26298314416E+03 0.  0.
         25    1    4    4    0    0 -0.30978835909E+02 -0.16136236027E+02  0.69831130228E+03  0.71028603350E+03  0.12509000000E+03 0.  0.
         25    1    3    3    0    0  0.17111818433E+02  0.62669960720E+02  0.38304175291E+03  0.40815295035E+03  0.12509000000E+03 0.  0.
         25    1    4    4    0    0  0.13867017476E+02 -0.46533724693E+02  0.11418019864E+04  0.11496595001E+04  0.12509000000E+03 0.  0.
<mgrwt>
<rscale>  2 0.44927986E+03</rscale>
<asrwt>0</asrwt>
<pdfrwt beam="1">  1       21 0.33023908E+00 0.44927986E+03</pdfrwt>
<pdfrwt beam="2">  1       21 0.33046664E-02 0.44927986E+03</pdfrwt>
<totfact> 0.10253727E+04</totfact>
</mgrwt>
</event>
<event>
 6    0  0.4691878E-002  0.4555713E+03  0.7546771E-02  0.1026074E+00
         21   -1    0    0  502  501  0.00000000000E+00  0.00000000000E+00  0.73491876374E+02  0.73491876374E+02  0.00000000000E+00 0.  1.
         21   -1    0    0  501  502 -0.00000000000E+00 -0.00000000000E+00 -0.70601417094E+03  0.70601417094E+03  0.00000000000E+00 0.  1.
      99926    2    1    2    0    0  0.14210854715E-13  0.71054273576E-14 -0.63252229457E+03  0.77950604732E+03  0.45557131678E+03 0.  0.
         25    1    3    3    0    0 -0.99472769411E+02 -0.50574456599E+02 -0.24560700076E+03  0.29735990724E+03  0.12509000000E+03 0.  0.
         25    1    3    3    0    0  0.49890459788E+02  0.28647012530E+02 -0.26773791220E+03  0.30106611738E+03  0.12509000000E+03 0.  0.
         25    1    3    3    0    0  0.49582309623E+02  0.21927444069E+02 -0.11917738161E+03  0.18108002269E+03  0.12509000000E+03 0.  0.
<mgrwt>
<rscale>  2 0.45557132E+03</rscale>
<asrwt>0</asrwt>
<pdfrwt beam="1">  1       21 0.10807629E-01 0.45557132E+03</pdfrwt>
<pdfrwt beam="2">  1       21 0.10382562E+00 0.45557132E+03</pdfrwt>
<totfact> 0.48553987E+04</totfact>
</mgrwt>
</event>
<event>
 7    0  0.4691878E-002  0.4570664E+03  0.7546771E-02  0.1025635E+00
         21   -1    0    0  502  501  0.00000000000E+00  0.00000000000E+00  0.16674094671E+03  0.16674094671E+03  0.00000000000E+00 0.  1.
         21   -1    0    0  501  502 -0.00000000000E+00 -0.00000000000E+00 -0.31322496797E+03  0.31322496797E+03  0.00000000000E+00 0.  1.
      99926    2    1    2    0    0  0.14210854715E-13  0.71054273576E-14 -0.14648402126E+03  0.47996591469E+03  0.45706641834E+03 0.  0.
      99925    2    3    3    0    0  0.11005642760E+03  0.33570639302E+02 -0.96282469125E+02  0.30274540511E+03  0.26295448537E+03 0.  0.
         25    1    4    4    0    0  0.18782546434E+02  0.20676913939E+02 -0.20270123318E+02  0.12976403516E+03  0.12509000000E+03 0.  0.
         25    1    4    4    0    0  0.91273881162E+02  0.12893725363E+02 -0.76012345807E+02  0.17298136995E+03  0.12509000000E+03 0.  0.
         25    1    3    3    0    0 -0.11005642760E+03 -0.33570639302E+02 -0.50201552136E+02  0.17722050958E+03  0.12509000000E+03 0.  0.
<mgrwt>
<rscale>  2 0.45706642E+03</rscale>
<asrwt>0</asrwt>
<pdfrwt beam="1">  1       21 0.24520728E-01 0.45706642E+03</pdfrwt>
<pdfrwt beam="2">  1       21 0.46062495E-01 0.45706642E+03</pdfrwt>
<totfact> 0.65619700E+04</totfact>
</mgrwt>
</event>
<event>
 7    0  0.4691878E-002  0.4580861E+03  0.7546771E-02  0.1025338E+00
         21   -1    0    0  502  501  0.00000000000E+00  0.00000000000E+00  0.62494538368E+03  0.62494538368E+03  0.00000000000E+00 0. -1.
         21   -1    0    0  501  502 -0.00000000000E+00 -0.00000000000E+00 -0.83944496936E+02  0.83944496936E+02  0.00000000000E+00 0. -1.
      99926    2    1    2    0    0 -0.71054273576E-14  0.00000000000E+00  0.54100088675E+03  0.70888988062E+03  0.45808613096E+03 0.  0.
      99925    2    3    3    0    0 -0.47242931135E+02  0.40507564660E+02  0.49103423309E+03  0.56050884438E+03  0.26302621396E+03 0.  0.
         25    1    4    4    0    0 -0.19367620280E+02  0.53519099825E+02  0.30148010454E+03  0.33132636522E+03  0.12509000000E+03 0.  0.
         25    1    4    4    0    0 -0.27875310854E+02 -0.13011535165E+02  0.18955412855E+03  0.22918247916E+03  0.12509000000E+03 0.  0.
         25    1    3    3    0    0  0.47242931135E+02 -0.40507564660E+02  0.49966653663E+02  0.14838103624E+03  0.12509000000E+03 0.  0.
<mgrwt>
<rscale>  2 0.45808613E+03</rscale>
<asrwt>0</asrwt>
<pdfrwt beam="1">  1       21 0.91903730E-01 0.45808613E+03</pdfrwt>
<pdfrwt beam="2">  1       21 0.12344779E-01 0.45808613E+03</pdfrwt>
<totfact> 0.51169126E+04</totfact>
</mgrwt>
</event>
<event>
 7    0  0.4691878E-002  0.4488700E+03  0.7546771E-02  0.1028060E+00
         21   -1    0    0  502  501  0.00000000000E+00  0.00000000000E+00  0.39679153493E+02  0.39679153493E+02  0.00000000000E+00 0. -1.
         21   -1    0    0  501  502 -0.00000000000E+00 -0.00000000000E+00 -0.12694591136E+04  0.12694591136E+04  0.00000000000E+00 0. -1.
      99926    2    1    2    0    0 -0.71054273576E-14  0.14210854715E-13 -0.12297799601E+04  0.13091382671E+04  0.44886997236E+03 0.  0.
      99925    2    3    3    0    0 -0.48964892195E+02  0.91951758542E+02 -0.70288505763E+03  0.75766892713E+03  0.26298690524E+03 0.  0.
         25    1    4    4    0    0 -0.41419219110E+00  0.39277324695E+02 -0.42284896923E+03  0.44270942916E+03  0.12509000000E+03 0.  0.
         25    1    4    4    0    0 -0.48550700003E+02  0.52674433847E+02 -0.28003608840E+03  0.31495949796E+03  0.12509000000E+03 0.  0.
         25    1    3    3    0    0  0.48964892195E+02 -0.91951758542E+02 -0.52689490252E+03  0.55146934000E+03  0.12509000000E+03 0.  0.
<mgrwt>
<rscale>  2 0.44886997E+03</rscale>
<asrwt>0</asrwt>
<pdfrwt beam="1">  1       21 0.58351698E-02 0.44886997E+03</pdfrwt>
<pdfrwt beam="2">  1       21 0.18668516E+00 0.44886997E+03</pdfrwt>
<totfact> 0.30267812E+04</totfact>
</mgrwt>
</event>
<event>
 7    0  0.4691878E-002  0.4544746E+03  0.7546771E-02  0.1026396E+00
         21   -1    0    0  502  501  0.00000000000E+00  0.00000000000E+00  0.58878748553E+03  0.58878748553E+03  0.00000000000E+00 0. -1.
         21   -1    0    0  501  502 -0.00000000000E+00 -0.00000000000E+00 -0.87700221184E+02  0.87700221184E+02  0.00000000000E+00 0. -1.
      99926    2    1    2    0    0 -0.88817841970E-15  0.14210854715E-13  0.50108726435E+03  0.67648770672E+03  0.45447460968E+03 0.  0.
      99925    2    3    3    0    0 -0.72344488898E+01  0.79619570614E+02  0.43364479393E+03  0.51343063637E+03  0.26300493869E+03 0.  0.
         25    1    3    3    0    0  0.72344488898E+01 -0.79619570614E+02  0.67442470415E+02  0.16305707035E+03  0.12509000000E+03 0.  0.
         25    1    4    4    0    0  0.22618860770E+01  0.78629385728E+02  0.26244667694E+03  0.30118675729E+03  0.12509000000E+03 0.  0.
         25    1    4    4    0    0 -0.94963349667E+01  0.99018488597E+00  0.17119811699E+03  0.21224387908E+03  0.12509000000E+03 0.  0.
<mgrwt>
<rscale>  2 0.45447461E+03</rscale>
<asrwt>0</asrwt>
<pdfrwt beam="1">  1       21 0.86586393E-01 0.45447461E+03</pdfrwt>
<pdfrwt beam="2">  1       21 0.12897092E-01 0.45447461E+03</pdfrwt>
<totfact> 0.54423636E+04</totfact>
</mgrwt>
</event>
<event>
 7    0  0.4691878E-002  0.4062122E+03  0.7546771E-02  0.1041650E+00
         21   -1    0    0  502  501  0.00000000000E+00  0.00000000000E+00  0.38321391313E+03  0.38321391313E+03  0.00000000000E+00 0.  1.
         21   -1    0    0  501  502 -0.00000000000E+00 -0.00000000000E+00 -0.10764767824E+03  0.10764767824E+03  0.00000000000E+00 0.  1.
      99926    2    1    2    0    0  0.00000000000E+00  0.00000000000E+00  0.27556623489E+03  0.49086159137E+03  0.40621220079E+03 0.  0.
      99925    2    3    3    0    0  0.36804999163E+02  0.11509716740E+02  0.13262251438E+03  0.29703822622E+03  0.26297508432E+03 0.  0.
         25    1    4    4    0    0  0.55692598149E+01 -0.24969443039E+02  0.38731675048E+02  0.13342466224E+03  0.12509000000E+03 0.  0.
         25    1    3    3    0    0 -0.36804999163E+02 -0.11509716740E+02  0.14294372051E+03  0.19382336515E+03  0.12509000000E+03 0.  0.
         25    1    4    4    0    0  0.31235739348E+02  0.36479159779E+02  0.93890839331E+02  0.16361356399E+03  0.12509000000E+03 0.  0.
<mgrwt>
<rscale>  2 0.40621220E+03</rscale>
<asrwt>0</asrwt>
<pdfrwt beam="1">  1       21 0.56354987E-01 0.40621220E+03</pdfrwt>
<pdfrwt beam="2">  1       21 0.15830541E-01 0.40621220E+03</pdfrwt>
<totfact> 0.99035855E+04</totfact>
</mgrwt>
</event>
<event>
 7    0  0.4691878E-002  0.4195697E+03  0.7546771E-02  0.1037206E+00
         21   -1    0    0  502  501  0.00000000000E+00  0.00000000000E+00  0.27717085666E+03  0.27717085666E+03  0.00000000000E+00 0.  1.
         21   -1    0    0  501  502 -0.00000000000E+00 -0.00000000000E+00 -0.15878180395E+03  0.15878180395E+03  0.00000000000E+00 0.  1.
      99926    2    1    2    0    0  0.00000000000E+00 -0.35527136788E-14  0.11838905271E+03  0.43595266061E+03  0.41956972543E+03 0.  0.
      99925    2    3    3    0    0  0.11347568047E+02 -0.10774755060E+02  0.92164057244E+00  0.26364200029E+03  0.26317559204E+03 0.  0.
         25    1    3    3    0    0 -0.11347568047E+02  0.10774755060E+02  0.11746741214E+03  0.17231066033E+03  0.12509000000E+03 0.  0.
         25    1    4    4    0    0  0.10172741000E+02  0.26250971686E+02  0.25909497108E+02  0.13081058181E+03  0.12509000000E+03 0.  0.
         25    1    4    4    0    0  0.11748270465E+01 -0.37025726746E+02 -0.24987856536E+02  0.13283141847E+03  0.12509000000E+03 0.  0.
<mgrwt>
<rscale>  2 0.41956973E+03</rscale>
<asrwt>0</asrwt>
<pdfrwt beam="1">  1       21 0.40760420E-01 0.41956973E+03</pdfrwt>
<pdfrwt beam="2">  1       21 0.23350265E-01 0.41956973E+03</pdfrwt>
<totfact> 0.93761403E+04</totfact>
</mgrwt>
</event>
<event>
 7    0  0.4691878E-002  0.4371635E+03  0.7546771E-02  0.1031621E+00
         21   -1    0    0  502  501  0.00000000000E+00  0.00000000000E+00  0.13343144951E+03  0.13343144951E+03  0.00000000000E+00 0. -1.
         21   -1    0    0  501  502 -0.00000000000E+00 -0.00000000000E+00 -0.35807139352E+03  0.35807139352E+03  0.00000000000E+00 0. -1.
      99926    2    1    2    0    0 -0.22204460493E-14  0.00000000000E+00 -0.22463994401E+03  0.49150284303E+03  0.43716351662E+03 0.  0.
      99925    2    3    3    0    0 -0.26525387414E+01  0.54239358564E+02 -0.23212346947E+03  0.35492885125E+03  0.26295292429E+03 0.  0.
         25    1    3    3    0    0  0.26525387414E+01 -0.54239358564E+02  0.74835254600E+01  0.13657399179E+03  0.12509000000E+03 0.  0.
         25    1    4    4    0    0 -0.33846125081E+02  0.43201861068E+02 -0.94949235159E+02  0.16635752565E+03  0.12509000000E+03 0.  0.
         25    1    4    4    0    0  0.31193586340E+02  0.11037497497E+02 -0.13717423431E+03  0.18857132560E+03  0.12509000000E+03 0.  0.
<mgrwt>
<rscale>  2 0.43716352E+03</rscale>
<asrwt>0</asrwt>
<pdfrwt beam="1">  1       21 0.19622272E-01 0.43716352E+03</pdfrwt>
<pdfrwt beam="2">  1       21 0.52657557E-01 0.43716352E+03</pdfrwt>
<totfact> 0.76086977E+04</totfact>
</mgrwt>
</event>
<event>
 7    0  0.4691878E-002  0.4547158E+03  0.7546771E-02  0.1026325E+00
         21   -1    0    0  502  501  0.00000000000E+00  0.00000000000E+00  0.19437787344E+03  0.19437787344E+03  0.00000000000E+00 0. -1.
         21   -1    0    0  501  502 -0.00000000000E+00 -0.00000000000E+00 -0.26593367090E+03  0.26593367090E+03  0.00000000000E+00 0. -1.
      99926    2    1    2    0    0  0.71054273576E-14 -0.14210854715E-13 -0.71555797463E+02  0.46031154434E+03  0.45471582962E+03 0.  0.
      99925    2    3    3    0    0 -0.37810973736E+02  0.80807412542E+02 -0.11500269509E+03  0.30064110666E+03  0.26305882893E+03 0.  0.
         25    1    4    4    0    0  0.13035611460E+02  0.16130150282E+02 -0.67022053098E+02  0.14342096296E+03  0.12509000000E+03 0.  0.
         25    1    4    4    0    0 -0.50846585196E+02  0.64677262260E+02 -0.47980641990E+02  0.15722014370E+03  0.12509000000E+03 0.  0.
         25    1    3    3    0    0  0.37810973736E+02 -0.80807412542E+02  0.43446897626E+02  0.15967043768E+03  0.12509000000E+03 0.  0.
<mgrwt>
<rscale>  2 0.45471583E+03</rscale>
<asrwt>0</asrwt>
<pdfrwt beam="1">  1       21 0.28584981E-01 0.45471583E+03</pdfrwt>
<pdfrwt beam="2">  1       21 0.39107893E-01 0.45471583E+03</pdfrwt>
<totfact> 0.68312520E+04</totfact>
</mgrwt>
</event>
<event>
 7    0  0.4691878E-002  0.4530669E+03  0.7546771E-02  0.1026811E+00
         21   -1    0    0  502  501  0.00000000000E+00  0.00000000000E+00  0.20205980495E+03  0.20205980495E+03  0.00000000000E+00 0. -1.
         21   -1    0    0  501  502 -0.00000000000E+00 -0.00000000000E+00 -0.25397132774E+03  0.25397132774E+03  0.00000000000E+00 0. -1.
      99926    2    1    2    0    0  0.00000000000E+00  0.00000000000E+00 -0.51911522792E+02  0.45603113269E+03  0.45306686900E+03 0.  0.
      99925    2    3    3    0    0  0.88756180144E+02 -0.35784900000E+02  0.24594358313E+02  0.28093436937E+03  0.26298482628E+03 0.  0.
         25    1    4    4    0    0  0.91696210926E+01 -0.12659604533E+02 -0.11541850214E+02  0.12659016527E+03  0.12509000000E+03 0.  0.
         25    1    3    3    0    0 -0.88756180144E+02  0.35784900000E+02 -0.76505881105E+02  0.17509676332E+03  0.12509000000E+03 0.  0.
         25    1    4    4    0    0  0.79586559051E+02 -0.23125295467E+02  0.36136208527E+02  0.15434420410E+03  0.12509000000E+03 0.  0.
<mgrwt>
<rscale>  2 0.45306687E+03</rscale>
<asrwt>0</asrwt>
<pdfrwt beam="1">  1       21 0.29714677E-01 0.45306687E+03</pdfrwt>
<pdfrwt beam="2">  1       21 0.37348724E-01 0.45306687E+03</pdfrwt>
<totfact> 0.69536553E+04</totfact>
</mgrwt>
</event>
<event>
 7    0  0.4691878E-002  0.4585337E+03  0.7546771E-02  0.1025207E+00
         21   -1    0    0  502  501  0.00000000000E+00  0.00000000000E+00  0.20935256467E+03  0.20935256467E+03  0.00000000000E+00 0. -1.
         21   -1    0    0  501  502 -0.00000000000E+00 -0.00000000000E+00 -0.25107547049E+03  0.25107547049E+03  0.00000000000E+00 0. -1.
      99926    2    1    2    0    0  0.00000000000E+00  0.00000000000E+00 -0.41722905821E+02  0.46042803516E+03  0.45853372253E+03 0.  0.
      99925    2    3    3    0    0 -0.78242653710E+02  0.72480330133E+02 -0.73134647954E+02  0.29306759551E+03  0.26299168750E+03 0.  0.
         25    1    3    3    0    0  0.78242653710E+02 -0.72480330133E+02  0.31411742134E+02  0.16736043965E+03  0.12509000000E+03 0.  0.
         25    1    4    4    0    0 -0.70856667697E+02  0.62667419782E+02 -0.54351827158E+02  0.16598042678E+03  0.12509000000E+03 0.  0.
         25    1    4    4    0    0 -0.73859860131E+01  0.98129103509E+01 -0.18782820797E+02  0.12708716873E+03  0.12509000000E+03 0.  0.
<mgrwt>
<rscale>  2 0.45853372E+03</rscale>
<asrwt>0</asrwt>
<pdfrwt beam="1">  1       21 0.30787142E-01 0.45853372E+03</pdfrwt>
<pdfrwt beam="2">  1       21 0.36922863E-01 0.45853372E+03</pdfrwt>
<totfact> 0.66261963E+04</totfact>
</mgrwt>
</event>
<event>
 7    0  0.4691878E-002  0.4716912E+03  0.7546771E-02  0.1021444E+00
         21   -1    0    0  502  501  0.00000000000E+00  0.00000000000E+00  0.30368550265E+03  0.30368550265E+03  0.00000000000E+00 0. -1.
         21   -1    0    0  501  502 -0.00000000000E+00 -0.00000000000E+00 -0.18316035699E+03  0.18316035699E+03  0.00000000000E+00 0. -1.
      99926    2    1    2    0    0  0.00000000000E+00 -0.71054273576E-14  0.12052514566E+03  0.48684585964E+03  0.47169119168E+03 0.  0.
      99925    2    3    3    0    0 -0.85456745312E+02 -0.42788711752E+02  0.16281792340E+03  0.32384304886E+03  0.26311768269E+03 0.  0.
         25    1    4    4    0    0 -0.36461493295E+02  0.15022705412E+02  0.55394914536E+02  0.14237705864E+03  0.12509000000E+03 0.  0.
         25    1    4    4    0    0 -0.48995252017E+02 -0.57811417164E+02  0.10742300886E+03  0.18146599022E+03  0.12509000000E+03 0.  0.
         25    1    3    3    0    0  0.85456745312E+02  0.42788711752E+02 -0.42292777733E+02  0.16300281078E+03  0.12509000000E+03 0.  0.
<mgrwt>
<rscale>  2 0.47169119E+03</rscale>
<asrwt>0</asrwt>
<pdfrwt beam="1">  1       21 0.44659633E-01 0.47169119E+03</pdfrwt>
<pdfrwt beam="2">  1       21 0.26935347E-01 0.47169119E+03</pdfrwt>
<totfact> 0.58116481E+04</totfact>
</mgrwt>
</event>
<event>
 7    0  0.4691878E-002  0.4584724E+03  0.7546771E-02  0.1025225E+00
         21   -1    0    0  502  501  0.00000000000E+00  0.00000000000E+00  0.18015352346E+03  0.18015352346E+03  0.00000000000E+00 0. -1.
         21   -1    0    0  501  502 -0.00000000000E+00 -0.00000000000E+00 -0.29169136509E+03  0.29169136509E+03  0.00000000000E+00 0. -1.
      99926    2    1    2    0    0  0.71054273576E-14  0.00000000000E+00 -0.11153784163E+03  0.47184488855E+03  0.45847236420E+03 0.  0.
      99925    2    3    3    0    0 -0.61573199733E+02  0.19307032557E+02 -0.16965709658E+03  0.31956430434E+03  0.26300911345E+03 0.  0.
         25    1    3    3    0    0  0.61573199733E+02 -0.19307032557E+02  0.58119254952E+02  0.15228058421E+03  0.12509000000E+03 0.  0.
         25    1    4    4    0    0 -0.49450853956E+02 -0.20280722892E+02 -0.62373769707E+02  0.14964855471E+03  0.12509000000E+03 0.  0.
         25    1    4    4    0    0 -0.12122345777E+02  0.39587755449E+02 -0.10728332687E+03  0.16991574963E+03  0.12509000000E+03 0.  0.
<mgrwt>
<rscale>  2 0.45847236E+03</rscale>
<asrwt>0</asrwt>
<pdfrwt beam="1">  1       21 0.26493165E-01 0.45847236E+03</pdfrwt>
<pdfrwt beam="2">  1       21 0.42895789E-01 0.45847236E+03</pdfrwt>
<totfact> 0.65476532E+04</totfact>
</mgrwt>
</event>
<event>
 7    0  0.4691878E-002  0.4595005E+03  0.7546771E-02  0.1024926E+00
         21   -1    0    0  502  501  0.00000000000E+00  0.00000000000E+00  0.14053652401E+04  0.14053652401E+04  0.00000000000E+00 0.  1.
         21   -1    0    0  501  502 -0.00000000000E+00 -0.00000000000E+00 -0.37559757159E+02  0.37559757159E+02  0.00000000000E+00 0.  1.
      99926    2    1    2    0    0  0.35527136788E-14  0.00000000000E+00  0.13678054830E+04  0.14429249973E+04  0.45950049897E+03 0.  0.
      99925    2    3    3    0    0 -0.17763925428E+02  0.52482883640E+02  0.11825416329E+04  0.12126203895E+04  0.26262803618E+03 0.  0.
         25    1    4    4    0    0  0.24224558513E+02  0.28189299174E+02  0.48234470052E+03  0.49968528500E+03  0.12509000000E+03 0.  0.
         25    1    3    3    0    0  0.17763925428E+02 -0.52482883640E+02  0.18526385007E+03  0.23030460778E+03  0.12509000000E+03 0.  0.
         25    1    4    4    0    0 -0.41988483942E+02  0.24293584466E+02  0.70019693237E+03  0.71293510450E+03  0.12509000000E+03 0.  0.
<mgrwt>
<rscale>  2 0.45950050E+03</rscale>
<asrwt>0</asrwt>
<pdfrwt beam="1">  1       21 0.20667132E+00 0.45950050E+03</pdfrwt>
<pdfrwt beam="2">  1       21 0.55234946E-02 0.45950050E+03</pdfrwt>
<totfact> 0.24347680E+04</totfact>
</mgrwt>
</event>
<event>
 7    0  0.4691878E-002  0.4551217E+03  0.7546771E-02  0.1026206E+00
         21   -1    0    0  502  501  0.00000000000E+00  0.00000000000E+00  0.52832516042E+02  0.52832516042E+02  0.00000000000E+00 0. -1.
         21   -1    0    0  501  502 -0.00000000000E+00 -0.00000000000E+00 -0.98015273417E+03  0.98015273417E+03  0.00000000000E+00 0. -1.
      99926    2    1    2    0    0  0.00000000000E+00  0.00000000000E+00 -0.92732021813E+03  0.10329852502E+04  0.45512167627E+03 0.  0.
      99925    2    3    3    0    0 -0.54300608441E+02  0.84958866170E+02 -0.46610592672E+03  0.54458715878E+03  0.26297124095E+03 0.  0.
         25    1    4    4    0    0 -0.44982620987E+01  0.73810343722E+02 -0.21610246478E+03  0.26041502374E+03  0.12509000000E+03 0.  0.
         25    1    4    4    0    0 -0.49802346342E+02  0.11148522449E+02 -0.25000346194E+03  0.28417213504E+03  0.12509000000E+03 0.  0.
         25    1    3    3    0    0  0.54300608441E+02 -0.84958866170E+02 -0.46121429140E+03  0.48839809143E+03  0.12509000000E+03 0.  0.
<mgrwt>
<rscale>  2 0.45512168E+03</rscale>
<asrwt>0</asrwt>
<pdfrwt beam="1">  1       21 0.77694883E-02 0.45512168E+03</pdfrwt>
<pdfrwt beam="2">  1       21 0.14414010E+00 0.45512168E+03</pdfrwt>
<totfact> 0.37871996E+04</totfact>
</mgrwt>
</event>
<event>
 7    0  0.4691878E-002  0.4561430E+03  0.7546771E-02  0.1025906E+00
         21   -1    0    0  502  501  0.00000000000E+00  0.00000000000E+00  0.81296351316E+03  0.81296351316E+03  0.00000000000E+00 0. -1.
         21   -1    0    0  501  502 -0.00000000000E+00 -0.00000000000E+00 -0.63983947400E+02  0.63983947400E+02  0.00000000000E+00 0. -1.
      99926    2    1    2    0    0  0.00000000000E+00 -0.35527136788E-14  0.74897956576E+03  0.87694746056E+03  0.45614302434E+03 0.  0.
      99925    2    3    3    0    0 -0.31590648380E+02  0.16826141207E+02  0.67899359339E+03  0.72920906838E+03  0.26350043161E+03 0.  0.
         25    1    3    3    0    0  0.31590648380E+02 -0.16826141207E+02  0.69985972370E+02  0.14773839217E+03  0.12509000000E+03 0.  0.
         25    1    4    4    0    0 -0.46743579996E+02  0.36083054210E+02  0.36454283582E+03  0.38990503501E+03  0.12509000000E+03 0.  0.
         25    1    4    4    0    0  0.15152931616E+02 -0.19256913003E+02  0.31445075756E+03  0.33930403338E+03  0.12509000000E+03 0.  0.
<mgrwt>
<rscale>  2 0.45614302E+03</rscale>
<asrwt>0</asrwt>
<pdfrwt beam="1">  1       21 0.11955345E+00 0.45614302E+03</pdfrwt>
<pdfrwt beam="2">  1       21 0.94094045E-02 0.45614302E+03</pdfrwt>
<totfact> 0.43851541E+04</totfact>
</mgrwt>
</event>
<event>
 7    0  0.4691878E-002  0.4153852E+03  0.7546771E-02  0.1038579E+00
         21   -1    0    0  502  501  0.00000000000E+00  0.00000000000E+00  0.60876370444E+03  0.60876370444E+03  0.00000000000E+00 0.  1.
         21   -1    0    0  501  502 -0.00000000000E+00 -0.00000000000E+00 -0.70858734265E+02  0.70858734265E+02  0.00000000000E+00 0.  1.
      99926    2    1    2    0    0  0.53290705182E-14  0.00000000000E+00  0.53790497018E+03  0.67962243871E+03  0.41538524559E+03 0.  0.
      99925    2    3    3    0    0  0.12241624370E+02  0.36247132062E+02  0.25718485338E+03  0.36992096305E+03  0.26312308554E+03 0.  0.
         25    1    3    3    0    0 -0.12241624370E+02 -0.36247132062E+02  0.28072011680E+03  0.30970147566E+03  0.12509000000E+03 0.  0.
         25    1    4    4    0    0 -0.29025050442E+02  0.17261345898E+02  0.15569506673E+03  0.20255584297E+03  0.12509000000E+03 0.  0.
         25    1    4    4    0    0  0.41266674812E+02  0.18985786164E+02  0.10148978665E+03  0.16736512008E+03  0.12509000000E+03 0.  0.
<mgrwt>
<rscale>  2 0.41538525E+03</rscale>
<asrwt>0</asrwt>
<pdfrwt beam="1">  1       21 0.89524071E-01 0.41538525E+03</pdfrwt>
<pdfrwt beam="2">  1       21 0.10420402E-01 0.41538525E+03</pdfrwt>
<totfact> 0.74752299E+04</totfact>
</mgrwt>
</event>
<event>
 7    0  0.4691878E-002  0.4557586E+03  0.7546771E-02  0.1026019E+00
         21   -1    0    0  502  501  0.00000000000E+00  0.00000000000E+00  0.12542771180E+03  0.12542771180E+03  0.00000000000E+00 0.  1.
         21   -1    0    0  501  502 -0.00000000000E+00 -0.00000000000E+00 -0.41401512465E+03  0.41401512465E+03  0.00000000000E+00 0.  1.
      99926    2    1    2    0    0  0.00000000000E+00  0.00000000000E+00 -0.28858741285E+03  0.53944283645E+03  0.45575857528E+03 0.  0.
      99925    2    3    3    0    0  0.91880991910E+02  0.56476783508E+02 -0.22534964777E+03  0.36258620869E+03  0.26278232671E+03 0.  0.
         25    1    4    4    0    0  0.17551520504E+02  0.53461996214E+02 -0.12702509922E+03  0.18694685032E+03  0.12509000000E+03 0.  0.
         25    1    3    3    0    0 -0.91880991910E+02 -0.56476783508E+02 -0.63237765083E+02  0.17685662776E+03  0.12509000000E+03 0.  0.
         25    1    4    4    0    0  0.74329471406E+02  0.30147872941E+01 -0.98324548543E+02  0.17563935837E+03  0.12509000000E+03 0.  0.
<mgrwt>
<rscale>  2 0.45575858E+03</rscale>
<asrwt>0</asrwt>
<pdfrwt beam="1">  1       21 0.18445252E-01 0.45575858E+03</pdfrwt>
<pdfrwt beam="2">  1       21 0.60884577E-01 0.45575858E+03</pdfrwt>
<totfact> 0.62195350E+04</totfact>
</mgrwt>
</event>
<event>
 7    0  0.4691878E-002  0.4616584E+03  0.7546771E-02  0.1024301E+00
         21   -1    0    0  502  501  0.00000000000E+00  0.00000000000E+00  0.34845263789E+03  0.34845263789E+03  0.00000000000E+00 0.  1.
         21   -1    0    0  501  502 -0.00000000000E+00 -0.00000000000E+00 -0.15291063881E+03  0.15291063881E+03  0.00000000000E+00 0.  1.
      99926    2    1    2    0    0 -0.35527136788E-14 -0.14210854715E-13  0.19554199908E+03  0.50136327670E+03  0.46165838216E+03 0.  0.
      99925    2    3    3    0    0 -0.11524937495E+02 -0.11864767459E+03  0.11683832902E+03  0.31148997513E+03  0.26299185275E+03 0.  0.
         25    1    4    4    0    0  0.17725325438E+02 -0.89900634271E+02  0.81565079165E+02  0.17520468442E+03  0.12509000000E+03 0.  0.
         25    1    4    4    0    0 -0.29250262932E+02 -0.28747040315E+02  0.35273249856E+02  0.13628529071E+03  0.12509000000E+03 0.  0.
         25    1    3    3    0    0  0.11524937495E+02  0.11864767459E+03  0.78703670061E+02  0.18987330157E+03  0.12509000000E+03 0.  0.
<mgrwt>
<rscale>  2 0.46165838E+03</rscale>
<asrwt>0</asrwt>
<pdfrwt beam="1">  1       21 0.51243035E-01 0.46165838E+03</pdfrwt>
<pdfrwt beam="2">  1       21 0.22486859E-01 0.46165838E+03</pdfrwt>
<totfact> 0.61841095E+04</totfact>
</mgrwt>
</event>
<event>
 7    0  0.4691878E-002  0.4680324E+03  0.7546771E-02  0.1022477E+00
         21   -1    0    0  502  501  0.00000000000E+00  0.00000000000E+00  0.77731134653E+02  0.77731134653E+02  0.00000000000E+00 0. -1.
         21   -1    0    0  501  502 -0.00000000000E+00 -0.00000000000E+00 -0.70452575168E+03  0.70452575168E+03  0.00000000000E+00 0. -1.
      99926    2    1    2    0    0  0.00000000000E+00  0.00000000000E+00 -0.62679461703E+03  0.78225688634E+03  0.46803241798E+03 0.  0.
      99925    2    3    3    0    0  0.21459293741E+02 -0.43547103455E+02 -0.19741812380E+03  0.33240298500E+03  0.26298474732E+03 0.  0.
         25    1    4    4    0    0 -0.17544423728E+02 -0.45460034147E+02 -0.78905769531E+02  0.15571785406E+03  0.12509000000E+03 0.  0.
         25    1    4    4    0    0  0.39003717469E+02  0.19129306922E+01 -0.11851235427E+03  0.17668513094E+03  0.12509000000E+03 0.  0.
         25    1    3    3    0    0 -0.21459293741E+02  0.43547103455E+02 -0.42937649323E+03  0.44985390134E+03  0.12509000000E+03 0.  0.
<mgrwt>
<rscale>  2 0.46803242E+03</rscale>
<asrwt>0</asrwt>
<pdfrwt beam="1">  1       21 0.11431049E-01 0.46803242E+03</pdfrwt>
<pdfrwt beam="2">  1       21 0.10360673E+00 0.46803242E+03</pdfrwt>
<totfact> 0.43962617E+04</totfact>
</mgrwt>
</event>
<event>
 7    0  0.4691878E-002  0.4611222E+03  0.7546771E-02  0.1024456E+00
         21   -1    0    0  502  501  0.00000000000E+00  0.00000000000E+00  0.27290062894E+02  0.27290062894E+02  0.00000000000E+00 0.  1.
         21   -1    0    0  501  502 -0.00000000000E+00 -0.00000000000E+00 -0.19479038011E+04  0.19479038011E+04  0.00000000000E+00 0.  1.
      99926    2    1    2    0    0  0.22204460493E-14  0.14210854715E-13 -0.19206137382E+04  0.19751938640E+04  0.46112218443E+03 0.  0.
      99925    2    3    3    0    0 -0.25877163518E+00 -0.11623206756E+03 -0.13080428679E+04  0.13392689158E+04  0.26297361857E+03 0.  0.
         25    1    3    3    0    0  0.25877163518E+00  0.11623206756E+03 -0.61257087028E+03  0.63592494817E+03  0.12509000000E+03 0.  0.
         25    1    4    4    0    0 -0.30177742585E+02 -0.72439170372E+02 -0.56956461240E+03  0.58839568774E+03  0.12509000000E+03 0.  0.
         25    1    4    4    0    0  0.29918970950E+02 -0.43792897185E+02 -0.73847825552E+03  0.75087322808E+03  0.12509000000E+03 0.  0.
<mgrwt>
<rscale>  2 0.46112218E+03</rscale>
<asrwt>0</asrwt>
<pdfrwt beam="1">  1       21 0.40132444E-02 0.46112218E+03</pdfrwt>
<pdfrwt beam="2">  1       21 0.28645645E+00 0.46112218E+03</pdfrwt>
<totfact> 0.13467678E+04</totfact>
</mgrwt>
</event>
<event>
 7    0  0.4691878E-002  0.4461941E+03  0.7546771E-02  0.1028863E+00
         21   -1    0    0  502  501  0.00000000000E+00  0.00000000000E+00  0.53006658758E+03  0.53006658758E+03  0.00000000000E+00 0. -1.
         21   -1    0    0  501  502 -0.00000000000E+00 -0.00000000000E+00 -0.93898192470E+02  0.93898192470E+02  0.00000000000E+00 0. -1.
      99926    2    1    2    0    0  0.14210854715E-13  0.00000000000E+00  0.43616839511E+03  0.62396478005E+03  0.44619410333E+03 0.  0.
      99925    2    3    3    0    0  0.68591518129E+02 -0.72686542411E+02  0.23287527426E+03  0.36519126732E+03  0.26295558286E+03 0.  0.
         25    1    4    4    0    0 -0.67120714957E+00 -0.42308132439E+02  0.83753630183E+02  0.15637329458E+03  0.12509000000E+03 0.  0.
         25    1    3    3    0    0 -0.68591518129E+02  0.72686542411E+02  0.20329312084E+03  0.25877351273E+03  0.12509000000E+03 0.  0.
         25    1    4    4    0    0  0.69262725279E+02 -0.30378409971E+02  0.14912164408E+03  0.20881797274E+03  0.12509000000E+03 0.  0.
<mgrwt>
<rscale>  2 0.44619410E+03</rscale>
<asrwt>0</asrwt>
<pdfrwt beam="1">  1       21 0.77950968E-01 0.44619410E+03</pdfrwt>
<pdfrwt beam="2">  1       21 0.13808558E-01 0.44619410E+03</pdfrwt>
<totfact> 0.61384527E+04</totfact>
</mgrwt>
</event>
<event>
 7    0  0.4691878E-002  0.4491821E+03  0.7546771E-02  0.1027966E+00
         21   -1    0    0  502  501  0.00000000000E+00  0.00000000000E+00  0.42764322784E+03  0.42764322784E+03  0.00000000000E+00 0. -1.
         21   -1    0    0  501  502 -0.00000000000E+00 -0.00000000000E+00 -0.11795147390E+03  0.11795147390E+03  0.00000000000E+00 0. -1.
      99926    2    1    2    0    0 -0.48572257327E-14  0.14210854715E-13  0.30969175395E+03  0.54559470174E+03  0.44918214135E+03 0.  0.
      99925    2    3    3    0    0 -0.23361504046E+00  0.10749133994E+03  0.20163628081E+03  0.34841981462E+03  0.26302991225E+03 0.  0.
         25    1    4    4    0    0  0.32403747756E+02  0.72545367581E+02  0.12665006664E+03  0.19493737637E+03  0.12509000000E+03 0.  0.
         25    1    4    4    0    0 -0.32637362796E+02  0.34945972357E+02  0.74986214168E+02  0.15348243824E+03  0.12509000000E+03 0.  0.
         25    1    3    3    0    0  0.23361504046E+00 -0.10749133994E+03  0.10805547314E+03  0.19717488712E+03  0.12509000000E+03 0.  0.
<mgrwt>
<rscale>  2 0.44918214E+03</rscale>
<asrwt>0</asrwt>
<pdfrwt beam="1">  1       21 0.62888709E-01 0.44918214E+03</pdfrwt>
<pdfrwt beam="2">  1       21 0.17345805E-01 0.44918214E+03</pdfrwt>
<totfact> 0.65104272E+04</totfact>
</mgrwt>
</event>
<event>
 7    0  0.4691878E-002  0.4502096E+03  0.7546771E-02  0.1027660E+00
         21   -1    0    0  502  501  0.00000000000E+00  0.00000000000E+00  0.13092782029E+04  0.13092782029E+04  0.00000000000E+00 0.  1.
         21   -1    0    0  501  502 -0.00000000000E+00 -0.00000000000E+00 -0.38702379469E+02  0.38702379469E+02  0.00000000000E+00 0.  1.
      99926    2    1    2    0    0 -0.71054273576E-14  0.71054273576E-14  0.12705758235E+04  0.13479805824E+04  0.45020964823E+03 0.  0.
      99925    2    3    3    0    0  0.38914678115E+02  0.63020884265E+02  0.56490650638E+03  0.62749277737E+03  0.26294836123E+03 0.  0.
         25    1    4    4    0    0  0.53626089142E+02  0.98259292585E+01  0.28331945234E+03  0.31446736953E+03  0.12509000000E+03 0.  0.
         25    1    3    3    0    0 -0.38914678115E+02 -0.63020884265E+02  0.70566931708E+03  0.72048780503E+03  0.12509000000E+03 0.  0.
         25    1    4    4    0    0 -0.14711411027E+02  0.53194955007E+02  0.28158705404E+03  0.31302540784E+03  0.12509000000E+03 0.  0.
<mgrwt>
<rscale>  2 0.45020965E+03</rscale>
<asrwt>0</asrwt>
<pdfrwt beam="1">  1       21 0.19254088E+00 0.45020965E+03</pdfrwt>
<pdfrwt beam="2">  1       21 0.56915273E-02 0.45020965E+03</pdfrwt>
<totfact> 0.28809740E+04</totfact>
</mgrwt>
</event>
<event>
 6    0  0.4691878E-002  0.4638187E+03  0.7546771E-02  0.1023679E+00
         21   -1    0    0  502  501  0.00000000000E+00  0.00000000000E+00  0.70382259174E+02  0.70382259174E+02  0.00000000000E+00 0.  1.
         21   -1    0    0  501  502 -0.00000000000E+00 -0.00000000000E+00 -0.76414056473E+03  0.76414056473E+03  0.00000000000E+00 0.  1.
      99926    2    1    2    0    0  0.00000000000E+00  0.35527136788E-14 -0.69375830556E+03  0.83452282390E+03  0.46381866833E+03 0.  0.
         25    1    3    3    0    0 -0.12015248676E+03 -0.24273642837E+02 -0.23337019614E+03  0.29177900260E+03  0.12509000000E+03 0.  0.
         25    1    3    3    0    0  0.86804362648E+02  0.36996558762E+02 -0.23322319463E+03  0.28097029976E+03  0.12509000000E+03 0.  0.
         25    1    3    3    0    0  0.33348124111E+02 -0.12722915925E+02 -0.22716491478E+03  0.26177352154E+03  0.12509000000E+03 0.  0.
<mgrwt>
<rscale>  2 0.46381867E+03</rscale>
<asrwt>0</asrwt>
<pdfrwt beam="1">  1       21 0.10350332E-01 0.46381867E+03</pdfrwt>
<pdfrwt beam="2">  1       21 0.11237361E+00 0.46381867E+03</pdfrwt>
<totfact> 0.43080843E+04</totfact>
</mgrwt>
</event>
<event>
 7    0  0.4691878E-002  0.4487249E+03  0.7546771E-02  0.1028103E+00
         21   -1    0    0  502  501  0.00000000000E+00  0.00000000000E+00  0.10618513344E+03  0.10618513344E+03  0.00000000000E+00 0. -1.
         21   -1    0    0  501  502 -0.00000000000E+00 -0.00000000000E+00 -0.47406357438E+03  0.47406357438E+03  0.00000000000E+00 0. -1.
      99926    2    1    2    0    0  0.00000000000E+00  0.00000000000E+00 -0.36787844094E+03  0.58024870782E+03  0.44872487743E+03 0.  0.
      99925    2    3    3    0    0  0.44796931826E+02  0.87894114722E+02 -0.28702611273E+03  0.40159611875E+03  0.26298918743E+03 0.  0.
         25    1    3    3    0    0 -0.44796931826E+02 -0.87894114722E+02 -0.80852328212E+02  0.17865258907E+03  0.12509000000E+03 0.  0.
         25    1    4    4    0    0  0.47217238118E+02  0.60124607014E+02 -0.11112000592E+03  0.18395542873E+03  0.12509000000E+03 0.  0.
         25    1    4    4    0    0 -0.24203062917E+01  0.27769507708E+02 -0.17590610681E+03  0.21764069002E+03  0.12509000000E+03 0.  0.
<mgrwt>
<rscale>  2 0.44872488E+03</rscale>
<asrwt>0</asrwt>
<pdfrwt beam="1">  1       21 0.15615461E-01 0.44872488E+03</pdfrwt>
<pdfrwt beam="2">  1       21 0.69715233E-01 0.44872488E+03</pdfrwt>
<totfact> 0.62977292E+04</totfact>
</mgrwt>
</event>
<event>
 7    0  0.4691878E-002  0.4725895E+03  0.7546771E-02  0.1021192E+00
         21   -1    0    0  502  501  0.00000000000E+00  0.00000000000E+00  0.10967966856E+03  0.10967966856E+03  0.00000000000E+00 0.  1.
         21   -1    0    0  501  502 -0.00000000000E+00 -0.00000000000E+00 -0.50907525233E+03  0.50907525233E+03  0.00000000000E+00 0.  1.
      99926    2    1    2    0    0  0.31086244690E-14  0.00000000000E+00 -0.39939558377E+03  0.61875492089E+03  0.47258948337E+03 0.  0.
      99925    2    3    3    0    0 -0.34177692569E+01 -0.10866309243E+03 -0.33838088135E+03  0.44214900135E+03  0.26301096884E+03 0.  0.
         25    1    4    4    0    0  0.24023295637E+02 -0.81408500840E+02 -0.21024156709E+03  0.25894688137E+03  0.12509000000E+03 0.  0.
         25    1    3    3    0    0  0.34177692569E+01  0.10866309243E+03 -0.61014702415E+02  0.17660591953E+03  0.12509000000E+03 0.  0.
         25    1    4    4    0    0 -0.27441064894E+02 -0.27254591593E+02 -0.12813931426E+03  0.18320211998E+03  0.12509000000E+03 0.  0.
<mgrwt>
<rscale>  2 0.47258948E+03</rscale>
<asrwt>0</asrwt>
<pdfrwt beam="1">  1       21 0.16129363E-01 0.47258948E+03</pdfrwt>
<pdfrwt beam="2">  1       21 0.74864007E-01 0.47258948E+03</pdfrwt>
<totfact> 0.50193755E+04</totfact>
</mgrwt>
</event>
<event>
 7    0  0.4691878E-002  0.4543624E+03  0.7546771E-02  0.1026429E+00
         21   -1    0    0  502  501  0.00000000000E+00  0.00000000000E+00  0.27739738644E+03  0.27739738644E+03  0.00000000000E+00 0.  1.
         21   -1    0    0  501  502 -0.00000000000E+00 -0.00000000000E+00 -0.18605544636E+03  0.18605544636E+03  0.00000000000E+00 0.  1.
      99926    2    1    2    0    0 -0.71054273576E-14  0.00000000000E+00  0.91341940080E+02  0.46345283280E+03  0.45436238644E+03 0.  0.
      99925    2    3    3    0    0 -0.49235182356E+02  0.63140894985E+02 -0.23068381000E+02  0.27597455280E+03  0.26309490263E+03 0.  0.
         25    1    4    4    0    0 -0.32318384007E+02  0.64973764257E+02 -0.36125357896E+02  0.14905910764E+03  0.12509000000E+03 0.  0.
         25    1    3    3    0    0  0.49235182356E+02 -0.63140894985E+02  0.11441032108E+03  0.18747828000E+03  0.12509000000E+03 0.  0.
         25    1    4    4    0    0 -0.16916798350E+02 -0.18328692713E+01  0.13056976896E+02  0.12691544517E+03  0.12509000000E+03 0.  0.
<mgrwt>
<rscale>  2 0.45436239E+03</rscale>
<asrwt>0</asrwt>
<pdfrwt beam="1">  1       21 0.40793733E-01 0.45436239E+03</pdfrwt>
<pdfrwt beam="2">  1       21 0.27361095E-01 0.45436239E+03</pdfrwt>
<totfact> 0.68270621E+04</totfact>
</mgrwt>
</event>
<event>
 7    0  0.4691878E-002  0.4855728E+03  0.7546771E-02  0.1017615E+00
         21   -1    0    0  502  501  0.00000000000E+00  0.00000000000E+00  0.74191527022E+03  0.74191527022E+03  0.00000000000E+00 0.  1.
         21   -1    0    0  501  502 -0.00000000000E+00 -0.00000000000E+00 -0.79450096060E+02  0.79450096060E+02  0.00000000000E+00 0.  1.
      99926    2    1    2    0    0 -0.14210854715E-13 -0.35527136788E-14  0.66246517416E+03  0.82136536628E+03  0.48557281426E+03 0.  0.
      99925    2    3    3    0    0  0.95463716092E+02  0.29765684666E+02  0.24088955011E+03  0.37039659578E+03  0.26299533406E+03 0.  0.
         25    1    3    3    0    0 -0.95463716092E+02 -0.29765684666E+02  0.42157562405E+03  0.45096877050E+03  0.12509000000E+03 0.  0.
         25    1    4    4    0    0  0.32565797525E+02  0.40335263358E+02  0.81760364568E+02  0.15817626229E+03  0.12509000000E+03 0.  0.
         25    1    4    4    0    0  0.62897918566E+02 -0.10569578692E+02  0.15912918554E+03  0.21222033348E+03  0.12509000000E+03 0.  0.
<mgrwt>
<rscale>  2 0.48557281E+03</rscale>
<asrwt>0</asrwt>
<pdfrwt beam="1">  1       21 0.10910518E+00 0.48557281E+03</pdfrwt>
<pdfrwt beam="2">  1       21 0.11683838E-01 0.48557281E+03</pdfrwt>
<totfact> 0.37032626E+04</totfact>
</mgrwt>
</event>
<event>
 7    0  0.4691878E-002  0.4765221E+03  0.7546771E-02  0.1020095E+00
         21   -1    0    0  502  501  0.00000000000E+00  0.00000000000E+00  0.18418263388E+04  0.18418263388E+04  0.00000000000E+00 0. -1.
         21   -1    0    0  501  502 -0.00000000000E+00 -0.00000000000E+00 -0.30821764926E+02  0.30821764926E+02  0.00000000000E+00 0. -1.
      99926    2    1    2    0    0  0.00000000000E+00  0.14210854715E-13  0.18110045739E+04  0.18726481038E+04  0.47652214408E+03 0.  0.
      99925    2    3    3    0    0 -0.50344648629E+02 -0.11888227625E+03  0.10046275459E+04  0.10464768149E+04  0.26300121435E+03 0.  0.
         25    1    4    4    0    0 -0.36533734973E+02 -0.79844377592E+02  0.41344809535E+03  0.44079096415E+03  0.12509000000E+03 0.  0.
         25    1    3    3    0    0  0.50344648629E+02  0.11888227625E+03  0.80637702797E+03  0.82617128889E+03  0.12509000000E+03 0.  0.
         25    1    4    4    0    0 -0.13810913656E+02 -0.39037898653E+02  0.59117945059E+03  0.60568585073E+03  0.12509000000E+03 0.  0.
<mgrwt>
<rscale>  2 0.47652214E+03</rscale>
<asrwt>0</asrwt>
<pdfrwt beam="1">  1       21 0.27085674E+00 0.47652214E+03</pdfrwt>
<pdfrwt beam="2">  1       21 0.45326137E-02 0.47652214E+03</pdfrwt>
<totfact> 0.13502001E+04</totfact>
</mgrwt>
</event>
<event>
 7    0  0.4691878E-002  0.4553654E+03  0.7546771E-02  0.1026134E+00
         21   -1    0    0  502  501  0.00000000000E+00  0.00000000000E+00  0.11389279211E+03  0.11389279211E+03  0.00000000000E+00 0. -1.
         21   -1    0    0  501  502 -0.00000000000E+00 -0.00000000000E+00 -0.45515974932E+03  0.45515974932E+03  0.00000000000E+00 0. -1.
      99926    2    1    2    0    0 -0.71054273576E-14  0.00000000000E+00 -0.34126695721E+03  0.56905254143E+03  0.45536541242E+03 0.  0.
      99925    2    3    3    0    0  0.47549378402E+02  0.42113576307E+02 -0.33227943694E+03  0.42847238523E+03  0.26295334947E+03 0.  0.
         25    1    4    4    0    0  0.46063978310E+02  0.42356299710E+02 -0.13192490660E+03  0.19226969419E+03  0.12509000000E+03 0.  0.
         25    1    4    4    0    0  0.14854000919E+01 -0.24272340252E+00 -0.20035453034E+03  0.23620269104E+03  0.12509000000E+03 0.  0.
         25    1    3    3    0    0 -0.47549378402E+02 -0.42113576307E+02 -0.89875202728E+01  0.14058015620E+03  0.12509000000E+03 0.  0.
<mgrwt>
<rscale>  2 0.45536541E+03</rscale>
<asrwt>0</asrwt>
<pdfrwt beam="1">  1       21 0.16748940E-01 0.45536541E+03</pdfrwt>
<pdfrwt beam="2">  1       21 0.66935258E-01 0.45536541E+03</pdfrwt>
<totfact> 0.60449913E+04</totfact>
</mgrwt>
</event>
<event>
 7    0  0.4691878E-002  0.4605635E+03  0.7546771E-02  0.1024618E+00
         21   -1    0    0  502  501  0.00000000000E+00  0.00000000000E+00  0.88783860234E+02  0.88783860234E+02  0.00000000000E+00 0. -1.
         21   -1    0    0  501  502 -0.00000000000E+00 -0.00000000000E+00 -0.59728963114E+03  0.59728963114E+03  0.00000000000E+00 0. -1.
      99926    2    1    2    0    0  0.00000000000E+00  0.00000000000E+00 -0.50850577091E+03  0.68607349137E+03  0.46056347719E+03 0.  0.
      99925    2    3    3    0    0 -0.10585953077E+03 -0.80177722460E+01 -0.39611850433E+03  0.48720436176E+03  0.26303554078E+03 0.  0.
         25    1    3    3    0    0  0.10585953077E+03  0.80177722460E+01 -0.11238726657E+03  0.19886912962E+03  0.12509000000E+03 0.  0.
         25    1    4    4    0    0 -0.50775608687E+02 -0.44247812972E+02 -0.18981484840E+03  0.23709326470E+03  0.12509000000E+03 0.  0.
         25    1    4    4    0    0 -0.55083922082E+02  0.36230040726E+02 -0.20630365593E+03  0.25011109706E+03  0.12509000000E+03 0.  0.
<mgrwt>
<rscale>  2 0.46056348E+03</rscale>
<asrwt>0</asrwt>
<pdfrwt beam="1">  1       21 0.13056450E-01 0.46056348E+03</pdfrwt>
<pdfrwt beam="2">  1       21 0.87836711E-01 0.46056348E+03</pdfrwt>
<totfact> 0.51377432E+04</totfact>
</mgrwt>
</event>
<event>
 7    0  0.4691878E-002  0.4473869E+03  0.7546771E-02  0.1028504E+00
         21   -1    0    0  502  501  0.00000000000E+00  0.00000000000E+00  0.25177585286E+03  0.25177585286E+03  0.00000000000E+00 0.  1.
         21   -1    0    0  501  502 -0.00000000000E+00 -0.00000000000E+00 -0.19874327151E+03  0.19874327151E+03  0.00000000000E+00 0.  1.
      99926    2    1    2    0    0  0.35527136788E-14  0.00000000000E+00  0.53032581354E+02  0.45051912437E+03  0.44738688709E+03 0.  0.
      99925    2    3    3    0    0 -0.92608428605E+01  0.16617702518E+02 -0.71261697339E+02  0.27315371889E+03  0.26300724969E+03 0.  0.
         25    1    4    4    0    0 -0.36123677809E+02  0.33820789749E+02 -0.39700884421E+02  0.14025845515E+03  0.12509000000E+03 0.  0.
         25    1    4    4    0    0  0.26862834948E+02 -0.17203087231E+02 -0.31560812918E+02  0.13289526374E+03  0.12509000000E+03 0.  0.
         25    1    3    3    0    0  0.92608428605E+01 -0.16617702518E+02  0.12429427869E+03  0.17736540549E+03  0.12509000000E+03 0.  0.
<mgrwt>
<rscale>  2 0.44738689E+03</rscale>
<asrwt>0</asrwt>
<pdfrwt beam="1">  1       21 0.37025861E-01 0.44738689E+03</pdfrwt>
<pdfrwt beam="2">  1       21 0.29226952E-01 0.44738689E+03</pdfrwt>
<totfact> 0.73222728E+04</totfact>
</mgrwt>
</event>
<event>
 7    0  0.4691878E-002  0.4576693E+03  0.7546771E-02  0.1025459E+00
         21   -1    0    0  502  501  0.00000000000E+00  0.00000000000E+00  0.34235580116E+03  0.34235580116E+03  0.00000000000E+00 0. -1.
         21   -1    0    0  501  502 -0.00000000000E+00 -0.00000000000E+00 -0.15295580761E+03  0.15295580761E+03  0.00000000000E+00 0. -1.
      99926    2    1    2    0    0  0.00000000000E+00  0.00000000000E+00  0.18939999355E+03  0.49531160877E+03  0.45766934813E+03 0.  0.
      99925    2    3    3    0    0 -0.88513345783E+01 -0.10632243047E+03  0.71996348566E+02  0.29328703278E+03  0.26353558402E+03 0.  0.
         25    1    4    4    0    0 -0.11409602946E+02 -0.46984527482E+02  0.77150333194E+02  0.15471718351E+03  0.12509000000E+03 0.  0.
         25    1    4    4    0    0  0.25582683680E+01 -0.59337902993E+02 -0.51539846276E+01  0.13856984927E+03  0.12509000000E+03 0.  0.
         25    1    3    3    0    0  0.88513345783E+01  0.10632243047E+03  0.11740364499E+03  0.20202457599E+03  0.12509000000E+03 0.  0.
<mgrwt>
<rscale>  2 0.45766935E+03</rscale>
<asrwt>0</asrwt>
<pdfrwt beam="1">  1       21 0.50346441E-01 0.45766935E+03</pdfrwt>
<pdfrwt beam="2">  1       21 0.22493501E-01 0.45766935E+03</pdfrwt>
<totfact> 0.64229395E+04</totfact>
</mgrwt>
</event>
<event>
 7    0  0.4691878E-002  0.4507788E+03  0.7546771E-02  0.1027490E+00
         21   -1    0    0  502  501  0.00000000000E+00  0.00000000000E+00  0.57685338889E+02  0.57685338889E+02  0.00000000000E+00 0. -1.
         21   -1    0    0  501  502 -0.00000000000E+00 -0.00000000000E+00 -0.88064626751E+03  0.88064626751E+03  0.00000000000E+00 0. -1.
      99926    2    1    2    0    0 -0.14210854715E-13  0.00000000000E+00 -0.82296092862E+03  0.93833160640E+03  0.45077878558E+03 0.  0.
      99925    2    3    3    0    0 -0.10524416136E+03  0.88315410310E+01 -0.46245954260E+03  0.54239842133E+03  0.26300739400E+03 0.  0.
         25    1    4    4    0    0 -0.65510029246E+02 -0.14133362185E+02 -0.30308592798E+03  0.33466386673E+03  0.12509000000E+03 0.  0.
         25    1    3    3    0    0  0.10524416136E+03 -0.88315410310E+01 -0.36050138602E+03  0.39593318507E+03  0.12509000000E+03 0.  0.
         25    1    4    4    0    0 -0.39734132119E+02  0.22964903216E+02 -0.15937361462E+03  0.20773455460E+03  0.12509000000E+03 0.  0.
<mgrwt>
<rscale>  2 0.45077879E+03</rscale>
<asrwt>0</asrwt>
<pdfrwt beam="1">  1       21 0.84831386E-02 0.45077879E+03</pdfrwt>
<pdfrwt beam="2">  1       21 0.12950680E+00 0.45077879E+03</pdfrwt>
<totfact> 0.43019683E+04</totfact>
</mgrwt>
</event>
<event>
 7    0  0.4691878E-002  0.4412233E+03  0.7546771E-02  0.1030372E+00
         21   -1    0    0  502  501  0.00000000000E+00  0.00000000000E+00  0.30822115167E+03  0.30822115167E+03  0.00000000000E+00 0.  1.
         21   -1    0    0  501  502 -0.00000000000E+00 -0.00000000000E+00 -0.15790450308E+03  0.15790450308E+03  0.00000000000E+00 0.  1.
      99926    2    1    2    0    0  0.00000000000E+00  0.00000000000E+00  0.15031664860E+03  0.46612565475E+03  0.44122333480E+03 0.  0.
      99925    2    3    3    0    0 -0.10231316905E+02 -0.79084752524E+02  0.33032421557E+02  0.27701675507E+03  0.26322625968E+03 0.  0.
         25    1    3    3    0    0  0.10231316905E+02  0.79084752524E+02  0.11728422704E+03  0.18910889969E+03  0.12509000000E+03 0.  0.
         25    1    4    4    0    0  0.29769137753E+02 -0.57049046924E+02  0.40260429094E+01  0.14072850613E+03  0.12509000000E+03 0.  0.
         25    1    4    4    0    0 -0.40000454659E+02 -0.22035705601E+02  0.29006378648E+02  0.13628824893E+03  0.12509000000E+03 0.  0.
<mgrwt>
<rscale>  2 0.44122333E+03</rscale>
<asrwt>0</asrwt>
<pdfrwt beam="1">  1       21 0.45326640E-01 0.44122333E+03</pdfrwt>
<pdfrwt beam="2">  1       21 0.23221250E-01 0.44122333E+03</pdfrwt>
<totfact> 0.75664461E+04</totfact>
</mgrwt>
</event>
<event>
 7    0  0.4691878E-002  0.4407957E+03  0.7546771E-02  0.1030503E+00
         21   -1    0    0  502  501  0.00000000000E+00  0.00000000000E+00  0.80095333080E+03  0.80095333080E+03  0.00000000000E+00 0.  1.
         21   -1    0    0  501  502 -0.00000000000E+00 -0.00000000000E+00 -0.60646745727E+02  0.60646745727E+02  0.00000000000E+00 0.  1.
      99926    2    1    2    0    0 -0.71054273576E-14  0.00000000000E+00  0.74030658507E+03  0.86160007652E+03  0.44079570321E+03 0.  0.
      99925    2    3    3    0    0 -0.40902637523E+02 -0.45820895793E+02  0.62442238385E+03  0.68035649336E+03  0.26307615694E+03 0.  0.
         25    1    4    4    0    0  0.19187623440E+02 -0.21145288408E+02  0.32524658160E+03  0.34964000780E+03  0.12509000000E+03 0.  0.
         25    1    3    3    0    0  0.40902637523E+02  0.45820895793E+02  0.11588420121E+03  0.18124358317E+03  0.12509000000E+03 0.  0.
         25    1    4    4    0    0 -0.60090260962E+02 -0.24675607385E+02  0.29917580226E+03  0.33071648555E+03  0.12509000000E+03 0.  0.
<mgrwt>
<rscale>  2 0.44079570E+03</rscale>
<asrwt>0</asrwt>
<pdfrwt beam="1">  1       21 0.11778725E+00 0.44079570E+03</pdfrwt>
<pdfrwt beam="2">  1       21 0.89186396E-02 0.44079570E+03</pdfrwt>
<totfact> 0.50298451E+04</totfact>
</mgrwt>
</event>
<event>
 7    0  0.4691878E-002  0.4753084E+03  0.7546771E-02  0.1020433E+00
         21   -1    0    0  502  501  0.00000000000E+00  0.00000000000E+00  0.42591387545E+03  0.42591387545E+03  0.00000000000E+00 0.  1.
         21   -1    0    0  501  502 -0.00000000000E+00 -0.00000000000E+00 -0.13260781602E+03  0.13260781602E+03  0.00000000000E+00 0.  1.
      99926    2    1    2    0    0  0.00000000000E+00  0.00000000000E+00  0.29330605943E+03  0.55852169147E+03  0.47530835817E+03 0.  0.
      99925    2    3    3    0    0  0.72232252779E+02  0.19951654466E+02  0.30828162676E+03  0.41193607631E+03  0.26275121828E+03 0.  0.
         25    1    3    3    0    0 -0.72232252779E+02 -0.19951654466E+02 -0.14975567331E+02  0.14658561517E+03  0.12509000000E+03 0.  0.
         25    1    4    4    0    0  0.54927538294E+01  0.20131607141E+02  0.10814569963E+03  0.16666869052E+03  0.12509000000E+03 0.  0.
         25    1    4    4    0    0  0.66739498949E+02 -0.17995267485E+00  0.20013592713E+03  0.24526738579E+03  0.12509000000E+03 0.  0.
<mgrwt>
<rscale>  2 0.47530836E+03</rscale>
<asrwt>0</asrwt>
<pdfrwt beam="1">  1       21 0.62634393E-01 0.47530836E+03</pdfrwt>
<pdfrwt beam="2">  1       21 0.19501150E-01 0.47530836E+03</pdfrwt>
<totfact> 0.52368839E+04</totfact>
</mgrwt>
</event>
<event>
 7    0  0.4691878E-002  0.4505818E+03  0.7546771E-02  0.1027549E+00
         21   -1    0    0  502  501  0.00000000000E+00  0.00000000000E+00  0.28255458384E+02  0.28255458384E+02  0.00000000000E+00 0.  1.
         21   -1    0    0  501  502 -0.00000000000E+00 -0.00000000000E+00 -0.17963247734E+04  0.17963247734E+04  0.00000000000E+00 0.  1.
      99926    2    1    2    0    0  0.00000000000E+00  0.00000000000E+00 -0.17680693151E+04  0.18245802318E+04  0.45058175675E+03 0.  0.
      99925    2    3    3    0    0  0.23868386568E+02  0.92812007536E+02 -0.13274351654E+04  0.13566168459E+04  0.26294748454E+03 0.  0.
         25    1    3    3    0    0 -0.23868386568E+02 -0.92812007536E+02 -0.44063414969E+03  0.46796338595E+03  0.12509000000E+03 0.  0.
         25    1    4    4    0    0  0.27484513999E+02  0.32138529206E+02 -0.81576761726E+03  0.82638525946E+03  0.12509000000E+03 0.  0.
         25    1    4    4    0    0 -0.36161274309E+01  0.60673478331E+02 -0.51166754811E+03  0.53023158642E+03  0.12509000000E+03 0.  0.
<mgrwt>
<rscale>  2 0.45058176E+03</rscale>
<asrwt>0</asrwt>
<pdfrwt beam="1">  1       21 0.41552146E-02 0.45058176E+03</pdfrwt>
<pdfrwt beam="2">  1       21 0.26416540E+00 0.45058176E+03</pdfrwt>
<totfact> 0.17380282E+04</totfact>
</mgrwt>
</event>
<event>
 7    0  0.4691878E-002  0.4549991E+03  0.7546771E-02  0.1026242E+00
         21   -1    0    0  502  501  0.00000000000E+00  0.00000000000E+00  0.18008095659E+03  0.18008095659E+03  0.00000000000E+00 0.  1.
         21   -1    0    0  501  502 -0.00000000000E+00 -0.00000000000E+00 -0.28740434022E+03  0.28740434022E+03  0.00000000000E+00 0.  1.
      99926    2    1    2    0    0 -0.71054273576E-14  0.71054273576E-14 -0.10732338363E+03  0.46748529682E+03  0.45499911436E+03 0.  0.
      99925    2    3    3    0    0 -0.42518986635E+02 -0.34559937422E+02 -0.16923736637E+03  0.31754163120E+03  0.26303830115E+03 0.  0.
         25    1    4    4    0    0 -0.14854349363E+02  0.13387869190E+01 -0.40293032002E+02  0.13226292214E+03  0.12509000000E+03 0.  0.
         25    1    4    4    0    0 -0.27664637271E+02 -0.35898724340E+02 -0.12894433437E+03  0.18527870906E+03  0.12509000000E+03 0.  0.
         25    1    3    3    0    0  0.42518986635E+02  0.34559937422E+02  0.61913982739E+02  0.14994366561E+03  0.12509000000E+03 0.  0.
<mgrwt>
<rscale>  2 0.45499911E+03</rscale>
<asrwt>0</asrwt>
<pdfrwt beam="1">  1       21 0.26482494E-01 0.45499911E+03</pdfrwt>
<pdfrwt beam="2">  1       21 0.42265343E-01 0.45499911E+03</pdfrwt>
<totfact> 0.67623861E+04</totfact>
</mgrwt>
</event>
<event>
 7    0  0.4691878E-002  0.4506429E+03  0.7546771E-02  0.1027530E+00
         21   -1    0    0  502  501  0.00000000000E+00  0.00000000000E+00  0.11348634919E+03  0.11348634919E+03  0.00000000000E+00 0.  1.
         21   -1    0    0  501  502 -0.00000000000E+00 -0.00000000000E+00 -0.44736444462E+03  0.44736444462E+03  0.00000000000E+00 0.  1.
      99926    2    1    2    0    0  0.00000000000E+00  0.26645352591E-14 -0.33387809543E+03  0.56085079381E+03  0.45064290776E+03 0.  0.
      99925    2    3    3    0    0 -0.10737614674E+03  0.48041829136E+01 -0.18783650464E+03  0.34055923383E+03  0.26295498133E+03 0.  0.
         25    1    4    4    0    0 -0.55167072029E+02  0.42346051962E+02 -0.10256284116E+03  0.17607736493E+03  0.12509000000E+03 0.  0.
         25    1    3    3    0    0  0.10737614674E+03 -0.48041829136E+01 -0.14604159079E+03  0.22029155998E+03  0.12509000000E+03 0.  0.
         25    1    4    4    0    0 -0.52209074707E+02 -0.37541869048E+02 -0.85273663478E+02  0.16448186890E+03  0.12509000000E+03 0.  0.
<mgrwt>
<rscale>  2 0.45064291E+03</rscale>
<asrwt>0</asrwt>
<pdfrwt beam="1">  1       21 0.16689169E-01 0.45064291E+03</pdfrwt>
<pdfrwt beam="2">  1       21 0.65788889E-01 0.45064291E+03</pdfrwt>
<totfact> 0.63308895E+04</totfact>
</mgrwt>
</event>
<event>
 7    0  0.4691878E-002  0.4055796E+03  0.7546771E-02  0.1041865E+00
         21   -1    0    0  502  501  0.00000000000E+00  0.00000000000E+00  0.34758600804E+03  0.34758600804E+03  0.00000000000E+00 0.  1.
         21   -1    0    0  501  502 -0.00000000000E+00 -0.00000000000E+00 -0.11831229541E+03  0.11831229541E+03  0.00000000000E+00 0.  1.
      99926    2    1    2    0    0  0.17763568394E-14  0.00000000000E+00  0.22927371263E+03  0.46589830344E+03  0.40557957770E+03 0.  0.
      99925    2    3    3    0    0 -0.83667624027E+01  0.53196030395E+02  0.16696732805E+03  0.31613377486E+03  0.26298793624E+03 0.  0.
         25    1    3    3    0    0  0.83667624027E+01 -0.53196030395E+02  0.62306384581E+02  0.14976452859E+03  0.12509000000E+03 0.  0.
         25    1    4    4    0    0 -0.38758892438E+02  0.26947704306E+02  0.59246330778E+02  0.14623975629E+03  0.12509000000E+03 0.  0.
         25    1    4    4    0    0  0.30392130036E+02  0.26248326089E+02  0.10772099727E+03  0.16989401856E+03  0.12509000000E+03 0.  0.
<mgrwt>
<rscale>  2 0.40557958E+03</rscale>
<asrwt>0</asrwt>
<pdfrwt beam="1">  1       21 0.51115589E-01 0.40557958E+03</pdfrwt>
<pdfrwt beam="2">  1       21 0.17398867E-01 0.40557958E+03</pdfrwt>
<totfact> 0.10237493E+05</totfact>
</mgrwt>
</event>
<event>
 7    0  0.4691878E-002  0.4727541E+03  0.7546771E-02  0.1021146E+00
         21   -1    0    0  502  501  0.00000000000E+00  0.00000000000E+00  0.34322339221E+03  0.34322339221E+03  0.00000000000E+00 0.  1.
         21   -1    0    0  501  502 -0.00000000000E+00 -0.00000000000E+00 -0.16279222232E+03  0.16279222232E+03  0.00000000000E+00 0.  1.
      99926    2    1    2    0    0 -0.88817841970E-15  0.00000000000E+00  0.18043116989E+03  0.50601561453E+03  0.47275405348E+03 0.  0.
      99925    2    3    3    0    0  0.65835887235E+01  0.12677566629E+03  0.12849165419E+03  0.32037985668E+03  0.26460864341E+03 0.  0.
         25    1    4    4    0    0  0.25655519260E+02  0.60233001070E+02  0.10394229267E+03  0.17532178527E+03  0.12509000000E+03 0.  0.
         25    1    3    3    0    0 -0.65835887235E+01 -0.12677566629E+03  0.51939515703E+02  0.18563575786E+03  0.12509000000E+03 0.  0.
         25    1    4    4    0    0 -0.19071930537E+02  0.66542665218E+02  0.24549361519E+02  0.14505807140E+03  0.12509000000E+03 0.  0.
<mgrwt>
<rscale>  2 0.47275405E+03</rscale>
<asrwt>0</asrwt>
<pdfrwt beam="1">  1       21 0.50474028E-01 0.47275405E+03</pdfrwt>
<pdfrwt beam="2">  1       21 0.23940033E-01 0.47275405E+03</pdfrwt>
<totfact> 0.56462819E+04</totfact>
</mgrwt>
</event>
<event>
 7    0  0.4691878E-002  0.4587827E+03  0.7546771E-02  0.1025135E+00
         21   -1    0    0  502  501  0.00000000000E+00  0.00000000000E+00  0.22008020115E+03  0.22008020115E+03  0.00000000000E+00 0. -1.
         21   -1    0    0  501  502 -0.00000000000E+00 -0.00000000000E+00 -0.23909642518E+03  0.23909642518E+03  0.00000000000E+00 0. -1.
      99926    2    1    2    0    0 -0.71054273576E-14  0.00000000000E+00 -0.19016224037E+02  0.45917662633E+03  0.45878269082E+03 0.  0.
      99925    2    3    3    0    0  0.47653683089E+02  0.61993071603E+02 -0.98421181641E+02  0.29164552525E+03  0.26316604827E+03 0.  0.
         25    1    4    4    0    0  0.56936597206E+02  0.17066193860E+02 -0.29352112545E+02  0.14157007341E+03  0.12509000000E+03 0.  0.
         25    1    3    3    0    0 -0.47653683089E+02 -0.61993071603E+02  0.79404957605E+02  0.16753110109E+03  0.12509000000E+03 0.  0.
         25    1    4    4    0    0 -0.92829141167E+01  0.44926877743E+02 -0.69069069096E+02  0.15007545184E+03  0.12509000000E+03 0.  0.
<mgrwt>
<rscale>  2 0.45878269E+03</rscale>
<asrwt>0</asrwt>
<pdfrwt beam="1">  1       21 0.32364735E-01 0.45878269E+03</pdfrwt>
<pdfrwt beam="2">  1       21 0.35161239E-01 0.45878269E+03</pdfrwt>
<totfact> 0.66219612E+04</totfact>
</mgrwt>
</event>
<event>
 7    0  0.4691878E-002  0.4408722E+03  0.7546771E-02  0.1030480E+00
         21   -1    0    0  502  501  0.00000000000E+00  0.00000000000E+00  0.12893724367E+04  0.12893724367E+04  0.00000000000E+00 0. -1.
         21   -1    0    0  501  502 -0.00000000000E+00 -0.00000000000E+00 -0.37686616910E+02  0.37686616910E+02  0.00000000000E+00 0. -1.
      99926    2    1    2    0    0  0.00000000000E+00  0.00000000000E+00  0.12516858198E+04  0.13270590536E+04  0.44087224941E+03 0.  0.
      99925    2    3    3    0    0  0.78410061627E+02  0.59030550225E+02  0.75406138812E+03  0.80465085429E+03  0.26310012662E+03 0.  0.
         25    1    4    4    0    0 -0.27445136176E+00  0.30029361671E+02  0.30539420020E+03  0.33138340861E+03  0.12509000000E+03 0.  0.
         25    1    3    3    0    0 -0.78410061627E+02 -0.59030550225E+02  0.49762443164E+03  0.52240819930E+03  0.12509000000E+03 0.  0.
         25    1    4    4    0    0  0.78684512989E+02  0.29001188554E+02  0.44866718792E+03  0.47326744567E+03  0.12509000000E+03 0.  0.
<mgrwt>
<rscale>  2 0.44087225E+03</rscale>
<asrwt>0</asrwt>
<pdfrwt beam="1">  1       21 0.18961356E+00 0.44087225E+03</pdfrwt>
<pdfrwt beam="2">  1       21 0.55421504E-02 0.44087225E+03</pdfrwt>
<totfact> 0.31678576E+04</totfact>
</mgrwt>
</event>
<event>
 7    0  0.4691878E-002  0.4537925E+03  0.7546771E-02  0.1026597E+00
         21   -1    0    0  502  501  0.00000000000E+00  0.00000000000E+00  0.10457472636E+03  0.10457472636E+03  0.00000000000E+00 0. -1.
         21   -1    0    0  501  502 -0.00000000000E+00 -0.00000000000E+00 -0.49229782603E+03  0.49229782603E+03  0.00000000000E+00 0. -1.
      99926    2    1    2    0    0  0.14210854715E-13  0.14210854715E-13 -0.38772309968E+03  0.59687255239E+03  0.45379250961E+03 0.  0.
      99925    2    3    3    0    0  0.76694118736E+02  0.81648086012E+02 -0.24416911371E+03  0.37595706451E+03  0.26301475333E+03 0.  0.
         25    1    4    4    0    0  0.42024975985E+02  0.82654735832E+02 -0.14248920179E+03  0.21106535644E+03  0.12509000000E+03 0.  0.
         25    1    4    4    0    0  0.34669142751E+02 -0.10066498200E+01 -0.10167991191E+03  0.16489170807E+03  0.12509000000E+03 0.  0.
         25    1    3    3    0    0 -0.76694118736E+02 -0.81648086012E+02 -0.14355398597E+03  0.22091548788E+03  0.12509000000E+03 0.  0.
<mgrwt>
<rscale>  2 0.45379251E+03</rscale>
<asrwt>0</asrwt>
<pdfrwt beam="1">  1       21 0.15378636E-01 0.45379251E+03</pdfrwt>
<pdfrwt beam="2">  1       21 0.72396738E-01 0.45379251E+03</pdfrwt>
<totfact> 0.59436268E+04</totfact>
</mgrwt>
</event>
<event>
 7    0  0.4691878E-002  0.4542752E+03  0.7546771E-02  0.1026455E+00
         21   -1    0    0  502  501  0.00000000000E+00  0.00000000000E+00  0.76794884683E+03  0.76794884683E+03  0.00000000000E+00 0. -1.
         21   -1    0    0  501  502 -0.00000000000E+00 -0.00000000000E+00 -0.67180892604E+02  0.67180892604E+02  0.00000000000E+00 0. -1.
      99926    2    1    2    0    0  0.00000000000E+00  0.00000000000E+00  0.70076795423E+03  0.83512973943E+03  0.45427519855E+03 0.  0.
      99925    2    3    3    0    0 -0.71035164344E+02 -0.52842160618E+02  0.31410017364E+03  0.41919973432E+03  0.26311824273E+03 0.  0.
         25    1    4    4    0    0 -0.63896126214E+02 -0.27921574922E+02  0.12004629486E+03  0.18687148070E+03  0.12509000000E+03 0.  0.
         25    1    4    4    0    0 -0.71390381303E+01 -0.24920585697E+02  0.19405387878E+03  0.23232825362E+03  0.12509000000E+03 0.  0.
         25    1    3    3    0    0  0.71035164344E+02  0.52842160618E+02  0.38666778058E+03  0.41593000511E+03  0.12509000000E+03 0.  0.
<mgrwt>
<rscale>  2 0.45427520E+03</rscale>
<asrwt>0</asrwt>
<pdfrwt beam="1">  1       21 0.11293365E+00 0.45427520E+03</pdfrwt>
<pdfrwt beam="2">  1       21 0.98795435E-02 0.45427520E+03</pdfrwt>
<totfact> 0.46375236E+04</totfact>
</mgrwt>
</event>
<event>
 7    0  0.4691878E-002  0.4542898E+03  0.7546771E-02  0.1026450E+00
         21   -1    0    0  502  501  0.00000000000E+00  0.00000000000E+00  0.11101900032E+03  0.11101900032E+03  0.00000000000E+00 0. -1.
         21   -1    0    0  501  502 -0.00000000000E+00 -0.00000000000E+00 -0.46473843319E+03  0.46473843319E+03  0.00000000000E+00 0. -1.
      99926    2    1    2    0    0  0.00000000000E+00 -0.71054273576E-14 -0.35371943287E+03  0.57575743351E+03  0.45428975891E+03 0.  0.
      99925    2    3    3    0    0  0.62860308967E+02  0.62423236842E+02 -0.31063204212E+03  0.41653397330E+03  0.26298328155E+03 0.  0.
         25    1    4    4    0    0  0.50694221609E+02  0.51027188012E+02 -0.11876588460E+03  0.18688638652E+03  0.12509000000E+03 0.  0.
         25    1    3    3    0    0 -0.62860308967E+02 -0.62423236842E+02 -0.43087390748E+02  0.15922346021E+03  0.12509000000E+03 0.  0.
         25    1    4    4    0    0  0.12166087358E+02  0.11396048830E+02 -0.19186615752E+03  0.22964758678E+03  0.12509000000E+03 0.  0.
<mgrwt>
<rscale>  2 0.45428976E+03</rscale>
<asrwt>0</asrwt>
<pdfrwt beam="1">  1       21 0.16326324E-01 0.45428976E+03</pdfrwt>
<pdfrwt beam="2">  1       21 0.68343886E-01 0.45428976E+03</pdfrwt>
<totfact> 0.60535062E+04</totfact>
</mgrwt>
</event>
<event>
 7    0  0.4691878E-002  0.4495316E+03  0.7546771E-02  0.1027862E+00
         21   -1    0    0  502  501  0.00000000000E+00  0.00000000000E+00  0.37956098737E+03  0.37956098737E+03  0.00000000000E+00 0.  1.
         21   -1    0    0  501  502 -0.00000000000E+00 -0.00000000000E+00 -0.13310024384E+03  0.13310024384E+03  0.00000000000E+00 0.  1.
      99926    2    1    2    0    0  0.00000000000E+00  0.00000000000E+00  0.24646074353E+03  0.51266123122E+03  0.44953157830E+03 0.  0.
      99925    2    3    3    0    0 -0.97443050719E+02  0.71193643321E+01  0.10408765278E+03  0.29943965972E+03  0.26321861042E+03 0.  0.
         25    1    4    4    0    0 -0.89033030064E+02  0.18812271541E+02  0.52309487926E+02  0.16329290441E+03  0.12509000000E+03 0.  0.
         25    1    4    4    0    0 -0.84100206552E+01 -0.11692907209E+02  0.51778164850E+02  0.13614675531E+03  0.12509000000E+03 0.  0.
         25    1    3    3    0    0  0.97443050719E+02 -0.71193643321E+01  0.14237309075E+03  0.21322157150E+03  0.12509000000E+03 0.  0.
<mgrwt>
<rscale>  2 0.44953158E+03</rscale>
<asrwt>0</asrwt>
<pdfrwt beam="1">  1       21 0.55817792E-01 0.44953158E+03</pdfrwt>
<pdfrwt beam="2">  1       21 0.19573565E-01 0.44953158E+03</pdfrwt>
<totfact> 0.67261530E+04</totfact>
</mgrwt>
</event>
<event>
 7    0  0.4691878E-002  0.4472430E+03  0.7546771E-02  0.1028547E+00
         21   -1    0    0  502  501  0.00000000000E+00  0.00000000000E+00  0.56180061936E+03  0.56180061936E+03  0.00000000000E+00 0. -1.
         21   -1    0    0  501  502 -0.00000000000E+00 -0.00000000000E+00 -0.89011231926E+02  0.89011231926E+02  0.00000000000E+00 0. -1.
      99926    2    1    2    0    0  0.00000000000E+00  0.79103390505E-15  0.47278938743E+03  0.65081185129E+03  0.44724295512E+03 0.  0.
      99925    2    3    3    0    0  0.10371536858E+03 -0.12423215262E+00  0.26899251006E+03  0.39016348962E+03  0.26289481747E+03 0.  0.
         25    1    4    4    0    0  0.15284702059E+02 -0.15327161221E+02  0.14312734527E+03  0.19131515636E+03  0.12509000000E+03 0.  0.
         25    1    4    4    0    0  0.88430666517E+02  0.15202929069E+02  0.12586516479E+03  0.19884833326E+03  0.12509000000E+03 0.  0.
         25    1    3    3    0    0 -0.10371536858E+03  0.12423215262E+00  0.20379687737E+03  0.26064836166E+03  0.12509000000E+03 0.  0.
<mgrwt>
<rscale>  2 0.44724296E+03</rscale>
<asrwt>0</asrwt>
<pdfrwt beam="1">  1       21 0.82617736E-01 0.44724296E+03</pdfrwt>
<pdfrwt beam="2">  1       21 0.13089887E-01 0.44724296E+03</pdfrwt>
<totfact> 0.59194506E+04</totfact>
</mgrwt>
</event>
<event>
 7    0  0.4691878E-002  0.4579124E+03  0.7546771E-02  0.1025388E+00
         21   -1    0    0  502  501  0.00000000000E+00  0.00000000000E+00  0.84240024780E+03  0.84240024780E+03  0.00000000000E+00 0. -1.
         21   -1    0    0  501  502 -0.00000000000E+00 -0.00000000000E+00 -0.62228071700E+02  0.62228071700E+02  0.00000000000E+00 0. -1.
      99926    2    1    2    0    0  0.00000000000E+00  0.00000000000E+00  0.78017217610E+03  0.90462831950E+03  0.45791240656E+03 0.  0.
      99925    2    3    3    0    0 -0.28499895737E+02 -0.12088412763E+02  0.26902367457E+03  0.37748633436E+03  0.26299015451E+03 0.  0.
         25    1    4    4    0    0  0.20995657148E+02  0.60367114686E+01  0.15369969153E+03  0.19936991443E+03  0.12509000000E+03 0.  0.
         25    1    4    4    0    0 -0.49495552885E+02 -0.18125124232E+02  0.11532398304E+03  0.17811641993E+03  0.12509000000E+03 0.  0.
         25    1    3    3    0    0  0.28499895737E+02  0.12088412763E+02  0.51114850153E+03  0.52714198514E+03  0.12509000000E+03 0.  0.
<mgrwt>
<rscale>  2 0.45791241E+03</rscale>
<asrwt>0</asrwt>
<pdfrwt beam="1">  1       21 0.12388238E+00 0.45791241E+03</pdfrwt>
<pdfrwt beam="2">  1       21 0.91511875E-02 0.45791241E+03</pdfrwt>
<totfact> 0.42066790E+04</totfact>
</mgrwt>
</event>
<event>
 7    0  0.4691878E-002  0.4456325E+03  0.7546771E-02  0.1029033E+00
         21   -1    0    0  502  501  0.00000000000E+00  0.00000000000E+00  0.29833815296E+02  0.29833815296E+02  0.00000000000E+00 0.  1.
         21   -1    0    0  501  502 -0.00000000000E+00 -0.00000000000E+00 -0.16641214134E+04  0.16641214134E+04  0.00000000000E+00 0.  1.
      99926    2    1    2    0    0  0.14210854715E-13  0.71054273576E-14 -0.16342875981E+04  0.16939552287E+04  0.44563254315E+03 0.  0.
      99925    2    3    3    0    0 -0.84692380979E+02 -0.40468641121E+02 -0.86488488380E+03  0.90881921807E+03  0.26289921755E+03 0.  0.
         25    1    4    4    0    0 -0.46266967116E+02  0.20096091272E+02 -0.42894091251E+03  0.44964686106E+03  0.12509000000E+03 0.  0.
         25    1    3    3    0    0  0.84692380979E+02  0.40468641121E+02 -0.76940271434E+03  0.78513601067E+03  0.12509000000E+03 0.  0.
         25    1    4    4    0    0 -0.38425413863E+02 -0.60564732393E+02 -0.43594397129E+03  0.45917235701E+03  0.12509000000E+03 0.  0.
<mgrwt>
<rscale>  2 0.44563254E+03</rscale>
<asrwt>0</asrwt>
<pdfrwt beam="1">  1       21 0.43873245E-02 0.44563254E+03</pdfrwt>
<pdfrwt beam="2">  1       21 0.24472381E+00 0.44563254E+03</pdfrwt>
<totfact> 0.20864384E+04</totfact>
</mgrwt>
</event>
<event>
 7    0  0.4691878E-002  0.4527723E+03  0.7546771E-02  0.1026899E+00
         21   -1    0    0  502  501  0.00000000000E+00  0.00000000000E+00  0.19775461108E+03  0.19775461108E+03  0.00000000000E+00 0.  1.
         21   -1    0    0  501  502 -0.00000000000E+00 -0.00000000000E+00 -0.25916309749E+03  0.25916309749E+03  0.00000000000E+00 0.  1.
      99926    2    1    2    0    0  0.00000000000E+00 -0.14210854715E-13 -0.61408486401E+02  0.45691770857E+03  0.45277233816E+03 0.  0.
      99925    2    3    3    0    0  0.68995935921E+02  0.75446599954E+02  0.57265116325E+01  0.28196844541E+03  0.26271806686E+03 0.  0.
         25    1    3    3    0    0 -0.68995935921E+02 -0.75446599954E+02 -0.67134998034E+02  0.17494926316E+03  0.12509000000E+03 0.  0.
         25    1    4    4    0    0  0.73936999027E+02  0.30743712546E+02 -0.49887046915E+01  0.14860770828E+03  0.12509000000E+03 0.  0.
         25    1    4    4    0    0 -0.49410631054E+01  0.44702887408E+02  0.10715216324E+02  0.13336073713E+03  0.12509000000E+03 0.  0.
<mgrwt>
<rscale>  2 0.45277234E+03</rscale>
<asrwt>0</asrwt>
<pdfrwt beam="1">  1       21 0.29081561E-01 0.45277234E+03</pdfrwt>
<pdfrwt beam="2">  1       21 0.38112220E-01 0.45277234E+03</pdfrwt>
<totfact> 0.69634654E+04</totfact>
</mgrwt>
</event>
<event>
 7    0  0.4691878E-002  0.4436134E+03  0.7546771E-02  0.1029644E+00
         21   -1    0    0  502  501  0.00000000000E+00  0.00000000000E+00  0.33992867700E+02  0.33992867700E+02  0.00000000000E+00 0. -1.
         21   -1    0    0  501  502 -0.00000000000E+00 -0.00000000000E+00 -0.14473100234E+04  0.14473100234E+04  0.00000000000E+00 0. -1.
      99926    2    1    2    0    0  0.00000000000E+00  0.00000000000E+00 -0.14133171557E+04  0.14813028911E+04  0.44361342696E+03 0.  0.
      99925    2    3    3    0    0  0.71131377412E+02  0.54391938505E+02 -0.73452011280E+03  0.78529205112E+03  0.26295561148E+03 0.  0.
         25    1    4    4    0    0  0.53276598718E+02  0.40045447516E+01 -0.28791805916E+03  0.31843170263E+03  0.12509000000E+03 0.  0.
         25    1    4    4    0    0  0.17854778694E+02  0.50387393753E+02 -0.44660205364E+03  0.46686034849E+03  0.12509000000E+03 0.  0.
         25    1    3    3    0    0 -0.71131377412E+02 -0.54391938505E+02 -0.67879704286E+03  0.69601083995E+03  0.12509000000E+03 0.  0.
<mgrwt>
<rscale>  2 0.44361343E+03</rscale>
<asrwt>0</asrwt>
<pdfrwt beam="1">  1       21 0.49989513E-02 0.44361343E+03</pdfrwt>
<pdfrwt beam="2">  1       21 0.21283970E+00 0.44361343E+03</pdfrwt>
<totfact> 0.26509506E+04</totfact>
</mgrwt>
</event>
<event>
 7    0  0.4691878E-002  0.4592417E+03  0.7546771E-02  0.1025001E+00
         21   -1    0    0  502  501  0.00000000000E+00  0.00000000000E+00  0.28203765683E+03  0.28203765683E+03  0.00000000000E+00 0. -1.
         21   -1    0    0  501  502 -0.00000000000E+00 -0.00000000000E+00 -0.18694571506E+03  0.18694571506E+03  0.00000000000E+00 0. -1.
      99926    2    1    2    0    0  0.00000000000E+00  0.00000000000E+00  0.95091941770E+02  0.46898337189E+03  0.45924168552E+03 0.  0.
      99925    2    3    3    0    0  0.23285676903E+02 -0.20957131464E+02 -0.55537013385E+02  0.27069566592E+03  0.26307861864E+03 0.  0.
         25    1    3    3    0    0 -0.23285676903E+02  0.20957131464E+02  0.15062895515E+03  0.19828770597E+03  0.12509000000E+03 0.  0.
         25    1    4    4    0    0  0.37421728685E+02 -0.40972155999E+02 -0.19465697763E+02  0.13822273632E+03  0.12509000000E+03 0.  0.
         25    1    4    4    0    0 -0.14136051783E+02  0.20015024535E+02 -0.36071315621E+02  0.13247292960E+03  0.12509000000E+03 0.  0.
<mgrwt>
<rscale>  2 0.45924169E+03</rscale>
<asrwt>0</asrwt>
<pdfrwt beam="1">  1       21 0.41476126E-01 0.45924169E+03</pdfrwt>
<pdfrwt beam="2">  1       21 0.27492017E-01 0.45924169E+03</pdfrwt>
<totfact> 0.65286383E+04</totfact>
</mgrwt>
</event>
<event>
 7    0  0.4691878E-002  0.4539849E+03  0.7546771E-02  0.1026540E+00
         21   -1    0    0  502  501  0.00000000000E+00  0.00000000000E+00  0.83992706538E+02  0.83992706538E+02  0.00000000000E+00 0. -1.
         21   -1    0    0  501  502 -0.00000000000E+00 -0.00000000000E+00 -0.61345289614E+03  0.61345289614E+03  0.00000000000E+00 0. -1.
      99926    2    1    2    0    0 -0.44408920985E-14  0.14210854715E-13 -0.52946018960E+03  0.69744560267E+03  0.45398488556E+03 0.  0.
      99925    2    3    3    0    0  0.25097158684E+01  0.10392152220E+03 -0.26872157713E+03  0.39013775445E+03  0.26304030106E+03 0.  0.
         25    1    4    4    0    0  0.34348978708E+02  0.77388656335E+02 -0.14496726674E+03  0.20936062905E+03  0.12509000000E+03 0.  0.
         25    1    4    4    0    0 -0.31839262839E+02  0.26532865864E+02 -0.12375431039E+03  0.18077712540E+03  0.12509000000E+03 0.  0.
         25    1    3    3    0    0 -0.25097158684E+01 -0.10392152220E+03 -0.26073861247E+03  0.30730784822E+03  0.12509000000E+03 0.  0.
<mgrwt>
<rscale>  2 0.45398489E+03</rscale>
<asrwt>0</asrwt>
<pdfrwt beam="1">  1       21 0.12351869E-01 0.45398489E+03</pdfrwt>
<pdfrwt beam="2">  1       21 0.90213660E-01 0.45398489E+03</pdfrwt>
<totfact> 0.53467765E+04</totfact>
</mgrwt>
</event>
<event>
 7    0  0.4691878E-002  0.4450049E+03  0.7546771E-02  0.1029222E+00
         21   -1    0    0  502  501  0.00000000000E+00  0.00000000000E+00  0.38633837163E+02  0.38633837163E+02  0.00000000000E+00 0. -1.
         21   -1    0    0  501  502 -0.00000000000E+00 -0.00000000000E+00 -0.12814499960E+04  0.12814499960E+04  0.00000000000E+00 0. -1.
      99926    2    1    2    0    0  0.00000000000E+00  0.00000000000E+00 -0.12428161588E+04  0.13200838332E+04  0.44500485605E+03 0.  0.
      99925    2    3    3    0    0 -0.77241062676E+02 -0.47942084669E+02 -0.93593418200E+03  0.97644349640E+03  0.26306745023E+03 0.  0.
         25    1    4    4    0    0 -0.32378766987E+02 -0.45196846440E+02 -0.35454990619E+03  0.38005826338E+03  0.12509000000E+03 0.  0.
         25    1    3    3    0    0  0.77241062676E+02  0.47942084669E+02 -0.30688197683E+03  0.34364033676E+03  0.12509000000E+03 0.  0.
         25    1    4    4    0    0 -0.44862295689E+02 -0.27452382297E+01 -0.58138427581E+03  0.59638523302E+03  0.12509000000E+03 0.  0.
<mgrwt>
<rscale>  2 0.44500486E+03</rscale>
<asrwt>0</asrwt>
<pdfrwt beam="1">  1       21 0.56814475E-02 0.44500486E+03</pdfrwt>
<pdfrwt beam="2">  1       21 0.18844850E+00 0.44500486E+03</pdfrwt>
<totfact> 0.30867238E+04</totfact>
</mgrwt>
</event>
<event>
 7    0  0.4691878E-002  0.4549421E+03  0.7546771E-02  0.1026258E+00
         21   -1    0    0  502  501  0.00000000000E+00  0.00000000000E+00  0.17511230310E+03  0.17511230310E+03  0.00000000000E+00 0. -1.
         21   -1    0    0  501  502 -0.00000000000E+00 -0.00000000000E+00 -0.29548512737E+03  0.29548512737E+03  0.00000000000E+00 0. -1.
      99926    2    1    2    0    0  0.14210854715E-13 -0.14210854715E-13 -0.12037282428E+03  0.47059743047E+03  0.45494211142E+03 0.  0.
      99925    2    3    3    0    0  0.84420564868E+02 -0.72831716251E+02 -0.56119707037E+02  0.29113361284E+03  0.26301723963E+03 0.  0.
         25    1    3    3    0    0 -0.84420564868E+02  0.72831716251E+02 -0.64253117239E+02  0.17946381763E+03  0.12509000000E+03 0.  0.
         25    1    4    4    0    0  0.47827277282E+02 -0.14504748254E+02 -0.61860030561E+02  0.14822957753E+03  0.12509000000E+03 0.  0.
         25    1    4    4    0    0  0.36593287586E+02 -0.58326967997E+02  0.57403235234E+01  0.14290403530E+03  0.12509000000E+03 0.  0.
<mgrwt>
<rscale>  2 0.45494211E+03</rscale>
<asrwt>0</asrwt>
<pdfrwt beam="1">  1       21 0.25751810E-01 0.45494211E+03</pdfrwt>
<pdfrwt beam="2">  1       21 0.43453694E-01 0.45494211E+03</pdfrwt>
<totfact> 0.67422260E+04</totfact>
</mgrwt>
</event>
<event>
 7    0  0.4691878E-002  0.4947781E+03  0.7546771E-02  0.1015151E+00
         21   -1    0    0  502  501  0.00000000000E+00  0.00000000000E+00  0.40467616008E+03  0.40467616008E+03  0.00000000000E+00 0.  1.
         21   -1    0    0  501  502 -0.00000000000E+00 -0.00000000000E+00 -0.15123536401E+03  0.15123536401E+03  0.00000000000E+00 0.  1.
      99926    2    1    2    0    0  0.14210854715E-13  0.00000000000E+00  0.25344079607E+03  0.55591152409E+03  0.49477811745E+03 0.  0.
      99925    2    3    3    0    0 -0.11462494611E+03 -0.56658487356E+02  0.72659587719E+02  0.30159200881E+03  0.26330450363E+03 0.  0.
         25    1    3    3    0    0  0.11462494611E+03  0.56658487356E+02  0.18078120835E+03  0.25431951528E+03  0.12509000000E+03 0.  0.
         25    1    4    4    0    0 -0.99786247085E+02 -0.27904632541E+02  0.27630014293E+02  0.16476313123E+03  0.12509000000E+03 0.  0.
         25    1    4    4    0    0 -0.14838699028E+02 -0.28753854815E+02  0.45029573426E+02  0.13682887757E+03  0.12509000000E+03 0.  0.
<mgrwt>
<rscale>  2 0.49477812E+03</rscale>
<asrwt>0</asrwt>
<pdfrwt beam="1">  1       21 0.59511200E-01 0.49477812E+03</pdfrwt>
<pdfrwt beam="2">  1       21 0.22240495E-01 0.49477812E+03</pdfrwt>
<totfact> 0.45395402E+04</totfact>
</mgrwt>
</event>
<event>
 7    0  0.4691878E-002  0.4558065E+03  0.7546771E-02  0.1026004E+00
         21   -1    0    0  502  501  0.00000000000E+00  0.00000000000E+00  0.16971094238E+03  0.16971094238E+03  0.00000000000E+00 0. -1.
         21   -1    0    0  501  502 -0.00000000000E+00 -0.00000000000E+00 -0.30604918606E+03  0.30604918606E+03  0.00000000000E+00 0. -1.
      99926    2    1    2    0    0  0.14210854715E-13  0.00000000000E+00 -0.13633824368E+03  0.47576012844E+03  0.45580651939E+03 0.  0.
      99925    2    3    3    0    0  0.77035592266E+02  0.58525705854E+02 -0.14864057872E+03  0.31714551288E+03  0.26292111740E+03 0.  0.
         25    1    4    4    0    0  0.13131744367E+02 -0.15717414217E+01 -0.83962947677E+02  0.15123557043E+03  0.12509000000E+03 0.  0.
         25    1    3    3    0    0 -0.77035592266E+02 -0.58525705854E+02  0.12302335038E+02  0.15861461556E+03  0.12509000000E+03 0.  0.
         25    1    4    4    0    0  0.63903847899E+02  0.60097447275E+02 -0.64677631044E+02  0.16590994245E+03  0.12509000000E+03 0.  0.
<mgrwt>
<rscale>  2 0.45580652E+03</rscale>
<asrwt>0</asrwt>
<pdfrwt beam="1">  1       21 0.24957492E-01 0.45580652E+03</pdfrwt>
<pdfrwt beam="2">  1       21 0.45007233E-01 0.45580652E+03</pdfrwt>
<totfact> 0.66582869E+04</totfact>
</mgrwt>
</event>
<event>
 7    0  0.4691878E-002  0.4588053E+03  0.7546771E-02  0.1025128E+00
         21   -1    0    0  502  501  0.00000000000E+00  0.00000000000E+00  0.34113192855E+03  0.34113192855E+03  0.00000000000E+00 0.  1.
         21   -1    0    0  501  502 -0.00000000000E+00 -0.00000000000E+00 -0.15426753103E+03  0.15426753103E+03  0.00000000000E+00 0.  1.
      99926    2    1    2    0    0 -0.14210854715E-13  0.00000000000E+00  0.18686439752E+03  0.49539945958E+03  0.45880531982E+03 0.  0.
      99925    2    3    3    0    0  0.85865466853E+02 -0.51763853397E+02  0.52677139010E+02  0.28633941231E+03  0.26298859890E+03 0.  0.
         25    1    3    3    0    0 -0.85865466853E+02  0.51763853397E+02  0.13418725851E+03  0.20906004727E+03  0.12509000000E+03 0.  0.
         25    1    4    4    0    0  0.15936446259E+02 -0.39599001415E+02  0.53296237485E+02  0.14251332661E+03  0.12509000000E+03 0.  0.
         25    1    4    4    0    0  0.69929020595E+02 -0.12164851982E+02 -0.61909847472E+00  0.14382608570E+03  0.12509000000E+03 0.  0.
<mgrwt>
<rscale>  2 0.45880532E+03</rscale>
<asrwt>0</asrwt>
<pdfrwt beam="1">  1       21 0.50166460E-01 0.45880532E+03</pdfrwt>
<pdfrwt beam="2">  1       21 0.22686402E-01 0.45880532E+03</pdfrwt>
<totfact> 0.63650427E+04</totfact>
</mgrwt>
</event>
<event>
 7    0  0.4691878E-002  0.4571593E+03  0.7546771E-02  0.1025608E+00
         21   -1    0    0  502  501  0.00000000000E+00  0.00000000000E+00  0.62748536704E+03  0.62748536704E+03  0.00000000000E+00 0.  1.
         21   -1    0    0  501  502 -0.00000000000E+00 -0.00000000000E+00 -0.83266721577E+02  0.83266721577E+02  0.00000000000E+00 0.  1.
      99926    2    1    2    0    0  0.00000000000E+00 -0.14210854715E-13  0.54421864546E+03  0.71075208862E+03  0.45715926919E+03 0.  0.
      99925    2    3    3    0    0 -0.38108040628E+02  0.89676516474E+02  0.24716755883E+03  0.37403120043E+03  0.26327445071E+03 0.  0.
         25    1    4    4    0    0  0.19766791551E+02  0.29274124323E+02  0.10652284441E+03  0.16805452950E+03  0.12509000000E+03 0.  0.
         25    1    4    4    0    0 -0.57874832179E+02  0.60402392151E+02  0.14064471441E+03  0.20597667093E+03  0.12509000000E+03 0.  0.
         25    1    3    3    0    0  0.38108040628E+02 -0.89676516474E+02  0.29705108664E+03  0.33672088818E+03  0.12509000000E+03 0.  0.
<mgrwt>
<rscale>  2 0.45715927E+03</rscale>
<asrwt>0</asrwt>
<pdfrwt beam="1">  1       21 0.92277257E-01 0.45715927E+03</pdfrwt>
<pdfrwt beam="2">  1       21 0.12245106E-01 0.45715927E+03</pdfrwt>
<totfact> 0.51443569E+04</totfact>
</mgrwt>
</event>
<event>
 7    0  0.4691878E-002  0.4576608E+03  0.7546771E-02  0.1025462E+00
         21   -1    0    0  502  501  0.00000000000E+00  0.00000000000E+00  0.81226679968E+03  0.81226679968E+03  0.00000000000E+00 0.  1.
         21   -1    0    0  501  502 -0.00000000000E+00 -0.00000000000E+00 -0.64465691350E+02  0.64465691350E+02  0.00000000000E+00 0.  1.
      99926    2    1    2    0    0 -0.35527136788E-14  0.00000000000E+00  0.74780110833E+03  0.87673249103E+03  0.45766075122E+03 0.  0.
      99925    2    3    3    0    0 -0.17135394352E+02  0.53804054618E+02  0.66280151567E+03  0.71529848939E+03  0.26297829134E+03 0.  0.
         25    1    3    3    0    0  0.17135394352E+02 -0.53804054618E+02  0.84999592661E+02  0.16143400164E+03  0.12509000000E+03 0.  0.
         25    1    4    4    0    0  0.98322668593E+01 -0.25305361928E+01  0.37268496018E+03  0.39324885852E+03  0.12509000000E+03 0.  0.
         25    1    4    4    0    0 -0.26967661211E+02  0.56334590811E+02  0.29011655549E+03  0.32204963087E+03  0.12509000000E+03 0.  0.
<mgrwt>
<rscale>  2 0.45766075E+03</rscale>
<asrwt>0</asrwt>
<pdfrwt beam="1">  1       21 0.11945099E+00 0.45766075E+03</pdfrwt>
<pdfrwt beam="2">  1       21 0.94802492E-02 0.45766075E+03</pdfrwt>
<totfact> 0.43344634E+04</totfact>
</mgrwt>
</event>
<event>
 7    0  0.4691878E-002  0.4560966E+03  0.7546771E-02  0.1025919E+00
         21   -1    0    0  502  501  0.00000000000E+00  0.00000000000E+00  0.13870270409E+04  0.13870270409E+04  0.00000000000E+00 0.  1.
         21   -1    0    0  501  502 -0.00000000000E+00 -0.00000000000E+00 -0.37494606644E+02  0.37494606644E+02  0.00000000000E+00 0.  1.
      99926    2    1    2    0    0  0.00000000000E+00  0.71054273576E-14  0.13495324343E+04  0.14245216476E+04  0.45609662706E+03 0.  0.
      99925    2    3    3    0    0  0.99778331524E+02 -0.50684176235E+02  0.77848684211E+03  0.82931985188E+03  0.26306853139E+03 0.  0.
         25    1    4    4    0    0  0.92372377550E+02 -0.26531894298E+02  0.45509215102E+03  0.48165648711E+03  0.12509000000E+03 0.  0.
         25    1    3    3    0    0 -0.99778331524E+02  0.50684176235E+02  0.57104559217E+03  0.59520179569E+03  0.12509000000E+03 0.  0.
         25    1    4    4    0    0  0.74059539736E+01 -0.24152281937E+02  0.32339469109E+03  0.34766336477E+03  0.12509000000E+03 0.  0.
<mgrwt>
<rscale>  2 0.45609663E+03</rscale>
<asrwt>0</asrwt>
<pdfrwt beam="1">  1       21 0.20397453E+00 0.45609663E+03</pdfrwt>
<pdfrwt beam="2">  1       21 0.55139137E-02 0.45609663E+03</pdfrwt>
<totfact> 0.25468122E+04</totfact>
</mgrwt>
</event>
<event>
 7    0  0.4691878E-002  0.4446605E+03  0.7546771E-02  0.1029326E+00
         21   -1    0    0  502  501  0.00000000000E+00  0.00000000000E+00  0.28551747796E+03  0.28551747796E+03  0.00000000000E+00 0.  1.
         21   -1    0    0  501  502 -0.00000000000E+00 -0.00000000000E+00 -0.17312682783E+03  0.17312682783E+03  0.00000000000E+00 0.  1.
      99926    2    1    2    0    0  0.00000000000E+00  0.00000000000E+00  0.11239065012E+03  0.45864430579E+03  0.44466047834E+03 0.  0.
      99925    2    3    3    0    0 -0.71627120086E+02  0.57259581737E+02  0.22432330754E+02  0.27934257307E+03  0.26290675083E+03 0.  0.
         25    1    3    3    0    0  0.71627120086E+02 -0.57259581737E+02  0.89958319371E+02  0.17930173272E+03  0.12509000000E+03 0.  0.
         25    1    4    4    0    0 -0.33725935904E+02  0.63367115365E+02 -0.98873532228E+01  0.14456174430E+03  0.12509000000E+03 0.  0.
         25    1    4    4    0    0 -0.37901184182E+02 -0.61075336281E+01  0.32319683977E+02  0.13478082876E+03  0.12509000000E+03 0.  0.
<mgrwt>
<rscale>  2 0.44466048E+03</rscale>
<asrwt>0</asrwt>
<pdfrwt beam="1">  1       21 0.41987865E-01 0.44466048E+03</pdfrwt>
<pdfrwt beam="2">  1       21 0.25459828E-01 0.44466048E+03</pdfrwt>
<totfact> 0.74190353E+04</totfact>
</mgrwt>
</event>
<event>
 7    0  0.4691878E-002  0.4581710E+03  0.7546771E-02  0.1025313E+00
         21   -1    0    0  502  501  0.00000000000E+00  0.00000000000E+00  0.28644943248E+02  0.28644943248E+02  0.00000000000E+00 0.  1.
         21   -1    0    0  501  502 -0.00000000000E+00 -0.00000000000E+00 -0.18320914392E+04  0.18320914392E+04  0.00000000000E+00 0.  1.
      99926    2    1    2    0    0 -0.35527136788E-14  0.00000000000E+00 -0.18034464959E+04  0.18607363824E+04  0.45817095193E+03 0.  0.
      99925    2    3    3    0    0 -0.30754823718E+02  0.10307232678E+03 -0.13101264838E+04  0.13405615020E+04  0.26287634628E+03 0.  0.
         25    1    4    4    0    0 -0.23450070345E+02  0.43002507860E+02 -0.46229344432E+03  0.48141651222E+03  0.12509000000E+03 0.  0.
         25    1    4    4    0    0 -0.73047533736E+01  0.60069818916E+02 -0.84783303948E+03  0.85914498981E+03  0.12509000000E+03 0.  0.
         25    1    3    3    0    0  0.30754823718E+02 -0.10307232678E+03 -0.49332001211E+03  0.52017488038E+03  0.12509000000E+03 0.  0.
<mgrwt>
<rscale>  2 0.45817095E+03</rscale>
<asrwt>0</asrwt>
<pdfrwt beam="1">  1       21 0.42124899E-02 0.45817095E+03</pdfrwt>
<pdfrwt beam="2">  1       21 0.26942532E+00 0.45817095E+03</pdfrwt>
<totfact> 0.15729136E+04</totfact>
</mgrwt>
</event>
<event>
 7    0  0.4691878E-002  0.4560277E+03  0.7546771E-02  0.1025940E+00
         21   -1    0    0  502  501  0.00000000000E+00  0.00000000000E+00  0.35519911649E+02  0.35519911649E+02  0.00000000000E+00 0.  1.
         21   -1    0    0  501  502 -0.00000000000E+00 -0.00000000000E+00 -0.14636946778E+04  0.14636946778E+04  0.00000000000E+00 0.  1.
      99926    2    1    2    0    0  0.14210854715E-13  0.00000000000E+00 -0.14281747662E+04  0.14992145895E+04  0.45602765546E+03 0.  0.
      99925    2    3    3    0    0  0.81430581516E+02 -0.70811133641E+02 -0.77596426151E+03  0.82640614218E+03  0.26302361194E+03 0.  0.
         25    1    4    4    0    0  0.68521650037E+02 -0.82709885624E+01 -0.35690168477E+03  0.38443458022E+03  0.12509000000E+03 0.  0.
         25    1    3    3    0    0 -0.81430581516E+02  0.70811133641E+02 -0.65221050466E+03  0.67280844729E+03  0.12509000000E+03 0.  0.
         25    1    4    4    0    0  0.12908931479E+02 -0.62540145079E+02 -0.41906257674E+03  0.44197156196E+03  0.12509000000E+03 0.  0.
<mgrwt>
<rscale>  2 0.45602766E+03</rscale>
<asrwt>0</asrwt>
<pdfrwt beam="1">  1       21 0.52235167E-02 0.45602766E+03</pdfrwt>
<pdfrwt beam="2">  1       21 0.21524920E+00 0.45602766E+03</pdfrwt>
<totfact> 0.23609361E+04</totfact>
</mgrwt>
</event>
<event>
 6    0  0.4733893E-002  0.4510503E+03  0.7546771E-02  0.1027409E+00
         21   -1    0    0  502  501  0.00000000000E+00  0.00000000000E+00  0.65095491717E+03  0.65095491717E+03  0.00000000000E+00 0.  1.
         21   -1    0    0  501  502 -0.00000000000E+00 -0.00000000000E+00 -0.78133825650E+02  0.78133825650E+02  0.00000000000E+00 0.  1.
      99926    2    1    2    0    0  0.14210854715E-13 -0.17763568394E-14  0.57282109152E+03  0.72908874282E+03  0.45105032094E+03 0.  0.
         25    1    3    3    0    0  0.11472569583E+02 -0.25648068014E+02  0.24351427143E+03  0.27520201986E+03  0.12509000000E+03 0.  0.
         25    1    3    3    0    0  0.84220791852E+02  0.22859247806E+02  0.13443636738E+03  0.20331338364E+03  0.12509000000E+03 0.  0.
         25    1    3    3    0    0 -0.95693361434E+02  0.27888202078E+01  0.19487045271E+03  0.25057333932E+03  0.12509000000E+03 0.  0.
<mgrwt>
<rscale>  2 0.45105032E+03</rscale>
<asrwt>0</asrwt>
<pdfrwt beam="1">  1       21 0.95728662E-01 0.45105032E+03</pdfrwt>
<pdfrwt beam="2">  1       21 0.11490269E-01 0.45105032E+03</pdfrwt>
<totfact> 0.52978334E+04</totfact>
</mgrwt>
</event>
<event>
 7    0  0.4691878E-002  0.4591309E+03  0.7546771E-02  0.1025034E+00
         21   -1    0    0  502  501  0.00000000000E+00  0.00000000000E+00  0.34006688083E+03  0.34006688083E+03  0.00000000000E+00 0. -1.
         21   -1    0    0  501  502 -0.00000000000E+00 -0.00000000000E+00 -0.15497039712E+03  0.15497039712E+03  0.00000000000E+00 0. -1.
      99926    2    1    2    0    0  0.00000000000E+00 -0.88817841970E-15  0.18509648371E+03  0.49503727795E+03  0.45913091627E+03 0.  0.
      99925    2    3    3    0    0 -0.67533811291E+02  0.57496625426E+01  0.13269258163E+02  0.27195438343E+03  0.26303847469E+03 0.  0.
         25    1    4    4    0    0 -0.19007802969E+02  0.31404800262E+02  0.31562880542E+02  0.13413158309E+03  0.12509000000E+03 0.  0.
         25    1    3    3    0    0  0.67533811291E+02 -0.57496625426E+01  0.17182722554E+03  0.22308289451E+03  0.12509000000E+03 0.  0.
         25    1    4    4    0    0 -0.48526008322E+02 -0.25655137720E+02 -0.18293622379E+02  0.13782280034E+03  0.12509000000E+03 0.  0.
<mgrwt>
<rscale>  2 0.45913092E+03</rscale>
<asrwt>0</asrwt>
<pdfrwt beam="1">  1       21 0.50009835E-01 0.45913092E+03</pdfrwt>
<pdfrwt beam="2">  1       21 0.22789764E-01 0.45913092E+03</pdfrwt>
<totfact> 0.63512225E+04</totfact>
</mgrwt>
</event>
<event>
 7    0  0.4691878E-002  0.4461295E+03  0.7546771E-02  0.1028883E+00
         21   -1    0    0  502  501  0.00000000000E+00  0.00000000000E+00  0.25581555301E+03  0.25581555301E+03  0.00000000000E+00 0. -1.
         21   -1    0    0  501  502 -0.00000000000E+00 -0.00000000000E+00 -0.19450683034E+03  0.19450683034E+03  0.00000000000E+00 0. -1.
      99926    2    1    2    0    0  0.44408920985E-15  0.00000000000E+00  0.61308722667E+02  0.45032238335E+03  0.44612945371E+03 0.  0.
      99925    2    3    3    0    0  0.39718067560E+01 -0.72063118675E+02  0.11530913073E+03  0.29613930875E+03  0.26304643361E+03 0.  0.
         25    1    3    3    0    0 -0.39718067560E+01  0.72063118675E+02 -0.54000408060E+02  0.15418307460E+03  0.12509000000E+03 0.  0.
         25    1    4    4    0    0 -0.48602295540E+01 -0.13574739766E+02  0.91697863718E+02  0.15576874430E+03  0.12509000000E+03 0.  0.
         25    1    4    4    0    0  0.88320363100E+01 -0.58488378909E+02  0.23611267008E+02  0.14037056444E+03  0.12509000000E+03 0.  0.
<mgrwt>
<rscale>  2 0.44612945E+03</rscale>
<asrwt>0</asrwt>
<pdfrwt beam="1">  1       21 0.37619935E-01 0.44612945E+03</pdfrwt>
<pdfrwt beam="2">  1       21 0.28603945E-01 0.44612945E+03</pdfrwt>
<totfact> 0.73988781E+04</totfact>
</mgrwt>
</event>
<event>
 7    0  0.4691878E-002  0.4584149E+03  0.7546771E-02  0.1025242E+00
         21   -1    0    0  502  501  0.00000000000E+00  0.00000000000E+00  0.30960285572E+03  0.30960285572E+03  0.00000000000E+00 0.  1.
         21   -1    0    0  501  502 -0.00000000000E+00 -0.00000000000E+00 -0.16968853720E+03  0.16968853720E+03  0.00000000000E+00 0.  1.
      99926    2    1    2    0    0  0.00000000000E+00 -0.71054273576E-14  0.13991431852E+03  0.47929139292E+03  0.45841490246E+03 0.  0.
      99925    2    3    3    0    0  0.51461610903E+02  0.45036268070E+02 -0.10576788664E+02  0.27199536237E+03  0.26304571058E+03 0.  0.
         25    1    4    4    0    0  0.52556174868E+02  0.11565007164E+02  0.23273979235E+02  0.13814878616E+03  0.12509000000E+03 0.  0.
         25    1    3    3    0    0 -0.51461610903E+02 -0.45036268070E+02  0.15049110718E+03  0.20729603054E+03  0.12509000000E+03 0.  0.
         25    1    4    4    0    0 -0.10945639652E+01  0.33471260906E+02 -0.33850767899E+02  0.13384657621E+03  0.12509000000E+03 0.  0.
<mgrwt>
<rscale>  2 0.45841490E+03</rscale>
<asrwt>0</asrwt>
<pdfrwt beam="1">  1       21 0.45529832E-01 0.45841490E+03</pdfrwt>
<pdfrwt beam="2">  1       21 0.24954196E-01 0.45841490E+03</pdfrwt>
<totfact> 0.64972824E+04</totfact>
</mgrwt>
</event>
<event>
 7    0  0.4691878E-002  0.4545692E+03  0.7546771E-02  0.1026368E+00
         21   -1    0    0  502  501  0.00000000000E+00  0.00000000000E+00  0.10350591238E+03  0.10350591238E+03  0.00000000000E+00 0. -1.
         21   -1    0    0  501  502 -0.00000000000E+00 -0.00000000000E+00 -0.49908544134E+03  0.49908544134E+03  0.00000000000E+00 0. -1.
      99926    2    1    2    0    0 -0.14210854715E-13  0.00000000000E+00 -0.39557952896E+03  0.60259135372E+03  0.45456922009E+03 0.  0.
      99925    2    3    3    0    0  0.98193941292E+02  0.12724860038E+01 -0.17642028371E+03  0.33181108819E+03  0.26330744846E+03 0.  0.
         25    1    4    4    0    0  0.76269214789E+02  0.16023321167E+01 -0.56166525222E+02  0.15691318379E+03  0.12509000000E+03 0.  0.
         25    1    3    3    0    0 -0.98193941292E+02 -0.12724860038E+01 -0.21915924525E+03  0.27078026554E+03  0.12509000000E+03 0.  0.
         25    1    4    4    0    0  0.21924726503E+02 -0.32984611282E+00 -0.12025375849E+03  0.17489790439E+03  0.12509000000E+03 0.  0.
<mgrwt>
<rscale>  2 0.45456922E+03</rscale>
<asrwt>0</asrwt>
<pdfrwt beam="1">  1       21 0.15221458E-01 0.45456922E+03</pdfrwt>
<pdfrwt beam="2">  1       21 0.73394917E-01 0.45456922E+03</pdfrwt>
<totfact> 0.58718637E+04</totfact>
</mgrwt>
</event>
<event>
 7    0  0.4691878E-002  0.4565275E+03  0.7546771E-02  0.1025793E+00
         21   -1    0    0  502  501  0.00000000000E+00  0.00000000000E+00  0.89566460632E+03  0.89566460632E+03  0.00000000000E+00 0.  1.
         21   -1    0    0  501  502 -0.00000000000E+00 -0.00000000000E+00 -0.58173932034E+02  0.58173932034E+02  0.00000000000E+00 0.  1.
      99926    2    1    2    0    0  0.00000000000E+00  0.17763568394E-14  0.83749067428E+03  0.95383853835E+03  0.45652746657E+03 0.  0.
      99925    2    3    3    0    0  0.97495197166E+02  0.24761570408E+01  0.40049943645E+03  0.48895113815E+03  0.26298663859E+03 0.  0.
         25    1    3    3    0    0 -0.97495197166E+02 -0.24761570408E+01  0.43699123783E+03  0.46488740020E+03  0.12509000000E+03 0.  0.
         25    1    4    4    0    0  0.58489771151E+02 -0.30772037707E+02  0.16443383263E+03  0.21691925928E+03  0.12509000000E+03 0.  0.
         25    1    4    4    0    0  0.39005426016E+02  0.33248194748E+02  0.23606560382E+03  0.27203187887E+03  0.12509000000E+03 0.  0.
<mgrwt>
<rscale>  2 0.45652747E+03</rscale>
<asrwt>0</asrwt>
<pdfrwt beam="1">  1       21 0.13171537E+00 0.45652747E+03</pdfrwt>
<pdfrwt beam="2">  1       21 0.85549906E-02 0.45652747E+03</pdfrwt>
<totfact> 0.40499877E+04</totfact>
</mgrwt>
</event>
<event>
 7    0  0.4691878E-002  0.4558306E+03  0.7546771E-02  0.1025997E+00
         21   -1    0    0  502  501  0.00000000000E+00  0.00000000000E+00  0.31130596252E+03  0.31130596252E+03  0.00000000000E+00 0.  1.
         21   -1    0    0  501  502 -0.00000000000E+00 -0.00000000000E+00 -0.16686279092E+03  0.16686279092E+03  0.00000000000E+00 0.  1.
      99926    2    1    2    0    0  0.00000000000E+00  0.00000000000E+00  0.14444317159E+03  0.47816875344E+03  0.45583059018E+03 0.  0.
      99925    2    3    3    0    0  0.54966434125E+02  0.47787108082E+02  0.18269463607E+03  0.32845035372E+03  0.26305396449E+03 0.  0.
         25    1    4    4    0    0  0.64467933280E+01  0.50171352765E+02  0.11900275941E+03  0.17991078519E+03  0.12509000000E+03 0.  0.
         25    1    3    3    0    0 -0.54966434125E+02 -0.47787108082E+02 -0.38251464476E+02  0.14971839972E+03  0.12509000000E+03 0.  0.
         25    1    4    4    0    0  0.48519640797E+02 -0.23842446834E+01  0.63691876660E+02  0.14853956853E+03  0.12509000000E+03 0.  0.
<mgrwt>
<rscale>  2 0.45583059E+03</rscale>
<asrwt>0</asrwt>
<pdfrwt beam="1">  1       21 0.45780289E-01 0.45583059E+03</pdfrwt>
<pdfrwt beam="2">  1       21 0.24538645E-01 0.45583059E+03</pdfrwt>
<totfact> 0.66394869E+04</totfact>
</mgrwt>
</event>
<event>
 7    0  0.4691878E-002  0.4560911E+03  0.7546771E-02  0.1025921E+00
         21   -1    0    0  502  501  0.00000000000E+00  0.00000000000E+00  0.25083439063E+03  0.25083439063E+03  0.00000000000E+00 0. -1.
         21   -1    0    0  501  502 -0.00000000000E+00 -0.00000000000E+00 -0.20732710349E+03  0.20732710349E+03  0.00000000000E+00 0. -1.
      99926    2    1    2    0    0  0.00000000000E+00 -0.14210854715E-13  0.43507287147E+02  0.45816149412E+03  0.45609107715E+03 0.  0.
      99925    2    3    3    0    0  0.63700580950E+02 -0.94215680909E+02  0.16037398212E+02  0.28688259454E+03  0.26288793499E+03 0.  0.
         25    1    4    4    0    0  0.73375760799E+02 -0.49854782239E+02  0.95294399323E+01  0.15364836449E+03  0.12509000000E+03 0.  0.
         25    1    3    3    0    0 -0.63700580950E+02  0.94215680909E+02  0.27469888935E+02  0.17127889958E+03  0.12509000000E+03 0.  0.
         25    1    4    4    0    0 -0.96751798484E+01 -0.44360898670E+02  0.65079582794E+01  0.13323423005E+03  0.12509000000E+03 0.  0.
<mgrwt>
<rscale>  2 0.45609108E+03</rscale>
<asrwt>0</asrwt>
<pdfrwt beam="1">  1       21 0.36887410E-01 0.45609108E+03</pdfrwt>
<pdfrwt beam="2">  1       21 0.30489280E-01 0.45609108E+03</pdfrwt>
<totfact> 0.67723335E+04</totfact>
</mgrwt>
</event>
<event>
 7    0  0.4691878E-002  0.4616620E+03  0.7546771E-02  0.1024300E+00
         21   -1    0    0  502  501  0.00000000000E+00  0.00000000000E+00  0.24658602894E+03  0.24658602894E+03  0.00000000000E+00 0.  1.
         21   -1    0    0  501  502 -0.00000000000E+00 -0.00000000000E+00 -0.21608256919E+03  0.21608256919E+03  0.00000000000E+00 0.  1.
      99926    2    1    2    0    0  0.22204460493E-15  0.00000000000E+00  0.30503459750E+02  0.46266859813E+03  0.46166196577E+03 0.  0.
      99925    2    3    3    0    0 -0.43641419696E+00 -0.19752980116E+02 -0.99151244179E+02  0.28142781621E+03  0.26264096374E+03 0.  0.
         25    1    4    4    0    0  0.10670903407E+02  0.14919172143E+02 -0.80343444647E+02  0.14979661904E+03  0.12509000000E+03 0.  0.
         25    1    3    3    0    0  0.43641419696E+00  0.19752980116E+02  0.12965470393E+03  0.18124078192E+03  0.12509000000E+03 0.  0.
         25    1    4    4    0    0 -0.11107317604E+02 -0.34672152259E+02 -0.18807799531E+02  0.13163119718E+03  0.12509000000E+03 0.  0.
<mgrwt>
<rscale>  2 0.46166197E+03</rscale>
<asrwt>0</asrwt>
<pdfrwt beam="1">  1       21 0.36262651E-01 0.46166197E+03</pdfrwt>
<pdfrwt beam="2">  1       21 0.31776848E-01 0.46166197E+03</pdfrwt>
<totfact> 0.64490893E+04</totfact>
</mgrwt>
</event>
<event>
 7    0  0.4691878E-002  0.3994881E+03  0.7546771E-02  0.1043957E+00
         21   -1    0    0  502  501  0.00000000000E+00  0.00000000000E+00  0.49584915166E+03  0.49584915166E+03  0.00000000000E+00 0.  1.
         21   -1    0    0  501  502 -0.00000000000E+00 -0.00000000000E+00 -0.80463346829E+02  0.80463346829E+02  0.00000000000E+00 0.  1.
      99926    2    1    2    0    0  0.00000000000E+00  0.00000000000E+00  0.41538580483E+03  0.57631249848E+03  0.39948808375E+03 0.  0.
      99925    2    3    3    0    0 -0.27760158135E+02  0.34469180796E+02  0.28086951394E+03  0.38736570328E+03  0.26306986413E+03 0.  0.
         25    1    4    4    0    0 -0.26637776880E+02  0.24948953976E+02  0.19792819663E+03  0.23697067452E+03  0.12509000000E+03 0.  0.
         25    1    3    3    0    0  0.27760158135E+02 -0.34469180796E+02  0.13451629089E+03  0.18894679521E+03  0.12509000000E+03 0.  0.
         25    1    4    4    0    0 -0.11223812547E+01  0.95202268206E+01  0.82941317309E+02  0.15039502876E+03  0.12509000000E+03 0.  0.
<mgrwt>
<rscale>  2 0.39948808E+03</rscale>
<asrwt>0</asrwt>
<pdfrwt beam="1">  1       21 0.72918991E-01 0.39948808E+03</pdfrwt>
<pdfrwt beam="2">  1       21 0.11832845E-01 0.39948808E+03</pdfrwt>
<totfact> 0.95751414E+04</totfact>
</mgrwt>
</event>
<event>
 7    0  0.4691878E-002  0.4215224E+03  0.7546771E-02  0.1036572E+00
         21   -1    0    0  502  501  0.00000000000E+00  0.00000000000E+00  0.35992346468E+03  0.35992346468E+03  0.00000000000E+00 0.  1.
         21   -1    0    0  501  502 -0.00000000000E+00 -0.00000000000E+00 -0.12341591186E+03  0.12341591186E+03  0.00000000000E+00 0.  1.
      99926    2    1    2    0    0 -0.71054273576E-14  0.00000000000E+00  0.23650755282E+03  0.48333937653E+03  0.42152239604E+03 0.  0.
      99925    2    3    3    0    0 -0.27515949397E+02  0.72414692507E+02  0.14626988481E+03  0.31073763845E+03  0.26298666427E+03 0.  0.
         25    1    4    4    0    0 -0.45395801838E+02  0.25838366499E+02  0.47158785460E+02  0.14352651028E+03  0.12509000000E+03 0.  0.
         25    1    3    3    0    0  0.27515949397E+02 -0.72414692507E+02  0.90237668009E+02  0.17260173808E+03  0.12509000000E+03 0.  0.
         25    1    4    4    0    0  0.17879852441E+02  0.46576326009E+02  0.99111099350E+02  0.16721112816E+03  0.12509000000E+03 0.  0.
<mgrwt>
<rscale>  2 0.42152240E+03</rscale>
<asrwt>0</asrwt>
<pdfrwt beam="1">  1       21 0.52929921E-01 0.42152240E+03</pdfrwt>
<pdfrwt beam="2">  1       21 0.18149399E-01 0.42152240E+03</pdfrwt>
<totfact> 0.87492548E+04</totfact>
</mgrwt>
</event>
<event>
 7    0  0.4691878E-002  0.4542305E+03  0.7546771E-02  0.1026468E+00
         21   -1    0    0  502  501  0.00000000000E+00  0.00000000000E+00  0.24075943823E+02  0.24075943823E+02  0.00000000000E+00 0. -1.
         21   -1    0    0  501  502 -0.00000000000E+00 -0.00000000000E+00 -0.21424434063E+04  0.21424434063E+04  0.00000000000E+00 0. -1.
      99926    2    1    2    0    0  0.14210854715E-13 -0.14210854715E-13 -0.21183674625E+04  0.21665193501E+04  0.45423054540E+03 0.  0.
      99925    2    3    3    0    0 -0.81436528936E+02  0.63725455915E+02 -0.11216041339E+04  0.11566295129E+04  0.26287478961E+03 0.  0.
         25    1    4    4    0    0 -0.59444625937E+02 -0.63452566216E+00 -0.61458339986E+03  0.62999549971E+03  0.12509000000E+03 0.  0.
         25    1    4    4    0    0 -0.21991902999E+02  0.64359981577E+02 -0.50702073405E+03  0.52663401322E+03  0.12509000000E+03 0.  0.
         25    1    3    3    0    0  0.81436528936E+02 -0.63725455915E+02 -0.99676332858E+03  0.10098898372E+04  0.12509000000E+03 0.  0.
<mgrwt>
<rscale>  2 0.45423055E+03</rscale>
<asrwt>0</asrwt>
<pdfrwt beam="1">  1       21 0.35405786E-02 0.45423055E+03</pdfrwt>
<pdfrwt beam="2">  1       21 0.31506532E+00 0.45423055E+03</pdfrwt>
<totfact> 0.11243694E+04</totfact>
</mgrwt>
</event>
<event>
 7    0  0.4691878E-002  0.4539820E+03  0.7546771E-02  0.1026541E+00
         21   -1    0    0  502  501  0.00000000000E+00  0.00000000000E+00  0.67881998876E+03  0.67881998876E+03  0.00000000000E+00 0.  1.
         21   -1    0    0  501  502 -0.00000000000E+00 -0.00000000000E+00 -0.75903658707E+02  0.75903658707E+02  0.00000000000E+00 0.  1.
      99926    2    1    2    0    0  0.00000000000E+00  0.00000000000E+00  0.60291633005E+03  0.75472364747E+03  0.45398202938E+03 0.  0.
      99925    2    3    3    0    0 -0.22185320928E+02 -0.10887568586E+03  0.40537393213E+03  0.49584798134E+03  0.26304199724E+03 0.  0.
         25    1    4    4    0    0 -0.15696749608E+02 -0.83189075380E+02  0.16578540350E+03  0.22427464931E+03  0.12509000000E+03 0.  0.
         25    1    3    3    0    0  0.22185320928E+02  0.10887568586E+03  0.19754239792E+03  0.25887566613E+03  0.12509000000E+03 0.  0.
         25    1    4    4    0    0 -0.64885713198E+01 -0.25686610483E+02  0.23958852863E+03  0.27157333203E+03  0.12509000000E+03 0.  0.
<mgrwt>
<rscale>  2 0.45398203E+03</rscale>
<asrwt>0</asrwt>
<pdfrwt beam="1">  1       21 0.99826466E-01 0.45398203E+03</pdfrwt>
<pdfrwt beam="2">  1       21 0.11162303E-01 0.45398203E+03</pdfrwt>
<totfact> 0.50432761E+04</totfact>
</mgrwt>
</event>
<event>
 7    0  0.4691878E-002  0.4554252E+03  0.7546771E-02  0.1026116E+00
         21   -1    0    0  502  501  0.00000000000E+00  0.00000000000E+00  0.17290743096E+04  0.17290743096E+04  0.00000000000E+00 0.  1.
         21   -1    0    0  501  502 -0.00000000000E+00 -0.00000000000E+00 -0.29988892160E+02  0.29988892160E+02  0.00000000000E+00 0.  1.
      99926    2    1    2    0    0 -0.71054273576E-14  0.71054273576E-14  0.16990854175E+04  0.17590632018E+04  0.45542517720E+03 0.  0.
      99925    2    3    3    0    0  0.48301104615E+02 -0.59150978276E+02  0.13934568397E+04  0.14201116262E+04  0.26298903370E+03 0.  0.
         25    1    3    3    0    0 -0.48301104615E+02  0.59150978276E+02  0.30562857775E+03  0.33895157556E+03  0.12509000000E+03 0.  0.
         25    1    4    4    0    0  0.45110752123E+02 -0.64794509715E+02  0.80381672738E+03  0.81731398358E+03  0.12509000000E+03 0.  0.
         25    1    4    4    0    0  0.31903524922E+01  0.56435314390E+01  0.58964011234E+03  0.60279764264E+03  0.12509000000E+03 0.  0.
<mgrwt>
<rscale>  2 0.45542518E+03</rscale>
<asrwt>0</asrwt>
<pdfrwt beam="1">  1       21 0.25427557E+00 0.45542518E+03</pdfrwt>
<pdfrwt beam="2">  1       21 0.44101324E-02 0.45542518E+03</pdfrwt>
<totfact> 0.17999994E+04</totfact>
</mgrwt>
</event>
<event>
 7    0  0.4691878E-002  0.4456410E+03  0.7546771E-02  0.1029030E+00
         21   -1    0    0  502  501  0.00000000000E+00  0.00000000000E+00  0.25263953862E+04  0.25263953862E+04  0.00000000000E+00 0. -1.
         21   -1    0    0  501  502 -0.00000000000E+00 -0.00000000000E+00 -0.19652102406E+02  0.19652102406E+02  0.00000000000E+00 0. -1.
      99926    2    1    2    0    0  0.00000000000E+00  0.00000000000E+00  0.25067432838E+04  0.25460474886E+04  0.44564102526E+03 0.  0.
      99925    2    3    3    0    0 -0.65206786677E+02  0.27217405938E+02  0.11543648974E+04  0.11860594297E+04  0.26303220767E+03 0.  0.
         25    1    4    4    0    0 -0.31483631692E+02  0.34678524730E+02  0.73627423053E+03  0.74829210191E+03  0.12509000000E+03 0.  0.
         25    1    4    4    0    0 -0.33723154985E+02 -0.74611187921E+01  0.41809066686E+03  0.43776732780E+03  0.12509000000E+03 0.  0.
         25    1    3    3    0    0  0.65206786677E+02 -0.27217405938E+02  0.13523783864E+04  0.13599880589E+04  0.12509000000E+03 0.  0.
<mgrwt>
<rscale>  2 0.44564103E+03</rscale>
<asrwt>0</asrwt>
<pdfrwt beam="1">  1       21 0.37152851E+00 0.44564103E+03</pdfrwt>
<pdfrwt beam="2">  1       21 0.28900168E-02 0.44564103E+03</pdfrwt>
<totfact> 0.71805300E+03</totfact>
</mgrwt>
</event>
<event>
 7    0  0.4691878E-002  0.4532682E+03  0.7546771E-02  0.1026752E+00
         21   -1    0    0  502  501  0.00000000000E+00  0.00000000000E+00  0.20455362589E+03  0.20455362589E+03  0.00000000000E+00 0.  1.
         21   -1    0    0  501  502 -0.00000000000E+00 -0.00000000000E+00 -0.25109806108E+03  0.25109806108E+03  0.00000000000E+00 0.  1.
      99926    2    1    2    0    0  0.00000000000E+00  0.00000000000E+00 -0.46544435192E+02  0.45565168697E+03  0.45326821573E+03 0.  0.
      99925    2    3    3    0    0 -0.31225086367E+02  0.75463562766E+02 -0.10572736645E+03  0.29496602247E+03  0.26297703906E+03 0.  0.
         25    1    3    3    0    0  0.31225086367E+02 -0.75463562766E+02  0.59182931254E+02  0.16068566450E+03  0.12509000000E+03 0.  0.
         25    1    4    4    0    0  0.83939176046E+01  0.42848681561E+02 -0.86917433620E+02  0.15845698385E+03  0.12509000000E+03 0.  0.
         25    1    4    4    0    0 -0.39619003972E+02  0.32614881205E+02 -0.18809932825E+02  0.13650903862E+03  0.12509000000E+03 0.  0.
<mgrwt>
<rscale>  2 0.45326822E+03</rscale>
<asrwt>0</asrwt>
<pdfrwt beam="1">  1       21 0.30081416E-01 0.45326822E+03</pdfrwt>
<pdfrwt beam="2">  1       21 0.36926185E-01 0.45326822E+03</pdfrwt>
<totfact> 0.69452744E+04</totfact>
</mgrwt>
</event>
<event>
 7    0  0.4691878E-002  0.4670910E+03  0.7546771E-02  0.1022744E+00
         21   -1    0    0  502  501  0.00000000000E+00  0.00000000000E+00  0.97339461472E+02  0.97339461472E+02  0.00000000000E+00 0. -1.
         21   -1    0    0  501  502 -0.00000000000E+00 -0.00000000000E+00 -0.56034305331E+03  0.56034305331E+03  0.00000000000E+00 0. -1.
      99926    2    1    2    0    0  0.35527136788E-14  0.00000000000E+00 -0.46300359183E+03  0.65768251478E+03  0.46709095923E+03 0.  0.
      99925    2    3    3    0    0 -0.17818240665E+02  0.11740472196E+03 -0.23872139743E+03  0.37474900799E+03  0.26333923931E+03 0.  0.
         25    1    4    4    0    0 -0.39626667961E+02  0.29852229098E+02 -0.10710942065E+03  0.17199233846E+03  0.12509000000E+03 0.  0.
         25    1    4    4    0    0  0.21808427296E+02  0.87552492860E+02 -0.13161197678E+03  0.20275666953E+03  0.12509000000E+03 0.  0.
         25    1    3    3    0    0  0.17818240665E+02 -0.11740472196E+03 -0.22428219440E+03  0.28293350679E+03  0.12509000000E+03 0.  0.
<mgrwt>
<rscale>  2 0.46709096E+03</rscale>
<asrwt>0</asrwt>
<pdfrwt beam="1">  1       21 0.14314627E-01 0.46709096E+03</pdfrwt>
<pdfrwt beam="2">  1       21 0.82403389E-01 0.46709096E+03</pdfrwt>
<totfact> 0.50290427E+04</totfact>
</mgrwt>
</event>
<event>
 7    0  0.4691878E-002  0.4451486E+03  0.7546771E-02  0.1029179E+00
         21   -1    0    0  502  501  0.00000000000E+00  0.00000000000E+00  0.23087532184E+03  0.23087532184E+03  0.00000000000E+00 0.  1.
         21   -1    0    0  501  502 -0.00000000000E+00 -0.00000000000E+00 -0.21457178475E+03  0.21457178475E+03  0.00000000000E+00 0.  1.
      99926    2    1    2    0    0  0.00000000000E+00  0.00000000000E+00  0.16303537096E+02  0.44544710659E+03  0.44514864871E+03 0.  0.
      99925    2    3    3    0    0 -0.68970724440E+02  0.40240250761E+02  0.76320470449E+02  0.28536656749E+03  0.26312169241E+03 0.  0.
         25    1    4    4    0    0 -0.23744539514E+02  0.58812075564E+02  0.31140167967E+02  0.14366586773E+03  0.12509000000E+03 0.  0.
         25    1    3    3    0    0  0.68970724440E+02 -0.40240250761E+02 -0.60016933353E+02  0.16008053911E+03  0.12509000000E+03 0.  0.
         25    1    4    4    0    0 -0.45226184926E+02 -0.18571824803E+02  0.45180302482E+02  0.14170069976E+03  0.12509000000E+03 0.  0.
<mgrwt>
<rscale>  2 0.44514865E+03</rscale>
<asrwt>0</asrwt>
<pdfrwt beam="1">  1       21 0.33952253E-01 0.44514865E+03</pdfrwt>
<pdfrwt beam="2">  1       21 0.31554674E-01 0.44514865E+03</pdfrwt>
<totfact> 0.74973486E+04</totfact>
</mgrwt>
</event>
<event>
 7    0  0.4691878E-002  0.4499081E+03  0.7546771E-02  0.1027749E+00
         21   -1    0    0  502  501  0.00000000000E+00  0.00000000000E+00  0.28883140049E+02  0.28883140049E+02  0.00000000000E+00 0. -1.
         21   -1    0    0  501  502 -0.00000000000E+00 -0.00000000000E+00 -0.17520368226E+04  0.17520368226E+04  0.00000000000E+00 0. -1.
      99926    2    1    2    0    0  0.71054273576E-14  0.00000000000E+00 -0.17231536825E+04  0.17809199626E+04  0.44990810136E+03 0.  0.
      99925    2    3    3    0    0 -0.48456613440E+02 -0.46392965043E+02 -0.76190981302E+03  0.80925251162E+03  0.26435338807E+03 0.  0.
         25    1    4    4    0    0 -0.63865574750E+02 -0.41886900544E+02 -0.40154369323E+03  0.42745545937E+03  0.12509000000E+03 0.  0.
         25    1    4    4    0    0  0.15408961309E+02 -0.45060644994E+01 -0.36036611979E+03  0.38179705224E+03  0.12509000000E+03 0.  0.
         25    1    3    3    0    0  0.48456613440E+02  0.46392965043E+02 -0.96124386952E+03  0.97166745103E+03  0.12509000000E+03 0.  0.
<mgrwt>
<rscale>  2 0.44990810E+03</rscale>
<asrwt>0</asrwt>
<pdfrwt beam="1">  1       21 0.42475187E-02 0.44990810E+03</pdfrwt>
<pdfrwt beam="2">  1       21 0.25765259E+00 0.44990810E+03</pdfrwt>
<totfact> 0.18343435E+04</totfact>
</mgrwt>
</event>
<event>
 7    0  0.4691878E-002  0.4543704E+03  0.7546771E-02  0.1026427E+00
         21   -1    0    0  502  501  0.00000000000E+00  0.00000000000E+00  0.66012194090E+03  0.66012194090E+03  0.00000000000E+00 0. -1.
         21   -1    0    0  501  502 -0.00000000000E+00 -0.00000000000E+00 -0.78187254725E+02  0.78187254725E+02  0.00000000000E+00 0. -1.
      99926    2    1    2    0    0  0.00000000000E+00  0.00000000000E+00  0.58193468617E+03  0.73830919563E+03  0.45437043189E+03 0.  0.
      99925    2    3    3    0    0 -0.59074525479E+02 -0.57040556591E+02  0.24183775108E+03  0.36674916277E+03  0.26320339262E+03 0.  0.
         25    1    4    4    0    0 -0.10401025424E+02 -0.34089909750E+02  0.16597802367E+03  0.21087085080E+03  0.12509000000E+03 0.  0.
         25    1    3    3    0    0  0.59074525479E+02  0.57040556591E+02  0.34009693510E+03  0.37156003286E+03  0.12509000000E+03 0.  0.
         25    1    4    4    0    0 -0.48673500055E+02 -0.22950646841E+02  0.75859727407E+02  0.15587831196E+03  0.12509000000E+03 0.  0.
<mgrwt>
<rscale>  2 0.45437043E+03</rscale>
<asrwt>0</asrwt>
<pdfrwt beam="1">  1       21 0.97076753E-01 0.45437043E+03</pdfrwt>
<pdfrwt beam="2">  1       21 0.11498126E-01 0.45437043E+03</pdfrwt>
<totfact> 0.51124462E+04</totfact>
</mgrwt>
</event>
<event>
 7    0  0.4691878E-002  0.4615126E+03  0.7546771E-02  0.1024343E+00
         21   -1    0    0  502  501  0.00000000000E+00  0.00000000000E+00  0.83627846394E+03  0.83627846394E+03  0.00000000000E+00 0. -1.
         21   -1    0    0  501  502 -0.00000000000E+00 -0.00000000000E+00 -0.63673119769E+02  0.63673119769E+02  0.00000000000E+00 0. -1.
      99926    2    1    2    0    0  0.00000000000E+00 -0.14210854715E-13  0.77260534418E+03  0.89995158371E+03  0.46151255149E+03 0.  0.
      99925    2    3    3    0    0 -0.37984711705E+02  0.11268143394E+03  0.49688133042E+03  0.57466527330E+03  0.26307636903E+03 0.  0.
         25    1    3    3    0    0  0.37984711705E+02 -0.11268143394E+03  0.27572401376E+03  0.32528631041E+03  0.12509000000E+03 0.  0.
         25    1    4    4    0    0 -0.29507916842E+02  0.16249451679E+02  0.24747363691E+03  0.27933039738E+03  0.12509000000E+03 0.  0.
         25    1    4    4    0    0 -0.84767948630E+01  0.96431982260E+02  0.24940769351E+03  0.29533487592E+03  0.12509000000E+03 0.  0.
<mgrwt>
<rscale>  2 0.46151255E+03</rscale>
<asrwt>0</asrwt>
<pdfrwt beam="1">  1       21 0.12298212E+00 0.46151255E+03</pdfrwt>
<pdfrwt beam="2">  1       21 0.93636945E-02 0.46151255E+03</pdfrwt>
<totfact> 0.41099672E+04</totfact>
</mgrwt>
</event>
<event>
 7    0  0.4691878E-002  0.4509507E+03  0.7546771E-02  0.1027439E+00
         21   -1    0    0  502  501  0.00000000000E+00  0.00000000000E+00  0.21926538492E+03  0.21926538492E+03  0.00000000000E+00 0. -1.
         21   -1    0    0  501  502 -0.00000000000E+00 -0.00000000000E+00 -0.23186115791E+03  0.23186115791E+03  0.00000000000E+00 0. -1.
      99926    2    1    2    0    0  0.00000000000E+00  0.00000000000E+00 -0.12595772996E+02  0.45112654283E+03  0.45095066709E+03 0.  0.
      99925    2    3    3    0    0  0.36092446003E+02 -0.76034642285E+02 -0.77652295504E+02  0.28691999391E+03  0.26307655240E+03 0.  0.
         25    1    3    3    0    0 -0.36092446003E+02  0.76034642285E+02  0.65056522508E+02  0.16420654892E+03  0.12509000000E+03 0.  0.
         25    1    4    4    0    0  0.26845905298E+02  0.21036391740E+01 -0.27632065268E+02  0.13090518347E+03  0.12509000000E+03 0.  0.
         25    1    4    4    0    0  0.92465407059E+01 -0.78138281459E+02 -0.50020230236E+02  0.15601481044E+03  0.12509000000E+03 0.  0.
<mgrwt>
<rscale>  2 0.45095067E+03</rscale>
<asrwt>0</asrwt>
<pdfrwt beam="1">  1       21 0.32244910E-01 0.45095067E+03</pdfrwt>
<pdfrwt beam="2">  1       21 0.34097229E-01 0.45095067E+03</pdfrwt>
<totfact> 0.71100081E+04</totfact>
</mgrwt>
</event>
<event>
 7    0  0.4691878E-002  0.4556255E+03  0.7546771E-02  0.1026058E+00
         21   -1    0    0  502  501  0.00000000000E+00  0.00000000000E+00  0.13260335343E+04  0.13260335343E+04  0.00000000000E+00 0.  1.
         21   -1    0    0  501  502 -0.00000000000E+00 -0.00000000000E+00 -0.39138266698E+02  0.39138266698E+02  0.00000000000E+00 0.  1.
      99926    2    1    2    0    0  0.00000000000E+00  0.00000000000E+00  0.12868952676E+04  0.13651718010E+04  0.45562552218E+03 0.  0.
      99925    2    3    3    0    0  0.28096881307E+02  0.99630023012E+02  0.66827235333E+03  0.72559585211E+03  0.26303198695E+03 0.  0.
         25    1    4    4    0    0  0.13019384086E+02  0.35536470593E+02  0.42042749833E+03  0.44027165995E+03  0.12509000000E+03 0.  0.
         25    1    3    3    0    0 -0.28096881307E+02 -0.99630023012E+02  0.61862291425E+03  0.63957594886E+03  0.12509000000E+03 0.  0.
         25    1    4    4    0    0  0.15077497221E+02  0.64093552420E+02  0.24784485499E+03  0.28532419216E+03  0.12509000000E+03 0.  0.
<mgrwt>
<rscale>  2 0.45562552E+03</rscale>
<asrwt>0</asrwt>
<pdfrwt beam="1">  1       21 0.19500490E+00 0.45562552E+03</pdfrwt>
<pdfrwt beam="2">  1       21 0.57556283E-02 0.45562552E+03</pdfrwt>
<totfact> 0.27142885E+04</totfact>
</mgrwt>
</event>
<event>
 7    0  0.4691878E-002  0.4587773E+03  0.7546771E-02  0.1025136E+00
         21   -1    0    0  502  501  0.00000000000E+00  0.00000000000E+00  0.18791874283E+03  0.18791874283E+03  0.00000000000E+00 0. -1.
         21   -1    0    0  501  502 -0.00000000000E+00 -0.00000000000E+00 -0.28001012727E+03  0.28001012727E+03  0.00000000000E+00 0. -1.
      99926    2    1    2    0    0  0.00000000000E+00  0.00000000000E+00 -0.92091384439E+02  0.46792887011E+03  0.45877729280E+03 0.  0.
      99925    2    3    3    0    0 -0.38347148625E+02  0.62168677812E+02 -0.14905384284E+03  0.31227644296E+03  0.26450724084E+03 0.  0.
         25    1    3    3    0    0  0.38347148625E+02 -0.62168677812E+02  0.56962458402E+02  0.15565242714E+03  0.12509000000E+03 0.  0.
         25    1    4    4    0    0 -0.51694387715E+02  0.11019360314E+02 -0.52246245060E+02  0.14550228261E+03  0.12509000000E+03 0.  0.
         25    1    4    4    0    0  0.13347239089E+02  0.51149317498E+02 -0.96807597781E+02  0.16677416035E+03  0.12509000000E+03 0.  0.
<mgrwt>
<rscale>  2 0.45877729E+03</rscale>
<asrwt>0</asrwt>
<pdfrwt beam="1">  1       21 0.27635110E-01 0.45877729E+03</pdfrwt>
<pdfrwt beam="2">  1       21 0.41177959E-01 0.45877729E+03</pdfrwt>
<totfact> 0.65601369E+04</totfact>
</mgrwt>
</event>
<event>
 7    0  0.4691878E-002  0.4592319E+03  0.7546771E-02  0.1025004E+00
         21   -1    0    0  502  501  0.00000000000E+00  0.00000000000E+00  0.67355600173E+03  0.67355600173E+03  0.00000000000E+00 0.  1.
         21   -1    0    0  501  502 -0.00000000000E+00 -0.00000000000E+00 -0.78276331663E+02  0.78276331663E+02  0.00000000000E+00 0.  1.
      99926    2    1    2    0    0  0.00000000000E+00  0.00000000000E+00  0.59527967007E+03  0.75183233340E+03  0.45923193698E+03 0.  0.
      99925    2    3    3    0    0 -0.61532140340E+02 -0.87883510307E+02  0.29661721131E+03  0.41072166506E+03  0.26306045014E+03 0.  0.
         25    1    4    4    0    0 -0.14297894087E+02 -0.40952330650E+02  0.89666019879E+02  0.15990317815E+03  0.12509000000E+03 0.  0.
         25    1    3    3    0    0  0.61532140340E+02  0.87883510307E+02  0.29866245876E+03  0.34111066834E+03  0.12509000000E+03 0.  0.
         25    1    4    4    0    0 -0.47234246253E+02 -0.46931179657E+02  0.20695119143E+03  0.25081848691E+03  0.12509000000E+03 0.  0.
<mgrwt>
<rscale>  2 0.45923194E+03</rscale>
<asrwt>0</asrwt>
<pdfrwt beam="1">  1       21 0.99052350E-01 0.45923194E+03</pdfrwt>
<pdfrwt beam="2">  1       21 0.11511226E-01 0.45923194E+03</pdfrwt>
<totfact> 0.48542746E+04</totfact>
</mgrwt>
</event>
<event>
 7    0  0.4691878E-002  0.4560375E+03  0.7546771E-02  0.1025937E+00
         21   -1    0    0  502  501  0.00000000000E+00  0.00000000000E+00  0.92970726084E+02  0.92970726084E+02  0.00000000000E+00 0. -1.
         21   -1    0    0  501  502 -0.00000000000E+00 -0.00000000000E+00 -0.55923568978E+03  0.55923568978E+03  0.00000000000E+00 0. -1.
      99926    2    1    2    0    0  0.00000000000E+00  0.35527136788E-14 -0.46626496369E+03  0.65220641586E+03  0.45603749026E+03 0.  0.
      99925    2    3    3    0    0 -0.35989222029E+02 -0.30707767458E+02 -0.14432582330E+03  0.30359415374E+03  0.26287121529E+03 0.  0.
         25    1    4    4    0    0 -0.42836568675E+02 -0.42303976764E+02 -0.96166459162E+02  0.16887893307E+03  0.12509000000E+03 0.  0.
         25    1    3    3    0    0  0.35989222029E+02  0.30707767458E+02 -0.32193914040E+03  0.34861226212E+03  0.12509000000E+03 0.  0.
         25    1    4    4    0    0  0.68473466459E+01  0.11596209306E+02 -0.48159364137E+02  0.13471522067E+03  0.12509000000E+03 0.  0.
<mgrwt>
<rscale>  2 0.45603749E+03</rscale>
<asrwt>0</asrwt>
<pdfrwt beam="1">  1       21 0.13672165E-01 0.45603749E+03</pdfrwt>
<pdfrwt beam="2">  1       21 0.82240544E-01 0.45603749E+03</pdfrwt>
<totfact> 0.55122043E+04</totfact>
</mgrwt>
</event>
<event>
 7    0  0.4691878E-002  0.4489405E+03  0.7546771E-02  0.1028038E+00
         21   -1    0    0  502  501  0.00000000000E+00  0.00000000000E+00  0.29098641756E+03  0.29098641756E+03  0.00000000000E+00 0.  1.
         21   -1    0    0  501  502 -0.00000000000E+00 -0.00000000000E+00 -0.17315890928E+03  0.17315890928E+03  0.00000000000E+00 0.  1.
      99926    2    1    2    0    0  0.00000000000E+00  0.00000000000E+00  0.11782750828E+03  0.46414532683E+03  0.44894048906E+03 0.  0.
      99925    2    3    3    0    0  0.83945645444E+02  0.31817924854E+02  0.13578386573E+03  0.30913180935E+03  0.26280404416E+03 0.  0.
         25    1    4    4    0    0  0.54473660282E+02 -0.22309014075E+02  0.65853190226E+02  0.15313138978E+03  0.12509000000E+03 0.  0.
         25    1    4    4    0    0  0.29471985161E+02  0.54126938929E+02  0.69930675506E+02  0.15600041956E+03  0.12509000000E+03 0.  0.
         25    1    3    3    0    0 -0.83945645444E+02 -0.31817924854E+02 -0.17956357455E+02  0.15501351749E+03  0.12509000000E+03 0.  0.
<mgrwt>
<rscale>  2 0.44894049E+03</rscale>
<asrwt>0</asrwt>
<pdfrwt beam="1">  1       21 0.42792120E-01 0.44894049E+03</pdfrwt>
<pdfrwt beam="2">  1       21 0.25464545E-01 0.44894049E+03</pdfrwt>
<totfact> 0.71236799E+04</totfact>
</mgrwt>
</event>
<event>
 7    0  0.4691878E-002  0.4540635E+03  0.7546771E-02  0.1026517E+00
         21   -1    0    0  502  501  0.00000000000E+00  0.00000000000E+00  0.32907052269E+04  0.32907052269E+04  0.00000000000E+00 0.  1.
         21   -1    0    0  501  502 -0.00000000000E+00 -0.00000000000E+00 -0.15663337098E+02  0.15663337098E+02  0.00000000000E+00 0.  1.
      99926    2    1    2    0    0 -0.14210854715E-13 -0.14210854715E-13  0.32750418898E+04  0.33063685640E+04  0.45406354295E+03 0.  0.
      99925    2    3    3    0    0  0.72261304034E+02  0.84197785932E+02  0.19508788499E+04  0.19716902404E+04  0.26329290490E+03 0.  0.
         25    1    4    4    0    0  0.21180792954E+02  0.86601931707E+00  0.89197176816E+03  0.90094978733E+03  0.12509000000E+03 0.  0.
         25    1    4    4    0    0  0.51080511081E+02  0.83331766615E+02  0.10589070818E+04  0.10707404531E+04  0.12509000000E+03 0.  0.
         25    1    3    3    0    0 -0.72261304034E+02 -0.84197785932E+02  0.13241630399E+04  0.13346783236E+04  0.12509000000E+03 0.  0.
<mgrwt>
<rscale>  2 0.45406354E+03</rscale>
<asrwt>0</asrwt>
<pdfrwt beam="1">  1       21 0.48392676E+00 0.45406354E+03</pdfrwt>
<pdfrwt beam="2">  1       21 0.23034342E-02 0.45406354E+03</pdfrwt>
<totfact> 0.18857446E+03</totfact>
</mgrwt>
</event>
<event>
 7    0  0.4691878E-002  0.4536267E+03  0.7546771E-02  0.1026646E+00
         21   -1    0    0  502  501  0.00000000000E+00  0.00000000000E+00  0.32411069369E+03  0.32411069369E+03  0.00000000000E+00 0. -1.
         21   -1    0    0  501  502 -0.00000000000E+00 -0.00000000000E+00 -0.15872449191E+03  0.15872449191E+03  0.00000000000E+00 0. -1.
      99926    2    1    2    0    0  0.00000000000E+00  0.00000000000E+00  0.16538620178E+03  0.48283518561E+03  0.45362674163E+03 0.  0.
      99925    2    3    3    0    0  0.73972687011E+02 -0.80959944186E+02  0.80648518049E+02  0.29614170921E+03  0.26300048951E+03 0.  0.
         25    1    4    4    0    0  0.71869087896E+02 -0.29880649240E+02  0.22531123158E+02  0.14904086220E+03  0.12509000000E+03 0.  0.
         25    1    4    4    0    0  0.21035991149E+01 -0.51079294946E+02  0.58117394891E+02  0.14710084701E+03  0.12509000000E+03 0.  0.
         25    1    3    3    0    0 -0.73972687011E+02  0.80959944186E+02  0.84737683728E+02  0.18669347640E+03  0.12509000000E+03 0.  0.
<mgrwt>
<rscale>  2 0.45362674E+03</rscale>
<asrwt>0</asrwt>
<pdfrwt beam="1">  1       21 0.47663337E-01 0.45362674E+03</pdfrwt>
<pdfrwt beam="2">  1       21 0.23341837E-01 0.45362674E+03</pdfrwt>
<totfact> 0.67224132E+04</totfact>
</mgrwt>
</event>
<event>
 7    0  0.4691878E-002  0.4563248E+03  0.7546771E-02  0.1025853E+00
         21   -1    0    0  502  501  0.00000000000E+00  0.00000000000E+00  0.68551344318E+02  0.68551344318E+02  0.00000000000E+00 0. -1.
         21   -1    0    0  501  502 -0.00000000000E+00 -0.00000000000E+00 -0.75940267102E+03  0.75940267102E+03  0.00000000000E+00 0. -1.
      99926    2    1    2    0    0  0.00000000000E+00  0.00000000000E+00 -0.69085132670E+03  0.82795401534E+03  0.45632477021E+03 0.  0.
      99925    2    3    3    0    0  0.32002395661E+02 -0.55283806899E+02 -0.60647598163E+03  0.66410298669E+03  0.26294335512E+03 0.  0.
         25    1    3    3    0    0 -0.32002395661E+02  0.55283806899E+02 -0.84375345070E+02  0.16385102865E+03  0.12509000000E+03 0.  0.
         25    1    4    4    0    0 -0.69486294645E+01  0.49641422561E+01 -0.25367061139E+03  0.28296503908E+03  0.12509000000E+03 0.  0.
         25    1    4    4    0    0  0.38951025125E+02 -0.60247949156E+02 -0.35280537024E+03  0.38113794760E+03  0.12509000000E+03 0.  0.
<mgrwt>
<rscale>  2 0.45632477E+03</rscale>
<asrwt>0</asrwt>
<pdfrwt beam="1">  1       21 0.10081079E-01 0.45632477E+03</pdfrwt>
<pdfrwt beam="2">  1       21 0.11167687E+00 0.45632477E+03</pdfrwt>
<totfact> 0.45962623E+04</totfact>
</mgrwt>
</event>
<event>
 7    0  0.4691878E-002  0.4555185E+03  0.7546771E-02  0.1026089E+00
         21   -1    0    0  502  501  0.00000000000E+00  0.00000000000E+00  0.31627902172E+03  0.31627902172E+03  0.00000000000E+00 0. -1.
         21   -1    0    0  501  502 -0.00000000000E+00 -0.00000000000E+00 -0.16401426115E+03  0.16401426115E+03  0.00000000000E+00 0. -1.
      99926    2    1    2    0    0  0.00000000000E+00  0.00000000000E+00  0.15226476057E+03  0.48029328286E+03  0.45551847410E+03 0.  0.
      99925    2    3    3    0    0 -0.10189535927E+03 -0.30003464495E+02  0.13833004528E+03  0.31559793832E+03  0.26302848729E+03 0.  0.
         25    1    4    4    0    0 -0.50930925287E+02 -0.52180387045E+02  0.52408096845E+02  0.15398333890E+03  0.12509000000E+03 0.  0.
         25    1    3    3    0    0  0.10189535927E+03  0.30003464495E+02  0.13934715296E+02  0.16469534454E+03  0.12509000000E+03 0.  0.
         25    1    4    4    0    0 -0.50964433985E+02  0.22176922550E+02  0.85921948431E+02  0.16161459943E+03  0.12509000000E+03 0.  0.
<mgrwt>
<rscale>  2 0.45551847E+03</rscale>
<asrwt>0</asrwt>
<pdfrwt beam="1">  1       21 0.46511621E-01 0.45551847E+03</pdfrwt>
<pdfrwt beam="2">  1       21 0.24119744E-01 0.45551847E+03</pdfrwt>
<totfact> 0.66405053E+04</totfact>
</mgrwt>
</event>
<event>
 7    0  0.4691878E-002  0.4355983E+03  0.7546771E-02  0.1032106E+00
         21   -1    0    0  502  501  0.00000000000E+00  0.00000000000E+00  0.62732143932E+03  0.62732143932E+03  0.00000000000E+00 0. -1.
         21   -1    0    0  501  502 -0.00000000000E+00 -0.00000000000E+00 -0.75617497858E+02  0.75617497858E+02  0.00000000000E+00 0. -1.
      99926    2    1    2    0    0  0.00000000000E+00  0.00000000000E+00  0.55170394146E+03  0.70293893718E+03  0.43559833606E+03 0.  0.
      99925    2    3    3    0    0  0.14165892437E+02 -0.84907305011E+02  0.41392746114E+03  0.49790286820E+03  0.26298555116E+03 0.  0.
         25    1    4    4    0    0  0.84392669417E+01 -0.58728707470E+01  0.15308368449E+03  0.19795917355E+03  0.12509000000E+03 0.  0.
         25    1    3    3    0    0 -0.14165892437E+02  0.84907305011E+02  0.13777648032E+03  0.20503606898E+03  0.12509000000E+03 0.  0.
         25    1    4    4    0    0  0.57266254955E+01 -0.79034434264E+02  0.26084377665E+03  0.29994369464E+03  0.12509000000E+03 0.  0.
<mgrwt>
<rscale>  2 0.43559834E+03</rscale>
<asrwt>0</asrwt>
<pdfrwt beam="1">  1       21 0.92253150E-01 0.43559834E+03</pdfrwt>
<pdfrwt beam="2">  1       21 0.11120221E-01 0.43559834E+03</pdfrwt>
<totfact> 0.61627102E+04</totfact>
</mgrwt>
</event>
<event>
 7    0  0.4691878E-002  0.4598983E+03  0.7546771E-02  0.1024811E+00
         21   -1    0    0  502  501  0.00000000000E+00  0.00000000000E+00  0.95296576427E+02  0.95296576427E+02  0.00000000000E+00 0.  1.
         21   -1    0    0  501  502 -0.00000000000E+00 -0.00000000000E+00 -0.55486380357E+03  0.55486380357E+03  0.00000000000E+00 0.  1.
      99926    2    1    2    0    0  0.00000000000E+00  0.00000000000E+00 -0.45956722714E+03  0.65016038000E+03  0.45989834035E+03 0.  0.
      99925    2    3    3    0    0 -0.34293497011E+02 -0.73081719687E+02 -0.16717782102E+03  0.32205055905E+03  0.26315614576E+03 0.  0.
         25    1    4    4    0    0 -0.15449368636E+02  0.56032083117E+01 -0.81381750592E+02  0.15013519362E+03  0.12509000000E+03 0.  0.
         25    1    3    3    0    0  0.34293497011E+02  0.73081719687E+02 -0.29238940612E+03  0.32810982095E+03  0.12509000000E+03 0.  0.
         25    1    4    4    0    0 -0.18844128375E+02 -0.78684927999E+02 -0.85796070427E+02  0.17191536542E+03  0.12509000000E+03 0.  0.
<mgrwt>
<rscale>  2 0.45989834E+03</rscale>
<asrwt>0</asrwt>
<pdfrwt beam="1">  1       21 0.14014203E-01 0.45989834E+03</pdfrwt>
<pdfrwt beam="2">  1       21 0.81597615E-01 0.45989834E+03</pdfrwt>
<totfact> 0.53591047E+04</totfact>
</mgrwt>
</event>
<event>
 7    0  0.4691878E-002  0.4466521E+03  0.7546771E-02  0.1028725E+00
         21   -1    0    0  502  501  0.00000000000E+00  0.00000000000E+00  0.11997082967E+04  0.11997082967E+04  0.00000000000E+00 0.  1.
         21   -1    0    0  501  502 -0.00000000000E+00 -0.00000000000E+00 -0.41572207938E+02  0.41572207938E+02  0.00000000000E+00 0.  1.
      99926    2    1    2    0    0  0.14210854715E-13  0.00000000000E+00  0.11581360888E+04  0.12412805046E+04  0.44665209179E+03 0.  0.
      99925    2    3    3    0    0 -0.91934758036E+02 -0.58586025489E+01  0.59423010514E+03  0.65636701580E+03  0.26310058650E+03 0.  0.
         25    1    4    4    0    0 -0.84243959430E+02 -0.74575253674E+01  0.28118695110E+03  0.31916495571E+03  0.12509000000E+03 0.  0.
         25    1    3    3    0    0  0.91934758036E+02  0.58586025489E+01  0.56390598362E+03  0.58491348883E+03  0.12509000000E+03 0.  0.
         25    1    4    4    0    0 -0.76907986059E+01  0.15989228185E+01  0.31304315404E+03  0.33720206009E+03  0.12509000000E+03 0.  0.
<mgrwt>
<rscale>  2 0.44665209E+03</rscale>
<asrwt>0</asrwt>
<pdfrwt beam="1">  1       21 0.17642767E+00 0.44665209E+03</pdfrwt>
<pdfrwt beam="2">  1       21 0.61135608E-02 0.44665209E+03</pdfrwt>
<totfact> 0.32959172E+04</totfact>
</mgrwt>
</event>
<event>
 7    0  0.4691878E-002  0.4598986E+03  0.7546771E-02  0.1024811E+00
         21   -1    0    0  502  501  0.00000000000E+00  0.00000000000E+00  0.33412535167E+03  0.33412535167E+03  0.00000000000E+00 0. -1.
         21   -1    0    0  501  502 -0.00000000000E+00 -0.00000000000E+00 -0.15825401744E+03  0.15825401744E+03  0.00000000000E+00 0. -1.
      99926    2    1    2    0    0  0.13322676296E-14 -0.14210854715E-13  0.17587133424E+03  0.49237936911E+03  0.45989859417E+03 0.  0.
      99925    2    3    3    0    0  0.28070437409E+01 -0.93896159705E+02  0.18608836549E+03  0.33561118315E+03  0.26302398784E+03 0.  0.
         25    1    4    4    0    0 -0.31482077540E+02 -0.28434569874E+02  0.10829887808E+03  0.17080925345E+03  0.12509000000E+03 0.  0.
         25    1    3    3    0    0 -0.28070437409E+01  0.93896159705E+02 -0.10217031255E+02  0.15676818596E+03  0.12509000000E+03 0.  0.
         25    1    4    4    0    0  0.34289121281E+02 -0.65461589831E+02  0.77789487416E+02  0.16480192970E+03  0.12509000000E+03 0.  0.
<mgrwt>
<rscale>  2 0.45989859E+03</rscale>
<asrwt>0</asrwt>
<pdfrwt beam="1">  1       21 0.49136081E-01 0.45989859E+03</pdfrwt>
<pdfrwt beam="2">  1       21 0.23272650E-01 0.45989859E+03</pdfrwt>
<totfact> 0.63311300E+04</totfact>
</mgrwt>
</event>
<event>
 7    0  0.4691878E-002  0.4636839E+03  0.7546771E-02  0.1023718E+00
         21   -1    0    0  502  501  0.00000000000E+00  0.00000000000E+00  0.45260875314E+03  0.45260875314E+03  0.00000000000E+00 0.  1.
         21   -1    0    0  501  502 -0.00000000000E+00 -0.00000000000E+00 -0.11875753402E+03  0.11875753402E+03  0.00000000000E+00 0.  1.
      99926    2    1    2    0    0  0.00000000000E+00  0.00000000000E+00  0.33385121912E+03  0.57136628717E+03  0.46368394150E+03 0.  0.
      99925    2    3    3    0    0 -0.50996464455E+02 -0.10781192078E+03  0.23423093408E+03  0.37187754327E+03  0.26306791340E+03 0.  0.
         25    1    4    4    0    0  0.15097333715E+02 -0.59306524574E+02  0.11069069864E+03  0.17789078731E+03  0.12509000000E+03 0.  0.
         25    1    4    4    0    0 -0.66093798170E+02 -0.48505396210E+02  0.12354023544E+03  0.19398675597E+03  0.12509000000E+03 0.  0.
         25    1    3    3    0    0  0.50996464455E+02  0.10781192078E+03  0.99620285035E+02  0.19948874389E+03  0.12509000000E+03 0.  0.
<mgrwt>
<rscale>  2 0.46368394E+03</rscale>
<asrwt>0</asrwt>
<pdfrwt beam="1">  1       21 0.66560110E-01 0.46368394E+03</pdfrwt>
<pdfrwt beam="2">  1       21 0.17464343E-01 0.46368394E+03</pdfrwt>
<totfact> 0.56495612E+04</totfact>
</mgrwt>
</event>
<event>
 7    0  0.4691878E-002  0.4586966E+03  0.7546771E-02  0.1025160E+00
         21   -1    0    0  502  501  0.00000000000E+00  0.00000000000E+00  0.61862119561E+02  0.61862119561E+02  0.00000000000E+00 0.  1.
         21   -1    0    0  501  502 -0.00000000000E+00 -0.00000000000E+00 -0.85028846312E+03  0.85028846312E+03  0.00000000000E+00 0.  1.
      99926    2    1    2    0    0  0.00000000000E+00 -0.14210854715E-13 -0.78842634356E+03  0.91215058268E+03  0.45869661681E+03 0.  0.
      99925    2    3    3    0    0  0.18076961517E+02  0.96747946072E+02 -0.61898914943E+03  0.67967819193E+03  0.26292191972E+03 0.  0.
         25    1    4    4    0    0  0.44754301040E+02  0.69093861107E+02 -0.31985073907E+03  0.35316980687E+03  0.12509000000E+03 0.  0.
         25    1    4    4    0    0 -0.26677339523E+02  0.27654084965E+02 -0.29913841037E+03  0.32650838506E+03  0.12509000000E+03 0.  0.
         25    1    3    3    0    0 -0.18076961517E+02 -0.96747946072E+02 -0.16943719413E+03  0.23247239075E+03  0.12509000000E+03 0.  0.
<mgrwt>
<rscale>  2 0.45869662E+03</rscale>
<asrwt>0</asrwt>
<pdfrwt beam="1">  1       21 0.90973703E-02 0.45869662E+03</pdfrwt>
<pdfrwt beam="2">  1       21 0.12504242E+00 0.45869662E+03</pdfrwt>
<totfact> 0.41498600E+04</totfact>
</mgrwt>
</event>
<event>
 7    0  0.4691878E-002  0.4412279E+03  0.7546771E-02  0.1030371E+00
         21   -1    0    0  502  501  0.00000000000E+00  0.00000000000E+00  0.73713022242E+02  0.73713022242E+02  0.00000000000E+00 0.  1.
         21   -1    0    0  501  502 -0.00000000000E+00 -0.00000000000E+00 -0.66027017845E+03  0.66027017845E+03  0.00000000000E+00 0.  1.
      99926    2    1    2    0    0 -0.71054273576E-14 -0.71054273576E-14 -0.58655715621E+03  0.73398320069E+03  0.44122787922E+03 0.  0.
      99925    2    3    3    0    0 -0.52793112387E+02  0.63834437328E+02 -0.28182742512E+03  0.39432209722E+03  0.26306134399E+03 0.  0.
         25    1    3    3    0    0  0.52793112387E+02 -0.63834437328E+02 -0.30472973108E+03  0.33966110347E+03  0.12509000000E+03 0.  0.
         25    1    4    4    0    0  0.55869155853E+01  0.49626623676E+02 -0.11325621855E+03  0.17597867639E+03  0.12509000000E+03 0.  0.
         25    1    4    4    0    0 -0.58380027973E+02  0.14207813652E+02 -0.16857120658E+03  0.21834342084E+03  0.12509000000E+03 0.  0.
<mgrwt>
<rscale>  2 0.44122788E+03</rscale>
<asrwt>0</asrwt>
<pdfrwt beam="1">  1       21 0.10840150E-01 0.44122788E+03</pdfrwt>
<pdfrwt beam="2">  1       21 0.97098556E-01 0.44122788E+03</pdfrwt>
<totfact> 0.57025053E+04</totfact>
</mgrwt>
</event>
<event>
 7    0  0.4691878E-002  0.4573178E+03  0.7546771E-02  0.1025562E+00
         21   -1    0    0  502  501  0.00000000000E+00  0.00000000000E+00  0.11068370594E+04  0.11068370594E+04  0.00000000000E+00 0.  1.
         21   -1    0    0  501  502 -0.00000000000E+00 -0.00000000000E+00 -0.47238113424E+02  0.47238113424E+02  0.00000000000E+00 0.  1.
      99926    2    1    2    0    0  0.71054273576E-14  0.00000000000E+00  0.10595989460E+04  0.11540751728E+04  0.45731780876E+03 0.  0.
      99925    2    3    3    0    0 -0.53477327246E+02 -0.99103658930E+02  0.72803497048E+03  0.78223711978E+03  0.26301831415E+03 0.  0.
         25    1    4    4    0    0  0.12208521499E+02 -0.51457186601E+02  0.38286838847E+03  0.40624204736E+03  0.12509000000E+03 0.  0.
         25    1    3    3    0    0  0.53477327246E+02  0.99103658930E+02  0.33156397547E+03  0.37183805302E+03  0.12509000000E+03 0.  0.
         25    1    4    4    0    0 -0.65685848745E+02 -0.47646472329E+02  0.34516658201E+03  0.37599507242E+03  0.12509000000E+03 0.  0.
<mgrwt>
<rscale>  2 0.45731781E+03</rscale>
<asrwt>0</asrwt>
<pdfrwt beam="1">  1       21 0.16277014E+00 0.45731781E+03</pdfrwt>
<pdfrwt beam="2">  1       21 0.69467820E-02 0.45731781E+03</pdfrwt>
<totfact> 0.33045629E+04</totfact>
</mgrwt>
</event>
<event>
 7    0  0.4691878E-002  0.4074170E+03  0.7546771E-02  0.1041241E+00
         21   -1    0    0  502  501  0.00000000000E+00  0.00000000000E+00  0.10281421830E+03  0.10281421830E+03  0.00000000000E+00 0.  1.
         21   -1    0    0  501  502 -0.00000000000E+00 -0.00000000000E+00 -0.40361299472E+03  0.40361299472E+03  0.00000000000E+00 0.  1.
      99926    2    1    2    0    0 -0.35527136788E-14  0.00000000000E+00 -0.30079877642E+03  0.50642721302E+03  0.40741700773E+03 0.  0.
      99925    2    3    3    0    0 -0.18366533065E+02  0.49775946845E+02 -0.22877417543E+03  0.35264156457E+03  0.26306553422E+03 0.  0.
         25    1    4    4    0    0 -0.48909101185E+02  0.24320513048E+02 -0.10473566611E+03  0.17204841002E+03  0.12509000000E+03 0.  0.
         25    1    4    4    0    0  0.30542568120E+02  0.25455433797E+02 -0.12403850931E+03  0.18059315455E+03  0.12509000000E+03 0.  0.
         25    1    3    3    0    0  0.18366533065E+02 -0.49775946845E+02 -0.72024600991E+02  0.15378564845E+03  0.12509000000E+03 0.  0.
<mgrwt>
<rscale>  2 0.40741701E+03</rscale>
<asrwt>0</asrwt>
<pdfrwt beam="1">  1       21 0.15119738E-01 0.40741701E+03</pdfrwt>
<pdfrwt beam="2">  1       21 0.59354852E-01 0.40741701E+03</pdfrwt>
<totfact> 0.96331949E+04</totfact>
</mgrwt>
</event>
<event>
 7    0  0.4691878E-002  0.4640028E+03  0.7546771E-02  0.1023627E+00
         21   -1    0    0  502  501  0.00000000000E+00  0.00000000000E+00  0.77208412128E+03  0.77208412128E+03  0.00000000000E+00 0.  1.
         21   -1    0    0  501  502 -0.00000000000E+00 -0.00000000000E+00 -0.69713465083E+02  0.69713465083E+02  0.00000000000E+00 0.  1.
      99926    2    1    2    0    0  0.00000000000E+00  0.00000000000E+00  0.70237065620E+03  0.84179758636E+03  0.46400284236E+03 0.  0.
      99925    2    3    3    0    0 -0.25227628768E+02 -0.11737877707E+03  0.47021570773E+03  0.55204314074E+03  0.26312469835E+03 0.  0.
         25    1    4    4    0    0  0.27210549781E+02 -0.47193190527E+02  0.22768023160E+03  0.26543060715E+03  0.12509000000E+03 0.  0.
         25    1    4    4    0    0 -0.52438178549E+02 -0.70185586546E+02  0.24253547613E+03  0.28661253359E+03  0.12509000000E+03 0.  0.
         25    1    3    3    0    0  0.25227628768E+02  0.11737877707E+03  0.23215494847E+03  0.28975444562E+03  0.12509000000E+03 0.  0.
<mgrwt>
<rscale>  2 0.46400284E+03</rscale>
<asrwt>0</asrwt>
<pdfrwt beam="1">  1       21 0.11354178E+00 0.46400284E+03</pdfrwt>
<pdfrwt beam="2">  1       21 0.10251981E-01 0.46400284E+03</pdfrwt>
<totfact> 0.42710987E+04</totfact>
</mgrwt>
</event>
<event>
 7    0  0.4691878E-002  0.4636173E+03  0.7546771E-02  0.1023737E+00
         21   -1    0    0  502  501  0.00000000000E+00  0.00000000000E+00  0.51927683936E+03  0.51927683936E+03  0.00000000000E+00 0. -1.
         21   -1    0    0  501  502 -0.00000000000E+00 -0.00000000000E+00 -0.10348091688E+03  0.10348091688E+03  0.00000000000E+00 0. -1.
      99926    2    1    2    0    0 -0.66613381478E-15  0.00000000000E+00  0.41579592248E+03  0.62275775624E+03  0.46361727082E+03 0.  0.
      99925    2    3    3    0    0 -0.11709582500E+01 -0.11889384771E+03  0.22911632902E+03  0.36852578169E+03  0.26302061018E+03 0.  0.
         25    1    3    3    0    0  0.11709582500E+01  0.11889384771E+03  0.18667959346E+03  0.25423197455E+03  0.12509000000E+03 0.  0.
         25    1    4    4    0    0 -0.25508338657E+02 -0.70942380272E+02  0.15707049817E+03  0.21448110909E+03  0.12509000000E+03 0.  0.
         25    1    4    4    0    0  0.24337380407E+02 -0.47951467438E+02  0.72045830851E+02  0.15404467260E+03  0.12509000000E+03 0.  0.
<mgrwt>
<rscale>  2 0.46361727E+03</rscale>
<asrwt>0</asrwt>
<pdfrwt beam="1">  1       21 0.76364240E-01 0.46361727E+03</pdfrwt>
<pdfrwt beam="2">  1       21 0.15217782E-01 0.46361727E+03</pdfrwt>
<totfact> 0.53560294E+04</totfact>
</mgrwt>
</event>
<event>
 7    0  0.4691878E-002  0.4472682E+03  0.7546771E-02  0.1028540E+00
         21   -1    0    0  502  501  0.00000000000E+00  0.00000000000E+00  0.23339279762E+03  0.23339279762E+03  0.00000000000E+00 0.  1.
         21   -1    0    0  501  502 -0.00000000000E+00 -0.00000000000E+00 -0.21428345081E+03  0.21428345081E+03  0.00000000000E+00 0.  1.
      99926    2    1    2    0    0  0.00000000000E+00  0.00000000000E+00  0.19109346818E+02  0.44767624843E+03  0.44726821514E+03 0.  0.
      99925    2    3    3    0    0 -0.33045332407E+02  0.33056629083E+02  0.10708089743E+03  0.28776615952E+03  0.26297967459E+03 0.  0.
         25    1    3    3    0    0  0.33045332407E+02 -0.33056629083E+02 -0.87971550610E+02  0.15991008892E+03  0.12509000000E+03 0.  0.
         25    1    4    4    0    0  0.13361436607E+02  0.41724312445E+02  0.64837014249E+02  0.14754928924E+03  0.12509000000E+03 0.  0.
         25    1    4    4    0    0 -0.46406769013E+02 -0.86676833618E+01  0.42243883179E+02  0.14021687028E+03  0.12509000000E+03 0.  0.
<mgrwt>
<rscale>  2 0.44726822E+03</rscale>
<asrwt>0</asrwt>
<pdfrwt beam="1">  1       21 0.34322470E-01 0.44726822E+03</pdfrwt>
<pdfrwt beam="2">  1       21 0.31512272E-01 0.44726822E+03</pdfrwt>
<totfact> 0.73517473E+04</totfact>
</mgrwt>
</event>
<event>
 7    0  0.4691878E-002  0.4725368E+03  0.7546771E-02  0.1021207E+00
         21   -1    0    0  502  501  0.00000000000E+00  0.00000000000E+00  0.23933727539E+03  0.23933727539E+03  0.00000000000E+00 0.  1.
         21   -1    0    0  501  502 -0.00000000000E+00 -0.00000000000E+00 -0.23323890749E+03  0.23323890749E+03  0.00000000000E+00 0.  1.
      99926    2    1    2    0    0  0.00000000000E+00  0.14210854715E-13  0.60983679009E+01  0.47257618287E+03  0.47253683299E+03 0.  0.
      99925    2    3    3    0    0 -0.94604315223E+02  0.85479516232E+02  0.23014442919E+02  0.29315938921E+03  0.26297535768E+03 0.  0.
         25    1    3    3    0    0  0.94604315223E+02 -0.85479516232E+02 -0.16916075018E+02  0.17941679366E+03  0.12509000000E+03 0.  0.
         25    1    4    4    0    0 -0.51605434069E+02  0.75474032638E+01 -0.10793883272E+02  0.13595624347E+03  0.12509000000E+03 0.  0.
         25    1    4    4    0    0 -0.42998881154E+02  0.77932112969E+02  0.33808326191E+02  0.15720314574E+03  0.12509000000E+03 0.  0.
<mgrwt>
<rscale>  2 0.47253683E+03</rscale>
<asrwt>0</asrwt>
<pdfrwt beam="1">  1       21 0.35196658E-01 0.47253683E+03</pdfrwt>
<pdfrwt beam="2">  1       21 0.34299839E-01 0.47253683E+03</pdfrwt>
<totfact> 0.58633025E+04</totfact>
</mgrwt>
</event>
<event>
 7    0  0.4691878E-002  0.4426458E+03  0.7546771E-02  0.1029938E+00
         21   -1    0    0  502  501  0.00000000000E+00  0.00000000000E+00  0.29858006401E+02  0.29858006401E+02  0.00000000000E+00 0.  1.
         21   -1    0    0  501  502 -0.00000000000E+00 -0.00000000000E+00 -0.16405589477E+04  0.16405589477E+04  0.00000000000E+00 0.  1.
      99926    2    1    2    0    0 -0.14210854715E-13  0.00000000000E+00 -0.16107009413E+04  0.16704169541E+04  0.44264577062E+03 0.  0.
      99925    2    3    3    0    0 -0.54239519453E+02  0.24696161735E+02 -0.13335413579E+04  0.13605512273E+04  0.26308793781E+03 0.  0.
         25    1    4    4    0    0 -0.66315260882E+02 -0.38389774497E+00 -0.69121229443E+03  0.70556346652E+03  0.12509000000E+03 0.  0.
         25    1    4    4    0    0  0.12075741430E+02  0.25080059480E+02 -0.64232906342E+03  0.65498776075E+03  0.12509000000E+03 0.  0.
         25    1    3    3    0    0  0.54239519453E+02 -0.24696161735E+02 -0.27715958346E+03  0.30986572686E+03  0.12509000000E+03 0.  0.
<mgrwt>
<rscale>  2 0.44264577E+03</rscale>
<asrwt>0</asrwt>
<pdfrwt beam="1">  1       21 0.43908836E-02 0.44264577E+03</pdfrwt>
<pdfrwt beam="2">  1       21 0.24125865E+00 0.44264577E+03</pdfrwt>
<totfact> 0.21912081E+04</totfact>
</mgrwt>
</event>
<event>
 7    0  0.4691878E-002  0.4616698E+03  0.7546771E-02  0.1024298E+00
         21   -1    0    0  502  501  0.00000000000E+00  0.00000000000E+00  0.25520793933E+03  0.25520793933E+03  0.00000000000E+00 0. -1.
         21   -1    0    0  501  502 -0.00000000000E+00 -0.00000000000E+00 -0.20878959383E+03  0.20878959383E+03  0.00000000000E+00 0. -1.
      99926    2    1    2    0    0  0.00000000000E+00 -0.14210854715E-13  0.46418345499E+02  0.46399753316E+03  0.46166984738E+03 0.  0.
      99925    2    3    3    0    0  0.81532350153E+02  0.82798564045E+02  0.56046801332E+02  0.29299068654E+03  0.26305735521E+03 0.  0.
         25    1    4    4    0    0  0.51002825443E+02  0.19198631170E+02 -0.59331995116E+01  0.13657447272E+03  0.12509000000E+03 0.  0.
         25    1    3    3    0    0 -0.81532350153E+02 -0.82798564045E+02 -0.96284558327E+01  0.17100684662E+03  0.12509000000E+03 0.  0.
         25    1    4    4    0    0  0.30529524710E+02  0.63599932875E+02  0.61980000844E+02  0.15641621382E+03  0.12509000000E+03 0.  0.
<mgrwt>
<rscale>  2 0.46166985E+03</rscale>
<asrwt>0</asrwt>
<pdfrwt beam="1">  1       21 0.37530579E-01 0.46166985E+03</pdfrwt>
<pdfrwt beam="2">  1       21 0.30704352E-01 0.46166985E+03</pdfrwt>
<totfact> 0.64395876E+04</totfact>
</mgrwt>
</event>
<event>
 7    0  0.4691878E-002  0.4546502E+03  0.7546771E-02  0.1026344E+00
         21   -1    0    0  502  501  0.00000000000E+00  0.00000000000E+00  0.13587830961E+03  0.13587830961E+03  0.00000000000E+00 0. -1.
         21   -1    0    0  501  502 -0.00000000000E+00 -0.00000000000E+00 -0.38031608197E+03  0.38031608197E+03  0.00000000000E+00 0. -1.
      99926    2    1    2    0    0  0.00000000000E+00 -0.88817841970E-15 -0.24443777235E+03  0.51619439158E+03  0.45465022308E+03 0.  0.
      99925    2    3    3    0    0 -0.98512682507E+02 -0.66051653909E+01 -0.90834475508E+02  0.29485786562E+03  0.26256786199E+03 0.  0.
         25    1    4    4    0    0 -0.68558795789E+02  0.81752724706E+01 -0.82795955556E+02  0.16513576813E+03  0.12509000000E+03 0.  0.
         25    1    3    3    0    0  0.98512682507E+02  0.66051653909E+01 -0.15360329685E+03  0.22133652597E+03  0.12509000000E+03 0.  0.
         25    1    4    4    0    0 -0.29953886717E+02 -0.14780437862E+02 -0.80385199521E+01  0.12972209748E+03  0.12509000000E+03 0.  0.
<mgrwt>
<rscale>  2 0.45465022E+03</rscale>
<asrwt>0</asrwt>
<pdfrwt beam="1">  1       21 0.19982105E-01 0.45465022E+03</pdfrwt>
<pdfrwt beam="2">  1       21 0.55928834E-01 0.45465022E+03</pdfrwt>
<totfact> 0.64325637E+04</totfact>
</mgrwt>
</event>
<event>
 7    0  0.4691878E-002  0.4515429E+03  0.7546771E-02  0.1027263E+00
         21   -1    0    0  502  501  0.00000000000E+00  0.00000000000E+00  0.90359645147E+03  0.90359645147E+03  0.00000000000E+00 0.  1.
         21   -1    0    0  501  502 -0.00000000000E+00 -0.00000000000E+00 -0.56410974362E+02  0.56410974362E+02  0.00000000000E+00 0.  1.
      99926    2    1    2    0    0  0.14210854715E-13  0.00000000000E+00  0.84718547710E+03  0.96000742583E+03  0.45154293819E+03 0.  0.
      99925    2    3    3    0    0 -0.94484810810E+02 -0.10473503131E+02  0.65211903537E+03  0.70953687160E+03  0.26295676857E+03 0.  0.
         25    1    4    4    0    0 -0.11451583502E+02 -0.14170433146E+02  0.35042435241E+03  0.37252741483E+03  0.12509000000E+03 0.  0.
         25    1    3    3    0    0  0.94484810810E+02  0.10473503131E+02  0.19506644174E+03  0.25047055422E+03  0.12509000000E+03 0.  0.
         25    1    4    4    0    0 -0.83033227308E+02  0.36969300149E+01  0.30169468296E+03  0.33700945677E+03  0.12509000000E+03 0.  0.
<mgrwt>
<rscale>  2 0.45154294E+03</rscale>
<asrwt>0</asrwt>
<pdfrwt beam="1">  1       21 0.13288182E+00 0.45154294E+03</pdfrwt>
<pdfrwt beam="2">  1       21 0.82957320E-02 0.45154294E+03</pdfrwt>
<totfact> 0.41858276E+04</totfact>
</mgrwt>
</event>
<event>
 7    0  0.4691878E-002  0.4527002E+03  0.7546771E-02  0.1026920E+00
         21   -1    0    0  502  501  0.00000000000E+00  0.00000000000E+00  0.20108399839E+03  0.20108399839E+03  0.00000000000E+00 0. -1.
         21   -1    0    0  501  502 -0.00000000000E+00 -0.00000000000E+00 -0.25479082536E+03  0.25479082536E+03  0.00000000000E+00 0. -1.
      99926    2    1    2    0    0  0.00000000000E+00  0.00000000000E+00 -0.53706826967E+02  0.45587482376E+03  0.45270015647E+03 0.  0.
      99925    2    3    3    0    0 -0.32780985986E+02  0.10605668154E+03 -0.32002220178E+02  0.28722960207E+03  0.26297165145E+03 0.  0.
         25    1    3    3    0    0  0.32780985986E+02 -0.10605668154E+03 -0.21704606789E+02  0.16864522169E+03  0.12509000000E+03 0.  0.
         25    1    4    4    0    0  0.13848838174E+01  0.14441368643E+02 -0.24444081551E+02  0.12827896263E+03  0.12509000000E+03 0.  0.
         25    1    4    4    0    0 -0.34165869803E+02  0.91615312900E+02 -0.75581386270E+01  0.15895063943E+03  0.12509000000E+03 0.  0.
<mgrwt>
<rscale>  2 0.45270016E+03</rscale>
<asrwt>0</asrwt>
<pdfrwt beam="1">  1       21 0.29571176E-01 0.45270016E+03</pdfrwt>
<pdfrwt beam="2">  1       21 0.37469239E-01 0.45270016E+03</pdfrwt>
<totfact> 0.69752781E+04</totfact>
</mgrwt>
</event>
<event>
 7    0  0.4691878E-002  0.4554257E+03  0.7546771E-02  0.1026116E+00
         21   -1    0    0  502  501  0.00000000000E+00  0.00000000000E+00  0.63743601360E+03  0.63743601360E+03  0.00000000000E+00 0.  1.
         21   -1    0    0  501  502 -0.00000000000E+00 -0.00000000000E+00 -0.81346428355E+02  0.81346428355E+02  0.00000000000E+00 0.  1.
      99926    2    1    2    0    0 -0.14210854715E-13 -0.71054273576E-14  0.55608958525E+03  0.71878244196E+03  0.45542570420E+03 0.  0.
      99925    2    3    3    0    0 -0.81931833306E+02 -0.35304140761E+02  0.46076580562E+03  0.53796944816E+03  0.26295777581E+03 0.  0.
         25    1    4    4    0    0 -0.70302943942E+02  0.23017909708E+01  0.20093574818E+03  0.24692202244E+03  0.12509000000E+03 0.  0.
         25    1    4    4    0    0 -0.11628889365E+02 -0.37605931731E+02  0.25983005744E+03  0.29104742572E+03  0.12509000000E+03 0.  0.
         25    1    3    3    0    0  0.81931833306E+02  0.35304140761E+02  0.95323779626E+02  0.18081299380E+03  0.12509000000E+03 0.  0.
<mgrwt>
<rscale>  2 0.45542570E+03</rscale>
<asrwt>0</asrwt>
<pdfrwt beam="1">  1       21 0.93740588E-01 0.45542570E+03</pdfrwt>
<pdfrwt beam="2">  1       21 0.11962710E-01 0.45542570E+03</pdfrwt>
<totfact> 0.51721658E+04</totfact>
</mgrwt>
</event>
<event>
 7    0  0.4691878E-002  0.4582818E+03  0.7546771E-02  0.1025281E+00
         21   -1    0    0  502  501  0.00000000000E+00  0.00000000000E+00  0.75854303484E+03  0.75854303484E+03  0.00000000000E+00 0.  1.
         21   -1    0    0  501  502 -0.00000000000E+00 -0.00000000000E+00 -0.69218938872E+02  0.69218938872E+02  0.00000000000E+00 0.  1.
      99926    2    1    2    0    0  0.00000000000E+00  0.00000000000E+00  0.68932409597E+03  0.82776197371E+03  0.45828176468E+03 0.  0.
      99925    2    3    3    0    0  0.94075712746E+00 -0.76337763969E+02  0.59076219817E+03  0.65115423031E+03  0.26300858851E+03 0.  0.
         25    1    3    3    0    0 -0.94075712746E+00  0.76337763969E+02  0.98561897793E+02  0.17660774340E+03  0.12509000000E+03 0.  0.
         25    1    4    4    0    0 -0.53786828334E+00 -0.70817914516E+02  0.37616443987E+03  0.40269425157E+03  0.12509000000E+03 0.  0.
         25    1    4    4    0    0  0.14786254108E+01 -0.55198494526E+01  0.21459775830E+03  0.24845997875E+03  0.12509000000E+03 0.  0.
<mgrwt>
<rscale>  2 0.45828176E+03</rscale>
<asrwt>0</asrwt>
<pdfrwt beam="1">  1       21 0.11155044E+00 0.45828176E+03</pdfrwt>
<pdfrwt beam="2">  1       21 0.10179256E-01 0.45828176E+03</pdfrwt>
<totfact> 0.45274045E+04</totfact>
</mgrwt>
</event>
<event>
 7    0  0.4691878E-002  0.4512343E+03  0.7546771E-02  0.1027355E+00
         21   -1    0    0  502  501  0.00000000000E+00  0.00000000000E+00  0.25703787764E+03  0.25703787764E+03  0.00000000000E+00 0.  1.
         21   -1    0    0  501  502 -0.00000000000E+00 -0.00000000000E+00 -0.19803730640E+03  0.19803730640E+03  0.00000000000E+00 0.  1.
      99926    2    1    2    0    0  0.00000000000E+00  0.00000000000E+00  0.59000571242E+02  0.45507518404E+03  0.45123425814E+03 0.  0.
      99925    2    3    3    0    0 -0.31186337572E+02 -0.34621396898E+02 -0.62793912708E+02  0.27437478782E+03  0.26299661584E+03 0.  0.
         25    1    3    3    0    0  0.31186337572E+02  0.34621396898E+02  0.12179448395E+03  0.18070039622E+03  0.12509000000E+03 0.  0.
         25    1    4    4    0    0 -0.25355138738E+02 -0.39903034132E+02  0.10151059382E+01  0.13372985356E+03  0.12509000000E+03 0.  0.
         25    1    4    4    0    0 -0.58311988333E+01  0.52816372341E+01 -0.63809018646E+02  0.14064493426E+03  0.12509000000E+03 0.  0.
<mgrwt>
<rscale>  2 0.45123426E+03</rscale>
<asrwt>0</asrwt>
<pdfrwt beam="1">  1       21 0.37799688E-01 0.45123426E+03</pdfrwt>
<pdfrwt beam="2">  1       21 0.29123133E-01 0.45123426E+03</pdfrwt>
<totfact> 0.70638607E+04</totfact>
</mgrwt>
</event>
<event>
 7    0  0.4691878E-002  0.4547311E+03  0.7546771E-02  0.1026321E+00
         21   -1    0    0  502  501  0.00000000000E+00  0.00000000000E+00  0.48536609955E+02  0.48536609955E+02  0.00000000000E+00 0.  1.
         21   -1    0    0  501  502 -0.00000000000E+00 -0.00000000000E+00 -0.10650741445E+04  0.10650741445E+04  0.00000000000E+00 0.  1.
      99926    2    1    2    0    0 -0.14210854715E-13  0.71054273576E-14 -0.10165375346E+04  0.11136107545E+04  0.45473107800E+03 0.  0.
      99925    2    3    3    0    0 -0.98523485655E+02  0.54882894513E+02 -0.65317431239E+03  0.71311187974E+03  0.26300734081E+03 0.  0.
         25    1    4    4    0    0 -0.35983352990E+02 -0.65525997969E+00 -0.37341233508E+03  0.39544849367E+03  0.12509000000E+03 0.  0.
         25    1    3    3    0    0  0.98523485655E+02 -0.54882894513E+02 -0.36336322218E+03  0.40049887474E+03  0.12509000000E+03 0.  0.
         25    1    4    4    0    0 -0.62540132666E+02  0.55538154493E+02 -0.27976197731E+03  0.31766338607E+03  0.12509000000E+03 0.  0.
<mgrwt>
<rscale>  2 0.45473108E+03</rscale>
<asrwt>0</asrwt>
<pdfrwt beam="1">  1       21 0.71377366E-02 0.45473108E+03</pdfrwt>
<pdfrwt beam="2">  1       21 0.15662855E+00 0.45473108E+03</pdfrwt>
<totfact> 0.35094281E+04</totfact>
</mgrwt>
</event>
<event>
 7    0  0.4691878E-002  0.4516651E+03  0.7546771E-02  0.1027227E+00
         21   -1    0    0  502  501  0.00000000000E+00  0.00000000000E+00  0.37597929138E+03  0.37597929138E+03  0.00000000000E+00 0.  1.
         21   -1    0    0  501  502 -0.00000000000E+00 -0.00000000000E+00 -0.13564666867E+03  0.13564666867E+03  0.00000000000E+00 0.  1.
      99926    2    1    2    0    0  0.00000000000E+00 -0.17763568394E-14  0.24033262271E+03  0.51162596005E+03  0.45166508993E+03 0.  0.
      99925    2    3    3    0    0  0.78182002784E+02  0.15496167461E+02  0.23759966385E+03  0.36327659561E+03  0.26298997679E+03 0.  0.
         25    1    3    3    0    0 -0.78182002784E+02 -0.15496167461E+02  0.27329588603E+01  0.14834936444E+03  0.12509000000E+03 0.  0.
         25    1    4    4    0    0  0.41205410892E+02  0.29153242103E+02  0.16585200902E+03  0.21378071570E+03  0.12509000000E+03 0.  0.
         25    1    4    4    0    0  0.36976591892E+02 -0.13657074642E+02  0.71747654836E+02  0.14949587991E+03  0.12509000000E+03 0.  0.
<mgrwt>
<rscale>  2 0.45166509E+03</rscale>
<asrwt>0</asrwt>
<pdfrwt beam="1">  1       21 0.55291072E-01 0.45166509E+03</pdfrwt>
<pdfrwt beam="2">  1       21 0.19948040E-01 0.45166509E+03</pdfrwt>
<totfact> 0.66195919E+04</totfact>
</mgrwt>
</event>
<event>
 7    0  0.4691878E-002  0.4572607E+03  0.7546771E-02  0.1025579E+00
         21   -1    0    0  502  501  0.00000000000E+00  0.00000000000E+00  0.15333542734E+03  0.15333542734E+03  0.00000000000E+00 0.  1.
         21   -1    0    0  501  502 -0.00000000000E+00 -0.00000000000E+00 -0.34089862145E+03  0.34089862145E+03  0.00000000000E+00 0.  1.
      99926    2    1    2    0    0  0.17763568394E-14  0.00000000000E+00 -0.18756319411E+03  0.49423404880E+03  0.45726069501E+03 0.  0.
      99925    2    3    3    0    0 -0.60118898131E+01  0.11411280662E+03 -0.10053967674E+03  0.30376495385E+03  0.26288218870E+03 0.  0.
         25    1    4    4    0    0 -0.30348743876E+02  0.34502739117E+02 -0.25001897360E+02  0.13558793543E+03  0.12509000000E+03 0.  0.
         25    1    4    4    0    0  0.24336854063E+02  0.79610067500E+02 -0.75537779378E+02  0.16817701843E+03  0.12509000000E+03 0.  0.
         25    1    3    3    0    0  0.60118898131E+01 -0.11411280662E+03 -0.87023517371E+02  0.19046909494E+03  0.12509000000E+03 0.  0.
<mgrwt>
<rscale>  2 0.45726070E+03</rscale>
<asrwt>0</asrwt>
<pdfrwt beam="1">  1       21 0.22549328E-01 0.45726070E+03</pdfrwt>
<pdfrwt beam="2">  1       21 0.50132150E-01 0.45726070E+03</pdfrwt>
<totfact> 0.64512075E+04</totfact>
</mgrwt>
</event>
<event>
 7    0  0.4691878E-002  0.4549804E+03  0.7546771E-02  0.1026247E+00
         21   -1    0    0  502  501  0.00000000000E+00  0.00000000000E+00  0.99243809467E+02  0.99243809467E+02  0.00000000000E+00 0.  1.
         21   -1    0    0  501  502 -0.00000000000E+00 -0.00000000000E+00 -0.52146104098E+03  0.52146104098E+03  0.00000000000E+00 0.  1.
      99926    2    1    2    0    0  0.25535129566E-14  0.00000000000E+00 -0.42221723151E+03  0.62070485044E+03  0.45498035208E+03 0.  0.
      99925    2    3    3    0    0  0.58163594243E+00 -0.37641187581E+02 -0.41128223898E+03  0.48961602764E+03  0.26297067730E+03 0.  0.
         25    1    3    3    0    0 -0.58163594243E+00  0.37641187581E+02 -0.10934992530E+02  0.13108882281E+03  0.12509000000E+03 0.  0.
         25    1    4    4    0    0 -0.25305824732E+02 -0.40090100270E+02 -0.16730966091E+03  0.21421398563E+03  0.12509000000E+03 0.  0.
         25    1    4    4    0    0  0.25887460674E+02  0.24489126889E+01 -0.24397257807E+03  0.27540204201E+03  0.12509000000E+03 0.  0.
<mgrwt>
<rscale>  2 0.45498035E+03</rscale>
<asrwt>0</asrwt>
<pdfrwt beam="1">  1       21 0.14594678E-01 0.45498035E+03</pdfrwt>
<pdfrwt beam="2">  1       21 0.76685447E-01 0.45498035E+03</pdfrwt>
<totfact> 0.57430503E+04</totfact>
</mgrwt>
</event>
<event>
 7    0  0.4691878E-002  0.4539376E+03  0.7546771E-02  0.1026554E+00
         21   -1    0    0  502  501  0.00000000000E+00  0.00000000000E+00  0.28877680032E+03  0.28877680032E+03  0.00000000000E+00 0. -1.
         21   -1    0    0  501  502 -0.00000000000E+00 -0.00000000000E+00 -0.17838982834E+03  0.17838982834E+03  0.00000000000E+00 0. -1.
      99926    2    1    2    0    0 -0.35527136788E-14 -0.14210854715E-13  0.11038697198E+03  0.46716662866E+03  0.45393763377E+03 0.  0.
      99925    2    3    3    0    0 -0.16579288808E+02 -0.85763344004E+02 -0.33792584888E+01  0.27684982098E+03  0.26268646710E+03 0.  0.
         25    1    4    4    0    0  0.18024950468E+02 -0.52361858324E+02  0.26984872484E+02  0.13943584363E+03  0.12509000000E+03 0.  0.
         25    1    3    3    0    0  0.16579288808E+02  0.85763344004E+02  0.11376623047E+03  0.19031680768E+03  0.12509000000E+03 0.  0.
         25    1    4    4    0    0 -0.34604239275E+02 -0.33401485680E+02 -0.30364130972E+02  0.13741397735E+03  0.12509000000E+03 0.  0.
<mgrwt>
<rscale>  2 0.45393763E+03</rscale>
<asrwt>0</asrwt>
<pdfrwt beam="1">  1       21 0.42467177E-01 0.45393763E+03</pdfrwt>
<pdfrwt beam="2">  1       21 0.26233798E-01 0.45393763E+03</pdfrwt>
<totfact> 0.68220232E+04</totfact>
</mgrwt>
</event>
<event>
 7    0  0.4691878E-002  0.4537694E+03  0.7546771E-02  0.1026604E+00
         21   -1    0    0  502  501  0.00000000000E+00  0.00000000000E+00  0.51343452016E+03  0.51343452016E+03  0.00000000000E+00 0.  1.
         21   -1    0    0  501  502 -0.00000000000E+00 -0.00000000000E+00 -0.10025944520E+03  0.10025944520E+03  0.00000000000E+00 0.  1.
      99926    2    1    2    0    0  0.00000000000E+00  0.00000000000E+00  0.41317507497E+03  0.61369396536E+03  0.45376936933E+03 0.  0.
      99925    2    3    3    0    0  0.44562646684E+02 -0.82497632228E+02  0.34312384020E+03  0.44238613601E+03  0.26302059771E+03 0.  0.
         25    1    4    4    0    0 -0.64660727501E+01 -0.45363268816E+02  0.21266001495E+03  0.25094108136E+03  0.12509000000E+03 0.  0.
         25    1    4    4    0    0  0.51028719434E+02 -0.37134363412E+02  0.13046382525E+03  0.19144505466E+03  0.12509000000E+03 0.  0.
         25    1    3    3    0    0 -0.44562646684E+02  0.82497632228E+02  0.70051234771E+02  0.17130782935E+03  0.12509000000E+03 0.  0.
<mgrwt>
<rscale>  2 0.45376937E+03</rscale>
<asrwt>0</asrwt>
<pdfrwt beam="1">  1       21 0.75505075E-01 0.45376937E+03</pdfrwt>
<pdfrwt beam="2">  1       21 0.14744036E-01 0.45376937E+03</pdfrwt>
<totfact> 0.58408829E+04</totfact>
</mgrwt>
</event>
<event>
 7    0  0.4691878E-002  0.4267672E+03  0.7546771E-02  0.1034886E+00
         21   -1    0    0  502  501  0.00000000000E+00  0.00000000000E+00  0.24580632721E+03  0.24580632721E+03  0.00000000000E+00 0.  1.
         21   -1    0    0  501  502 -0.00000000000E+00 -0.00000000000E+00 -0.18523753307E+03  0.18523753307E+03  0.00000000000E+00 0.  1.
      99926    2    1    2    0    0  0.66613381478E-15  0.00000000000E+00  0.60568794136E+02  0.43104386029E+03  0.42676718556E+03 0.  0.
      99925    2    3    3    0    0  0.23862393357E+00  0.54542372833E+02 -0.25376785697E+02  0.26977055757E+03  0.26297765134E+03 0.  0.
         25    1    4    4    0    0 -0.36959244557E+02  0.19128420665E+02  0.18006841624E+01  0.13184321294E+03  0.12509000000E+03 0.  0.
         25    1    4    4    0    0  0.37197868491E+02  0.35413952168E+02 -0.27177469859E+02  0.13792734463E+03  0.12509000000E+03 0.  0.
         25    1    3    3    0    0 -0.23862393357E+00 -0.54542372833E+02  0.85945579833E+02  0.16127330271E+03  0.12509000000E+03 0.  0.
<mgrwt>
<rscale>  2 0.42676719E+03</rscale>
<asrwt>0</asrwt>
<pdfrwt beam="1">  1       21 0.36147989E-01 0.42676719E+03</pdfrwt>
<pdfrwt beam="2">  1       21 0.27240814E-01 0.42676719E+03</pdfrwt>
<totfact> 0.88693861E+04</totfact>
</mgrwt>
</event>
<event>
 7    0  0.4691878E-002  0.4663476E+03  0.7546771E-02  0.1022956E+00
         21   -1    0    0  502  501  0.00000000000E+00  0.00000000000E+00  0.36961881234E+03  0.36961881234E+03  0.00000000000E+00 0.  1.
         21   -1    0    0  501  502 -0.00000000000E+00 -0.00000000000E+00 -0.14709754002E+03  0.14709754002E+03  0.00000000000E+00 0.  1.
      99926    2    1    2    0    0  0.00000000000E+00  0.71054273576E-14  0.22252127232E+03  0.51671635236E+03  0.46634758729E+03 0.  0.
      99925    2    3    3    0    0 -0.64779263060E+02 -0.62841872465E+02  0.23209216581E+03  0.36217003581E+03  0.26297320691E+03 0.  0.
         25    1    3    3    0    0  0.64779263060E+02  0.62841872465E+02 -0.95708934992E+01  0.15454631655E+03  0.12509000000E+03 0.  0.
         25    1    4    4    0    0 -0.63260073217E+02 -0.52672670568E+01  0.12026942930E+03  0.18477506512E+03  0.12509000000E+03 0.  0.
         25    1    4    4    0    0 -0.15191898439E+01 -0.57574605408E+02  0.11182273652E+03  0.17739497070E+03  0.12509000000E+03 0.  0.
<mgrwt>
<rscale>  2 0.46634759E+03</rscale>
<asrwt>0</asrwt>
<pdfrwt beam="1">  1       21 0.54355708E-01 0.46634759E+03</pdfrwt>
<pdfrwt beam="2">  1       21 0.21631991E-01 0.46634759E+03</pdfrwt>
<totfact> 0.58649130E+04</totfact>
</mgrwt>
</event>
<event>
 7    0  0.4691878E-002  0.4580285E+03  0.7546771E-02  0.1025355E+00
         21   -1    0    0  502  501  0.00000000000E+00  0.00000000000E+00  0.26111942426E+03  0.26111942426E+03  0.00000000000E+00 0.  1.
         21   -1    0    0  501  502 -0.00000000000E+00 -0.00000000000E+00 -0.20085647690E+03  0.20085647690E+03  0.00000000000E+00 0.  1.
      99926    2    1    2    0    0 -0.14210854715E-13  0.00000000000E+00  0.60262947362E+02  0.46197590115E+03  0.45802850394E+03 0.  0.
      99925    2    3    3    0    0  0.94421930710E+02 -0.67266035232E+02  0.45009479553E+02  0.29074390392E+03  0.26280400287E+03 0.  0.
         25    1    3    3    0    0 -0.94421930710E+02  0.67266035232E+02  0.15253467810E+02  0.17123199723E+03  0.12509000000E+03 0.  0.
         25    1    4    4    0    0  0.83937056880E+02 -0.23343827621E+02  0.77705921630E+01  0.15263765593E+03  0.12509000000E+03 0.  0.
         25    1    4    4    0    0  0.10484873830E+02 -0.43922207611E+02  0.37238887390E+02  0.13810624799E+03  0.12509000000E+03 0.  0.
<mgrwt>
<rscale>  2 0.45802850E+03</rscale>
<asrwt>0</asrwt>
<pdfrwt beam="1">  1       21 0.38399915E-01 0.45802850E+03</pdfrwt>
<pdfrwt beam="2">  1       21 0.29537717E-01 0.45802850E+03</pdfrwt>
<totfact> 0.66418127E+04</totfact>
</mgrwt>
</event>
<event>
 7    0  0.4691878E-002  0.4525678E+03  0.7546771E-02  0.1026959E+00
         21   -1    0    0  502  501  0.00000000000E+00  0.00000000000E+00  0.12078147749E+03  0.12078147749E+03  0.00000000000E+00 0.  1.
         21   -1    0    0  501  502 -0.00000000000E+00 -0.00000000000E+00 -0.42394253823E+03  0.42394253823E+03  0.00000000000E+00 0.  1.
      99926    2    1    2    0    0 -0.14210854715E-13  0.00000000000E+00 -0.30316106074E+03  0.54472401573E+03  0.45256781211E+03 0.  0.
      99925    2    3    3    0    0 -0.10679935293E+03  0.61536971324E+01 -0.22785714811E+03  0.36372081926E+03  0.26254520494E+03 0.  0.
         25    1    4    4    0    0 -0.26044824631E+02 -0.45763782026E+01 -0.14373896446E+03  0.19237378754E+03  0.12509000000E+03 0.  0.
         25    1    4    4    0    0 -0.80754528303E+02  0.10730075335E+02 -0.84118183654E+02  0.17134703172E+03  0.12509000000E+03 0.  0.
         25    1    3    3    0    0  0.10679935293E+03 -0.61536971324E+01 -0.75303912622E+02  0.18100319647E+03  0.12509000000E+03 0.  0.
<mgrwt>
<rscale>  2 0.45256781E+03</rscale>
<asrwt>0</asrwt>
<pdfrwt beam="1">  1       21 0.17761982E-01 0.45256781E+03</pdfrwt>
<pdfrwt beam="2">  1       21 0.62344492E-01 0.45256781E+03</pdfrwt>
<totfact> 0.63428446E+04</totfact>
</mgrwt>
</event>
<event>
 7    0  0.4691878E-002  0.4520076E+03  0.7546771E-02  0.1027125E+00
         21   -1    0    0  502  501  0.00000000000E+00  0.00000000000E+00  0.30686090355E+03  0.30686090355E+03  0.00000000000E+00 0. -1.
         21   -1    0    0  501  502 -0.00000000000E+00 -0.00000000000E+00 -0.16645237268E+03  0.16645237268E+03  0.00000000000E+00 0. -1.
      99926    2    1    2    0    0  0.00000000000E+00  0.14210854715E-13  0.14040853087E+03  0.47331327623E+03  0.45200763480E+03 0.  0.
      99925    2    3    3    0    0  0.49927235926E+02 -0.98181816869E+02  0.96033143203E+02  0.30083405667E+03  0.26295696798E+03 0.  0.
         25    1    3    3    0    0 -0.49927235926E+02  0.98181816869E+02  0.44375387666E+02  0.17247921956E+03  0.12509000000E+03 0.  0.
         25    1    4    4    0    0 -0.87450727246E+01 -0.68521746453E+02  0.60120818397E+02  0.15502814886E+03  0.12509000000E+03 0.  0.
         25    1    4    4    0    0  0.58672308650E+02 -0.29660070415E+02  0.35912324806E+02  0.14580590781E+03  0.12509000000E+03 0.  0.
<mgrwt>
<rscale>  2 0.45200763E+03</rscale>
<asrwt>0</asrwt>
<pdfrwt beam="1">  1       21 0.45126603E-01 0.45200763E+03</pdfrwt>
<pdfrwt beam="2">  1       21 0.24478290E-01 0.45200763E+03</pdfrwt>
<totfact> 0.68809727E+04</totfact>
</mgrwt>
</event>
<event>
 7    0  0.4691878E-002  0.4563013E+03  0.7546771E-02  0.1025859E+00
         21   -1    0    0  502  501  0.00000000000E+00  0.00000000000E+00  0.31254007736E+03  0.31254007736E+03  0.00000000000E+00 0.  1.
         21   -1    0    0  501  502 -0.00000000000E+00 -0.00000000000E+00 -0.16654733286E+03  0.16654733286E+03  0.00000000000E+00 0.  1.
      99926    2    1    2    0    0  0.00000000000E+00  0.00000000000E+00  0.14599274450E+03  0.47908741022E+03  0.45630128773E+03 0.  0.
      99925    2    3    3    0    0  0.55814926089E+02  0.73960024300E+02  0.16205535737E+03  0.32259170165E+03  0.26309328375E+03 0.  0.
         25    1    4    4    0    0  0.62755637534E+02  0.43251598797E+02  0.60763409069E+02  0.15858332454E+03  0.12509000000E+03 0.  0.
         25    1    4    4    0    0 -0.69407114450E+01  0.30708425502E+02  0.10129194830E+03  0.16400837711E+03  0.12509000000E+03 0.  0.
         25    1    3    3    0    0 -0.55814926089E+02 -0.73960024300E+02 -0.16062612869E+02  0.15649570857E+03  0.12509000000E+03 0.  0.
<mgrwt>
<rscale>  2 0.45630129E+03</rscale>
<asrwt>0</asrwt>
<pdfrwt beam="1">  1       21 0.45961776E-01 0.45630129E+03</pdfrwt>
<pdfrwt beam="2">  1       21 0.24492255E-01 0.45630129E+03</pdfrwt>
<totfact> 0.66081434E+04</totfact>
</mgrwt>
</event>
<event>
 7    0  0.4691878E-002  0.4549477E+03  0.7546771E-02  0.1026257E+00
         21   -1    0    0  502  501  0.00000000000E+00  0.00000000000E+00  0.13268695976E+04  0.13268695976E+04  0.00000000000E+00 0.  1.
         21   -1    0    0  501  502 -0.00000000000E+00 -0.00000000000E+00 -0.38997320139E+02  0.38997320139E+02  0.00000000000E+00 0.  1.
      99926    2    1    2    0    0  0.00000000000E+00  0.00000000000E+00  0.12878722775E+04  0.13658669178E+04  0.45494772659E+03 0.  0.
      99925    2    3    3    0    0  0.90038252005E+02 -0.55165597754E+02  0.68859491481E+03  0.74463347089E+03  0.26299414303E+03 0.  0.
         25    1    3    3    0    0 -0.90038252005E+02  0.55165597754E+02  0.59927736269E+03  0.62123344688E+03  0.12509000000E+03 0.  0.
         25    1    4    4    0    0  0.84722980987E+02 -0.30253126477E+02  0.41631204350E+03  0.44391041983E+03  0.12509000000E+03 0.  0.
         25    1    4    4    0    0  0.53152710179E+01 -0.24912471277E+02  0.27228287131E+03  0.30072305107E+03  0.12509000000E+03 0.  0.
<mgrwt>
<rscale>  2 0.45494773E+03</rscale>
<asrwt>0</asrwt>
<pdfrwt beam="1">  1       21 0.19512785E+00 0.45494773E+03</pdfrwt>
<pdfrwt beam="2">  1       21 0.57349009E-02 0.45494773E+03</pdfrwt>
<totfact> 0.27267050E+04</totfact>
</mgrwt>
</event>
<event>
 6    0  0.4691878E-002  0.4503219E+03  0.7546771E-02  0.1027626E+00
         21   -1    0    0  502  501  0.00000000000E+00  0.00000000000E+00  0.18499790707E+03  0.18499790707E+03  0.00000000000E+00 0.  1.
         21   -1    0    0  501  502 -0.00000000000E+00 -0.00000000000E+00 -0.27404342108E+03  0.27404342108E+03  0.00000000000E+00 0.  1.
      99926    2    1    2    0    0  0.00000000000E+00  0.00000000000E+00 -0.89045514012E+02  0.45904132816E+03  0.45032192639E+03 0.  0.
         25    1    3    3    0    0  0.92770249757E+01 -0.30116840423E+02  0.34631446565E+02  0.13356621003E+03  0.12509000000E+03 0.  0.
         25    1    3    3    0    0  0.71411332789E+02 -0.16657104931E+02 -0.61918566292E+02  0.15766564162E+03  0.12509000000E+03 0.  0.
         25    1    3    3    0    0 -0.80688357765E+02  0.46773945354E+02 -0.61758394285E+02  0.16780947651E+03  0.12509000000E+03 0.  0.
<mgrwt>
<rscale>  2 0.45032193E+03</rscale>
<asrwt>0</asrwt>
<pdfrwt beam="1">  1       21 0.27205574E-01 0.45032193E+03</pdfrwt>
<pdfrwt beam="2">  1       21 0.40300503E-01 0.45032193E+03</pdfrwt>
<totfact> 0.70853248E+04</totfact>
</mgrwt>
</event>
<event>
 7    0  0.4691878E-002  0.3996420E+03  0.7546771E-02  0.1043904E+00
         21   -1    0    0  502  501  0.00000000000E+00  0.00000000000E+00  0.13993360636E+03  0.13993360636E+03  0.00000000000E+00 0.  1.
         21   -1    0    0  501  502 -0.00000000000E+00 -0.00000000000E+00 -0.28533834433E+03  0.28533834433E+03  0.00000000000E+00 0.  1.
      99926    2    1    2    0    0  0.00000000000E+00 -0.53290705182E-14 -0.14540473797E+03  0.42527195068E+03  0.39964195753E+03 0.  0.
      99925    2    3    3    0    0  0.26341097165E+02 -0.12161645690E+02 -0.60719436312E+02  0.27145105665E+03  0.26297731306E+03 0.  0.
         25    1    4    4    0    0  0.19573853478E+02 -0.43913880965E+02 -0.44480305625E+02  0.14120046165E+03  0.12509000000E+03 0.  0.
         25    1    3    3    0    0 -0.26341097165E+02  0.12161645690E+02 -0.84685301657E+02  0.15382089404E+03  0.12509000000E+03 0.  0.
         25    1    4    4    0    0  0.67672436877E+01  0.31752235275E+02 -0.16239130687E+02  0.13025059500E+03  0.12509000000E+03 0.  0.
<mgrwt>
<rscale>  2 0.39964196E+03</rscale>
<asrwt>0</asrwt>
<pdfrwt beam="1">  1       21 0.20578472E-01 0.39964196E+03</pdfrwt>
<pdfrwt beam="2">  1       21 0.41961521E-01 0.39964196E+03</pdfrwt>
<totfact> 0.11294948E+05</totfact>
</mgrwt>
</event>
<event>
 7    0  0.4691878E-002  0.4544541E+03  0.7546771E-02  0.1026402E+00
         21   -1    0    0  502  501  0.00000000000E+00  0.00000000000E+00  0.85169078208E+02  0.85169078208E+02  0.00000000000E+00 0. -1.
         21   -1    0    0  501  502 -0.00000000000E+00 -0.00000000000E+00 -0.60623083156E+03  0.60623083156E+03  0.00000000000E+00 0. -1.
      99926    2    1    2    0    0  0.71054273576E-14 -0.35527136788E-14 -0.52106175335E+03  0.69139990977E+03  0.45445405095E+03 0.  0.
      99925    2    3    3    0    0 -0.58455884145E+02 -0.16632059907E+02 -0.18382241233E+03  0.32661011133E+03  0.26303948324E+03 0.  0.
         25    1    4    4    0    0 -0.46359805021E+02  0.27674194144E+02 -0.10255753393E+03  0.17053049114E+03  0.12509000000E+03 0.  0.
         25    1    3    3    0    0  0.58455884145E+02  0.16632059907E+02 -0.33723934102E+03  0.36478979843E+03  0.12509000000E+03 0.  0.
         25    1    4    4    0    0 -0.12096079124E+02 -0.44306254051E+02 -0.81264878396E+02  0.15607962019E+03  0.12509000000E+03 0.  0.
<mgrwt>
<rscale>  2 0.45445405E+03</rscale>
<asrwt>0</asrwt>
<pdfrwt beam="1">  1       21 0.12524864E-01 0.45445405E+03</pdfrwt>
<pdfrwt beam="2">  1       21 0.89151593E-01 0.45445405E+03</pdfrwt>
<totfact> 0.53602443E+04</totfact>
</mgrwt>
</event>
<event>
 7    0  0.4691878E-002  0.4541033E+03  0.7546771E-02  0.1026505E+00
         21   -1    0    0  502  501  0.00000000000E+00  0.00000000000E+00  0.53571204518E+02  0.53571204518E+02  0.00000000000E+00 0.  1.
         21   -1    0    0  501  502 -0.00000000000E+00 -0.00000000000E+00 -0.96231666193E+03  0.96231666193E+03  0.00000000000E+00 0.  1.
      99926    2    1    2    0    0  0.00000000000E+00 -0.17763568394E-14 -0.90874545741E+03  0.10158878664E+04  0.45410334818E+03 0.  0.
      99925    2    3    3    0    0 -0.72673120289E+02  0.22951200715E+01 -0.38065705164E+03  0.46833739170E+03  0.26297047650E+03 0.  0.
         25    1    4    4    0    0 -0.29504831699E+02 -0.32008759907E+02 -0.14904625608E+03  0.19939255341E+03  0.12509000000E+03 0.  0.
         25    1    4    4    0    0 -0.43168288589E+02  0.34303879979E+02 -0.23161079556E+03  0.26894483829E+03  0.12509000000E+03 0.  0.
         25    1    3    3    0    0  0.72673120289E+02 -0.22951200715E+01 -0.52808840577E+03  0.54755047475E+03  0.12509000000E+03 0.  0.
<mgrwt>
<rscale>  2 0.45410335E+03</rscale>
<asrwt>0</asrwt>
<pdfrwt beam="1">  1       21 0.78781184E-02 0.45410335E+03</pdfrwt>
<pdfrwt beam="2">  1       21 0.14151715E+00 0.45410335E+03</pdfrwt>
<totfact> 0.38825557E+04</totfact>
</mgrwt>
</event>
<event>
 7    0  0.4691878E-002  0.4751462E+03  0.7546771E-02  0.1020478E+00
         21   -1    0    0  502  501  0.00000000000E+00  0.00000000000E+00  0.72077003140E+02  0.72077003140E+02  0.00000000000E+00 0. -1.
         21   -1    0    0  501  502 -0.00000000000E+00 -0.00000000000E+00 -0.78306515301E+03  0.78306515301E+03  0.00000000000E+00 0. -1.
      99926    2    1    2    0    0  0.00000000000E+00  0.00000000000E+00 -0.71098814987E+03  0.85514215615E+03  0.47514624903E+03 0.  0.
      99925    2    3    3    0    0 -0.87653602798E+02 -0.89382556247E+02 -0.36963843592E+03  0.47064309144E+03  0.26305883519E+03 0.  0.
         25    1    4    4    0    0 -0.36267894667E+02 -0.25882271084E+02 -0.11622301798E+03  0.17646685283E+03  0.12509000000E+03 0.  0.
         25    1    3    3    0    0  0.87653602798E+02  0.89382556247E+02 -0.34134971396E+03  0.38449906471E+03  0.12509000000E+03 0.  0.
         25    1    4    4    0    0 -0.51385708132E+02 -0.63500285162E+02 -0.25341541793E+03  0.29417623861E+03  0.12509000000E+03 0.  0.
<mgrwt>
<rscale>  2 0.47514625E+03</rscale>
<asrwt>0</asrwt>
<pdfrwt beam="1">  1       21 0.10599559E-01 0.47514625E+03</pdfrwt>
<pdfrwt beam="2">  1       21 0.11515665E+00 0.47514625E+03</pdfrwt>
<totfact> 0.38718727E+04</totfact>
</mgrwt>
</event>
<event>
 6    0  0.4691878E-002  0.4535567E+03  0.7546771E-02  0.1026667E+00
         21   -1    0    0  502  501  0.00000000000E+00  0.00000000000E+00  0.97448793316E+02  0.97448793316E+02  0.00000000000E+00 0. -1.
         21   -1    0    0  501  502 -0.00000000000E+00 -0.00000000000E+00 -0.52774805711E+03  0.52774805711E+03  0.00000000000E+00 0. -1.
      99926    2    1    2    0    0  0.14210854715E-13 -0.71054273576E-14 -0.43029926380E+03  0.62519685043E+03  0.45355666169E+03 0.  0.
         25    1    3    3    0    0  0.91194484501E+02 -0.49409823814E+02 -0.20910872488E+03  0.26482396344E+03  0.12509000000E+03 0.  0.
         25    1    3    3    0    0 -0.31297725090E+02 -0.90635359094E+01 -0.69850674607E+02  0.14692964344E+03  0.12509000000E+03 0.  0.
         25    1    3    3    0    0 -0.59896759410E+02  0.58473359723E+02 -0.15133986431E+03  0.21344324355E+03  0.12509000000E+03 0.  0.
<mgrwt>
<rscale>  2 0.45355666E+03</rscale>
<asrwt>0</asrwt>
<pdfrwt beam="1">  1       21 0.14330705E-01 0.45355666E+03</pdfrwt>
<pdfrwt beam="2">  1       21 0.77610010E-01 0.45355666E+03</pdfrwt>
<totfact> 0.57809484E+04</totfact>
</mgrwt>
</event>
<event>
 7    0  0.4691878E-002  0.4562922E+03  0.7546771E-02  0.1025862E+00
         21   -1    0    0  502  501  0.00000000000E+00  0.00000000000E+00  0.13346890709E+04  0.13346890709E+04  0.00000000000E+00 0.  1.
         21   -1    0    0  501  502 -0.00000000000E+00 -0.00000000000E+00 -0.38998334441E+02  0.38998334441E+02  0.00000000000E+00 0.  1.
      99926    2    1    2    0    0  0.00000000000E+00  0.00000000000E+00  0.12956907365E+04  0.13736874054E+04  0.45629223427E+03 0.  0.
      99925    2    3    3    0    0 -0.62784552508E+02  0.67498646012E+02  0.61062657406E+03  0.67122147595E+03  0.26301233733E+03 0.  0.
         25    1    4    4    0    0 -0.34181338634E+02 -0.59544652888E+01  0.31441906204E+03  0.34016271730E+03  0.12509000000E+03 0.  0.
         25    1    4    4    0    0 -0.28603213874E+02  0.73453111301E+02  0.29620751202E+03  0.33105875865E+03  0.12509000000E+03 0.  0.
         25    1    3    3    0    0  0.62784552508E+02 -0.67498646012E+02  0.68506416242E+03  0.70246592941E+03  0.12509000000E+03 0.  0.
<mgrwt>
<rscale>  2 0.45629223E+03</rscale>
<asrwt>0</asrwt>
<pdfrwt beam="1">  1       21 0.19627777E+00 0.45629223E+03</pdfrwt>
<pdfrwt beam="2">  1       21 0.57350501E-02 0.45629223E+03</pdfrwt>
<totfact> 0.26771821E+04</totfact>
</mgrwt>
</event>
<event>
 7    0  0.4691878E-002  0.5023646E+03  0.7546771E-02  0.1013164E+00
         21   -1    0    0  502  501  0.00000000000E+00  0.00000000000E+00  0.13466158910E+04  0.13466158910E+04  0.00000000000E+00 0. -1.
         21   -1    0    0  501  502 -0.00000000000E+00 -0.00000000000E+00 -0.46852671105E+02  0.46852671105E+02  0.00000000000E+00 0. -1.
      99926    2    1    2    0    0  0.00000000000E+00  0.00000000000E+00  0.12997632199E+04  0.13934685621E+04  0.50236461438E+03 0.  0.
      99925    2    3    3    0    0  0.65072471246E+02  0.13423815721E+03  0.68920339805E+03  0.75262137789E+03  0.26302719481E+03 0.  0.
         25    1    4    4    0    0 -0.47232767829E+00  0.38659872667E+02  0.27033746797E+03  0.30037420584E+03  0.12509000000E+03 0.  0.
         25    1    3    3    0    0 -0.65072471246E+02 -0.13423815721E+03  0.61055982187E+03  0.64084718424E+03  0.12509000000E+03 0.  0.
         25    1    4    4    0    0  0.65544798924E+02  0.95578284541E+02  0.41886593008E+03  0.45224717205E+03  0.12509000000E+03 0.  0.
<mgrwt>
<rscale>  2 0.50236461E+03</rscale>
<asrwt>0</asrwt>
<pdfrwt beam="1">  1       21 0.19803172E+00 0.50236461E+03</pdfrwt>
<pdfrwt beam="2">  1       21 0.68900996E-02 0.50236461E+03</pdfrwt>
<totfact> 0.18640643E+04</totfact>
</mgrwt>
</event>
<event>
 7    0  0.4691878E-002  0.4470245E+03  0.7546771E-02  0.1028613E+00
         21   -1    0    0  502  501  0.00000000000E+00  0.00000000000E+00  0.14409226159E+03  0.14409226159E+03  0.00000000000E+00 0. -1.
         21   -1    0    0  501  502 -0.00000000000E+00 -0.00000000000E+00 -0.34670655182E+03  0.34670655182E+03  0.00000000000E+00 0. -1.
      99926    2    1    2    0    0  0.00000000000E+00  0.00000000000E+00 -0.20261429024E+03  0.49079881341E+03  0.44702452353E+03 0.  0.
      99925    2    3    3    0    0 -0.64832910965E+02 -0.83163287122E+02 -0.12802039681E+03  0.31099003802E+03  0.26307060475E+03 0.  0.
         25    1    4    4    0    0 -0.60332080921E+02 -0.72508810739E+02 -0.57232168533E+02  0.16679483457E+03  0.12509000000E+03 0.  0.
         25    1    3    3    0    0  0.64832910965E+02  0.83163287122E+02 -0.74593893431E+02  0.17980877539E+03  0.12509000000E+03 0.  0.
         25    1    4    4    0    0 -0.45008300440E+01 -0.10654476383E+02 -0.70788228274E+02  0.14419520346E+03  0.12509000000E+03 0.  0.
<mgrwt>
<rscale>  2 0.44702452E+03</rscale>
<asrwt>0</asrwt>
<pdfrwt beam="1">  1       21 0.21190038E-01 0.44702452E+03</pdfrwt>
<pdfrwt beam="2">  1       21 0.50986258E-01 0.44702452E+03</pdfrwt>
<totfact> 0.70266560E+04</totfact>
</mgrwt>
</event>
<event>
 7    0  0.4691878E-002  0.4585940E+03  0.7546771E-02  0.1025190E+00
         21   -1    0    0  502  501  0.00000000000E+00  0.00000000000E+00  0.10420163445E+03  0.10420163445E+03  0.00000000000E+00 0. -1.
         21   -1    0    0  501  502 -0.00000000000E+00 -0.00000000000E+00 -0.50457099444E+03  0.50457099444E+03  0.00000000000E+00 0. -1.
      99926    2    1    2    0    0  0.00000000000E+00  0.00000000000E+00 -0.40036935999E+03  0.60877262889E+03  0.45859403535E+03 0.  0.
      99925    2    3    3    0    0 -0.71262221499E+02  0.86046301571E+02 -0.20743596224E+03  0.35313015532E+03  0.26303794011E+03 0.  0.
         25    1    4    4    0    0  0.90421909227E+00  0.44214561790E+02 -0.72960828269E+02  0.15141511037E+03  0.12509000000E+03 0.  0.
         25    1    4    4    0    0 -0.72166440591E+02  0.41831739780E+02 -0.13447513397E+03  0.20171504495E+03  0.12509000000E+03 0.  0.
         25    1    3    3    0    0  0.71262221499E+02 -0.86046301571E+02 -0.19293339775E+03  0.25564247357E+03  0.12509000000E+03 0.  0.
<mgrwt>
<rscale>  2 0.45859404E+03</rscale>
<asrwt>0</asrwt>
<pdfrwt beam="1">  1       21 0.15323770E-01 0.45859404E+03</pdfrwt>
<pdfrwt beam="2">  1       21 0.74201616E-01 0.45859404E+03</pdfrwt>
<totfact> 0.56519712E+04</totfact>
</mgrwt>
</event>
<event>
 7    0  0.4691878E-002  0.4196264E+03  0.7546771E-02  0.1037188E+00
         21   -1    0    0  502  501  0.00000000000E+00  0.00000000000E+00  0.33859712640E+02  0.33859712640E+02  0.00000000000E+00 0.  1.
         21   -1    0    0  501  502 -0.00000000000E+00 -0.00000000000E+00 -0.13001166078E+04  0.13001166078E+04  0.00000000000E+00 0.  1.
      99926    2    1    2    0    0  0.00000000000E+00  0.00000000000E+00 -0.12662568952E+04  0.13339763205E+04  0.41962638020E+03 0.  0.
      99925    2    3    3    0    0  0.30993281382E+02  0.57608225569E+02 -0.70734547992E+03  0.75751403258E+03  0.26307905740E+03 0.  0.
         25    1    4    4    0    0  0.51900733676E+02  0.29672016518E+02 -0.41714272572E+03  0.43957897634E+03  0.12509000000E+03 0.  0.
         25    1    4    4    0    0 -0.20907452294E+02  0.27936209051E+02 -0.29020275420E+03  0.31793505624E+03  0.12509000000E+03 0.  0.
         25    1    3    3    0    0 -0.30993281382E+02 -0.57608225569E+02 -0.55891141527E+03  0.57646228789E+03  0.12509000000E+03 0.  0.
<mgrwt>
<rscale>  2 0.41962638E+03</rscale>
<asrwt>0</asrwt>
<pdfrwt beam="1">  1       21 0.49793698E-02 0.41962638E+03</pdfrwt>
<pdfrwt beam="2">  1       21 0.19119361E+00 0.41962638E+03</pdfrwt>
<totfact> 0.37427597E+04</totfact>
</mgrwt>
</event>
<event>
 7    0  0.4691878E-002  0.4476788E+03  0.7546771E-02  0.1028417E+00
         21   -1    0    0  502  501  0.00000000000E+00  0.00000000000E+00  0.16366064870E+04  0.16366064870E+04  0.00000000000E+00 0. -1.
         21   -1    0    0  501  502 -0.00000000000E+00 -0.00000000000E+00 -0.30614615120E+02  0.30614615120E+02  0.00000000000E+00 0. -1.
      99926    2    1    2    0    0  0.00000000000E+00  0.22204460493E-14  0.16059918719E+04  0.16672211021E+04  0.44767880318E+03 0.  0.
      99925    2    3    3    0    0  0.91005674633E+02  0.21464441252E+01  0.12212889687E+04  0.12525761072E+04  0.26289450185E+03 0.  0.
         25    1    3    3    0    0 -0.91005674633E+02 -0.21464441252E+01  0.38470290319E+03  0.41464499498E+03  0.12509000000E+03 0.  0.
         25    1    4    4    0    0  0.61330822699E+02  0.38582591230E+02  0.64279872609E+03  0.65885339531E+03  0.12509000000E+03 0.  0.
         25    1    4    4    0    0  0.29674851934E+02 -0.36436147105E+02  0.57849024263E+03  0.59372271185E+03  0.12509000000E+03 0.  0.
<mgrwt>
<rscale>  2 0.44767880E+03</rscale>
<asrwt>0</asrwt>
<pdfrwt beam="1">  1       21 0.24067737E+00 0.44767880E+03</pdfrwt>
<pdfrwt beam="2">  1       21 0.45021504E-02 0.44767880E+03</pdfrwt>
<totfact> 0.21128298E+04</totfact>
</mgrwt>
</event>
<event>
 7    0  0.4691878E-002  0.4548815E+03  0.7546771E-02  0.1026276E+00
         21   -1    0    0  502  501  0.00000000000E+00  0.00000000000E+00  0.13029071437E+03  0.13029071437E+03  0.00000000000E+00 0.  1.
         21   -1    0    0  501  502 -0.00000000000E+00 -0.00000000000E+00 -0.39702977644E+03  0.39702977644E+03  0.00000000000E+00 0.  1.
      99926    2    1    2    0    0  0.71054273576E-14  0.71054273576E-14 -0.26673906207E+03  0.52732049082E+03  0.45488149314E+03 0.  0.
      99925    2    3    3    0    0 -0.35607193418E+02  0.53877600613E+02 -0.27554079952E+03  0.38626856154E+03  0.26288781136E+03 0.  0.
         25    1    4    4    0    0 -0.41325906454E+02  0.58000325020E+02 -0.12713793825E+03  0.19205059669E+03  0.12509000000E+03 0.  0.
         25    1    3    3    0    0  0.35607193418E+02 -0.53877600613E+02  0.88017374527E+01  0.14105192928E+03  0.12509000000E+03 0.  0.
         25    1    4    4    0    0  0.57187130363E+01 -0.41227244072E+01 -0.14840286127E+03  0.19421796484E+03  0.12509000000E+03 0.  0.
<mgrwt>
<rscale>  2 0.45488149E+03</rscale>
<asrwt>0</asrwt>
<pdfrwt beam="1">  1       21 0.19160399E-01 0.45488149E+03</pdfrwt>
<pdfrwt beam="2">  1       21 0.58386731E-01 0.45488149E+03</pdfrwt>
<totfact> 0.63447869E+04</totfact>
</mgrwt>
</event>
<event>
 7    0  0.4691878E-002  0.4561808E+03  0.7546771E-02  0.1025895E+00
         21   -1    0    0  502  501  0.00000000000E+00  0.00000000000E+00  0.60547479053E+03  0.60547479053E+03  0.00000000000E+00 0.  1.
         21   -1    0    0  501  502 -0.00000000000E+00 -0.00000000000E+00 -0.85924681993E+02  0.85924681993E+02  0.00000000000E+00 0.  1.
      99926    2    1    2    0    0  0.71054273576E-14  0.17763568394E-14  0.51955010853E+03  0.69139947252E+03  0.45618079237E+03 0.  0.
      99925    2    3    3    0    0 -0.55304434837E+02 -0.44926560628E+01  0.47772783477E+03  0.54830728142E+03  0.26332152641E+03 0.  0.
         25    1    4    4    0    0 -0.21849291517E+02  0.26582130613E+02  0.17736540494E+03  0.21974984910E+03  0.12509000000E+03 0.  0.
         25    1    3    3    0    0  0.55304434837E+02  0.44926560628E+01  0.41822273760E+02  0.14309219110E+03  0.12509000000E+03 0.  0.
         25    1    4    4    0    0 -0.33455143320E+02 -0.31074786676E+02  0.30036242983E+03  0.32855743232E+03  0.12509000000E+03 0.  0.
<mgrwt>
<rscale>  2 0.45618079E+03</rscale>
<asrwt>0</asrwt>
<pdfrwt beam="1">  1       21 0.89040408E-01 0.45618079E+03</pdfrwt>
<pdfrwt beam="2">  1       21 0.12635983E-01 0.45618079E+03</pdfrwt>
<totfact> 0.52879261E+04</totfact>
</mgrwt>
</event>
<event>
 7    0  0.4691878E-002  0.4562990E+03  0.7546771E-02  0.1025860E+00
         21   -1    0    0  502  501  0.00000000000E+00  0.00000000000E+00  0.33020478610E+03  0.33020478610E+03  0.00000000000E+00 0.  1.
         21   -1    0    0  501  502 -0.00000000000E+00 -0.00000000000E+00 -0.15763610619E+03  0.15763610619E+03  0.00000000000E+00 0.  1.
      99926    2    1    2    0    0  0.00000000000E+00 -0.35527136788E-14  0.17256867990E+03  0.48784089229E+03  0.45629901042E+03 0.  0.
      99925    2    3    3    0    0  0.79865068213E+02  0.17064635178E+02  0.22825375278E+02  0.27632210761E+03  0.26298912240E+03 0.  0.
         25    1    4    4    0    0  0.55745951695E+02 -0.25569088671E+02  0.27047567222E+02  0.14191711813E+03  0.12509000000E+03 0.  0.
         25    1    4    4    0    0  0.24119116518E+02  0.42633723849E+02 -0.42221919440E+01  0.13440498947E+03  0.12509000000E+03 0.  0.
         25    1    3    3    0    0 -0.79865068213E+02 -0.17064635178E+02  0.14974330462E+03  0.21151878468E+03  0.12509000000E+03 0.  0.
<mgrwt>
<rscale>  2 0.45629901E+03</rscale>
<asrwt>0</asrwt>
<pdfrwt beam="1">  1       21 0.48559527E-01 0.45629901E+03</pdfrwt>
<pdfrwt beam="2">  1       21 0.23181780E-01 0.45629901E+03</pdfrwt>
<totfact> 0.65456012E+04</totfact>
</mgrwt>
</event>
<event>
 7    0  0.4691878E-002  0.4573116E+03  0.7546771E-02  0.1025564E+00
         21   -1    0    0  502  501  0.00000000000E+00  0.00000000000E+00  0.60199785806E+03  0.60199785806E+03  0.00000000000E+00 0. -1.
         21   -1    0    0  501  502 -0.00000000000E+00 -0.00000000000E+00 -0.86849951536E+02  0.86849951536E+02  0.00000000000E+00 0. -1.
      99926    2    1    2    0    0  0.00000000000E+00  0.00000000000E+00  0.51514790653E+03  0.68884780960E+03  0.45731164340E+03 0.  0.
      99925    2    3    3    0    0  0.55138393281E+02  0.99356786462E+02  0.35311606777E+03  0.45472425610E+03  0.26300414130E+03 0.  0.
         25    1    3    3    0    0 -0.55138393281E+02 -0.99356786462E+02  0.16203183876E+03  0.23412355349E+03  0.12509000000E+03 0.  0.
         25    1    4    4    0    0  0.36300572687E+02  0.91955512537E+02  0.20778111974E+03  0.26190465762E+03  0.12509000000E+03 0.  0.
         25    1    4    4    0    0  0.18837820595E+02  0.74012739247E+01  0.14533494803E+03  0.19281959848E+03  0.12509000000E+03 0.  0.
<mgrwt>
<rscale>  2 0.45731164E+03</rscale>
<asrwt>0</asrwt>
<pdfrwt beam="1">  1       21 0.88529094E-01 0.45731164E+03</pdfrwt>
<pdfrwt beam="2">  1       21 0.12772052E-01 0.45731164E+03</pdfrwt>
<totfact> 0.52549922E+04</totfact>
</mgrwt>
</event>
<event>
 7    0  0.4691878E-002  0.4488663E+03  0.7546771E-02  0.1028061E+00
         21   -1    0    0  502  501  0.00000000000E+00  0.00000000000E+00  0.19264740104E+04  0.19264740104E+04  0.00000000000E+00 0.  1.
         21   -1    0    0  501  502 -0.00000000000E+00 -0.00000000000E+00 -0.26146337298E+02  0.26146337298E+02  0.00000000000E+00 0.  1.
      99926    2    1    2    0    0  0.00000000000E+00 -0.44408920985E-15  0.19003276731E+04  0.19526203477E+04  0.44886630201E+03 0.  0.
      99925    2    3    3    0    0 -0.87338479968E+02  0.39739109980E+01  0.14731086993E+04  0.14989603850E+04  0.26303838860E+03 0.  0.
         25    1    3    3    0    0  0.87338479968E+02 -0.39739109980E+01  0.42721897379E+03  0.45365996266E+03  0.12509000000E+03 0.  0.
         25    1    4    4    0    0 -0.27844850654E+02 -0.96759369701E+01  0.90338842073E+03  0.91248403070E+03  0.12509000000E+03 0.  0.
         25    1    4    4    0    0 -0.59493629314E+02  0.13649847968E+02  0.56972027857E+03  0.58647635434E+03  0.12509000000E+03 0.  0.
<mgrwt>
<rscale>  2 0.44886630E+03</rscale>
<asrwt>0</asrwt>
<pdfrwt beam="1">  1       21 0.28330491E+00 0.44886630E+03</pdfrwt>
<pdfrwt beam="2">  1       21 0.38450509E-02 0.44886630E+03</pdfrwt>
<totfact> 0.15210422E+04</totfact>
</mgrwt>
</event>
<event>
 7    0  0.4691878E-002  0.4612084E+03  0.7546771E-02  0.1024431E+00
         21   -1    0    0  502  501  0.00000000000E+00  0.00000000000E+00  0.94383627732E+02  0.94383627732E+02  0.00000000000E+00 0.  1.
         21   -1    0    0  501  502 -0.00000000000E+00 -0.00000000000E+00 -0.56342723435E+03  0.56342723435E+03  0.00000000000E+00 0.  1.
      99926    2    1    2    0    0  0.00000000000E+00  0.00000000000E+00 -0.46904360662E+03  0.65781086208E+03  0.46120844026E+03 0.  0.
      99925    2    3    3    0    0  0.62409385376E+02 -0.69304255636E+02 -0.18820310321E+03  0.33653697941E+03  0.26294242567E+03 0.  0.
         25    1    3    3    0    0 -0.62409385376E+02  0.69304255636E+02 -0.28084050341E+03  0.32127388267E+03  0.12509000000E+03 0.  0.
         25    1    4    4    0    0  0.25553637863E+02 -0.37381168068E+02 -0.45483916130E+02  0.14059386495E+03  0.12509000000E+03 0.  0.
         25    1    4    4    0    0  0.36855747513E+02 -0.31923087569E+02 -0.14271918708E+03  0.19594311446E+03  0.12509000000E+03 0.  0.
<mgrwt>
<rscale>  2 0.46120844E+03</rscale>
<asrwt>0</asrwt>
<pdfrwt beam="1">  1       21 0.13879945E-01 0.46120844E+03</pdfrwt>
<pdfrwt beam="2">  1       21 0.82856948E-01 0.46120844E+03</pdfrwt>
<totfact> 0.52628865E+04</totfact>
</mgrwt>
</event>
<event>
 7    0  0.4691878E-002  0.4593467E+03  0.7546771E-02  0.1024971E+00
         21   -1    0    0  502  501  0.00000000000E+00  0.00000000000E+00  0.51991792432E+03  0.51991792432E+03  0.00000000000E+00 0. -1.
         21   -1    0    0  501  502 -0.00000000000E+00 -0.00000000000E+00 -0.10145801776E+03  0.10145801776E+03  0.00000000000E+00 0. -1.
      99926    2    1    2    0    0  0.00000000000E+00 -0.14210854715E-13  0.41845990657E+03  0.62137594208E+03  0.45934667517E+03 0.  0.
      99925    2    3    3    0    0  0.56058334101E+02  0.97553483402E+02  0.30661021157E+03  0.41934356518E+03  0.26302088295E+03 0.  0.
         25    1    4    4    0    0  0.35119652631E+02  0.69272809358E+01  0.14452763040E+03  0.19446624713E+03  0.12509000000E+03 0.  0.
         25    1    4    4    0    0  0.20938681470E+02  0.90626202466E+02  0.16208258117E+03  0.22487731805E+03  0.12509000000E+03 0.  0.
         25    1    3    3    0    0 -0.56058334101E+02 -0.97553483402E+02  0.11184969499E+03  0.20203237690E+03  0.12509000000E+03 0.  0.
<mgrwt>
<rscale>  2 0.45934668E+03</rscale>
<asrwt>0</asrwt>
<pdfrwt beam="1">  1       21 0.76458517E-01 0.45934668E+03</pdfrwt>
<pdfrwt beam="2">  1       21 0.14920297E-01 0.45934668E+03</pdfrwt>
<totfact> 0.55453456E+04</totfact>
</mgrwt>
</event>
<event>
 7    0  0.4691878E-002  0.4416985E+03  0.7546771E-02  0.1030227E+00
         21   -1    0    0  502  501  0.00000000000E+00  0.00000000000E+00  0.94223324539E+02  0.94223324539E+02  0.00000000000E+00 0. -1.
         21   -1    0    0  501  502 -0.00000000000E+00 -0.00000000000E+00 -0.51764667428E+03  0.51764667428E+03  0.00000000000E+00 0. -1.
      99926    2    1    2    0    0  0.00000000000E+00  0.00000000000E+00 -0.42342334974E+03  0.61186999882E+03  0.44169849711E+03 0.  0.
      99925    2    3    3    0    0 -0.89194962291E+02 -0.34473984763E+02 -0.31034609552E+03  0.41801910136E+03  0.26321298063E+03 0.  0.
         25    1    3    3    0    0  0.89194962291E+02  0.34473984763E+02 -0.11307725422E+03  0.19385089746E+03  0.12509000000E+03 0.  0.
         25    1    4    4    0    0 -0.10573259886E+02 -0.31456925596E+02 -0.11541957143E+03  0.17340852794E+03  0.12509000000E+03 0.  0.
         25    1    4    4    0    0 -0.78621702405E+02 -0.30170591671E+01 -0.19492652409E+03  0.24461057342E+03  0.12509000000E+03 0.  0.
<mgrwt>
<rscale>  2 0.44169850E+03</rscale>
<asrwt>0</asrwt>
<pdfrwt beam="1">  1       21 0.13856371E-01 0.44169850E+03</pdfrwt>
<pdfrwt beam="2">  1       21 0.76124510E-01 0.44169850E+03</pdfrwt>
<totfact> 0.64463384E+04</totfact>
</mgrwt>
</event>
<event>
 7    0  0.4691878E-002  0.4568049E+03  0.7546771E-02  0.1025712E+00
         21   -1    0    0  502  501  0.00000000000E+00  0.00000000000E+00  0.10141536251E+04  0.10141536251E+04  0.00000000000E+00 0.  1.
         21   -1    0    0  501  502 -0.00000000000E+00 -0.00000000000E+00 -0.51439614777E+02  0.51439614777E+02  0.00000000000E+00 0.  1.
      99926    2    1    2    0    0  0.00000000000E+00  0.35527136788E-14  0.96271401028E+03  0.10655932398E+04  0.45680486774E+03 0.  0.
      99925    2    3    3    0    0  0.63079594545E+02  0.28033439204E+02  0.39587357501E+03  0.48102459877E+03  0.26439339679E+03 0.  0.
         25    1    4    4    0    0  0.24970290604E+02 -0.31416735968E+01  0.26140440838E+03  0.29088341023E+03  0.12509000000E+03 0.  0.
         25    1    4    4    0    0  0.38109303940E+02  0.31175112801E+02  0.13446916663E+03  0.19014118854E+03  0.12509000000E+03 0.  0.
         25    1    3    3    0    0 -0.63079594545E+02 -0.28033439204E+02  0.56684043527E+03  0.58456864107E+03  0.12509000000E+03 0.  0.
<mgrwt>
<rscale>  2 0.45680487E+03</rscale>
<asrwt>0</asrwt>
<pdfrwt beam="1">  1       21 0.14914023E+00 0.45680487E+03</pdfrwt>
<pdfrwt beam="2">  1       21 0.75646498E-02 0.45680487E+03</pdfrwt>
<totfact> 0.36197839E+04</totfact>
</mgrwt>
</event>
<event>
 7    0  0.4691878E-002  0.4565301E+03  0.7546771E-02  0.1025792E+00
         21   -1    0    0  502  501  0.00000000000E+00  0.00000000000E+00  0.24917117126E+03  0.24917117126E+03  0.00000000000E+00 0. -1.
         21   -1    0    0  501  502 -0.00000000000E+00 -0.00000000000E+00 -0.20911301496E+03  0.20911301496E+03  0.00000000000E+00 0. -1.
      99926    2    1    2    0    0  0.35527136788E-14  0.00000000000E+00  0.40058156304E+02  0.45828418622E+03  0.45653010794E+03 0.  0.
      99925    2    3    3    0    0  0.17255304015E+02  0.83437694148E+02 -0.51788046331E+02  0.28124513019E+03  0.26297761728E+03 0.  0.
         25    1    3    3    0    0 -0.17255304015E+02 -0.83437694148E+02  0.91846202635E+02  0.17703905603E+03  0.12509000000E+03 0.  0.
         25    1    4    4    0    0 -0.26536164895E+02  0.62206141026E+02 -0.25401043643E+02  0.14445239059E+03  0.12509000000E+03 0.  0.
         25    1    4    4    0    0  0.43791468909E+02  0.21231553122E+02 -0.26387002689E+02  0.13679273960E+03  0.12509000000E+03 0.  0.
<mgrwt>
<rscale>  2 0.45653011E+03</rscale>
<asrwt>0</asrwt>
<pdfrwt beam="1">  1       21 0.36642820E-01 0.45653011E+03</pdfrwt>
<pdfrwt beam="2">  1       21 0.30751914E-01 0.45653011E+03</pdfrwt>
<totfact> 0.67478326E+04</totfact>
</mgrwt>
</event>
<event>
 7    0  0.4691878E-002  0.4585364E+03  0.7546771E-02  0.1025207E+00
         21   -1    0    0  502  501  0.00000000000E+00  0.00000000000E+00  0.23958702074E+03  0.23958702074E+03  0.00000000000E+00 0.  1.
         21   -1    0    0  501  502 -0.00000000000E+00 -0.00000000000E+00 -0.21939380687E+03  0.21939380687E+03  0.00000000000E+00 0.  1.
      99926    2    1    2    0    0  0.00000000000E+00  0.71054273576E-14  0.20193213868E+02  0.45898082761E+03  0.45853640447E+03 0.  0.
      99925    2    3    3    0    0 -0.92316744240E+02 -0.45466856437E+02  0.67230808562E+02  0.29031055840E+03  0.26300308438E+03 0.  0.
         25    1    3    3    0    0  0.92316744240E+02  0.45466856437E+02 -0.47037594694E+02  0.16867026921E+03  0.12509000000E+03 0.  0.
         25    1    4    4    0    0 -0.18909314266E+02  0.71056702848E+01  0.44898063249E+02  0.13442989586E+03  0.12509000000E+03 0.  0.
         25    1    4    4    0    0 -0.73407429975E+02 -0.52572526722E+02  0.22332745313E+02  0.15588066254E+03  0.12509000000E+03 0.  0.
<mgrwt>
<rscale>  2 0.45853640E+03</rscale>
<asrwt>0</asrwt>
<pdfrwt beam="1">  1       21 0.35233385E-01 0.45853640E+03</pdfrwt>
<pdfrwt beam="2">  1       21 0.32263795E-01 0.45853640E+03</pdfrwt>
<totfact> 0.66362772E+04</totfact>
</mgrwt>
</event>
<event>
 7    0  0.4691878E-002  0.4366584E+03  0.7546771E-02  0.1031777E+00
         21   -1    0    0  502  501  0.00000000000E+00  0.00000000000E+00  0.97884804441E+03  0.97884804441E+03  0.00000000000E+00 0.  1.
         21   -1    0    0  501  502 -0.00000000000E+00 -0.00000000000E+00 -0.48697682034E+02  0.48697682034E+02  0.00000000000E+00 0.  1.
      99926    2    1    2    0    0  0.00000000000E+00 -0.71054273576E-14  0.93015036238E+03  0.10275457264E+04  0.43665835994E+03 0.  0.
      99925    2    3    3    0    0  0.63889237553E+02 -0.63880905653E+02  0.66363558621E+03  0.71958430224E+03  0.26310980971E+03 0.  0.
         25    1    4    4    0    0 -0.30581331117E+01 -0.52028171272E+02  0.34045093790E+03  0.36642957305E+03  0.12509000000E+03 0.  0.
         25    1    3    3    0    0 -0.63889237553E+02  0.63880905653E+02  0.26651477616E+03  0.30796142420E+03  0.12509000000E+03 0.  0.
         25    1    4    4    0    0  0.66947370665E+02 -0.11852734381E+02  0.32318464831E+03  0.35315472920E+03  0.12509000000E+03 0.  0.
<mgrwt>
<rscale>  2 0.43665836E+03</rscale>
<asrwt>0</asrwt>
<pdfrwt beam="1">  1       21 0.14394823E+00 0.43665836E+03</pdfrwt>
<pdfrwt beam="2">  1       21 0.71614244E-02 0.43665836E+03</pdfrwt>
<totfact> 0.44096213E+04</totfact>
</mgrwt>
</event>
<event>
 7    0  0.4691878E-002  0.4264618E+03  0.7546771E-02  0.1034984E+00
         21   -1    0    0  502  501  0.00000000000E+00  0.00000000000E+00  0.58064207108E+02  0.58064207108E+02  0.00000000000E+00 0.  1.
         21   -1    0    0  501  502 -0.00000000000E+00 -0.00000000000E+00 -0.78305410709E+03  0.78305410709E+03  0.00000000000E+00 0.  1.
      99926    2    1    2    0    0  0.00000000000E+00 -0.17763568394E-14 -0.72498989998E+03  0.84111831420E+03  0.42646179595E+03 0.  0.
      99925    2    3    3    0    0 -0.66612252319E+02 -0.54944074925E+01 -0.37096677561E+03  0.45974282814E+03  0.26321044575E+03 0.  0.
         25    1    4    4    0    0 -0.61022893212E+02 -0.23146957346E+02 -0.23467714480E+03  0.27382557500E+03  0.12509000000E+03 0.  0.
         25    1    3    3    0    0  0.66612252319E+02  0.54944074925E+01 -0.35402312438E+03  0.38137548606E+03  0.12509000000E+03 0.  0.
         25    1    4    4    0    0 -0.55893591074E+01  0.17652549854E+02 -0.13628963080E+03  0.18591725314E+03  0.12509000000E+03 0.  0.
<mgrwt>
<rscale>  2 0.42646180E+03</rscale>
<asrwt>0</asrwt>
<pdfrwt beam="1">  1       21 0.85388545E-02 0.42646180E+03</pdfrwt>
<pdfrwt beam="2">  1       21 0.11515501E+00 0.42646180E+03</pdfrwt>
<totfact> 0.57713551E+04</totfact>
</mgrwt>
</event>
<event>
 7    0  0.4691878E-002  0.4522741E+03  0.7546771E-02  0.1027046E+00
         21   -1    0    0  502  501  0.00000000000E+00  0.00000000000E+00  0.17009968354E+04  0.17009968354E+04  0.00000000000E+00 0. -1.
         21   -1    0    0  501  502 -0.00000000000E+00 -0.00000000000E+00 -0.30063525937E+02  0.30063525937E+02  0.00000000000E+00 0. -1.
      99926    2    1    2    0    0  0.44408920985E-15  0.00000000000E+00  0.16709333095E+04  0.17310603614E+04  0.45227408717E+03 0.  0.
      99925    2    3    3    0    0  0.25246720666E+01 -0.37594630427E+02  0.65786407984E+03  0.70960233365E+03  0.26330703405E+03 0.  0.
         25    1    4    4    0    0 -0.28061900629E+01  0.22087780656E+02  0.32935886793E+03  0.35301631229E+03  0.12509000000E+03 0.  0.
         25    1    3    3    0    0 -0.25246720666E+01  0.37594630427E+02  0.10130692297E+04  0.10214580277E+04  0.12509000000E+03 0.  0.
         25    1    4    4    0    0  0.53308621295E+01 -0.59682411083E+02  0.32850521191E+03  0.35658602137E+03  0.12509000000E+03 0.  0.
<mgrwt>
<rscale>  2 0.45227409E+03</rscale>
<asrwt>0</asrwt>
<pdfrwt beam="1">  1       21 0.25014653E+00 0.45227409E+03</pdfrwt>
<pdfrwt beam="2">  1       21 0.44211079E-02 0.45227409E+03</pdfrwt>
<totfact> 0.19021913E+04</totfact>
</mgrwt>
</event>
<event>
 7    0  0.4691878E-002  0.4474693E+03  0.7546771E-02  0.1028479E+00
         21   -1    0    0  502  501  0.00000000000E+00  0.00000000000E+00  0.14253664609E+04  0.14253664609E+04  0.00000000000E+00 0.  1.
         21   -1    0    0  501  502 -0.00000000000E+00 -0.00000000000E+00 -0.35118815969E+02  0.35118815969E+02  0.00000000000E+00 0.  1.
      99926    2    1    2    0    0 -0.71054273576E-14 -0.71054273576E-14  0.13902476449E+04  0.14604852768E+04  0.44746925002E+03 0.  0.
      99925    2    3    3    0    0 -0.32038509254E+02 -0.41490651645E+02  0.58069456471E+03  0.63964933830E+03  0.26305352736E+03 0.  0.
         25    1    4    4    0    0 -0.13039239953E+02 -0.15817136271E+02  0.38390627374E+03  0.40429165054E+03  0.12509000000E+03 0.  0.
         25    1    4    4    0    0 -0.18999269301E+02 -0.25673515374E+02  0.19678829097E+03  0.23535768776E+03  0.12509000000E+03 0.  0.
         25    1    3    3    0    0  0.32038509254E+02  0.41490651645E+02  0.80955308018E+03  0.82083593853E+03  0.12509000000E+03 0.  0.
<mgrwt>
<rscale>  2 0.44746925E+03</rscale>
<asrwt>0</asrwt>
<pdfrwt beam="1">  1       21 0.20961268E+00 0.44746925E+03</pdfrwt>
<pdfrwt beam="2">  1       21 0.51645327E-02 0.44746925E+03</pdfrwt>
<totfact> 0.26267279E+04</totfact>
</mgrwt>
</event>
<event>
 7    0  0.4691878E-002  0.4579149E+03  0.7546771E-02  0.1025388E+00
         21   -1    0    0  502  501  0.00000000000E+00  0.00000000000E+00  0.44358390631E+03  0.44358390631E+03  0.00000000000E+00 0. -1.
         21   -1    0    0  501  502 -0.00000000000E+00 -0.00000000000E+00 -0.11817723446E+03  0.11817723446E+03  0.00000000000E+00 0. -1.
      99926    2    1    2    0    0  0.14210854715E-13  0.71054273576E-14  0.32540667185E+03  0.56176114077E+03  0.45791492353E+03 0.  0.
      99925    2    3    3    0    0 -0.77707713879E+02 -0.34853151468E+02  0.10767777771E+03  0.29660720358E+03  0.26292222888E+03 0.  0.
         25    1    4    4    0    0 -0.56198147698E+02 -0.41680653998E+02  0.87444798979E+02  0.16789761669E+03  0.12509000000E+03 0.  0.
         25    1    4    4    0    0 -0.21509566180E+02  0.68275025302E+01  0.20232978731E+02  0.12870958689E+03  0.12509000000E+03 0.  0.
         25    1    3    3    0    0  0.77707713879E+02  0.34853151468E+02  0.21772889414E+03  0.26515393719E+03  0.12509000000E+03 0.  0.
<mgrwt>
<rscale>  2 0.45791492E+03</rscale>
<asrwt>0</asrwt>
<pdfrwt beam="1">  1       21 0.65232927E-01 0.45791492E+03</pdfrwt>
<pdfrwt beam="2">  1       21 0.17379005E-01 0.45791492E+03</pdfrwt>
<totfact> 0.59707396E+04</totfact>
</mgrwt>
</event>
<event>
 6    0  0.4691878E-002  0.4586969E+03  0.7546771E-02  0.1025160E+00
         21   -1    0    0  502  501  0.00000000000E+00  0.00000000000E+00  0.20640451960E+03  0.20640451960E+03  0.00000000000E+00 0. -1.
         21   -1    0    0  501  502 -0.00000000000E+00 -0.00000000000E+00 -0.25484277495E+03  0.25484277495E+03  0.00000000000E+00 0. -1.
      99926    2    1    2    0    0 -0.14210854715E-13  0.00000000000E+00 -0.48438255356E+02  0.46124729455E+03  0.45869685212E+03 0.  0.
         25    1    3    3    0    0  0.23927227678E+02 -0.27026793948E+01  0.20737895951E+02  0.12906349263E+03  0.12509000000E+03 0.  0.
         25    1    3    3    0    0 -0.11219686176E+03 -0.19610514206E+02 -0.23046732100E+02  0.17073771703E+03  0.12509000000E+03 0.  0.
         25    1    3    3    0    0  0.88269634085E+02  0.22313193601E+02 -0.46129419207E+02  0.16144608489E+03  0.12509000000E+03 0.  0.
<mgrwt>
<rscale>  2 0.45869685E+03</rscale>
<asrwt>0</asrwt>
<pdfrwt beam="1">  1       21 0.30353606E-01 0.45869685E+03</pdfrwt>
<pdfrwt beam="2">  1       21 0.37476878E-01 0.45869685E+03</pdfrwt>
<totfact> 0.66118666E+04</totfact>
</mgrwt>
</event>
<event>
 7    0  0.4691878E-002  0.4624623E+03  0.7546771E-02  0.1024069E+00
         21   -1    0    0  502  501  0.00000000000E+00  0.00000000000E+00  0.29099903623E+02  0.29099903623E+02  0.00000000000E+00 0. -1.
         21   -1    0    0  501  502 -0.00000000000E+00 -0.00000000000E+00 -0.18373891059E+04  0.18373891059E+04  0.00000000000E+00 0. -1.
      99926    2    1    2    0    0 -0.35527136788E-14  0.14210854715E-13 -0.18082892023E+04  0.18664890095E+04  0.46246230506E+03 0.  0.
      99925    2    3    3    0    0  0.26279694688E+02 -0.10540639612E+03 -0.92476050818E+03  0.96756098566E+03  0.26304207417E+03 0.  0.
         25    1    3    3    0    0 -0.26279694688E+02  0.10540639612E+03 -0.88352869410E+03  0.89892802386E+03  0.12509000000E+03 0.  0.
         25    1    4    4    0    0  0.25430624387E+02 -0.27558680593E+02 -0.33191146856E+03  0.35667762559E+03  0.12509000000E+03 0.  0.
         25    1    4    4    0    0  0.84907030046E+00 -0.77847715530E+02 -0.59284903962E+03  0.61088336007E+03  0.12509000000E+03 0.  0.
<mgrwt>
<rscale>  2 0.46246231E+03</rscale>
<asrwt>0</asrwt>
<pdfrwt beam="1">  1       21 0.42793964E-02 0.46246231E+03</pdfrwt>
<pdfrwt beam="2">  1       21 0.27020435E+00 0.46246231E+03</pdfrwt>
<totfact> 0.15119760E+04</totfact>
</mgrwt>
</event>
<event>
 7    0  0.4691878E-002  0.4591412E+03  0.7546771E-02  0.1025031E+00
         21   -1    0    0  502  501  0.00000000000E+00  0.00000000000E+00  0.20499599576E+03  0.20499599576E+03  0.00000000000E+00 0. -1.
         21   -1    0    0  501  502 -0.00000000000E+00 -0.00000000000E+00 -0.25709121546E+03  0.25709121546E+03  0.00000000000E+00 0. -1.
      99926    2    1    2    0    0  0.00000000000E+00  0.17763568394E-14 -0.52095219695E+02  0.46208721122E+03  0.45914124064E+03 0.  0.
      99925    2    3    3    0    0 -0.96796377434E+02  0.12001435187E+02  0.32144914859E+02  0.28248353225E+03  0.26315409423E+03 0.  0.
         25    1    4    4    0    0 -0.55049817419E+02  0.36233697739E+02 -0.10517453548E+02  0.14177971709E+03  0.12509000000E+03 0.  0.
         25    1    4    4    0    0 -0.41746560015E+02 -0.24232262551E+02  0.42662368407E+02  0.14070381516E+03  0.12509000000E+03 0.  0.
         25    1    3    3    0    0  0.96796377434E+02 -0.12001435187E+02 -0.84240134554E+02  0.17960367897E+03  0.12509000000E+03 0.  0.
<mgrwt>
<rscale>  2 0.45914124E+03</rscale>
<asrwt>0</asrwt>
<pdfrwt beam="1">  1       21 0.30146470E-01 0.45914124E+03</pdfrwt>
<pdfrwt beam="2">  1       21 0.37807532E-01 0.45914124E+03</pdfrwt>
<totfact> 0.65827577E+04</totfact>
</mgrwt>
</event>
<event>
 7    0  0.4691878E-002  0.4534895E+03  0.7546771E-02  0.1026687E+00
         21   -1    0    0  502  501  0.00000000000E+00  0.00000000000E+00  0.97583377802E+02  0.97583377802E+02  0.00000000000E+00 0. -1.
         21   -1    0    0  501  502 -0.00000000000E+00 -0.00000000000E+00 -0.52686419704E+03  0.52686419704E+03  0.00000000000E+00 0. -1.
      99926    2    1    2    0    0  0.00000000000E+00  0.00000000000E+00 -0.42928081923E+03  0.62444757484E+03  0.45348952795E+03 0.  0.
      99925    2    3    3    0    0 -0.52540723206E+02  0.50275884617E+02 -0.38737259524E+03  0.47380893601E+03  0.26296233216E+03 0.  0.
         25    1    4    4    0    0  0.56212955366E+01  0.88578811560E+01 -0.14422783605E+03  0.19120470134E+03  0.12509000000E+03 0.  0.
         25    1    4    4    0    0 -0.58162018742E+02  0.41418003461E+02 -0.24314475919E+03  0.28260423468E+03  0.12509000000E+03 0.  0.
         25    1    3    3    0    0  0.52540723206E+02 -0.50275884617E+02 -0.41908223996E+02  0.15063863883E+03  0.12509000000E+03 0.  0.
<mgrwt>
<rscale>  2 0.45348953E+03</rscale>
<asrwt>0</asrwt>
<pdfrwt beam="1">  1       21 0.14350497E-01 0.45348953E+03</pdfrwt>
<pdfrwt beam="2">  1       21 0.77480029E-01 0.45348953E+03</pdfrwt>
<totfact> 0.57885377E+04</totfact>
</mgrwt>
</event>
<event>
 7    0  0.4691878E-002  0.4595565E+03  0.7546771E-02  0.1024910E+00
         21   -1    0    0  502  501  0.00000000000E+00  0.00000000000E+00  0.18012021731E+03  0.18012021731E+03  0.00000000000E+00 0.  1.
         21   -1    0    0  501  502 -0.00000000000E+00 -0.00000000000E+00 -0.29312664143E+03  0.29312664143E+03  0.00000000000E+00 0.  1.
      99926    2    1    2    0    0 -0.14210854715E-13  0.00000000000E+00 -0.11300642411E+03  0.47324685874E+03  0.45955645727E+03 0.  0.
      99925    2    3    3    0    0  0.65018245778E+02  0.81650468266E+02 -0.15582789702E+02  0.28342314080E+03  0.26304311843E+03 0.  0.
         25    1    3    3    0    0 -0.65018245778E+02 -0.81650468266E+02 -0.97423634411E+02  0.18982371794E+03  0.12509000000E+03 0.  0.
         25    1    4    4    0    0  0.72463353914E+02  0.40090520946E+02  0.33059770969E+01  0.15005540682E+03  0.12509000000E+03 0.  0.
         25    1    4    4    0    0 -0.74451081360E+01  0.41559947320E+02 -0.18888766799E+02  0.13336773398E+03  0.12509000000E+03 0.  0.
<mgrwt>
<rscale>  2 0.45955646E+03</rscale>
<asrwt>0</asrwt>
<pdfrwt beam="1">  1       21 0.26488268E-01 0.45955646E+03</pdfrwt>
<pdfrwt beam="2">  1       21 0.43106858E-01 0.45955646E+03</pdfrwt>
<totfact> 0.64820125E+04</totfact>
</mgrwt>
</event>
<event>
 7    0  0.4691878E-002  0.4432107E+03  0.7546771E-02  0.1029766E+00
         21   -1    0    0  502  501  0.00000000000E+00  0.00000000000E+00  0.49331841251E+02  0.49331841251E+02  0.00000000000E+00 0.  1.
         21   -1    0    0  501  502 -0.00000000000E+00 -0.00000000000E+00 -0.99548156458E+03  0.99548156458E+03  0.00000000000E+00 0.  1.
      99926    2    1    2    0    0  0.00000000000E+00  0.00000000000E+00 -0.94614972332E+03  0.10448134058E+04  0.44321073323E+03 0.  0.
      99925    2    3    3    0    0 -0.64682628565E+02  0.68853125722E+02 -0.69128160169E+03  0.74559799365E+03  0.26290971823E+03 0.  0.
         25    1    4    4    0    0 -0.41271898678E+01  0.31905954460E+02 -0.24869295477E+03  0.28023332685E+03  0.12509000000E+03 0.  0.
         25    1    3    3    0    0  0.64682628565E+02 -0.68853125722E+02 -0.25486812163E+03  0.29921541218E+03  0.12509000000E+03 0.  0.
         25    1    4    4    0    0 -0.60555438697E+02  0.36947171262E+02 -0.44258864692E+03  0.46536466680E+03  0.12509000000E+03 0.  0.
<mgrwt>
<rscale>  2 0.44321073E+03</rscale>
<asrwt>0</asrwt>
<pdfrwt beam="1">  1       21 0.72546834E-02 0.44321073E+03</pdfrwt>
<pdfrwt beam="2">  1       21 0.14639433E+00 0.44321073E+03</pdfrwt>
<totfact> 0.41124291E+04</totfact>
</mgrwt>
</event>
<event>
 7    0  0.4691878E-002  0.4670000E+03  0.7546771E-02  0.1022770E+00
         21   -1    0    0  502  501  0.00000000000E+00  0.00000000000E+00  0.66407932632E+02  0.66407932632E+02  0.00000000000E+00 0. -1.
         21   -1    0    0  501  502 -0.00000000000E+00 -0.00000000000E+00 -0.82102029067E+03  0.82102029067E+03  0.00000000000E+00 0. -1.
      99926    2    1    2    0    0  0.14210854715E-13  0.35527136788E-14 -0.75461235804E+03  0.88742822331E+03  0.46700004348E+03 0.  0.
      99925    2    3    3    0    0  0.10762429216E+03 -0.28833657337E+02 -0.57371167635E+03  0.64087816187E+03  0.26299308493E+03 0.  0.
         25    1    3    3    0    0 -0.10762429216E+03  0.28833657337E+02 -0.18090068169E+03  0.24655006144E+03  0.12509000000E+03 0.  0.
         25    1    4    4    0    0  0.49538350406E+02  0.25439749594E+02 -0.29414546754E+03  0.32445383831E+03  0.12509000000E+03 0.  0.
         25    1    4    4    0    0  0.58085941755E+02 -0.54273406931E+02 -0.27956620881E+03  0.31642432355E+03  0.12509000000E+03 0.  0.
<mgrwt>
<rscale>  2 0.46700004E+03</rscale>
<asrwt>0</asrwt>
<pdfrwt beam="1">  1       21 0.97658734E-02 0.46700004E+03</pdfrwt>
<pdfrwt beam="2">  1       21 0.12073827E+00 0.46700004E+03</pdfrwt>
<totfact> 0.39898134E+04</totfact>
</mgrwt>
</event>
<event>
 7    0  0.4691878E-002  0.4573853E+03  0.7546771E-02  0.1025542E+00
         21   -1    0    0  502  501  0.00000000000E+00  0.00000000000E+00  0.69438940320E+02  0.69438940320E+02  0.00000000000E+00 0.  1.
         21   -1    0    0  501  502 -0.00000000000E+00 -0.00000000000E+00 -0.75318451290E+03  0.75318451290E+03  0.00000000000E+00 0.  1.
      99926    2    1    2    0    0 -0.27755575616E-14 -0.14210854715E-13 -0.68374557258E+03  0.82262345322E+03  0.45738532745E+03 0.  0.
      99925    2    3    3    0    0 -0.40050608617E+00 -0.11316100444E+03 -0.38863319232E+03  0.48270523010E+03  0.26298860746E+03 0.  0.
         25    1    4    4    0    0 -0.35711516669E+02 -0.77405570750E+02 -0.19858881279E+03  0.24970374341E+03  0.12509000000E+03 0.  0.
         25    1    3    3    0    0  0.40050608617E+00  0.11316100444E+03 -0.29511238026E+03  0.33991822313E+03  0.12509000000E+03 0.  0.
         25    1    4    4    0    0  0.35311010583E+02 -0.35755433694E+02 -0.19004437954E+03  0.23300148669E+03  0.12509000000E+03 0.  0.
<mgrwt>
<rscale>  2 0.45738533E+03</rscale>
<asrwt>0</asrwt>
<pdfrwt beam="1">  1       21 0.10211609E-01 0.45738533E+03</pdfrwt>
<pdfrwt beam="2">  1       21 0.11076242E+00 0.45738533E+03</pdfrwt>
<totfact> 0.45826191E+04</totfact>
</mgrwt>
</event>
<event>
 7    0  0.4691878E-002  0.4520132E+03  0.7546771E-02  0.1027123E+00
         21   -1    0    0  502  501  0.00000000000E+00  0.00000000000E+00  0.18304999333E+03  0.18304999333E+03  0.00000000000E+00 0.  1.
         21   -1    0    0  501  502 -0.00000000000E+00 -0.00000000000E+00 -0.27904390821E+03  0.27904390821E+03  0.00000000000E+00 0.  1.
      99926    2    1    2    0    0 -0.71054273576E-14  0.00000000000E+00 -0.95993914874E+02  0.46209390154E+03  0.45201321015E+03 0.  0.
      99925    2    3    3    0    0  0.44412600769E+02  0.96138831932E+02 -0.92202695191E+02  0.29815173015E+03  0.26301703952E+03 0.  0.
         25    1    4    4    0    0 -0.60797659711E+01  0.21708137064E+02 -0.60876255879E+02  0.14093130738E+03  0.12509000000E+03 0.  0.
         25    1    4    4    0    0  0.50492366740E+02  0.74430694869E+02 -0.31326439313E+02  0.15722042278E+03  0.12509000000E+03 0.  0.
         25    1    3    3    0    0 -0.44412600769E+02 -0.96138831932E+02 -0.37912196822E+01  0.16394217139E+03  0.12509000000E+03 0.  0.
<mgrwt>
<rscale>  2 0.45201321E+03</rscale>
<asrwt>0</asrwt>
<pdfrwt beam="1">  1       21 0.26919117E-01 0.45201321E+03</pdfrwt>
<pdfrwt beam="2">  1       21 0.41035869E-01 0.45201321E+03</pdfrwt>
<totfact> 0.69664796E+04</totfact>
</mgrwt>
</event>
<event>
 7    0  0.4691878E-002  0.4546861E+03  0.7546771E-02  0.1026334E+00
         21   -1    0    0  502  501  0.00000000000E+00  0.00000000000E+00  0.49066704236E+02  0.49066704236E+02  0.00000000000E+00 0. -1.
         21   -1    0    0  501  502 -0.00000000000E+00 -0.00000000000E+00 -0.10533593663E+04  0.10533593663E+04  0.00000000000E+00 0. -1.
      99926    2    1    2    0    0  0.00000000000E+00  0.00000000000E+00 -0.10042926621E+04  0.11024260706E+04  0.45468614442E+03 0.  0.
      99925    2    3    3    0    0 -0.31278531560E+02  0.71983086574E+01 -0.36983159026E+03  0.45495520484E+03  0.26301838544E+03 0.  0.
         25    1    4    4    0    0 -0.12054936945E+02 -0.41215079384E+01 -0.25217644609E+03  0.28178498256E+03  0.12509000000E+03 0.  0.
         25    1    3    3    0    0  0.31278531560E+02 -0.71983086574E+01 -0.63446107185E+03  0.64747086574E+03  0.12509000000E+03 0.  0.
         25    1    4    4    0    0 -0.19223594614E+02  0.11319816596E+02 -0.11765514417E+03  0.17317022229E+03  0.12509000000E+03 0.  0.
<mgrwt>
<rscale>  2 0.45468614E+03</rscale>
<asrwt>0</asrwt>
<pdfrwt beam="1">  1       21 0.72156924E-02 0.45468614E+03</pdfrwt>
<pdfrwt beam="2">  1       21 0.15490578E+00 0.45468614E+03</pdfrwt>
<totfact> 0.35497022E+04</totfact>
</mgrwt>
</event>
<event>
 7    0  0.4691878E-002  0.4604713E+03  0.7546771E-02  0.1024645E+00
         21   -1    0    0  502  501  0.00000000000E+00  0.00000000000E+00  0.66674026820E+02  0.66674026820E+02  0.00000000000E+00 0. -1.
         21   -1    0    0  501  502 -0.00000000000E+00 -0.00000000000E+00 -0.79503913713E+03  0.79503913713E+03  0.00000000000E+00 0. -1.
      99926    2    1    2    0    0  0.35527136788E-14  0.00000000000E+00 -0.72836511031E+03  0.86171316395E+03  0.46047132702E+03 0.  0.
      99925    2    3    3    0    0 -0.23054031727E+02 -0.11444122920E+03 -0.49063983190E+03  0.56881540122E+03  0.26304986732E+03 0.  0.
         25    1    4    4    0    0  0.18085854514E+02 -0.71946583669E+02 -0.29843296140E+03  0.33198365861E+03  0.12509000000E+03 0.  0.
         25    1    4    4    0    0 -0.41139886241E+02 -0.42494645527E+02 -0.19220687051E+03  0.23683174261E+03  0.12509000000E+03 0.  0.
         25    1    3    3    0    0  0.23054031727E+02  0.11444122920E+03 -0.23772527841E+03  0.29289776273E+03  0.12509000000E+03 0.  0.
<mgrwt>
<rscale>  2 0.46047133E+03</rscale>
<asrwt>0</asrwt>
<pdfrwt beam="1">  1       21 0.98050043E-02 0.46047133E+03</pdfrwt>
<pdfrwt beam="2">  1       21 0.11691752E+00 0.46047133E+03</pdfrwt>
<totfact> 0.43042727E+04</totfact>
</mgrwt>
</event>
<event>
 7    0  0.4691878E-002  0.4322984E+03  0.7546771E-02  0.1033136E+00
         21   -1    0    0  502  501  0.00000000000E+00  0.00000000000E+00  0.36000817672E+02  0.36000817672E+02  0.00000000000E+00 0. -1.
         21   -1    0    0  501  502 -0.00000000000E+00 -0.00000000000E+00 -0.12977613142E+04  0.12977613142E+04  0.00000000000E+00 0. -1.
      99926    2    1    2    0    0  0.71054273576E-14  0.00000000000E+00 -0.12617604965E+04  0.13337621319E+04  0.43229836203E+03 0.  0.
      99925    2    3    3    0    0 -0.47409102314E+02 -0.49235226089E+01 -0.10482946962E+04  0.10817958245E+04  0.26284705000E+03 0.  0.
         25    1    4    4    0    0 -0.40873710308E+01 -0.18214050567E+02 -0.63980366995E+03  0.65218456162E+03  0.12509000000E+03 0.  0.
         25    1    4    4    0    0 -0.43321731283E+02  0.13290527958E+02 -0.40849102628E+03  0.42961126287E+03  0.12509000000E+03 0.  0.
         25    1    3    3    0    0  0.47409102314E+02  0.49235226089E+01 -0.21346580032E+03  0.25196630740E+03  0.12509000000E+03 0.  0.
<mgrwt>
<rscale>  2 0.43229836E+03</rscale>
<asrwt>0</asrwt>
<pdfrwt beam="1">  1       21 0.52942379E-02 0.43229836E+03</pdfrwt>
<pdfrwt beam="2">  1       21 0.19084725E+00 0.43229836E+03</pdfrwt>
<totfact> 0.33720672E+04</totfact>
</mgrwt>
</event>
<event>
 7    0  0.4691878E-002  0.4707412E+03  0.7546771E-02  0.1021711E+00
         21   -1    0    0  502  501  0.00000000000E+00  0.00000000000E+00  0.16109404921E+03  0.16109404921E+03  0.00000000000E+00 0. -1.
         21   -1    0    0  501  502 -0.00000000000E+00 -0.00000000000E+00 -0.34389419838E+03  0.34389419838E+03  0.00000000000E+00 0. -1.
      99926    2    1    2    0    0  0.14210854715E-13  0.00000000000E+00 -0.18280014916E+03  0.50498824759E+03  0.47074115570E+03 0.  0.
      99925    2    3    3    0    0 -0.96326556522E+02 -0.55481305591E+02 -0.18048526529E+03  0.33762681969E+03  0.26279261334E+03 0.  0.
         25    1    4    4    0    0 -0.15419796762E+02 -0.18381854532E+02 -0.52553989407E+02  0.13778640213E+03  0.12509000000E+03 0.  0.
         25    1    4    4    0    0 -0.80906759759E+02 -0.37099451058E+02 -0.12793127588E+03  0.19984041756E+03  0.12509000000E+03 0.  0.
         25    1    3    3    0    0  0.96326556522E+02  0.55481305591E+02 -0.23148838719E+01  0.16736142790E+03  0.12509000000E+03 0.  0.
<mgrwt>
<rscale>  2 0.47074116E+03</rscale>
<asrwt>0</asrwt>
<pdfrwt beam="1">  1       21 0.23690302E-01 0.47074116E+03</pdfrwt>
<pdfrwt beam="2">  1       21 0.50572676E-01 0.47074116E+03</pdfrwt>
<totfact> 0.57405868E+04</totfact>
</mgrwt>
</event>
<event>
 7    0  0.4691878E-002  0.4551032E+03  0.7546771E-02  0.1026211E+00
         21   -1    0    0  502  501  0.00000000000E+00  0.00000000000E+00  0.11883657568E+03  0.11883657568E+03  0.00000000000E+00 0. -1.
         21   -1    0    0  501  502 -0.00000000000E+00 -0.00000000000E+00 -0.43572220757E+03  0.43572220757E+03  0.00000000000E+00 0. -1.
      99926    2    1    2    0    0 -0.14210854715E-13  0.00000000000E+00 -0.31688563189E+03  0.55455878325E+03  0.45510321948E+03 0.  0.
      99925    2    3    3    0    0  0.10757712233E+03  0.13567076798E+02 -0.23933287735E+03  0.37175057594E+03  0.26298547814E+03 0.  0.
         25    1    4    4    0    0  0.24672870075E+02  0.16989638866E+02 -0.73809065317E+02  0.14829930738E+03  0.12509000000E+03 0.  0.
         25    1    3    3    0    0 -0.10757712233E+03 -0.13567076798E+02 -0.77552754545E+02  0.18280820731E+03  0.12509000000E+03 0.  0.
         25    1    4    4    0    0  0.82904252252E+02 -0.34225620680E+01 -0.16552381203E+03  0.22345126856E+03  0.12509000000E+03 0.  0.
<mgrwt>
<rscale>  2 0.45510322E+03</rscale>
<asrwt>0</asrwt>
<pdfrwt beam="1">  1       21 0.17475967E-01 0.45510322E+03</pdfrwt>
<pdfrwt beam="2">  1       21 0.64076795E-01 0.45510322E+03</pdfrwt>
<totfact> 0.61516018E+04</totfact>
</mgrwt>
</event>
<event>
 7    0  0.4691878E-002  0.4479660E+03  0.7546771E-02  0.1028330E+00
         21   -1    0    0  502  501  0.00000000000E+00  0.00000000000E+00  0.89744221228E+02  0.89744221228E+02  0.00000000000E+00 0.  1.
         21   -1    0    0  501  502 -0.00000000000E+00 -0.00000000000E+00 -0.55901526255E+03  0.55901526255E+03  0.00000000000E+00 0.  1.
      99926    2    1    2    0    0  0.00000000000E+00  0.14210854715E-13 -0.46927104132E+03  0.64875948378E+03  0.44796602278E+03 0.  0.
      99925    2    3    3    0    0 -0.63461345445E+02  0.75186992741E+02 -0.23705941073E+03  0.36724540647E+03  0.26266251752E+03 0.  0.
         25    1    4    4    0    0 -0.70502465090E+02  0.50923189807E+02 -0.14006374182E+03  0.20695199616E+03  0.12509000000E+03 0.  0.
         25    1    3    3    0    0  0.63461345445E+02 -0.75186992741E+02 -0.23221163059E+03  0.28151407731E+03  0.12509000000E+03 0.  0.
         25    1    4    4    0    0  0.70411196455E+01  0.24263802934E+02 -0.96995668918E+02  0.16029341031E+03  0.12509000000E+03 0.  0.
<mgrwt>
<rscale>  2 0.44796602E+03</rscale>
<asrwt>0</asrwt>
<pdfrwt beam="1">  1       21 0.13197679E-01 0.44796602E+03</pdfrwt>
<pdfrwt beam="2">  1       21 0.82208129E-01 0.44796602E+03</pdfrwt>
<totfact> 0.58978189E+04</totfact>
</mgrwt>
</event>
<event>
 7    0  0.4691878E-002  0.4532128E+03  0.7546771E-02  0.1026768E+00
         21   -1    0    0  502  501  0.00000000000E+00  0.00000000000E+00  0.39416783150E+02  0.39416783150E+02  0.00000000000E+00 0. -1.
         21   -1    0    0  501  502 -0.00000000000E+00 -0.00000000000E+00 -0.13027561519E+04  0.13027561519E+04  0.00000000000E+00 0. -1.
      99926    2    1    2    0    0  0.00000000000E+00  0.00000000000E+00 -0.12633393687E+04  0.13421729350E+04  0.45321278330E+03 0.  0.
      99925    2    3    3    0    0 -0.69626447413E+02  0.54348645179E+02 -0.59540831340E+03  0.65691311555E+03  0.26310105342E+03 0.  0.
         25    1    4    4    0    0 -0.60360575880E+02  0.50692998413E+02 -0.37802264348E+03  0.40590861816E+03  0.12509000000E+03 0.  0.
         25    1    4    4    0    0 -0.92658715327E+01  0.36556467662E+01 -0.21738566991E+03  0.25100449740E+03  0.12509000000E+03 0.  0.
         25    1    3    3    0    0  0.69626447413E+02 -0.54348645179E+02 -0.66793105531E+03  0.68525981946E+03  0.12509000000E+03 0.  0.
<mgrwt>
<rscale>  2 0.45321278E+03</rscale>
<asrwt>0</asrwt>
<pdfrwt beam="1">  1       21 0.57965875E-02 0.45321278E+03</pdfrwt>
<pdfrwt beam="2">  1       21 0.19158173E+00 0.45321278E+03</pdfrwt>
<totfact> 0.28305415E+04</totfact>
</mgrwt>
</event>
<event>
 7    0  0.4691878E-002  0.4630735E+03  0.7546771E-02  0.1023894E+00
         21   -1    0    0  502  501  0.00000000000E+00  0.00000000000E+00  0.27164181914E+02  0.27164181914E+02  0.00000000000E+00 0.  1.
         21   -1    0    0  501  502 -0.00000000000E+00 -0.00000000000E+00 -0.19735273237E+04  0.19735273237E+04  0.00000000000E+00 0.  1.
      99926    2    1    2    0    0  0.14210854715E-13  0.00000000000E+00 -0.19463631418E+04  0.20006915057E+04  0.46307345091E+03 0.  0.
      99925    2    3    3    0    0  0.62411213586E+02  0.14093238016E+02 -0.16577303031E+04  0.16796771716E+04  0.26296742050E+03 0.  0.
         25    1    4    4    0    0  0.93759899265E+01 -0.18140537066E+02 -0.64184841187E+03  0.65424298253E+03  0.12509000000E+03 0.  0.
         25    1    3    3    0    0 -0.62411213586E+02 -0.14093238016E+02 -0.28863283874E+03  0.32101433401E+03  0.12509000000E+03 0.  0.
         25    1    4    4    0    0  0.53035223660E+02  0.32233775082E+02 -0.10158818912E+04  0.10254341891E+04  0.12509000000E+03 0.  0.
<mgrwt>
<rscale>  2 0.46307345E+03</rscale>
<asrwt>0</asrwt>
<pdfrwt beam="1">  1       21 0.39947333E-02 0.46307345E+03</pdfrwt>
<pdfrwt beam="2">  1       21 0.29022456E+00 0.46307345E+03</pdfrwt>
<totfact> 0.12872632E+04</totfact>
</mgrwt>
</event>
<event>
 7    0  0.4691878E-002  0.4575973E+03  0.7546771E-02  0.1025480E+00
         21   -1    0    0  502  501  0.00000000000E+00  0.00000000000E+00  0.13101351654E+03  0.13101351654E+03  0.00000000000E+00 0.  1.
         21   -1    0    0  501  502 -0.00000000000E+00 -0.00000000000E+00 -0.39956802214E+03  0.39956802214E+03  0.00000000000E+00 0.  1.
      99926    2    1    2    0    0  0.00000000000E+00  0.00000000000E+00 -0.26855450561E+03  0.53058153868E+03  0.45759725382E+03 0.  0.
      99925    2    3    3    0    0  0.45852161540E+02 -0.86953887239E+02 -0.97409693580E+02  0.29691199850E+03  0.26268743256E+03 0.  0.
         25    1    4    4    0    0  0.17856851567E+02 -0.84911364059E+02 -0.50382441000E+02  0.16035805360E+03  0.12509000000E+03 0.  0.
         25    1    3    3    0    0 -0.45852161540E+02  0.86953887239E+02 -0.17114481202E+03  0.23366954018E+03  0.12509000000E+03 0.  0.
         25    1    4    4    0    0  0.27995309973E+02 -0.20425231799E+01 -0.47027252580E+02  0.13655394490E+03  0.12509000000E+03 0.  0.
<mgrwt>
<rscale>  2 0.45759725E+03</rscale>
<asrwt>0</asrwt>
<pdfrwt beam="1">  1       21 0.19266694E-01 0.45759725E+03</pdfrwt>
<pdfrwt beam="2">  1       21 0.58760002E-01 0.45759725E+03</pdfrwt>
<totfact> 0.61883381E+04</totfact>
</mgrwt>
</event>
<event>
 7    0  0.4691878E-002  0.4480847E+03  0.7546771E-02  0.1028295E+00
         21   -1    0    0  502  501  0.00000000000E+00  0.00000000000E+00  0.70523533255E+03  0.70523533255E+03  0.00000000000E+00 0. -1.
         21   -1    0    0  501  502 -0.00000000000E+00 -0.00000000000E+00 -0.71174781119E+02  0.71174781119E+02  0.00000000000E+00 0. -1.
      99926    2    1    2    0    0 -0.35527136788E-14  0.00000000000E+00  0.63406055143E+03  0.77641011367E+03  0.44808468142E+03 0.  0.
      99925    2    3    3    0    0  0.30146471853E+02 -0.10214820855E+03  0.39553379570E+03  0.48678002619E+03  0.26299190877E+03 0.  0.
         25    1    3    3    0    0 -0.30146471853E+02  0.10214820855E+03  0.23852675573E+03  0.28963008748E+03  0.12509000000E+03 0.  0.
         25    1    4    4    0    0  0.47494554106E+01 -0.23963282244E+02  0.23466794450E+03  0.26704559255E+03  0.12509000000E+03 0.  0.
         25    1    4    4    0    0  0.25397016442E+02 -0.78184926303E+02  0.16086585120E+03  0.21973443364E+03  0.12509000000E+03 0.  0.
<mgrwt>
<rscale>  2 0.44808468E+03</rscale>
<asrwt>0</asrwt>
<pdfrwt beam="1">  1       21 0.10371107E+00 0.44808468E+03</pdfrwt>
<pdfrwt beam="2">  1       21 0.10466880E-01 0.44808468E+03</pdfrwt>
<totfact> 0.51675512E+04</totfact>
</mgrwt>
</event>
<event>
 7    0  0.4691878E-002  0.4555750E+03  0.7546771E-02  0.1026072E+00
         21   -1    0    0  502  501  0.00000000000E+00  0.00000000000E+00  0.88948456452E+02  0.88948456452E+02  0.00000000000E+00 0.  1.
         21   -1    0    0  501  502 -0.00000000000E+00 -0.00000000000E+00 -0.58333943284E+03  0.58333943284E+03  0.00000000000E+00 0.  1.
      99926    2    1    2    0    0  0.00000000000E+00  0.00000000000E+00 -0.49439097639E+03  0.67228788929E+03  0.45557498675E+03 0.  0.
      99925    2    3    3    0    0 -0.10037410935E+02 -0.11002815695E+03 -0.27111868289E+03  0.39353177710E+03  0.26297333408E+03 0.  0.
         25    1    4    4    0    0 -0.10327209230E+02 -0.89116482443E+02 -0.11366425327E+03  0.19135169000E+03  0.12509000000E+03 0.  0.
         25    1    3    3    0    0  0.10037410935E+02  0.11002815695E+03 -0.22327229350E+03  0.27875611219E+03  0.12509000000E+03 0.  0.
         25    1    4    4    0    0  0.28979829495E+00 -0.20911674509E+02 -0.15745442963E+03  0.20218008711E+03  0.12509000000E+03 0.  0.
<mgrwt>
<rscale>  2 0.45557499E+03</rscale>
<asrwt>0</asrwt>
<pdfrwt beam="1">  1       21 0.13080655E-01 0.45557499E+03</pdfrwt>
<pdfrwt beam="2">  1       21 0.85785212E-01 0.45557499E+03</pdfrwt>
<totfact> 0.54187728E+04</totfact>
</mgrwt>
</event>
<event>
 7    0  0.4691878E-002  0.4610194E+03  0.7546771E-02  0.1024486E+00
         21   -1    0    0  502  501  0.00000000000E+00  0.00000000000E+00  0.73619479564E+03  0.73619479564E+03  0.00000000000E+00 0.  1.
         21   -1    0    0  501  502 -0.00000000000E+00 -0.00000000000E+00 -0.72174821094E+02  0.72174821094E+02  0.00000000000E+00 0.  1.
      99926    2    1    2    0    0  0.00000000000E+00  0.00000000000E+00  0.66401997455E+03  0.80836961674E+03  0.46101942547E+03 0.  0.
      99925    2    3    3    0    0  0.63621934560E+02  0.98643962360E+02  0.44685073946E+03  0.53162358400E+03  0.26300127346E+03 0.  0.
         25    1    4    4    0    0 -0.63825639757E+01  0.31764741103E+02  0.18381499523E+03  0.22468911071E+03  0.12509000000E+03 0.  0.
         25    1    3    3    0    0 -0.63621934560E+02 -0.98643962360E+02  0.21716923509E+03  0.27674603274E+03  0.12509000000E+03 0.  0.
         25    1    4    4    0    0  0.70004498536E+02  0.66879221256E+02  0.26303574423E+03  0.30693447329E+03  0.12509000000E+03 0.  0.
<mgrwt>
<rscale>  2 0.46101943E+03</rscale>
<asrwt>0</asrwt>
<pdfrwt beam="1">  1       21 0.10826394E+00 0.46101943E+03</pdfrwt>
<pdfrwt beam="2">  1       21 0.10613945E-01 0.46101943E+03</pdfrwt>
<totfact> 0.45189927E+04</totfact>
</mgrwt>
</event>
<event>
 7    0  0.4691878E-002  0.4608049E+03  0.7546771E-02  0.1024548E+00
         21   -1    0    0  502  501  0.00000000000E+00  0.00000000000E+00  0.16036863149E+04  0.16036863149E+04  0.00000000000E+00 0. -1.
         21   -1    0    0  501  502 -0.00000000000E+00 -0.00000000000E+00 -0.33102043698E+02  0.33102043698E+02  0.00000000000E+00 0. -1.
      99926    2    1    2    0    0  0.00000000000E+00  0.71054273576E-14  0.15705842712E+04  0.16367883586E+04  0.46080492391E+03 0.  0.
      99925    2    3    3    0    0 -0.10369468019E+02  0.55277057928E+02  0.13537453200E+04  0.13802153323E+04  0.26306822863E+03 0.  0.
         25    1    3    3    0    0  0.10369468019E+02 -0.55277057928E+02  0.21683895122E+03  0.25657302638E+03  0.12509000000E+03 0.  0.
         25    1    4    4    0    0 -0.28528607573E+01 -0.11987657124E+02  0.69739997737E+03  0.70863677528E+03  0.12509000000E+03 0.  0.
         25    1    4    4    0    0 -0.75166072618E+01  0.67264715053E+02  0.65634534265E+03  0.67157855697E+03  0.12509000000E+03 0.  0.
<mgrwt>
<rscale>  2 0.46080492E+03</rscale>
<asrwt>0</asrwt>
<pdfrwt beam="1">  1       21 0.23583617E+00 0.46080492E+03</pdfrwt>
<pdfrwt beam="2">  1       21 0.48679487E-02 0.46080492E+03</pdfrwt>
<totfact> 0.19707733E+04</totfact>
</mgrwt>
</event>
<event>
 7    0  0.4691878E-002  0.4535407E+03  0.7546771E-02  0.1026671E+00
         21   -1    0    0  502  501  0.00000000000E+00  0.00000000000E+00  0.30260930161E+03  0.30260930161E+03  0.00000000000E+00 0. -1.
         21   -1    0    0  501  502 -0.00000000000E+00 -0.00000000000E+00 -0.16993788881E+03  0.16993788881E+03  0.00000000000E+00 0. -1.
      99926    2    1    2    0    0  0.00000000000E+00  0.17763568394E-14  0.13267141281E+03  0.47254719042E+03  0.45354067447E+03 0.  0.
      99925    2    3    3    0    0 -0.20081781988E+02  0.85927612329E+01  0.19771862571E+03  0.32987357156E+03  0.26314787619E+03 0.  0.
         25    1    4    4    0    0  0.27131131151E+02  0.21255399756E+02  0.97103314418E+02  0.16206311137E+03  0.12509000000E+03 0.  0.
         25    1    4    4    0    0 -0.47212913139E+02 -0.12662638523E+02  0.10061531129E+03  0.16781046018E+03  0.12509000000E+03 0.  0.
         25    1    3    3    0    0  0.20081781988E+02 -0.85927612329E+01 -0.65047212900E+02  0.14267361886E+03  0.12509000000E+03 0.  0.
<mgrwt>
<rscale>  2 0.45354067E+03</rscale>
<asrwt>0</asrwt>
<pdfrwt beam="1">  1       21 0.44501368E-01 0.45354067E+03</pdfrwt>
<pdfrwt beam="2">  1       21 0.24990866E-01 0.45354067E+03</pdfrwt>
<totfact> 0.68031164E+04</totfact>
</mgrwt>
</event>
<event>
 7    0  0.4691878E-002  0.4579808E+03  0.7546771E-02  0.1025368E+00
         21   -1    0    0  502  501  0.00000000000E+00  0.00000000000E+00  0.80796246197E+02  0.80796246197E+02  0.00000000000E+00 0.  1.
         21   -1    0    0  501  502 -0.00000000000E+00 -0.00000000000E+00 -0.64899797106E+03  0.64899797106E+03  0.00000000000E+00 0.  1.
      99926    2    1    2    0    0  0.00000000000E+00  0.00000000000E+00 -0.56820172486E+03  0.72979421725E+03  0.45798078497E+03 0.  0.
      99925    2    3    3    0    0  0.68821855765E+02  0.31117495068E+02 -0.21640427174E+03  0.34885629258E+03  0.26299269518E+03 0.  0.
         25    1    4    4    0    0  0.60868796335E+02  0.30957026737E+02 -0.15039619378E+03  0.20719524868E+03  0.12509000000E+03 0.  0.
         25    1    3    3    0    0 -0.68821855765E+02 -0.31117495068E+02 -0.35179745312E+03  0.38093792467E+03  0.12509000000E+03 0.  0.
         25    1    4    4    0    0  0.79530594301E+01  0.16046833058E+00 -0.66008077961E+02  0.14166104391E+03  0.12509000000E+03 0.  0.
<mgrwt>
<rscale>  2 0.45798078E+03</rscale>
<asrwt>0</asrwt>
<pdfrwt beam="1">  1       21 0.11881801E-01 0.45798078E+03</pdfrwt>
<pdfrwt beam="2">  1       21 0.95440877E-01 0.45798078E+03</pdfrwt>
<totfact> 0.50129636E+04</totfact>
</mgrwt>
</event>
<event>
 7    0  0.4691878E-002  0.4490103E+03  0.7546771E-02  0.1028018E+00
         21   -1    0    0  502  501  0.00000000000E+00  0.00000000000E+00  0.65768306452E+03  0.65768306452E+03  0.00000000000E+00 0.  1.
         21   -1    0    0  501  502 -0.00000000000E+00 -0.00000000000E+00 -0.76636539031E+02  0.76636539031E+02  0.00000000000E+00 0.  1.
      99926    2    1    2    0    0  0.00000000000E+00  0.14210854715E-13  0.58104652549E+03  0.73431960355E+03  0.44901026199E+03 0.  0.
      99925    2    3    3    0    0  0.19829157099E+02  0.94599827469E+02  0.44439085798E+03  0.52535883597E+03  0.26301397118E+03 0.  0.
         25    1    4    4    0    0  0.15385790463E+02  0.49715757322E+02  0.14882170966E+03  0.20125553021E+03  0.12509000000E+03 0.  0.
         25    1    3    3    0    0 -0.19829157099E+02 -0.94599827469E+02  0.13665566750E+03  0.20896076758E+03  0.12509000000E+03 0.  0.
         25    1    4    4    0    0  0.44433666364E+01  0.44884070147E+02  0.29556914832E+03  0.32410330575E+03  0.12509000000E+03 0.  0.
<mgrwt>
<rscale>  2 0.44901026E+03</rscale>
<asrwt>0</asrwt>
<pdfrwt beam="1">  1       21 0.96718095E-01 0.44901026E+03</pdfrwt>
<pdfrwt beam="2">  1       21 0.11270080E-01 0.44901026E+03</pdfrwt>
<totfact> 0.53556981E+04</totfact>
</mgrwt>
</event>
<event>
 7    0  0.4691878E-002  0.4437815E+03  0.7546771E-02  0.1029593E+00
         21   -1    0    0  502  501  0.00000000000E+00  0.00000000000E+00  0.44730476855E+03  0.44730476855E+03  0.00000000000E+00 0. -1.
         21   -1    0    0  501  502 -0.00000000000E+00 -0.00000000000E+00 -0.11007150485E+03  0.11007150485E+03  0.00000000000E+00 0. -1.
      99926    2    1    2    0    0  0.14210854715E-13  0.00000000000E+00  0.33723326371E+03  0.55737627340E+03  0.44378151832E+03 0.  0.
      99925    2    3    3    0    0  0.76102607422E+02  0.68375694187E+02  0.20858780864E+03  0.35082360791E+03  0.26287161799E+03 0.  0.
         25    1    4    4    0    0  0.27704402885E+02 -0.36093776190E+01  0.76386433140E+02  0.14920776392E+03  0.12509000000E+03 0.  0.
         25    1    3    3    0    0 -0.76102607422E+02 -0.68375694187E+02  0.12864545507E+03  0.20655266549E+03  0.12509000000E+03 0.  0.
         25    1    4    4    0    0  0.48398204536E+02  0.71985071806E+02  0.13220137550E+03  0.20161584399E+03  0.12509000000E+03 0.  0.
<mgrwt>
<rscale>  2 0.44378152E+03</rscale>
<asrwt>0</asrwt>
<pdfrwt beam="1">  1       21 0.65780112E-01 0.44378152E+03</pdfrwt>
<pdfrwt beam="2">  1       21 0.16186986E-01 0.44378152E+03</pdfrwt>
<totfact> 0.67144759E+04</totfact>
</mgrwt>
</event>
<event>
 7    0  0.4691878E-002  0.4387067E+03  0.7546771E-02  0.1031144E+00
         21   -1    0    0  502  501  0.00000000000E+00  0.00000000000E+00  0.19695356124E+03  0.19695356124E+03  0.00000000000E+00 0. -1.
         21   -1    0    0  501  502 -0.00000000000E+00 -0.00000000000E+00 -0.24430070865E+03  0.24430070865E+03  0.00000000000E+00 0. -1.
      99926    2    1    2    0    0  0.00000000000E+00  0.35527136788E-14 -0.47347147411E+02  0.44125426988E+03  0.43870671105E+03 0.  0.
      99925    2    3    3    0    0  0.88559391991E+02  0.28354055019E+02 -0.58189340605E+02  0.28501157534E+03  0.26305680065E+03 0.  0.
         25    1    3    3    0    0 -0.88559391991E+02 -0.28354055019E+02  0.10842193194E+02  0.15624269455E+03  0.12509000000E+03 0.  0.
         25    1    4    4    0    0  0.55476091151E+02 -0.24157054410E+02 -0.36767235260E+02  0.14373760001E+03  0.12509000000E+03 0.  0.
         25    1    4    4    0    0  0.33083300841E+02  0.52511109429E+02 -0.21422105346E+02  0.14127397533E+03  0.12509000000E+03 0.  0.
<mgrwt>
<rscale>  2 0.43870671E+03</rscale>
<asrwt>0</asrwt>
<pdfrwt beam="1">  1       21 0.28963759E-01 0.43870671E+03</pdfrwt>
<pdfrwt beam="2">  1       21 0.35926575E-01 0.43870671E+03</pdfrwt>
<totfact> 0.79394463E+04</totfact>
</mgrwt>
</event>
<event>
 7    0  0.4691878E-002  0.4537384E+03  0.7546771E-02  0.1026613E+00
         21   -1    0    0  502  501  0.00000000000E+00  0.00000000000E+00  0.32474583357E+03  0.32474583357E+03  0.00000000000E+00 0. -1.
         21   -1    0    0  501  502 -0.00000000000E+00 -0.00000000000E+00 -0.15849204790E+03  0.15849204790E+03  0.00000000000E+00 0. -1.
      99926    2    1    2    0    0  0.00000000000E+00  0.00000000000E+00  0.16625378567E+03  0.48323788146E+03  0.45373839250E+03 0.  0.
      99925    2    3    3    0    0 -0.19905702068E+02  0.18123006580E+02  0.22046455951E+03  0.34427387014E+03  0.26304979628E+03 0.  0.
         25    1    4    4    0    0 -0.17352056198E+02  0.20501414918E+02  0.16122602285E+03  0.20582210865E+03  0.12509000000E+03 0.  0.
         25    1    3    3    0    0  0.19905702068E+02 -0.18123006580E+02 -0.54210773836E+02  0.13896401132E+03  0.12509000000E+03 0.  0.
         25    1    4    4    0    0 -0.25536458700E+01 -0.23784083383E+01  0.59238536661E+02  0.13845176149E+03  0.12509000000E+03 0.  0.
<mgrwt>
<rscale>  2 0.45373839E+03</rscale>
<asrwt>0</asrwt>
<pdfrwt beam="1">  1       21 0.47756740E-01 0.45373839E+03</pdfrwt>
<pdfrwt beam="2">  1       21 0.23307654E-01 0.45373839E+03</pdfrwt>
<totfact> 0.67134991E+04</totfact>
</mgrwt>
</event>
<event>
 7    0  0.4691878E-002  0.4225142E+03  0.7546771E-02  0.1036251E+00
         21   -1    0    0  502  501  0.00000000000E+00  0.00000000000E+00  0.42180189629E+03  0.42180189629E+03  0.00000000000E+00 0. -1.
         21   -1    0    0  501  502 -0.00000000000E+00 -0.00000000000E+00 -0.10580692638E+03  0.10580692638E+03  0.00000000000E+00 0. -1.
      99926    2    1    2    0    0  0.00000000000E+00  0.00000000000E+00  0.31599496990E+03  0.52760882267E+03  0.42251419948E+03 0.  0.
      99925    2    3    3    0    0 -0.54854092971E+02  0.54797281735E+02  0.22501586893E+03  0.35458738321E+03  0.26284664247E+03 0.  0.
         25    1    4    4    0    0 -0.72883777407E+00  0.34933472129E+02  0.14751611306E+03  0.19654360939E+03  0.12509000000E+03 0.  0.
         25    1    4    4    0    0 -0.54125255197E+02  0.19863809606E+02  0.77499755867E+02  0.15804377381E+03  0.12509000000E+03 0.  0.
         25    1    3    3    0    0  0.54854092971E+02 -0.54797281735E+02  0.90979100973E+02  0.17302143947E+03  0.12509000000E+03 0.  0.
<mgrwt>
<rscale>  2 0.42251420E+03</rscale>
<asrwt>0</asrwt>
<pdfrwt beam="1">  1       21 0.62029690E-01 0.42251420E+03</pdfrwt>
<pdfrwt beam="2">  1       21 0.15559842E-01 0.42251420E+03</pdfrwt>
<totfact> 0.82665916E+04</totfact>
</mgrwt>
</event>
<event>
 7    0  0.4691878E-002  0.4211106E+03  0.7546771E-02  0.1036705E+00
         21   -1    0    0  502  501  0.00000000000E+00  0.00000000000E+00  0.19614869201E+03  0.19614869201E+03  0.00000000000E+00 0.  1.
         21   -1    0    0  501  502 -0.00000000000E+00 -0.00000000000E+00 -0.22602005887E+03  0.22602005887E+03  0.00000000000E+00 0.  1.
      99926    2    1    2    0    0 -0.71054273576E-14  0.35527136788E-14 -0.29871366863E+02  0.42216875088E+03  0.42111062165E+03 0.  0.
      99925    2    3    3    0    0  0.51709952192E+02 -0.23796855018E+02  0.32589133380E+02  0.27120838637E+03  0.26315723010E+03 0.  0.
         25    1    4    4    0    0  0.46438159837E+02 -0.15808802030E+02  0.52356184083E+02  0.14420505893E+03  0.12509000000E+03 0.  0.
         25    1    3    3    0    0 -0.51709952192E+02  0.23796855018E+02 -0.62460500243E+02  0.15096036452E+03  0.12509000000E+03 0.  0.
         25    1    4    4    0    0  0.52717923548E+01 -0.79880529873E+01 -0.19767050703E+02  0.12700332743E+03  0.12509000000E+03 0.  0.
<mgrwt>
<rscale>  2 0.42111062E+03</rscale>
<asrwt>0</asrwt>
<pdfrwt beam="1">  1       21 0.28845396E-01 0.42111062E+03</pdfrwt>
<pdfrwt beam="2">  1       21 0.33238244E-01 0.42111062E+03</pdfrwt>
<totfact> 0.93974864E+04</totfact>
</mgrwt>
</event>
<event>
 7    0  0.4691878E-002  0.4433678E+03  0.7546771E-02  0.1029718E+00
         21   -1    0    0  502  501  0.00000000000E+00  0.00000000000E+00  0.32557592586E+03  0.32557592586E+03  0.00000000000E+00 0. -1.
         21   -1    0    0  501  502 -0.00000000000E+00 -0.00000000000E+00 -0.15094406062E+03  0.15094406062E+03  0.00000000000E+00 0. -1.
      99926    2    1    2    0    0  0.00000000000E+00  0.14210854715E-13  0.17463186524E+03  0.47651998647E+03  0.44336780347E+03 0.  0.
      99925    2    3    3    0    0  0.27039601137E+02 -0.94060934045E+02  0.14086233712E+03  0.31414237573E+03  0.26318175253E+03 0.  0.
         25    1    4    4    0    0 -0.20143063941E+02 -0.68543802438E+02  0.82936776036E+02  0.16622278062E+03  0.12509000000E+03 0.  0.
         25    1    3    3    0    0 -0.27039601137E+02  0.94060934045E+02  0.33769528117E+02  0.16237761075E+03  0.12509000000E+03 0.  0.
         25    1    4    4    0    0  0.47182665078E+02 -0.25517131607E+02  0.57925561085E+02  0.14791959511E+03  0.12509000000E+03 0.  0.
<mgrwt>
<rscale>  2 0.44336780E+03</rscale>
<asrwt>0</asrwt>
<pdfrwt beam="1">  1       21 0.47878812E-01 0.44336780E+03</pdfrwt>
<pdfrwt beam="2">  1       21 0.22197656E-01 0.44336780E+03</pdfrwt>
<totfact> 0.73511156E+04</totfact>
</mgrwt>
</event>
<event>
 7    0  0.4691878E-002  0.4543938E+03  0.7546771E-02  0.1026420E+00
         21   -1    0    0  502  501  0.00000000000E+00  0.00000000000E+00  0.52282889954E+03  0.52282889954E+03  0.00000000000E+00 0.  1.
         21   -1    0    0  501  502 -0.00000000000E+00 -0.00000000000E+00 -0.98729103507E+02  0.98729103507E+02  0.00000000000E+00 0.  1.
      99926    2    1    2    0    0  0.00000000000E+00  0.00000000000E+00  0.42409979603E+03  0.62155800304E+03  0.45439378754E+03 0.  0.
      99925    2    3    3    0    0  0.69226804895E+02 -0.88618544587E+02  0.25846865715E+03  0.38549280182E+03  0.26296968755E+03 0.  0.
         25    1    4    4    0    0  0.49257500846E+02 -0.38400165850E+02  0.80453171021E+02  0.16131055438E+03  0.12509000000E+03 0.  0.
         25    1    3    3    0    0 -0.69226804895E+02  0.88618544587E+02  0.16563113888E+03  0.23606520122E+03  0.12509000000E+03 0.  0.
         25    1    4    4    0    0  0.19969304049E+02 -0.50218378737E+02  0.17801548613E+03  0.22418224744E+03  0.12509000000E+03 0.  0.
<mgrwt>
<rscale>  2 0.45439379E+03</rscale>
<asrwt>0</asrwt>
<pdfrwt beam="1">  1       21 0.76886602E-01 0.45439379E+03</pdfrwt>
<pdfrwt beam="2">  1       21 0.14518986E-01 0.45439379E+03</pdfrwt>
<totfact> 0.57645999E+04</totfact>
</mgrwt>
</event>
<event>
 7    0  0.4691878E-002  0.4598561E+03  0.7546771E-02  0.1024823E+00
         21   -1    0    0  502  501  0.00000000000E+00  0.00000000000E+00  0.16423930042E+03  0.16423930042E+03  0.00000000000E+00 0.  1.
         21   -1    0    0  501  502 -0.00000000000E+00 -0.00000000000E+00 -0.32188946382E+03  0.32188946382E+03  0.00000000000E+00 0.  1.
      99926    2    1    2    0    0  0.00000000000E+00  0.71054273576E-14 -0.15765016339E+03  0.48612876424E+03  0.45985606597E+03 0.  0.
      99925    2    3    3    0    0  0.15799621920E+02  0.47916570321E+02 -0.21107033318E+03  0.34105344448E+03  0.26309910809E+03 0.  0.
         25    1    3    3    0    0 -0.15799621920E+02 -0.47916570321E+02  0.53420169787E+02  0.14507531976E+03  0.12509000000E+03 0.  0.
         25    1    4    4    0    0  0.66508426735E+01 -0.16503430601E+02 -0.88933921551E+02  0.15451002373E+03  0.12509000000E+03 0.  0.
         25    1    4    4    0    0  0.91487792467E+01  0.64420000922E+02 -0.12213641163E+03  0.18654342075E+03  0.12509000000E+03 0.  0.
<mgrwt>
<rscale>  2 0.45985607E+03</rscale>
<asrwt>0</asrwt>
<pdfrwt beam="1">  1       21 0.24152839E-01 0.45985607E+03</pdfrwt>
<pdfrwt beam="2">  1       21 0.47336685E-01 0.45985607E+03</pdfrwt>
<totfact> 0.63762998E+04</totfact>
</mgrwt>
</event>
<event>
 7    0  0.4691878E-002  0.4554457E+03  0.7546771E-02  0.1026110E+00
         21   -1    0    0  502  501  0.00000000000E+00  0.00000000000E+00  0.17170745875E+03  0.17170745875E+03  0.00000000000E+00 0.  1.
         21   -1    0    0  501  502 -0.00000000000E+00 -0.00000000000E+00 -0.30201193472E+03  0.30201193472E+03  0.00000000000E+00 0.  1.
      99926    2    1    2    0    0  0.00000000000E+00  0.00000000000E+00 -0.13030447597E+03  0.47371939346E+03  0.45544572375E+03 0.  0.
      99925    2    3    3    0    0  0.33113223176E+02 -0.10452769214E+03 -0.53767942727E+02  0.29061321390E+03  0.26370916642E+03 0.  0.
         25    1    3    3    0    0 -0.33113223176E+02  0.10452769214E+03 -0.76536533247E+02  0.18310617957E+03  0.12509000000E+03 0.  0.
         25    1    4    4    0    0  0.28620304454E+02 -0.94163661264E+02 -0.19026690891E+02  0.16029797253E+03  0.12509000000E+03 0.  0.
         25    1    4    4    0    0  0.44929187215E+01 -0.10364030880E+02 -0.34741251836E+02  0.13031524137E+03  0.12509000000E+03 0.  0.
<mgrwt>
<rscale>  2 0.45544572E+03</rscale>
<asrwt>0</asrwt>
<pdfrwt beam="1">  1       21 0.25251097E-01 0.45544572E+03</pdfrwt>
<pdfrwt beam="2">  1       21 0.44413520E-01 0.45544572E+03</pdfrwt>
<totfact> 0.66923217E+04</totfact>
</mgrwt>
</event>
<event>
 7    0  0.4691878E-002  0.4513761E+03  0.7546771E-02  0.1027312E+00
         21   -1    0    0  502  501  0.00000000000E+00  0.00000000000E+00  0.91289848673E+03  0.91289848673E+03  0.00000000000E+00 0.  1.
         21   -1    0    0  501  502 -0.00000000000E+00 -0.00000000000E+00 -0.55794909521E+02  0.55794909521E+02  0.00000000000E+00 0.  1.
      99926    2    1    2    0    0  0.00000000000E+00  0.00000000000E+00  0.85710357721E+03  0.96869339625E+03  0.45137606702E+03 0.  0.
      99925    2    3    3    0    0  0.79566569903E+02  0.71859486863E+02  0.49081787125E+03  0.56706253167E+03  0.26298879668E+03 0.  0.
         25    1    3    3    0    0 -0.79566569903E+02 -0.71859486863E+02  0.36628570596E+03  0.40163086458E+03  0.12509000000E+03 0.  0.
         25    1    4    4    0    0  0.13755940019E+02  0.24954212229E+02  0.16657077904E+03  0.21025049613E+03  0.12509000000E+03 0.  0.
         25    1    4    4    0    0  0.65810629884E+02  0.46905274634E+02  0.32424709221E+03  0.35681203553E+03  0.12509000000E+03 0.  0.
<mgrwt>
<rscale>  2 0.45137607E+03</rscale>
<asrwt>0</asrwt>
<pdfrwt beam="1">  1       21 0.13424977E+00 0.45137607E+03</pdfrwt>
<pdfrwt beam="2">  1       21 0.82051343E-02 0.45137607E+03</pdfrwt>
<totfact> 0.41557992E+04</totfact>
</mgrwt>
</event>
<event>
 7    0  0.4691878E-002  0.4501293E+03  0.7546771E-02  0.1027684E+00
         21   -1    0    0  502  501  0.00000000000E+00  0.00000000000E+00  0.25144277457E+04  0.25144277457E+04  0.00000000000E+00 0.  1.
         21   -1    0    0  501  502 -0.00000000000E+00 -0.00000000000E+00 -0.20145373382E+02  0.20145373382E+02  0.00000000000E+00 0.  1.
      99926    2    1    2    0    0  0.44408920985E-15  0.00000000000E+00  0.24942823723E+04  0.25345731191E+04  0.45012925157E+03 0.  0.
      99925    2    3    3    0    0  0.38485197459E+01  0.10838497212E+03  0.16040655215E+04  0.16290922176E+04  0.26296985197E+03 0.  0.
         25    1    4    4    0    0 -0.16406595510E+02  0.84524087592E+02  0.99547556982E+03  0.10069918649E+04  0.12509000000E+03 0.  0.
         25    1    4    4    0    0  0.20255115256E+02  0.23860884525E+02  0.60858995164E+03  0.62210035271E+03  0.12509000000E+03 0.  0.
         25    1    3    3    0    0 -0.38485197459E+01 -0.10838497212E+03  0.89021685084E+03  0.90548090146E+03  0.12509000000E+03 0.  0.
<mgrwt>
<rscale>  2 0.45012925E+03</rscale>
<asrwt>0</asrwt>
<pdfrwt beam="1">  1       21 0.36976857E+00 0.45012925E+03</pdfrwt>
<pdfrwt beam="2">  1       21 0.29625566E-02 0.45012925E+03</pdfrwt>
<totfact> 0.70476498E+03</totfact>
</mgrwt>
</event>
<event>
 7    0  0.4691878E-002  0.4536958E+03  0.7546771E-02  0.1026626E+00
         21   -1    0    0  502  501  0.00000000000E+00  0.00000000000E+00  0.29121987093E+02  0.29121987093E+02  0.00000000000E+00 0. -1.
         21   -1    0    0  501  502 -0.00000000000E+00 -0.00000000000E+00 -0.17670485938E+04  0.17670485938E+04  0.00000000000E+00 0. -1.
      99926    2    1    2    0    0  0.00000000000E+00  0.00000000000E+00 -0.17379266067E+04  0.17961705808E+04  0.45369578503E+03 0.  0.
      99925    2    3    3    0    0  0.10526563966E+03 -0.46395302177E+01 -0.94562050633E+03  0.98715955196E+03  0.26302748697E+03 0.  0.
         25    1    3    3    0    0 -0.10526563966E+03  0.46395302177E+01 -0.79230610033E+03  0.80901102888E+03  0.12509000000E+03 0.  0.
         25    1    4    4    0    0  0.67958115068E+02 -0.22511698572E+00 -0.35943939527E+03  0.38660385804E+03  0.12509000000E+03 0.  0.
         25    1    4    4    0    0  0.37307524596E+02 -0.44144132319E+01 -0.58618111106E+03  0.60055569392E+03  0.12509000000E+03 0.  0.
<mgrwt>
<rscale>  2 0.45369579E+03</rscale>
<asrwt>0</asrwt>
<pdfrwt beam="1">  1       21 0.42826439E-02 0.45369579E+03</pdfrwt>
<pdfrwt beam="2">  1       21 0.25986017E+00 0.45369579E+03</pdfrwt>
<totfact> 0.17509754E+04</totfact>
</mgrwt>
</event>
<event>
 7    0  0.4691878E-002  0.4540011E+03  0.7546771E-02  0.1026536E+00
         21   -1    0    0  502  501  0.00000000000E+00  0.00000000000E+00  0.30351687269E+02  0.30351687269E+02  0.00000000000E+00 0. -1.
         21   -1    0    0  501  502 -0.00000000000E+00 -0.00000000000E+00 -0.16977393526E+04  0.16977393526E+04  0.00000000000E+00 0. -1.
      99926    2    1    2    0    0  0.00000000000E+00  0.00000000000E+00 -0.16673876653E+04  0.17280910399E+04  0.45400111848E+03 0.  0.
      99925    2    3    3    0    0 -0.17062331566E+02 -0.28705069798E+02 -0.64243266994E+03  0.69499116334E+03  0.26301687690E+03 0.  0.
         25    1    4    4    0    0  0.20687202294E+02 -0.25616386519E+02 -0.38730508915E+03  0.40833429905E+03  0.12509000000E+03 0.  0.
         25    1    4    4    0    0 -0.37749533860E+02 -0.30886832798E+01 -0.25512758079E+03  0.28665686430E+03  0.12509000000E+03 0.  0.
         25    1    3    3    0    0  0.17062331566E+02  0.28705069798E+02 -0.10249549954E+04  0.10330998765E+04  0.12509000000E+03 0.  0.
<mgrwt>
<rscale>  2 0.45400112E+03</rscale>
<asrwt>0</asrwt>
<pdfrwt beam="1">  1       21 0.44634824E-02 0.45400112E+03</pdfrwt>
<pdfrwt beam="2">  1       21 0.24966761E+00 0.45400112E+03</pdfrwt>
<totfact> 0.18828570E+04</totfact>
</mgrwt>
</event>
<event>
 7    0  0.4691878E-002  0.4641660E+03  0.7546771E-02  0.1023580E+00
         21   -1    0    0  502  501  0.00000000000E+00  0.00000000000E+00  0.93284113037E+02  0.93284113037E+02  0.00000000000E+00 0. -1.
         21   -1    0    0  501  502 -0.00000000000E+00 -0.00000000000E+00 -0.57740303421E+03  0.57740303421E+03  0.00000000000E+00 0. -1.
      99926    2    1    2    0    0  0.00000000000E+00  0.00000000000E+00 -0.48411892118E+03  0.67068714725E+03  0.46416604749E+03 0.  0.
      99925    2    3    3    0    0  0.11571963836E+03 -0.33062935598E+02 -0.32154080243E+03  0.43285665045E+03  0.26361373219E+03 0.  0.
         25    1    3    3    0    0 -0.11571963836E+03  0.33062935598E+02 -0.16257811875E+03  0.23783049680E+03  0.12509000000E+03 0.  0.
         25    1    4    4    0    0  0.92363392230E+02 -0.38818649369E+02 -0.20495362057E+03  0.26017566844E+03  0.12509000000E+03 0.  0.
         25    1    4    4    0    0  0.23356246130E+02  0.57557137711E+01 -0.11658718185E+03  0.17268098201E+03  0.12509000000E+03 0.  0.
<mgrwt>
<rscale>  2 0.46416605E+03</rscale>
<asrwt>0</asrwt>
<pdfrwt beam="1">  1       21 0.13718251E-01 0.46416605E+03</pdfrwt>
<pdfrwt beam="2">  1       21 0.84912214E-01 0.46416605E+03</pdfrwt>
<totfact> 0.50755395E+04</totfact>
</mgrwt>
</event>
<event>
 7    0  0.4691878E-002  0.4542343E+03  0.7546771E-02  0.1026467E+00
         21   -1    0    0  502  501  0.00000000000E+00  0.00000000000E+00  0.34665304496E+02  0.34665304496E+02  0.00000000000E+00 0. -1.
         21   -1    0    0  501  502 -0.00000000000E+00 -0.00000000000E+00 -0.14880064519E+04  0.14880064519E+04  0.00000000000E+00 0. -1.
      99926    2    1    2    0    0 -0.35527136788E-14 -0.14210854715E-13 -0.14533411474E+04  0.15226717564E+04  0.45423428645E+03 0.  0.
      99925    2    3    3    0    0  0.23094298268E+02  0.10993145637E+03 -0.92814700926E+03  0.97122396870E+03  0.26306055362E+03 0.  0.
         25    1    4    4    0    0  0.48361328839E+02  0.55404033505E+02 -0.41476317974E+03  0.43941373263E+03  0.12509000000E+03 0.  0.
         25    1    3    3    0    0 -0.23094298268E+02 -0.10993145637E+03 -0.52519413812E+03  0.55144778767E+03  0.12509000000E+03 0.  0.
         25    1    4    4    0    0 -0.25267030571E+02  0.54527422861E+02 -0.51338382952E+03  0.53181023607E+03  0.12509000000E+03 0.  0.
<mgrwt>
<rscale>  2 0.45423429E+03</rscale>
<asrwt>0</asrwt>
<pdfrwt beam="1">  1       21 0.50978394E-02 0.45423429E+03</pdfrwt>
<pdfrwt beam="2">  1       21 0.21882446E+00 0.45423429E+03</pdfrwt>
<totfact> 0.23367566E+04</totfact>
</mgrwt>
</event>
<event>
 7    0  0.4691878E-002  0.4477537E+03  0.7546771E-02  0.1028394E+00
         21   -1    0    0  502  501  0.00000000000E+00  0.00000000000E+00  0.11256468625E+04  0.11256468625E+04  0.00000000000E+00 0. -1.
         21   -1    0    0  501  502 -0.00000000000E+00 -0.00000000000E+00 -0.44526250352E+02  0.44526250352E+02  0.00000000000E+00 0. -1.
      99926    2    1    2    0    0  0.00000000000E+00  0.35527136788E-14  0.10811206121E+04  0.11701731128E+04  0.44775365552E+03 0.  0.
      99925    2    3    3    0    0  0.38535381482E+02 -0.18733300018E+02  0.43104165903E+03  0.50678328361E+03  0.26305222404E+03 0.  0.
         25    1    4    4    0    0  0.24819080575E+02  0.20721190686E+02  0.26432294439E+03  0.29420992766E+03  0.12509000000E+03 0.  0.
         25    1    3    3    0    0 -0.38535381482E+02  0.18733300018E+02  0.65007895310E+03  0.66338982922E+03  0.12509000000E+03 0.  0.
         25    1    4    4    0    0  0.13716300907E+02 -0.39454490704E+02  0.16671871464E+03  0.21257335595E+03  0.12509000000E+03 0.  0.
<mgrwt>
<rscale>  2 0.44775366E+03</rscale>
<asrwt>0</asrwt>
<pdfrwt beam="1">  1       21 0.16553629E+00 0.44775366E+03</pdfrwt>
<pdfrwt beam="2">  1       21 0.65479787E-02 0.44775366E+03</pdfrwt>
<totfact> 0.35053784E+04</totfact>
</mgrwt>
</event>
<event>
 7    0  0.4691878E-002  0.4583243E+03  0.7546771E-02  0.1025268E+00
         21   -1    0    0  502  501  0.00000000000E+00  0.00000000000E+00  0.27056828007E+03  0.27056828007E+03  0.00000000000E+00 0.  1.
         21   -1    0    0  501  502 -0.00000000000E+00 -0.00000000000E+00 -0.19409254390E+03  0.19409254390E+03  0.00000000000E+00 0.  1.
      99926    2    1    2    0    0  0.17763568394E-14  0.00000000000E+00  0.76475736168E+02  0.46466082398E+03  0.45832427725E+03 0.  0.
      99925    2    3    3    0    0 -0.45670582943E+01  0.80593481112E+02  0.13285115872E+03  0.30546954410E+03  0.26295635528E+03 0.  0.
         25    1    4    4    0    0 -0.23462217155E+02  0.26052312944E+02  0.99735650661E+02  0.16378005604E+03  0.12509000000E+03 0.  0.
         25    1    4    4    0    0  0.18895158860E+02  0.54541168168E+02  0.33115508062E+02  0.14168948806E+03  0.12509000000E+03 0.  0.
         25    1    3    3    0    0  0.45670582943E+01 -0.80593481112E+02 -0.56375422554E+02  0.15919127987E+03  0.12509000000E+03 0.  0.
<mgrwt>
<rscale>  2 0.45832428E+03</rscale>
<asrwt>0</asrwt>
<pdfrwt beam="1">  1       21 0.39789453E-01 0.45832428E+03</pdfrwt>
<pdfrwt beam="2">  1       21 0.28543021E-01 0.45832428E+03</pdfrwt>
<totfact> 0.66071926E+04</totfact>
</mgrwt>
</event>
<event>
 7    0  0.4691878E-002  0.4493894E+03  0.7546771E-02  0.1027904E+00
         21   -1    0    0  502  501  0.00000000000E+00  0.00000000000E+00  0.55025501168E+03  0.55025501168E+03  0.00000000000E+00 0.  1.
         21   -1    0    0  501  502 -0.00000000000E+00 -0.00000000000E+00 -0.91753285319E+02  0.91753285319E+02  0.00000000000E+00 0.  1.
      99926    2    1    2    0    0  0.00000000000E+00  0.00000000000E+00  0.45850172636E+03  0.64200829699E+03  0.44938938610E+03 0.  0.
      99925    2    3    3    0    0 -0.43123402401E+02  0.80042261695E+02  0.20719713263E+03  0.34693559676E+03  0.26299670158E+03 0.  0.
         25    1    4    4    0    0 -0.75791419873E+01  0.74903539376E+02  0.88082220682E+02  0.17051090670E+03  0.12509000000E+03 0.  0.
         25    1    4    4    0    0 -0.35544260414E+02  0.51387223181E+01  0.11911491194E+03  0.17642469006E+03  0.12509000000E+03 0.  0.
         25    1    3    3    0    0  0.43123402401E+02 -0.80042261695E+02  0.25130459373E+03  0.29507270023E+03  0.12509000000E+03 0.  0.
<mgrwt>
<rscale>  2 0.44938939E+03</rscale>
<asrwt>0</asrwt>
<pdfrwt beam="1">  1       21 0.80919854E-01 0.44938939E+03</pdfrwt>
<pdfrwt beam="2">  1       21 0.13493130E-01 0.44938939E+03</pdfrwt>
<totfact> 0.58721060E+04</totfact>
</mgrwt>
</event>
<event>
 7    0  0.4691878E-002  0.4542830E+03  0.7546771E-02  0.1026452E+00
         21   -1    0    0  502  501  0.00000000000E+00  0.00000000000E+00  0.70532055943E+03  0.70532055943E+03  0.00000000000E+00 0.  1.
         21   -1    0    0  501  502 -0.00000000000E+00 -0.00000000000E+00 -0.73148677362E+02  0.73148677362E+02  0.00000000000E+00 0.  1.
      99926    2    1    2    0    0 -0.71054273576E-14  0.00000000000E+00  0.63217188207E+03  0.77846923679E+03  0.45428302208E+03 0.  0.
      99925    2    3    3    0    0  0.58477917803E+02  0.57692650271E+02  0.52981835212E+03  0.59716324693E+03  0.26296073562E+03 0.  0.
         25    1    3    3    0    0 -0.58477917803E+02 -0.57692650271E+02  0.10235352995E+03  0.18130598986E+03  0.12509000000E+03 0.  0.
         25    1    4    4    0    0  0.59420271157E+02  0.50634597103E+02  0.24407043029E+03  0.28515349215E+03  0.12509000000E+03 0.  0.
         25    1    4    4    0    0 -0.94235335355E+00  0.70580531681E+01  0.28574792184E+03  0.31200975478E+03  0.12509000000E+03 0.  0.
<mgrwt>
<rscale>  2 0.45428302E+03</rscale>
<asrwt>0</asrwt>
<pdfrwt beam="1">  1       21 0.10372361E+00 0.45428302E+03</pdfrwt>
<pdfrwt beam="2">  1       21 0.10757159E-01 0.45428302E+03</pdfrwt>
<totfact> 0.49099635E+04</totfact>
</mgrwt>
</event>
<event>
 7    0  0.4691878E-002  0.4591856E+03  0.7546771E-02  0.1025018E+00
         21   -1    0    0  502  501  0.00000000000E+00  0.00000000000E+00  0.80281364407E+02  0.80281364407E+02  0.00000000000E+00 0. -1.
         21   -1    0    0  501  502 -0.00000000000E+00 -0.00000000000E+00 -0.65660137115E+03  0.65660137115E+03  0.00000000000E+00 0. -1.
      99926    2    1    2    0    0  0.00000000000E+00  0.00000000000E+00 -0.57632000674E+03  0.73688273556E+03  0.45918560059E+03 0.  0.
      99925    2    3    3    0    0  0.47195584342E+02  0.69517024230E+02 -0.49199493671E+03  0.56420307440E+03  0.26307043084E+03 0.  0.
         25    1    3    3    0    0 -0.47195584342E+02 -0.69517024230E+02 -0.84325070035E+02  0.17267966115E+03  0.12509000000E+03 0.  0.
         25    1    4    4    0    0  0.18365209852E+02  0.51671954956E+02 -0.17687242567E+03  0.22346953914E+03  0.12509000000E+03 0.  0.
         25    1    4    4    0    0  0.28830374489E+02  0.17845069274E+02 -0.31512251104E+03  0.34073353526E+03  0.12509000000E+03 0.  0.
<mgrwt>
<rscale>  2 0.45918560E+03</rscale>
<asrwt>0</asrwt>
<pdfrwt beam="1">  1       21 0.11806084E-01 0.45918560E+03</pdfrwt>
<pdfrwt beam="2">  1       21 0.96559020E-01 0.45918560E+03</pdfrwt>
<totfact> 0.49303195E+04</totfact>
</mgrwt>
</event>
<event>
 7    0  0.4691878E-002  0.4521551E+03  0.7546771E-02  0.1027081E+00
         21   -1    0    0  502  501  0.00000000000E+00  0.00000000000E+00  0.56697404856E+02  0.56697404856E+02  0.00000000000E+00 0. -1.
         21   -1    0    0  501  502 -0.00000000000E+00 -0.00000000000E+00 -0.90147088849E+03  0.90147088849E+03  0.00000000000E+00 0. -1.
      99926    2    1    2    0    0  0.00000000000E+00  0.00000000000E+00 -0.84477348364E+03  0.95816829335E+03  0.45215510582E+03 0.  0.
      99925    2    3    3    0    0 -0.50620805044E+02 -0.84302920884E+02 -0.42519113894E+03  0.50942972753E+03  0.26279591756E+03 0.  0.
         25    1    3    3    0    0  0.50620805044E+02  0.84302920884E+02 -0.41958234470E+03  0.44873856582E+03  0.12509000000E+03 0.  0.
         25    1    4    4    0    0 -0.37914429423E+02 -0.46841619523E+02 -0.14902727047E+03  0.20368671218E+03  0.12509000000E+03 0.  0.
         25    1    4    4    0    0 -0.12706375621E+02 -0.37461301362E+02 -0.27616386848E+03  0.30574301535E+03  0.12509000000E+03 0.  0.
<mgrwt>
<rscale>  2 0.45215511E+03</rscale>
<asrwt>0</asrwt>
<pdfrwt beam="1">  1       21 0.83378548E-02 0.45215511E+03</pdfrwt>
<pdfrwt beam="2">  1       21 0.13256923E+00 0.45215511E+03</pdfrwt>
<totfact> 0.41732437E+04</totfact>
</mgrwt>
</event>
<event>
 7    0  0.4691878E-002  0.3885246E+03  0.7546771E-02  0.1047827E+00
         21   -1    0    0  502  501  0.00000000000E+00  0.00000000000E+00  0.10317983509E+03  0.10317983509E+03  0.00000000000E+00 0.  1.
         21   -1    0    0  501  502 -0.00000000000E+00 -0.00000000000E+00 -0.36574814081E+03  0.36574814081E+03  0.00000000000E+00 0.  1.
      99926    2    1    2    0    0  0.17763568394E-14  0.44408920985E-15 -0.26256830572E+03  0.46892797590E+03  0.38852455703E+03 0.  0.
      99925    2    3    3    0    0 -0.69782333278E+01  0.16962305918E+01 -0.17795928043E+03  0.31774011859E+03  0.26313058456E+03 0.  0.
         25    1    3    3    0    0  0.69782333278E+01 -0.16962305918E+01 -0.84609025290E+02  0.15118785731E+03  0.12509000000E+03 0.  0.
         25    1    4    4    0    0  0.27016387646E+02 -0.24112628261E+02 -0.75708295600E+02  0.15063385465E+03  0.12509000000E+03 0.  0.
         25    1    4    4    0    0 -0.33994620974E+02  0.25808858853E+02 -0.10225098483E+03  0.16710626394E+03  0.12509000000E+03 0.  0.
<mgrwt>
<rscale>  2 0.38852456E+03</rscale>
<asrwt>0</asrwt>
<pdfrwt beam="1">  1       21 0.15173505E-01 0.38852456E+03</pdfrwt>
<pdfrwt beam="2">  1       21 0.53786491E-01 0.38852456E+03</pdfrwt>
<totfact> 0.11889213E+05</totfact>
</mgrwt>
</event>
<event>
 7    0  0.4691878E-002  0.4516921E+03  0.7546771E-02  0.1027219E+00
         21   -1    0    0  502  501  0.00000000000E+00  0.00000000000E+00  0.14007766804E+04  0.14007766804E+04  0.00000000000E+00 0. -1.
         21   -1    0    0  501  502 -0.00000000000E+00 -0.00000000000E+00 -0.36412976149E+02  0.36412976149E+02  0.00000000000E+00 0. -1.
      99926    2    1    2    0    0  0.00000000000E+00  0.71054273576E-14  0.13643637042E+04  0.14371896565E+04  0.45169214230E+03 0.  0.
      99925    2    3    3    0    0 -0.91596320423E+02  0.60746250777E+02  0.84387413771E+03  0.89071285935E+03  0.26299400110E+03 0.  0.
         25    1    4    4    0    0 -0.42312883121E+02  0.30612704905E+02  0.29249787034E+03  0.32238180785E+03  0.12509000000E+03 0.  0.
         25    1    4    4    0    0 -0.49283437303E+02  0.30133545872E+02  0.55137626737E+03  0.56833105150E+03  0.12509000000E+03 0.  0.
         25    1    3    3    0    0  0.91596320423E+02 -0.60746250777E+02  0.52048956653E+03  0.54647679719E+03  0.12509000000E+03 0.  0.
<mgrwt>
<rscale>  2 0.45169214E+03</rscale>
<asrwt>0</asrwt>
<pdfrwt beam="1">  1       21 0.20599654E+00 0.45169214E+03</pdfrwt>
<pdfrwt beam="2">  1       21 0.53548503E-02 0.45169214E+03</pdfrwt>
<totfact> 0.26019991E+04</totfact>
</mgrwt>
</event>
<event>
 7    0  0.4691878E-002  0.4464771E+03  0.7546771E-02  0.1028778E+00
         21   -1    0    0  502  501  0.00000000000E+00  0.00000000000E+00  0.10118912845E+03  0.10118912845E+03  0.00000000000E+00 0. -1.
         21   -1    0    0  501  502 -0.00000000000E+00 -0.00000000000E+00 -0.49249817678E+03  0.49249817678E+03  0.00000000000E+00 0. -1.
      99926    2    1    2    0    0  0.14210854715E-13 -0.35527136788E-14 -0.39130904834E+03  0.59368730523E+03  0.44647714956E+03 0.  0.
      99925    2    3    3    0    0 -0.95096276816E+02  0.16636017186E+02 -0.30410991938E+03  0.41321222351E+03  0.26256701936E+03 0.  0.
         25    1    4    4    0    0 -0.57596940167E+02  0.55081072196E+01 -0.21259307647E+03  0.25335956864E+03  0.12509000000E+03 0.  0.
         25    1    4    4    0    0 -0.37499336649E+02  0.11127909967E+02 -0.91516842915E+02  0.15985265486E+03  0.12509000000E+03 0.  0.
         25    1    3    3    0    0  0.95096276816E+02 -0.16636017186E+02 -0.87199128955E+02  0.18047508172E+03  0.12509000000E+03 0.  0.
<mgrwt>
<rscale>  2 0.44647715E+03</rscale>
<asrwt>0</asrwt>
<pdfrwt beam="1">  1       21 0.14880754E-01 0.44647715E+03</pdfrwt>
<pdfrwt beam="2">  1       21 0.72426201E-01 0.44647715E+03</pdfrwt>
<totfact> 0.63220074E+04</totfact>
</mgrwt>
</event>
<event>
 7    0  0.4691878E-002  0.4557298E+03  0.7546771E-02  0.1026027E+00
         21   -1    0    0  502  501  0.00000000000E+00  0.00000000000E+00  0.26288215887E+04  0.26288215887E+04  0.00000000000E+00 0.  1.
         21   -1    0    0  501  502 -0.00000000000E+00 -0.00000000000E+00 -0.19751212418E+02  0.19751212418E+02  0.00000000000E+00 0.  1.
      99926    2    1    2    0    0  0.00000000000E+00  0.00000000000E+00  0.26090703763E+04  0.26485728011E+04  0.45572980419E+03 0.  0.
      99925    2    3    3    0    0  0.80781876234E+02 -0.60597765962E+02  0.19460745827E+04  0.19663640859E+04  0.26302782354E+03 0.  0.
         25    1    4    4    0    0  0.71751187457E+02 -0.58757658692E+02  0.11411647758E+04  0.11517400961E+04  0.12509000000E+03 0.  0.
         25    1    4    4    0    0  0.90306887772E+01 -0.18401072701E+01  0.80490980696E+03  0.81462398981E+03  0.12509000000E+03 0.  0.
         25    1    3    3    0    0 -0.80781876234E+02  0.60597765962E+02  0.66299579357E+03  0.68220871524E+03  0.12509000000E+03 0.  0.
<mgrwt>
<rscale>  2 0.45572980E+03</rscale>
<asrwt>0</asrwt>
<pdfrwt beam="1">  1       21 0.38659117E+00 0.45572980E+03</pdfrwt>
<pdfrwt beam="2">  1       21 0.29045919E-02 0.45572980E+03</pdfrwt>
<totfact> 0.56956786E+03</totfact>
</mgrwt>
</event>
<event>
 7    0  0.4691878E-002  0.4516930E+03  0.7546771E-02  0.1027218E+00
         21   -1    0    0  502  501  0.00000000000E+00  0.00000000000E+00  0.81421279706E+02  0.81421279706E+02  0.00000000000E+00 0.  1.
         21   -1    0    0  501  502 -0.00000000000E+00 -0.00000000000E+00 -0.62645353030E+03  0.62645353030E+03  0.00000000000E+00 0.  1.
      99926    2    1    2    0    0  0.00000000000E+00  0.00000000000E+00 -0.54503225059E+03  0.70787481000E+03  0.45169302901E+03 0.  0.
      99925    2    3    3    0    0 -0.10246945352E+03  0.39128367920E+02 -0.33066037721E+03  0.43651927518E+03  0.26302428494E+03 0.  0.
         25    1    4    4    0    0 -0.32448377966E+02  0.21770920857E+02 -0.10194477303E+03  0.16603347577E+03  0.12509000000E+03 0.  0.
         25    1    4    4    0    0 -0.70021075550E+02  0.17357447063E+02 -0.22871560418E+03  0.27048579942E+03  0.12509000000E+03 0.  0.
         25    1    3    3    0    0  0.10246945352E+03 -0.39128367920E+02 -0.21437187338E+03  0.27135553482E+03  0.12509000000E+03 0.  0.
<mgrwt>
<rscale>  2 0.45169303E+03</rscale>
<asrwt>0</asrwt>
<pdfrwt beam="1">  1       21 0.11973718E-01 0.45169303E+03</pdfrwt>
<pdfrwt beam="2">  1       21 0.92125518E-01 0.45169303E+03</pdfrwt>
<totfact> 0.53865420E+04</totfact>
</mgrwt>
</event>
<event>
 7    0  0.4691878E-002  0.4591358E+03  0.7546771E-02  0.1025032E+00
         21   -1    0    0  502  501  0.00000000000E+00  0.00000000000E+00  0.24955823604E+03  0.24955823604E+03  0.00000000000E+00 0. -1.
         21   -1    0    0  501  502 -0.00000000000E+00 -0.00000000000E+00 -0.21117884018E+03  0.21117884018E+03  0.00000000000E+00 0. -1.
      99926    2    1    2    0    0  0.00000000000E+00  0.00000000000E+00  0.38379395859E+02  0.46073707622E+03  0.45913579187E+03 0.  0.
      99925    2    3    3    0    0 -0.10204204571E+03 -0.30094707801E+02 -0.24945571374E+02  0.28473755887E+03  0.26293521136E+03 0.  0.
         25    1    4    4    0    0 -0.76695992445E+02 -0.81786145404E+01 -0.45001161081E+02  0.15369377864E+03  0.12509000000E+03 0.  0.
         25    1    4    4    0    0 -0.25346053267E+02 -0.21916093261E+02  0.20055589707E+02  0.13104378024E+03  0.12509000000E+03 0.  0.
         25    1    3    3    0    0  0.10204204571E+03  0.30094707801E+02  0.63324967233E+02  0.17599951735E+03  0.12509000000E+03 0.  0.
<mgrwt>
<rscale>  2 0.45913579E+03</rscale>
<asrwt>0</asrwt>
<pdfrwt beam="1">  1       21 0.36699741E-01 0.45913579E+03</pdfrwt>
<pdfrwt beam="2">  1       21 0.31055712E-01 0.45913579E+03</pdfrwt>
<totfact> 0.65925140E+04</totfact>
</mgrwt>
</event>
<event>
 7    0  0.4691878E-002  0.4624801E+03  0.7546771E-02  0.1024064E+00
         21   -1    0    0  502  501  0.00000000000E+00  0.00000000000E+00  0.39010351797E+03  0.39010351797E+03  0.00000000000E+00 0.  1.
         21   -1    0    0  501  502 -0.00000000000E+00 -0.00000000000E+00 -0.13707118003E+03  0.13707118003E+03  0.00000000000E+00 0.  1.
      99926    2    1    2    0    0  0.00000000000E+00  0.00000000000E+00  0.25303233794E+03  0.52717469800E+03  0.46248005164E+03 0.  0.
      99925    2    3    3    0    0  0.39225118355E+02  0.10458384579E+03  0.20838831727E+03  0.35363223232E+03  0.26297086199E+03 0.  0.
         25    1    4    4    0    0  0.21622827403E+02  0.82130853712E+02  0.75814022138E+02  0.16913987658E+03  0.12509000000E+03 0.  0.
         25    1    4    4    0    0  0.17602290952E+02  0.22452992074E+02  0.13257429513E+03  0.18449235575E+03  0.12509000000E+03 0.  0.
         25    1    3    3    0    0 -0.39225118355E+02 -0.10458384579E+03  0.44644020678E+02  0.17354246567E+03  0.12509000000E+03 0.  0.
<mgrwt>
<rscale>  2 0.46248005E+03</rscale>
<asrwt>0</asrwt>
<pdfrwt beam="1">  1       21 0.57368164E-01 0.46248005E+03</pdfrwt>
<pdfrwt beam="2">  1       21 0.20157527E-01 0.46248005E+03</pdfrwt>
<totfact> 0.59774113E+04</totfact>
</mgrwt>
</event>
<event>
 7    0  0.4691878E-002  0.4576291E+03  0.7546771E-02  0.1025471E+00
         21   -1    0    0  502  501  0.00000000000E+00  0.00000000000E+00  0.10370258267E+04  0.10370258267E+04  0.00000000000E+00 0. -1.
         21   -1    0    0  501  502 -0.00000000000E+00 -0.00000000000E+00 -0.50486786974E+02  0.50486786974E+02  0.00000000000E+00 0. -1.
      99926    2    1    2    0    0  0.00000000000E+00 -0.71054273576E-14  0.98653903970E+03  0.10875126136E+04  0.45762911620E+03 0.  0.
      99925    2    3    3    0    0 -0.57458967441E+01  0.32166442529E+02  0.35559546014E+03  0.44345904131E+03  0.26294504120E+03 0.  0.
         25    1    4    4    0    0 -0.10295257698E+02 -0.22207208034E+02  0.15222866545E+03  0.19854527722E+03  0.12509000000E+03 0.  0.
         25    1    3    3    0    0  0.57458967441E+01 -0.32166442529E+02  0.63094357955E+03  0.64405357233E+03  0.12509000000E+03 0.  0.
         25    1    4    4    0    0  0.45493609537E+01  0.54373650563E+02  0.20336679469E+03  0.24491376410E+03  0.12509000000E+03 0.  0.
<mgrwt>
<rscale>  2 0.45762912E+03</rscale>
<asrwt>0</asrwt>
<pdfrwt beam="1">  1       21 0.15250378E+00 0.45762912E+03</pdfrwt>
<pdfrwt beam="2">  1       21 0.74245282E-02 0.45762912E+03</pdfrwt>
<totfact> 0.35202610E+04</totfact>
</mgrwt>
</event>
<event>
 7    0  0.4691878E-002  0.4743118E+03  0.7546771E-02  0.1020710E+00
         21   -1    0    0  502  501  0.00000000000E+00  0.00000000000E+00  0.31875101541E+03  0.31875101541E+03  0.00000000000E+00 0. -1.
         21   -1    0    0  501  502 -0.00000000000E+00 -0.00000000000E+00 -0.17644778656E+03  0.17644778656E+03  0.00000000000E+00 0. -1.
      99926    2    1    2    0    0  0.00000000000E+00  0.00000000000E+00  0.14230322885E+03  0.49519880198E+03  0.47431175880E+03 0.  0.
      99925    2    3    3    0    0 -0.11927250632E+03 -0.45662248450E+01  0.33117121765E+02  0.29070944956E+03  0.26299897173E+03 0.  0.
         25    1    4    4    0    0 -0.27278984335E+02 -0.29709704189E+02  0.18642351705E+02  0.13274733476E+03  0.12509000000E+03 0.  0.
         25    1    4    4    0    0 -0.91993521990E+02  0.25143479344E+02  0.14474770061E+02  0.15796211479E+03  0.12509000000E+03 0.  0.
         25    1    3    3    0    0  0.11927250632E+03  0.45662248450E+01  0.10918610708E+03  0.20448935242E+03  0.12509000000E+03 0.  0.
<mgrwt>
<rscale>  2 0.47431176E+03</rscale>
<asrwt>0</asrwt>
<pdfrwt beam="1">  1       21 0.46875149E-01 0.47431176E+03</pdfrwt>
<pdfrwt beam="2">  1       21 0.25948204E-01 0.47431176E+03</pdfrwt>
<totfact> 0.56447105E+04</totfact>
</mgrwt>
</event>
<event>
 7    0  0.4691878E-002  0.4130046E+03  0.7546771E-02  0.1039367E+00
         21   -1    0    0  502  501  0.00000000000E+00  0.00000000000E+00  0.36760562315E+03  0.36760562315E+03  0.00000000000E+00 0.  1.
         21   -1    0    0  501  502 -0.00000000000E+00 -0.00000000000E+00 -0.11600256062E+03  0.11600256062E+03  0.00000000000E+00 0.  1.
      99926    2    1    2    0    0  0.00000000000E+00 -0.71054273576E-14  0.25160306254E+03  0.48360818377E+03  0.41300456939E+03 0.  0.
      99925    2    3    3    0    0  0.16192907080E+02 -0.58254826266E+02  0.13214252501E+03  0.30037564532E+03  0.26288409301E+03 0.  0.
         25    1    4    4    0    0 -0.17313187841E+02 -0.61989082208E+01  0.87800127244E+02  0.15393031989E+03  0.12509000000E+03 0.  0.
         25    1    3    3    0    0 -0.16192907080E+02  0.58254826266E+02  0.11946053753E+03  0.18323253846E+03  0.12509000000E+03 0.  0.
         25    1    4    4    0    0  0.33506094921E+02 -0.52055918045E+02  0.44342397766E+02  0.14644532543E+03  0.12509000000E+03 0.  0.
<mgrwt>
<rscale>  2 0.41300457E+03</rscale>
<asrwt>0</asrwt>
<pdfrwt beam="1">  1       21 0.54059650E-01 0.41300457E+03</pdfrwt>
<pdfrwt beam="2">  1       21 0.17059200E-01 0.41300457E+03</pdfrwt>
<totfact> 0.94091316E+04</totfact>
</mgrwt>
</event>
<event>
 7    0  0.4691878E-002  0.4462194E+03  0.7546771E-02  0.1028855E+00
         21   -1    0    0  502  501  0.00000000000E+00  0.00000000000E+00  0.81648950015E+02  0.81648950015E+02  0.00000000000E+00 0.  1.
         21   -1    0    0  501  502 -0.00000000000E+00 -0.00000000000E+00 -0.60965809262E+03  0.60965809262E+03  0.00000000000E+00 0.  1.
      99926    2    1    2    0    0  0.00000000000E+00  0.00000000000E+00 -0.52800914260E+03  0.69130704263E+03  0.44621942195E+03 0.  0.
      99925    2    3    3    0    0 -0.41102403143E+02 -0.96037210763E+02 -0.34609596859E+03  0.44706850273E+03  0.26301192608E+03 0.  0.
         25    1    3    3    0    0  0.41102403143E+02  0.96037210763E+02 -0.18191317401E+03  0.24423853991E+03  0.12509000000E+03 0.  0.
         25    1    4    4    0    0 -0.50458387470E+02 -0.24532222839E+02 -0.14553471129E+03  0.19993933858E+03  0.12509000000E+03 0.  0.
         25    1    4    4    0    0  0.93559843262E+01 -0.71504987924E+02 -0.20056125730E+03  0.24712916414E+03  0.12509000000E+03 0.  0.
<mgrwt>
<rscale>  2 0.44621942E+03</rscale>
<asrwt>0</asrwt>
<pdfrwt beam="1">  1       21 0.12007199E-01 0.44621942E+03</pdfrwt>
<pdfrwt beam="2">  1       21 0.89655599E-01 0.44621942E+03</pdfrwt>
<totfact> 0.57231814E+04</totfact>
</mgrwt>
</event>
<event>
 7    0  0.4691878E-002  0.4531546E+03  0.7546771E-02  0.1026785E+00
         21   -1    0    0  502  501  0.00000000000E+00  0.00000000000E+00  0.87669691296E+02  0.87669691296E+02  0.00000000000E+00 0. -1.
         21   -1    0    0  501  502 -0.00000000000E+00 -0.00000000000E+00 -0.58557608789E+03  0.58557608789E+03  0.00000000000E+00 0. -1.
      99926    2    1    2    0    0  0.00000000000E+00 -0.35527136788E-14 -0.49790639659E+03  0.67324577919E+03  0.45315460874E+03 0.  0.
      99925    2    3    3    0    0 -0.44995409538E+02 -0.20783355782E+02 -0.46215160637E+03  0.53402491911E+03  0.26294861133E+03 0.  0.
         25    1    4    4    0    0  0.92665754506E+01  0.13046255947E+02 -0.24154617169E+03  0.27248511037E+03  0.12509000000E+03 0.  0.
         25    1    4    4    0    0 -0.54261984988E+02 -0.33829611729E+02 -0.22060543467E+03  0.26153980873E+03  0.12509000000E+03 0.  0.
         25    1    3    3    0    0  0.44995409538E+02  0.20783355782E+02 -0.35754790226E+02  0.13922086008E+03  0.12509000000E+03 0.  0.
<mgrwt>
<rscale>  2 0.45315461E+03</rscale>
<asrwt>0</asrwt>
<pdfrwt beam="1">  1       21 0.12892601E-01 0.45315461E+03</pdfrwt>
<pdfrwt beam="2">  1       21 0.86114133E-01 0.45315461E+03</pdfrwt>
<totfact> 0.55178133E+04</totfact>
</mgrwt>
</event>
<event>
 7    0  0.4691878E-002  0.4555489E+03  0.7546771E-02  0.1026080E+00
         21   -1    0    0  502  501  0.00000000000E+00  0.00000000000E+00  0.12568658240E+03  0.12568658240E+03  0.00000000000E+00 0.  1.
         21   -1    0    0  501  502 -0.00000000000E+00 -0.00000000000E+00 -0.41278239052E+03  0.41278239052E+03  0.00000000000E+00 0.  1.
      99926    2    1    2    0    0  0.14210854715E-13  0.00000000000E+00 -0.28709580812E+03  0.53846897291E+03  0.45554893453E+03 0.  0.
      99925    2    3    3    0    0  0.10354641506E+03 -0.27585585022E+02 -0.22550306978E+03  0.36261676767E+03  0.26297616079E+03 0.  0.
         25    1    4    4    0    0  0.26760436465E+02 -0.40232648316E+02 -0.83325554565E+02  0.15787793732E+03  0.12509000000E+03 0.  0.
         25    1    3    3    0    0 -0.10354641506E+03  0.27585585022E+02 -0.61592738339E+02  0.17585220524E+03  0.12509000000E+03 0.  0.
         25    1    4    4    0    0  0.76785978595E+02  0.12647063294E+02 -0.14217751521E+03  0.20473883035E+03  0.12509000000E+03 0.  0.
<mgrwt>
<rscale>  2 0.45554893E+03</rscale>
<asrwt>0</asrwt>
<pdfrwt beam="1">  1       21 0.18483321E-01 0.45554893E+03</pdfrwt>
<pdfrwt beam="2">  1       21 0.60703293E-01 0.45554893E+03</pdfrwt>
<totfact> 0.62363609E+04</totfact>
</mgrwt>
</event>
<event>
 7    0  0.4691878E-002  0.4537675E+03  0.7546771E-02  0.1026604E+00
         21   -1    0    0  502  501  0.00000000000E+00  0.00000000000E+00  0.45524596756E+03  0.45524596756E+03  0.00000000000E+00 0. -1.
         21   -1    0    0  501  502 -0.00000000000E+00 -0.00000000000E+00 -0.11307343491E+03  0.11307343491E+03  0.00000000000E+00 0. -1.
      99926    2    1    2    0    0  0.14210854715E-13 -0.71054273576E-14  0.34217253266E+03  0.56831940247E+03  0.45376745269E+03 0.  0.
      99925    2    3    3    0    0 -0.95577824791E+02  0.38077781014E+02  0.15957290315E+03  0.32423914765E+03  0.26283545318E+03 0.  0.
         25    1    4    4    0    0 -0.72504577895E+02  0.12984207422E+02  0.12097072864E+03  0.18896277079E+03  0.12509000000E+03 0.  0.
         25    1    3    3    0    0  0.95577824791E+02 -0.38077781014E+02  0.18259962951E+03  0.24408025482E+03  0.12509000000E+03 0.  0.
         25    1    4    4    0    0 -0.23073246896E+02  0.25093573592E+02  0.38602174507E+02  0.13527637685E+03  0.12509000000E+03 0.  0.
<mgrwt>
<rscale>  2 0.45376745E+03</rscale>
<asrwt>0</asrwt>
<pdfrwt beam="1">  1       21 0.66947936E-01 0.45376745E+03</pdfrwt>
<pdfrwt beam="2">  1       21 0.16628446E-01 0.45376745E+03</pdfrwt>
<totfact> 0.61266936E+04</totfact>
</mgrwt>
</event>
<event>
 7    0  0.4691878E-002  0.4557816E+03  0.7546771E-02  0.1026012E+00
         21   -1    0    0  502  501  0.00000000000E+00  0.00000000000E+00  0.96955014252E+02  0.96955014252E+02  0.00000000000E+00 0.  1.
         21   -1    0    0  501  502 -0.00000000000E+00 -0.00000000000E+00 -0.53565264528E+03  0.53565264528E+03  0.00000000000E+00 0.  1.
      99926    2    1    2    0    0  0.00000000000E+00  0.00000000000E+00 -0.43869763103E+03  0.63260765954E+03  0.45578156987E+03 0.  0.
      99925    2    3    3    0    0  0.55221472709E+02  0.38104534688E+02 -0.40349064866E+03  0.48635990290E+03  0.26313472782E+03 0.  0.
         25    1    4    4    0    0  0.19372554865E+02  0.12010769724E+02 -0.12722722360E+03  0.17987170149E+03  0.12509000000E+03 0.  0.
         25    1    4    4    0    0  0.35848917843E+02  0.26093764964E+02 -0.27626342506E+03  0.30648820141E+03  0.12509000000E+03 0.  0.
         25    1    3    3    0    0 -0.55221472709E+02 -0.38104534688E+02 -0.35206982367E+02  0.14624775663E+03  0.12509000000E+03 0.  0.
<mgrwt>
<rscale>  2 0.45578157E+03</rscale>
<asrwt>0</asrwt>
<pdfrwt beam="1">  1       21 0.14258090E-01 0.45578157E+03</pdfrwt>
<pdfrwt beam="2">  1       21 0.78772447E-01 0.45578157E+03</pdfrwt>
<totfact> 0.56366211E+04</totfact>
</mgrwt>
</event>
<event>
 7    0  0.4691878E-002  0.4536624E+03  0.7546771E-02  0.1026635E+00
         21   -1    0    0  502  501  0.00000000000E+00  0.00000000000E+00  0.33506138846E+03  0.33506138846E+03  0.00000000000E+00 0. -1.
         21   -1    0    0  501  502 -0.00000000000E+00 -0.00000000000E+00 -0.15356110228E+03  0.15356110228E+03  0.00000000000E+00 0. -1.
      99926    2    1    2    0    0  0.00000000000E+00  0.00000000000E+00  0.18150028618E+03  0.48862249074E+03  0.45366241256E+03 0.  0.
      99925    2    3    3    0    0  0.51810262327E+02  0.98432208000E+02  0.10103364558E+03  0.30289260299E+03  0.26298845707E+03 0.  0.
         25    1    3    3    0    0 -0.51810262327E+02 -0.98432208000E+02  0.80466640605E+02  0.18572988775E+03  0.12509000000E+03 0.  0.
         25    1    4    4    0    0 -0.29148078088E+01  0.16424176857E+02  0.41202318514E+02  0.13275311236E+03  0.12509000000E+03 0.  0.
         25    1    4    4    0    0  0.54725070136E+02  0.82008031143E+02  0.59831327063E+02  0.17013949063E+03  0.12509000000E+03 0.  0.
<mgrwt>
<rscale>  2 0.45366241E+03</rscale>
<asrwt>0</asrwt>
<pdfrwt beam="1">  1       21 0.49273734E-01 0.45366241E+03</pdfrwt>
<pdfrwt beam="2">  1       21 0.22582515E-01 0.45366241E+03</pdfrwt>
<totfact> 0.66783944E+04</totfact>
</mgrwt>
</event>
<event>
 7    0  0.4691878E-002  0.4430443E+03  0.7546771E-02  0.1029817E+00
         21   -1    0    0  502  501  0.00000000000E+00  0.00000000000E+00  0.13563009222E+03  0.13563009222E+03  0.00000000000E+00 0. -1.
         21   -1    0    0  501  502 -0.00000000000E+00 -0.00000000000E+00 -0.36180808361E+03  0.36180808361E+03  0.00000000000E+00 0. -1.
      99926    2    1    2    0    0 -0.17763568394E-14 -0.17763568394E-14 -0.22617799140E+03  0.49743817583E+03  0.44304430363E+03 0.  0.
      99925    2    3    3    0    0 -0.12842999197E+02 -0.14593496556E+02 -0.32101076889E+02  0.26572440926E+03  0.26306096208E+03 0.  0.
         25    1    4    4    0    0 -0.44239453066E+01 -0.33558977127E+02  0.15011605271E+02  0.13045548141E+03  0.12509000000E+03 0.  0.
         25    1    3    3    0    0  0.12842999197E+02  0.14593496556E+02 -0.19407691451E+03  0.23171376656E+03  0.12509000000E+03 0.  0.
         25    1    4    4    0    0 -0.84190538900E+01  0.18965480571E+02 -0.47112682160E+02  0.13526892785E+03  0.12509000000E+03 0.  0.
<mgrwt>
<rscale>  2 0.44304430E+03</rscale>
<asrwt>0</asrwt>
<pdfrwt beam="1">  1       21 0.19945602E-01 0.44304430E+03</pdfrwt>
<pdfrwt beam="2">  1       21 0.53207071E-01 0.44304430E+03</pdfrwt>
<totfact> 0.72049308E+04</totfact>
</mgrwt>
</event>
<event>
 7    0  0.4691878E-002  0.4418611E+03  0.7546771E-02  0.1030177E+00
         21   -1    0    0  502  501  0.00000000000E+00  0.00000000000E+00  0.41957075588E+02  0.41957075588E+02  0.00000000000E+00 0.  1.
         21   -1    0    0  501  502 -0.00000000000E+00 -0.00000000000E+00 -0.11633391121E+04  0.11633391121E+04  0.00000000000E+00 0.  1.
      99926    2    1    2    0    0 -0.71054273576E-14  0.00000000000E+00 -0.11213820365E+04  0.12052961877E+04  0.44186109610E+03 0.  0.
      99925    2    3    3    0    0 -0.41893941193E+02  0.74486028930E+02 -0.57107523767E+03  0.63451746370E+03  0.26302512016E+03 0.  0.
         25    1    4    4    0    0 -0.48164866612E+02  0.60550026750E+02 -0.25715849892E+03  0.29625016756E+03  0.12509000000E+03 0.  0.
         25    1    4    4    0    0  0.62709254199E+01  0.13936002180E+02 -0.31391673876E+03  0.33826729613E+03  0.12509000000E+03 0.  0.
         25    1    3    3    0    0  0.41893941193E+02 -0.74486028930E+02 -0.55030679885E+03  0.57077872400E+03  0.12509000000E+03 0.  0.
<mgrwt>
<rscale>  2 0.44186110E+03</rscale>
<asrwt>0</asrwt>
<pdfrwt beam="1">  1       21 0.61701585E-02 0.44186110E+03</pdfrwt>
<pdfrwt beam="2">  1       21 0.17107927E+00 0.44186110E+03</pdfrwt>
<totfact> 0.35483349E+04</totfact>
</mgrwt>
</event>
<event>
 7    0  0.4691878E-002  0.4462308E+03  0.7546771E-02  0.1028852E+00
         21   -1    0    0  502  501  0.00000000000E+00  0.00000000000E+00  0.98044375478E+02  0.98044375478E+02  0.00000000000E+00 0.  1.
         21   -1    0    0  501  502 -0.00000000000E+00 -0.00000000000E+00 -0.50773423590E+03  0.50773423590E+03  0.00000000000E+00 0.  1.
      99926    2    1    2    0    0  0.17763568394E-14  0.14210854715E-13 -0.40968986043E+03  0.60577861138E+03  0.44623081950E+03 0.  0.
      99925    2    3    3    0    0 -0.15276749230E+02 -0.99478928991E+02 -0.22103366779E+03  0.35805274777E+03  0.26309019653E+03 0.  0.
         25    1    4    4    0    0 -0.18342421059E+02 -0.37490783369E+02 -0.59915041275E+02  0.14484240926E+03  0.12509000000E+03 0.  0.
         25    1    4    4    0    0  0.30656718296E+01 -0.61988145622E+02 -0.16111862651E+03  0.21321033852E+03  0.12509000000E+03 0.  0.
         25    1    3    3    0    0  0.15276749230E+02  0.99478928991E+02 -0.18865619264E+03  0.24772586361E+03  0.12509000000E+03 0.  0.
<mgrwt>
<rscale>  2 0.44623082E+03</rscale>
<asrwt>0</asrwt>
<pdfrwt beam="1">  1       21 0.14418291E-01 0.44623082E+03</pdfrwt>
<pdfrwt beam="2">  1       21 0.74666798E-01 0.44623082E+03</pdfrwt>
<totfact> 0.62545359E+04</totfact>
</mgrwt>
</event>
<event>
 6    0  0.4691878E-002  0.4585678E+03  0.7546771E-02  0.1025197E+00
         21   -1    0    0  502  501  0.00000000000E+00  0.00000000000E+00  0.13639050404E+04  0.13639050404E+04  0.00000000000E+00 0.  1.
         21   -1    0    0  501  502 -0.00000000000E+00 -0.00000000000E+00 -0.38544547076E+02  0.38544547076E+02  0.00000000000E+00 0.  1.
      99926    2    1    2    0    0  0.00000000000E+00  0.00000000000E+00  0.13253604933E+04  0.14024495874E+04  0.45856777923E+03 0.  0.
         25    1    3    3    0    0 -0.82411351640E+02 -0.14870107199E+02  0.26178968730E+03  0.30198360790E+03  0.12509000000E+03 0.  0.
         25    1    3    3    0    0  0.50474157859E+02  0.57453237027E+02  0.54866631251E+03  0.56791790396E+03  0.12509000000E+03 0.  0.
         25    1    3    3    0    0  0.31937193781E+02 -0.42583129828E+02  0.51490449349E+03  0.53254807558E+03  0.12509000000E+03 0.  0.
<mgrwt>
<rscale>  2 0.45856778E+03</rscale>
<asrwt>0</asrwt>
<pdfrwt beam="1">  1       21 0.20057424E+00 0.45856778E+03</pdfrwt>
<pdfrwt beam="2">  1       21 0.56683167E-02 0.45856778E+03</pdfrwt>
<totfact> 0.25551011E+04</totfact>
</mgrwt>
</event>
<event>
 7    0  0.4691878E-002  0.4509548E+03  0.7546771E-02  0.1027438E+00
         21   -1    0    0  502  501  0.00000000000E+00  0.00000000000E+00  0.21026672946E+03  0.21026672946E+03  0.00000000000E+00 0. -1.
         21   -1    0    0  501  502 -0.00000000000E+00 -0.00000000000E+00 -0.24178842785E+03  0.24178842785E+03  0.00000000000E+00 0. -1.
      99926    2    1    2    0    0  0.44408920985E-14  0.00000000000E+00 -0.31521698385E+02  0.45205515731E+03  0.45095481790E+03 0.  0.
      99925    2    3    3    0    0 -0.21364896836E+01 -0.10678318449E+03  0.29180432291E+01  0.28400511423E+03  0.26314098285E+03 0.  0.
         25    1    4    4    0    0 -0.38642109104E+02 -0.36993697190E+02 -0.27502351787E+01  0.13607651569E+03  0.12509000000E+03 0.  0.
         25    1    4    4    0    0  0.36505619420E+02 -0.69789487298E+02  0.56682784078E+01  0.14792859854E+03  0.12509000000E+03 0.  0.
         25    1    3    3    0    0  0.21364896836E+01  0.10678318449E+03 -0.34439741614E+02  0.16805004308E+03  0.12509000000E+03 0.  0.
<mgrwt>
<rscale>  2 0.45095482E+03</rscale>
<asrwt>0</asrwt>
<pdfrwt beam="1">  1       21 0.30921578E-01 0.45095482E+03</pdfrwt>
<pdfrwt beam="2">  1       21 0.35557122E-01 0.45095482E+03</pdfrwt>
<totfact> 0.71027008E+04</totfact>
</mgrwt>
</event>
<event>
 7    0  0.4691878E-002  0.4507685E+03  0.7546771E-02  0.1027493E+00
         21   -1    0    0  502  501  0.00000000000E+00  0.00000000000E+00  0.42913730067E+02  0.42913730067E+02  0.00000000000E+00 0.  1.
         21   -1    0    0  501  502 -0.00000000000E+00 -0.00000000000E+00 -0.11837251772E+04  0.11837251772E+04  0.00000000000E+00 0.  1.
      99926    2    1    2    0    0  0.53290705182E-14  0.71054273576E-14 -0.11408114471E+04  0.12266389072E+04  0.45076851144E+03 0.  0.
      99925    2    3    3    0    0  0.49264201590E+01  0.57764941578E+02 -0.97256948995E+03  0.10091212704E+04  0.26281793600E+03 0.  0.
         25    1    3    3    0    0 -0.49264201590E+01 -0.57764941578E+02 -0.16824195714E+03  0.21751763683E+03  0.12509000000E+03 0.  0.
         25    1    4    4    0    0 -0.37227302618E+02  0.27752303843E+02 -0.50797244298E+03  0.52520431582E+03  0.12509000000E+03 0.  0.
         25    1    4    4    0    0  0.42153722777E+02  0.30012637736E+02 -0.46459704697E+03  0.48391695457E+03  0.12509000000E+03 0.  0.
<mgrwt>
<rscale>  2 0.45076851E+03</rscale>
<asrwt>0</asrwt>
<pdfrwt beam="1">  1       21 0.63108426E-02 0.45076851E+03</pdfrwt>
<pdfrwt beam="2">  1       21 0.17407723E+00 0.45076851E+03</pdfrwt>
<totfact> 0.32375467E+04</totfact>
</mgrwt>
</event>
<event>
 7    0  0.4691878E-002  0.5218242E+03  0.7546771E-02  0.1008234E+00
         21   -1    0    0  502  501  0.00000000000E+00  0.00000000000E+00  0.57111255181E+02  0.57111255181E+02  0.00000000000E+00 0.  1.
         21   -1    0    0  501  502 -0.00000000000E+00 -0.00000000000E+00 -0.11919740694E+04  0.11919740694E+04  0.00000000000E+00 0.  1.
      99926    2    1    2    0    0  0.00000000000E+00  0.00000000000E+00 -0.11348628142E+04  0.12490853246E+04  0.52182424339E+03 0.  0.
      99925    2    3    3    0    0  0.10427963440E+03  0.25162786539E+02 -0.36859539395E+03  0.46529920870E+03  0.26293227493E+03 0.  0.
         25    1    4    4    0    0  0.27244396220E+02  0.44826314094E+02 -0.18265701249E+03  0.22751428059E+03  0.12509000000E+03 0.  0.
         25    1    3    3    0    0 -0.10427963440E+03 -0.25162786539E+02 -0.76626742027E+03  0.78378611588E+03  0.12509000000E+03 0.  0.
         25    1    4    4    0    0  0.77035238182E+02 -0.19663527555E+02 -0.18593838146E+03  0.23778492811E+03  0.12509000000E+03 0.  0.
<mgrwt>
<rscale>  2 0.52182424E+03</rscale>
<asrwt>0</asrwt>
<pdfrwt beam="1">  1       21 0.83987141E-02 0.52182424E+03</pdfrwt>
<pdfrwt beam="2">  1       21 0.17529030E+00 0.52182424E+03</pdfrwt>
<totfact> 0.18788909E+04</totfact>
</mgrwt>
</event>
<event>
 7    0  0.4691878E-002  0.4605159E+03  0.7546771E-02  0.1024632E+00
         21   -1    0    0  502  501  0.00000000000E+00  0.00000000000E+00  0.32960395062E+03  0.32960395062E+03  0.00000000000E+00 0. -1.
         21   -1    0    0  501  502 -0.00000000000E+00 -0.00000000000E+00 -0.16085583575E+03  0.16085583575E+03  0.00000000000E+00 0. -1.
      99926    2    1    2    0    0  0.00000000000E+00  0.00000000000E+00  0.16874811487E+03  0.49045978636E+03  0.46051588004E+03 0.  0.
      99925    2    3    3    0    0  0.92745668641E+02  0.72653778667E+02  0.91504560029E+02  0.30206019647E+03  0.26265366394E+03 0.  0.
         25    1    4    4    0    0  0.27041590424E+02  0.93342016751E+00  0.55871944893E+02  0.13964705945E+03  0.12509000000E+03 0.  0.
         25    1    4    4    0    0  0.65704078217E+02  0.71720358499E+02  0.35632615136E+02  0.16241313703E+03  0.12509000000E+03 0.  0.
         25    1    3    3    0    0 -0.92745668641E+02 -0.72653778667E+02  0.77243554843E+02  0.18839958989E+03  0.12509000000E+03 0.  0.
<mgrwt>
<rscale>  2 0.46051588E+03</rscale>
<asrwt>0</asrwt>
<pdfrwt beam="1">  1       21 0.48471169E-01 0.46051588E+03</pdfrwt>
<pdfrwt beam="2">  1       21 0.23655270E-01 0.46051588E+03</pdfrwt>
<totfact> 0.63136003E+04</totfact>
</mgrwt>
</event>
<event>
 7    0  0.4691878E-002  0.4407767E+03  0.7546771E-02  0.1030509E+00
         21   -1    0    0  502  501  0.00000000000E+00  0.00000000000E+00  0.60728548883E+03  0.60728548883E+03  0.00000000000E+00 0. -1.
         21   -1    0    0  501  502 -0.00000000000E+00 -0.00000000000E+00 -0.79980546277E+02  0.79980546277E+02  0.00000000000E+00 0. -1.
      99926    2    1    2    0    0 -0.14210854715E-13  0.35527136788E-14  0.52730494255E+03  0.68726603511E+03  0.44077670148E+03 0.  0.
      99925    2    3    3    0    0  0.81025262629E+02 -0.18803871936E+02  0.42142409098E+03  0.50348099324E+03  0.26263314207E+03 0.  0.
         25    1    4    4    0    0  0.30958222576E+01 -0.19142365575E+02  0.22128766601E+03  0.25493480245E+03  0.12509000000E+03 0.  0.
         25    1    3    3    0    0 -0.81025262629E+02  0.18803871936E+02  0.10588085158E+03  0.18378504187E+03  0.12509000000E+03 0.  0.
         25    1    4    4    0    0  0.77929440372E+02  0.33849363880E+00  0.20013642497E+03  0.24854619078E+03  0.12509000000E+03 0.  0.
<mgrwt>
<rscale>  2 0.44077670E+03</rscale>
<asrwt>0</asrwt>
<pdfrwt beam="1">  1       21 0.89306687E-01 0.44077670E+03</pdfrwt>
<pdfrwt beam="2">  1       21 0.11761845E-01 0.44077670E+03</pdfrwt>
<totfact> 0.60046160E+04</totfact>
</mgrwt>
</event>
<event>
 7    0  0.4691878E-002  0.4433202E+03  0.7546771E-02  0.1029733E+00
         21   -1    0    0  502  501  0.00000000000E+00  0.00000000000E+00  0.34339499567E+03  0.34339499567E+03  0.00000000000E+00 0.  1.
         21   -1    0    0  501  502 -0.00000000000E+00 -0.00000000000E+00 -0.14308072607E+03  0.14308072607E+03  0.00000000000E+00 0.  1.
      99926    2    1    2    0    0  0.00000000000E+00  0.00000000000E+00  0.20031426960E+03  0.48647572174E+03  0.44332022425E+03 0.  0.
      99925    2    3    3    0    0  0.69429543205E+02  0.58482173698E+02  0.17796278124E+03  0.33031003011E+03  0.26304626660E+03 0.  0.
         25    1    4    4    0    0  0.60045931681E+02 -0.19478790547E+01  0.81663724220E+02  0.16101484434E+03  0.12509000000E+03 0.  0.
         25    1    3    3    0    0 -0.69429543205E+02 -0.58482173698E+02  0.22351488361E+02  0.15616569163E+03  0.12509000000E+03 0.  0.
         25    1    4    4    0    0  0.93836115241E+01  0.60430052753E+02  0.96299057021E+02  0.16929518577E+03  0.12509000000E+03 0.  0.
<mgrwt>
<rscale>  2 0.44332022E+03</rscale>
<asrwt>0</asrwt>
<pdfrwt beam="1">  1       21 0.50499264E-01 0.44332022E+03</pdfrwt>
<pdfrwt beam="2">  1       21 0.21041283E-01 0.44332022E+03</pdfrwt>
<totfact> 0.72746365E+04</totfact>
</mgrwt>
</event>
<event>
 7    0  0.4691878E-002  0.4555453E+03  0.7546771E-02  0.1026081E+00
         21   -1    0    0  502  501  0.00000000000E+00  0.00000000000E+00  0.89985802450E+03  0.89985802450E+03  0.00000000000E+00 0. -1.
         21   -1    0    0  501  502 -0.00000000000E+00 -0.00000000000E+00 -0.57653957993E+02  0.57653957993E+02  0.00000000000E+00 0. -1.
      99926    2    1    2    0    0 -0.71054273576E-14  0.00000000000E+00  0.84220406651E+03  0.95751198249E+03  0.45554528532E+03 0.  0.
      99925    2    3    3    0    0  0.55730199283E+02 -0.67420251936E+02  0.68226656162E+03  0.73642634512E+03  0.26302995114E+03 0.  0.
         25    1    4    4    0    0  0.60647820577E+02 -0.29146099267E+02  0.29046591879E+03  0.32333513778E+03  0.12509000000E+03 0.  0.
         25    1    3    3    0    0 -0.55730199283E+02  0.67420251936E+02  0.15993750489E+03  0.22108563738E+03  0.12509000000E+03 0.  0.
         25    1    4    4    0    0 -0.49176212944E+01 -0.38274152669E+02  0.39180064283E+03  0.41309120734E+03  0.12509000000E+03 0.  0.
<mgrwt>
<rscale>  2 0.45554529E+03</rscale>
<asrwt>0</asrwt>
<pdfrwt beam="1">  1       21 0.13233205E+00 0.45554529E+03</pdfrwt>
<pdfrwt beam="2">  1       21 0.84785238E-02 0.45554529E+03</pdfrwt>
<totfact> 0.40664479E+04</totfact>
</mgrwt>
</event>
<event>
 7    0  0.4691878E-002  0.4544081E+03  0.7546771E-02  0.1026416E+00
         21   -1    0    0  502  501  0.00000000000E+00  0.00000000000E+00  0.29097282856E+02  0.29097282856E+02  0.00000000000E+00 0.  1.
         21   -1    0    0  501  502 -0.00000000000E+00 -0.00000000000E+00 -0.17741062354E+04  0.17741062354E+04  0.00000000000E+00 0.  1.
      99926    2    1    2    0    0  0.00000000000E+00  0.00000000000E+00 -0.17450089526E+04  0.18032035183E+04  0.45440805868E+03 0.  0.
      99925    2    3    3    0    0  0.45603245752E+02  0.69069409591E+02 -0.14015470059E+04  0.14284184382E+04  0.26304939724E+03 0.  0.
         25    1    3    3    0    0 -0.45603245752E+02 -0.69069409591E+02 -0.34346194665E+03  0.37478508009E+03  0.12509000000E+03 0.  0.
         25    1    4    4    0    0  0.32146048849E+02  0.19796358717E+02 -0.88027872661E+03  0.88992326012E+03  0.12509000000E+03 0.  0.
         25    1    4    4    0    0  0.13457196904E+02  0.49273050874E+02 -0.52126827929E+03  0.53849517806E+03  0.12509000000E+03 0.  0.
<mgrwt>
<rscale>  2 0.45440806E+03</rscale>
<asrwt>0</asrwt>
<pdfrwt beam="1">  1       21 0.42790100E-02 0.45440806E+03</pdfrwt>
<pdfrwt beam="2">  1       21 0.26089811E+00 0.45440806E+03</pdfrwt>
<totfact> 0.17277225E+04</totfact>
</mgrwt>
</event>
<event>
 7    0  0.4691878E-002  0.4549492E+03  0.7546771E-02  0.1026256E+00
         21   -1    0    0  502  501  0.00000000000E+00  0.00000000000E+00  0.65197205321E+03  0.65197205321E+03  0.00000000000E+00 0. -1.
         21   -1    0    0  501  502 -0.00000000000E+00 -0.00000000000E+00 -0.79366430980E+02  0.79366430980E+02  0.00000000000E+00 0. -1.
      99926    2    1    2    0    0  0.00000000000E+00 -0.35527136788E-14  0.57260562223E+03  0.73133848419E+03  0.45494920579E+03 0.  0.
      99925    2    3    3    0    0 -0.16594073364E+02  0.30933849044E+02  0.18725944293E+03  0.32467959484E+03  0.26290392551E+03 0.  0.
         25    1    4    4    0    0 -0.67273992129E+01  0.24863876685E+02  0.46260090181E+02  0.13583436350E+03  0.12509000000E+03 0.  0.
         25    1    4    4    0    0 -0.98666741509E+01  0.60699723595E+01  0.14099935275E+03  0.18884523134E+03  0.12509000000E+03 0.  0.
         25    1    3    3    0    0  0.16594073364E+02 -0.30933849044E+02  0.38534617930E+03  0.40665888935E+03  0.12509000000E+03 0.  0.
<mgrwt>
<rscale>  2 0.45494921E+03</rscale>
<asrwt>0</asrwt>
<pdfrwt beam="1">  1       21 0.95878240E-01 0.45494921E+03</pdfrwt>
<pdfrwt beam="2">  1       21 0.11671534E-01 0.45494921E+03</pdfrwt>
<totfact> 0.51254791E+04</totfact>
</mgrwt>
</event>
<event>
 7    0  0.4691878E-002  0.4578567E+03  0.7546771E-02  0.1025405E+00
         21   -1    0    0  502  501  0.00000000000E+00  0.00000000000E+00  0.37604569797E+02  0.37604569797E+02  0.00000000000E+00 0. -1.
         21   -1    0    0  501  502 -0.00000000000E+00 -0.00000000000E+00 -0.13936654484E+04  0.13936654484E+04  0.00000000000E+00 0. -1.
      99926    2    1    2    0    0  0.71054273576E-14  0.00000000000E+00 -0.13560608786E+04  0.14312700182E+04  0.45785670085E+03 0.  0.
      99925    2    3    3    0    0  0.56752835524E+02  0.57186362923E+02 -0.59071665907E+03  0.65159672320E+03  0.26294667511E+03 0.  0.
         25    1    4    4    0    0  0.45895971648E+02  0.41067481908E+02 -0.39124039658E+03  0.41534267093E+03  0.12509000000E+03 0.  0.
         25    1    4    4    0    0  0.10856863876E+02  0.16118881015E+02 -0.19947626249E+03  0.23625405227E+03  0.12509000000E+03 0.  0.
         25    1    3    3    0    0 -0.56752835524E+02 -0.57186362923E+02 -0.76534421953E+03  0.77967329499E+03  0.12509000000E+03 0.  0.
<mgrwt>
<rscale>  2 0.45785670E+03</rscale>
<asrwt>0</asrwt>
<pdfrwt beam="1">  1       21 0.55300840E-02 0.45785670E+03</pdfrwt>
<pdfrwt beam="2">  1       21 0.20495079E+00 0.45785670E+03</pdfrwt>
<totfact> 0.24952050E+04</totfact>
</mgrwt>
</event>
<event>
 7    0  0.4691878E-002  0.4426602E+03  0.7546771E-02  0.1029934E+00
         21   -1    0    0  502  501  0.00000000000E+00  0.00000000000E+00  0.13419244026E+03  0.13419244026E+03  0.00000000000E+00 0.  1.
         21   -1    0    0  501  502 -0.00000000000E+00 -0.00000000000E+00 -0.36505044371E+03  0.36505044371E+03  0.00000000000E+00 0.  1.
      99926    2    1    2    0    0  0.00000000000E+00  0.14210854715E-13 -0.23085800345E+03  0.49924288397E+03  0.44266018506E+03 0.  0.
      99925    2    3    3    0    0 -0.66716903047E+01 -0.99976606872E+02 -0.13351589251E+03  0.31172534336E+03  0.26326101643E+03 0.  0.
         25    1    4    4    0    0  0.11656836969E+02 -0.89190118687E+02 -0.84325738066E+02  0.17563911102E+03  0.12509000000E+03 0.  0.
         25    1    3    3    0    0  0.66716903047E+01  0.99976606872E+02 -0.97342110948E+02  0.18751754061E+03  0.12509000000E+03 0.  0.
         25    1    4    4    0    0 -0.18328527274E+02 -0.10786488185E+02 -0.49190154439E+02  0.13608623234E+03  0.12509000000E+03 0.  0.
<mgrwt>
<rscale>  2 0.44266019E+03</rscale>
<asrwt>0</asrwt>
<pdfrwt beam="1">  1       21 0.19734182E-01 0.44266019E+03</pdfrwt>
<pdfrwt beam="2">  1       21 0.53683889E-01 0.44266019E+03</pdfrwt>
<totfact> 0.72134072E+04</totfact>
</mgrwt>
</event>
<event>
 7    0  0.4691878E-002  0.4520417E+03  0.7546771E-02  0.1027115E+00
         21   -1    0    0  502  501  0.00000000000E+00  0.00000000000E+00  0.38712640704E+03  0.38712640704E+03  0.00000000000E+00 0. -1.
         21   -1    0    0  501  502 -0.00000000000E+00 -0.00000000000E+00 -0.13196059043E+03  0.13196059043E+03  0.00000000000E+00 0. -1.
      99926    2    1    2    0    0  0.71054273576E-14  0.71054273576E-14  0.25516581660E+03  0.51908699747E+03  0.45204172040E+03 0.  0.
      99925    2    3    3    0    0 -0.52696251692E+02 -0.40499622397E+02  0.26205248514E+03  0.37727004270E+03  0.26314267193E+03 0.  0.
         25    1    3    3    0    0  0.52696251692E+02  0.40499622397E+02 -0.68866685395E+01  0.14181695477E+03  0.12509000000E+03 0.  0.
         25    1    4    4    0    0 -0.53397461672E+01 -0.46006618208E+02  0.97939358700E+02  0.16548337648E+03  0.12509000000E+03 0.  0.
         25    1    4    4    0    0 -0.47356505524E+02  0.55069958109E+01  0.16411312644E+03  0.21178666622E+03  0.12509000000E+03 0.  0.
<mgrwt>
<rscale>  2 0.45204172E+03</rscale>
<asrwt>0</asrwt>
<pdfrwt beam="1">  1       21 0.56930354E-01 0.45204172E+03</pdfrwt>
<pdfrwt beam="2">  1       21 0.19405969E-01 0.45204172E+03</pdfrwt>
<totfact> 0.65472687E+04</totfact>
</mgrwt>
</event>
<event>
 7    0  0.4691878E-002  0.4550267E+03  0.7546771E-02  0.1026234E+00
         21   -1    0    0  502  501  0.00000000000E+00  0.00000000000E+00  0.17387444571E+03  0.17387444571E+03  0.00000000000E+00 0. -1.
         21   -1    0    0  501  502 -0.00000000000E+00 -0.00000000000E+00 -0.29769945502E+03  0.29769945502E+03  0.00000000000E+00 0. -1.
      99926    2    1    2    0    0  0.00000000000E+00  0.00000000000E+00 -0.12382500931E+03  0.47157390073E+03  0.45502671451E+03 0.  0.
      99925    2    3    3    0    0 -0.41317043693E+02 -0.86452524571E+02 -0.14036415798E+03  0.31313719840E+03  0.26300507804E+03 0.  0.
         25    1    4    4    0    0 -0.46875752948E+02 -0.68262650948E+02 -0.51854651773E+02  0.15872472630E+03  0.12509000000E+03 0.  0.
         25    1    4    4    0    0  0.55587092548E+01 -0.18189873623E+02 -0.88509506211E+02  0.15441247210E+03  0.12509000000E+03 0.  0.
         25    1    3    3    0    0  0.41317043693E+02  0.86452524571E+02  0.16539148676E+02  0.15843670232E+03  0.12509000000E+03 0.  0.
<mgrwt>
<rscale>  2 0.45502671E+03</rscale>
<asrwt>0</asrwt>
<pdfrwt beam="1">  1       21 0.25569772E-01 0.45502671E+03</pdfrwt>
<pdfrwt beam="2">  1       21 0.43779331E-01 0.45502671E+03</pdfrwt>
<totfact> 0.67304581E+04</totfact>
</mgrwt>
</event>
<event>
 7    0  0.4691878E-002  0.4595160E+03  0.7546771E-02  0.1024922E+00
         21   -1    0    0  502  501  0.00000000000E+00  0.00000000000E+00  0.22399227362E+03  0.22399227362E+03  0.00000000000E+00 0. -1.
         21   -1    0    0  501  502 -0.00000000000E+00 -0.00000000000E+00 -0.23567216845E+03  0.23567216845E+03  0.00000000000E+00 0. -1.
      99926    2    1    2    0    0  0.00000000000E+00  0.00000000000E+00 -0.11679894829E+02  0.45966444207E+03  0.45951602732E+03 0.  0.
      99925    2    3    3    0    0  0.37370832489E+02  0.53656249170E+02 -0.10467644905E+03  0.29063355912E+03  0.26312570096E+03 0.  0.
         25    1    4    4    0    0  0.30883627244E+02  0.38959172798E+02 -0.93763574304E+02  0.16404490709E+03  0.12509000000E+03 0.  0.
         25    1    3    3    0    0 -0.37370832489E+02 -0.53656249170E+02  0.92996554219E+02  0.16903088295E+03  0.12509000000E+03 0.  0.
         25    1    4    4    0    0  0.64872052450E+01  0.14697076371E+02 -0.10912874744E+02  0.12658865202E+03  0.12509000000E+03 0.  0.
<mgrwt>
<rscale>  2 0.45951603E+03</rscale>
<asrwt>0</asrwt>
<pdfrwt beam="1">  1       21 0.32940040E-01 0.45951603E+03</pdfrwt>
<pdfrwt beam="2">  1       21 0.34657672E-01 0.45951603E+03</pdfrwt>
<totfact> 0.65802215E+04</totfact>
</mgrwt>
</event>
<event>
 7    0  0.4691878E-002  0.4556223E+03  0.7546771E-02  0.1026059E+00
         21   -1    0    0  502  501  0.00000000000E+00  0.00000000000E+00  0.23737034882E+03  0.23737034882E+03  0.00000000000E+00 0.  1.
         21   -1    0    0  501  502 -0.00000000000E+00 -0.00000000000E+00 -0.21863690800E+03  0.21863690800E+03  0.00000000000E+00 0.  1.
      99926    2    1    2    0    0  0.71054273576E-14  0.35527136788E-14  0.18733440825E+02  0.45600725683E+03  0.45562229585E+03 0.  0.
      99925    2    3    3    0    0  0.34252337872E+02  0.23222950134E+02  0.11802086220E+03  0.29102838483E+03  0.26278521420E+03 0.  0.
         25    1    4    4    0    0  0.48974326130E+02  0.18228207633E+02  0.34732049092E+02  0.13994490168E+03  0.12509000000E+03 0.  0.
         25    1    4    4    0    0 -0.14721988258E+02  0.49947425014E+01  0.83288813104E+02  0.15108348314E+03  0.12509000000E+03 0.  0.
         25    1    3    3    0    0 -0.34252337872E+02 -0.23222950134E+02 -0.99287421370E+02  0.16497887200E+03  0.12509000000E+03 0.  0.
<mgrwt>
<rscale>  2 0.45562230E+03</rscale>
<asrwt>0</asrwt>
<pdfrwt beam="1">  1       21 0.34907405E-01 0.45562230E+03</pdfrwt>
<pdfrwt beam="2">  1       21 0.32152486E-01 0.45562230E+03</pdfrwt>
<totfact> 0.68133159E+04</totfact>
</mgrwt>
</event>
<event>
 7    0  0.4691878E-002  0.4596097E+03  0.7546771E-02  0.1024894E+00
         21   -1    0    0  502  501  0.00000000000E+00  0.00000000000E+00  0.32592022996E+03  0.32592022996E+03  0.00000000000E+00 0. -1.
         21   -1    0    0  501  502 -0.00000000000E+00 -0.00000000000E+00 -0.16203433154E+03  0.16203433154E+03  0.00000000000E+00 0. -1.
      99926    2    1    2    0    0  0.00000000000E+00  0.00000000000E+00  0.16388589842E+03  0.48795456151E+03  0.45960968919E+03 0.  0.
      99925    2    3    3    0    0 -0.94391727003E+02 -0.65820344658E+02  0.78009896506E+02  0.29752265320E+03  0.26304385436E+03 0.  0.
         25    1    3    3    0    0  0.94391727003E+02  0.65820344658E+02  0.85876001916E+02  0.19043190831E+03  0.12509000000E+03 0.  0.
         25    1    4    4    0    0 -0.34978006539E+02 -0.60354031712E+02  0.11182729896E+02  0.14366151758E+03  0.12509000000E+03 0.  0.
         25    1    4    4    0    0 -0.59413720464E+02 -0.54663129459E+01  0.66827166610E+02  0.15386113562E+03  0.12509000000E+03 0.  0.
<mgrwt>
<rscale>  2 0.45960969E+03</rscale>
<asrwt>0</asrwt>
<pdfrwt beam="1">  1       21 0.47929446E-01 0.45960969E+03</pdfrwt>
<pdfrwt beam="2">  1       21 0.23828578E-01 0.45960969E+03</pdfrwt>
<totfact> 0.63760129E+04</totfact>
</mgrwt>
</event>
<event>
 7    0  0.4691878E-002  0.4587429E+03  0.7546771E-02  0.1025146E+00
         21   -1    0    0  502  501  0.00000000000E+00  0.00000000000E+00  0.77160043419E+02  0.77160043419E+02  0.00000000000E+00 0.  1.
         21   -1    0    0  501  502 -0.00000000000E+00 -0.00000000000E+00 -0.68184598859E+03  0.68184598859E+03  0.00000000000E+00 0.  1.
      99926    2    1    2    0    0  0.00000000000E+00  0.71054273576E-14 -0.60468594517E+03  0.75900603201E+03  0.45874291748E+03 0.  0.
      99925    2    3    3    0    0  0.54772208543E+02  0.60474346454E+02 -0.24121976177E+03  0.36605270656E+03  0.26296476779E+03 0.  0.
         25    1    4    4    0    0  0.10813257847E+02 -0.35909829266E+01 -0.13558829710E+03  0.18482834229E+03  0.12509000000E+03 0.  0.
         25    1    3    3    0    0 -0.54772208543E+02 -0.60474346454E+02 -0.36346618340E+03  0.39295332545E+03  0.12509000000E+03 0.  0.
         25    1    4    4    0    0  0.43958950696E+02  0.64065329381E+02 -0.10563146467E+03  0.18122436426E+03  0.12509000000E+03 0.  0.
<mgrwt>
<rscale>  2 0.45874292E+03</rscale>
<asrwt>0</asrwt>
<pdfrwt beam="1">  1       21 0.11347066E-01 0.45874292E+03</pdfrwt>
<pdfrwt beam="2">  1       21 0.10027146E+00 0.45874292E+03</pdfrwt>
<totfact> 0.48373718E+04</totfact>
</mgrwt>
</event>
<event>
 7    0  0.4691878E-002  0.4418127E+03  0.7546771E-02  0.1030192E+00
         21   -1    0    0  502  501  0.00000000000E+00  0.00000000000E+00  0.14060579982E+03  0.14060579982E+03  0.00000000000E+00 0. -1.
         21   -1    0    0  501  502 -0.00000000000E+00 -0.00000000000E+00 -0.34706686732E+03  0.34706686732E+03  0.00000000000E+00 0. -1.
      99926    2    1    2    0    0  0.35527136788E-14  0.00000000000E+00 -0.20646106750E+03  0.48767266715E+03  0.44181269548E+03 0.  0.
      99925    2    3    3    0    0 -0.30787879457E+02  0.24530010612E+02 -0.23277727805E+03  0.35392041117E+03  0.26367552280E+03 0.  0.
         25    1    4    4    0    0 -0.23748085515E+02  0.25601664523E+01 -0.63854505081E+02  0.14246203683E+03  0.12509000000E+03 0.  0.
         25    1    3    3    0    0  0.30787879457E+02 -0.24530010612E+02  0.26316210551E+02  0.13375225598E+03  0.12509000000E+03 0.  0.
         25    1    4    4    0    0 -0.70397939421E+01  0.21969844160E+02 -0.16892277297E+03  0.21145837434E+03  0.12509000000E+03 0.  0.
<mgrwt>
<rscale>  2 0.44181270E+03</rscale>
<asrwt>0</asrwt>
<pdfrwt beam="1">  1       21 0.20677324E-01 0.44181270E+03</pdfrwt>
<pdfrwt beam="2">  1       21 0.51039245E-01 0.44181270E+03</pdfrwt>
<totfact> 0.73548951E+04</totfact>
</mgrwt>
</event>
<event>
 7    0  0.4691878E-002  0.4515029E+03  0.7546771E-02  0.1027275E+00
         21   -1    0    0  502  501  0.00000000000E+00  0.00000000000E+00  0.73418442403E+03  0.73418442403E+03  0.00000000000E+00 0.  1.
         21   -1    0    0  501  502 -0.00000000000E+00 -0.00000000000E+00 -0.69415418234E+02  0.69415418234E+02  0.00000000000E+00 0.  1.
      99926    2    1    2    0    0  0.71054273576E-14 -0.71054273576E-14  0.66476900579E+03  0.80359984226E+03  0.45150290743E+03 0.  0.
      99925    2    3    3    0    0 -0.37844948123E+02  0.52361372843E+02  0.57773247392E+03  0.63807999619E+03  0.26305382842E+03 0.  0.
         25    1    4    4    0    0  0.10757950596E+02  0.34469759054E+02  0.22073006428E+03  0.25626776459E+03  0.12509000000E+03 0.  0.
         25    1    3    3    0    0  0.37844948123E+02 -0.52361372843E+02  0.87036531871E+02  0.16551984607E+03  0.12509000000E+03 0.  0.
         25    1    4    4    0    0 -0.48602898719E+02  0.17891613789E+02  0.35700240964E+03  0.38181223160E+03  0.12509000000E+03 0.  0.
<mgrwt>
<rscale>  2 0.45150291E+03</rscale>
<asrwt>0</asrwt>
<pdfrwt beam="1">  1       21 0.10796829E+00 0.45150291E+03</pdfrwt>
<pdfrwt beam="2">  1       21 0.10208150E-01 0.45150291E+03</pdfrwt>
<totfact> 0.48919977E+04</totfact>
</mgrwt>
</event>
<event>
 7    0  0.4691878E-002  0.4595219E+03  0.7546771E-02  0.1024920E+00
         21   -1    0    0  502  501  0.00000000000E+00  0.00000000000E+00  0.16806545433E+03  0.16806545433E+03  0.00000000000E+00 0.  1.
         21   -1    0    0  501  502 -0.00000000000E+00 -0.00000000000E+00 -0.31410437588E+03  0.31410437588E+03  0.00000000000E+00 0.  1.
      99926    2    1    2    0    0  0.00000000000E+00  0.00000000000E+00 -0.14603892155E+03  0.48216983021E+03  0.45952190215E+03 0.  0.
      99925    2    3    3    0    0 -0.72980760369E+02  0.90742746623E+02 -0.76241077954E+02  0.29756299252E+03  0.26300303250E+03 0.  0.
         25    1    3    3    0    0  0.72980760369E+02 -0.90742746623E+02 -0.69797843596E+02  0.18460683768E+03  0.12509000000E+03 0.  0.
         25    1    4    4    0    0 -0.76760407744E+02  0.60594770636E+02 -0.37795342280E+02  0.16321728592E+03  0.12509000000E+03 0.  0.
         25    1    4    4    0    0  0.37796473749E+01  0.30147975987E+02 -0.38445735674E+02  0.13434570660E+03  0.12509000000E+03 0.  0.
<mgrwt>
<rscale>  2 0.45952190E+03</rscale>
<asrwt>0</asrwt>
<pdfrwt beam="1">  1       21 0.24715508E-01 0.45952190E+03</pdfrwt>
<pdfrwt beam="2">  1       21 0.46191819E-01 0.45952190E+03</pdfrwt>
<totfact> 0.64206859E+04</totfact>
</mgrwt>
</event>
<event>
 7    0  0.4691878E-002  0.4625152E+03  0.7546771E-02  0.1024054E+00
         21   -1    0    0  502  501  0.00000000000E+00  0.00000000000E+00  0.43530075026E+03  0.43530075026E+03  0.00000000000E+00 0.  1.
         21   -1    0    0  501  502 -0.00000000000E+00 -0.00000000000E+00 -0.12285775893E+03  0.12285775893E+03  0.00000000000E+00 0.  1.
      99926    2    1    2    0    0  0.00000000000E+00  0.00000000000E+00  0.31244299133E+03  0.55815850919E+03  0.46251518737E+03 0.  0.
      99925    2    3    3    0    0 -0.88181864200E+02  0.20511252299E+02  0.29050899928E+03  0.40219261307E+03  0.26299556403E+03 0.  0.
         25    1    3    3    0    0  0.88181864200E+02 -0.20511252299E+02  0.21933992050E+02  0.15596589612E+03  0.12509000000E+03 0.  0.
         25    1    4    4    0    0 -0.19971635709E+02  0.42460057874E+02  0.15028370117E+03  0.20108312133E+03  0.12509000000E+03 0.  0.
         25    1    4    4    0    0 -0.68210228492E+02 -0.21948805574E+02  0.14022529811E+03  0.20110949174E+03  0.12509000000E+03 0.  0.
<mgrwt>
<rscale>  2 0.46251519E+03</rscale>
<asrwt>0</asrwt>
<pdfrwt beam="1">  1       21 0.64014816E-01 0.46251519E+03</pdfrwt>
<pdfrwt beam="2">  1       21 0.18067318E-01 0.46251519E+03</pdfrwt>
<totfact> 0.57816097E+04</totfact>
</mgrwt>
</event>
<event>
 7    0  0.4691878E-002  0.4547192E+03  0.7546771E-02  0.1026324E+00
         21   -1    0    0  502  501  0.00000000000E+00  0.00000000000E+00  0.14453275435E+04  0.14453275435E+04  0.00000000000E+00 0.  1.
         21   -1    0    0  501  502 -0.00000000000E+00 -0.00000000000E+00 -0.35765173799E+02  0.35765173799E+02  0.00000000000E+00 0.  1.
      99926    2    1    2    0    0  0.00000000000E+00  0.00000000000E+00  0.14095623697E+04  0.14810927173E+04  0.45471921353E+03 0.  0.
      99925    2    3    3    0    0  0.35333746998E+02 -0.10648787204E+03  0.92856766537E+03  0.97159143736E+03  0.26299024963E+03 0.  0.
         25    1    4    4    0    0  0.56001052097E+01 -0.47637241516E+02  0.58335256210E+03  0.59853854326E+03  0.12509000000E+03 0.  0.
         25    1    3    3    0    0 -0.35333746998E+02  0.10648787204E+03  0.48099470429E+03  0.50950127990E+03  0.12509000000E+03 0.  0.
         25    1    4    4    0    0  0.29733641788E+02 -0.58850630524E+02  0.34521510327E+03  0.37305289410E+03  0.12509000000E+03 0.  0.
<mgrwt>
<rscale>  2 0.45471921E+03</rscale>
<asrwt>0</asrwt>
<pdfrwt beam="1">  1       21 0.21254813E+00 0.45471921E+03</pdfrwt>
<pdfrwt beam="2">  1       21 0.52595854E-02 0.45471921E+03</pdfrwt>
<totfact> 0.24299300E+04</totfact>
</mgrwt>
</event>
<event>
 7    0  0.4691878E-002  0.4210497E+03  0.7546771E-02  0.1036725E+00
         21   -1    0    0  502  501  0.00000000000E+00  0.00000000000E+00  0.18853481195E+03  0.18853481195E+03  0.00000000000E+00 0.  1.
         21   -1    0    0  501  502 -0.00000000000E+00 -0.00000000000E+00 -0.23507968472E+03  0.23507968472E+03  0.00000000000E+00 0.  1.
      99926    2    1    2    0    0  0.00000000000E+00 -0.71054273576E-14 -0.46544872766E+02  0.42361449667E+03  0.42104966050E+03 0.  0.
      99925    2    3    3    0    0 -0.43976924337E+02  0.56776249122E+02 -0.58616406582E+02  0.27887078397E+03  0.26301239266E+03 0.  0.
         25    1    3    3    0    0  0.43976924337E+02 -0.56776249122E+02  0.12071533816E+02  0.14474371270E+03  0.12509000000E+03 0.  0.
         25    1    4    4    0    0 -0.17021343291E+02  0.65099822766E+02 -0.12459755163E+02  0.14258494538E+03  0.12509000000E+03 0.  0.
         25    1    4    4    0    0 -0.26955581046E+02 -0.83235736443E+01 -0.46156651419E+02  0.13628583858E+03  0.12509000000E+03 0.  0.
<mgrwt>
<rscale>  2 0.42104966E+03</rscale>
<asrwt>0</asrwt>
<pdfrwt beam="1">  1       21 0.27725708E-01 0.42104966E+03</pdfrwt>
<pdfrwt beam="2">  1       21 0.34570542E-01 0.42104966E+03</pdfrwt>
<totfact> 0.93874285E+04</totfact>
</mgrwt>
</event>
<event>
 7    0  0.4691878E-002  0.4972094E+03  0.7546771E-02  0.1014510E+00
         21   -1    0    0  502  501  0.00000000000E+00  0.00000000000E+00  0.64257694888E+02  0.64257694888E+02  0.00000000000E+00 0.  1.
         21   -1    0    0  501  502 -0.00000000000E+00 -0.00000000000E+00 -0.96181923436E+03  0.96181923436E+03  0.00000000000E+00 0.  1.
      99926    2    1    2    0    0  0.00000000000E+00  0.00000000000E+00 -0.89756153947E+03  0.10260769292E+04  0.49720935992E+03 0.  0.
      99925    2    3    3    0    0 -0.63849513074E+02  0.66115676251E+02 -0.78873869777E+03  0.83650382477E+03  0.26302447134E+03 0.  0.
         25    1    4    4    0    0 -0.80439297523E+01  0.60909490182E+02 -0.34530499791E+03  0.37236772213E+03  0.12509000000E+03 0.  0.
         25    1    4    4    0    0 -0.55805583322E+02  0.52061860690E+01 -0.44343369985E+03  0.46413610264E+03  0.12509000000E+03 0.  0.
         25    1    3    3    0    0  0.63849513074E+02 -0.66115676251E+02 -0.10882284170E+03  0.18957310448E+03  0.12509000000E+03 0.  0.
<mgrwt>
<rscale>  2 0.49720936E+03</rscale>
<asrwt>0</asrwt>
<pdfrwt beam="1">  1       21 0.94496618E-02 0.49720936E+03</pdfrwt>
<pdfrwt beam="2">  1       21 0.14144399E+00 0.49720936E+03</pdfrwt>
<totfact> 0.27806879E+04</totfact>
</mgrwt>
</event>
<event>
 7    0  0.4691878E-002  0.4612982E+03  0.7546771E-02  0.1024405E+00
         21   -1    0    0  502  501  0.00000000000E+00  0.00000000000E+00  0.39316209728E+02  0.39316209728E+02  0.00000000000E+00 0. -1.
         21   -1    0    0  501  502 -0.00000000000E+00 -0.00000000000E+00 -0.13531060485E+04  0.13531060485E+04  0.00000000000E+00 0. -1.
      99926    2    1    2    0    0  0.00000000000E+00  0.00000000000E+00 -0.13137898388E+04  0.13924222582E+04  0.46129817336E+03 0.  0.
      99925    2    3    3    0    0  0.35255080024E+02 -0.10709955644E+03 -0.70648655510E+03  0.76220164438E+03  0.26289704924E+03 0.  0.
         25    1    4    4    0    0  0.82309972479E+01 -0.61404241909E+02 -0.46030413984E+03  0.48100482274E+03  0.12509000000E+03 0.  0.
         25    1    4    4    0    0  0.27024082776E+02 -0.45695314535E+02 -0.24618241525E+03  0.28119682164E+03  0.12509000000E+03 0.  0.
         25    1    3    3    0    0 -0.35255080024E+02  0.10709955644E+03 -0.60730328366E+03  0.63022061383E+03  0.12509000000E+03 0.  0.
<mgrwt>
<rscale>  2 0.46129817E+03</rscale>
<asrwt>0</asrwt>
<pdfrwt beam="1">  1       21 0.57817953E-02 0.46129817E+03</pdfrwt>
<pdfrwt beam="2">  1       21 0.19898619E+00 0.46129817E+03</pdfrwt>
<totfact> 0.25274719E+04</totfact>
</mgrwt>
</event>
<event>
 7    0  0.4691878E-002  0.4367754E+03  0.7546771E-02  0.1031741E+00
         21   -1    0    0  502  501  0.00000000000E+00  0.00000000000E+00  0.42394611127E+03  0.42394611127E+03  0.00000000000E+00 0. -1.
         21   -1    0    0  501  502 -0.00000000000E+00 -0.00000000000E+00 -0.11249823240E+03  0.11249823240E+03  0.00000000000E+00 0. -1.
      99926    2    1    2    0    0  0.00000000000E+00  0.00000000000E+00  0.31144787887E+03  0.53644434368E+03  0.43677540293E+03 0.  0.
      99925    2    3    3    0    0  0.59299885869E+02  0.76416405678E+01  0.10858682306E+03  0.29073112222E+03  0.26298025810E+03 0.  0.
         25    1    4    4    0    0 -0.80828286352E+01  0.17917624871E+02  0.60877372836E+02  0.14049888264E+03  0.12509000000E+03 0.  0.
         25    1    3    3    0    0 -0.59299885869E+02 -0.76416405678E+01  0.20286105581E+03  0.24571322146E+03  0.12509000000E+03 0.  0.
         25    1    4    4    0    0  0.67382714505E+02 -0.10275984303E+02  0.47709450222E+02  0.15023223958E+03  0.12509000000E+03 0.  0.
<mgrwt>
<rscale>  2 0.43677540E+03</rscale>
<asrwt>0</asrwt>
<pdfrwt beam="1">  1       21 0.62345016E-01 0.43677540E+03</pdfrwt>
<pdfrwt beam="2">  1       21 0.16543858E-01 0.43677540E+03</pdfrwt>
<totfact> 0.72704120E+04</totfact>
</mgrwt>
</event>
<event>
 7    0  0.4691878E-002  0.4583606E+03  0.7546771E-02  0.1025258E+00
         21   -1    0    0  502  501  0.00000000000E+00  0.00000000000E+00  0.37633181780E+03  0.37633181780E+03  0.00000000000E+00 0.  1.
         21   -1    0    0  501  502 -0.00000000000E+00 -0.00000000000E+00 -0.13956726866E+03  0.13956726866E+03  0.00000000000E+00 0.  1.
      99926    2    1    2    0    0  0.14210854715E-13  0.35527136788E-14  0.23676454913E+03  0.51589908646E+03  0.45836057387E+03 0.  0.
      99925    2    3    3    0    0  0.79397535607E+02 -0.22395301229E+02  0.56065641470E+02  0.28115428564E+03  0.26286661638E+03 0.  0.
         25    1    3    3    0    0 -0.79397535607E+02  0.22395301229E+02  0.18069890766E+03  0.23474480081E+03  0.12509000000E+03 0.  0.
         25    1    4    4    0    0  0.33722536145E+02 -0.48543261759E+02  0.42678660951E+02  0.14478478479E+03  0.12509000000E+03 0.  0.
         25    1    4    4    0    0  0.45674999462E+02  0.26147960530E+02  0.13386980519E+02  0.13636950085E+03  0.12509000000E+03 0.  0.
<mgrwt>
<rscale>  2 0.45836057E+03</rscale>
<asrwt>0</asrwt>
<pdfrwt beam="1">  1       21 0.55342914E-01 0.45836057E+03</pdfrwt>
<pdfrwt beam="2">  1       21 0.20524598E-01 0.45836057E+03</pdfrwt>
<totfact> 0.62484534E+04</totfact>
</mgrwt>
</event>
<event>
 7    0  0.4691878E-002  0.4499315E+03  0.7546771E-02  0.1027742E+00
         21   -1    0    0  502  501  0.00000000000E+00  0.00000000000E+00  0.33469189334E+03  0.33469189334E+03  0.00000000000E+00 0. -1.
         21   -1    0    0  501  502 -0.00000000000E+00 -0.00000000000E+00 -0.15121246566E+03  0.15121246566E+03  0.00000000000E+00 0. -1.
      99926    2    1    2    0    0  0.00000000000E+00  0.00000000000E+00  0.18347942768E+03  0.48590435900E+03  0.44993149002E+03 0.  0.
      99925    2    3    3    0    0 -0.36599764524E+02 -0.59564473039E+02  0.27538348548E+02  0.27412004072E+03  0.26362087715E+03 0.  0.
         25    1    4    4    0    0 -0.59192427114E+02 -0.22642652077E+02  0.98146494494E+01  0.14057122239E+03  0.12509000000E+03 0.  0.
         25    1    4    4    0    0  0.22592662590E+02 -0.36921820962E+02  0.17723699098E+02  0.13354881832E+03  0.12509000000E+03 0.  0.
         25    1    3    3    0    0  0.36599764524E+02  0.59564473039E+02  0.15594107913E+03  0.21178431828E+03  0.12509000000E+03 0.  0.
<mgrwt>
<rscale>  2 0.44993149E+03</rscale>
<asrwt>0</asrwt>
<pdfrwt beam="1">  1       21 0.49219396E-01 0.44993149E+03</pdfrwt>
<pdfrwt beam="2">  1       21 0.22237127E-01 0.44993149E+03</pdfrwt>
<totfact> 0.69007912E+04</totfact>
</mgrwt>
</event>
<event>
 7    0  0.4691878E-002  0.4537909E+03  0.7546771E-02  0.1026598E+00
         21   -1    0    0  502  501  0.00000000000E+00  0.00000000000E+00  0.10177677527E+04  0.10177677527E+04  0.00000000000E+00 0.  1.
         21   -1    0    0  501  502 -0.00000000000E+00 -0.00000000000E+00 -0.50582806665E+02  0.50582806665E+02  0.00000000000E+00 0.  1.
      99926    2    1    2    0    0  0.00000000000E+00  0.00000000000E+00  0.96718494602E+03  0.10683505594E+04  0.45379091866E+03 0.  0.
      99925    2    3    3    0    0  0.46836194735E+02  0.57336753177E+02  0.41142920969E+03  0.49390031871E+03  0.26302546994E+03 0.  0.
         25    1    4    4    0    0 -0.84690050228E+00  0.94354760020E+00  0.15498870718E+03  0.19917483520E+03  0.12509000000E+03 0.  0.
         25    1    4    4    0    0  0.47683095237E+02  0.56393205577E+02  0.25644050251E+03  0.29472548351E+03  0.12509000000E+03 0.  0.
         25    1    3    3    0    0 -0.46836194735E+02 -0.57336753177E+02  0.55575573634E+03  0.57445024064E+03  0.12509000000E+03 0.  0.
<mgrwt>
<rscale>  2 0.45379092E+03</rscale>
<asrwt>0</asrwt>
<pdfrwt beam="1">  1       21 0.14967172E+00 0.45379092E+03</pdfrwt>
<pdfrwt beam="2">  1       21 0.74386487E-02 0.45379092E+03</pdfrwt>
<totfact> 0.36958671E+04</totfact>
</mgrwt>
</event>
<event>
 7    0  0.4691878E-002  0.4554031E+03  0.7546771E-02  0.1026123E+00
         21   -1    0    0  502  501  0.00000000000E+00  0.00000000000E+00  0.20623273614E+04  0.20623273614E+04  0.00000000000E+00 0.  1.
         21   -1    0    0  501  502 -0.00000000000E+00 -0.00000000000E+00 -0.25140531954E+02  0.25140531954E+02  0.00000000000E+00 0.  1.
      99926    2    1    2    0    0  0.71054273576E-14  0.14210854715E-13  0.20371868294E+04  0.20874678933E+04  0.45540314855E+03 0.  0.
      99925    2    3    3    0    0 -0.58498627028E+02 -0.94575112480E+02  0.11751997032E+04  0.12093814197E+04  0.26294968092E+03 0.  0.
         25    1    4    4    0    0 -0.26358525171E+02 -0.82744389024E+02  0.53907612304E+03  0.56017138475E+03  0.12509000000E+03 0.  0.
         25    1    4    4    0    0 -0.32140101856E+02 -0.11830723456E+02  0.63612358018E+03  0.64921003499E+03  0.12509000000E+03 0.  0.
         25    1    3    3    0    0  0.58498627028E+02  0.94575112480E+02  0.86198712618E+03  0.87808647357E+03  0.12509000000E+03 0.  0.
<mgrwt>
<rscale>  2 0.45540315E+03</rscale>
<asrwt>0</asrwt>
<pdfrwt beam="1">  1       21 0.30328332E+00 0.45540315E+03</pdfrwt>
<pdfrwt beam="2">  1       21 0.36971385E-02 0.45540315E+03</pdfrwt>
<totfact> 0.12295348E+04</totfact>
</mgrwt>
</event>
<event>
 7    0  0.4691878E-002  0.4611639E+03  0.7546771E-02  0.1024444E+00
         21   -1    0    0  502  501  0.00000000000E+00  0.00000000000E+00  0.15653726862E+03  0.15653726862E+03  0.00000000000E+00 0. -1.
         21   -1    0    0  501  502 -0.00000000000E+00 -0.00000000000E+00 -0.33965094711E+03  0.33965094711E+03  0.00000000000E+00 0. -1.
      99926    2    1    2    0    0 -0.35527136788E-14  0.00000000000E+00 -0.18311367849E+03  0.49618821573E+03  0.46116388213E+03 0.  0.
      99925    2    3    3    0    0 -0.31467139406E+02 -0.10210586676E+03 -0.58760209648E+02  0.28996726092E+03  0.26308261303E+03 0.  0.
         25    1    4    4    0    0 -0.51674257000E+02 -0.55945502117E+02 -0.10848364025E+02  0.14685136413E+03  0.12509000000E+03 0.  0.
         25    1    4    4    0    0  0.20207117594E+02 -0.46160364640E+02 -0.47911845623E+02  0.14311589680E+03  0.12509000000E+03 0.  0.
         25    1    3    3    0    0  0.31467139406E+02  0.10210586676E+03 -0.12435346884E+03  0.20622095481E+03  0.12509000000E+03 0.  0.
<mgrwt>
<rscale>  2 0.46116388E+03</rscale>
<asrwt>0</asrwt>
<pdfrwt beam="1">  1       21 0.23020187E-01 0.46116388E+03</pdfrwt>
<pdfrwt beam="2">  1       21 0.49948669E-01 0.46116388E+03</pdfrwt>
<totfact> 0.62428126E+04</totfact>
</mgrwt>
</event>
<event>
 7    0  0.4691878E-002  0.4995116E+03  0.7546771E-02  0.1013906E+00
         21   -1    0    0  502  501  0.00000000000E+00  0.00000000000E+00  0.16044540842E+04  0.16044540842E+04  0.00000000000E+00 0. -1.
         21   -1    0    0  501  502 -0.00000000000E+00 -0.00000000000E+00 -0.38877990790E+02  0.38877990790E+02  0.00000000000E+00 0. -1.
      99926    2    1    2    0    0 -0.31086244690E-14  0.00000000000E+00  0.15655760934E+04  0.16433320750E+04  0.49951156586E+03 0.  0.
      99925    2    3    3    0    0  0.20007074314E+01 -0.11575710575E+03  0.63057572884E+03  0.69292326810E+03  0.26289388603E+03 0.  0.
         25    1    3    3    0    0 -0.20007074314E+01  0.11575710575E+03  0.93500036456E+03  0.95040880688E+03  0.12509000000E+03 0.  0.
         25    1    4    4    0    0  0.22282802502E+02 -0.74942912266E+02  0.40450749194E+03  0.43056565414E+03  0.12509000000E+03 0.  0.
         25    1    4    4    0    0 -0.20282095071E+02 -0.40814193486E+02  0.22606823689E+03  0.26235761396E+03  0.12509000000E+03 0.  0.
<mgrwt>
<rscale>  2 0.49951157E+03</rscale>
<asrwt>0</asrwt>
<pdfrwt beam="1">  1       21 0.23594909E+00 0.49951157E+03</pdfrwt>
<pdfrwt beam="2">  1       21 0.57173527E-02 0.49951157E+03</pdfrwt>
<totfact> 0.14696229E+04</totfact>
</mgrwt>
</event>
<event>
 7    0  0.4691878E-002  0.4540048E+03  0.7546771E-02  0.1026534E+00
         21   -1    0    0  502  501  0.00000000000E+00  0.00000000000E+00  0.27030357866E+03  0.27030357866E+03  0.00000000000E+00 0.  1.
         21   -1    0    0  501  502 -0.00000000000E+00 -0.00000000000E+00 -0.19063784245E+03  0.19063784245E+03  0.00000000000E+00 0.  1.
      99926    2    1    2    0    0  0.00000000000E+00  0.17763568394E-14  0.79665736211E+02  0.46094142111E+03  0.45400480632E+03 0.  0.
      99925    2    3    3    0    0 -0.96889835381E+02 -0.11659171346E+02 -0.63018869887E+01  0.28049332105E+03  0.26289391947E+03 0.  0.
         25    1    4    4    0    0 -0.91418373431E+02 -0.71324859894E+01 -0.13753311784E+01  0.15510509661E+03  0.12509000000E+03 0.  0.
         25    1    4    4    0    0 -0.54714619504E+01 -0.45266853569E+01 -0.49265558102E+01  0.12538822444E+03  0.12509000000E+03 0.  0.
         25    1    3    3    0    0  0.96889835381E+02  0.11659171346E+02  0.85967623200E+02  0.18044810006E+03  0.12509000000E+03 0.  0.
<mgrwt>
<rscale>  2 0.45400481E+03</rscale>
<asrwt>0</asrwt>
<pdfrwt beam="1">  1       21 0.39750527E-01 0.45400481E+03</pdfrwt>
<pdfrwt beam="2">  1       21 0.28034977E-01 0.45400481E+03</pdfrwt>
<totfact> 0.68653968E+04</totfact>
</mgrwt>
</event>
<event>
 7    0  0.4691878E-002  0.4203412E+03  0.7546771E-02  0.1036955E+00
         21   -1    0    0  502  501  0.00000000000E+00  0.00000000000E+00  0.61385790165E+03  0.61385790165E+03  0.00000000000E+00 0. -1.
         21   -1    0    0  501  502 -0.00000000000E+00 -0.00000000000E+00 -0.71957510271E+02  0.71957510271E+02  0.00000000000E+00 0. -1.
      99926    2    1    2    0    0  0.53290705182E-14  0.00000000000E+00  0.54190039138E+03  0.68581541192E+03  0.42034122454E+03 0.  0.
      99925    2    3    3    0    0  0.20543747739E+01 -0.32257066636E+02  0.46561018727E+03  0.53577394383E+03  0.26308959234E+03 0.  0.
         25    1    4    4    0    0  0.35349028013E+02 -0.26095762241E+02  0.19592974660E+03  0.23657243350E+03  0.12509000000E+03 0.  0.
         25    1    3    3    0    0 -0.20543747739E+01  0.32257066636E+02  0.76290204114E+02  0.15004146809E+03  0.12509000000E+03 0.  0.
         25    1    4    4    0    0 -0.33294653239E+02 -0.61613043952E+01  0.26968044067E+03  0.29920151034E+03  0.12509000000E+03 0.  0.
<mgrwt>
<rscale>  2 0.42034122E+03</rscale>
<asrwt>0</asrwt>
<pdfrwt beam="1">  1       21 0.90273218E-01 0.42034122E+03</pdfrwt>
<pdfrwt beam="2">  1       21 0.10581987E-01 0.42034122E+03</pdfrwt>
<totfact> 0.71210810E+04</totfact>
</mgrwt>
</event>
<event>
 7    0  0.4691878E-002  0.4454910E+03  0.7546771E-02  0.1029075E+00
         21   -1    0    0  502  501  0.00000000000E+00  0.00000000000E+00  0.84070611014E+02  0.84070611014E+02  0.00000000000E+00 0. -1.
         21   -1    0    0  501  502 -0.00000000000E+00 -0.00000000000E+00 -0.59016535137E+03  0.59016535137E+03  0.00000000000E+00 0. -1.
      99926    2    1    2    0    0  0.14210854715E-13  0.35527136788E-14 -0.50609474036E+03  0.67423596238E+03  0.44549101759E+03 0.  0.
      99925    2    3    3    0    0  0.74783129181E+02 -0.20956995250E+02 -0.21618366000E+03  0.34907807047E+03  0.26284674693E+03 0.  0.
         25    1    3    3    0    0 -0.74783129181E+02  0.20956995250E+02 -0.28991108036E+03  0.32515789192E+03  0.12509000000E+03 0.  0.
         25    1    4    4    0    0  0.19874627337E+02  0.19508262008E+02 -0.74943891699E+02  0.14845763066E+03  0.12509000000E+03 0.  0.
         25    1    4    4    0    0  0.54908501844E+02 -0.40465257257E+02 -0.14123976830E+03  0.20062043981E+03  0.12509000000E+03 0.  0.
<mgrwt>
<rscale>  2 0.44549102E+03</rscale>
<asrwt>0</asrwt>
<pdfrwt beam="1">  1       21 0.12363326E-01 0.44549102E+03</pdfrwt>
<pdfrwt beam="2">  1       21 0.86789020E-01 0.44549102E+03</pdfrwt>
<totfact> 0.58590827E+04</totfact>
</mgrwt>
</event>
<event>
 7    0  0.4691878E-002  0.4639631E+03  0.7546771E-02  0.1023638E+00
         21   -1    0    0  502  501  0.00000000000E+00  0.00000000000E+00  0.36187772862E+03  0.36187772862E+03  0.00000000000E+00 0.  1.
         21   -1    0    0  501  502 -0.00000000000E+00 -0.00000000000E+00 -0.14871165219E+03  0.14871165219E+03  0.00000000000E+00 0.  1.
      99926    2    1    2    0    0 -0.17763568394E-14 -0.14210854715E-13  0.21316607643E+03  0.51058938080E+03  0.46396308005E+03 0.  0.
      99925    2    3    3    0    0  0.11368817043E+02  0.12082258510E+03  0.13438013198E+03  0.31932495595E+03  0.26302672972E+03 0.  0.
         25    1    4    4    0    0 -0.67659727202E+01  0.66115095725E+02  0.25884002193E+02  0.14399470108E+03  0.12509000000E+03 0.  0.
         25    1    3    3    0    0 -0.11368817043E+02 -0.12082258510E+03  0.78785944451E+02  0.19126442485E+03  0.12509000000E+03 0.  0.
         25    1    4    4    0    0  0.18134789764E+02  0.54707489378E+02  0.10849612979E+03  0.17533025487E+03  0.12509000000E+03 0.  0.
<mgrwt>
<rscale>  2 0.46396308E+03</rscale>
<asrwt>0</asrwt>
<pdfrwt beam="1">  1       21 0.53217313E-01 0.46396308E+03</pdfrwt>
<pdfrwt beam="2">  1       21 0.21869361E-01 0.46396308E+03</pdfrwt>
<totfact> 0.60139304E+04</totfact>
</mgrwt>
</event>
<event>
 7    0  0.4691878E-002  0.4584213E+03  0.7546771E-02  0.1025240E+00
         21   -1    0    0  502  501  0.00000000000E+00  0.00000000000E+00  0.74993179234E+03  0.74993179234E+03  0.00000000000E+00 0.  1.
         21   -1    0    0  501  502 -0.00000000000E+00 -0.00000000000E+00 -0.70056396995E+02  0.70056396995E+02  0.00000000000E+00 0.  1.
      99926    2    1    2    0    0 -0.35527136788E-14  0.00000000000E+00  0.67987539534E+03  0.81998818933E+03  0.45842128817E+03 0.  0.
      99925    2    3    3    0    0 -0.26932617760E+02 -0.11026431003E+03  0.38070825619E+03  0.47643023321E+03  0.26298936636E+03 0.  0.
         25    1    4    4    0    0  0.13352556189E+02 -0.48692982665E+02  0.13359815444E+03  0.18985592508E+03  0.12509000000E+03 0.  0.
         25    1    3    3    0    0  0.26932617760E+02  0.11026431003E+03  0.29916713915E+03  0.34355795612E+03  0.12509000000E+03 0.  0.
         25    1    4    4    0    0 -0.40285173949E+02 -0.61571327368E+02  0.24711010175E+03  0.28657430813E+03  0.12509000000E+03 0.  0.
<mgrwt>
<rscale>  2 0.45842129E+03</rscale>
<asrwt>0</asrwt>
<pdfrwt beam="1">  1       21 0.11028408E+00 0.45842129E+03</pdfrwt>
<pdfrwt beam="2">  1       21 0.10302412E-01 0.45842129E+03</pdfrwt>
<totfact> 0.45577233E+04</totfact>
</mgrwt>
</event>
<event>
 7    0  0.4691878E-002  0.4539723E+03  0.7546771E-02  0.1026544E+00
         21   -1    0    0  502  501  0.00000000000E+00  0.00000000000E+00  0.14987891145E+03  0.14987891145E+03  0.00000000000E+00 0.  1.
         21   -1    0    0  501  502 -0.00000000000E+00 -0.00000000000E+00 -0.34376226656E+03  0.34376226656E+03  0.00000000000E+00 0.  1.
      99926    2    1    2    0    0  0.00000000000E+00  0.00000000000E+00 -0.19388335511E+03  0.49364117801E+03  0.45397230888E+03 0.  0.
      99925    2    3    3    0    0  0.23719089914E+02 -0.24697234350E+02 -0.23829618382E+03  0.35655523392E+03  0.26300953405E+03 0.  0.
         25    1    3    3    0    0 -0.23719089914E+02  0.24697234350E+02  0.44412828710E+02  0.13708594408E+03  0.12509000000E+03 0.  0.
         25    1    4    4    0    0  0.34047263245E+02  0.12941523097E+02 -0.14930037931E+03  0.19815350241E+03  0.12509000000E+03 0.  0.
         25    1    4    4    0    0 -0.10328173331E+02 -0.37638757447E+02 -0.88995804516E+02  0.15840173152E+03  0.12509000000E+03 0.  0.
<mgrwt>
<rscale>  2 0.45397231E+03</rscale>
<asrwt>0</asrwt>
<pdfrwt beam="1">  1       21 0.22041017E-01 0.45397231E+03</pdfrwt>
<pdfrwt beam="2">  1       21 0.50553273E-01 0.45397231E+03</pdfrwt>
<totfact> 0.66258649E+04</totfact>
</mgrwt>
</event>
<event>
 7    0  0.4691878E-002  0.4557599E+03  0.7546771E-02  0.1026018E+00
         21   -1    0    0  502  501  0.00000000000E+00  0.00000000000E+00  0.67346070255E+03  0.67346070255E+03  0.00000000000E+00 0. -1.
         21   -1    0    0  501  502 -0.00000000000E+00 -0.00000000000E+00 -0.77108100216E+02  0.77108100216E+02  0.00000000000E+00 0. -1.
      99926    2    1    2    0    0 -0.14210854715E-13  0.00000000000E+00  0.59635260234E+03  0.75056880277E+03  0.45575991638E+03 0.  0.
      99925    2    3    3    0    0 -0.86416156703E+02 -0.34353937586E+02  0.48541948607E+03  0.55925333149E+03  0.26169498688E+03 0.  0.
         25    1    3    3    0    0  0.86416156703E+02  0.34353937586E+02  0.11093311627E+03  0.19131547128E+03  0.12509000000E+03 0.  0.
         25    1    4    4    0    0 -0.18833426069E+02 -0.44176472360E+02  0.26142837012E+03  0.29376616458E+03  0.12509000000E+03 0.  0.
         25    1    4    4    0    0 -0.67582730634E+02  0.98225347740E+01  0.22399111595E+03  0.26548716691E+03  0.12509000000E+03 0.  0.
<mgrwt>
<rscale>  2 0.45575992E+03</rscale>
<asrwt>0</asrwt>
<pdfrwt beam="1">  1       21 0.99038336E-01 0.45575992E+03</pdfrwt>
<pdfrwt beam="2">  1       21 0.11339427E-01 0.45575992E+03</pdfrwt>
<totfact> 0.49942956E+04</totfact>
</mgrwt>
</event>
<event>
 7    0  0.4691878E-002  0.4802447E+03  0.7546771E-02  0.1019068E+00
         21   -1    0    0  502  501  0.00000000000E+00  0.00000000000E+00  0.10084435354E+04  0.10084435354E+04  0.00000000000E+00 0.  1.
         21   -1    0    0  501  502 -0.00000000000E+00 -0.00000000000E+00 -0.57175971092E+02  0.57175971092E+02  0.00000000000E+00 0.  1.
      99926    2    1    2    0    0  0.00000000000E+00  0.00000000000E+00  0.95126756430E+03  0.10656195065E+04  0.48024468109E+03 0.  0.
      99925    2    3    3    0    0  0.70498217215E+02 -0.54953927183E+02  0.81191028548E+03  0.85811554989E+03  0.26300960543E+03 0.  0.
         25    1    4    4    0    0  0.34133055312E+02 -0.64112724777E+02  0.36842876287E+03  0.39580647841E+03  0.12509000000E+03 0.  0.
         25    1    3    3    0    0 -0.70498217215E+02  0.54953927183E+02  0.13935727883E+03  0.20750395660E+03  0.12509000000E+03 0.  0.
         25    1    4    4    0    0  0.36365161903E+02  0.91587975941E+01  0.44348152261E+03  0.46230907148E+03  0.12509000000E+03 0.  0.
<mgrwt>
<rscale>  2 0.48024468E+03</rscale>
<asrwt>0</asrwt>
<pdfrwt beam="1">  1       21 0.14830051E+00 0.48024468E+03</pdfrwt>
<pdfrwt beam="2">  1       21 0.84082317E-02 0.48024468E+03</pdfrwt>
<totfact> 0.30287508E+04</totfact>
</mgrwt>
</event>
<event>
 7    0  0.4691878E-002  0.4566654E+03  0.7546771E-02  0.1025753E+00
         21   -1    0    0  502  501  0.00000000000E+00  0.00000000000E+00  0.14215909483E+03  0.14215909483E+03  0.00000000000E+00 0.  1.
         21   -1    0    0  501  502 -0.00000000000E+00 -0.00000000000E+00 -0.36674280612E+03  0.36674280612E+03  0.00000000000E+00 0.  1.
      99926    2    1    2    0    0  0.00000000000E+00  0.00000000000E+00 -0.22458371128E+03  0.50890190095E+03  0.45666541518E+03 0.  0.
      99925    2    3    3    0    0 -0.13174169551E+02 -0.57962990845E+02 -0.25042047353E+03  0.36801785844E+03  0.26304650448E+03 0.  0.
         25    1    4    4    0    0 -0.18289907167E+02  0.96643756460E+01 -0.10580523880E+03  0.16513684482E+03  0.12509000000E+03 0.  0.
         25    1    4    4    0    0  0.51157376161E+01 -0.67627366491E+02 -0.14461523473E+03  0.20288101362E+03  0.12509000000E+03 0.  0.
         25    1    3    3    0    0  0.13174169551E+02  0.57962990845E+02  0.25836762248E+02  0.14088404251E+03  0.12509000000E+03 0.  0.
<mgrwt>
<rscale>  2 0.45666542E+03</rscale>
<asrwt>0</asrwt>
<pdfrwt beam="1">  1       21 0.20905749E-01 0.45666542E+03</pdfrwt>
<pdfrwt beam="2">  1       21 0.53932765E-01 0.45666542E+03</pdfrwt>
<totfact> 0.63802178E+04</totfact>
</mgrwt>
</event>
<event>
 7    0  0.4691878E-002  0.4475062E+03  0.7546771E-02  0.1028468E+00
         21   -1    0    0  502  501  0.00000000000E+00  0.00000000000E+00  0.23518979675E+03  0.23518979675E+03  0.00000000000E+00 0. -1.
         21   -1    0    0  501  502 -0.00000000000E+00 -0.00000000000E+00 -0.21287256063E+03  0.21287256063E+03  0.00000000000E+00 0. -1.
      99926    2    1    2    0    0  0.88817841970E-15 -0.35527136788E-14  0.22317236113E+02  0.44806235738E+03  0.44750622015E+03 0.  0.
      99925    2    3    3    0    0 -0.15045345443E+01  0.25830720203E+02  0.11711048381E+03  0.28899395185E+03  0.26293183347E+03 0.  0.
         25    1    4    4    0    0  0.16896006388E+02  0.32266581036E+02  0.25580779574E+02  0.13277233020E+03  0.12509000000E+03 0.  0.
         25    1    4    4    0    0 -0.18400540933E+02 -0.64358608332E+01  0.91529704236E+02  0.15622162164E+03  0.12509000000E+03 0.  0.
         25    1    3    3    0    0  0.15045345443E+01 -0.25830720203E+02 -0.94793247697E+02  0.15906840553E+03  0.12509000000E+03 0.  0.
<mgrwt>
<rscale>  2 0.44750622E+03</rscale>
<asrwt>0</asrwt>
<pdfrwt beam="1">  1       21 0.34586735E-01 0.44750622E+03</pdfrwt>
<pdfrwt beam="2">  1       21 0.31304788E-01 0.44750622E+03</pdfrwt>
<totfact> 0.73345409E+04</totfact>
</mgrwt>
</event>
<event>
 7    0  0.4691878E-002  0.4080928E+03  0.7546771E-02  0.1041013E+00
         21   -1    0    0  502  501  0.00000000000E+00  0.00000000000E+00  0.91431141833E+02  0.91431141833E+02  0.00000000000E+00 0.  1.
         21   -1    0    0  501  502 -0.00000000000E+00 -0.00000000000E+00 -0.45536923427E+03  0.45536923427E+03  0.00000000000E+00 0.  1.
      99926    2    1    2    0    0  0.00000000000E+00  0.00000000000E+00 -0.36393809244E+03  0.54680037611E+03  0.40809277889E+03 0.  0.
      99925    2    3    3    0    0  0.23952272287E+02  0.23873191045E+02 -0.17510734991E+03  0.31778466044E+03  0.26302255762E+03 0.  0.
         25    1    4    4    0    0 -0.26489431633E+02  0.21887140228E+02 -0.96280302504E+02  0.16154919265E+03  0.12509000000E+03 0.  0.
         25    1    4    4    0    0  0.50441703920E+02  0.19860508172E+01 -0.78827047406E+02  0.15623546779E+03  0.12509000000E+03 0.  0.
         25    1    3    3    0    0 -0.23952272287E+02 -0.23873191045E+02 -0.18883074253E+03  0.22901571567E+03  0.12509000000E+03 0.  0.
<mgrwt>
<rscale>  2 0.40809278E+03</rscale>
<asrwt>0</asrwt>
<pdfrwt beam="1">  1       21 0.13445756E-01 0.40809278E+03</pdfrwt>
<pdfrwt beam="2">  1       21 0.66966065E-01 0.40809278E+03</pdfrwt>
<totfact> 0.91643318E+04</totfact>
</mgrwt>
</event>
<event>
 7    0  0.4691878E-002  0.4563531E+03  0.7546771E-02  0.1025844E+00
         21   -1    0    0  502  501  0.00000000000E+00  0.00000000000E+00  0.12664796117E+03  0.12664796117E+03  0.00000000000E+00 0. -1.
         21   -1    0    0  501  502 -0.00000000000E+00 -0.00000000000E+00 -0.41109644829E+03  0.41109644829E+03  0.00000000000E+00 0. -1.
      99926    2    1    2    0    0  0.14210854715E-13  0.00000000000E+00 -0.28444848712E+03  0.53774440946E+03  0.45635305201E+03 0.  0.
      99925    2    3    3    0    0  0.10353258730E+03  0.39144722802E+02 -0.21289129637E+03  0.35603242415E+03  0.26303056290E+03 0.  0.
         25    1    4    4    0    0  0.84622651462E+01  0.21147875151E+02 -0.90725502508E+02  0.15619688684E+03  0.12509000000E+03 0.  0.
         25    1    3    3    0    0 -0.10353258730E+03 -0.39144722802E+02 -0.71557190750E+02  0.18171198531E+03  0.12509000000E+03 0.  0.
         25    1    4    4    0    0  0.95070322155E+02  0.17996847651E+02 -0.12216579386E+03  0.19983553730E+03  0.12509000000E+03 0.  0.
<mgrwt>
<rscale>  2 0.45635305E+03</rscale>
<asrwt>0</asrwt>
<pdfrwt beam="1">  1       21 0.18624700E-01 0.45635305E+03</pdfrwt>
<pdfrwt beam="2">  1       21 0.60455361E-01 0.45635305E+03</pdfrwt>
<totfact> 0.62016920E+04</totfact>
</mgrwt>
</event>
<event>
 7    0  0.4691878E-002  0.4574994E+03  0.7546771E-02  0.1025509E+00
         21   -1    0    0  502  501  0.00000000000E+00  0.00000000000E+00  0.14207796764E+03  0.14207796764E+03  0.00000000000E+00 0.  1.
         21   -1    0    0  501  502 -0.00000000000E+00 -0.00000000000E+00 -0.36829368532E+03  0.36829368532E+03  0.00000000000E+00 0.  1.
      99926    2    1    2    0    0  0.14210854715E-13  0.00000000000E+00 -0.22621571769E+03  0.51037165296E+03  0.45749936963E+03 0.  0.
      99925    2    3    3    0    0  0.93117707204E+02 -0.57982335101E+02 -0.10068828577E+03  0.30195499613E+03  0.26268960813E+03 0.  0.
         25    1    4    4    0    0  0.69444665754E+02 -0.57409800073E+02 -0.32568780205E+02  0.15756484472E+03  0.12509000000E+03 0.  0.
         25    1    4    4    0    0  0.23673041450E+02 -0.57253502809E+00 -0.68119505565E+02  0.14439015142E+03  0.12509000000E+03 0.  0.
         25    1    3    3    0    0 -0.93117707204E+02  0.57982335101E+02 -0.12552743192E+03  0.20841665683E+03  0.12509000000E+03 0.  0.
<mgrwt>
<rscale>  2 0.45749937E+03</rscale>
<asrwt>0</asrwt>
<pdfrwt beam="1">  1       21 0.20893819E-01 0.45749937E+03</pdfrwt>
<pdfrwt beam="2">  1       21 0.54160835E-01 0.45749937E+03</pdfrwt>
<totfact> 0.63283337E+04</totfact>
</mgrwt>
</event>
<event>
 7    0  0.4691878E-002  0.4559625E+03  0.7546771E-02  0.1025959E+00
         21   -1    0    0  502  501  0.00000000000E+00  0.00000000000E+00  0.15231058166E+03  0.15231058166E+03  0.00000000000E+00 0.  1.
         21   -1    0    0  501  502 -0.00000000000E+00 -0.00000000000E+00 -0.34124648038E+03  0.34124648038E+03  0.00000000000E+00 0.  1.
      99926    2    1    2    0    0  0.00000000000E+00  0.00000000000E+00 -0.18893589872E+03  0.49355706204E+03  0.45596249809E+03 0.  0.
      99925    2    3    3    0    0 -0.32708948420E+02 -0.10788155161E+03 -0.99584362284E+02  0.30292781547E+03  0.26294469322E+03 0.  0.
         25    1    4    4    0    0 -0.48768437140E+02 -0.60553296153E+02 -0.26416398724E+02  0.14963420851E+03  0.12509000000E+03 0.  0.
         25    1    3    3    0    0  0.32708948420E+02  0.10788155161E+03 -0.89351536438E+02  0.19062924657E+03  0.12509000000E+03 0.  0.
         25    1    4    4    0    0  0.16059488720E+02 -0.47328255458E+02 -0.73167963559E+02  0.15329360696E+03  0.12509000000E+03 0.  0.
<mgrwt>
<rscale>  2 0.45596250E+03</rscale>
<asrwt>0</asrwt>
<pdfrwt beam="1">  1       21 0.22398615E-01 0.45596250E+03</pdfrwt>
<pdfrwt beam="2">  1       21 0.50183306E-01 0.45596250E+03</pdfrwt>
<totfact> 0.65225891E+04</totfact>
</mgrwt>
</event>
<event>
 7    0  0.4691878E-002  0.4542028E+03  0.7546771E-02  0.1026476E+00
         21   -1    0    0  502  501  0.00000000000E+00  0.00000000000E+00  0.73657562343E+03  0.73657562343E+03  0.00000000000E+00 0.  1.
         21   -1    0    0  501  502 -0.00000000000E+00 -0.00000000000E+00 -0.70020028964E+02  0.70020028964E+02  0.00000000000E+00 0.  1.
      99926    2    1    2    0    0  0.00000000000E+00 -0.35527136788E-14  0.66655559447E+03  0.80659565239E+03  0.45420280266E+03 0.  0.
      99925    2    3    3    0    0  0.10853104284E+03  0.28406278348E+02  0.40877787364E+03  0.49889000512E+03  0.26307030110E+03 0.  0.
         25    1    4    4    0    0  0.39779330150E+02 -0.24891077454E+02  0.19436914566E+03  0.23585765565E+03  0.12509000000E+03 0.  0.
         25    1    4    4    0    0  0.68751712692E+02  0.53297355802E+02  0.21440872798E+03  0.26303234947E+03  0.12509000000E+03 0.  0.
         25    1    3    3    0    0 -0.10853104284E+03 -0.28406278348E+02  0.25777772083E+03  0.30770564728E+03  0.12509000000E+03 0.  0.
<mgrwt>
<rscale>  2 0.45420280E+03</rscale>
<asrwt>0</asrwt>
<pdfrwt beam="1">  1       21 0.10831994E+00 0.45420280E+03</pdfrwt>
<pdfrwt beam="2">  1       21 0.10297063E-01 0.45420280E+03</pdfrwt>
<totfact> 0.47745431E+04</totfact>
</mgrwt>
</event>
<event>
 7    0  0.4691878E-002  0.4491087E+03  0.7546771E-02  0.1027988E+00
         21   -1    0    0  502  501  0.00000000000E+00  0.00000000000E+00  0.67254098195E+02  0.67254098195E+02  0.00000000000E+00 0. -1.
         21   -1    0    0  501  502 -0.00000000000E+00 -0.00000000000E+00 -0.74976342016E+03  0.74976342016E+03  0.00000000000E+00 0. -1.
      99926    2    1    2    0    0  0.00000000000E+00  0.00000000000E+00 -0.68250932196E+03  0.81701751835E+03  0.44910872930E+03 0.  0.
      99925    2    3    3    0    0 -0.10110322604E+03 -0.25389934504E+02 -0.48013516428E+03  0.55726894975E+03  0.26296843023E+03 0.  0.
         25    1    3    3    0    0  0.10110322604E+03  0.25389934504E+02 -0.20237415769E+03  0.25974856860E+03  0.12509000000E+03 0.  0.
         25    1    4    4    0    0 -0.41044502262E+02 -0.15441581625E+01 -0.30749321149E+03  0.33449457216E+03  0.12509000000E+03 0.  0.
         25    1    4    4    0    0 -0.60058723779E+02 -0.23845776341E+02 -0.17264195278E+03  0.22277437759E+03  0.12509000000E+03 0.  0.
<mgrwt>
<rscale>  2 0.44910873E+03</rscale>
<asrwt>0</asrwt>
<pdfrwt beam="1">  1       21 0.98903087E-02 0.44910873E+03</pdfrwt>
<pdfrwt beam="2">  1       21 0.11025932E+00 0.44910873E+03</pdfrwt>
<totfact> 0.49187400E+04</totfact>
</mgrwt>
</event>
<event>
 7    0  0.4691878E-002  0.4157128E+03  0.7546771E-02  0.1038471E+00
         21   -1    0    0  502  501  0.00000000000E+00  0.00000000000E+00  0.13210080923E+03  0.13210080923E+03  0.00000000000E+00 0. -1.
         21   -1    0    0  501  502 -0.00000000000E+00 -0.00000000000E+00 -0.32705532295E+03  0.32705532295E+03  0.00000000000E+00 0. -1.
      99926    2    1    2    0    0  0.00000000000E+00 -0.53290705182E-14 -0.19495451372E+03  0.45915613218E+03  0.41571275095E+03 0.  0.
      99925    2    3    3    0    0 -0.69597112861E+02 -0.60388609755E+01 -0.12737588674E+03  0.30074336475E+03  0.26332817730E+03 0.  0.
         25    1    4    4    0    0 -0.49785295558E+02  0.34855045887E+02 -0.71870597352E+02  0.15654501187E+03  0.12509000000E+03 0.  0.
         25    1    4    4    0    0 -0.19811817303E+02 -0.40893906863E+02 -0.55505289386E+02  0.14419835288E+03  0.12509000000E+03 0.  0.
         25    1    3    3    0    0  0.69597112861E+02  0.60388609755E+01 -0.67578626985E+02  0.15841276743E+03  0.12509000000E+03 0.  0.
<mgrwt>
<rscale>  2 0.41571275E+03</rscale>
<asrwt>0</asrwt>
<pdfrwt beam="1">  1       21 0.19426590E-01 0.41571275E+03</pdfrwt>
<pdfrwt beam="2">  1       21 0.48096370E-01 0.41571275E+03</pdfrwt>
<totfact> 0.94438063E+04</totfact>
</mgrwt>
</event>
<event>
 7    0  0.4691878E-002  0.4637600E+03  0.7546771E-02  0.1023696E+00
         21   -1    0    0  502  501  0.00000000000E+00  0.00000000000E+00  0.34844604813E+03  0.34844604813E+03  0.00000000000E+00 0. -1.
         21   -1    0    0  501  502 -0.00000000000E+00 -0.00000000000E+00 -0.15430894974E+03  0.15430894974E+03  0.00000000000E+00 0. -1.
      99926    2    1    2    0    0  0.00000000000E+00  0.14210854715E-13  0.19413709839E+03  0.50275499787E+03  0.46376004022E+03 0.  0.
      99925    2    3    3    0    0 -0.70089396786E+02  0.79011603231E+02  0.56815574202E+02  0.28907283649E+03  0.26302041429E+03 0.  0.
         25    1    4    4    0    0 -0.59066581290E+02  0.69301006516E+01  0.23325219502E+02  0.14045804101E+03  0.12509000000E+03 0.  0.
         25    1    4    4    0    0 -0.11022815496E+02  0.72081502579E+02  0.33490354700E+02  0.14861479547E+03  0.12509000000E+03 0.  0.
         25    1    3    3    0    0  0.70089396786E+02 -0.79011603231E+02  0.13732152419E+03  0.21368216138E+03  0.12509000000E+03 0.  0.
<mgrwt>
<rscale>  2 0.46376004E+03</rscale>
<asrwt>0</asrwt>
<pdfrwt beam="1">  1       21 0.51242066E-01 0.46376004E+03</pdfrwt>
<pdfrwt beam="2">  1       21 0.22692493E-01 0.46376004E+03</pdfrwt>
<totfact> 0.60742374E+04</totfact>
</mgrwt>
</event>
<event>
 7    0  0.4691878E-002  0.4514171E+03  0.7546771E-02  0.1027300E+00
         21   -1    0    0  502  501  0.00000000000E+00  0.00000000000E+00  0.33091383373E+03  0.33091383373E+03  0.00000000000E+00 0.  1.
         21   -1    0    0  501  502 -0.00000000000E+00 -0.00000000000E+00 -0.15395047876E+03  0.15395047876E+03  0.00000000000E+00 0.  1.
      99926    2    1    2    0    0  0.00000000000E+00  0.14210854715E-13  0.17696335497E+03  0.48486431250E+03  0.45141707160E+03 0.  0.
      99925    2    3    3    0    0 -0.65013362472E+02 -0.76924908145E+02  0.65119521060E+02  0.28915858934E+03  0.26311206542E+03 0.  0.
         25    1    3    3    0    0  0.65013362472E+02  0.76924908145E+02  0.11184383391E+03  0.19570572316E+03  0.12509000000E+03 0.  0.
         25    1    4    4    0    0  0.23203656840E+01 -0.51792838735E+02  0.48967267910E+02  0.14399022074E+03  0.12509000000E+03 0.  0.
         25    1    4    4    0    0 -0.67333728156E+02 -0.25132069411E+02  0.16152253150E+02  0.14516836860E+03  0.12509000000E+03 0.  0.
<mgrwt>
<rscale>  2 0.45141707E+03</rscale>
<asrwt>0</asrwt>
<pdfrwt beam="1">  1       21 0.48663799E-01 0.45141707E+03</pdfrwt>
<pdfrwt beam="2">  1       21 0.22639776E-01 0.45141707E+03</pdfrwt>
<totfact> 0.68268908E+04</totfact>
</mgrwt>
</event>
<event>
 7    0  0.4691878E-002  0.4521372E+03  0.7546771E-02  0.1027087E+00
         21   -1    0    0  502  501  0.00000000000E+00  0.00000000000E+00  0.31131836593E+03  0.31131836593E+03  0.00000000000E+00 0.  1.
         21   -1    0    0  501  502 -0.00000000000E+00 -0.00000000000E+00 -0.16416318570E+03  0.16416318570E+03  0.00000000000E+00 0.  1.
      99926    2    1    2    0    0  0.00000000000E+00  0.71054273576E-14  0.14715518024E+03  0.47548155163E+03  0.45213721243E+03 0.  0.
      99925    2    3    3    0    0 -0.76821156098E+02  0.57838755937E+02  0.15000908908E+03  0.31767640403E+03  0.26299954213E+03 0.  0.
         25    1    4    4    0    0  0.15226864286E+01  0.13047618141E+02  0.66437227015E+02  0.14224616742E+03  0.12509000000E+03 0.  0.
         25    1    3    3    0    0  0.76821156098E+02 -0.57838755937E+02 -0.28539088443E+01  0.15780514760E+03  0.12509000000E+03 0.  0.
         25    1    4    4    0    0 -0.78343842527E+02  0.44791137796E+02  0.83571862065E+02  0.17543023661E+03  0.12509000000E+03 0.  0.
<mgrwt>
<rscale>  2 0.45213721E+03</rscale>
<asrwt>0</asrwt>
<pdfrwt beam="1">  1       21 0.45782113E-01 0.45213721E+03</pdfrwt>
<pdfrwt beam="2">  1       21 0.24141645E-01 0.45213721E+03</pdfrwt>
<totfact> 0.68575399E+04</totfact>
</mgrwt>
</event>
<event>
 7    0  0.4691878E-002  0.4547899E+03  0.7546771E-02  0.1026303E+00
         21   -1    0    0  502  501  0.00000000000E+00  0.00000000000E+00  0.25536688675E+04  0.25536688675E+04  0.00000000000E+00 0.  1.
         21   -1    0    0  501  502 -0.00000000000E+00 -0.00000000000E+00 -0.20248691461E+02  0.20248691461E+02  0.00000000000E+00 0.  1.
      99926    2    1    2    0    0  0.00000000000E+00  0.00000000000E+00  0.25334201760E+04  0.25739175590E+04  0.45478985473E+03 0.  0.
      99925    2    3    3    0    0 -0.11142141112E+03 -0.14182646016E+02  0.16585258473E+04  0.16830171869E+04  0.26310261700E+03 0.  0.
         25    1    4    4    0    0 -0.84575244716E+02  0.95059065121E+01  0.10406009056E+04  0.10515422421E+04  0.12509000000E+03 0.  0.
         25    1    4    4    0    0 -0.26846166408E+02 -0.23688552528E+02  0.61792494170E+03  0.63147494475E+03  0.12509000000E+03 0.  0.
         25    1    3    3    0    0  0.11142141112E+03  0.14182646016E+02  0.87489432879E+03  0.89090037207E+03  0.12509000000E+03 0.  0.
<mgrwt>
<rscale>  2 0.45478985E+03</rscale>
<asrwt>0</asrwt>
<pdfrwt beam="1">  1       21 0.37553932E+00 0.45478985E+03</pdfrwt>
<pdfrwt beam="2">  1       21 0.29777505E-02 0.45478985E+03</pdfrwt>
<totfact> 0.64153080E+03</totfact>
</mgrwt>
</event>
<event>
 7    0  0.4691878E-002  0.4528505E+03  0.7546771E-02  0.1026875E+00
         21   -1    0    0  502  501  0.00000000000E+00  0.00000000000E+00  0.70504118680E+02  0.70504118680E+02  0.00000000000E+00 0.  1.
         21   -1    0    0  501  502 -0.00000000000E+00 -0.00000000000E+00 -0.72716872024E+03  0.72716872024E+03  0.00000000000E+00 0.  1.
      99926    2    1    2    0    0 -0.71054273576E-14  0.35527136788E-14 -0.65666460156E+03  0.79767283892E+03  0.45285048196E+03 0.  0.
      99925    2    3    3    0    0 -0.37508462540E+02 -0.21472713957E+02 -0.23365022486E+03  0.35443855189E+03  0.26299486170E+03 0.  0.
         25    1    4    4    0    0 -0.37870042025E+01  0.11762327275E+02 -0.15392775010E+03  0.19873085844E+03  0.12509000000E+03 0.  0.
         25    1    4    4    0    0 -0.33721458337E+02 -0.33235041232E+02 -0.79722474760E+02  0.15570769345E+03  0.12509000000E+03 0.  0.
         25    1    3    3    0    0  0.37508462540E+02  0.21472713957E+02 -0.42301437670E+03  0.44323428703E+03  0.12509000000E+03 0.  0.
<mgrwt>
<rscale>  2 0.45285048E+03</rscale>
<asrwt>0</asrwt>
<pdfrwt beam="1">  1       21 0.10368253E-01 0.45285048E+03</pdfrwt>
<pdfrwt beam="2">  1       21 0.10693657E+00 0.45285048E+03</pdfrwt>
<totfact> 0.48693829E+04</totfact>
</mgrwt>
</event>
<event>
 7    0  0.4691878E-002  0.4421138E+03  0.7546771E-02  0.1030100E+00
         21   -1    0    0  502  501  0.00000000000E+00  0.00000000000E+00  0.16693052524E+03  0.16693052524E+03  0.00000000000E+00 0.  1.
         21   -1    0    0  501  502 -0.00000000000E+00 -0.00000000000E+00 -0.29273352282E+03  0.29273352282E+03  0.00000000000E+00 0.  1.
      99926    2    1    2    0    0  0.00000000000E+00  0.00000000000E+00 -0.12580299758E+03  0.45966404806E+03  0.44211383475E+03 0.  0.
      99925    2    3    3    0    0 -0.58428512079E+02 -0.50858253779E+02 -0.13497366103E+02  0.27456808386E+03  0.26306843365E+03 0.  0.
         25    1    4    4    0    0 -0.34698098328E+02 -0.57652318760E+02  0.18156730829E+02  0.14319540098E+03  0.12509000000E+03 0.  0.
         25    1    4    4    0    0 -0.23730413750E+02  0.67940649810E+01 -0.31654096932E+02  0.13137268288E+03  0.12509000000E+03 0.  0.
         25    1    3    3    0    0  0.58428512079E+02  0.50858253779E+02 -0.11230563148E+03  0.18509596420E+03  0.12509000000E+03 0.  0.
<mgrwt>
<rscale>  2 0.44211383E+03</rscale>
<asrwt>0</asrwt>
<pdfrwt beam="1">  1       21 0.24548607E-01 0.44211383E+03</pdfrwt>
<pdfrwt beam="2">  1       21 0.43049047E-01 0.44211383E+03</pdfrwt>
<totfact> 0.75655329E+04</totfact>
</mgrwt>
</event>
<event>
 7    0  0.4691878E-002  0.4551561E+03  0.7546771E-02  0.1026196E+00
         21   -1    0    0  502  501  0.00000000000E+00  0.00000000000E+00  0.12338429201E+04  0.12338429201E+04  0.00000000000E+00 0. -1.
         21   -1    0    0  501  502 -0.00000000000E+00 -0.00000000000E+00 -0.41975978146E+02  0.41975978146E+02  0.00000000000E+00 0. -1.
      99926    2    1    2    0    0 -0.17763568394E-14  0.00000000000E+00  0.11918669419E+04  0.12758188982E+04  0.45515607630E+03 0.  0.
      99925    2    3    3    0    0  0.88431479059E+01 -0.65132236832E+02  0.49179467824E+03  0.56162768291E+03  0.26314110117E+03 0.  0.
         25    1    3    3    0    0 -0.88431479059E+01  0.65132236832E+02  0.70007226369E+03  0.71419121531E+03  0.12509000000E+03 0.  0.
         25    1    4    4    0    0  0.44098817006E+02 -0.42343635290E+02  0.24714870646E+03  0.28366825751E+03  0.12509000000E+03 0.  0.
         25    1    4    4    0    0 -0.35255669100E+02 -0.22788601542E+02  0.24464597178E+03  0.27795942540E+03  0.12509000000E+03 0.  0.
<mgrwt>
<rscale>  2 0.45515608E+03</rscale>
<asrwt>0</asrwt>
<pdfrwt beam="1">  1       21 0.18144747E+00 0.45515608E+03</pdfrwt>
<pdfrwt beam="2">  1       21 0.61729387E-02 0.45515608E+03</pdfrwt>
<totfact> 0.29788990E+04</totfact>
</mgrwt>
</event>
<event>
 7    0  0.4691878E-002  0.4561735E+03  0.7546771E-02  0.1025897E+00
         21   -1    0    0  502  501  0.00000000000E+00  0.00000000000E+00  0.71696311082E+03  0.71696311082E+03  0.00000000000E+00 0.  1.
         21   -1    0    0  501  502 -0.00000000000E+00 -0.00000000000E+00 -0.72561000263E+02  0.72561000263E+02  0.00000000000E+00 0.  1.
      99926    2    1    2    0    0  0.00000000000E+00  0.00000000000E+00  0.64440211056E+03  0.78952411108E+03  0.45617347785E+03 0.  0.
      99925    2    3    3    0    0 -0.65795344826E+02 -0.91078980688E+02  0.36962741401E+03  0.46738586423E+03  0.26306028353E+03 0.  0.
         25    1    3    3    0    0  0.65795344826E+02  0.91078980688E+02  0.27477469655E+03  0.32213824685E+03  0.12509000000E+03 0.  0.
         25    1    4    4    0    0 -0.29805658723E+02 -0.14166195707E+02  0.21642423048E+03  0.25214284450E+03  0.12509000000E+03 0.  0.
         25    1    4    4    0    0 -0.35989686103E+02 -0.76912784981E+02  0.15320318353E+03  0.21524301973E+03  0.12509000000E+03 0.  0.
<mgrwt>
<rscale>  2 0.45617348E+03</rscale>
<asrwt>0</asrwt>
<pdfrwt beam="1">  1       21 0.10543575E+00 0.45617348E+03</pdfrwt>
<pdfrwt beam="2">  1       21 0.10670736E-01 0.45617348E+03</pdfrwt>
<totfact> 0.47833641E+04</totfact>
</mgrwt>
</event>
<event>
 7    0  0.4691878E-002  0.4029833E+03  0.7546771E-02  0.1042752E+00
         21   -1    0    0  502  501  0.00000000000E+00  0.00000000000E+00  0.37796083097E+03  0.37796083097E+03  0.00000000000E+00 0. -1.
         21   -1    0    0  501  502 -0.00000000000E+00 -0.00000000000E+00 -0.10741560541E+03  0.10741560541E+03  0.00000000000E+00 0. -1.
      99926    2    1    2    0    0  0.00000000000E+00 -0.17763568394E-14  0.27054522556E+03  0.48537643638E+03  0.40298333207E+03 0.  0.
      99925    2    3    3    0    0  0.41934823340E+02 -0.13126206116E+02  0.14836717435E+03  0.30508275654E+03  0.26292935024E+03 0.  0.
         25    1    3    3    0    0 -0.41934823340E+02  0.13126206116E+02  0.12217805121E+03  0.18029367984E+03  0.12509000000E+03 0.  0.
         25    1    4    4    0    0  0.45893723804E+02  0.13149211622E+02  0.10464820644E+03  0.16993496068E+03  0.12509000000E+03 0.  0.
         25    1    4    4    0    0 -0.39589004644E+01 -0.26275417738E+02  0.43718967914E+02  0.13514779586E+03  0.12509000000E+03 0.  0.
<mgrwt>
<rscale>  2 0.40298333E+03</rscale>
<asrwt>0</asrwt>
<pdfrwt beam="1">  1       21 0.55582475E-01 0.40298333E+03</pdfrwt>
<pdfrwt beam="2">  1       21 0.15796413E-01 0.40298333E+03</pdfrwt>
<totfact> 0.10251102E+05</totfact>
</mgrwt>
</event>
<event>
 7    0  0.4691878E-002  0.4136985E+03  0.7546771E-02  0.1039137E+00
         21   -1    0    0  502  501  0.00000000000E+00  0.00000000000E+00  0.59968644271E+03  0.59968644271E+03  0.00000000000E+00 0.  1.
         21   -1    0    0  501  502 -0.00000000000E+00 -0.00000000000E+00 -0.71348313727E+02  0.71348313727E+02  0.00000000000E+00 0.  1.
      99926    2    1    2    0    0  0.00000000000E+00 -0.71054273576E-14  0.52833812898E+03  0.67103475644E+03  0.41369852044E+03 0.  0.
      99925    2    3    3    0    0 -0.14371808014E+02  0.48937665354E+02  0.41864884219E+03  0.49702127508E+03  0.26298640813E+03 0.  0.
         25    1    3    3    0    0  0.14371808014E+02 -0.48937665354E+02  0.10968928679E+03  0.17401348135E+03  0.12509000000E+03 0.  0.
         25    1    4    4    0    0 -0.29972767976E+02  0.66744939555E+01  0.15331213908E+03  0.20023744849E+03  0.12509000000E+03 0.  0.
         25    1    4    4    0    0  0.15600959962E+02  0.42263171399E+02  0.26533670311E+03  0.29678382659E+03  0.12509000000E+03 0.  0.
<mgrwt>
<rscale>  2 0.41369852E+03</rscale>
<asrwt>0</asrwt>
<pdfrwt beam="1">  1       21 0.88189180E-01 0.41369852E+03</pdfrwt>
<pdfrwt beam="2">  1       21 0.10492399E-01 0.41369852E+03</pdfrwt>
<totfact> 0.76520691E+04</totfact>
</mgrwt>
</event>
<event>
 7    0  0.4691878E-002  0.4574385E+03  0.7546771E-02  0.1025527E+00
         21   -1    0    0  502  501  0.00000000000E+00  0.00000000000E+00  0.36733472604E+03  0.36733472604E+03  0.00000000000E+00 0.  1.
         21   -1    0    0  501  502 -0.00000000000E+00 -0.00000000000E+00 -0.14241096743E+03  0.14241096743E+03  0.00000000000E+00 0.  1.
      99926    2    1    2    0    0  0.14210854715E-13  0.00000000000E+00  0.22492375862E+03  0.50974569347E+03  0.45743849294E+03 0.  0.
      99925    2    3    3    0    0  0.73953870858E+02 -0.68331097910E+02  0.20288679475E+03  0.34766099390E+03  0.26375519187E+03 0.  0.
         25    1    3    3    0    0 -0.73953870858E+02  0.68331097910E+02  0.22036963861E+02  0.16208469956E+03  0.12509000000E+03 0.  0.
         25    1    4    4    0    0  0.20163116585E+02  0.35540170451E+01  0.11006077671E+03  0.16786919008E+03  0.12509000000E+03 0.  0.
         25    1    4    4    0    0  0.53790754273E+02 -0.71885114955E+02  0.92826018046E+02  0.17979180383E+03  0.12509000000E+03 0.  0.
<mgrwt>
<rscale>  2 0.45743849E+03</rscale>
<asrwt>0</asrwt>
<pdfrwt beam="1">  1       21 0.54019813E-01 0.45743849E+03</pdfrwt>
<pdfrwt beam="2">  1       21 0.20942789E-01 0.45743849E+03</pdfrwt>
<totfact> 0.63356208E+04</totfact>
</mgrwt>
</event>
<event>
 7    0  0.4691878E-002  0.4556524E+03  0.7546771E-02  0.1026050E+00
         21   -1    0    0  502  501  0.00000000000E+00  0.00000000000E+00  0.22837566775E+03  0.22837566775E+03  0.00000000000E+00 0.  1.
         21   -1    0    0  501  502 -0.00000000000E+00 -0.00000000000E+00 -0.22727800667E+03  0.22727800667E+03  0.00000000000E+00 0.  1.
      99926    2    1    2    0    0  0.00000000000E+00  0.88817841970E-15  0.10976610839E+01  0.45565367442E+03  0.45565235230E+03 0.  0.
      99925    2    3    3    0    0 -0.44107797968E+02  0.33973549987E+01 -0.10413440612E+03  0.28630688251E+03  0.26300307332E+03 0.  0.
         25    1    4    4    0    0 -0.38326167760E+02  0.27888867644E+02 -0.24772848639E+02  0.13604369226E+03  0.12509000000E+03 0.  0.
         25    1    4    4    0    0 -0.57816302075E+01 -0.24491512646E+02 -0.79361557479E+02  0.15026319025E+03  0.12509000000E+03 0.  0.
         25    1    3    3    0    0  0.44107797968E+02 -0.33973549987E+01  0.10523206720E+03  0.16934679191E+03  0.12509000000E+03 0.  0.
<mgrwt>
<rscale>  2 0.45565235E+03</rscale>
<asrwt>0</asrwt>
<pdfrwt beam="1">  1       21 0.33584657E-01 0.45565235E+03</pdfrwt>
<pdfrwt beam="2">  1       21 0.33423236E-01 0.45565235E+03</pdfrwt>
<totfact> 0.68142549E+04</totfact>
</mgrwt>
</event>
<event>
 7    0  0.4691878E-002  0.4797295E+03  0.7546771E-02  0.1019210E+00
         21   -1    0    0  502  501  0.00000000000E+00  0.00000000000E+00  0.38741827387E+03  0.38741827387E+03  0.00000000000E+00 0.  1.
         21   -1    0    0  501  502 -0.00000000000E+00 -0.00000000000E+00 -0.14850901491E+03  0.14850901491E+03  0.00000000000E+00 0.  1.
      99926    2    1    2    0    0  0.71054273576E-14  0.00000000000E+00  0.23890925896E+03  0.53592728878E+03  0.47972953301E+03 0.  0.
      99925    2    3    3    0    0 -0.33234254956E+02  0.11066538076E+03  0.22477214684E+03  0.36505099364E+03  0.26341671884E+03 0.  0.
         25    1    3    3    0    0  0.33234254956E+02 -0.11066538076E+03  0.14137112122E+02  0.17087629514E+03  0.12509000000E+03 0.  0.
         25    1    4    4    0    0 -0.41692225792E+02  0.86300762707E+02  0.14705568523E+03  0.21554337381E+03  0.12509000000E+03 0.  0.
         25    1    4    4    0    0  0.84579708355E+01  0.24364618051E+02  0.77716461604E+02  0.14950761983E+03  0.12509000000E+03 0.  0.
<mgrwt>
<rscale>  2 0.47972953E+03</rscale>
<asrwt>0</asrwt>
<pdfrwt beam="1">  1       21 0.56973275E-01 0.47972953E+03</pdfrwt>
<pdfrwt beam="2">  1       21 0.21839561E-01 0.47972953E+03</pdfrwt>
<totfact> 0.51867033E+04</totfact>
</mgrwt>
</event>
<event>
 7    0  0.4691878E-002  0.4623197E+03  0.7546771E-02  0.1024111E+00
         21   -1    0    0  502  501  0.00000000000E+00  0.00000000000E+00  0.60429045860E+02  0.60429045860E+02  0.00000000000E+00 0. -1.
         21   -1    0    0  501  502 -0.00000000000E+00 -0.00000000000E+00 -0.88425826048E+03  0.88425826048E+03  0.00000000000E+00 0. -1.
      99926    2    1    2    0    0  0.00000000000E+00  0.14210854715E-13 -0.82382921462E+03  0.94468730634E+03  0.46231972908E+03 0.  0.
      99925    2    3    3    0    0 -0.67596633524E+02 -0.98216886725E+02 -0.48895322621E+03  0.56785140384E+03  0.26299067991E+03 0.  0.
         25    1    4    4    0    0 -0.31163006460E+00 -0.38207858302E+02 -0.17936728202E+03  0.22199114286E+03  0.12509000000E+03 0.  0.
         25    1    4    4    0    0 -0.67285003459E+02 -0.60009028423E+02 -0.30958594419E+03  0.34586026098E+03  0.12509000000E+03 0.  0.
         25    1    3    3    0    0  0.67596633524E+02  0.98216886725E+02 -0.33487598841E+03  0.37683590250E+03  0.12509000000E+03 0.  0.
<mgrwt>
<rscale>  2 0.46231973E+03</rscale>
<asrwt>0</asrwt>
<pdfrwt beam="1">  1       21 0.88866250E-02 0.46231973E+03</pdfrwt>
<pdfrwt beam="2">  1       21 0.13003797E+00 0.46231973E+03</pdfrwt>
<totfact> 0.39071681E+04</totfact>
</mgrwt>
</event>
<event>
 7    0  0.4691878E-002  0.4534810E+03  0.7546771E-02  0.1026689E+00
         21   -1    0    0  502  501  0.00000000000E+00  0.00000000000E+00  0.13576685477E+03  0.13576685477E+03  0.00000000000E+00 0. -1.
         21   -1    0    0  501  502 -0.00000000000E+00 -0.00000000000E+00 -0.37867306776E+03  0.37867306776E+03  0.00000000000E+00 0. -1.
      99926    2    1    2    0    0  0.00000000000E+00  0.35527136788E-14 -0.24290621298E+03  0.51443992253E+03  0.45348098702E+03 0.  0.
      99925    2    3    3    0    0 -0.10481657635E+03  0.23966937828E+02 -0.11930430323E+03  0.30831891685E+03  0.26318455299E+03 0.  0.
         25    1    4    4    0    0 -0.54631207972E+02  0.43657805169E+02 -0.32982882548E+02  0.14705764678E+03  0.12509000000E+03 0.  0.
         25    1    4    4    0    0 -0.50185368377E+02 -0.19690867341E+02 -0.86321420679E+02  0.16126127007E+03  0.12509000000E+03 0.  0.
         25    1    3    3    0    0  0.10481657635E+03 -0.23966937828E+02 -0.12360190976E+03  0.20612100568E+03  0.12509000000E+03 0.  0.
<mgrwt>
<rscale>  2 0.45348099E+03</rscale>
<asrwt>0</asrwt>
<pdfrwt beam="1">  1       21 0.19965714E-01 0.45348099E+03</pdfrwt>
<pdfrwt beam="2">  1       21 0.55687214E-01 0.45348099E+03</pdfrwt>
<totfact> 0.65048184E+04</totfact>
</mgrwt>
</event>
<event>
 7    0  0.4691878E-002  0.4777897E+03  0.7546771E-02  0.1019744E+00
         21   -1    0    0  502  501  0.00000000000E+00  0.00000000000E+00  0.16128614871E+03  0.16128614871E+03  0.00000000000E+00 0.  1.
         21   -1    0    0  501  502 -0.00000000000E+00 -0.00000000000E+00 -0.35384777098E+03  0.35384777098E+03  0.00000000000E+00 0.  1.
      99926    2    1    2    0    0 -0.71054273576E-14  0.00000000000E+00 -0.19256162228E+03  0.51513391969E+03  0.47778967846E+03 0.  0.
      99925    2    3    3    0    0 -0.63314131864E+02  0.85887623371E+02 -0.34062107372E+02  0.28675929880E+03  0.26397974382E+03 0.  0.
         25    1    3    3    0    0  0.63314131864E+02 -0.85887623371E+02 -0.15849951490E+03  0.22837462089E+03  0.12509000000E+03 0.  0.
         25    1    4    4    0    0 -0.47210106142E+02  0.29074691260E+02 -0.53812627893E+02  0.14702870065E+03  0.12509000000E+03 0.  0.
         25    1    4    4    0    0 -0.16104025722E+02  0.56812932111E+02  0.19750520521E+02  0.13973059815E+03  0.12509000000E+03 0.  0.
<mgrwt>
<rscale>  2 0.47778968E+03</rscale>
<asrwt>0</asrwt>
<pdfrwt beam="1">  1       21 0.23718551E-01 0.47778968E+03</pdfrwt>
<pdfrwt beam="2">  1       21 0.52036437E-01 0.47778968E+03</pdfrwt>
<totfact> 0.53807642E+04</totfact>
</mgrwt>
</event>
<event>
 7    0  0.4691878E-002  0.4717472E+03  0.7546771E-02  0.1021428E+00
         21   -1    0    0  502  501  0.00000000000E+00  0.00000000000E+00  0.23311791050E+03  0.23311791050E+03  0.00000000000E+00 0.  1.
         21   -1    0    0  501  502 -0.00000000000E+00 -0.00000000000E+00 -0.23866183338E+03  0.23866183338E+03  0.00000000000E+00 0.  1.
      99926    2    1    2    0    0  0.14210854715E-13  0.00000000000E+00 -0.55439228780E+01  0.47177974388E+03  0.47174716921E+03 0.  0.
      99925    2    3    3    0    0  0.77054974623E+02  0.74816457431E+02 -0.73630713418E+02  0.29340292206E+03  0.26292360354E+03 0.  0.
         25    1    3    3    0    0 -0.77054974623E+02 -0.74816457431E+02  0.68086790540E+02  0.17837682182E+03  0.12509000000E+03 0.  0.
         25    1    4    4    0    0  0.29915226060E+02  0.40941777163E+02 -0.77122704108E+02  0.15545600489E+03  0.12509000000E+03 0.  0.
         25    1    4    4    0    0  0.47139748562E+02  0.33874680268E+02  0.34919906899E+01  0.13794691717E+03  0.12509000000E+03 0.  0.
<mgrwt>
<rscale>  2 0.47174717E+03</rscale>
<asrwt>0</asrwt>
<pdfrwt beam="1">  1       21 0.34282046E-01 0.47174717E+03</pdfrwt>
<pdfrwt beam="2">  1       21 0.35097328E-01 0.47174717E+03</pdfrwt>
<totfact> 0.59040978E+04</totfact>
</mgrwt>
</event>
<event>
 7    0  0.4691878E-002  0.4404603E+03  0.7546771E-02  0.1030606E+00
         21   -1    0    0  502  501  0.00000000000E+00  0.00000000000E+00  0.13976332242E+04  0.13976332242E+04  0.00000000000E+00 0. -1.
         21   -1    0    0  501  502 -0.00000000000E+00 -0.00000000000E+00 -0.34702473004E+02  0.34702473004E+02  0.00000000000E+00 0. -1.
      99926    2    1    2    0    0  0.00000000000E+00  0.00000000000E+00  0.13629307512E+04  0.14323356972E+04  0.44046034660E+03 0.  0.
      99925    2    3    3    0    0  0.73197812856E+02 -0.66308889813E+02  0.86003122372E+03  0.90478453237E+03  0.26310939850E+03 0.  0.
         25    1    3    3    0    0 -0.73197812856E+02  0.66308889813E+02  0.50289952744E+03  0.52755116479E+03  0.12509000000E+03 0.  0.
         25    1    4    4    0    0  0.41295012848E+02 -0.36760797187E+02  0.30644741996E+03  0.33558033852E+03  0.12509000000E+03 0.  0.
         25    1    4    4    0    0  0.31902800009E+02 -0.29548092626E+02  0.55358380375E+03  0.56920419386E+03  0.12509000000E+03 0.  0.
<mgrwt>
<rscale>  2 0.44046035E+03</rscale>
<asrwt>0</asrwt>
<pdfrwt beam="1">  1       21 0.20553426E+00 0.44046035E+03</pdfrwt>
<pdfrwt beam="2">  1       21 0.51033058E-02 0.44046035E+03</pdfrwt>
<totfact> 0.28577796E+04</totfact>
</mgrwt>
</event>
<event>
 7    0  0.4691878E-002  0.4323093E+03  0.7546771E-02  0.1033133E+00
         21   -1    0    0  502  501  0.00000000000E+00  0.00000000000E+00  0.52281837553E+03  0.52281837553E+03  0.00000000000E+00 0.  1.
         21   -1    0    0  501  502 -0.00000000000E+00 -0.00000000000E+00 -0.89367250030E+02  0.89367250030E+02  0.00000000000E+00 0.  1.
      99926    2    1    2    0    0  0.00000000000E+00  0.71054273576E-14  0.43345112550E+03  0.61218562556E+03  0.43230933594E+03 0.  0.
      99925    2    3    3    0    0  0.11850906676E+02  0.57043671196E+02  0.37578135738E+03  0.46262715984E+03  0.26347264764E+03 0.  0.
         25    1    3    3    0    0 -0.11850906676E+02 -0.57043671196E+02  0.57669768112E+02  0.14955846571E+03  0.12509000000E+03 0.  0.
         25    1    4    4    0    0  0.25662387710E+02 -0.48442932262E+01  0.15258295705E+03  0.19902535568E+03  0.12509000000E+03 0.  0.
         25    1    4    4    0    0 -0.13811481034E+02  0.61887964422E+02  0.22319840033E+03  0.26360180417E+03  0.12509000000E+03 0.  0.
<mgrwt>
<rscale>  2 0.43230934E+03</rscale>
<asrwt>0</asrwt>
<pdfrwt beam="1">  1       21 0.76885054E-01 0.43230934E+03</pdfrwt>
<pdfrwt beam="2">  1       21 0.13142243E-01 0.43230934E+03</pdfrwt>
<totfact> 0.69591396E+04</totfact>
</mgrwt>
</event>
<event>
 7    0  0.4691878E-002  0.4471827E+03  0.7546771E-02  0.1028566E+00
         21   -1    0    0  502  501  0.00000000000E+00  0.00000000000E+00  0.82009244027E+03  0.82009244027E+03  0.00000000000E+00 0.  1.
         21   -1    0    0  501  502 -0.00000000000E+00 -0.00000000000E+00 -0.60960324721E+02  0.60960324721E+02  0.00000000000E+00 0.  1.
      99926    2    1    2    0    0  0.00000000000E+00  0.00000000000E+00  0.75913211555E+03  0.88105276499E+03  0.44718274323E+03 0.  0.
      99925    2    3    3    0    0  0.64079831280E+02 -0.43152908710E+02  0.62307567686E+03  0.68073486535E+03  0.26307462725E+03 0.  0.
         25    1    4    4    0    0  0.17042170328E+02 -0.66295366811E+01  0.21078072515E+03  0.24578528947E+03  0.12509000000E+03 0.  0.
         25    1    4    4    0    0  0.47037660952E+02 -0.36523372029E+02  0.41229495171E+03  0.43494957588E+03  0.12509000000E+03 0.  0.
         25    1    3    3    0    0 -0.64079831280E+02  0.43152908710E+02  0.13605643869E+03  0.20031789964E+03  0.12509000000E+03 0.  0.
<mgrwt>
<rscale>  2 0.44718274E+03</rscale>
<asrwt>0</asrwt>
<pdfrwt beam="1">  1       21 0.12060182E+00 0.44718274E+03</pdfrwt>
<pdfrwt beam="2">  1       21 0.89647541E-02 0.44718274E+03</pdfrwt>
<totfact> 0.46867185E+04</totfact>
</mgrwt>
</event>
<event>
 7    0  0.4691878E-002  0.4738190E+03  0.7546771E-02  0.1020848E+00
         21   -1    0    0  502  501  0.00000000000E+00  0.00000000000E+00  0.87583915831E+02  0.87583915831E+02  0.00000000000E+00 0.  1.
         21   -1    0    0  501  502 -0.00000000000E+00 -0.00000000000E+00 -0.64082656395E+03  0.64082656395E+03  0.00000000000E+00 0.  1.
      99926    2    1    2    0    0 -0.35527136788E-14  0.00000000000E+00 -0.55324264812E+03  0.72841047978E+03  0.47381895209E+03 0.  0.
      99925    2    3    3    0    0  0.16461627937E+02  0.88394062541E+02 -0.19826832904E+03  0.34144953757E+03  0.26304554914E+03 0.  0.
         25    1    4    4    0    0  0.22872805861E+02  0.58025189084E+02 -0.14671008325E+03  0.20263623675E+03  0.12509000000E+03 0.  0.
         25    1    4    4    0    0 -0.64111779244E+01  0.30368873457E+02 -0.51558245786E+02  0.13881330083E+03  0.12509000000E+03 0.  0.
         25    1    3    3    0    0 -0.16461627937E+02 -0.88394062541E+02 -0.35497431908E+03  0.38696094221E+03  0.12509000000E+03 0.  0.
<mgrwt>
<rscale>  2 0.47381895E+03</rscale>
<asrwt>0</asrwt>
<pdfrwt beam="1">  1       21 0.12879988E-01 0.47381895E+03</pdfrwt>
<pdfrwt beam="2">  1       21 0.94239200E-01 0.47381895E+03</pdfrwt>
<totfact> 0.44436599E+04</totfact>
</mgrwt>
</event>
<event>
 7    0  0.4691878E-002  0.4595538E+03  0.7546771E-02  0.1024911E+00
         21   -1    0    0  502  501  0.00000000000E+00  0.00000000000E+00  0.10596598658E+04  0.10596598658E+04  0.00000000000E+00 0.  1.
         21   -1    0    0  501  502 -0.00000000000E+00 -0.00000000000E+00 -0.49824867483E+02  0.49824867483E+02  0.00000000000E+00 0.  1.
      99926    2    1    2    0    0  0.35527136788E-14 -0.71054273576E-14  0.10098349983E+04  0.11094847333E+04  0.45955375046E+03 0.  0.
      99925    2    3    3    0    0  0.26371000599E+02 -0.57852811815E+02  0.87098549999E+03  0.91207888537E+03  0.26311551539E+03 0.  0.
         25    1    3    3    0    0 -0.26371000599E+02  0.57852811815E+02  0.13884949835E+03  0.19740584794E+03  0.12509000000E+03 0.  0.
         25    1    4    4    0    0  0.52751263450E+02 -0.34537573602E+02  0.42004859643E+03  0.44279100177E+03  0.12509000000E+03 0.  0.
         25    1    4    4    0    0 -0.26380262851E+02 -0.23315238212E+02  0.45093690355E+03  0.46928788359E+03  0.12509000000E+03 0.  0.
<mgrwt>
<rscale>  2 0.45955375E+03</rscale>
<asrwt>0</asrwt>
<pdfrwt beam="1">  1       21 0.15583232E+00 0.45955375E+03</pdfrwt>
<pdfrwt beam="2">  1       21 0.73271871E-02 0.45955375E+03</pdfrwt>
<totfact> 0.33942845E+04</totfact>
</mgrwt>
</event>
<event>
 7    0  0.4691878E-002  0.4603827E+03  0.7546771E-02  0.1024670E+00
         21   -1    0    0  502  501  0.00000000000E+00  0.00000000000E+00  0.35465038937E+03  0.35465038937E+03  0.00000000000E+00 0. -1.
         21   -1    0    0  501  502 -0.00000000000E+00 -0.00000000000E+00 -0.14940925904E+03  0.14940925904E+03  0.00000000000E+00 0. -1.
      99926    2    1    2    0    0 -0.88817841970E-15  0.00000000000E+00  0.20524113033E+03  0.50405964841E+03  0.46038267515E+03 0.  0.
      99925    2    3    3    0    0 -0.57762628937E+01  0.11693087008E+03  0.14402792166E+03  0.32212350960E+03  0.26327422894E+03 0.  0.
         25    1    4    4    0    0 -0.43871488722E+02  0.57754891749E+02  0.73379161836E+02  0.16214914288E+03  0.12509000000E+03 0.  0.
         25    1    4    4    0    0  0.38095225829E+02  0.59175978335E+02  0.70648759827E+02  0.15997436672E+03  0.12509000000E+03 0.  0.
         25    1    3    3    0    0  0.57762628937E+01 -0.11693087008E+03  0.61213208671E+02  0.18193613882E+03  0.12509000000E+03 0.  0.
<mgrwt>
<rscale>  2 0.46038268E+03</rscale>
<asrwt>0</asrwt>
<pdfrwt beam="1">  1       21 0.52154469E-01 0.46038268E+03</pdfrwt>
<pdfrwt beam="2">  1       21 0.21971950E-01 0.46038268E+03</pdfrwt>
<totfact> 0.62282395E+04</totfact>
</mgrwt>
</event>
<event>
 7    0  0.4691878E-002  0.4579582E+03  0.7546771E-02  0.1025375E+00
         21   -1    0    0  502  501  0.00000000000E+00  0.00000000000E+00  0.56782260396E+03  0.56782260396E+03  0.00000000000E+00 0.  1.
         21   -1    0    0  501  502 -0.00000000000E+00 -0.00000000000E+00 -0.92337675496E+02  0.92337675496E+02  0.00000000000E+00 0.  1.
      99926    2    1    2    0    0 -0.17763568394E-14  0.00000000000E+00  0.47548492846E+03  0.66016027946E+03  0.45795816116E+03 0.  0.
      99925    2    3    3    0    0 -0.13716213054E+02 -0.48077224392E+02  0.14835174088E+03  0.30637618637E+03  0.26336016127E+03 0.  0.
         25    1    4    4    0    0  0.25252793047E+02 -0.76032761742E+01  0.94833522469E+02  0.15917417645E+03  0.12509000000E+03 0.  0.
         25    1    4    4    0    0 -0.38969006101E+02 -0.40473948218E+02  0.53518218412E+02  0.14720200991E+03  0.12509000000E+03 0.  0.
         25    1    3    3    0    0  0.13716213054E+02  0.48077224392E+02  0.32713318758E+03  0.35378409309E+03  0.12509000000E+03 0.  0.
<mgrwt>
<rscale>  2 0.45795816E+03</rscale>
<asrwt>0</asrwt>
<pdfrwt beam="1">  1       21 0.83503323E-01 0.45795816E+03</pdfrwt>
<pdfrwt beam="2">  1       21 0.13579070E-01 0.45795816E+03</pdfrwt>
<totfact> 0.53852226E+04</totfact>
</mgrwt>
</event>
<event>
 7    0  0.4691878E-002  0.4406410E+03  0.7546771E-02  0.1030550E+00
         21   -1    0    0  502  501  0.00000000000E+00  0.00000000000E+00  0.10414543612E+04  0.10414543612E+04  0.00000000000E+00 0.  1.
         21   -1    0    0  501  502 -0.00000000000E+00 -0.00000000000E+00 -0.46608987325E+02  0.46608987325E+02  0.00000000000E+00 0.  1.
      99926    2    1    2    0    0  0.00000000000E+00  0.00000000000E+00  0.99484537392E+03  0.10880633486E+04  0.44064104722E+03 0.  0.
      99925    2    3    3    0    0 -0.52008750952E+02  0.74196202862E+02  0.53545167983E+03  0.60339845303E+03  0.26300419198E+03 0.  0.
         25    1    3    3    0    0  0.52008750952E+02 -0.74196202862E+02  0.45939369410E+03  0.48466489554E+03  0.12509000000E+03 0.  0.
         25    1    4    4    0    0 -0.50157232286E+02  0.10930537043E+02  0.22051798545E+03  0.25867144140E+03  0.12509000000E+03 0.  0.
         25    1    4    4    0    0 -0.18515186661E+01  0.63265665819E+02  0.31493369438E+03  0.34472701163E+03  0.12509000000E+03 0.  0.
<mgrwt>
<rscale>  2 0.44064105E+03</rscale>
<asrwt>0</asrwt>
<pdfrwt beam="1">  1       21 0.15315504E+00 0.44064105E+03</pdfrwt>
<pdfrwt beam="2">  1       21 0.68542635E-02 0.44064105E+03</pdfrwt>
<totfact> 0.40232630E+04</totfact>
</mgrwt>
</event>
<event>
 7    0  0.4691878E-002  0.4738764E+03  0.7546771E-02  0.1020832E+00
         21   -1    0    0  502  501  0.00000000000E+00  0.00000000000E+00  0.12735265859E+04  0.12735265859E+04  0.00000000000E+00 0. -1.
         21   -1    0    0  501  502 -0.00000000000E+00 -0.00000000000E+00 -0.44082078449E+02  0.44082078449E+02  0.00000000000E+00 0. -1.
      99926    2    1    2    0    0  0.71054273576E-14  0.00000000000E+00  0.12294445075E+04  0.13176086644E+04  0.47387635040E+03 0.  0.
      99925    2    3    3    0    0 -0.63988421476E+02  0.13828018210E+02  0.10738627549E+04  0.11075160134E+04  0.26291590164E+03 0.  0.
         25    1    4    4    0    0 -0.26262095021E+02 -0.93537366674E+01  0.37859022877E+03  0.39969395723E+03  0.12509000000E+03 0.  0.
         25    1    3    3    0    0  0.63988421476E+02 -0.13828018210E+02  0.15558175256E+03  0.21009265099E+03  0.12509000000E+03 0.  0.
         25    1    4    4    0    0 -0.37726326456E+02  0.23181754877E+02  0.69527252614E+03  0.70782205615E+03  0.12509000000E+03 0.  0.
<mgrwt>
<rscale>  2 0.47387635E+03</rscale>
<asrwt>0</asrwt>
<pdfrwt beam="1">  1       21 0.18728330E+00 0.47387635E+03</pdfrwt>
<pdfrwt beam="2">  1       21 0.64826594E-02 0.47387635E+03</pdfrwt>
<totfact> 0.24766216E+04</totfact>
</mgrwt>
</event>
<event>
 7    0  0.4691878E-002  0.4609918E+03  0.7546771E-02  0.1024494E+00
         21   -1    0    0  502  501  0.00000000000E+00  0.00000000000E+00  0.13111712920E+03  0.13111712920E+03  0.00000000000E+00 0. -1.
         21   -1    0    0  501  502 -0.00000000000E+00 -0.00000000000E+00 -0.40519769748E+03  0.40519769748E+03  0.00000000000E+00 0. -1.
      99926    2    1    2    0    0  0.00000000000E+00  0.14210854715E-13 -0.27408056827E+03  0.53631482668E+03  0.46099179538E+03 0.  0.
      99925    2    3    3    0    0 -0.57877230400E+02 -0.91371978745E+02 -0.11436803510E+03  0.30641438377E+03  0.26288992911E+03 0.  0.
         25    1    4    4    0    0 -0.21366014489E+02 -0.43296173104E+02 -0.13510241663E+02  0.13476312519E+03  0.12509000000E+03 0.  0.
         25    1    3    3    0    0  0.57877230400E+02  0.91371978745E+02 -0.15971253317E+03  0.22990044291E+03  0.12509000000E+03 0.  0.
         25    1    4    4    0    0 -0.36511215911E+02 -0.48075805641E+02 -0.10085779344E+03  0.17165125858E+03  0.12509000000E+03 0.  0.
<mgrwt>
<rscale>  2 0.46099180E+03</rscale>
<asrwt>0</asrwt>
<pdfrwt beam="1">  1       21 0.19281931E-01 0.46099180E+03</pdfrwt>
<pdfrwt beam="2">  1       21 0.59587897E-01 0.46099180E+03</pdfrwt>
<totfact> 0.59886259E+04</totfact>
</mgrwt>
</event>
<event>
 7    0  0.4691878E-002  0.4530148E+03  0.7546771E-02  0.1026827E+00
         21   -1    0    0  502  501  0.00000000000E+00  0.00000000000E+00  0.11876629114E+03  0.11876629114E+03  0.00000000000E+00 0. -1.
         21   -1    0    0  501  502 -0.00000000000E+00 -0.00000000000E+00 -0.43198796970E+03  0.43198796970E+03  0.00000000000E+00 0. -1.
      99926    2    1    2    0    0  0.00000000000E+00  0.00000000000E+00 -0.31322167855E+03  0.55075426084E+03  0.45301482969E+03 0.  0.
      99925    2    3    3    0    0 -0.75387987295E+02  0.41547541564E+02 -0.28207137131E+03  0.39574653013E+03  0.26389678050E+03 0.  0.
         25    1    4    4    0    0 -0.65811928504E+02  0.43471339687E+02 -0.11794767924E+03  0.18915636507E+03  0.12509000000E+03 0.  0.
         25    1    4    4    0    0 -0.95760587913E+01 -0.19237981226E+01 -0.16412369207E+03  0.20659016506E+03  0.12509000000E+03 0.  0.
         25    1    3    3    0    0  0.75387987295E+02 -0.41547541564E+02 -0.31150307240E+02  0.15500773071E+03  0.12509000000E+03 0.  0.
<mgrwt>
<rscale>  2 0.45301483E+03</rscale>
<asrwt>0</asrwt>
<pdfrwt beam="1">  1       21 0.17465631E-01 0.45301483E+03</pdfrwt>
<pdfrwt beam="2">  1       21 0.63527642E-01 0.45301483E+03</pdfrwt>
<totfact> 0.62797201E+04</totfact>
</mgrwt>
</event>
<event>
 7    0  0.4691878E-002  0.4533778E+03  0.7546771E-02  0.1026720E+00
         21   -1    0    0  502  501  0.00000000000E+00  0.00000000000E+00  0.30098047096E+03  0.30098047096E+03  0.00000000000E+00 0.  1.
         21   -1    0    0  501  502 -0.00000000000E+00 -0.00000000000E+00 -0.17073488296E+03  0.17073488296E+03  0.00000000000E+00 0.  1.
      99926    2    1    2    0    0  0.00000000000E+00  0.00000000000E+00  0.13024558800E+03  0.47171535393E+03  0.45337783574E+03 0.  0.
      99925    2    3    3    0    0 -0.41349252248E+02  0.15344427617E+02 -0.24633997690E+02  0.26780261209E+03  0.26299466360E+03 0.  0.
         25    1    3    3    0    0  0.41349252248E+02 -0.15344427617E+02  0.15487958569E+03  0.20391274184E+03  0.12509000000E+03 0.  0.
         25    1    4    4    0    0 -0.17956934429E+01  0.11795487985E+02 -0.47967882365E+02  0.13450198471E+03  0.12509000000E+03 0.  0.
         25    1    4    4    0    0 -0.39553558805E+02  0.35489396317E+01  0.23333884675E+02  0.13330062738E+03  0.12509000000E+03 0.  0.
<mgrwt>
<rscale>  2 0.45337784E+03</rscale>
<asrwt>0</asrwt>
<pdfrwt beam="1">  1       21 0.44261834E-01 0.45337784E+03</pdfrwt>
<pdfrwt beam="2">  1       21 0.25108071E-01 0.45337784E+03</pdfrwt>
<totfact> 0.68181721E+04</totfact>
</mgrwt>
</event>
<event>
 7    0  0.4691878E-002  0.4550231E+03  0.7546771E-02  0.1026235E+00
         21   -1    0    0  502  501  0.00000000000E+00  0.00000000000E+00  0.54033312864E+02  0.54033312864E+02  0.00000000000E+00 0.  1.
         21   -1    0    0  501  502 -0.00000000000E+00 -0.00000000000E+00 -0.95795526052E+03  0.95795526052E+03  0.00000000000E+00 0.  1.
      99926    2    1    2    0    0  0.00000000000E+00  0.00000000000E+00 -0.90392194766E+03  0.10119885734E+04  0.45502306008E+03 0.  0.
      99925    2    3    3    0    0  0.97141344939E+02  0.18618370570E+02 -0.44649817459E+03  0.52756406855E+03  0.26302118145E+03 0.  0.
         25    1    4    4    0    0  0.46178831779E+02 -0.26228118361E+02 -0.18116403957E+03  0.22646923859E+03  0.12509000000E+03 0.  0.
         25    1    4    4    0    0  0.50962513160E+02  0.44846488931E+02 -0.26533413502E+03  0.30109482995E+03  0.12509000000E+03 0.  0.
         25    1    3    3    0    0 -0.97141344939E+02 -0.18618370570E+02 -0.45742377307E+03  0.48442450484E+03  0.12509000000E+03 0.  0.
<mgrwt>
<rscale>  2 0.45502306E+03</rscale>
<asrwt>0</asrwt>
<pdfrwt beam="1">  1       21 0.79460761E-02 0.45502306E+03</pdfrwt>
<pdfrwt beam="2">  1       21 0.14087576E+00 0.45502306E+03</pdfrwt>
<totfact> 0.38696726E+04</totfact>
</mgrwt>
</event>
<event>
 7    0  0.4691878E-002  0.4504962E+03  0.7546771E-02  0.1027574E+00
         21   -1    0    0  502  501  0.00000000000E+00  0.00000000000E+00  0.70923165535E+02  0.70923165535E+02  0.00000000000E+00 0. -1.
         21   -1    0    0  501  502 -0.00000000000E+00 -0.00000000000E+00 -0.71537571186E+03  0.71537571186E+03  0.00000000000E+00 0. -1.
      99926    2    1    2    0    0  0.00000000000E+00  0.00000000000E+00 -0.64445254632E+03  0.78629887740E+03  0.45049621544E+03 0.  0.
      99925    2    3    3    0    0 -0.12692164156E+02  0.15105394970E+02 -0.21995466089E+03  0.34331442301E+03  0.26286018377E+03 0.  0.
         25    1    4    4    0    0 -0.45747258954E+02 -0.95284959659E+00 -0.11360801164E+03  0.17506572489E+03  0.12509000000E+03 0.  0.
         25    1    4    4    0    0  0.33055094798E+02  0.16058244567E+02 -0.10634664925E+03  0.16824869812E+03  0.12509000000E+03 0.  0.
         25    1    3    3    0    0  0.12692164156E+02 -0.15105394970E+02 -0.42449788544E+03  0.44298445439E+03  0.12509000000E+03 0.  0.
<mgrwt>
<rscale>  2 0.45049622E+03</rscale>
<asrwt>0</asrwt>
<pdfrwt beam="1">  1       21 0.10429878E-01 0.45049622E+03</pdfrwt>
<pdfrwt beam="2">  1       21 0.10520231E+00 0.45049622E+03</pdfrwt>
<totfact> 0.50185317E+04</totfact>
</mgrwt>
</event>
<event>
 7    0  0.4691878E-002  0.4480291E+03  0.7546771E-02  0.1028311E+00
         21   -1    0    0  502  501  0.00000000000E+00  0.00000000000E+00  0.82779076828E+02  0.82779076828E+02  0.00000000000E+00 0. -1.
         21   -1    0    0  501  502 -0.00000000000E+00 -0.00000000000E+00 -0.60622230930E+03  0.60622230930E+03  0.00000000000E+00 0. -1.
      99926    2    1    2    0    0  0.00000000000E+00 -0.88817841970E-15 -0.52344323247E+03  0.68900138613E+03  0.44802912011E+03 0.  0.
      99925    2    3    3    0    0  0.19178728701E+02  0.21397169515E+01 -0.49258325829E+03  0.55872380505E+03  0.26298597295E+03 0.  0.
         25    1    4    4    0    0  0.28698704687E+02  0.28786124788E+02 -0.29725877805E+03  0.32505775773E+03  0.12509000000E+03 0.  0.
         25    1    4    4    0    0 -0.95199759865E+01 -0.26646407836E+02 -0.19532448024E+03  0.23366604733E+03  0.12509000000E+03 0.  0.
         25    1    3    3    0    0 -0.19178728701E+02 -0.21397169515E+01 -0.30859974183E+02  0.13027758107E+03  0.12509000000E+03 0.  0.
<mgrwt>
<rscale>  2 0.44802912E+03</rscale>
<asrwt>0</asrwt>
<pdfrwt beam="1">  1       21 0.12173393E-01 0.44802912E+03</pdfrwt>
<pdfrwt beam="2">  1       21 0.89150341E-01 0.44802912E+03</pdfrwt>
<totfact> 0.56543856E+04</totfact>
</mgrwt>
</event>
<event>
 7    0  0.4691878E-002  0.4448641E+03  0.7546771E-02  0.1029265E+00
         21   -1    0    0  502  501  0.00000000000E+00  0.00000000000E+00  0.49204413389E+03  0.49204413389E+03  0.00000000000E+00 0.  1.
         21   -1    0    0  501  502 -0.00000000000E+00 -0.00000000000E+00 -0.10055198260E+03  0.10055198260E+03  0.00000000000E+00 0.  1.
      99926    2    1    2    0    0  0.00000000000E+00  0.00000000000E+00  0.39149215129E+03  0.59259611648E+03  0.44486408346E+03 0.  0.
      99925    2    3    3    0    0 -0.21090490313E+02  0.42779779542E+02  0.37118063975E+03  0.45718938135E+03  0.26262548386E+03 0.  0.
         25    1    3    3    0    0  0.21090490313E+02 -0.42779779542E+02  0.20311511537E+02  0.13540673514E+03  0.12509000000E+03 0.  0.
         25    1    4    4    0    0 -0.46947361082E+02  0.33625974956E+02  0.17175667604E+03  0.22018770349E+03  0.12509000000E+03 0.  0.
         25    1    4    4    0    0  0.25856870768E+02  0.91538045859E+01  0.19942396372E+03  0.23700167786E+03  0.12509000000E+03 0.  0.
<mgrwt>
<rscale>  2 0.44486408E+03</rscale>
<asrwt>0</asrwt>
<pdfrwt beam="1">  1       21 0.72359430E-01 0.44486408E+03</pdfrwt>
<pdfrwt beam="2">  1       21 0.14787057E-01 0.44486408E+03</pdfrwt>
<totfact> 0.64120063E+04</totfact>
</mgrwt>
</event>
<event>
 7    0  0.4691878E-002  0.4929015E+03  0.7546771E-02  0.1015649E+00
         21   -1    0    0  502  501  0.00000000000E+00  0.00000000000E+00  0.12949042395E+04  0.12949042395E+04  0.00000000000E+00 0. -1.
         21   -1    0    0  501  502 -0.00000000000E+00 -0.00000000000E+00 -0.46905370133E+02  0.46905370133E+02  0.00000000000E+00 0. -1.
      99926    2    1    2    0    0  0.00000000000E+00  0.00000000000E+00  0.12479988694E+04  0.13418096097E+04  0.49290146132E+03 0.  0.
      99925    2    3    3    0    0  0.21015269942E+02 -0.10923052613E+03  0.50455481599E+03  0.57975349751E+03  0.26299354771E+03 0.  0.
         25    1    3    3    0    0 -0.21015269942E+02  0.10923052613E+03  0.74344405341E+03  0.76205611215E+03  0.12509000000E+03 0.  0.
         25    1    4    4    0    0  0.11030065261E+02 -0.86504047638E+02  0.33047408113E+03  0.36395774342E+03  0.12509000000E+03 0.  0.
         25    1    4    4    0    0  0.99852046817E+01 -0.22726478492E+02  0.17408073486E+03  0.21579575410E+03  0.12509000000E+03 0.  0.
<mgrwt>
<rscale>  2 0.49290146E+03</rscale>
<asrwt>0</asrwt>
<pdfrwt beam="1">  1       21 0.19042707E+00 0.49290146E+03</pdfrwt>
<pdfrwt beam="2">  1       21 0.68978494E-02 0.49290146E+03</pdfrwt>
<totfact> 0.21012264E+04</totfact>
</mgrwt>
</event>
<event>
 7    0  0.4691878E-002  0.4548091E+03  0.7546771E-02  0.1026298E+00
         21   -1    0    0  502  501  0.00000000000E+00  0.00000000000E+00  0.17861434931E+03  0.17861434931E+03  0.00000000000E+00 0. -1.
         21   -1    0    0  501  502 -0.00000000000E+00 -0.00000000000E+00 -0.28952228850E+03  0.28952228850E+03  0.00000000000E+00 0. -1.
      99926    2    1    2    0    0  0.00000000000E+00  0.71054273576E-14 -0.11090793918E+03  0.46813663781E+03  0.45480912555E+03 0.  0.
      99925    2    3    3    0    0 -0.98659811302E+02  0.54720205089E+02 -0.77000546016E+02  0.29630742428E+03  0.26294666072E+03 0.  0.
         25    1    4    4    0    0 -0.54303493105E+02 -0.12546882530E+02 -0.29197515208E+02  0.14002248612E+03  0.12509000000E+03 0.  0.
         25    1    4    4    0    0 -0.44356318197E+02  0.67267087619E+02 -0.47803030808E+02  0.15628493816E+03  0.12509000000E+03 0.  0.
         25    1    3    3    0    0  0.98659811302E+02 -0.54720205089E+02 -0.33907393167E+02  0.17182921353E+03  0.12509000000E+03 0.  0.
<mgrwt>
<rscale>  2 0.45480913E+03</rscale>
<asrwt>0</asrwt>
<pdfrwt beam="1">  1       21 0.26266816E-01 0.45480913E+03</pdfrwt>
<pdfrwt beam="2">  1       21 0.42576807E-01 0.45480913E+03</pdfrwt>
<totfact> 0.67677058E+04</totfact>
</mgrwt>
</event>
<event>
 7    0  0.4691878E-002  0.4360530E+03  0.7546771E-02  0.1031965E+00
         21   -1    0    0  502  501  0.00000000000E+00  0.00000000000E+00  0.35121308965E+02  0.35121308965E+02  0.00000000000E+00 0. -1.
         21   -1    0    0  501  502 -0.00000000000E+00 -0.00000000000E+00 -0.13534675651E+04  0.13534675651E+04  0.00000000000E+00 0. -1.
      99926    2    1    2    0    0  0.00000000000E+00 -0.35527136788E-14 -0.13183462562E+04  0.13885888741E+04  0.43605299003E+03 0.  0.
      99925    2    3    3    0    0 -0.18469635015E+02 -0.30867578336E+02 -0.56907741974E+03  0.62809874783E+03  0.26337234585E+03 0.  0.
         25    1    4    4    0    0 -0.15355008227E+02  0.25334630978E+02 -0.26686482230E+03  0.29621269602E+03  0.12509000000E+03 0.  0.
         25    1    4    4    0    0 -0.31146267879E+01 -0.56202209314E+02 -0.30221259745E+03  0.33188605181E+03  0.12509000000E+03 0.  0.
         25    1    3    3    0    0  0.18469635015E+02  0.30867578336E+02 -0.74926883644E+03  0.76049012628E+03  0.12509000000E+03 0.  0.
<mgrwt>
<rscale>  2 0.43605299E+03</rscale>
<asrwt>0</asrwt>
<pdfrwt beam="1">  1       21 0.51648982E-02 0.43605299E+03</pdfrwt>
<pdfrwt beam="2">  1       21 0.19903935E+00 0.43605299E+03</pdfrwt>
<totfact> 0.30950496E+04</totfact>
</mgrwt>
</event>
<event>
 7    0  0.4691878E-002  0.4391314E+03  0.7546771E-02  0.1031014E+00
         21   -1    0    0  502  501  0.00000000000E+00  0.00000000000E+00  0.42781532674E+03  0.42781532674E+03  0.00000000000E+00 0.  1.
         21   -1    0    0  501  502 -0.00000000000E+00 -0.00000000000E+00 -0.11268669342E+03  0.11268669342E+03  0.00000000000E+00 0.  1.
      99926    2    1    2    0    0 -0.38857805862E-15  0.00000000000E+00  0.31512863332E+03  0.54050202017E+03  0.43913139066E+03 0.  0.
      99925    2    3    3    0    0 -0.48877070181E+00  0.79447856246E+02  0.13160235332E+03  0.30461729343E+03  0.26298348864E+03 0.  0.
         25    1    4    4    0    0  0.45017133717E+01 -0.22277536535E+01  0.63021052267E+02  0.14015844405E+03  0.12509000000E+03 0.  0.
         25    1    3    3    0    0  0.48877070181E+00 -0.79447856246E+02  0.18352628000E+03  0.23588472674E+03  0.12509000000E+03 0.  0.
         25    1    4    4    0    0 -0.49904840735E+01  0.81675609900E+02  0.68581301056E+02  0.16445884938E+03  0.12509000000E+03 0.  0.
<mgrwt>
<rscale>  2 0.43913139E+03</rscale>
<asrwt>0</asrwt>
<pdfrwt beam="1">  1       21 0.62914018E-01 0.43913139E+03</pdfrwt>
<pdfrwt beam="2">  1       21 0.16571573E-01 0.43913139E+03</pdfrwt>
<totfact> 0.71003817E+04</totfact>
</mgrwt>
</event>
<event>
 7    0  0.4691878E-002  0.4564974E+03  0.7546771E-02  0.1025802E+00
         21   -1    0    0  502  501  0.00000000000E+00  0.00000000000E+00  0.30312460000E+02  0.30312460000E+02  0.00000000000E+00 0. -1.
         21   -1    0    0  501  502 -0.00000000000E+00 -0.00000000000E+00 -0.17186815613E+04  0.17186815613E+04  0.00000000000E+00 0. -1.
      99926    2    1    2    0    0  0.00000000000E+00  0.35527136788E-14 -0.16883691013E+04  0.17489940213E+04  0.45649738697E+03 0.  0.
      99925    2    3    3    0    0 -0.10034091172E+03 -0.19594002539E+02 -0.86288394238E+03  0.90784868357E+03  0.26299868960E+03 0.  0.
         25    1    3    3    0    0  0.10034091172E+03  0.19594002539E+02 -0.82548515887E+03  0.84114533769E+03  0.12509000000E+03 0.  0.
         25    1    4    4    0    0 -0.23373645415E+02 -0.41066350204E+02 -0.41438674534E+03  0.43542698037E+03  0.12509000000E+03 0.  0.
         25    1    4    4    0    0 -0.76967266302E+02  0.21472347665E+02 -0.44849719705E+03  0.47242170320E+03  0.12509000000E+03 0.  0.
<mgrwt>
<rscale>  2 0.45649739E+03</rscale>
<asrwt>0</asrwt>
<pdfrwt beam="1">  1       21 0.44577144E-02 0.45649739E+03</pdfrwt>
<pdfrwt beam="2">  1       21 0.25274730E+00 0.45649739E+03</pdfrwt>
<totfact> 0.18049700E+04</totfact>
</mgrwt>
</event>
<event>
 7    0  0.4691878E-002  0.4579269E+03  0.7546771E-02  0.1025384E+00
         21   -1    0    0  502  501  0.00000000000E+00  0.00000000000E+00  0.10528651730E+04  0.10528651730E+04  0.00000000000E+00 0.  1.
         21   -1    0    0  501  502 -0.00000000000E+00 -0.00000000000E+00 -0.49791994826E+02  0.49791994826E+02  0.00000000000E+00 0.  1.
      99926    2    1    2    0    0  0.00000000000E+00  0.00000000000E+00  0.10030731782E+04  0.11026571679E+04  0.45792688171E+03 0.  0.
      99925    2    3    3    0    0 -0.16155350147E+02  0.85567160439E+02  0.81417915379E+03  0.85994088319E+03  0.26273160036E+03 0.  0.
         25    1    4    4    0    0  0.22499005189E+02  0.36700267503E+02  0.31703929091E+03  0.34353243653E+03  0.12509000000E+03 0.  0.
         25    1    3    3    0    0  0.16155350147E+02 -0.85567160439E+02  0.18889402441E+03  0.24271628466E+03  0.12509000000E+03 0.  0.
         25    1    4    4    0    0 -0.38654355336E+02  0.48866892936E+02  0.49713986288E+03  0.51640844666E+03  0.12509000000E+03 0.  0.
<mgrwt>
<rscale>  2 0.45792688E+03</rscale>
<asrwt>0</asrwt>
<pdfrwt beam="1">  1       21 0.15483310E+00 0.45792688E+03</pdfrwt>
<pdfrwt beam="2">  1       21 0.73223528E-02 0.45792688E+03</pdfrwt>
<totfact> 0.34605317E+04</totfact>
</mgrwt>
</event>
<event>
 7    0  0.4691878E-002  0.4724682E+03  0.7546771E-02  0.1021226E+00
         21   -1    0    0  502  501  0.00000000000E+00  0.00000000000E+00  0.90482878398E+03  0.90482878398E+03  0.00000000000E+00 0. -1.
         21   -1    0    0  501  502 -0.00000000000E+00 -0.00000000000E+00 -0.61676354935E+02  0.61676354935E+02  0.00000000000E+00 0. -1.
      99926    2    1    2    0    0  0.00000000000E+00  0.00000000000E+00  0.84315242905E+03  0.96650513892E+03  0.47246816289E+03 0.  0.
      99925    2    3    3    0    0  0.12071102344E+03  0.29210756525E+02  0.45354037926E+03  0.53887273028E+03  0.26317394314E+03 0.  0.
         25    1    4    4    0    0  0.54478234108E+02  0.12560069018E+02  0.29754678709E+03  0.32757782576E+03  0.12509000000E+03 0.  0.
         25    1    3    3    0    0 -0.12071102344E+03 -0.29210756525E+02  0.38961204979E+03  0.42763240864E+03  0.12509000000E+03 0.  0.
         25    1    4    4    0    0  0.66232789331E+02  0.16650687507E+02  0.15599359217E+03  0.21129490452E+03  0.12509000000E+03 0.  0.
<mgrwt>
<rscale>  2 0.47246816E+03</rscale>
<asrwt>0</asrwt>
<pdfrwt beam="1">  1       21 0.13306305E+00 0.47246816E+03</pdfrwt>
<pdfrwt beam="2">  1       21 0.90700527E-02 0.47246816E+03</pdfrwt>
<totfact> 0.35392036E+04</totfact>
</mgrwt>
</event>
<event>
 7    0  0.4691878E-002  0.4521853E+03  0.7546771E-02  0.1027072E+00
         21   -1    0    0  502  501  0.00000000000E+00  0.00000000000E+00  0.15183327249E+03  0.15183327249E+03  0.00000000000E+00 0. -1.
         21   -1    0    0  501  502 -0.00000000000E+00 -0.00000000000E+00 -0.33667112837E+03  0.33667112837E+03  0.00000000000E+00 0. -1.
      99926    2    1    2    0    0 -0.35527136788E-14  0.00000000000E+00 -0.18483785588E+03  0.48850440086E+03  0.45218526811E+03 0.  0.
      99925    2    3    3    0    0 -0.23242571294E+02 -0.78357558692E+02 -0.19692024922E+03  0.33859237181E+03  0.26303438097E+03 0.  0.
         25    1    4    4    0    0 -0.17303236430E+02 -0.60541665878E+02 -0.60500556912E+02  0.15255333751E+03  0.12509000000E+03 0.  0.
         25    1    3    3    0    0  0.23242571294E+02  0.78357558692E+02  0.12082393340E+02  0.14991202905E+03  0.12509000000E+03 0.  0.
         25    1    4    4    0    0 -0.59393348644E+01 -0.17815892814E+02 -0.13641969231E+03  0.18603903430E+03  0.12509000000E+03 0.  0.
<mgrwt>
<rscale>  2 0.45218527E+03</rscale>
<asrwt>0</asrwt>
<pdfrwt beam="1">  1       21 0.22328423E-01 0.45218527E+03</pdfrwt>
<pdfrwt beam="2">  1       21 0.49510460E-01 0.45218527E+03</pdfrwt>
<totfact> 0.67583654E+04</totfact>
</mgrwt>
</event>
<event>
 7    0  0.4691878E-002  0.4436905E+03  0.7546771E-02  0.1029620E+00
         21   -1    0    0  502  501  0.00000000000E+00  0.00000000000E+00  0.24066953895E+02  0.24066953895E+02  0.00000000000E+00 0. -1.
         21   -1    0    0  501  502 -0.00000000000E+00 -0.00000000000E+00 -0.20449330580E+04  0.20449330580E+04  0.00000000000E+00 0. -1.
      99926    2    1    2    0    0  0.00000000000E+00  0.00000000000E+00 -0.20208661041E+04  0.20690000119E+04  0.44369047601E+03 0.  0.
      99925    2    3    3    0    0 -0.78184042942E+02 -0.14950584321E+02 -0.15825919572E+04  0.16063251795E+04  0.26333821393E+03 0.  0.
         25    1    4    4    0    0 -0.48524287205E+02 -0.33797679358E+02 -0.99246381903E+03  0.10020622884E+04  0.12509000000E+03 0.  0.
         25    1    3    3    0    0  0.78184042942E+02  0.14950584321E+02 -0.43827414694E+03  0.46267483238E+03  0.12509000000E+03 0.  0.
         25    1    4    4    0    0 -0.29659755737E+02  0.18847095037E+02 -0.59012813813E+03  0.60426289114E+03  0.12509000000E+03 0.  0.
<mgrwt>
<rscale>  2 0.44369048E+03</rscale>
<asrwt>0</asrwt>
<pdfrwt beam="1">  1       21 0.35392581E-02 0.44369048E+03</pdfrwt>
<pdfrwt beam="2">  1       21 0.30072543E+00 0.44369048E+03</pdfrwt>
<totfact> 0.13787317E+04</totfact>
</mgrwt>
</event>
<event>
 7    0  0.4691878E-002  0.4497214E+03  0.7546771E-02  0.1027805E+00
         21   -1    0    0  502  501  0.00000000000E+00  0.00000000000E+00  0.14666968490E+04  0.14666968490E+04  0.00000000000E+00 0.  1.
         21   -1    0    0  501  502 -0.00000000000E+00 -0.00000000000E+00 -0.34473616476E+02  0.34473616476E+02  0.00000000000E+00 0.  1.
      99926    2    1    2    0    0 -0.35527136788E-14 -0.14210854715E-13  0.14322232325E+04  0.15011704655E+04  0.44972144560E+03 0.  0.
      99925    2    3    3    0    0 -0.23478831013E+02 -0.82073482858E+02  0.68433478012E+03  0.73810299963E+03  0.26304873063E+03 0.  0.
         25    1    4    4    0    0 -0.20367747128E+02 -0.43514643167E+02  0.23995655687E+03  0.27483636327E+03  0.12509000000E+03 0.  0.
         25    1    4    4    0    0 -0.31110838840E+01 -0.38558839691E+02  0.44437822326E+03  0.46326663636E+03  0.12509000000E+03 0.  0.
         25    1    3    3    0    0  0.23478831013E+02  0.82073482858E+02  0.74788845239E+03  0.76306746583E+03  0.12509000000E+03 0.  0.
<mgrwt>
<rscale>  2 0.44972145E+03</rscale>
<asrwt>0</asrwt>
<pdfrwt beam="1">  1       21 0.21569067E+00 0.44972145E+03</pdfrwt>
<pdfrwt beam="2">  1       21 0.50696505E-02 0.44972145E+03</pdfrwt>
<totfact> 0.24749762E+04</totfact>
</mgrwt>
</event>
<event>
 7    0  0.4691878E-002  0.4469589E+03  0.7546771E-02  0.1028633E+00
         21   -1    0    0  502  501  0.00000000000E+00  0.00000000000E+00  0.13938931172E+03  0.13938931172E+03  0.00000000000E+00 0. -1.
         21   -1    0    0  501  502 -0.00000000000E+00 -0.00000000000E+00 -0.35829903712E+03  0.35829903712E+03  0.00000000000E+00 0. -1.
      99926    2    1    2    0    0  0.14210854715E-13  0.00000000000E+00 -0.21890972541E+03  0.49768834884E+03  0.44695886242E+03 0.  0.
      99925    2    3    3    0    0 -0.74337996516E+02  0.36258689465E+02 -0.66079673837E+02  0.28357304568E+03  0.26307093844E+03 0.  0.
         25    1    3    3    0    0  0.74337996516E+02 -0.36258689465E+02 -0.15283005157E+03  0.21411530317E+03  0.12509000000E+03 0.  0.
         25    1    4    4    0    0 -0.66799306819E+02  0.28699678533E+01 -0.59217490310E+02  0.15370297123E+03  0.12509000000E+03 0.  0.
         25    1    4    4    0    0 -0.75386896978E+01  0.33388721611E+02 -0.68621835264E+01  0.12987007444E+03  0.12509000000E+03 0.  0.
<mgrwt>
<rscale>  2 0.44695886E+03</rscale>
<asrwt>0</asrwt>
<pdfrwt beam="1">  1       21 0.20498429E-01 0.44695886E+03</pdfrwt>
<pdfrwt beam="2">  1       21 0.52691034E-01 0.44695886E+03</pdfrwt>
<totfact> 0.69782201E+04</totfact>
</mgrwt>
</event>
<event>
 7    0  0.4691878E-002  0.4561324E+03  0.7546771E-02  0.1025909E+00
         21   -1    0    0  502  501  0.00000000000E+00  0.00000000000E+00  0.22095910425E+03  0.22095910425E+03  0.00000000000E+00 0. -1.
         21   -1    0    0  501  502 -0.00000000000E+00 -0.00000000000E+00 -0.23540187625E+03  0.23540187625E+03  0.00000000000E+00 0. -1.
      99926    2    1    2    0    0  0.00000000000E+00  0.00000000000E+00 -0.14442771999E+02  0.45636098051E+03  0.45613238305E+03 0.  0.
      99925    2    3    3    0    0 -0.85957610512E+02 -0.66348248443E+02 -0.44571151411E+02  0.28799819299E+03  0.26299348043E+03 0.  0.
         25    1    4    4    0    0 -0.41903410039E+02 -0.66233999279E+02 -0.48324609389E+02  0.15532422350E+03  0.12509000000E+03 0.  0.
         25    1    3    3    0    0  0.85957610512E+02  0.66348248443E+02  0.30128379412E+02  0.16836278752E+03  0.12509000000E+03 0.  0.
         25    1    4    4    0    0 -0.44054200473E+02 -0.11424916434E+00  0.37534579772E+01  0.13267396949E+03  0.12509000000E+03 0.  0.
<mgrwt>
<rscale>  2 0.45613238E+03</rscale>
<asrwt>0</asrwt>
<pdfrwt beam="1">  1       21 0.32493986E-01 0.45613238E+03</pdfrwt>
<pdfrwt beam="2">  1       21 0.34617923E-01 0.45613238E+03</pdfrwt>
<totfact> 0.67831271E+04</totfact>
</mgrwt>
</event>
<event>
 7    0  0.4691878E-002  0.4557178E+03  0.7546771E-02  0.1026031E+00
         21   -1    0    0  502  501  0.00000000000E+00  0.00000000000E+00  0.96744505840E+02  0.96744505840E+02  0.00000000000E+00 0.  1.
         21   -1    0    0  501  502 -0.00000000000E+00 -0.00000000000E+00 -0.53666800361E+03  0.53666800361E+03  0.00000000000E+00 0.  1.
      99926    2    1    2    0    0  0.14210854715E-13 -0.44408920985E-15 -0.43992349777E+03  0.63341250945E+03  0.45571781097E+03 0.  0.
      99925    2    3    3    0    0  0.11118539283E+03  0.24547371313E+01 -0.31050341033E+03  0.42183442824E+03  0.26298992322E+03 0.  0.
         25    1    4    4    0    0  0.19086958579E+02 -0.95278087231E+01 -0.16923172895E+03  0.21152299476E+03  0.12509000000E+03 0.  0.
         25    1    4    4    0    0  0.92098434251E+02  0.11982545854E+02 -0.14127168138E+03  0.21031143349E+03  0.12509000000E+03 0.  0.
         25    1    3    3    0    0 -0.11118539283E+03 -0.24547371313E+01 -0.12942008744E+03  0.21157808121E+03  0.12509000000E+03 0.  0.
<mgrwt>
<rscale>  2 0.45571781E+03</rscale>
<asrwt>0</asrwt>
<pdfrwt beam="1">  1       21 0.14227133E-01 0.45571781E+03</pdfrwt>
<pdfrwt beam="2">  1       21 0.78921766E-01 0.45571781E+03</pdfrwt>
<totfact> 0.56347423E+04</totfact>
</mgrwt>
</event>
<event>
 7    0  0.4691878E-002  0.4597650E+03  0.7546771E-02  0.1024849E+00
         21   -1    0    0  502  501  0.00000000000E+00  0.00000000000E+00  0.48161732407E+02  0.48161732407E+02  0.00000000000E+00 0. -1.
         21   -1    0    0  501  502 -0.00000000000E+00 -0.00000000000E+00 -0.10972605760E+04  0.10972605760E+04  0.00000000000E+00 0. -1.
      99926    2    1    2    0    0  0.14210854715E-13  0.00000000000E+00 -0.10490988436E+04  0.11454223084E+04  0.45976502799E+03 0.  0.
      99925    2    3    3    0    0 -0.11326010141E+03  0.11097340070E+02 -0.58185911859E+03  0.64852043655E+03  0.26280738425E+03 0.  0.
         25    1    4    4    0    0 -0.46054155444E+02 -0.69168061268E+01 -0.36538743676E+03  0.38900426023E+03  0.12509000000E+03 0.  0.
         25    1    4    4    0    0 -0.67205945965E+02  0.18014146197E+02 -0.21647168183E+03  0.25951617632E+03  0.12509000000E+03 0.  0.
         25    1    3    3    0    0  0.11326010141E+03 -0.11097340070E+02 -0.46723972498E+03  0.49690187183E+03  0.12509000000E+03 0.  0.
<mgrwt>
<rscale>  2 0.45976503E+03</rscale>
<asrwt>0</asrwt>
<pdfrwt beam="1">  1       21 0.70826070E-02 0.45976503E+03</pdfrwt>
<pdfrwt beam="2">  1       21 0.16136187E+00 0.45976503E+03</pdfrwt>
<totfact> 0.32703993E+04</totfact>
</mgrwt>
</event>
<event>
 7    0  0.4691878E-002  0.4736177E+03  0.7546771E-02  0.1020904E+00
         21   -1    0    0  502  501  0.00000000000E+00  0.00000000000E+00  0.23091875771E+02  0.23091875771E+02  0.00000000000E+00 0. -1.
         21   -1    0    0  501  502 -0.00000000000E+00 -0.00000000000E+00 -0.24284921848E+04  0.24284921848E+04  0.00000000000E+00 0. -1.
      99926    2    1    2    0    0  0.00000000000E+00  0.00000000000E+00 -0.24054003091E+04  0.24515840606E+04  0.47361773549E+03 0.  0.
      99925    2    3    3    0    0 -0.12520406441E+03 -0.32669290387E+02 -0.14323304664E+04  0.14620105327E+04  0.26298458613E+03 0.  0.
         25    1    4    4    0    0 -0.94310310153E+02 -0.68693051927E+01 -0.90952797986E+03  0.92294651860E+03  0.12509000000E+03 0.  0.
         25    1    3    3    0    0  0.12520406441E+03  0.32669290387E+02 -0.97306984271E+03  0.98957352792E+03  0.12509000000E+03 0.  0.
         25    1    4    4    0    0 -0.30893754256E+02 -0.25799985195E+02 -0.52280248650E+03  0.53906401409E+03  0.12509000000E+03 0.  0.
<mgrwt>
<rscale>  2 0.47361774E+03</rscale>
<asrwt>0</asrwt>
<pdfrwt beam="1">  1       21 0.33958633E-02 0.47361774E+03</pdfrwt>
<pdfrwt beam="2">  1       21 0.35713129E+00 0.47361774E+03</pdfrwt>
<totfact> 0.66277606E+03</totfact>
</mgrwt>
</event>
<event>
 7    0  0.4691878E-002  0.4437277E+03  0.7546771E-02  0.1029609E+00
         21   -1    0    0  502  501  0.00000000000E+00  0.00000000000E+00  0.73906767152E+03  0.73906767152E+03  0.00000000000E+00 0.  1.
         21   -1    0    0  501  502 -0.00000000000E+00 -0.00000000000E+00 -0.66602249796E+02  0.66602249796E+02  0.00000000000E+00 0.  1.
      99926    2    1    2    0    0  0.00000000000E+00  0.00000000000E+00  0.67246542172E+03  0.80566992131E+03  0.44372770783E+03 0.  0.
      99925    2    3    3    0    0 -0.47782038189E+02  0.89271603440E+02  0.45270047144E+03  0.53327923897E+03  0.26305225246E+03 0.  0.
         25    1    4    4    0    0 -0.47443973809E+02  0.10928391057E+02  0.21124301350E+03  0.25028279852E+03  0.12509000000E+03 0.  0.
         25    1    3    3    0    0  0.47782038189E+02 -0.89271603440E+02  0.21976495028E+03  0.27239068234E+03  0.12509000000E+03 0.  0.
         25    1    4    4    0    0 -0.33806438025E+00  0.78343212384E+02  0.24145745794E+03  0.28299644045E+03  0.12509000000E+03 0.  0.
<mgrwt>
<rscale>  2 0.44372771E+03</rscale>
<asrwt>0</asrwt>
<pdfrwt beam="1">  1       21 0.10868642E+00 0.44372771E+03</pdfrwt>
<pdfrwt beam="2">  1       21 0.97944489E-02 0.44372771E+03</pdfrwt>
<totfact> 0.51935857E+04</totfact>
</mgrwt>
</event>
<event>
 7    0  0.4691878E-002  0.4491243E+03  0.7546771E-02  0.1027983E+00
         21   -1    0    0  502  501  0.00000000000E+00  0.00000000000E+00  0.14973647107E+03  0.14973647107E+03  0.00000000000E+00 0.  1.
         21   -1    0    0  501  502 -0.00000000000E+00 -0.00000000000E+00 -0.33677946771E+03  0.33677946771E+03  0.00000000000E+00 0.  1.
      99926    2    1    2    0    0  0.00000000000E+00  0.00000000000E+00 -0.18704299663E+03  0.48651593878E+03  0.44912434369E+03 0.  0.
      99925    2    3    3    0    0 -0.10204053787E+02  0.87405994547E+02 -0.51496576515E+02  0.28215285331E+03  0.26308630645E+03 0.  0.
         25    1    4    4    0    0  0.42954870454E+00  0.74874266975E+02  0.25244649820E+00  0.14578721548E+03  0.12509000000E+03 0.  0.
         25    1    4    4    0    0 -0.10633602491E+02  0.12531727572E+02 -0.51749023014E+02  0.13636563783E+03  0.12509000000E+03 0.  0.
         25    1    3    3    0    0  0.10204053787E+02 -0.87405994547E+02 -0.13554642012E+03  0.20436308547E+03  0.12509000000E+03 0.  0.
<mgrwt>
<rscale>  2 0.44912434E+03</rscale>
<asrwt>0</asrwt>
<pdfrwt beam="1">  1       21 0.22020070E-01 0.44912434E+03</pdfrwt>
<pdfrwt beam="2">  1       21 0.49526391E-01 0.44912434E+03</pdfrwt>
<totfact> 0.69410335E+04</totfact>
</mgrwt>
</event>
<event>
 7    0  0.4691878E-002  0.4578980E+03  0.7546771E-02  0.1025393E+00
         21   -1    0    0  502  501  0.00000000000E+00  0.00000000000E+00  0.25074725583E+03  0.25074725583E+03  0.00000000000E+00 0.  1.
         21   -1    0    0  501  502 -0.00000000000E+00 -0.00000000000E+00 -0.20904576021E+03  0.20904576021E+03  0.00000000000E+00 0.  1.
      99926    2    1    2    0    0 -0.11102230246E-14 -0.35527136788E-14  0.41701495620E+02  0.45979301604E+03  0.45789802670E+03 0.  0.
      99925    2    3    3    0    0  0.15353694191E+01 -0.30496495679E+02 -0.86056375015E+02  0.27840399978E+03  0.26300322014E+03 0.  0.
         25    1    4    4    0    0  0.21200878765E+02 -0.45233621250E+02 -0.24763957196E+02  0.13695371272E+03  0.12509000000E+03 0.  0.
         25    1    3    3    0    0 -0.15353694191E+01  0.30496495679E+02  0.12775787064E+03  0.18138901625E+03  0.12509000000E+03 0.  0.
         25    1    4    4    0    0 -0.19665509346E+02  0.14737125572E+02 -0.61292417819E+02  0.14145028706E+03  0.12509000000E+03 0.  0.
<mgrwt>
<rscale>  2 0.45789803E+03</rscale>
<asrwt>0</asrwt>
<pdfrwt beam="1">  1       21 0.36874596E-01 0.45789803E+03</pdfrwt>
<pdfrwt beam="2">  1       21 0.30742024E-01 0.45789803E+03</pdfrwt>
<totfact> 0.66641800E+04</totfact>
</mgrwt>
</event>
<event>
 7    0  0.4691878E-002  0.4475795E+03  0.7546771E-02  0.1028446E+00
         21   -1    0    0  502  501  0.00000000000E+00  0.00000000000E+00  0.33542257765E+04  0.33542257765E+04  0.00000000000E+00 0.  1.
         21   -1    0    0  501  502 -0.00000000000E+00 -0.00000000000E+00 -0.14930973373E+02  0.14930973373E+02  0.00000000000E+00 0.  1.
      99926    2    1    2    0    0  0.14210854715E-13  0.00000000000E+00  0.33392948031E+04  0.33691567499E+04  0.44757951587E+03 0.  0.
      99925    2    3    3    0    0 -0.10404759757E+03 -0.55828144234E+01  0.19519037517E+04  0.19722464063E+04  0.26262246816E+03 0.  0.
         25    1    4    4    0    0 -0.84678081418E+02  0.65028689732E+01  0.88926091968E+03  0.90202281354E+03  0.12509000000E+03 0.  0.
         25    1    4    4    0    0 -0.19369516151E+02 -0.12085683397E+02  0.10626428321E+04  0.10702235928E+04  0.12509000000E+03 0.  0.
         25    1    3    3    0    0  0.10404759757E+03  0.55828144234E+01  0.13873910514E+04  0.13969103436E+04  0.12509000000E+03 0.  0.
<mgrwt>
<rscale>  2 0.44757952E+03</rscale>
<asrwt>0</asrwt>
<pdfrwt beam="1">  1       21 0.49326797E+00 0.44757952E+03</pdfrwt>
<pdfrwt beam="2">  1       21 0.21957337E-02 0.44757952E+03</pdfrwt>
<totfact> 0.17612598E+03</totfact>
</mgrwt>
</event>
<event>
 7    0  0.4691878E-002  0.4520130E+03  0.7546771E-02  0.1027123E+00
         21   -1    0    0  502  501  0.00000000000E+00  0.00000000000E+00  0.29980579137E+03  0.29980579137E+03  0.00000000000E+00 0. -1.
         21   -1    0    0  501  502 -0.00000000000E+00 -0.00000000000E+00 -0.17037338390E+03  0.17037338390E+03  0.00000000000E+00 0. -1.
      99926    2    1    2    0    0  0.00000000000E+00 -0.14210854715E-13  0.12943240747E+03  0.47017917527E+03  0.45201295198E+03 0.  0.
      99925    2    3    3    0    0  0.71916201199E+02  0.73828263473E+02  0.12293577068E+03  0.30796861189E+03  0.26288573510E+03 0.  0.
         25    1    4    4    0    0  0.13267375960E+02  0.90380694782E+01  0.31183202380E+02  0.12991385675E+03  0.12509000000E+03 0.  0.
         25    1    4    4    0    0  0.58648825239E+02  0.64790193995E+02  0.91752568299E+02  0.17805475514E+03  0.12509000000E+03 0.  0.
         25    1    3    3    0    0 -0.71916201199E+02 -0.73828263473E+02  0.64966367942E+01  0.16221056338E+03  0.12509000000E+03 0.  0.
<mgrwt>
<rscale>  2 0.45201295E+03</rscale>
<asrwt>0</asrwt>
<pdfrwt beam="1">  1       21 0.44089087E-01 0.45201295E+03</pdfrwt>
<pdfrwt beam="2">  1       21 0.25054909E-01 0.45201295E+03</pdfrwt>
<totfact> 0.69044239E+04</totfact>
</mgrwt>
</event>
<event>
 7    0  0.4691878E-002  0.4433470E+03  0.7546771E-02  0.1029725E+00
         21   -1    0    0  502  501  0.00000000000E+00  0.00000000000E+00  0.54033053529E+02  0.54033053529E+02  0.00000000000E+00 0.  1.
         21   -1    0    0  501  502 -0.00000000000E+00 -0.00000000000E+00 -0.90942730844E+03  0.90942730844E+03  0.00000000000E+00 0.  1.
      99926    2    1    2    0    0  0.00000000000E+00  0.00000000000E+00 -0.85539425491E+03  0.96346036197E+03  0.44334697219E+03 0.  0.
      99925    2    3    3    0    0 -0.25255220880E+02 -0.24665379549E+02 -0.75175623477E+03  0.79722392057E+03  0.26302535218E+03 0.  0.
         25    1    4    4    0    0  0.44668918241E+01 -0.14838109467E+02 -0.26149183770E+03  0.29028539732E+03  0.12509000000E+03 0.  0.
         25    1    3    3    0    0  0.25255220880E+02  0.24665379549E+02 -0.10363802015E+03  0.16623644140E+03  0.12509000000E+03 0.  0.
         25    1    4    4    0    0 -0.29722112704E+02 -0.98272700828E+01 -0.49026439707E+03  0.50693852325E+03  0.12509000000E+03 0.  0.
<mgrwt>
<rscale>  2 0.44334697E+03</rscale>
<asrwt>0</asrwt>
<pdfrwt beam="1">  1       21 0.79460381E-02 0.44334697E+03</pdfrwt>
<pdfrwt beam="2">  1       21 0.13373930E+00 0.44334697E+03</pdfrwt>
<totfact> 0.44520435E+04</totfact>
</mgrwt>
</event>
<event>
 7    0  0.4691878E-002  0.4553407E+03  0.7546771E-02  0.1026141E+00
         21   -1    0    0  502  501  0.00000000000E+00  0.00000000000E+00  0.19014535608E+03  0.19014535608E+03  0.00000000000E+00 0.  1.
         21   -1    0    0  501  502 -0.00000000000E+00 -0.00000000000E+00 -0.27260091162E+03  0.27260091162E+03  0.00000000000E+00 0.  1.
      99926    2    1    2    0    0  0.14210854715E-13  0.00000000000E+00 -0.82455555545E+02  0.46274626770E+03  0.45534074014E+03 0.  0.
      99925    2    3    3    0    0 -0.11221404810E+03  0.13289145979E+02 -0.39590558595E+02  0.28881090599E+03  0.26282262668E+03 0.  0.
         25    1    4    4    0    0 -0.96328445353E+02  0.10297871584E+02 -0.37790675839E+02  0.16266794037E+03  0.12509000000E+03 0.  0.
         25    1    3    3    0    0  0.11221404810E+03 -0.13289145979E+02 -0.42864996950E+02  0.17393536171E+03  0.12509000000E+03 0.  0.
         25    1    4    4    0    0 -0.15885602743E+02  0.29912743955E+01 -0.17998827560E+01  0.12614296562E+03  0.12509000000E+03 0.  0.
<mgrwt>
<rscale>  2 0.45534074E+03</rscale>
<asrwt>0</asrwt>
<pdfrwt beam="1">  1       21 0.27962552E-01 0.45534074E+03</pdfrwt>
<pdfrwt beam="2">  1       21 0.40088369E-01 0.45534074E+03</pdfrwt>
<totfact> 0.67793937E+04</totfact>
</mgrwt>
</event>
<event>
 7    0  0.4691878E-002  0.4558022E+03  0.7546771E-02  0.1026006E+00
         21   -1    0    0  502  501  0.00000000000E+00  0.00000000000E+00  0.96029214957E+03  0.96029214957E+03  0.00000000000E+00 0.  1.
         21   -1    0    0  501  502 -0.00000000000E+00 -0.00000000000E+00 -0.54086575997E+02  0.54086575997E+02  0.00000000000E+00 0.  1.
      99926    2    1    2    0    0  0.00000000000E+00  0.00000000000E+00  0.90620557357E+03  0.10143787256E+04  0.45580221293E+03 0.  0.
      99925    2    3    3    0    0 -0.11010181040E+03  0.24591231195E+02  0.53058568995E+03  0.60271752704E+03  0.26271677851E+03 0.  0.
         25    1    3    3    0    0  0.11010181040E+03 -0.24591231195E+02  0.37561988362E+03  0.41166119853E+03  0.12509000000E+03 0.  0.
         25    1    4    4    0    0 -0.18084877596E+02  0.43667166861E+01  0.27980713437E+03  0.30705971985E+03  0.12509000000E+03 0.  0.
         25    1    4    4    0    0 -0.92016932799E+02  0.20224514509E+02  0.25077855559E+03  0.29565780719E+03  0.12509000000E+03 0.  0.
<mgrwt>
<rscale>  2 0.45580221E+03</rscale>
<asrwt>0</asrwt>
<pdfrwt beam="1">  1       21 0.14121942E+00 0.45580221E+03</pdfrwt>
<pdfrwt beam="2">  1       21 0.79539088E-02 0.45580221E+03</pdfrwt>
<totfact> 0.38371208E+04</totfact>
</mgrwt>
</event>
<event>
 7    0  0.4691878E-002  0.4278623E+03  0.7546771E-02  0.1034537E+00
         21   -1    0    0  502  501  0.00000000000E+00  0.00000000000E+00  0.25918518684E+04  0.25918518684E+04  0.00000000000E+00 0.  1.
         21   -1    0    0  501  502 -0.00000000000E+00 -0.00000000000E+00 -0.17657849895E+02  0.17657849895E+02  0.00000000000E+00 0.  1.
      99926    2    1    2    0    0  0.00000000000E+00  0.00000000000E+00  0.25741940185E+04  0.26095097183E+04  0.42786227337E+03 0.  0.
      99925    2    3    3    0    0 -0.61315286882E+01  0.64896721761E+02  0.13281611935E+04  0.13555182952E+04  0.26299907325E+03 0.  0.
         25    1    4    4    0    0  0.41909667085E+01  0.67424583222E+02  0.59986954214E+03  0.61648569676E+03  0.12509000000E+03 0.  0.
         25    1    4    4    0    0 -0.10322495397E+02 -0.25278614606E+01  0.72829165135E+03  0.73903259842E+03  0.12509000000E+03 0.  0.
         25    1    3    3    0    0  0.61315286882E+01 -0.64896721761E+02  0.12460328250E+04  0.12539914231E+04  0.12509000000E+03 0.  0.
<mgrwt>
<rscale>  2 0.42786227E+03</rscale>
<asrwt>0</asrwt>
<pdfrwt beam="1">  1       21 0.38115442E+00 0.42786227E+03</pdfrwt>
<pdfrwt beam="2">  1       21 0.25967444E-02 0.42786227E+03</pdfrwt>
<totfact> 0.75458810E+03</totfact>
</mgrwt>
</event>
<event>
 7    0  0.4691878E-002  0.4564459E+03  0.7546771E-02  0.1025817E+00
         21   -1    0    0  502  501  0.00000000000E+00  0.00000000000E+00  0.72569633265E+03  0.72569633265E+03  0.00000000000E+00 0. -1.
         21   -1    0    0  501  502 -0.00000000000E+00 -0.00000000000E+00 -0.71773417575E+02  0.71773417575E+02  0.00000000000E+00 0. -1.
      99926    2    1    2    0    0 -0.14210854715E-13  0.00000000000E+00  0.65392291508E+03  0.79746975023E+03  0.45644586061E+03 0.  0.
      99925    2    3    3    0    0  0.92461774390E+02 -0.64627055741E+02  0.37620184558E+03  0.47265851797E+03  0.26296845806E+03 0.  0.
         25    1    4    4    0    0  0.73538912687E+02 -0.18393254041E+02  0.15083648291E+03  0.21010815346E+03  0.12509000000E+03 0.  0.
         25    1    3    3    0    0 -0.92461774390E+02  0.64627055741E+02  0.27772106950E+03  0.32481123226E+03  0.12509000000E+03 0.  0.
         25    1    4    4    0    0  0.18922861703E+02 -0.46233801699E+02  0.22536536266E+03  0.26255036451E+03  0.12509000000E+03 0.  0.
<mgrwt>
<rscale>  2 0.45644586E+03</rscale>
<asrwt>0</asrwt>
<pdfrwt beam="1">  1       21 0.10672005E+00 0.45644586E+03</pdfrwt>
<pdfrwt beam="2">  1       21 0.10554915E-01 0.45644586E+03</pdfrwt>
<totfact> 0.47347892E+04</totfact>
</mgrwt>
</event>
<event>
 7    0  0.4691878E-002  0.4641862E+03  0.7546771E-02  0.1023574E+00
         21   -1    0    0  502  501  0.00000000000E+00  0.00000000000E+00  0.77052588781E+02  0.77052588781E+02  0.00000000000E+00 0. -1.
         21   -1    0    0  501  502 -0.00000000000E+00 -0.00000000000E+00 -0.69909658308E+03  0.69909658308E+03  0.00000000000E+00 0. -1.
      99926    2    1    2    0    0  0.71054273576E-14  0.00000000000E+00 -0.62204399430E+03  0.77614917186E+03  0.46418617616E+03 0.  0.
      99925    2    3    3    0    0  0.61490223017E+02 -0.10473775124E+03 -0.39813447951E+03  0.49236400140E+03  0.26298327330E+03 0.  0.
         25    1    4    4    0    0  0.12775380119E+02 -0.41122913841E+02 -0.24845627051E+03  0.28148238104E+03  0.12509000000E+03 0.  0.
         25    1    4    4    0    0  0.48714842898E+02 -0.63614837398E+02 -0.14967820900E+03  0.21088162036E+03  0.12509000000E+03 0.  0.
         25    1    3    3    0    0 -0.61490223017E+02  0.10473775124E+03 -0.22390951479E+03  0.28378517046E+03  0.12509000000E+03 0.  0.
<mgrwt>
<rscale>  2 0.46418618E+03</rscale>
<asrwt>0</asrwt>
<pdfrwt beam="1">  1       21 0.11331264E-01 0.46418618E+03</pdfrwt>
<pdfrwt beam="2">  1       21 0.10280832E+00 0.46418618E+03</pdfrwt>
<totfact> 0.45564686E+04</totfact>
</mgrwt>
</event>
<event>
 7    0  0.4691878E-002  0.4541373E+03  0.7546771E-02  0.1026495E+00
         21   -1    0    0  502  501  0.00000000000E+00  0.00000000000E+00  0.23899572429E+04  0.23899572429E+04  0.00000000000E+00 0. -1.
         21   -1    0    0  501  502 -0.00000000000E+00 -0.00000000000E+00 -0.21573683539E+02  0.21573683539E+02  0.00000000000E+00 0. -1.
      99926    2    1    2    0    0  0.35527136788E-14  0.00000000000E+00  0.23683835594E+04  0.24115309265E+04  0.45413734148E+03 0.  0.
      99925    2    3    3    0    0 -0.30603291365E+02  0.61396408502E+02  0.19643815884E+04  0.19830788509E+04  0.26286997453E+03 0.  0.
         25    1    3    3    0    0  0.30603291365E+02 -0.61396408502E+02  0.40400197100E+03  0.42845207561E+03  0.12509000000E+03 0.  0.
         25    1    4    4    0    0 -0.17520090374E+02  0.30121705472E+01  0.72071170945E+03  0.73170274222E+03  0.12509000000E+03 0.  0.
         25    1    4    4    0    0 -0.13083200991E+02  0.58384237955E+02  0.12436698789E+04  0.12513761086E+04  0.12509000000E+03 0.  0.
<mgrwt>
<rscale>  2 0.45413734E+03</rscale>
<asrwt>0</asrwt>
<pdfrwt beam="1">  1       21 0.35146412E+00 0.45413734E+03</pdfrwt>
<pdfrwt beam="2">  1       21 0.31726022E-02 0.45413734E+03</pdfrwt>
<totfact> 0.81341915E+03</totfact>
</mgrwt>
</event>
<event>
 7    0  0.4691878E-002  0.3929307E+03  0.7546771E-02  0.1046255E+00
         21   -1    0    0  502  501  0.00000000000E+00  0.00000000000E+00  0.58647907058E+03  0.58647907058E+03  0.00000000000E+00 0.  1.
         21   -1    0    0  501  502 -0.00000000000E+00 -0.00000000000E+00 -0.65814186757E+02  0.65814186757E+02  0.00000000000E+00 0.  1.
      99926    2    1    2    0    0  0.00000000000E+00  0.35527136788E-14  0.52066488383E+03  0.65229325734E+03  0.39293074749E+03 0.  0.
      99925    2    3    3    0    0 -0.45017937260E+01 -0.20865772291E+02  0.31927883076E+03  0.41426070270E+03  0.26309183079E+03 0.  0.
         25    1    4    4    0    0 -0.73947076404E+00  0.14652695551E+02  0.10685846325E+03  0.16517108576E+03  0.12509000000E+03 0.  0.
         25    1    4    4    0    0 -0.37623229619E+01 -0.35518467842E+02  0.21242036751E+03  0.24908961693E+03  0.12509000000E+03 0.  0.
         25    1    3    3    0    0  0.45017937260E+01  0.20865772291E+02  0.20138605307E+03  0.23803255464E+03  0.12509000000E+03 0.  0.
<mgrwt>
<rscale>  2 0.39293075E+03</rscale>
<asrwt>0</asrwt>
<pdfrwt beam="1">  1       21 0.86246919E-01 0.39293075E+03</pdfrwt>
<pdfrwt beam="2">  1       21 0.96785572E-02 0.39293075E+03</pdfrwt>
<totfact> 0.93643120E+04</totfact>
</mgrwt>
</event>
<event>
 7    0  0.4691878E-002  0.4587830E+03  0.7546771E-02  0.1025135E+00
         21   -1    0    0  502  501  0.00000000000E+00  0.00000000000E+00  0.38579773944E+03  0.38579773944E+03  0.00000000000E+00 0. -1.
         21   -1    0    0  501  502 -0.00000000000E+00 -0.00000000000E+00 -0.13639391140E+03  0.13639391140E+03  0.00000000000E+00 0. -1.
      99926    2    1    2    0    0  0.00000000000E+00 -0.88817841970E-15  0.24940382804E+03  0.52219165084E+03  0.45878301055E+03 0.  0.
      99925    2    3    3    0    0  0.27316833984E+02  0.53130691543E+01  0.28537732601E+03  0.38909004011E+03  0.26301407374E+03 0.  0.
         25    1    4    4    0    0  0.42447493402E+02 -0.25470284800E+02  0.15366953986E+03  0.20423604159E+03  0.12509000000E+03 0.  0.
         25    1    3    3    0    0 -0.27316833984E+02 -0.53130691543E+01 -0.35973497972E+02  0.13310161073E+03  0.12509000000E+03 0.  0.
         25    1    4    4    0    0 -0.15130659418E+02  0.30783353954E+02  0.13170778615E+03  0.18485399852E+03  0.12509000000E+03 0.  0.
<mgrwt>
<rscale>  2 0.45878301E+03</rscale>
<asrwt>0</asrwt>
<pdfrwt beam="1">  1       21 0.56734962E-01 0.45878301E+03</pdfrwt>
<pdfrwt beam="2">  1       21 0.20057928E-01 0.45878301E+03</pdfrwt>
<totfact> 0.61860566E+04</totfact>
</mgrwt>
</event>
<event>
 7    0  0.4691878E-002  0.4506109E+03  0.7546771E-02  0.1027540E+00
         21   -1    0    0  502  501  0.00000000000E+00  0.00000000000E+00  0.22032179376E+03  0.22032179376E+03  0.00000000000E+00 0.  1.
         21   -1    0    0  501  502 -0.00000000000E+00 -0.00000000000E+00 -0.23040182529E+03  0.23040182529E+03  0.00000000000E+00 0.  1.
      99926    2    1    2    0    0  0.00000000000E+00  0.71054273576E-14 -0.10080031527E+02  0.45072361904E+03  0.45061088949E+03 0.  0.
      99925    2    3    3    0    0  0.16930960320E+02 -0.47943784439E+02 -0.10279296650E+03  0.28692966221E+03  0.26301515776E+03 0.  0.
         25    1    4    4    0    0  0.12158168420E+02 -0.52981452468E+02 -0.22788528611E+02  0.13828116467E+03  0.12509000000E+03 0.  0.
         25    1    4    4    0    0  0.47727918997E+01  0.50376680293E+01 -0.80004437887E+02  0.14864849755E+03  0.12509000000E+03 0.  0.
         25    1    3    3    0    0 -0.16930960320E+02  0.47943784439E+02  0.92712934971E+02  0.16379395683E+03  0.12509000000E+03 0.  0.
<mgrwt>
<rscale>  2 0.45061089E+03</rscale>
<asrwt>0</asrwt>
<pdfrwt beam="1">  1       21 0.32400264E-01 0.45061089E+03</pdfrwt>
<pdfrwt beam="2">  1       21 0.33882621E-01 0.45061089E+03</pdfrwt>
<totfact> 0.71325539E+04</totfact>
</mgrwt>
</event>
<event>
 7    0  0.4691878E-002  0.4683894E+03  0.7546771E-02  0.1022376E+00
         21   -1    0    0  502  501  0.00000000000E+00  0.00000000000E+00  0.16277242318E+03  0.16277242318E+03  0.00000000000E+00 0. -1.
         21   -1    0    0  501  502 -0.00000000000E+00 -0.00000000000E+00 -0.33695606308E+03  0.33695606308E+03  0.00000000000E+00 0. -1.
      99926    2    1    2    0    0  0.00000000000E+00 -0.14210854715E-13 -0.17418363990E+03  0.49972848626E+03  0.46838938883E+03 0.  0.
      99925    2    3    3    0    0 -0.23152956590E+02 -0.11537906576E+03 -0.15472615922E+03  0.32688610179E+03  0.26280401630E+03 0.  0.
         25    1    4    4    0    0 -0.13665868171E+02 -0.90047288752E+02 -0.53537154525E+02  0.16373455707E+03  0.12509000000E+03 0.  0.
         25    1    3    3    0    0  0.23152956590E+02  0.11537906576E+03 -0.19457480683E+02  0.17284238447E+03  0.12509000000E+03 0.  0.
         25    1    4    4    0    0 -0.94870884188E+01 -0.25331777008E+02 -0.10118900470E+03  0.16315154472E+03  0.12509000000E+03 0.  0.
<mgrwt>
<rscale>  2 0.46838939E+03</rscale>
<asrwt>0</asrwt>
<pdfrwt beam="1">  1       21 0.23937121E-01 0.46838939E+03</pdfrwt>
<pdfrwt beam="2">  1       21 0.49552362E-01 0.46838939E+03</pdfrwt>
<totfact> 0.58788096E+04</totfact>
</mgrwt>
</event>
<event>
 7    0  0.4691878E-002  0.4506049E+03  0.7546771E-02  0.1027542E+00
         21   -1    0    0  502  501  0.00000000000E+00  0.00000000000E+00  0.37229138198E+03  0.37229138198E+03  0.00000000000E+00 0.  1.
         21   -1    0    0  501  502 -0.00000000000E+00 -0.00000000000E+00 -0.13634800083E+03  0.13634800083E+03  0.00000000000E+00 0.  1.
      99926    2    1    2    0    0 -0.71054273576E-14  0.14210854715E-13  0.23594338115E+03  0.50863938280E+03  0.45060486308E+03 0.  0.
      99925    2    3    3    0    0  0.41279314132E+02 -0.98594670585E+02  0.17320645295E+03  0.33254758543E+03  0.26298770007E+03 0.  0.
         25    1    4    4    0    0  0.11873592366E+02 -0.38522237962E+02  0.12853747290E+03  0.18383235584E+03  0.12509000000E+03 0.  0.
         25    1    3    3    0    0 -0.41279314132E+02  0.98594670585E+02  0.62736928197E+02  0.17609179737E+03  0.12509000000E+03 0.  0.
         25    1    4    4    0    0  0.29405721766E+02 -0.60072432622E+02  0.44668980052E+02  0.14871522959E+03  0.12509000000E+03 0.  0.
<mgrwt>
<rscale>  2 0.45060486E+03</rscale>
<asrwt>0</asrwt>
<pdfrwt beam="1">  1       21 0.54748732E-01 0.45060486E+03</pdfrwt>
<pdfrwt beam="2">  1       21 0.20051177E-01 0.45060486E+03</pdfrwt>
<totfact> 0.66973602E+04</totfact>
</mgrwt>
</event>
<event>
 7    0  0.4691878E-002  0.4570077E+03  0.7546771E-02  0.1025653E+00
         21   -1    0    0  502  501  0.00000000000E+00  0.00000000000E+00  0.67148675529E+03  0.67148675529E+03  0.00000000000E+00 0.  1.
         21   -1    0    0  501  502 -0.00000000000E+00 -0.00000000000E+00 -0.77758801763E+02  0.77758801763E+02  0.00000000000E+00 0.  1.
      99926    2    1    2    0    0  0.00000000000E+00  0.71054273576E-14  0.59372795353E+03  0.74924555706E+03  0.45700768261E+03 0.  0.
      99925    2    3    3    0    0 -0.45538604741E+02 -0.59724626268E+02  0.51589463233E+03  0.58387830064E+03  0.26291786320E+03 0.  0.
         25    1    4    4    0    0 -0.33228331245E+02 -0.62057101069E+02  0.22374338967E+03  0.26582666968E+03  0.12509000000E+03 0.  0.
         25    1    3    3    0    0  0.45538604741E+02  0.59724626268E+02  0.77833321198E+02  0.16536725641E+03  0.12509000000E+03 0.  0.
         25    1    4    4    0    0 -0.12310273497E+02  0.23324748003E+01  0.29215124266E+03  0.31805163096E+03  0.12509000000E+03 0.  0.
<mgrwt>
<rscale>  2 0.45700768E+03</rscale>
<asrwt>0</asrwt>
<pdfrwt beam="1">  1       21 0.98748049E-01 0.45700768E+03</pdfrwt>
<pdfrwt beam="2">  1       21 0.11435118E-01 0.45700768E+03</pdfrwt>
<totfact> 0.49523352E+04</totfact>
</mgrwt>
</event>
<event>
 7    0  0.4691878E-002  0.4560057E+03  0.7546771E-02  0.1025946E+00
         21   -1    0    0  502  501  0.00000000000E+00  0.00000000000E+00  0.30026790155E+02  0.30026790155E+02  0.00000000000E+00 0.  1.
         21   -1    0    0  501  502 -0.00000000000E+00 -0.00000000000E+00 -0.17312975267E+04  0.17312975267E+04  0.00000000000E+00 0.  1.
      99926    2    1    2    0    0  0.35527136788E-14  0.00000000000E+00 -0.17012707366E+04  0.17613243169E+04  0.45600573475E+03 0.  0.
      99925    2    3    3    0    0 -0.18170752787E+02 -0.40966445875E+02 -0.66367808315E+03  0.71525813901E+03  0.26290146714E+03 0.  0.
         25    1    4    4    0    0 -0.39162104166E+02 -0.28479709420E+02 -0.27036926313E+03  0.30181419913E+03  0.12509000000E+03 0.  0.
         25    1    4    4    0    0  0.20991351379E+02 -0.12486736456E+02 -0.39330882002E+03  0.41344393988E+03  0.12509000000E+03 0.  0.
         25    1    3    3    0    0  0.18170752787E+02  0.40966445875E+02 -0.10375926534E+04  0.10460661779E+04  0.12509000000E+03 0.  0.
<mgrwt>
<rscale>  2 0.45600573E+03</rscale>
<asrwt>0</asrwt>
<pdfrwt beam="1">  1       21 0.44157060E-02 0.45600573E+03</pdfrwt>
<pdfrwt beam="2">  1       21 0.25460249E+00 0.45600573E+03</pdfrwt>
<totfact> 0.17874613E+04</totfact>
</mgrwt>
</event>
<event>
 7    0  0.4691878E-002  0.4446529E+03  0.7546771E-02  0.1029329E+00
         21   -1    0    0  502  501  0.00000000000E+00  0.00000000000E+00  0.12967893926E+03  0.12967893926E+03  0.00000000000E+00 0. -1.
         21   -1    0    0  501  502 -0.00000000000E+00 -0.00000000000E+00 -0.38116488971E+03  0.38116488971E+03  0.00000000000E+00 0. -1.
      99926    2    1    2    0    0 -0.14210854715E-13  0.00000000000E+00 -0.25148595045E+03  0.51084382896E+03  0.44465293692E+03 0.  0.
      99925    2    3    3    0    0  0.74716658792E+02  0.82457753681E+01 -0.78521838461E+02  0.28453725803E+03  0.26295474930E+03 0.  0.
         25    1    3    3    0    0 -0.74716658792E+02 -0.82457753681E+01 -0.17296411199E+03  0.22630657093E+03  0.12509000000E+03 0.  0.
         25    1    4    4    0    0  0.77662088953E+02  0.13242950730E+02 -0.50465255870E+02  0.15620827748E+03  0.12509000000E+03 0.  0.
         25    1    4    4    0    0 -0.29454301611E+01 -0.49971753620E+01 -0.28056582591E+02  0.12832898054E+03  0.12509000000E+03 0.  0.
<mgrwt>
<rscale>  2 0.44465294E+03</rscale>
<asrwt>0</asrwt>
<pdfrwt beam="1">  1       21 0.19070432E-01 0.44465294E+03</pdfrwt>
<pdfrwt beam="2">  1       21 0.56053660E-01 0.44465294E+03</pdfrwt>
<totfact> 0.70095824E+04</totfact>
</mgrwt>
</event>
<event>
 7    0  0.4691878E-002  0.4496775E+03  0.7546771E-02  0.1027818E+00
         21   -1    0    0  502  501  0.00000000000E+00  0.00000000000E+00  0.32091491095E+03  0.32091491095E+03  0.00000000000E+00 0.  1.
         21   -1    0    0  501  502 -0.00000000000E+00 -0.00000000000E+00 -0.15752608916E+03  0.15752608916E+03  0.00000000000E+00 0.  1.
      99926    2    1    2    0    0  0.14210854715E-13  0.55511151231E-16  0.16338882179E+03  0.47844100011E+03  0.44967753280E+03 0.  0.
      99925    2    3    3    0    0 -0.10768824171E+03 -0.46658724771E+00  0.11140339847E+03  0.30538907887E+03  0.26316306199E+03 0.  0.
         25    1    4    4    0    0 -0.10158906223E+02 -0.10783051734E+01  0.43263628488E+02  0.13275396705E+03  0.12509000000E+03 0.  0.
         25    1    4    4    0    0 -0.97529335491E+02  0.61171792569E+00  0.68139769980E+02  0.17263511182E+03  0.12509000000E+03 0.  0.
         25    1    3    3    0    0  0.10768824171E+03  0.46658724771E+00  0.51985423323E+02  0.17305192124E+03  0.12509000000E+03 0.  0.
<mgrwt>
<rscale>  2 0.44967753E+03</rscale>
<asrwt>0</asrwt>
<pdfrwt beam="1">  1       21 0.47193369E-01 0.44967753E+03</pdfrwt>
<pdfrwt beam="2">  1       21 0.23165601E-01 0.44967753E+03</pdfrwt>
<totfact> 0.69712792E+04</totfact>
</mgrwt>
</event>
<event>
 7    0  0.4691878E-002  0.4633370E+03  0.7546771E-02  0.1023818E+00
         21   -1    0    0  502  501  0.00000000000E+00  0.00000000000E+00  0.36126039933E+03  0.36126039933E+03  0.00000000000E+00 0. -1.
         21   -1    0    0  501  502 -0.00000000000E+00 -0.00000000000E+00 -0.14856398133E+03  0.14856398133E+03  0.00000000000E+00 0. -1.
      99926    2    1    2    0    0  0.00000000000E+00 -0.17763568394E-14  0.21269641800E+03  0.50982438066E+03  0.46333695393E+03 0.  0.
      99925    2    3    3    0    0  0.43017513125E+02 -0.13938752519E+02  0.25611680068E+03  0.36990428564E+03  0.26303720210E+03 0.  0.
         25    1    4    4    0    0  0.22160823754E+02 -0.28747891531E+02  0.81713443404E+02  0.15376000231E+03  0.12509000000E+03 0.  0.
         25    1    4    4    0    0  0.20856689371E+02  0.14809139011E+02  0.17440335727E+03  0.21614428333E+03  0.12509000000E+03 0.  0.
         25    1    3    3    0    0 -0.43017513125E+02  0.13938752519E+02 -0.43420382675E+02  0.13992009501E+03  0.12509000000E+03 0.  0.
<mgrwt>
<rscale>  2 0.46333695E+03</rscale>
<asrwt>0</asrwt>
<pdfrwt beam="1">  1       21 0.53126529E-01 0.46333695E+03</pdfrwt>
<pdfrwt beam="2">  1       21 0.21847644E-01 0.46333695E+03</pdfrwt>
<totfact> 0.60483312E+04</totfact>
</mgrwt>
</event>
<event>
 7    0  0.4691878E-002  0.4541782E+03  0.7546771E-02  0.1026483E+00
         21   -1    0    0  502  501  0.00000000000E+00  0.00000000000E+00  0.81259809793E+02  0.81259809793E+02  0.00000000000E+00 0.  1.
         21   -1    0    0  501  502 -0.00000000000E+00 -0.00000000000E+00 -0.63462428549E+03  0.63462428549E+03  0.00000000000E+00 0.  1.
      99926    2    1    2    0    0 -0.35527136788E-14  0.00000000000E+00 -0.55336447570E+03  0.71588409529E+03  0.45417815328E+03 0.  0.
      99925    2    3    3    0    0  0.12977842158E+02 -0.92147684176E+02 -0.24883832285E+03  0.37376817056E+03  0.26291160932E+03 0.  0.
         25    1    4    4    0    0 -0.16716659426E+02 -0.20529390748E+02 -0.84992755470E+02  0.15353233916E+03  0.12509000000E+03 0.  0.
         25    1    4    4    0    0  0.29694501584E+02 -0.71618293429E+02 -0.16384556738E+03  0.22023583139E+03  0.12509000000E+03 0.  0.
         25    1    3    3    0    0 -0.12977842158E+02  0.92147684176E+02 -0.30452615285E+03  0.34211592473E+03  0.12509000000E+03 0.  0.
<mgrwt>
<rscale>  2 0.45417815E+03</rscale>
<asrwt>0</asrwt>
<pdfrwt beam="1">  1       21 0.11949972E-01 0.45417815E+03</pdfrwt>
<pdfrwt beam="2">  1       21 0.93327101E-01 0.45417815E+03</pdfrwt>
<totfact> 0.52386915E+04</totfact>
</mgrwt>
</event>
<event>
 7    0  0.4691878E-002  0.4187031E+03  0.7546771E-02  0.1037489E+00
         21   -1    0    0  502  501  0.00000000000E+00  0.00000000000E+00  0.86642585388E+02  0.86642585388E+02  0.00000000000E+00 0. -1.
         21   -1    0    0  501  502 -0.00000000000E+00 -0.00000000000E+00 -0.50584907321E+03  0.50584907321E+03  0.00000000000E+00 0. -1.
      99926    2    1    2    0    0  0.00000000000E+00  0.00000000000E+00 -0.41920648782E+03  0.59249165859E+03  0.41870310015E+03 0.  0.
      99925    2    3    3    0    0  0.14944718259E+02  0.56157981579E+02 -0.20888351867E+03  0.34097560950E+03  0.26316340628E+03 0.  0.
         25    1    4    4    0    0  0.11143996449E+01  0.29884442643E+02 -0.15542352638E+03  0.20173820276E+03  0.12509000000E+03 0.  0.
         25    1    3    3    0    0 -0.14944718259E+02 -0.56157981579E+02 -0.21032296915E+03  0.25151604910E+03  0.12509000000E+03 0.  0.
         25    1    4    4    0    0  0.13830318614E+02  0.26273538936E+02 -0.53459992283E+02  0.13923740674E+03  0.12509000000E+03 0.  0.
<mgrwt>
<rscale>  2 0.41870310E+03</rscale>
<asrwt>0</asrwt>
<pdfrwt beam="1">  1       21 0.12741557E-01 0.41870310E+03</pdfrwt>
<pdfrwt beam="2">  1       21 0.74389567E-01 0.41870310E+03</pdfrwt>
<totfact> 0.79641849E+04</totfact>
</mgrwt>
</event>
<event>
 7    0  0.4691878E-002  0.4570679E+03  0.7546771E-02  0.1025635E+00
         21   -1    0    0  502  501  0.00000000000E+00  0.00000000000E+00  0.14529462539E+03  0.14529462539E+03  0.00000000000E+00 0. -1.
         21   -1    0    0  501  502 -0.00000000000E+00 -0.00000000000E+00 -0.35946111248E+03  0.35946111248E+03  0.00000000000E+00 0. -1.
      99926    2    1    2    0    0  0.00000000000E+00  0.00000000000E+00 -0.21416648709E+03  0.50475573787E+03  0.45706790603E+03 0.  0.
      99925    2    3    3    0    0  0.95272666435E+02 -0.63971110051E+02 -0.12497424597E+03  0.31299560681E+03  0.26301806751E+03 0.  0.
         25    1    4    4    0    0  0.86335311676E+02 -0.16571470458E+02 -0.65815678543E+02  0.16645603419E+03  0.12509000000E+03 0.  0.
         25    1    4    4    0    0  0.89373547586E+01 -0.47399639593E+02 -0.59158567423E+02  0.14653957262E+03  0.12509000000E+03 0.  0.
         25    1    3    3    0    0 -0.95272666435E+02  0.63971110051E+02 -0.89192241120E+02  0.19176013107E+03  0.12509000000E+03 0.  0.
<mgrwt>
<rscale>  2 0.45706791E+03</rscale>
<asrwt>0</asrwt>
<pdfrwt beam="1">  1       21 0.21366857E-01 0.45706791E+03</pdfrwt>
<pdfrwt beam="2">  1       21 0.52861928E-01 0.45706791E+03</pdfrwt>
<totfact> 0.63882799E+04</totfact>
</mgrwt>
</event>
<event>
 7    0  0.4691878E-002  0.4602458E+03  0.7546771E-02  0.1024710E+00
         21   -1    0    0  502  501  0.00000000000E+00  0.00000000000E+00  0.47012738917E+02  0.47012738917E+02  0.00000000000E+00 0. -1.
         21   -1    0    0  501  502 -0.00000000000E+00 -0.00000000000E+00 -0.11264296145E+04  0.11264296145E+04  0.00000000000E+00 0. -1.
      99926    2    1    2    0    0  0.00000000000E+00  0.00000000000E+00 -0.10794168756E+04  0.11734423534E+04  0.46024576641E+03 0.  0.
      99925    2    3    3    0    0 -0.71592133559E+02 -0.72218854123E+02 -0.82867861326E+03  0.87535145994E+03  0.26304170367E+03 0.  0.
         25    1    3    3    0    0  0.71592133559E+02  0.72218854123E+02 -0.25073826230E+03  0.29809089345E+03  0.12509000000E+03 0.  0.
         25    1    4    4    0    0 -0.10235167894E+02 -0.67015761328E+02 -0.43904687772E+03  0.46152523210E+03  0.12509000000E+03 0.  0.
         25    1    4    4    0    0 -0.61356965665E+02 -0.52030927949E+01 -0.38963173555E+03  0.41382622785E+03  0.12509000000E+03 0.  0.
<mgrwt>
<rscale>  2 0.46024577E+03</rscale>
<asrwt>0</asrwt>
<pdfrwt beam="1">  1       21 0.69136386E-02 0.46024577E+03</pdfrwt>
<pdfrwt beam="2">  1       21 0.16565140E+00 0.46024577E+03</pdfrwt>
<totfact> 0.31693822E+04</totfact>
</mgrwt>
</event>
<event>
 7    0  0.4691878E-002  0.4514387E+03  0.7546771E-02  0.1027294E+00
         21   -1    0    0  502  501  0.00000000000E+00  0.00000000000E+00  0.62412029178E+02  0.62412029178E+02  0.00000000000E+00 0. -1.
         21   -1    0    0  501  502 -0.00000000000E+00 -0.00000000000E+00 -0.81633648170E+03  0.81633648170E+03  0.00000000000E+00 0. -1.
      99926    2    1    2    0    0  0.71054273576E-14  0.14210854715E-13 -0.75392445252E+03  0.87874851088E+03  0.45143866168E+03 0.  0.
      99925    2    3    3    0    0  0.34764181866E+02  0.80945812648E+02 -0.34837764492E+03  0.44530128896E+03  0.26299331085E+03 0.  0.
         25    1    3    3    0    0 -0.34764181866E+02 -0.80945812648E+02 -0.40554680761E+03  0.43344722192E+03  0.12509000000E+03 0.  0.
         25    1    4    4    0    0  0.19596074592E+02  0.80257015239E+02 -0.16655717581E+03  0.22408479544E+03  0.12509000000E+03 0.  0.
         25    1    4    4    0    0  0.15168107274E+02  0.68879740861E+00 -0.18182046910E+03  0.22121649352E+03  0.12509000000E+03 0.  0.
<mgrwt>
<rscale>  2 0.45143866E+03</rscale>
<asrwt>0</asrwt>
<pdfrwt beam="1">  1       21 0.91782398E-02 0.45143866E+03</pdfrwt>
<pdfrwt beam="2">  1       21 0.12004948E+00 0.45143866E+03</pdfrwt>
<totfact> 0.45418977E+04</totfact>
</mgrwt>
</event>
<event>
 7    0  0.4691878E-002  0.4580497E+03  0.7546771E-02  0.1025348E+00
         21   -1    0    0  502  501  0.00000000000E+00  0.00000000000E+00  0.69346485739E+03  0.69346485739E+03  0.00000000000E+00 0. -1.
         21   -1    0    0  501  502 -0.00000000000E+00 -0.00000000000E+00 -0.75638136954E+02  0.75638136954E+02  0.00000000000E+00 0. -1.
      99926    2    1    2    0    0  0.00000000000E+00  0.00000000000E+00  0.61782672043E+03  0.76910299434E+03  0.45804973466E+03 0.  0.
      99925    2    3    3    0    0 -0.74979795697E+02  0.87636477911E+02  0.36784897407E+03  0.46671499226E+03  0.26307393306E+03 0.  0.
         25    1    4    4    0    0 -0.64301699295E+02  0.78726553872E+02  0.21519809618E+03  0.26886856922E+03  0.12509000000E+03 0.  0.
         25    1    3    3    0    0  0.74979795697E+02 -0.87636477911E+02  0.24997774636E+03  0.30238800208E+03  0.12509000000E+03 0.  0.
         25    1    4    4    0    0 -0.10678096402E+02  0.89099240387E+01  0.15265087789E+03  0.19784642304E+03  0.12509000000E+03 0.  0.
<mgrwt>
<rscale>  2 0.45804973E+03</rscale>
<asrwt>0</asrwt>
<pdfrwt beam="1">  1       21 0.10198012E+00 0.45804973E+03</pdfrwt>
<pdfrwt beam="2">  1       21 0.11123256E-01 0.45804973E+03</pdfrwt>
<totfact> 0.48132761E+04</totfact>
</mgrwt>
</event>
<event>
 7    0  0.4691878E-002  0.4561118E+03  0.7546771E-02  0.1025915E+00
         21   -1    0    0  502  501  0.00000000000E+00  0.00000000000E+00  0.17140418128E+03  0.17140418128E+03  0.00000000000E+00 0.  1.
         21   -1    0    0  501  502 -0.00000000000E+00 -0.00000000000E+00 -0.30343184520E+03  0.30343184520E+03  0.00000000000E+00 0.  1.
      99926    2    1    2    0    0  0.00000000000E+00 -0.88817841970E-15 -0.13202766392E+03  0.47483602648E+03  0.45611177140E+03 0.  0.
      99925    2    3    3    0    0 -0.23415204554E+02  0.41173934413E+01 -0.19922423024E+03  0.33086342020E+03  0.26308759792E+03 0.  0.
         25    1    3    3    0    0  0.23415204554E+02 -0.41173934413E+01  0.67196566325E+02  0.14397260628E+03  0.12509000000E+03 0.  0.
         25    1    4    4    0    0 -0.41330171377E+02 -0.23044044635E+02 -0.85773652360E+02  0.15888309727E+03  0.12509000000E+03 0.  0.
         25    1    4    4    0    0  0.17914966823E+02  0.27161438076E+02 -0.11345057788E+03  0.17198032293E+03  0.12509000000E+03 0.  0.
<mgrwt>
<rscale>  2 0.45611177E+03</rscale>
<asrwt>0</asrwt>
<pdfrwt beam="1">  1       21 0.25206497E-01 0.45611177E+03</pdfrwt>
<pdfrwt beam="2">  1       21 0.44622330E-01 0.45611177E+03</pdfrwt>
<totfact> 0.66489441E+04</totfact>
</mgrwt>
</event>
<event>
 7    0  0.4691878E-002  0.4578111E+03  0.7546771E-02  0.1025418E+00
         21   -1    0    0  502  501  0.00000000000E+00  0.00000000000E+00  0.11559365589E+03  0.11559365589E+03  0.00000000000E+00 0. -1.
         21   -1    0    0  501  502 -0.00000000000E+00 -0.00000000000E+00 -0.45329265812E+03  0.45329265812E+03  0.00000000000E+00 0. -1.
      99926    2    1    2    0    0  0.00000000000E+00  0.00000000000E+00 -0.33769900223E+03  0.56888631401E+03  0.45781112062E+03 0.  0.
      99925    2    3    3    0    0 -0.65476001522E+02 -0.48441528578E+02 -0.10970571139E+03  0.29637551196E+03  0.26300078424E+03 0.  0.
         25    1    4    4    0    0 -0.21427575624E+02 -0.30343528960E+00 -0.18192135221E+02  0.12820957435E+03  0.12509000000E+03 0.  0.
         25    1    3    3    0    0  0.65476001522E+02  0.48441528578E+02 -0.22799329085E+03  0.27251080206E+03  0.12509000000E+03 0.  0.
         25    1    4    4    0    0 -0.44048425898E+02 -0.48138093289E+02 -0.91513576167E+02  0.16816593761E+03  0.12509000000E+03 0.  0.
<mgrwt>
<rscale>  2 0.45781112E+03</rscale>
<asrwt>0</asrwt>
<pdfrwt beam="1">  1       21 0.16999067E-01 0.45781112E+03</pdfrwt>
<pdfrwt beam="2">  1       21 0.66660686E-01 0.45781112E+03</pdfrwt>
<totfact> 0.59306021E+04</totfact>
</mgrwt>
</event>
<event>
 7    0  0.4691878E-002  0.3921220E+03  0.7546771E-02  0.1046542E+00
         21   -1    0    0  502  501  0.00000000000E+00  0.00000000000E+00  0.37148378025E+03  0.37148378025E+03  0.00000000000E+00 0.  1.
         21   -1    0    0  501  502 -0.00000000000E+00 -0.00000000000E+00 -0.10347671068E+03  0.10347671068E+03  0.00000000000E+00 0.  1.
      99926    2    1    2    0    0  0.35527136788E-14 -0.35527136788E-14  0.26800706957E+03  0.47496049093E+03  0.39212202004E+03 0.  0.
      99925    2    3    3    0    0 -0.17382423276E+02  0.18568256256E+02  0.17306098292E+03  0.31587184819E+03  0.26301709429E+03 0.  0.
         25    1    3    3    0    0  0.17382423276E+02 -0.18568256256E+02  0.94946086647E+02  0.15908864274E+03  0.12509000000E+03 0.  0.
         25    1    4    4    0    0 -0.37006214056E+02 -0.15698344497E+02  0.68824500355E+02  0.14832470410E+03  0.12509000000E+03 0.  0.
         25    1    4    4    0    0  0.19623790781E+02  0.34266600753E+02  0.10423648257E+03  0.16754714408E+03  0.12509000000E+03 0.  0.
<mgrwt>
<rscale>  2 0.39212202E+03</rscale>
<asrwt>0</asrwt>
<pdfrwt beam="1">  1       21 0.54629967E-01 0.39212202E+03</pdfrwt>
<pdfrwt beam="2">  1       21 0.15217163E-01 0.39212202E+03</pdfrwt>
<totfact> 0.11429117E+05</totfact>
</mgrwt>
</event>
<event>
 7    0  0.4691878E-002  0.4480469E+03  0.7546771E-02  0.1028306E+00
         21   -1    0    0  502  501  0.00000000000E+00  0.00000000000E+00  0.22987043355E+02  0.22987043355E+02  0.00000000000E+00 0. -1.
         21   -1    0    0  501  502 -0.00000000000E+00 -0.00000000000E+00 -0.21832517259E+04  0.21832517259E+04  0.00000000000E+00 0. -1.
      99926    2    1    2    0    0  0.00000000000E+00  0.00000000000E+00 -0.21602646825E+04  0.22062387692E+04  0.44804688182E+03 0.  0.
      99925    2    3    3    0    0 -0.42564589969E+02 -0.78354120622E+02 -0.16577281209E+04  0.16807469840E+04  0.26248197781E+03 0.  0.
         25    1    3    3    0    0  0.42564589969E+02  0.78354120622E+02 -0.50253656158E+03  0.52549178524E+03  0.12509000000E+03 0.  0.
         25    1    4    4    0    0 -0.44710522720E+02 -0.12701053755E+02 -0.91773799961E+03  0.92738928808E+03  0.12509000000E+03 0.  0.
         25    1    4    4    0    0  0.21459327504E+01 -0.65653066867E+02 -0.73999012131E+03  0.75335769589E+03  0.12509000000E+03 0.  0.
<mgrwt>
<rscale>  2 0.44804688E+03</rscale>
<asrwt>0</asrwt>
<pdfrwt beam="1">  1       21 0.33804481E-02 0.44804688E+03</pdfrwt>
<pdfrwt beam="2">  1       21 0.32106638E+00 0.44804688E+03</pdfrwt>
<totfact> 0.11219402E+04</totfact>
</mgrwt>
</event>
<event>
 7    0  0.4691878E-002  0.4848790E+03  0.7546771E-02  0.1017803E+00
         21   -1    0    0  502  501  0.00000000000E+00  0.00000000000E+00  0.59120851945E+02  0.59120851945E+02  0.00000000000E+00 0. -1.
         21   -1    0    0  501  502 -0.00000000000E+00 -0.00000000000E+00 -0.99418246369E+03  0.99418246369E+03  0.00000000000E+00 0. -1.
      99926    2    1    2    0    0  0.14210854715E-13  0.00000000000E+00 -0.93506161174E+03  0.10533033156E+04  0.48487901271E+03 0.  0.
      99925    2    3    3    0    0  0.12196483239E+03  0.43996988596E+02 -0.68518771966E+03  0.74525198000E+03  0.26288238276E+03 0.  0.
         25    1    3    3    0    0 -0.12196483239E+03 -0.43996988596E+02 -0.24987389208E+03  0.30805133564E+03  0.12509000000E+03 0.  0.
         25    1    4    4    0    0  0.55188829669E+02 -0.36880960810E+01 -0.24854938465E+03  0.28369651687E+03  0.12509000000E+03 0.  0.
         25    1    4    4    0    0  0.66776002717E+02  0.47685084677E+02 -0.43663833502E+03  0.46155546313E+03  0.12509000000E+03 0.  0.
<mgrwt>
<rscale>  2 0.48487901E+03</rscale>
<asrwt>0</asrwt>
<pdfrwt beam="1">  1       21 0.86942430E-02 0.48487901E+03</pdfrwt>
<pdfrwt beam="2">  1       21 0.14620330E+00 0.48487901E+03</pdfrwt>
<totfact> 0.29621202E+04</totfact>
</mgrwt>
</event>
<event>
 7    0  0.4691878E-002  0.4497229E+03  0.7546771E-02  0.1027805E+00
         21   -1    0    0  502  501  0.00000000000E+00  0.00000000000E+00  0.30908988297E+03  0.30908988297E+03  0.00000000000E+00 0.  1.
         21   -1    0    0  501  502 -0.00000000000E+00 -0.00000000000E+00 -0.16358566662E+03  0.16358566662E+03  0.00000000000E+00 0.  1.
      99926    2    1    2    0    0  0.00000000000E+00  0.35527136788E-14  0.14550421634E+03  0.47267554959E+03  0.44972291270E+03 0.  0.
      99925    2    3    3    0    0  0.89634581391E+02  0.30606626890E+02  0.14682841461E+03  0.31576670538E+03  0.26301883031E+03 0.  0.
         25    1    4    4    0    0  0.35574424044E+02  0.30618327903E+01  0.28432949754E+02  0.13315725740E+03  0.12509000000E+03 0.  0.
         25    1    4    4    0    0  0.54060157347E+02  0.27544794100E+02  0.11839546485E+03  0.18260944798E+03  0.12509000000E+03 0.  0.
         25    1    3    3    0    0 -0.89634581391E+02 -0.30606626890E+02 -0.13241982645E+01  0.15690884421E+03  0.12509000000E+03 0.  0.
<mgrwt>
<rscale>  2 0.44972291E+03</rscale>
<asrwt>0</asrwt>
<pdfrwt beam="1">  1       21 0.45454394E-01 0.44972291E+03</pdfrwt>
<pdfrwt beam="2">  1       21 0.24056716E-01 0.44972291E+03</pdfrwt>
<totfact> 0.70128507E+04</totfact>
</mgrwt>
</event>
<event>
 7    0  0.4691878E-002  0.4488063E+03  0.7546771E-02  0.1028079E+00
         21   -1    0    0  502  501  0.00000000000E+00  0.00000000000E+00  0.42704030724E+03  0.42704030724E+03  0.00000000000E+00 0.  1.
         21   -1    0    0  501  502 -0.00000000000E+00 -0.00000000000E+00 -0.11792039884E+03  0.11792039884E+03  0.00000000000E+00 0.  1.
      99926    2    1    2    0    0  0.23314683517E-14 -0.71054273576E-14  0.30911990840E+03  0.54496070607E+03  0.44880625374E+03 0.  0.
      99925    2    3    3    0    0 -0.56528102054E+00  0.57428930246E+02  0.85623597422E+02  0.28247925779E+03  0.26299188024E+03 0.  0.
         25    1    4    4    0    0 -0.18162773152E+02  0.11106185211E+02  0.75270157460E+02  0.14753419394E+03  0.12509000000E+03 0.  0.
         25    1    3    3    0    0  0.56528102054E+00 -0.57428930246E+02  0.22349631098E+03  0.26248144828E+03  0.12509000000E+03 0.  0.
         25    1    4    4    0    0  0.17597492132E+02  0.46322745035E+02  0.10353439963E+02  0.13494506384E+03  0.12509000000E+03 0.  0.
<mgrwt>
<rscale>  2 0.44880625E+03</rscale>
<asrwt>0</asrwt>
<pdfrwt beam="1">  1       21 0.62800045E-01 0.44880625E+03</pdfrwt>
<pdfrwt beam="2">  1       21 0.17341235E-01 0.44880625E+03</pdfrwt>
<totfact> 0.65344901E+04</totfact>
</mgrwt>
</event>
<event>
 7    0  0.4691878E-002  0.4027254E+03  0.7546771E-02  0.1042840E+00
         21   -1    0    0  502  501  0.00000000000E+00  0.00000000000E+00  0.20622172337E+03  0.20622172337E+03  0.00000000000E+00 0.  1.
         21   -1    0    0  501  502 -0.00000000000E+00 -0.00000000000E+00 -0.19661813959E+03  0.19661813959E+03  0.00000000000E+00 0.  1.
      99926    2    1    2    0    0  0.17763568394E-14  0.00000000000E+00  0.96035837824E+01  0.40283986296E+03  0.40272537338E+03 0.  0.
      99925    2    3    3    0    0 -0.72385926656E+01 -0.42592196489E+02  0.32715964436E+02  0.26849633812E+03  0.26297044859E+03 0.  0.
         25    1    4    4    0    0  0.95697546549E+01  0.10139938709E+02 -0.70030547426E+01  0.12605930920E+03  0.12509000000E+03 0.  0.
         25    1    3    3    0    0  0.72385926656E+01  0.42592196489E+02 -0.23112380653E+02  0.13434352483E+03  0.12509000000E+03 0.  0.
         25    1    4    4    0    0 -0.16808347321E+02 -0.52732135198E+02  0.39719019178E+02  0.14243702892E+03  0.12509000000E+03 0.  0.
<mgrwt>
<rscale>  2 0.40272537E+03</rscale>
<asrwt>0</asrwt>
<pdfrwt beam="1">  1       21 0.30326724E-01 0.40272537E+03</pdfrwt>
<pdfrwt beam="2">  1       21 0.28914432E-01 0.40272537E+03</pdfrwt>
<totfact> 0.11272778E+05</totfact>
</mgrwt>
</event>
<event>
 7    0  0.4691878E-002  0.4535838E+03  0.7546771E-02  0.1026659E+00
         21   -1    0    0  502  501  0.00000000000E+00  0.00000000000E+00  0.17780998419E+03  0.17780998419E+03  0.00000000000E+00 0.  1.
         21   -1    0    0  501  502 -0.00000000000E+00 -0.00000000000E+00 -0.28926699432E+03  0.28926699432E+03  0.00000000000E+00 0.  1.
      99926    2    1    2    0    0  0.00000000000E+00 -0.71054273576E-14 -0.11145701013E+03  0.46707697851E+03  0.45358377258E+03 0.  0.
      99925    2    3    3    0    0 -0.10464340107E+03 -0.39323261689E+02 -0.73267307652E+02  0.29502314457E+03  0.26300950014E+03 0.  0.
         25    1    4    4    0    0 -0.53297455281E+02  0.17156565098E+02 -0.53650468609E+02  0.14717624587E+03  0.12509000000E+03 0.  0.
         25    1    3    3    0    0  0.10464340107E+03  0.39323261689E+02 -0.38189702474E+02  0.17205383394E+03  0.12509000000E+03 0.  0.
         25    1    4    4    0    0 -0.51345945793E+02 -0.56479826787E+02 -0.19616839043E+02  0.14784689871E+03  0.12509000000E+03 0.  0.
<mgrwt>
<rscale>  2 0.45358377E+03</rscale>
<asrwt>0</asrwt>
<pdfrwt beam="1">  1       21 0.26148527E-01 0.45358377E+03</pdfrwt>
<pdfrwt beam="2">  1       21 0.42539263E-01 0.45358377E+03</pdfrwt>
<totfact> 0.68419236E+04</totfact>
</mgrwt>
</event>
<event>
 7    0  0.4691878E-002  0.4409775E+03  0.7546771E-02  0.1030447E+00
         21   -1    0    0  502  501  0.00000000000E+00  0.00000000000E+00  0.82679649038E+02  0.82679649038E+02  0.00000000000E+00 0. -1.
         21   -1    0    0  501  502 -0.00000000000E+00 -0.00000000000E+00 -0.58799591241E+03  0.58799591241E+03  0.00000000000E+00 0. -1.
      99926    2    1    2    0    0  0.00000000000E+00  0.71054273576E-14 -0.50531626337E+03  0.67067556144E+03  0.44097753083E+03 0.  0.
      99925    2    3    3    0    0 -0.12048398922E+02 -0.51720433592E+02 -0.45007763951E+03  0.52398206863E+03  0.26299650092E+03 0.  0.
         25    1    3    3    0    0  0.12048398922E+02  0.51720433592E+02 -0.55238623858E+02  0.14669349281E+03  0.12509000000E+03 0.  0.
         25    1    4    4    0    0  0.10306352345E+02  0.77035836746E+01 -0.24694731221E+03  0.27712100102E+03  0.12509000000E+03 0.  0.
         25    1    4    4    0    0 -0.22354751267E+02 -0.59424017266E+02 -0.20313032730E+03  0.24686106761E+03  0.12509000000E+03 0.  0.
<mgrwt>
<rscale>  2 0.44097753E+03</rscale>
<asrwt>0</asrwt>
<pdfrwt beam="1">  1       21 0.12158771E-01 0.44097753E+03</pdfrwt>
<pdfrwt beam="2">  1       21 0.86469990E-01 0.44097753E+03</pdfrwt>
<totfact> 0.60986592E+04</totfact>
</mgrwt>
</event>
<event>
 7    0  0.4691878E-002  0.4563961E+03  0.7546771E-02  0.1025832E+00
         21   -1    0    0  502  501  0.00000000000E+00  0.00000000000E+00  0.16758002673E+03  0.16758002673E+03  0.00000000000E+00 0.  1.
         21   -1    0    0  501  502 -0.00000000000E+00 -0.00000000000E+00 -0.31074316939E+03  0.31074316939E+03  0.00000000000E+00 0.  1.
      99926    2    1    2    0    0  0.00000000000E+00  0.00000000000E+00 -0.14316314266E+03  0.47832319612E+03  0.45639609390E+03 0.  0.
      99925    2    3    3    0    0  0.70557857903E+02  0.14747232608E+02 -0.18316886174E+03  0.32851045353E+03  0.26300645237E+03 0.  0.
         25    1    4    4    0    0  0.21218093840E+02 -0.18452164086E+02 -0.12240807871E+03  0.17726233582E+03  0.12509000000E+03 0.  0.
         25    1    4    4    0    0  0.49339764063E+02  0.33199396694E+02 -0.60760783031E+02  0.15124811772E+03  0.12509000000E+03 0.  0.
         25    1    3    3    0    0 -0.70557857903E+02 -0.14747232608E+02  0.40005719085E+02  0.14981274259E+03  0.12509000000E+03 0.  0.
<mgrwt>
<rscale>  2 0.45639609E+03</rscale>
<asrwt>0</asrwt>
<pdfrwt beam="1">  1       21 0.24644122E-01 0.45639609E+03</pdfrwt>
<pdfrwt beam="2">  1       21 0.45697524E-01 0.45639609E+03</pdfrwt>
<totfact> 0.66087044E+04</totfact>
</mgrwt>
</event>
<event>
 6    0  0.4691878E-002  0.4449344E+03  0.7546771E-02  0.1029244E+00
         21   -1    0    0  502  501  0.00000000000E+00  0.00000000000E+00  0.16036168503E+03  0.16036168503E+03  0.00000000000E+00 0. -1.
         21   -1    0    0  501  502 -0.00000000000E+00 -0.00000000000E+00 -0.30862514897E+03  0.30862514897E+03  0.00000000000E+00 0. -1.
      99926    2    1    2    0    0  0.00000000000E+00  0.00000000000E+00 -0.14826346394E+03  0.46898683400E+03  0.44493437239E+03 0.  0.
         25    1    3    3    0    0  0.11788262559E+02 -0.38969378344E+02 -0.28334596536E+02  0.13456572016E+03  0.12509000000E+03 0.  0.
         25    1    3    3    0    0 -0.20177595544E+02  0.43198106655E+02 -0.15437637371E+03  0.20433498144E+03  0.12509000000E+03 0.  0.
         25    1    3    3    0    0  0.83893329857E+01 -0.42287283110E+01  0.34447506311E+02  0.13008613240E+03  0.12509000000E+03 0.  0.
<mgrwt>
<rscale>  2 0.44493437E+03</rscale>
<asrwt>0</asrwt>
<pdfrwt beam="1">  1       21 0.23582601E-01 0.44493437E+03</pdfrwt>
<pdfrwt beam="2">  1       21 0.45386051E-01 0.44493437E+03</pdfrwt>
<totfact> 0.73184386E+04</totfact>
</mgrwt>
</event>
<event>
 7    0  0.4691878E-002  0.4549500E+03  0.7546771E-02  0.1026256E+00
         21   -1    0    0  502  501  0.00000000000E+00  0.00000000000E+00  0.33362869248E+02  0.33362869248E+02  0.00000000000E+00 0. -1.
         21   -1    0    0  501  502 -0.00000000000E+00 -0.00000000000E+00 -0.15509720692E+04  0.15509720692E+04  0.00000000000E+00 0. -1.
      99926    2    1    2    0    0  0.00000000000E+00 -0.35527136788E-14 -0.15176092000E+04  0.15843349385E+04  0.45495001200E+03 0.  0.
      99925    2    3    3    0    0 -0.10893532150E+03  0.28616128752E+02 -0.91792334945E+03  0.96147346550E+03  0.26298700025E+03 0.  0.
         25    1    3    3    0    0  0.10893532150E+03 -0.28616128752E+02 -0.59968585055E+03  0.62286147300E+03  0.12509000000E+03 0.  0.
         25    1    4    4    0    0 -0.77181144219E+02  0.45308243951E+02 -0.43804726809E+03  0.46426574628E+03  0.12509000000E+03 0.  0.
         25    1    4    4    0    0 -0.31754177277E+02 -0.16692115199E+02 -0.47987608136E+03  0.49720771921E+03  0.12509000000E+03 0.  0.
<mgrwt>
<rscale>  2 0.45495001E+03</rscale>
<asrwt>0</asrwt>
<pdfrwt beam="1">  1       21 0.49063042E-02 0.45495001E+03</pdfrwt>
<pdfrwt beam="2">  1       21 0.22808413E+00 0.45495001E+03</pdfrwt>
<totfact> 0.21794214E+04</totfact>
</mgrwt>
</event>
<event>
 7    0  0.4691878E-002  0.4510006E+03  0.7546771E-02  0.1027424E+00
         21   -1    0    0  502  501  0.00000000000E+00  0.00000000000E+00  0.85360163757E+02  0.85360163757E+02  0.00000000000E+00 0. -1.
         21   -1    0    0  501  502 -0.00000000000E+00 -0.00000000000E+00 -0.59571575613E+03  0.59571575613E+03  0.00000000000E+00 0. -1.
      99926    2    1    2    0    0  0.00000000000E+00  0.00000000000E+00 -0.51035559237E+03  0.68107591989E+03  0.45100064078E+03 0.  0.
      99925    2    3    3    0    0 -0.79651918233E+02  0.34142797212E+02 -0.42290956105E+03  0.50556388277E+03  0.26312009435E+03 0.  0.
         25    1    4    4    0    0  0.14810130601E+01  0.94412697412E+01 -0.17771199075E+03  0.21753250500E+03  0.12509000000E+03 0.  0.
         25    1    3    3    0    0  0.79651918233E+02 -0.34142797212E+02 -0.87446031323E+02  0.17551203712E+03  0.12509000000E+03 0.  0.
         25    1    4    4    0    0 -0.81132931293E+02  0.24701527471E+02 -0.24519757030E+03  0.28803137777E+03  0.12509000000E+03 0.  0.
<mgrwt>
<rscale>  2 0.45100064E+03</rscale>
<asrwt>0</asrwt>
<pdfrwt beam="1">  1       21 0.12552965E-01 0.45100064E+03</pdfrwt>
<pdfrwt beam="2">  1       21 0.87605261E-01 0.45100064E+03</pdfrwt>
<totfact> 0.55675511E+04</totfact>
</mgrwt>
</event>
<event>
 7    0  0.4691878E-002  0.4512292E+03  0.7546771E-02  0.1027356E+00
         21   -1    0    0  502  501  0.00000000000E+00  0.00000000000E+00  0.94218771073E+02  0.94218771073E+02  0.00000000000E+00 0. -1.
         21   -1    0    0  501  502 -0.00000000000E+00 -0.00000000000E+00 -0.54025271504E+03  0.54025271504E+03  0.00000000000E+00 0. -1.
      99926    2    1    2    0    0  0.00000000000E+00  0.00000000000E+00 -0.44603394397E+03  0.63447148611E+03  0.45122919622E+03 0.  0.
      99925    2    3    3    0    0 -0.23477132385E+02 -0.86442872650E+02 -0.19292599316E+03  0.33827106606E+03  0.26302724064E+03 0.  0.
         25    1    4    4    0    0  0.27797329386E+02 -0.41411347724E+02 -0.10575501247E+03  0.17122856655E+03  0.12509000000E+03 0.  0.
         25    1    3    3    0    0  0.23477132385E+02  0.86442872650E+02 -0.25310795081E+03  0.29620042006E+03  0.12509000000E+03 0.  0.
         25    1    4    4    0    0 -0.51274461771E+02 -0.45031524926E+02 -0.87170980685E+02  0.16704249950E+03  0.12509000000E+03 0.  0.
<mgrwt>
<rscale>  2 0.45122920E+03</rscale>
<asrwt>0</asrwt>
<pdfrwt beam="1">  1       21 0.13855702E-01 0.45122920E+03</pdfrwt>
<pdfrwt beam="2">  1       21 0.79448929E-01 0.45122920E+03</pdfrwt>
<totfact> 0.58321547E+04</totfact>
</mgrwt>
</event>
<event>
 7    0  0.4691878E-002  0.4608647E+03  0.7546771E-02  0.1024531E+00
         21   -1    0    0  502  501  0.00000000000E+00  0.00000000000E+00  0.19651982197E+04  0.19651982197E+04  0.00000000000E+00 0. -1.
         21   -1    0    0  501  502 -0.00000000000E+00 -0.00000000000E+00 -0.27019700828E+02  0.27019700828E+02  0.00000000000E+00 0. -1.
      99926    2    1    2    0    0  0.00000000000E+00  0.00000000000E+00  0.19381785189E+04  0.19922179206E+04  0.46086470017E+03 0.  0.
      99925    2    3    3    0    0  0.26315472026E+02  0.75702663853E+02  0.15912240656E+04  0.16147946858E+04  0.26295332839E+03 0.  0.
         25    1    4    4    0    0  0.37317189316E+02  0.26555618542E+02  0.96993661853E+03  0.97904153413E+03  0.12509000000E+03 0.  0.
         25    1    4    4    0    0 -0.11001717290E+02  0.49147045310E+02  0.62128744706E+03  0.63575315164E+03  0.12509000000E+03 0.  0.
         25    1    3    3    0    0 -0.26315472026E+02 -0.75702663853E+02  0.34695445332E+03  0.37742323479E+03  0.12509000000E+03 0.  0.
<mgrwt>
<rscale>  2 0.46086470E+03</rscale>
<asrwt>0</asrwt>
<pdfrwt beam="1">  1       21 0.28899964E+00 0.46086470E+03</pdfrwt>
<pdfrwt beam="2">  1       21 0.39734867E-02 0.46086470E+03</pdfrwt>
<totfact> 0.13224864E+04</totfact>
</mgrwt>
</event>
<event>
 7    0  0.4691878E-002  0.4585931E+03  0.7546771E-02  0.1025190E+00
         21   -1    0    0  502  501  0.00000000000E+00  0.00000000000E+00  0.10401639870E+03  0.10401639870E+03  0.00000000000E+00 0.  1.
         21   -1    0    0  501  502 -0.00000000000E+00 -0.00000000000E+00 -0.50546756819E+03  0.50546756819E+03  0.00000000000E+00 0.  1.
      99926    2    1    2    0    0  0.00000000000E+00  0.00000000000E+00 -0.40145116949E+03  0.60948396690E+03  0.45859313603E+03 0.  0.
      99925    2    3    3    0    0  0.97872522326E+01  0.97093757465E+02 -0.16715550619E+03  0.32652645421E+03  0.26297447405E+03 0.  0.
         25    1    4    4    0    0  0.29310008226E+02  0.18518766814E+02 -0.60061434707E+02  0.14302763840E+03  0.12509000000E+03 0.  0.
         25    1    4    4    0    0 -0.19522755993E+02  0.78574990652E+02 -0.10709407149E+03  0.18349881581E+03  0.12509000000E+03 0.  0.
         25    1    3    3    0    0 -0.97872522326E+01 -0.97093757465E+02 -0.23429566330E+03  0.28295751268E+03  0.12509000000E+03 0.  0.
<mgrwt>
<rscale>  2 0.45859314E+03</rscale>
<asrwt>0</asrwt>
<pdfrwt beam="1">  1       21 0.15296529E-01 0.45859314E+03</pdfrwt>
<pdfrwt beam="2">  1       21 0.74333467E-01 0.45859314E+03</pdfrwt>
<totfact> 0.56478106E+04</totfact>
</mgrwt>
</event>
<event>
 7    0  0.4691878E-002  0.4576086E+03  0.7546771E-02  0.1025477E+00
         21   -1    0    0  502  501  0.00000000000E+00  0.00000000000E+00  0.41634841610E+03  0.41634841610E+03  0.00000000000E+00 0. -1.
         21   -1    0    0  501  502 -0.00000000000E+00 -0.00000000000E+00 -0.12573942432E+03  0.12573942432E+03  0.00000000000E+00 0. -1.
      99926    2    1    2    0    0  0.00000000000E+00  0.00000000000E+00  0.29060899177E+03  0.54208784042E+03  0.45760861075E+03 0.  0.
      99925    2    3    3    0    0 -0.45382373674E+02  0.37602111666E+02  0.30024369216E+03  0.40347393710E+03  0.26300468551E+03 0.  0.
         25    1    3    3    0    0  0.45382373674E+02 -0.37602111666E+02 -0.96347003820E+01  0.13861390332E+03  0.12509000000E+03 0.  0.
         25    1    4    4    0    0 -0.12931645498E+02  0.46238784858E+02  0.19495036136E+03  0.23655528777E+03  0.12509000000E+03 0.  0.
         25    1    4    4    0    0 -0.32450728176E+02 -0.86366731921E+01  0.10529333080E+03  0.16691864933E+03  0.12509000000E+03 0.  0.
<mgrwt>
<rscale>  2 0.45760861E+03</rscale>
<asrwt>0</asrwt>
<pdfrwt beam="1">  1       21 0.61227708E-01 0.45760861E+03</pdfrwt>
<pdfrwt beam="2">  1       21 0.18491092E-01 0.45760861E+03</pdfrwt>
<totfact> 0.61120855E+04</totfact>
</mgrwt>
</event>
<event>
 7    0  0.4691878E-002  0.4504583E+03  0.7546771E-02  0.1027585E+00
         21   -1    0    0  502  501  0.00000000000E+00  0.00000000000E+00  0.76597765133E+02  0.76597765133E+02  0.00000000000E+00 0.  1.
         21   -1    0    0  501  502 -0.00000000000E+00 -0.00000000000E+00 -0.66226686653E+03  0.66226686653E+03  0.00000000000E+00 0.  1.
      99926    2    1    2    0    0  0.00000000000E+00  0.00000000000E+00 -0.58566910139E+03  0.73886463166E+03  0.45045826398E+03 0.  0.
      99925    2    3    3    0    0  0.51533808050E+02  0.23500431457E+02 -0.52258049207E+03  0.58774982637E+03  0.26296669762E+03 0.  0.
         25    1    3    3    0    0 -0.51533808050E+02 -0.23500431457E+02 -0.63088609323E+02  0.15111480529E+03  0.12509000000E+03 0.  0.
         25    1    4    4    0    0  0.12234858315E+02  0.25652691222E+02 -0.33635241079E+03  0.35998361723E+03  0.12509000000E+03 0.  0.
         25    1    4    4    0    0  0.39298949735E+02 -0.21522597654E+01 -0.18622808128E+03  0.22776620914E+03  0.12509000000E+03 0.  0.
<mgrwt>
<rscale>  2 0.45045826E+03</rscale>
<asrwt>0</asrwt>
<pdfrwt beam="1">  1       21 0.11264378E-01 0.45045826E+03</pdfrwt>
<pdfrwt beam="2">  1       21 0.97392179E-01 0.45045826E+03</pdfrwt>
<totfact> 0.52699765E+04</totfact>
</mgrwt>
</event>
<event>
 7    0  0.4691878E-002  0.4526952E+03  0.7546771E-02  0.1026921E+00
         21   -1    0    0  502  501  0.00000000000E+00  0.00000000000E+00  0.13592217206E+04  0.13592217206E+04  0.00000000000E+00 0.  1.
         21   -1    0    0  501  502 -0.00000000000E+00 -0.00000000000E+00 -0.37693068074E+02  0.37693068074E+02  0.00000000000E+00 0.  1.
      99926    2    1    2    0    0  0.00000000000E+00  0.00000000000E+00  0.13215286525E+04  0.13969147887E+04  0.45269520361E+03 0.  0.
      99925    2    3    3    0    0  0.42552536385E+02 -0.17538149362E+02  0.52093162474E+03  0.58529824496E+03  0.26284210633E+03 0.  0.
         25    1    4    4    0    0  0.25432137625E+02  0.29627456560E+02  0.23126435994E+03  0.26581063200E+03  0.12509000000E+03 0.  0.
         25    1    3    3    0    0 -0.42552536385E+02  0.17538149362E+02  0.80059702777E+03  0.81161654370E+03  0.12509000000E+03 0.  0.
         25    1    4    4    0    0  0.17120398760E+02 -0.47165605922E+02  0.28966726480E+03  0.31948761295E+03  0.12509000000E+03 0.  0.
<mgrwt>
<rscale>  2 0.45269520E+03</rscale>
<asrwt>0</asrwt>
<pdfrwt beam="1">  1       21 0.19988551E+00 0.45269520E+03</pdfrwt>
<pdfrwt beam="2">  1       21 0.55430991E-02 0.45269520E+03</pdfrwt>
<totfact> 0.26892805E+04</totfact>
</mgrwt>
</event>
<event>
 7    0  0.4691878E-002  0.4619313E+03  0.7546771E-02  0.1024223E+00
         21   -1    0    0  502  501  0.00000000000E+00  0.00000000000E+00  0.10793000115E+04  0.10793000115E+04  0.00000000000E+00 0.  1.
         21   -1    0    0  501  502 -0.00000000000E+00 -0.00000000000E+00 -0.49425664895E+02  0.49425664895E+02  0.00000000000E+00 0.  1.
      99926    2    1    2    0    0  0.00000000000E+00  0.00000000000E+00  0.10298743466E+04  0.11287256764E+04  0.46193125329E+03 0.  0.
      99925    2    3    3    0    0  0.10169293062E+03  0.40816453813E+02  0.76137023175E+03  0.81289438784E+03  0.26287871908E+03 0.  0.
         25    1    4    4    0    0  0.23672998989E+02  0.25041502400E+02  0.44452446677E+03  0.46307342548E+03  0.12509000000E+03 0.  0.
         25    1    4    4    0    0  0.78019931631E+02  0.15774951414E+02  0.31684576497E+03  0.34982096236E+03  0.12509000000E+03 0.  0.
         25    1    3    3    0    0 -0.10169293062E+03 -0.40816453813E+02  0.26850411489E+03  0.31583128859E+03  0.12509000000E+03 0.  0.
<mgrwt>
<rscale>  2 0.46193125E+03</rscale>
<asrwt>0</asrwt>
<pdfrwt beam="1">  1       21 0.15872057E+00 0.46193125E+03</pdfrwt>
<pdfrwt beam="2">  1       21 0.72684808E-02 0.46193125E+03</pdfrwt>
<totfact> 0.32697879E+04</totfact>
</mgrwt>
</event>
<event>
 7    0  0.5538461E-002  0.4222801E+03  0.7546771E-02  0.1036327E+00
         21   -1    0    0  502  501  0.00000000000E+00  0.00000000000E+00  0.55304078744E+02  0.55304078744E+02  0.00000000000E+00 0.  1.
         21   -1    0    0  501  502 -0.00000000000E+00 -0.00000000000E+00 -0.80609103583E+03  0.80609103583E+03  0.00000000000E+00 0.  1.
      99926    2    1    2    0    0  0.00000000000E+00  0.33306690739E-15 -0.75078695709E+03  0.86139511458E+03  0.42228010666E+03 0.  0.
      99925    2    3    3    0    0  0.78105727033E+02  0.94438384361E+00 -0.49307535744E+03  0.56447059025E+03  0.26344324376E+03 0.  0.
         25    1    3    3    0    0 -0.78105727033E+02 -0.94438384361E+00 -0.25771159964E+03  0.29692452433E+03  0.12509000000E+03 0.  0.
         25    1    4    4    0    0  0.75251141734E+02 -0.50730376043E+01 -0.22055061679E+03  0.26453459643E+03  0.12509000000E+03 0.  0.
         25    1    4    4    0    0  0.28545852990E+01  0.60174214479E+01 -0.27252474066E+03  0.29993599382E+03  0.12509000000E+03 0.  0.
<mgrwt>
<rscale>  2 0.42228011E+03</rscale>
<asrwt>0</asrwt>
<pdfrwt beam="1">  1       21 0.81329527E-02 0.42228011E+03</pdfrwt>
<pdfrwt beam="2">  1       21 0.11854280E+00 0.42228011E+03</pdfrwt>
<totfact> 0.58573554E+04</totfact>
</mgrwt>
</event>
<event>
 7    0  0.4691878E-002  0.4562404E+03  0.7546771E-02  0.1025877E+00
         21   -1    0    0  502  501  0.00000000000E+00  0.00000000000E+00  0.84573750529E+02  0.84573750529E+02  0.00000000000E+00 0.  1.
         21   -1    0    0  501  502 -0.00000000000E+00 -0.00000000000E+00 -0.61530698397E+03  0.61530698397E+03  0.00000000000E+00 0.  1.
      99926    2    1    2    0    0  0.00000000000E+00  0.00000000000E+00 -0.53073323345E+03  0.69988073450E+03  0.45624037244E+03 0.  0.
      99925    2    3    3    0    0  0.36090601880E+02  0.52859540696E+02 -0.18953390412E+03  0.33088052716E+03  0.26355674883E+03 0.  0.
         25    1    4    4    0    0  0.53482940719E+02  0.49768978191E+02 -0.10346275068E+03  0.17801523816E+03  0.12509000000E+03 0.  0.
         25    1    3    3    0    0 -0.36090601880E+02 -0.52859540696E+02 -0.34119932933E+03  0.36900020735E+03  0.12509000000E+03 0.  0.
         25    1    4    4    0    0 -0.17392338839E+02  0.30905625058E+01 -0.86071153436E+02  0.15286528900E+03  0.12509000000E+03 0.  0.
<mgrwt>
<rscale>  2 0.45624037E+03</rscale>
<asrwt>0</asrwt>
<pdfrwt beam="1">  1       21 0.12437317E-01 0.45624037E+03</pdfrwt>
<pdfrwt beam="2">  1       21 0.90486319E-01 0.45624037E+03</pdfrwt>
<totfact> 0.52396090E+04</totfact>
</mgrwt>
</event>
<event>
 7    0  0.4691878E-002  0.4523592E+03  0.7546771E-02  0.1027021E+00
         21   -1    0    0  502  501  0.00000000000E+00  0.00000000000E+00  0.12195217874E+03  0.12195217874E+03  0.00000000000E+00 0.  1.
         21   -1    0    0  501  502 -0.00000000000E+00 -0.00000000000E+00 -0.41948591461E+03  0.41948591461E+03  0.00000000000E+00 0.  1.
      99926    2    1    2    0    0  0.00000000000E+00 -0.17763568394E-14 -0.29753373586E+03  0.54143809335E+03  0.45235924325E+03 0.  0.
      99925    2    3    3    0    0 -0.49215092853E+02  0.93217885263E+01 -0.70157440460E+02  0.27713427401E+03  0.26338625301E+03 0.  0.
         25    1    4    4    0    0 -0.13327237745E+02  0.42434956973E+02 -0.47199015713E+02  0.14090278927E+03  0.12509000000E+03 0.  0.
         25    1    3    3    0    0  0.49215092853E+02 -0.93217885263E+01 -0.22737629540E+03  0.26430381934E+03  0.12509000000E+03 0.  0.
         25    1    4    4    0    0 -0.35887855108E+02 -0.33113168447E+02 -0.22958424747E+02  0.13623148474E+03  0.12509000000E+03 0.  0.
<mgrwt>
<rscale>  2 0.45235924E+03</rscale>
<asrwt>0</asrwt>
<pdfrwt beam="1">  1       21 0.17934144E-01 0.45235924E+03</pdfrwt>
<pdfrwt beam="2">  1       21 0.61689105E-01 0.45235924E+03</pdfrwt>
<totfact> 0.63757853E+04</totfact>
</mgrwt>
</event>
<event>
 7    0  0.4691878E-002  0.4384934E+03  0.7546771E-02  0.1031210E+00
         21   -1    0    0  502  501  0.00000000000E+00  0.00000000000E+00  0.27477699404E+02  0.27477699404E+02  0.00000000000E+00 0.  1.
         21   -1    0    0  501  502 -0.00000000000E+00 -0.00000000000E+00 -0.17493866353E+04  0.17493866353E+04  0.00000000000E+00 0.  1.
      99926    2    1    2    0    0  0.00000000000E+00  0.00000000000E+00 -0.17219089359E+04  0.17768643347E+04  0.43849342118E+03 0.  0.
      99925    2    3    3    0    0 -0.12531997505E+02 -0.85177769194E+02 -0.12805285147E+04  0.13100919195E+04  0.26301189539E+03 0.  0.
         25    1    4    4    0    0  0.25806717025E+02 -0.36314986324E+02 -0.73956988875E+03  0.75139596308E+03  0.12509000000E+03 0.  0.
         25    1    4    4    0    0 -0.38338714530E+02 -0.48862782871E+02 -0.54095862598E+03  0.55869595641E+03  0.12509000000E+03 0.  0.
         25    1    3    3    0    0  0.12531997505E+02  0.85177769194E+02 -0.44138042115E+03  0.46677241521E+03  0.12509000000E+03 0.  0.
<mgrwt>
<rscale>  2 0.43849342E+03</rscale>
<asrwt>0</asrwt>
<pdfrwt beam="1">  1       21 0.40408378E-02 0.43849342E+03</pdfrwt>
<pdfrwt beam="2">  1       21 0.25726276E+00 0.43849342E+03</pdfrwt>
<totfact> 0.20171449E+04</totfact>
</mgrwt>
</event>
<event>
 7    0  0.4691878E-002  0.4487963E+03  0.7546771E-02  0.1028082E+00
         21   -1    0    0  502  501  0.00000000000E+00  0.00000000000E+00  0.15315406519E+04  0.15315406519E+04  0.00000000000E+00 0.  1.
         21   -1    0    0  501  502 -0.00000000000E+00 -0.00000000000E+00 -0.32878345000E+02  0.32878345000E+02  0.00000000000E+00 0.  1.
      99926    2    1    2    0    0  0.00000000000E+00 -0.14210854715E-13  0.14986623069E+04  0.15644189969E+04  0.44879626529E+03 0.  0.
      99925    2    3    3    0    0 -0.75184900551E+02  0.75261245835E+02  0.90221676741E+03  0.94578193523E+03  0.26304248557E+03 0.  0.
         25    1    4    4    0    0 -0.69993416240E+01  0.51013001384E+02  0.35801662777E+03  0.38272017317E+03  0.12509000000E+03 0.  0.
         25    1    4    4    0    0 -0.68185558927E+02  0.24248244452E+02  0.54420013964E+03  0.56306176206E+03  0.12509000000E+03 0.  0.
         25    1    3    3    0    0  0.75184900551E+02 -0.75261245835E+02  0.59644553945E+03  0.61863706163E+03  0.12509000000E+03 0.  0.
<mgrwt>
<rscale>  2 0.44879627E+03</rscale>
<asrwt>0</asrwt>
<pdfrwt beam="1">  1       21 0.22522652E+00 0.44879627E+03</pdfrwt>
<pdfrwt beam="2">  1       21 0.48350518E-02 0.44879627E+03</pdfrwt>
<totfact> 0.23348409E+04</totfact>
</mgrwt>
</event>
<event>
 7    0  0.4691878E-002  0.4541939E+03  0.7546771E-02  0.1026479E+00
         21   -1    0    0  502  501  0.00000000000E+00  0.00000000000E+00  0.32139928407E+03  0.32139928407E+03  0.00000000000E+00 0. -1.
         21   -1    0    0  501  502 -0.00000000000E+00 -0.00000000000E+00 -0.16046404012E+03  0.16046404012E+03  0.00000000000E+00 0. -1.
      99926    2    1    2    0    0  0.88817841970E-15  0.00000000000E+00  0.16093524395E+03  0.48186332419E+03  0.45419391283E+03 0.  0.
      99925    2    3    3    0    0 -0.13291157936E+01 -0.84170947464E+02  0.22459553891E+02  0.27714512817E+03  0.26309404319E+03 0.  0.
         25    1    4    4    0    0  0.36576761922E+02 -0.26671138958E+02  0.33005934673E+01  0.13306994846E+03  0.12509000000E+03 0.  0.
         25    1    4    4    0    0 -0.37905877715E+02 -0.57499808506E+02  0.19158960424E+02  0.14407517971E+03  0.12509000000E+03 0.  0.
         25    1    3    3    0    0  0.13291157936E+01  0.84170947464E+02  0.13847569006E+03  0.20471819602E+03  0.12509000000E+03 0.  0.
<mgrwt>
<rscale>  2 0.45419391E+03</rscale>
<asrwt>0</asrwt>
<pdfrwt beam="1">  1       21 0.47264601E-01 0.45419391E+03</pdfrwt>
<pdfrwt beam="2">  1       21 0.23597653E-01 0.45419391E+03</pdfrwt>
<totfact> 0.66992351E+04</totfact>
</mgrwt>
</event>
<event>
 7    0  0.4691878E-002  0.4520423E+03  0.7546771E-02  0.1027115E+00
         21   -1    0    0  502  501  0.00000000000E+00  0.00000000000E+00  0.15459670667E+03  0.15459670667E+03  0.00000000000E+00 0.  1.
         21   -1    0    0  501  502 -0.00000000000E+00 -0.00000000000E+00 -0.33044407194E+03  0.33044407194E+03  0.00000000000E+00 0.  1.
      99926    2    1    2    0    0  0.00000000000E+00  0.00000000000E+00 -0.17584736527E+03  0.48504077861E+03  0.45204232218E+03 0.  0.
      99925    2    3    3    0    0  0.12572889092E+02  0.10921630066E+03 -0.12008676358E+03  0.30941893865E+03  0.26312158965E+03 0.  0.
         25    1    4    4    0    0 -0.11330041281E+02  0.44394236455E+02 -0.19430591532E+02  0.13462642405E+03  0.12509000000E+03 0.  0.
         25    1    3    3    0    0 -0.12572889092E+02 -0.10921630066E+03 -0.55760601688E+02  0.17562183996E+03  0.12509000000E+03 0.  0.
         25    1    4    4    0    0  0.23902930373E+02  0.64822064203E+02 -0.10065617205E+03  0.17479251460E+03  0.12509000000E+03 0.  0.
<mgrwt>
<rscale>  2 0.45204232E+03</rscale>
<asrwt>0</asrwt>
<pdfrwt beam="1">  1       21 0.22734810E-01 0.45204232E+03</pdfrwt>
<pdfrwt beam="2">  1       21 0.48594716E-01 0.45204232E+03</pdfrwt>
<totfact> 0.67915642E+04</totfact>
</mgrwt>
</event>
<event>
 7    0  0.4691878E-002  0.4692996E+03  0.7546771E-02  0.1022118E+00
         21   -1    0    0  502  501  0.00000000000E+00  0.00000000000E+00  0.36266973860E+03  0.36266973860E+03  0.00000000000E+00 0. -1.
         21   -1    0    0  501  502 -0.00000000000E+00 -0.00000000000E+00 -0.15182004412E+03  0.15182004412E+03  0.00000000000E+00 0. -1.
      99926    2    1    2    0    0 -0.17763568394E-14 -0.14210854715E-13  0.21084969448E+03  0.51448978272E+03  0.46929963016E+03 0.  0.
      99925    2    3    3    0    0  0.15825581122E+02  0.12027916855E+03  0.16670876139E+03  0.33473033936E+03  0.26369501618E+03 0.  0.
         25    1    4    4    0    0  0.20721456368E+02  0.52505177810E+02  0.12689824563E+03  0.18691400508E+03  0.12509000000E+03 0.  0.
         25    1    4    4    0    0 -0.48958752466E+01  0.67773990740E+02  0.39810515762E+02  0.14781633428E+03  0.12509000000E+03 0.  0.
         25    1    3    3    0    0 -0.15825581122E+02 -0.12027916855E+03  0.44140933082E+02  0.17975944336E+03  0.12509000000E+03 0.  0.
<mgrwt>
<rscale>  2 0.46929963E+03</rscale>
<asrwt>0</asrwt>
<pdfrwt beam="1">  1       21 0.53333785E-01 0.46929963E+03</pdfrwt>
<pdfrwt beam="2">  1       21 0.22326477E-01 0.46929963E+03</pdfrwt>
<totfact> 0.57460496E+04</totfact>
</mgrwt>
</event>
<event>
 7    0  0.4691878E-002  0.4511113E+03  0.7546771E-02  0.1027391E+00
         21   -1    0    0  502  501  0.00000000000E+00  0.00000000000E+00  0.15936475799E+03  0.15936475799E+03  0.00000000000E+00 0. -1.
         21   -1    0    0  501  502 -0.00000000000E+00 -0.00000000000E+00 -0.31923846787E+03  0.31923846787E+03  0.00000000000E+00 0. -1.
      99926    2    1    2    0    0  0.14210854715E-13  0.00000000000E+00 -0.15987370988E+03  0.47860322585E+03  0.45111134400E+03 0.  0.
      99925    2    3    3    0    0  0.95332063445E+02 -0.34908529630E+01 -0.44169491910E+02  0.28332045004E+03  0.26309531546E+03 0.  0.
         25    1    3    3    0    0 -0.95332063445E+02  0.34908529630E+01 -0.11570421797E+03  0.19528277582E+03  0.12509000000E+03 0.  0.
         25    1    4    4    0    0  0.29452828367E+02 -0.98526533589E+01 -0.57582277565E+02  0.14116575600E+03  0.12509000000E+03 0.  0.
         25    1    4    4    0    0  0.65879235078E+02  0.63618003959E+01  0.13412785655E+02  0.14215469404E+03  0.12509000000E+03 0.  0.
<mgrwt>
<rscale>  2 0.45111134E+03</rscale>
<asrwt>0</asrwt>
<pdfrwt beam="1">  1       21 0.23435994E-01 0.45111134E+03</pdfrwt>
<pdfrwt beam="2">  1       21 0.46946833E-01 0.45111134E+03</pdfrwt>
<totfact> 0.68904329E+04</totfact>
</mgrwt>
</event>
<event>
 7    0  0.4691878E-002  0.4521677E+03  0.7546771E-02  0.1027078E+00
         21   -1    0    0  502  501  0.00000000000E+00  0.00000000000E+00  0.30053117375E+03  0.30053117375E+03  0.00000000000E+00 0. -1.
         21   -1    0    0  501  502 -0.00000000000E+00 -0.00000000000E+00 -0.17007857816E+03  0.17007857816E+03  0.00000000000E+00 0. -1.
      99926    2    1    2    0    0  0.00000000000E+00  0.00000000000E+00  0.13045259559E+03  0.47060975191E+03  0.45216773314E+03 0.  0.
      99925    2    3    3    0    0 -0.58846318818E+02  0.77345930653E+02  0.13707412297E+03  0.31206438001E+03  0.26296307698E+03 0.  0.
         25    1    4    4    0    0  0.25152399365E+01  0.47648003527E+02  0.92744274054E+02  0.16286702288E+03  0.12509000000E+03 0.  0.
         25    1    4    4    0    0 -0.61361558755E+02  0.29697927126E+02  0.44329848920E+02  0.14919735713E+03  0.12509000000E+03 0.  0.
         25    1    3    3    0    0  0.58846318818E+02 -0.77345930653E+02 -0.66215273840E+01  0.15854537190E+03  0.12509000000E+03 0.  0.
<mgrwt>
<rscale>  2 0.45216773E+03</rscale>
<asrwt>0</asrwt>
<pdfrwt beam="1">  1       21 0.44195761E-01 0.45216773E+03</pdfrwt>
<pdfrwt beam="2">  1       21 0.25011556E-01 0.45216773E+03</pdfrwt>
<totfact> 0.68926318E+04</totfact>
</mgrwt>
</event>
<event>
 7    0  0.4691878E-002  0.4505014E+03  0.7546771E-02  0.1027573E+00
         21   -1    0    0  502  501  0.00000000000E+00  0.00000000000E+00  0.94899890298E+02  0.94899890298E+02  0.00000000000E+00 0.  1.
         21   -1    0    0  501  502 -0.00000000000E+00 -0.00000000000E+00 -0.53464639074E+03  0.53464639074E+03  0.00000000000E+00 0.  1.
      99926    2    1    2    0    0  0.14210854715E-13  0.00000000000E+00 -0.43974650044E+03  0.62954628104E+03  0.45050142654E+03 0.  0.
      99925    2    3    3    0    0  0.77589481321E+02  0.63993820277E+02 -0.33623506069E+03  0.43855554067E+03  0.26298594938E+03 0.  0.
         25    1    3    3    0    0 -0.77589481321E+02 -0.63993820277E+02 -0.10351143975E+03  0.19099074036E+03  0.12509000000E+03 0.  0.
         25    1    4    4    0    0  0.64734501532E+02  0.60922923360E+02 -0.15657150825E+03  0.21923572605E+03  0.12509000000E+03 0.  0.
         25    1    4    4    0    0  0.12854979789E+02  0.30708969171E+01 -0.17966355244E+03  0.21931981462E+03  0.12509000000E+03 0.  0.
<mgrwt>
<rscale>  2 0.45050143E+03</rscale>
<asrwt>0</asrwt>
<pdfrwt beam="1">  1       21 0.13955866E-01 0.45050143E+03</pdfrwt>
<pdfrwt beam="2">  1       21 0.78624469E-01 0.45050143E+03</pdfrwt>
<totfact> 0.58961570E+04</totfact>
</mgrwt>
</event>
<event>
 7    0  0.4691878E-002  0.4885021E+03  0.7546771E-02  0.1016824E+00
         21   -1    0    0  502  501  0.00000000000E+00  0.00000000000E+00  0.31969065990E+02  0.31969065990E+02  0.00000000000E+00 0.  1.
         21   -1    0    0  501  502 -0.00000000000E+00 -0.00000000000E+00 -0.18661342579E+04  0.18661342579E+04  0.00000000000E+00 0.  1.
      99926    2    1    2    0    0  0.14210854715E-13  0.14210854715E-13 -0.18341651919E+04  0.18981033239E+04  0.48850207466E+03 0.  0.
      99925    2    3    3    0    0  0.10055770469E+03  0.97343463627E+02 -0.10243288103E+04  0.10667970777E+04  0.26309483363E+03 0.  0.
         25    1    3    3    0    0 -0.10055770469E+03 -0.97343463627E+02 -0.80983638161E+03  0.83130624619E+03  0.12509000000E+03 0.  0.
         25    1    4    4    0    0  0.92775157486E+02  0.60320993945E+02 -0.55056910925E+03  0.57534311877E+03  0.12509000000E+03 0.  0.
         25    1    4    4    0    0  0.77825472018E+01  0.37022469683E+02 -0.47375970103E+03  0.49145395890E+03  0.12509000000E+03 0.  0.
<mgrwt>
<rscale>  2 0.48850207E+03</rscale>
<asrwt>0</asrwt>
<pdfrwt beam="1">  1       21 0.47013316E-02 0.48850207E+03</pdfrwt>
<pdfrwt beam="2">  1       21 0.27443160E+00 0.48850207E+03</pdfrwt>
<totfact> 0.12006186E+04</totfact>
</mgrwt>
</event>
<event>
 7    0  0.4691878E-002  0.4588407E+03  0.7546771E-02  0.1025118E+00
         21   -1    0    0  502  501  0.00000000000E+00  0.00000000000E+00  0.21750182887E+03  0.21750182887E+03  0.00000000000E+00 0. -1.
         21   -1    0    0  501  502 -0.00000000000E+00 -0.00000000000E+00 -0.24199199289E+03  0.24199199289E+03  0.00000000000E+00 0. -1.
      99926    2    1    2    0    0  0.00000000000E+00  0.00000000000E+00 -0.24490164020E+02  0.45949382176E+03  0.45884071757E+03 0.  0.
      99925    2    3    3    0    0  0.10471714392E+03 -0.34618149842E+02 -0.52266626606E+02  0.29042834183E+03  0.26353884904E+03 0.  0.
         25    1    4    4    0    0  0.71368702245E+02 -0.30643382874E+02 -0.63648301124E+02  0.16040923574E+03  0.12509000000E+03 0.  0.
         25    1    3    3    0    0 -0.10471714392E+03  0.34618149842E+02  0.27776462586E+02  0.16906547993E+03  0.12509000000E+03 0.  0.
         25    1    4    4    0    0  0.33348441678E+02 -0.39747669680E+01  0.11381674518E+02  0.13001910609E+03  0.12509000000E+03 0.  0.
<mgrwt>
<rscale>  2 0.45884072E+03</rscale>
<asrwt>0</asrwt>
<pdfrwt beam="1">  1       21 0.31985563E-01 0.45884072E+03</pdfrwt>
<pdfrwt beam="2">  1       21 0.35587058E-01 0.45884072E+03</pdfrwt>
<totfact> 0.66166839E+04</totfact>
</mgrwt>
</event>
<event>
 7    0  0.4691878E-002  0.4579672E+03  0.7546771E-02  0.1025372E+00
         21   -1    0    0  502  501  0.00000000000E+00  0.00000000000E+00  0.42843546151E+03  0.42843546151E+03  0.00000000000E+00 0.  1.
         21   -1    0    0  501  502 -0.00000000000E+00 -0.00000000000E+00 -0.12238361910E+03  0.12238361910E+03  0.00000000000E+00 0.  1.
      99926    2    1    2    0    0  0.00000000000E+00  0.00000000000E+00  0.30605184240E+03  0.55081908061E+03  0.45796717058E+03 0.  0.
      99925    2    3    3    0    0 -0.10202634997E+03  0.51832755510E+01  0.12610814538E+03  0.30902684618E+03  0.26297924803E+03 0.  0.
         25    1    4    4    0    0 -0.20695741135E+02  0.10897587257E+02  0.88631399159E+02  0.15508095991E+03  0.12509000000E+03 0.  0.
         25    1    4    4    0    0 -0.81330608838E+02 -0.57143117062E+01  0.37476746224E+02  0.15394588627E+03  0.12509000000E+03 0.  0.
         25    1    3    3    0    0  0.10202634997E+03 -0.51832755510E+01  0.17994369702E+03  0.24179223443E+03  0.12509000000E+03 0.  0.
<mgrwt>
<rscale>  2 0.45796717E+03</rscale>
<asrwt>0</asrwt>
<pdfrwt beam="1">  1       21 0.63005214E-01 0.45796717E+03</pdfrwt>
<pdfrwt beam="2">  1       21 0.17997591E-01 0.45796717E+03</pdfrwt>
<totfact> 0.60382370E+04</totfact>
</mgrwt>
</event>
<event>
 7    0  0.4691878E-002  0.4484039E+03  0.7546771E-02  0.1028199E+00
         21   -1    0    0  502  501  0.00000000000E+00  0.00000000000E+00  0.86434125677E+03  0.86434125677E+03  0.00000000000E+00 0.  1.
         21   -1    0    0  501  502 -0.00000000000E+00 -0.00000000000E+00 -0.58155857661E+02  0.58155857661E+02  0.00000000000E+00 0.  1.
      99926    2    1    2    0    0 -0.14210854715E-13  0.00000000000E+00  0.80618539911E+03  0.92249711443E+03  0.44840386751E+03 0.  0.
      99925    2    3    3    0    0 -0.78262490551E+02 -0.46211518061E+02  0.39494349376E+03  0.48314766963E+03  0.26304141419E+03 0.  0.
         25    1    3    3    0    0  0.78262490551E+02  0.46211518061E+02  0.41124190535E+03  0.43934944480E+03  0.12509000000E+03 0.  0.
         25    1    4    4    0    0  0.34838813431E+00 -0.19378190202E+02  0.15537980996E+03  0.20041464286E+03  0.12509000000E+03 0.  0.
         25    1    4    4    0    0 -0.78610878686E+02 -0.26833327859E+02  0.23956368380E+03  0.28273302677E+03  0.12509000000E+03 0.  0.
<mgrwt>
<rscale>  2 0.44840387E+03</rscale>
<asrwt>0</asrwt>
<pdfrwt beam="1">  1       21 0.12710900E+00 0.44840387E+03</pdfrwt>
<pdfrwt beam="2">  1       21 0.85523326E-02 0.44840387E+03</pdfrwt>
<totfact> 0.44528535E+04</totfact>
</mgrwt>
</event>
<event>
 7    0  0.4691878E-002  0.4612903E+03  0.7546771E-02  0.1024408E+00
         21   -1    0    0  502  501  0.00000000000E+00  0.00000000000E+00  0.82390442365E+02  0.82390442365E+02  0.00000000000E+00 0. -1.
         21   -1    0    0  501  502 -0.00000000000E+00 -0.00000000000E+00 -0.64567173519E+03  0.64567173519E+03  0.00000000000E+00 0. -1.
      99926    2    1    2    0    0 -0.14210854715E-13  0.71054273576E-14 -0.56328129283E+03  0.72806217756E+03  0.46129027688E+03 0.  0.
      99925    2    3    3    0    0  0.74061016935E+02 -0.47533005436E+02 -0.47768421162E+03  0.55279441313E+03  0.26392240588E+03 0.  0.
         25    1    4    4    0    0  0.77353202874E+02 -0.41066777558E+02 -0.27294611669E+03  0.31275723642E+03  0.12509000000E+03 0.  0.
         25    1    3    3    0    0 -0.74061016935E+02  0.47533005436E+02 -0.85597081210E+02  0.17526776443E+03  0.12509000000E+03 0.  0.
         25    1    4    4    0    0 -0.32921859388E+01 -0.64662278781E+01 -0.20473809492E+03  0.24003717671E+03  0.12509000000E+03 0.  0.
<mgrwt>
<rscale>  2 0.46129028E+03</rscale>
<asrwt>0</asrwt>
<pdfrwt beam="1">  1       21 0.12116242E-01 0.46129028E+03</pdfrwt>
<pdfrwt beam="2">  1       21 0.94951725E-01 0.46129028E+03</pdfrwt>
<totfact> 0.48939552E+04</totfact>
</mgrwt>
</event>
<event>
 7    0  0.4691878E-002  0.4510119E+03  0.7546771E-02  0.1027421E+00
         21   -1    0    0  502  501  0.00000000000E+00  0.00000000000E+00  0.38571460944E+02  0.38571460944E+02  0.00000000000E+00 0. -1.
         21   -1    0    0  501  502 -0.00000000000E+00 -0.00000000000E+00 -0.13184082825E+04  0.13184082825E+04  0.00000000000E+00 0. -1.
      99926    2    1    2    0    0  0.00000000000E+00  0.00000000000E+00 -0.12798368215E+04  0.13569797434E+04  0.45101190040E+03 0.  0.
      99925    2    3    3    0    0  0.44563683148E+02 -0.24182084267E+02 -0.51693314432E+03  0.58222802587E+03  0.26305684433E+03 0.  0.
         25    1    3    3    0    0 -0.44563683148E+02  0.24182084267E+02 -0.76290367721E+03  0.77475171756E+03  0.12509000000E+03 0.  0.
         25    1    4    4    0    0  0.13141387821E+02  0.68628890496E+01 -0.32813768084E+03  0.35148490865E+03  0.12509000000E+03 0.  0.
         25    1    4    4    0    0  0.31422295327E+02 -0.31044973316E+02 -0.18879546348E+03  0.23074311722E+03  0.12509000000E+03 0.  0.
<mgrwt>
<rscale>  2 0.45101190E+03</rscale>
<asrwt>0</asrwt>
<pdfrwt beam="1">  1       21 0.56722733E-02 0.45101190E+03</pdfrwt>
<pdfrwt beam="2">  1       21 0.19388358E+00 0.45101190E+03</pdfrwt>
<totfact> 0.28370645E+04</totfact>
</mgrwt>
</event>
<event>
 7    0  0.4691878E-002  0.4519608E+03  0.7546771E-02  0.1027139E+00
         21   -1    0    0  502  501  0.00000000000E+00  0.00000000000E+00  0.15365324188E+03  0.15365324188E+03  0.00000000000E+00 0. -1.
         21   -1    0    0  501  502 -0.00000000000E+00 -0.00000000000E+00 -0.33235317410E+03  0.33235317410E+03  0.00000000000E+00 0. -1.
      99926    2    1    2    0    0  0.00000000000E+00  0.00000000000E+00 -0.17869993222E+03  0.48600641599E+03  0.45196080649E+03 0.  0.
      99925    2    3    3    0    0  0.10063825278E+03  0.14369449375E+02 -0.15922442679E+03  0.32364465198E+03  0.26279060804E+03 0.  0.
         25    1    4    4    0    0  0.66326003602E+02  0.41582939453E+02 -0.66279414792E+02  0.16176757565E+03  0.12509000000E+03 0.  0.
         25    1    3    3    0    0 -0.10063825278E+03 -0.14369449375E+02 -0.19475505434E+02  0.16236176400E+03  0.12509000000E+03 0.  0.
         25    1    4    4    0    0  0.34312249180E+02 -0.27213490077E+02 -0.92945011995E+02  0.16187707633E+03  0.12509000000E+03 0.  0.
<mgrwt>
<rscale>  2 0.45196081E+03</rscale>
<asrwt>0</asrwt>
<pdfrwt beam="1">  1       21 0.22596065E-01 0.45196081E+03</pdfrwt>
<pdfrwt beam="2">  1       21 0.48875466E-01 0.45196081E+03</pdfrwt>
<totfact> 0.67888630E+04</totfact>
</mgrwt>
</event>
<event>
 7    0  0.4691878E-002  0.4548796E+03  0.7546771E-02  0.1026277E+00
         21   -1    0    0  502  501  0.00000000000E+00  0.00000000000E+00  0.10566782474E+03  0.10566782474E+03  0.00000000000E+00 0.  1.
         21   -1    0    0  501  502 -0.00000000000E+00 -0.00000000000E+00 -0.48954230413E+03  0.48954230413E+03  0.00000000000E+00 0.  1.
      99926    2    1    2    0    0  0.00000000000E+00 -0.35527136788E-14 -0.38387447939E+03  0.59521012887E+03  0.45487963418E+03 0.  0.
      99925    2    3    3    0    0  0.11244474495E+03 -0.11965543321E+02 -0.24455253203E+03  0.37647488249E+03  0.26294562428E+03 0.  0.
         25    1    4    4    0    0  0.45423521980E+02  0.30500036319E+02 -0.13700086597E+03  0.19341740858E+03  0.12509000000E+03 0.  0.
         25    1    3    3    0    0 -0.11244474495E+03  0.11965543321E+02 -0.13932194736E+03  0.21873524638E+03  0.12509000000E+03 0.  0.
         25    1    4    4    0    0  0.67021222972E+02 -0.42465579641E+02 -0.10755166605E+03  0.18305747391E+03  0.12509000000E+03 0.  0.
<mgrwt>
<rscale>  2 0.45487963E+03</rscale>
<asrwt>0</asrwt>
<pdfrwt beam="1">  1       21 0.15539386E-01 0.45487963E+03</pdfrwt>
<pdfrwt beam="2">  1       21 0.71991516E-01 0.45487963E+03</pdfrwt>
<totfact> 0.59030196E+04</totfact>
</mgrwt>
</event>
<event>
 7    0  0.4691878E-002  0.4542362E+03  0.7546771E-02  0.1026466E+00
         21   -1    0    0  502  501  0.00000000000E+00  0.00000000000E+00  0.15829678391E+02  0.15829678391E+02  0.00000000000E+00 0.  1.
         21   -1    0    0  501  502 -0.00000000000E+00 -0.00000000000E+00 -0.32586031043E+04  0.32586031043E+04  0.00000000000E+00 0.  1.
      99926    2    1    2    0    0  0.13322676296E-14  0.00000000000E+00 -0.32427734259E+04  0.32744327827E+04  0.45423623434E+03 0.  0.
      99925    2    3    3    0    0  0.13147315991E+01  0.18756212855E+02 -0.28411672808E+04  0.28533763400E+04  0.26300474550E+03 0.  0.
         25    1    3    3    0    0 -0.13147315991E+01 -0.18756212855E+02 -0.40160614507E+03  0.42105644265E+03  0.12509000000E+03 0.  0.
         25    1    4    4    0    0 -0.37880666234E+02 -0.32724669116E+01 -0.14213508325E+04  0.14273511660E+04  0.12509000000E+03 0.  0.
         25    1    4    4    0    0  0.39195397833E+02  0.22028679767E+02 -0.14198164483E+04  0.14260251741E+04  0.12509000000E+03 0.  0.
<mgrwt>
<rscale>  2 0.45423623E+03</rscale>
<asrwt>0</asrwt>
<pdfrwt beam="1">  1       21 0.23278970E-02 0.45423623E+03</pdfrwt>
<pdfrwt beam="2">  1       21 0.47920570E+00 0.45423623E+03</pdfrwt>
<totfact> 0.19991643E+03</totfact>
</mgrwt>
</event>
<event>
 7    0  0.4691878E-002  0.4538964E+03  0.7546771E-02  0.1026566E+00
         21   -1    0    0  502  501  0.00000000000E+00  0.00000000000E+00  0.31310695469E+03  0.31310695469E+03  0.00000000000E+00 0.  1.
         21   -1    0    0  501  502 -0.00000000000E+00 -0.00000000000E+00 -0.16449803908E+03  0.16449803908E+03  0.00000000000E+00 0.  1.
      99926    2    1    2    0    0  0.14210854715E-13  0.00000000000E+00  0.14860891561E+03  0.47760499377E+03  0.45389637614E+03 0.  0.
      99925    2    3    3    0    0  0.80988309533E+02  0.68336967070E+02  0.13214470679E+03  0.31283962841E+03  0.26301589728E+03 0.  0.
         25    1    3    3    0    0 -0.80988309533E+02 -0.68336967070E+02  0.16464208816E+02  0.16476536536E+03  0.12509000000E+03 0.  0.
         25    1    4    4    0    0  0.55134540908E+01  0.79452401691E+01  0.59849700014E+02  0.13900726495E+03  0.12509000000E+03 0.  0.
         25    1    4    4    0    0  0.75474855442E+02  0.60391726901E+02  0.72295006776E+02  0.17383236346E+03  0.12509000000E+03 0.  0.
<mgrwt>
<rscale>  2 0.45389638E+03</rscale>
<asrwt>0</asrwt>
<pdfrwt beam="1">  1       21 0.46045140E-01 0.45389638E+03</pdfrwt>
<pdfrwt beam="2">  1       21 0.24190888E-01 0.45389638E+03</pdfrwt>
<totfact> 0.67463861E+04</totfact>
</mgrwt>
</event>
<event>
 7    0  0.4691878E-002  0.4416608E+03  0.7546771E-02  0.1030238E+00
         21   -1    0    0  502  501  0.00000000000E+00  0.00000000000E+00  0.32085351928E+03  0.32085351928E+03  0.00000000000E+00 0.  1.
         21   -1    0    0  501  502 -0.00000000000E+00 -0.00000000000E+00 -0.15198857815E+03  0.15198857815E+03  0.00000000000E+00 0.  1.
      99926    2    1    2    0    0  0.00000000000E+00 -0.71054273576E-14  0.16886494112E+03  0.47284209743E+03  0.44166082094E+03 0.  0.
      99925    2    3    3    0    0  0.90610293372E+02 -0.38861544226E+02  0.12634621637E+03  0.30799127110E+03  0.26301104882E+03 0.  0.
         25    1    3    3    0    0 -0.90610293372E+02  0.38861544226E+02  0.42518724759E+02  0.16485082632E+03  0.12509000000E+03 0.  0.
         25    1    4    4    0    0  0.31906497896E+02  0.12053011238E+02  0.85002569089E+02  0.15503626847E+03  0.12509000000E+03 0.  0.
         25    1    4    4    0    0  0.58703795477E+02 -0.50914555464E+02  0.41343647276E+02  0.15295500264E+03  0.12509000000E+03 0.  0.
<mgrwt>
<rscale>  2 0.44166082E+03</rscale>
<asrwt>0</asrwt>
<pdfrwt beam="1">  1       21 0.47184341E-01 0.44166082E+03</pdfrwt>
<pdfrwt beam="2">  1       21 0.22351262E-01 0.44166082E+03</pdfrwt>
<totfact> 0.74840588E+04</totfact>
</mgrwt>
</event>
<event>
 7    0  0.4691878E-002  0.4533969E+03  0.7546771E-02  0.1026714E+00
         21   -1    0    0  502  501  0.00000000000E+00  0.00000000000E+00  0.11923643593E+03  0.11923643593E+03  0.00000000000E+00 0. -1.
         21   -1    0    0  501  502 -0.00000000000E+00 -0.00000000000E+00 -0.43101079407E+03  0.43101079407E+03  0.00000000000E+00 0. -1.
      99926    2    1    2    0    0  0.00000000000E+00  0.14210854715E-13 -0.31177435814E+03  0.55024723001E+03  0.45339691633E+03 0.  0.
      99925    2    3    3    0    0  0.74451792309E+02  0.71320445962E+02 -0.24891812405E+03  0.37638495793E+03  0.26282261828E+03 0.  0.
         25    1    3    3    0    0 -0.74451792309E+02 -0.71320445962E+02 -0.62856234091E+02  0.17386227208E+03  0.12509000000E+03 0.  0.
         25    1    4    4    0    0  0.25179676553E+02  0.26474252846E+02 -0.69336109446E+02  0.14761404523E+03  0.12509000000E+03 0.  0.
         25    1    4    4    0    0  0.49272115756E+02  0.44846193116E+02 -0.17958201460E+03  0.22877091270E+03  0.12509000000E+03 0.  0.
<mgrwt>
<rscale>  2 0.45339692E+03</rscale>
<asrwt>0</asrwt>
<pdfrwt beam="1">  1       21 0.17534770E-01 0.45339692E+03</pdfrwt>
<pdfrwt beam="2">  1       21 0.63383941E-01 0.45339692E+03</pdfrwt>
<totfact> 0.62640899E+04</totfact>
</mgrwt>
</event>
<event>
 7    0  0.4691878E-002  0.4021002E+03  0.7546771E-02  0.1043055E+00
         21   -1    0    0  502  501  0.00000000000E+00  0.00000000000E+00  0.23508747943E+03  0.23508747943E+03  0.00000000000E+00 0. -1.
         21   -1    0    0  501  502 -0.00000000000E+00 -0.00000000000E+00 -0.17194081874E+03  0.17194081874E+03  0.00000000000E+00 0. -1.
      99926    2    1    2    0    0  0.00000000000E+00  0.00000000000E+00  0.63146660685E+02  0.40702829817E+03  0.40210015513E+03 0.  0.
      99925    2    3    3    0    0 -0.11420577177E+02 -0.47857519188E+02  0.46171979305E+02  0.27154243310E+03  0.26302598650E+03 0.  0.
         25    1    3    3    0    0  0.11420577177E+02  0.47857519188E+02  0.16974681380E+02  0.13548586507E+03  0.12509000000E+03 0.  0.
         25    1    4    4    0    0  0.13353706273E+02  0.11175175110E+02  0.32147760896E+02  0.13032341555E+03  0.12509000000E+03 0.  0.
         25    1    4    4    0    0 -0.24774283451E+02 -0.59032694298E+02  0.14024218410E+02  0.14121901755E+03  0.12509000000E+03 0.  0.
<mgrwt>
<rscale>  2 0.40210016E+03</rscale>
<asrwt>0</asrwt>
<pdfrwt beam="1">  1       21 0.34571688E-01 0.40210016E+03</pdfrwt>
<pdfrwt beam="2">  1       21 0.25285414E-01 0.40210016E+03</pdfrwt>
<totfact> 0.11281241E+05</totfact>
</mgrwt>
</event>
<event>
 7    0  0.4691878E-002  0.4246790E+03  0.7546771E-02  0.1035554E+00
         21   -1    0    0  502  501  0.00000000000E+00  0.00000000000E+00  0.20349673470E+04  0.20349673470E+04  0.00000000000E+00 0. -1.
         21   -1    0    0  501  502 -0.00000000000E+00 -0.00000000000E+00 -0.22156653895E+02  0.22156653895E+02  0.00000000000E+00 0. -1.
      99926    2    1    2    0    0 -0.88817841970E-15  0.00000000000E+00  0.20128106931E+04  0.20571240008E+04  0.42467901852E+03 0.  0.
      99925    2    3    3    0    0  0.58557255503E+01  0.79842366225E+02  0.13873461882E+04  0.14142690811E+04  0.26271371251E+03 0.  0.
         25    1    3    3    0    0 -0.58557255503E+01 -0.79842366225E+02  0.62546450484E+03  0.64285491977E+03  0.12509000000E+03 0.  0.
         25    1    4    4    0    0 -0.14204995520E+02  0.44363748063E+02  0.88364188154E+03  0.89366683219E+03  0.12509000000E+03 0.  0.
         25    1    4    4    0    0  0.20060721070E+02  0.35478618163E+02  0.50370430668E+03  0.52060224888E+03  0.12509000000E+03 0.  0.
<mgrwt>
<rscale>  2 0.42467902E+03</rscale>
<asrwt>0</asrwt>
<pdfrwt beam="1">  1       21 0.29925978E+00 0.42467902E+03</pdfrwt>
<pdfrwt beam="2">  1       21 0.32583328E-02 0.42467902E+03</pdfrwt>
<totfact> 0.16315757E+04</totfact>
</mgrwt>
</event>
<event>
 7    0  0.4691878E-002  0.4567433E+03  0.7546771E-02  0.1025730E+00
         21   -1    0    0  502  501  0.00000000000E+00  0.00000000000E+00  0.21376381027E+03  0.21376381027E+03  0.00000000000E+00 0.  1.
         21   -1    0    0  501  502 -0.00000000000E+00 -0.00000000000E+00 -0.24397773412E+03  0.24397773412E+03  0.00000000000E+00 0.  1.
      99926    2    1    2    0    0  0.00000000000E+00  0.35527136788E-14 -0.30213923844E+02  0.45774154439E+03  0.45674329800E+03 0.  0.
      99925    2    3    3    0    0  0.21177889040E+02 -0.24366109335E+02 -0.12942249579E+03  0.29485489940E+03  0.26295820773E+03 0.  0.
         25    1    4    4    0    0 -0.12099689578E+01 -0.11125481781E+02 -0.21098920548E+02  0.12734956976E+03  0.12509000000E+03 0.  0.
         25    1    3    3    0    0 -0.21177889040E+02  0.24366109335E+02  0.99208571947E+02  0.16288664499E+03  0.12509000000E+03 0.  0.
         25    1    4    4    0    0  0.22387857998E+02 -0.13240627554E+02 -0.10832357524E+03  0.16750532964E+03  0.12509000000E+03 0.  0.
<mgrwt>
<rscale>  2 0.45674330E+03</rscale>
<asrwt>0</asrwt>
<pdfrwt beam="1">  1       21 0.31435855E-01 0.45674330E+03</pdfrwt>
<pdfrwt beam="2">  1       21 0.35879078E-01 0.45674330E+03</pdfrwt>
<totfact> 0.67403025E+04</totfact>
</mgrwt>
</event>
<event>
 7    0  0.4691878E-002  0.4634713E+03  0.7546771E-02  0.1023779E+00
         21   -1    0    0  502  501  0.00000000000E+00  0.00000000000E+00  0.97640382435E+02  0.97640382435E+02  0.00000000000E+00 0.  1.
         21   -1    0    0  501  502 -0.00000000000E+00 -0.00000000000E+00 -0.54999178131E+03  0.54999178131E+03  0.00000000000E+00 0.  1.
      99926    2    1    2    0    0 -0.14210854715E-13  0.00000000000E+00 -0.45235139887E+03  0.64763216374E+03  0.46347128439E+03 0.  0.
      99925    2    3    3    0    0 -0.10618476620E+03 -0.28641741628E+02 -0.35295706377E+03  0.45366748683E+03  0.26294475810E+03 0.  0.
         25    1    4    4    0    0 -0.13460474656E+02 -0.75911611523E+01 -0.13169416074E+03  0.18229007153E+03  0.12509000000E+03 0.  0.
         25    1    3    3    0    0  0.10618476620E+03  0.28641741628E+02 -0.99394335105E+02  0.19396467691E+03  0.12509000000E+03 0.  0.
         25    1    4    4    0    0 -0.92724291545E+02 -0.21050580476E+02 -0.22126290303E+03  0.27137741530E+03  0.12509000000E+03 0.  0.
<mgrwt>
<rscale>  2 0.46347128E+03</rscale>
<asrwt>0</asrwt>
<pdfrwt beam="1">  1       21 0.14358880E-01 0.46347128E+03</pdfrwt>
<pdfrwt beam="2">  1       21 0.80881143E-01 0.46347128E+03</pdfrwt>
<totfact> 0.52256713E+04</totfact>
</mgrwt>
</event>
<event>
 7    0  0.4691878E-002  0.4539776E+03  0.7546771E-02  0.1026542E+00
         21   -1    0    0  502  501  0.00000000000E+00  0.00000000000E+00  0.12378593148E+03  0.12378593148E+03  0.00000000000E+00 0.  1.
         21   -1    0    0  501  502 -0.00000000000E+00 -0.00000000000E+00 -0.41623392877E+03  0.41623392877E+03  0.00000000000E+00 0.  1.
      99926    2    1    2    0    0  0.00000000000E+00 -0.71054273576E-14 -0.29244799729E+03  0.54001986024E+03  0.45397755268E+03 0.  0.
      99925    2    3    3    0    0 -0.85062000104E+02 -0.37833069818E+02 -0.10961082008E+03  0.29972040851E+03  0.26296559921E+03 0.  0.
         25    1    4    4    0    0 -0.40282439754E+02  0.72484735003E+01 -0.86578329598E+02  0.15753898113E+03  0.12509000000E+03 0.  0.
         25    1    3    3    0    0  0.85062000104E+02  0.37833069818E+02 -0.18283717721E+03  0.24029945173E+03  0.12509000000E+03 0.  0.
         25    1    4    4    0    0 -0.44779560350E+02 -0.45081543319E+02 -0.23032490482E+02  0.14218142738E+03  0.12509000000E+03 0.  0.
<mgrwt>
<rscale>  2 0.45397755E+03</rscale>
<asrwt>0</asrwt>
<pdfrwt beam="1">  1       21 0.18203813E-01 0.45397755E+03</pdfrwt>
<pdfrwt beam="2">  1       21 0.61210872E-01 0.45397755E+03</pdfrwt>
<totfact> 0.63039405E+04</totfact>
</mgrwt>
</event>
<event>
 7    0  0.4691878E-002  0.4602931E+03  0.7546771E-02  0.1024696E+00
         21   -1    0    0  502  501  0.00000000000E+00  0.00000000000E+00  0.26399603080E+03  0.26399603080E+03  0.00000000000E+00 0. -1.
         21   -1    0    0  501  502 -0.00000000000E+00 -0.00000000000E+00 -0.20063724175E+03  0.20063724175E+03  0.00000000000E+00 0. -1.
      99926    2    1    2    0    0 -0.14210854715E-13  0.00000000000E+00  0.63358789047E+02  0.46463327256E+03  0.46029310425E+03 0.  0.
      99925    2    3    3    0    0 -0.11700955560E+03  0.80897357214E+01  0.25896446112E+02  0.28911229043E+03  0.26298024761E+03 0.  0.
         25    1    4    4    0    0 -0.14263112015E+02  0.12075393390E+01  0.13016668569E+02  0.12657739244E+03  0.12509000000E+03 0.  0.
         25    1    3    3    0    0  0.11700955560E+03 -0.80897357214E+01  0.37462342934E+02  0.17552098212E+03  0.12509000000E+03 0.  0.
         25    1    4    4    0    0 -0.10274644359E+03  0.68821963824E+01  0.12879777543E+02  0.16253489800E+03  0.12509000000E+03 0.  0.
<mgrwt>
<rscale>  2 0.46029310E+03</rscale>
<asrwt>0</asrwt>
<pdfrwt beam="1">  1       21 0.38822946E-01 0.46029310E+03</pdfrwt>
<pdfrwt beam="2">  1       21 0.29505477E-01 0.46029310E+03</pdfrwt>
<totfact> 0.65054507E+04</totfact>
</mgrwt>
</event>
<event>
 7    0  0.4691878E-002  0.4537070E+03  0.7546771E-02  0.1026622E+00
         21   -1    0    0  502  501  0.00000000000E+00  0.00000000000E+00  0.11319464420E+04  0.11319464420E+04  0.00000000000E+00 0.  1.
         21   -1    0    0  501  502 -0.00000000000E+00 -0.00000000000E+00 -0.45463725074E+02  0.45463725074E+02  0.00000000000E+00 0.  1.
      99926    2    1    2    0    0  0.00000000000E+00  0.35527136788E-14  0.10864827169E+04  0.11774101670E+04  0.45370696197E+03 0.  0.
      99925    2    3    3    0    0 -0.30137292065E+02 -0.28742422786E+02  0.41475806181E+03  0.49286951551E+03  0.26298617121E+03 0.  0.
         25    1    4    4    0    0 -0.19380419477E+02  0.10470803877E+02  0.14507567579E+03  0.19282037807E+03  0.12509000000E+03 0.  0.
         25    1    4    4    0    0 -0.10756872588E+02 -0.39213226663E+02  0.26968238602E+03  0.30004913745E+03  0.12509000000E+03 0.  0.
         25    1    3    3    0    0  0.30137292065E+02  0.28742422786E+02  0.67172465508E+03  0.68454065152E+03  0.12509000000E+03 0.  0.
<mgrwt>
<rscale>  2 0.45370696E+03</rscale>
<asrwt>0</asrwt>
<pdfrwt beam="1">  1       21 0.16646269E+00 0.45370696E+03</pdfrwt>
<pdfrwt beam="2">  1       21 0.66858426E-02 0.45370696E+03</pdfrwt>
<totfact> 0.33213626E+04</totfact>
</mgrwt>
</event>
<event>
 7    0  0.4691878E-002  0.4538152E+03  0.7546771E-02  0.1026590E+00
         21   -1    0    0  502  501  0.00000000000E+00  0.00000000000E+00  0.16372280460E+03  0.16372280460E+03  0.00000000000E+00 0. -1.
         21   -1    0    0  501  502 -0.00000000000E+00 -0.00000000000E+00 -0.31447695038E+03  0.31447695038E+03  0.00000000000E+00 0. -1.
      99926    2    1    2    0    0  0.00000000000E+00  0.00000000000E+00 -0.15075414578E+03  0.47819975498E+03  0.45381515311E+03 0.  0.
      99925    2    3    3    0    0 -0.71406997008E+02 -0.60502276755E+02 -0.30238442666E+02  0.28089028356E+03  0.26310739874E+03 0.  0.
         25    1    4    4    0    0 -0.74202320835E+01  0.81056296442E+00 -0.41169401947E+01  0.12538011865E+03  0.12509000000E+03 0.  0.
         25    1    3    3    0    0  0.71406997008E+02  0.60502276755E+02 -0.12051570311E+03  0.19730947142E+03  0.12509000000E+03 0.  0.
         25    1    4    4    0    0 -0.63986764924E+02 -0.61312839720E+02 -0.26121502471E+02  0.15551016491E+03  0.12509000000E+03 0.  0.
<mgrwt>
<rscale>  2 0.45381515E+03</rscale>
<asrwt>0</asrwt>
<pdfrwt beam="1">  1       21 0.24076883E-01 0.45381515E+03</pdfrwt>
<pdfrwt beam="2">  1       21 0.46246610E-01 0.45381515E+03</pdfrwt>
<totfact> 0.67463594E+04</totfact>
</mgrwt>
</event>
<event>
 7    0  0.4691878E-002  0.4430265E+03  0.7546771E-02  0.1029822E+00
         21   -1    0    0  502  501  0.00000000000E+00  0.00000000000E+00  0.28224032038E+02  0.28224032038E+02  0.00000000000E+00 0. -1.
         21   -1    0    0  501  502 -0.00000000000E+00 -0.00000000000E+00 -0.17385226108E+04  0.17385226108E+04  0.00000000000E+00 0. -1.
      99926    2    1    2    0    0  0.00000000000E+00  0.00000000000E+00 -0.17102985788E+04  0.17667466429E+04  0.44302649071E+03 0.  0.
      99925    2    3    3    0    0  0.12481548756E+02 -0.73993820571E+02 -0.13615260412E+04  0.13886981465E+04  0.26286594802E+03 0.  0.
         25    1    3    3    0    0 -0.12481548756E+02  0.73993820571E+02 -0.34877253756E+03  0.37804849636E+03  0.12509000000E+03 0.  0.
         25    1    4    4    0    0 -0.16877290311E+02 -0.23834746750E+01 -0.63800810460E+03  0.65037863857E+03  0.12509000000E+03 0.  0.
         25    1    4    4    0    0  0.29358839067E+02 -0.71610345896E+02 -0.72351793662E+03  0.73831950793E+03  0.12509000000E+03 0.  0.
<mgrwt>
<rscale>  2 0.44302649E+03</rscale>
<asrwt>0</asrwt>
<pdfrwt beam="1">  1       21 0.41505931E-02 0.44302649E+03</pdfrwt>
<pdfrwt beam="2">  1       21 0.25566508E+00 0.44302649E+03</pdfrwt>
<totfact> 0.19673195E+04</totfact>
</mgrwt>
</event>
<event>
 7    0  0.4691878E-002  0.4454253E+03  0.7546771E-02  0.1029095E+00
         21   -1    0    0  502  501  0.00000000000E+00  0.00000000000E+00  0.32645516531E+03  0.32645516531E+03  0.00000000000E+00 0.  1.
         21   -1    0    0  501  502 -0.00000000000E+00 -0.00000000000E+00 -0.15193796974E+03  0.15193796974E+03  0.00000000000E+00 0.  1.
      99926    2    1    2    0    0  0.00000000000E+00  0.00000000000E+00  0.17451719557E+03  0.47839313504E+03  0.44542534740E+03 0.  0.
      99925    2    3    3    0    0 -0.24983350383E+02 -0.10067360615E+03  0.10360436826E+03  0.30109259937E+03  0.26298963003E+03 0.  0.
         25    1    4    4    0    0 -0.11368143081E+02 -0.93257352019E+02  0.51482650672E+02  0.16469407944E+03  0.12509000000E+03 0.  0.
         25    1    3    3    0    0  0.24983350383E+02  0.10067360615E+03  0.70912827310E+02  0.17730053567E+03  0.12509000000E+03 0.  0.
         25    1    4    4    0    0 -0.13615207303E+02 -0.74162541315E+01  0.52121717588E+02  0.13639851993E+03  0.12509000000E+03 0.  0.
<mgrwt>
<rscale>  2 0.44542535E+03</rscale>
<asrwt>0</asrwt>
<pdfrwt beam="1">  1       21 0.48008112E-01 0.44542535E+03</pdfrwt>
<pdfrwt beam="2">  1       21 0.22343819E-01 0.44542535E+03</pdfrwt>
<totfact> 0.72146809E+04</totfact>
</mgrwt>
</event>
<event>
 7    0  0.4691878E-002  0.4532111E+03  0.7546771E-02  0.1026769E+00
         21   -1    0    0  502  501  0.00000000000E+00  0.00000000000E+00  0.24203367201E+04  0.24203367201E+04  0.00000000000E+00 0. -1.
         21   -1    0    0  501  502 -0.00000000000E+00 -0.00000000000E+00 -0.21216085906E+02  0.21216085906E+02  0.00000000000E+00 0. -1.
      99926    2    1    2    0    0  0.17763568394E-14  0.71054273576E-14  0.23991206342E+04  0.24415528060E+04  0.45321108449E+03 0.  0.
      99925    2    3    3    0    0  0.15413171798E+02 -0.54768561562E+02  0.20290655367E+04  0.20468054888E+04  0.26280904731E+03 0.  0.
         25    1    4    4    0    0  0.23744232851E+02 -0.62381629241E+02  0.96697106873E+03  0.97731049934E+03  0.12509000000E+03 0.  0.
         25    1    3    3    0    0 -0.15413171798E+02  0.54768561562E+02  0.37005509750E+03  0.39474731726E+03  0.12509000000E+03 0.  0.
         25    1    4    4    0    0 -0.83310610529E+01  0.76130676789E+01  0.10620944680E+04  0.10694949894E+04  0.12509000000E+03 0.  0.
<mgrwt>
<rscale>  2 0.45321108E+03</rscale>
<asrwt>0</asrwt>
<pdfrwt beam="1">  1       21 0.35593168E+00 0.45321108E+03</pdfrwt>
<pdfrwt beam="2">  1       21 0.31200143E-02 0.45321108E+03</pdfrwt>
<totfact> 0.78571924E+03</totfact>
</mgrwt>
</event>
<event>
 7    0  0.4691878E-002  0.4271140E+03  0.7546771E-02  0.1034776E+00
         21   -1    0    0  502  501  0.00000000000E+00  0.00000000000E+00  0.15315724552E+03  0.15315724552E+03  0.00000000000E+00 0.  1.
         21   -1    0    0  501  502 -0.00000000000E+00 -0.00000000000E+00 -0.29777631276E+03  0.29777631276E+03  0.00000000000E+00 0.  1.
      99926    2    1    2    0    0  0.00000000000E+00  0.00000000000E+00 -0.14461906724E+03  0.45093355828E+03  0.42711403556E+03 0.  0.
      99925    2    3    3    0    0  0.41312659550E+02  0.43921304765E+02 -0.31132124637E+02  0.27159418420E+03  0.26297979933E+03 0.  0.
         25    1    3    3    0    0 -0.41312659550E+02 -0.43921304765E+02 -0.11348694260E+03  0.17933937407E+03  0.12509000000E+03 0.  0.
         25    1    4    4    0    0  0.34694255661E+02  0.60908230994E+02 -0.16978046983E+02  0.14439274967E+03  0.12509000000E+03 0.  0.
         25    1    4    4    0    0  0.66184038884E+01 -0.16986926229E+02 -0.14154077654E+02  0.12720143453E+03  0.12509000000E+03 0.  0.
<mgrwt>
<rscale>  2 0.42711404E+03</rscale>
<asrwt>0</asrwt>
<pdfrwt beam="1">  1       21 0.22523125E-01 0.42711404E+03</pdfrwt>
<pdfrwt beam="2">  1       21 0.43790634E-01 0.42711404E+03</pdfrwt>
<totfact> 0.86489421E+04</totfact>
</mgrwt>
</event>
<event>
 7    0  0.4691878E-002  0.4595973E+03  0.7546771E-02  0.1024898E+00
         21   -1    0    0  502  501  0.00000000000E+00  0.00000000000E+00  0.29074917222E+03  0.29074917222E+03  0.00000000000E+00 0.  1.
         21   -1    0    0  501  502 -0.00000000000E+00 -0.00000000000E+00 -0.18162533221E+03  0.18162533221E+03  0.00000000000E+00 0.  1.
      99926    2    1    2    0    0  0.35527136788E-14  0.00000000000E+00  0.10912384001E+03  0.47237450443E+03  0.45959728021E+03 0.  0.
      99925    2    3    3    0    0  0.18840298105E+02 -0.10439469466E+03  0.12011475322E+03  0.30799227492E+03  0.26301801909E+03 0.  0.
         25    1    4    4    0    0  0.21709780021E+00 -0.95109475931E+01  0.55968472087E+02  0.13736987742E+03  0.12509000000E+03 0.  0.
         25    1    4    4    0    0  0.18623200304E+02 -0.94883747064E+02  0.64146281129E+02  0.17062239750E+03  0.12509000000E+03 0.  0.
         25    1    3    3    0    0 -0.18840298105E+02  0.10439469466E+03 -0.10990913203E+02  0.16438222951E+03  0.12509000000E+03 0.  0.
<mgrwt>
<rscale>  2 0.45959728E+03</rscale>
<asrwt>0</asrwt>
<pdfrwt beam="1">  1       21 0.42757231E-01 0.45959728E+03</pdfrwt>
<pdfrwt beam="2">  1       21 0.26709608E-01 0.45959728E+03</pdfrwt>
<totfact> 0.64861693E+04</totfact>
</mgrwt>
</event>
<event>
 7    0  0.4691878E-002  0.4680857E+03  0.7546771E-02  0.1022462E+00
         21   -1    0    0  502  501  0.00000000000E+00  0.00000000000E+00  0.14249507778E+03  0.14249507778E+03  0.00000000000E+00 0.  1.
         21   -1    0    0  501  502 -0.00000000000E+00 -0.00000000000E+00 -0.38440665416E+03  0.38440665416E+03  0.00000000000E+00 0.  1.
      99926    2    1    2    0    0 -0.14210854715E-13  0.14210854715E-13 -0.24191157638E+03  0.52690173195E+03  0.46808570192E+03 0.  0.
      99925    2    3    3    0    0 -0.96204559282E+02  0.72701171677E+02 -0.18794782836E+03  0.34496665619E+03  0.26293883340E+03 0.  0.
         25    1    4    4    0    0 -0.57606570630E+02  0.73405413340E+02 -0.12370592093E+03  0.19914199622E+03  0.12509000000E+03 0.  0.
         25    1    4    4    0    0 -0.38597988653E+02 -0.70424166307E+00 -0.64241907434E+02  0.14582465997E+03  0.12509000000E+03 0.  0.
         25    1    3    3    0    0  0.96204559282E+02 -0.72701171677E+02 -0.53963748021E+02  0.18193507576E+03  0.12509000000E+03 0.  0.
<mgrwt>
<rscale>  2 0.46808570E+03</rscale>
<asrwt>0</asrwt>
<pdfrwt beam="1">  1       21 0.20955159E-01 0.46808570E+03</pdfrwt>
<pdfrwt beam="2">  1       21 0.56530389E-01 0.46808570E+03</pdfrwt>
<totfact> 0.57241576E+04</totfact>
</mgrwt>
</event>
<event>
 7    0  0.4691878E-002  0.4483393E+03  0.7546771E-02  0.1028218E+00
         21   -1    0    0  502  501  0.00000000000E+00  0.00000000000E+00  0.39907887723E+03  0.39907887723E+03  0.00000000000E+00 0. -1.
         21   -1    0    0  501  502 -0.00000000000E+00 -0.00000000000E+00 -0.12592005552E+03  0.12592005552E+03  0.00000000000E+00 0. -1.
      99926    2    1    2    0    0  0.00000000000E+00  0.00000000000E+00  0.27315882172E+03  0.52499893275E+03  0.44833931068E+03 0.  0.
      99925    2    3    3    0    0  0.38997423602E+02  0.96137060636E+02  0.14336824081E+03  0.31701759592E+03  0.26302579755E+03 0.  0.
         25    1    3    3    0    0 -0.38997423602E+02 -0.96137060636E+02  0.12979058090E+03  0.20798133682E+03  0.12509000000E+03 0.  0.
         25    1    4    4    0    0  0.46469767875E+02  0.20307094080E+02  0.53628791366E+02  0.14524246197E+03  0.12509000000E+03 0.  0.
         25    1    4    4    0    0 -0.74723442733E+01  0.75829966557E+02  0.89739449447E+02  0.17177513395E+03  0.12509000000E+03 0.  0.
<mgrwt>
<rscale>  2 0.44833931E+03</rscale>
<asrwt>0</asrwt>
<pdfrwt beam="1">  1       21 0.58688070E-01 0.44833931E+03</pdfrwt>
<pdfrwt beam="2">  1       21 0.18517655E-01 0.44833931E+03</pdfrwt>
<totfact> 0.67013910E+04</totfact>
</mgrwt>
</event>
<event>
 7    0  0.4691878E-002  0.4631474E+03  0.7546771E-02  0.1023872E+00
         21   -1    0    0  502  501  0.00000000000E+00  0.00000000000E+00  0.59112619837E+02  0.59112619837E+02  0.00000000000E+00 0. -1.
         21   -1    0    0  501  502 -0.00000000000E+00 -0.00000000000E+00 -0.90719017818E+03  0.90719017818E+03  0.00000000000E+00 0. -1.
      99926    2    1    2    0    0  0.00000000000E+00  0.00000000000E+00 -0.84807755834E+03  0.96630279802E+03  0.46314744142E+03 0.  0.
      99925    2    3    3    0    0 -0.58479875317E+02  0.10272089901E+03 -0.47876912495E+03  0.55886236558E+03  0.26293685505E+03 0.  0.
         25    1    4    4    0    0  0.29744444986E+01  0.28905444764E+02 -0.18134663912E+03  0.22221269918E+03  0.12509000000E+03 0.  0.
         25    1    4    4    0    0 -0.61454319816E+02  0.73815454242E+02 -0.29742248583E+03  0.33664966640E+03  0.12509000000E+03 0.  0.
         25    1    3    3    0    0  0.58479875317E+02 -0.10272089901E+03 -0.36930843339E+03  0.40744043244E+03  0.12509000000E+03 0.  0.
<mgrwt>
<rscale>  2 0.46314744E+03</rscale>
<asrwt>0</asrwt>
<pdfrwt beam="1">  1       21 0.86930329E-02 0.46314744E+03</pdfrwt>
<pdfrwt beam="2">  1       21 0.13341031E+00 0.46314744E+03</pdfrwt>
<totfact> 0.38008128E+04</totfact>
</mgrwt>
</event>
<event>
 7    0  0.4691878E-002  0.4458210E+03  0.7546771E-02  0.1028976E+00
         21   -1    0    0  502  501  0.00000000000E+00  0.00000000000E+00  0.24026892478E+03  0.24026892478E+03  0.00000000000E+00 0. -1.
         21   -1    0    0  501  502 -0.00000000000E+00 -0.00000000000E+00 -0.20680611384E+03  0.20680611384E+03  0.00000000000E+00 0. -1.
      99926    2    1    2    0    0  0.00000000000E+00  0.00000000000E+00  0.33462810939E+02  0.44707503861E+03  0.44582096231E+03 0.  0.
      99925    2    3    3    0    0  0.53287531512E+02 -0.89322615027E+02  0.29665249273E+02  0.28434821186E+03  0.26297488094E+03 0.  0.
         25    1    3    3    0    0 -0.53287531512E+02  0.89322615027E+02  0.37975616664E+01  0.16272682675E+03  0.12509000000E+03 0.  0.
         25    1    4    4    0    0  0.27322351520E+02 -0.59128645128E+02 -0.23011769615E+02  0.14289771590E+03  0.12509000000E+03 0.  0.
         25    1    4    4    0    0  0.25965179992E+02 -0.30193969899E+02  0.52677018888E+02  0.14145049597E+03  0.12509000000E+03 0.  0.
<mgrwt>
<rscale>  2 0.44582096E+03</rscale>
<asrwt>0</asrwt>
<pdfrwt beam="1">  1       21 0.35333666E-01 0.44582096E+03</pdfrwt>
<pdfrwt beam="2">  1       21 0.30412664E-01 0.44582096E+03</pdfrwt>
<totfact> 0.74434129E+04</totfact>
</mgrwt>
</event>
<event>
 7    0  0.4691878E-002  0.4459525E+03  0.7546771E-02  0.1028936E+00
         21   -1    0    0  502  501  0.00000000000E+00  0.00000000000E+00  0.64129166577E+03  0.64129166577E+03  0.00000000000E+00 0. -1.
         21   -1    0    0  501  502 -0.00000000000E+00 -0.00000000000E+00 -0.77528546547E+02  0.77528546547E+02  0.00000000000E+00 0. -1.
      99926    2    1    2    0    0  0.00000000000E+00  0.00000000000E+00  0.56376311922E+03  0.71882021231E+03  0.44595251209E+03 0.  0.
      99925    2    3    3    0    0  0.58089389982E+02  0.86891334710E+02  0.35264385839E+03  0.45209313894E+03  0.26288026579E+03 0.  0.
         25    1    4    4    0    0  0.10595707149E+00  0.50239299877E+02  0.12745201593E+03  0.18551421224E+03  0.12509000000E+03 0.  0.
         25    1    3    3    0    0 -0.58089389982E+02 -0.86891334710E+02  0.21111926083E+03  0.26672707337E+03  0.12509000000E+03 0.  0.
         25    1    4    4    0    0  0.57983432911E+02  0.36652034833E+02  0.22519184247E+03  0.26657892670E+03  0.12509000000E+03 0.  0.
<mgrwt>
<rscale>  2 0.44595251E+03</rscale>
<asrwt>0</asrwt>
<pdfrwt beam="1">  1       21 0.94307595E-01 0.44595251E+03</pdfrwt>
<pdfrwt beam="2">  1       21 0.11401257E-01 0.44595251E+03</pdfrwt>
<totfact> 0.55756274E+04</totfact>
</mgrwt>
</event>
<event>
 7    0  0.4691878E-002  0.4203632E+03  0.7546771E-02  0.1036948E+00
         21   -1    0    0  502  501  0.00000000000E+00  0.00000000000E+00  0.20166953920E+03  0.20166953920E+03  0.00000000000E+00 0. -1.
         21   -1    0    0  501  502 -0.00000000000E+00 -0.00000000000E+00 -0.21905292788E+03  0.21905292788E+03  0.00000000000E+00 0. -1.
      99926    2    1    2    0    0  0.00000000000E+00 -0.35527136788E-14 -0.17383388684E+02  0.42072246709E+03  0.42036319072E+03 0.  0.
      99925    2    3    3    0    0 -0.73966216329E+02  0.19201659770E+02 -0.67128023115E+01  0.27374942735E+03  0.26278124431E+03 0.  0.
         25    1    4    4    0    0 -0.73804577575E+01  0.27040111395E+02  0.18758962686E+02  0.12955711313E+03  0.12509000000E+03 0.  0.
         25    1    3    3    0    0  0.73966216329E+02 -0.19201659770E+02 -0.10670586373E+02  0.14697303974E+03  0.12509000000E+03 0.  0.
         25    1    4    4    0    0 -0.66585758571E+02 -0.78384516246E+01 -0.25471764998E+02  0.14419231422E+03  0.12509000000E+03 0.  0.
<mgrwt>
<rscale>  2 0.42036319E+03</rscale>
<asrwt>0</asrwt>
<pdfrwt beam="1">  1       21 0.29657285E-01 0.42036319E+03</pdfrwt>
<pdfrwt beam="2">  1       21 0.32213666E-01 0.42036319E+03</pdfrwt>
<totfact> 0.94728978E+04</totfact>
</mgrwt>
</event>
<event>
 7    0  0.4691878E-002  0.4554957E+03  0.7546771E-02  0.1026096E+00
         21   -1    0    0  502  501  0.00000000000E+00  0.00000000000E+00  0.16067617473E+03  0.16067617473E+03  0.00000000000E+00 0.  1.
         21   -1    0    0  501  502 -0.00000000000E+00 -0.00000000000E+00 -0.32281744693E+03  0.32281744693E+03  0.00000000000E+00 0.  1.
      99926    2    1    2    0    0  0.00000000000E+00  0.00000000000E+00 -0.16214127220E+03  0.48349362166E+03  0.45549565314E+03 0.  0.
      99925    2    3    3    0    0  0.13186991582E+02 -0.41695125676E+02 -0.21309392688E+03  0.34152157733E+03  0.26327853284E+03 0.  0.
         25    1    4    4    0    0  0.16789093271E+02 -0.11868085586E+02 -0.56307683372E+02  0.13871116903E+03  0.12509000000E+03 0.  0.
         25    1    3    3    0    0 -0.13186991582E+02  0.41695125676E+02  0.50952654683E+02  0.14197204433E+03  0.12509000000E+03 0.  0.
         25    1    4    4    0    0 -0.36021016890E+01 -0.29827040090E+02 -0.15678624351E+03  0.20281040829E+03  0.12509000000E+03 0.  0.
<mgrwt>
<rscale>  2 0.45549565E+03</rscale>
<asrwt>0</asrwt>
<pdfrwt beam="1">  1       21 0.23628850E-01 0.45549565E+03</pdfrwt>
<pdfrwt beam="2">  1       21 0.47473153E-01 0.45549565E+03</pdfrwt>
<totfact> 0.66185865E+04</totfact>
</mgrwt>
</event>
<event>
 7    0  0.4691878E-002  0.4535126E+03  0.7546771E-02  0.1026680E+00
         21   -1    0    0  502  501  0.00000000000E+00  0.00000000000E+00  0.96166841150E+02  0.96166841150E+02  0.00000000000E+00 0.  1.
         21   -1    0    0  501  502 -0.00000000000E+00 -0.00000000000E+00 -0.53467922944E+03  0.53467922944E+03  0.00000000000E+00 0.  1.
      99926    2    1    2    0    0  0.00000000000E+00  0.00000000000E+00 -0.43851238829E+03  0.63084607059E+03  0.45351256884E+03 0.  0.
      99925    2    3    3    0    0  0.22233539178E+02  0.53325212347E+01 -0.12392778642E+03  0.29153243119E+03  0.26288837202E+03 0.  0.
         25    1    4    4    0    0  0.46390625953E+02 -0.18951363148E+01 -0.41970553209E+02  0.13987393308E+03  0.12509000000E+03 0.  0.
         25    1    4    4    0    0 -0.24157086775E+02  0.72276575495E+01 -0.81957233211E+02  0.15165849812E+03  0.12509000000E+03 0.  0.
         25    1    3    3    0    0 -0.22233539178E+02 -0.53325212347E+01 -0.31458460187E+03  0.33931363940E+03  0.12509000000E+03 0.  0.
<mgrwt>
<rscale>  2 0.45351257E+03</rscale>
<asrwt>0</asrwt>
<pdfrwt beam="1">  1       21 0.14142183E-01 0.45351257E+03</pdfrwt>
<pdfrwt beam="2">  1       21 0.78629297E-01 0.45351257E+03</pdfrwt>
<totfact> 0.57490725E+04</totfact>
</mgrwt>
</event>
<event>
 7    0  0.4691878E-002  0.4578022E+03  0.7546771E-02  0.1025421E+00
         21   -1    0    0  502  501  0.00000000000E+00  0.00000000000E+00  0.50016443286E+03  0.50016443286E+03  0.00000000000E+00 0. -1.
         21   -1    0    0  501  502 -0.00000000000E+00 -0.00000000000E+00 -0.10475698627E+03  0.10475698627E+03  0.00000000000E+00 0. -1.
      99926    2    1    2    0    0  0.17763568394E-14  0.35527136788E-14  0.39540744658E+03  0.60492141913E+03  0.45780222205E+03 0.  0.
      99925    2    3    3    0    0 -0.15460485004E+02 -0.17780879202E+02  0.39803782105E+03  0.47760443978E+03  0.26290056609E+03 0.  0.
         25    1    4    4    0    0 -0.21288854303E+02  0.71312131606E+01  0.26103943389E+03  0.29033284979E+03  0.12509000000E+03 0.  0.
         25    1    3    3    0    0  0.15460485004E+02  0.17780879202E+02 -0.26303744656E+01  0.12731697935E+03  0.12509000000E+03 0.  0.
         25    1    4    4    0    0  0.58283692993E+01 -0.24912092362E+02  0.13699838716E+03  0.18727158999E+03  0.12509000000E+03 0.  0.
<mgrwt>
<rscale>  2 0.45780222E+03</rscale>
<asrwt>0</asrwt>
<pdfrwt beam="1">  1       21 0.73553592E-01 0.45780222E+03</pdfrwt>
<pdfrwt beam="2">  1       21 0.15405439E-01 0.45780222E+03</pdfrwt>
<totfact> 0.57101693E+04</totfact>
</mgrwt>
</event>
<event>
 7    0  0.4691878E-002  0.4556058E+03  0.7546771E-02  0.1026063E+00
         21   -1    0    0  502  501  0.00000000000E+00  0.00000000000E+00  0.29625644708E+03  0.29625644708E+03  0.00000000000E+00 0. -1.
         21   -1    0    0  501  502 -0.00000000000E+00 -0.00000000000E+00 -0.17516632446E+03  0.17516632446E+03  0.00000000000E+00 0. -1.
      99926    2    1    2    0    0  0.00000000000E+00  0.00000000000E+00  0.12109012262E+03  0.47142277154E+03  0.45560576349E+03 0.  0.
      99925    2    3    3    0    0 -0.35881177632E+02 -0.10790845619E+03  0.72492143539E+02  0.29552232954E+03  0.26295749191E+03 0.  0.
         25    1    4    4    0    0  0.22233111364E+02 -0.58393632673E+02  0.31167678367E+02  0.14325871650E+03  0.12509000000E+03 0.  0.
         25    1    3    3    0    0  0.35881177632E+02  0.10790845619E+03  0.48597979086E+02  0.17590044200E+03  0.12509000000E+03 0.  0.
         25    1    4    4    0    0 -0.58114288996E+02 -0.49514823520E+02  0.41324465172E+02  0.15226361304E+03  0.12509000000E+03 0.  0.
<mgrwt>
<rscale>  2 0.45560576E+03</rscale>
<asrwt>0</asrwt>
<pdfrwt beam="1">  1       21 0.43567125E-01 0.45560576E+03</pdfrwt>
<pdfrwt beam="2">  1       21 0.25759754E-01 0.45560576E+03</pdfrwt>
<totfact> 0.67007442E+04</totfact>
</mgrwt>
</event>
<event>
 7    0  0.4691878E-002  0.4526893E+03  0.7546771E-02  0.1026923E+00
         21   -1    0    0  502  501  0.00000000000E+00  0.00000000000E+00  0.35190897087E+03  0.35190897087E+03  0.00000000000E+00 0. -1.
         21   -1    0    0  501  502 -0.00000000000E+00 -0.00000000000E+00 -0.14558279986E+03  0.14558279986E+03  0.00000000000E+00 0. -1.
      99926    2    1    2    0    0  0.00000000000E+00  0.00000000000E+00  0.20632617101E+03  0.49749177072E+03  0.45268926770E+03 0.  0.
      99925    2    3    3    0    0  0.47937097635E+02 -0.93519591946E+02  0.16968482114E+03  0.33005827340E+03  0.26287191920E+03 0.  0.
         25    1    4    4    0    0  0.34682445863E+02 -0.25542509704E+02  0.12021893957E+03  0.17876071544E+03  0.12509000000E+03 0.  0.
         25    1    3    3    0    0 -0.47937097635E+02  0.93519591946E+02  0.36641349869E+02  0.16743349733E+03  0.12509000000E+03 0.  0.
         25    1    4    4    0    0  0.13254651772E+02 -0.67977082242E+02  0.49465881571E+02  0.15129755796E+03  0.12509000000E+03 0.  0.
<mgrwt>
<rscale>  2 0.45268927E+03</rscale>
<asrwt>0</asrwt>
<pdfrwt beam="1">  1       21 0.51751319E-01 0.45268927E+03</pdfrwt>
<pdfrwt beam="2">  1       21 0.21409235E-01 0.45268927E+03</pdfrwt>
<totfact> 0.66661642E+04</totfact>
</mgrwt>
</event>
<event>
 7    0  0.4691878E-002  0.4588105E+03  0.7546771E-02  0.1025127E+00
         21   -1    0    0  502  501  0.00000000000E+00  0.00000000000E+00  0.25766119232E+02  0.25766119232E+02  0.00000000000E+00 0.  1.
         21   -1    0    0  501  502 -0.00000000000E+00 -0.00000000000E+00 -0.20424790516E+04  0.20424790516E+04  0.00000000000E+00 0.  1.
      99926    2    1    2    0    0  0.00000000000E+00  0.00000000000E+00 -0.20167129324E+04  0.20682451708E+04  0.45881045661E+03 0.  0.
      99925    2    3    3    0    0  0.88190084989E+02  0.60168146062E+02 -0.10604589303E+04  0.10979529872E+04  0.26368527174E+03 0.  0.
         25    1    3    3    0    0 -0.88190084989E+02 -0.60168146062E+02 -0.95625400210E+03  0.97029218359E+03  0.12509000000E+03 0.  0.
         25    1    4    4    0    0  0.42748058443E+01  0.44999054388E+02 -0.48298602432E+03  0.50096526491E+03  0.12509000000E+03 0.  0.
         25    1    4    4    0    0  0.83915279145E+02  0.15169091674E+02 -0.57747290594E+03  0.59698772233E+03  0.12509000000E+03 0.  0.
<mgrwt>
<rscale>  2 0.45881046E+03</rscale>
<asrwt>0</asrwt>
<pdfrwt beam="1">  1       21 0.37891339E-02 0.45881046E+03</pdfrwt>
<pdfrwt beam="2">  1       21 0.30036467E+00 0.45881046E+03</pdfrwt>
<totfact> 0.12260719E+04</totfact>
</mgrwt>
</event>
<event>
 7    0  0.4691878E-002  0.4252603E+03  0.7546771E-02  0.1035368E+00
         21   -1    0    0  502  501  0.00000000000E+00  0.00000000000E+00  0.10551224279E+04  0.10551224279E+04  0.00000000000E+00 0. -1.
         21   -1    0    0  501  502 -0.00000000000E+00 -0.00000000000E+00 -0.42849611917E+02  0.42849611917E+02  0.00000000000E+00 0. -1.
      99926    2    1    2    0    0  0.00000000000E+00  0.00000000000E+00  0.10122728159E+04  0.10979720398E+04  0.42526032760E+03 0.  0.
      99925    2    3    3    0    0  0.41810969007E+02  0.43406125584E+02  0.80033456149E+03  0.84459962481E+03  0.26302255994E+03 0.  0.
         25    1    4    4    0    0  0.55039649675E+02  0.38243014950E+01  0.44798317657E+03  0.46838063891E+03  0.12509000000E+03 0.  0.
         25    1    4    4    0    0 -0.13228680669E+02  0.39581824089E+02  0.35235138492E+03  0.37621898590E+03  0.12509000000E+03 0.  0.
         25    1    3    3    0    0 -0.41810969007E+02 -0.43406125584E+02  0.21193825444E+03  0.25337241496E+03  0.12509000000E+03 0.  0.
<mgrwt>
<rscale>  2 0.42526033E+03</rscale>
<asrwt>0</asrwt>
<pdfrwt beam="1">  1       21 0.15516505E+00 0.42526033E+03</pdfrwt>
<pdfrwt beam="2">  1       21 0.63014142E-02 0.42526033E+03</pdfrwt>
<totfact> 0.45168354E+04</totfact>
</mgrwt>
</event>
<event>
 7    0  0.4691878E-002  0.4544400E+03  0.7546771E-02  0.1026406E+00
         21   -1    0    0  502  501  0.00000000000E+00  0.00000000000E+00  0.71789655457E+03  0.71789655457E+03  0.00000000000E+00 0.  1.
         21   -1    0    0  501  502 -0.00000000000E+00 -0.00000000000E+00 -0.71916931745E+02  0.71916931745E+02  0.00000000000E+00 0.  1.
      99926    2    1    2    0    0  0.00000000000E+00  0.00000000000E+00  0.64597962283E+03  0.78981348632E+03  0.45443995210E+03 0.  0.
      99925    2    3    3    0    0 -0.28638907936E+02 -0.10711513014E+03  0.37194238045E+03  0.46881853859E+03  0.26297499806E+03 0.  0.
         25    1    4    4    0    0 -0.17067927463E+02 -0.50043050575E+02  0.25078299313E+03  0.28519333583E+03  0.12509000000E+03 0.  0.
         25    1    4    4    0    0 -0.11570980473E+02 -0.57072079565E+02  0.12115938731E+03  0.18362520276E+03  0.12509000000E+03 0.  0.
         25    1    3    3    0    0  0.28638907936E+02  0.10711513014E+03  0.27403724238E+03  0.32099494772E+03  0.12509000000E+03 0.  0.
<mgrwt>
<rscale>  2 0.45443995E+03</rscale>
<asrwt>0</asrwt>
<pdfrwt beam="1">  1       21 0.10557302E+00 0.45443995E+03</pdfrwt>
<pdfrwt beam="2">  1       21 0.10576020E-01 0.45443995E+03</pdfrwt>
<totfact> 0.48474205E+04</totfact>
</mgrwt>
</event>
<event>
 7    0  0.4691878E-002  0.4574881E+03  0.7546771E-02  0.1025512E+00
         21   -1    0    0  502  501  0.00000000000E+00  0.00000000000E+00  0.46868799565E+03  0.46868799565E+03  0.00000000000E+00 0.  1.
         21   -1    0    0  501  502 -0.00000000000E+00 -0.00000000000E+00 -0.11163897421E+03  0.11163897421E+03  0.00000000000E+00 0.  1.
      99926    2    1    2    0    0  0.00000000000E+00  0.35527136788E-14  0.35704902143E+03  0.58032696986E+03  0.45748812907E+03 0.  0.
      99925    2    3    3    0    0 -0.10392037145E+03 -0.25682491603E+02  0.16945622883E+03  0.33073210230E+03  0.26307655924E+03 0.  0.
         25    1    4    4    0    0 -0.26298219097E+02 -0.37563911768E+02  0.56138463017E+02  0.14457412951E+03  0.12509000000E+03 0.  0.
         25    1    3    3    0    0  0.10392037145E+03  0.25682491603E+02  0.18759279260E+03  0.24959486756E+03  0.12509000000E+03 0.  0.
         25    1    4    4    0    0 -0.77622152352E+02  0.11881420164E+02  0.11331776582E+03  0.18615797278E+03  0.12509000000E+03 0.  0.
<mgrwt>
<rscale>  2 0.45748813E+03</rscale>
<asrwt>0</asrwt>
<pdfrwt beam="1">  1       21 0.68924705E-01 0.45748813E+03</pdfrwt>
<pdfrwt beam="2">  1       21 0.16417496E-01 0.45748813E+03</pdfrwt>
<totfact> 0.58741802E+04</totfact>
</mgrwt>
</event>
<event>
 6    0  0.4691878E-002  0.4549899E+03  0.7546771E-02  0.1026244E+00
         21   -1    0    0  502  501  0.00000000000E+00  0.00000000000E+00  0.64421557131E+02  0.64421557131E+02  0.00000000000E+00 0. -1.
         21   -1    0    0  501  502 -0.00000000000E+00 -0.00000000000E+00 -0.80336385729E+03  0.80336385729E+03  0.00000000000E+00 0. -1.
      99926    2    1    2    0    0  0.00000000000E+00  0.17763568394E-14 -0.73894230015E+03  0.86778541442E+03  0.45498989276E+03 0.  0.
         25    1    3    3    0    0 -0.22588265987E+02 -0.17973555779E+02 -0.40402202162E+03  0.42392756518E+03  0.12509000000E+03 0.  0.
         25    1    3    3    0    0 -0.41730600744E+02  0.91534603762E+01 -0.23982942586E+03  0.27384464662E+03  0.12509000000E+03 0.  0.
         25    1    3    3    0    0  0.64318866731E+02  0.88200954026E+01 -0.95090852681E+02  0.17001320262E+03  0.12509000000E+03 0.  0.
<mgrwt>
<rscale>  2 0.45498989E+03</rscale>
<asrwt>0</asrwt>
<pdfrwt beam="1">  1       21 0.94737591E-02 0.45498989E+03</pdfrwt>
<pdfrwt beam="2">  1       21 0.11814173E+00 0.45498989E+03</pdfrwt>
<totfact> 0.44657365E+04</totfact>
</mgrwt>
</event>
<event>
 7    0  0.4691878E-002  0.4422822E+03  0.7546771E-02  0.1030049E+00
         21   -1    0    0  502  501  0.00000000000E+00  0.00000000000E+00  0.42698662770E+02  0.42698662770E+02  0.00000000000E+00 0. -1.
         21   -1    0    0  501  502 -0.00000000000E+00 -0.00000000000E+00 -0.11453140776E+04  0.11453140776E+04  0.00000000000E+00 0. -1.
      99926    2    1    2    0    0 -0.35527136788E-14  0.35527136788E-14 -0.11026154148E+04  0.11880127404E+04  0.44228217041E+03 0.  0.
      99925    2    3    3    0    0 -0.25306270833E+02  0.19651022672E+02 -0.95886065282E+03  0.99477840146E+03  0.26295198506E+03 0.  0.
         25    1    4    4    0    0 -0.13472255259E+02 -0.29303187387E+02 -0.42899097737E+03  0.44801891168E+03  0.12509000000E+03 0.  0.
         25    1    3    3    0    0  0.25306270833E+02 -0.19651022672E+02 -0.14375476203E+03  0.19323433893E+03  0.12509000000E+03 0.  0.
         25    1    4    4    0    0 -0.11834015575E+02  0.48954210059E+02 -0.52986967545E+03  0.54675948978E+03  0.12509000000E+03 0.  0.
<mgrwt>
<rscale>  2 0.44228217E+03</rscale>
<asrwt>0</asrwt>
<pdfrwt beam="1">  1       21 0.62792145E-02 0.44228217E+03</pdfrwt>
<pdfrwt beam="2">  1       21 0.16842856E+00 0.44228217E+03</pdfrwt>
<totfact> 0.35972410E+04</totfact>
</mgrwt>
</event>
<event>
 7    0  0.4691878E-002  0.5340093E+03  0.7546771E-02  0.1005264E+00
         21   -1    0    0  502  501  0.00000000000E+00  0.00000000000E+00  0.15301835258E+04  0.15301835258E+04  0.00000000000E+00 0.  1.
         21   -1    0    0  501  502 -0.00000000000E+00 -0.00000000000E+00 -0.46590146775E+02  0.46590146775E+02  0.00000000000E+00 0.  1.
      99926    2    1    2    0    0  0.00000000000E+00 -0.71054273576E-14  0.14835933791E+04  0.15767736726E+04  0.53400926981E+03 0.  0.
      99925    2    3    3    0    0 -0.14771241473E+03  0.30558254374E+02  0.11559002009E+04  0.11949581523E+04  0.26280591152E+03 0.  0.
         25    1    3    3    0    0  0.14771241473E+03 -0.30558254374E+02  0.32769317820E+03  0.38181552026E+03  0.12509000000E+03 0.  0.
         25    1    4    4    0    0 -0.88778913593E+02 -0.20836922458E+01  0.46671576559E+03  0.49128113257E+03  0.12509000000E+03 0.  0.
         25    1    4    4    0    0 -0.58933501139E+02  0.32641946620E+02  0.68918443527E+03  0.70367701977E+03  0.12509000000E+03 0.  0.
<mgrwt>
<rscale>  2 0.53400927E+03</rscale>
<asrwt>0</asrwt>
<pdfrwt beam="1">  1       21 0.22502696E+00 0.53400927E+03</pdfrwt>
<pdfrwt beam="2">  1       21 0.68514932E-02 0.53400927E+03</pdfrwt>
<totfact> 0.12416767E+04</totfact>
</mgrwt>
</event>
<event>
 7    0  0.4691878E-002  0.4677570E+03  0.7546771E-02  0.1022555E+00
         21   -1    0    0  502  501  0.00000000000E+00  0.00000000000E+00  0.12044400211E+04  0.12044400211E+04  0.00000000000E+00 0.  1.
         21   -1    0    0  501  502 -0.00000000000E+00 -0.00000000000E+00 -0.45414586971E+02  0.45414586971E+02  0.00000000000E+00 0.  1.
      99926    2    1    2    0    0 -0.35527136788E-14  0.00000000000E+00  0.11590254341E+04  0.12498546081E+04  0.46775697148E+03 0.  0.
      99925    2    3    3    0    0 -0.19991131316E+02  0.21115670016E+02  0.39731581035E+03  0.47739452761E+03  0.26305924235E+03 0.  0.
         25    1    4    4    0    0 -0.37508016568E+02 -0.13362592176E+02  0.16647242628E+03  0.21200468624E+03  0.12509000000E+03 0.  0.
         25    1    4    4    0    0  0.17516885252E+02  0.34478262193E+02  0.23084338407E+03  0.26538984137E+03  0.12509000000E+03 0.  0.
         25    1    3    3    0    0  0.19991131316E+02 -0.21115670016E+02  0.76170962380E+03  0.77246008048E+03  0.12509000000E+03 0.  0.
<mgrwt>
<rscale>  2 0.46775697E+03</rscale>
<asrwt>0</asrwt>
<pdfrwt beam="1">  1       21 0.17712351E+00 0.46775697E+03</pdfrwt>
<pdfrwt beam="2">  1       21 0.66786165E-02 0.46775697E+03</pdfrwt>
<totfact> 0.27746940E+04</totfact>
</mgrwt>
</event>
<event>
 7    0  0.4691878E-002  0.4691962E+03  0.7546771E-02  0.1022147E+00
         21   -1    0    0  502  501  0.00000000000E+00  0.00000000000E+00  0.88342646507E+03  0.88342646507E+03  0.00000000000E+00 0. -1.
         21   -1    0    0  501  502 -0.00000000000E+00 -0.00000000000E+00 -0.62298647788E+02  0.62298647788E+02  0.00000000000E+00 0. -1.
      99926    2    1    2    0    0  0.00000000000E+00  0.71054273576E-14  0.82112781728E+03  0.94572511286E+03  0.46919622417E+03 0.  0.
      99925    2    3    3    0    0  0.60792306271E+02  0.57696458857E+02  0.70011567952E+03  0.75255153430E+03  0.26295866824E+03 0.  0.
         25    1    3    3    0    0 -0.60792306271E+02 -0.57696458857E+02  0.12101213776E+03  0.19317357855E+03  0.12509000000E+03 0.  0.
         25    1    4    4    0    0  0.35329733966E+02 -0.96049845646E+01  0.36947453106E+03  0.39178997311E+03  0.12509000000E+03 0.  0.
         25    1    4    4    0    0  0.25462572304E+02  0.67301443422E+02  0.33064114846E+03  0.36076156119E+03  0.12509000000E+03 0.  0.
<mgrwt>
<rscale>  2 0.46919622E+03</rscale>
<asrwt>0</asrwt>
<pdfrwt beam="1">  1       21 0.12991565E+00 0.46919622E+03</pdfrwt>
<pdfrwt beam="2">  1       21 0.91615664E-02 0.46919622E+03</pdfrwt>
<totfact> 0.37028050E+04</totfact>
</mgrwt>
</event>
<event>
 7    0  0.4691878E-002  0.4594769E+03  0.7546771E-02  0.1024933E+00
         21   -1    0    0  502  501  0.00000000000E+00  0.00000000000E+00  0.16043852809E+04  0.16043852809E+04  0.00000000000E+00 0.  1.
         21   -1    0    0  501  502 -0.00000000000E+00 -0.00000000000E+00 -0.32897184201E+02  0.32897184201E+02  0.00000000000E+00 0.  1.
      99926    2    1    2    0    0  0.00000000000E+00  0.00000000000E+00  0.15714880967E+04  0.16372824651E+04  0.45947691178E+03 0.  0.
      99925    2    3    3    0    0  0.18901363513E+02  0.60538042348E+02  0.63315135482E+03  0.68852250317E+03  0.26298380775E+03 0.  0.
         25    1    4    4    0    0  0.35803968802E+02  0.25488005901E+02  0.39582469019E+03  0.41744012276E+03  0.12509000000E+03 0.  0.
         25    1    3    3    0    0 -0.18901363513E+02 -0.60538042348E+02  0.93833674185E+03  0.94875996191E+03  0.12509000000E+03 0.  0.
         25    1    4    4    0    0 -0.16902605289E+02  0.35050036448E+02  0.23732666463E+03  0.27108238040E+03  0.12509000000E+03 0.  0.
<mgrwt>
<rscale>  2 0.45947691E+03</rscale>
<asrwt>0</asrwt>
<pdfrwt beam="1">  1       21 0.23593896E+00 0.45947691E+03</pdfrwt>
<pdfrwt beam="2">  1       21 0.48378223E-02 0.45947691E+03</pdfrwt>
<totfact> 0.19899489E+04</totfact>
</mgrwt>
</event>
<event>
 7    0  0.4691878E-002  0.4557249E+03  0.7546771E-02  0.1026028E+00
         21   -1    0    0  502  501  0.00000000000E+00  0.00000000000E+00  0.70555604577E+02  0.70555604577E+02  0.00000000000E+00 0. -1.
         21   -1    0    0  501  502 -0.00000000000E+00 -0.00000000000E+00 -0.73589182176E+03  0.73589182176E+03  0.00000000000E+00 0. -1.
      99926    2    1    2    0    0  0.00000000000E+00  0.00000000000E+00 -0.66533621718E+03  0.80644742633E+03  0.45572488362E+03 0.  0.
      99925    2    3    3    0    0  0.68132700503E+02 -0.89819913724E+02 -0.44790536814E+03  0.53143221949E+03  0.26285224619E+03 0.  0.
         25    1    3    3    0    0 -0.68132700503E+02  0.89819913724E+02 -0.21743084904E+03  0.27501520684E+03  0.12509000000E+03 0.  0.
         25    1    4    4    0    0 -0.57716521266E+01 -0.48082836139E+02 -0.19203962324E+03  0.23424772377E+03  0.12509000000E+03 0.  0.
         25    1    4    4    0    0  0.73904352629E+02 -0.41737077585E+02 -0.25586574490E+03  0.29718449572E+03  0.12509000000E+03 0.  0.
<mgrwt>
<rscale>  2 0.45572488E+03</rscale>
<asrwt>0</asrwt>
<pdfrwt beam="1">  1       21 0.10375823E-01 0.45572488E+03</pdfrwt>
<pdfrwt beam="2">  1       21 0.10821939E+00 0.45572488E+03</pdfrwt>
<totfact> 0.47185544E+04</totfact>
</mgrwt>
</event>
<event>
 7    0  0.4691878E-002  0.4553112E+03  0.7546771E-02  0.1026150E+00
         21   -1    0    0  502  501  0.00000000000E+00  0.00000000000E+00  0.33749135181E+03  0.33749135181E+03  0.00000000000E+00 0. -1.
         21   -1    0    0  501  502 -0.00000000000E+00 -0.00000000000E+00 -0.15356565956E+03  0.15356565956E+03  0.00000000000E+00 0. -1.
      99926    2    1    2    0    0  0.17763568394E-14  0.14210854715E-13  0.18392569224E+03  0.49105701137E+03  0.45531124316E+03 0.  0.
      99925    2    3    3    0    0 -0.10269879269E+02 -0.11104200225E+03  0.93452444290E+02  0.30061354632E+03  0.26305768988E+03 0.  0.
         25    1    4    4    0    0  0.28071325710E+01 -0.87979959311E+02  0.78349696115E+02  0.17185614977E+03  0.12509000000E+03 0.  0.
         25    1    4    4    0    0 -0.13077011840E+02 -0.23062042943E+02  0.15102748175E+02  0.12875739655E+03  0.12509000000E+03 0.  0.
         25    1    3    3    0    0  0.10269879269E+02  0.11104200225E+03  0.90473247954E+02  0.19044346505E+03  0.12509000000E+03 0.  0.
<mgrwt>
<rscale>  2 0.45531124E+03</rscale>
<asrwt>0</asrwt>
<pdfrwt beam="1">  1       21 0.49631081E-01 0.45531124E+03</pdfrwt>
<pdfrwt beam="2">  1       21 0.22583185E-01 0.45531124E+03</pdfrwt>
<totfact> 0.65741023E+04</totfact>
</mgrwt>
</event>
<event>
 7    0  0.4691878E-002  0.4536386E+03  0.7546771E-02  0.1026642E+00
         21   -1    0    0  502  501  0.00000000000E+00  0.00000000000E+00  0.17677059386E+02  0.17677059386E+02  0.00000000000E+00 0. -1.
         21   -1    0    0  501  502 -0.00000000000E+00 -0.00000000000E+00 -0.29103824306E+04  0.29103824306E+04  0.00000000000E+00 0. -1.
      99926    2    1    2    0    0 -0.17763568394E-14  0.00000000000E+00 -0.28927053712E+04  0.29280594900E+04  0.45363863620E+03 0.  0.
      99925    2    3    3    0    0  0.11704028694E+02  0.43696710160E+02 -0.24832421182E+04  0.24975318481E+04  0.26292114382E+03 0.  0.
         25    1    4    4    0    0 -0.24461835522E+02  0.39524657030E+01 -0.13922871623E+04  0.13981148214E+04  0.12509000000E+03 0.  0.
         25    1    3    3    0    0 -0.11704028694E+02 -0.43696710160E+02 -0.40946325302E+03  0.43052764190E+03  0.12509000000E+03 0.  0.
         25    1    4    4    0    0  0.36165864216E+02  0.39744244457E+02 -0.10909549559E+04  0.10994170267E+04  0.12509000000E+03 0.  0.
<mgrwt>
<rscale>  2 0.45363864E+03</rscale>
<asrwt>0</asrwt>
<pdfrwt beam="1">  1       21 0.25995714E-02 0.45363864E+03</pdfrwt>
<pdfrwt beam="2">  1       21 0.42799678E+00 0.45363864E+03</pdfrwt>
<totfact> 0.37072618E+03</totfact>
</mgrwt>
</event>
<event>
 7    0  0.4691878E-002  0.4567747E+03  0.7546771E-02  0.1025721E+00
         21   -1    0    0  502  501  0.00000000000E+00  0.00000000000E+00  0.19689479469E+03  0.19689479469E+03  0.00000000000E+00 0. -1.
         21   -1    0    0  501  502 -0.00000000000E+00 -0.00000000000E+00 -0.26491704984E+03  0.26491704984E+03  0.00000000000E+00 0. -1.
      99926    2    1    2    0    0  0.71054273576E-14  0.00000000000E+00 -0.68022255149E+02  0.46181184453E+03  0.45677472845E+03 0.  0.
      99925    2    3    3    0    0  0.60963795235E+02 -0.17724732330E+02  0.53962345577E+02  0.27591267460E+03  0.26303064232E+03 0.  0.
         25    1    3    3    0    0 -0.60963795235E+02  0.17724732330E+02 -0.12198460073E+03  0.18589916993E+03  0.12509000000E+03 0.  0.
         25    1    4    4    0    0  0.10257322551E+01  0.18643077447E+02  0.15319795458E+02  0.12740023821E+03  0.12509000000E+03 0.  0.
         25    1    4    4    0    0  0.59938062980E+02 -0.36367809777E+02  0.38642550119E+02  0.14851243639E+03  0.12509000000E+03 0.  0.
<mgrwt>
<rscale>  2 0.45677473E+03</rscale>
<asrwt>0</asrwt>
<pdfrwt beam="1">  1       21 0.28955117E-01 0.45677473E+03</pdfrwt>
<pdfrwt beam="2">  1       21 0.38958390E-01 0.45677473E+03</pdfrwt>
<totfact> 0.67094115E+04</totfact>
</mgrwt>
</event>
<event>
 6    0  0.4691878E-002  0.4448413E+03  0.7546771E-02  0.1029272E+00
         21   -1    0    0  502  501  0.00000000000E+00  0.00000000000E+00  0.25918193220E+03  0.25918193220E+03  0.00000000000E+00 0. -1.
         21   -1    0    0  501  502 -0.00000000000E+00 -0.00000000000E+00 -0.19087343978E+03  0.19087343978E+03  0.00000000000E+00 0. -1.
      99926    2    1    2    0    0  0.71054273576E-14  0.00000000000E+00  0.68308492417E+02  0.45005537197E+03  0.44484130621E+03 0.  0.
         25    1    3    3    0    0  0.37886591448E+02 -0.25680263751E+01  0.89460171023E+02  0.15840649883E+03  0.12509000000E+03 0.  0.
         25    1    3    3    0    0 -0.27857527783E+02  0.66861184603E+02 -0.38490363184E+02  0.14958434416E+03  0.12509000000E+03 0.  0.
         25    1    3    3    0    0 -0.10029063665E+02 -0.64293158228E+02  0.17338684578E+02  0.14206452899E+03  0.12509000000E+03 0.  0.
<mgrwt>
<rscale>  2 0.44484131E+03</rscale>
<asrwt>0</asrwt>
<pdfrwt beam="1">  1       21 0.38114990E-01 0.44484131E+03</pdfrwt>
<pdfrwt beam="2">  1       21 0.28069624E-01 0.44484131E+03</pdfrwt>
<totfact> 0.74789049E+04</totfact>
</mgrwt>
</event>
<event>
 7    0  0.4691878E-002  0.4524970E+03  0.7546771E-02  0.1026980E+00
         21   -1    0    0  502  501  0.00000000000E+00  0.00000000000E+00  0.17174116975E+03  0.17174116975E+03  0.00000000000E+00 0. -1.
         21   -1    0    0  501  502 -0.00000000000E+00 -0.00000000000E+00 -0.29805534856E+03  0.29805534856E+03  0.00000000000E+00 0. -1.
      99926    2    1    2    0    0  0.00000000000E+00  0.35527136788E-14 -0.12631417881E+03  0.46979651830E+03  0.45249695783E+03 0.  0.
      99925    2    3    3    0    0 -0.10367043342E+03 -0.21278308506E+02 -0.45575303042E+02  0.28713125248E+03  0.26299605078E+03 0.  0.
         25    1    4    4    0    0 -0.88571135225E+02 -0.23953884167E+02 -0.68281289408E+01  0.15528285806E+03  0.12509000000E+03 0.  0.
         25    1    3    3    0    0  0.10367043342E+03  0.21278308506E+02 -0.80738875765E+02  0.18266526582E+03  0.12509000000E+03 0.  0.
         25    1    4    4    0    0 -0.15099298194E+02  0.26755756608E+01 -0.38747174101E+02  0.13184839442E+03  0.12509000000E+03 0.  0.
<mgrwt>
<rscale>  2 0.45249696E+03</rscale>
<asrwt>0</asrwt>
<pdfrwt beam="1">  1       21 0.25256055E-01 0.45249696E+03</pdfrwt>
<pdfrwt beam="2">  1       21 0.43831668E-01 0.45249696E+03</pdfrwt>
<totfact> 0.68807121E+04</totfact>
</mgrwt>
</event>
<event>
 7    0  0.4691878E-002  0.4236213E+03  0.7546771E-02  0.1035894E+00
         21   -1    0    0  502  501  0.00000000000E+00  0.00000000000E+00  0.21336721553E+03  0.21336721553E+03  0.00000000000E+00 0.  1.
         21   -1    0    0  501  502 -0.00000000000E+00 -0.00000000000E+00 -0.21026542760E+03  0.21026542760E+03  0.00000000000E+00 0.  1.
      99926    2    1    2    0    0  0.71054273576E-14  0.71054273576E-14  0.31017879343E+01  0.42363264313E+03  0.42362128752E+03 0.  0.
      99925    2    3    3    0    0 -0.60256288240E+02 -0.32689523461E+02 -0.39859829967E+02  0.27466071984E+03  0.26296440778E+03 0.  0.
         25    1    4    4    0    0  0.15707453879E+01  0.82304084002E+01 -0.68973805919E+01  0.12555990133E+03  0.12509000000E+03 0.  0.
         25    1    4    4    0    0 -0.61827033628E+02 -0.40919931861E+02 -0.32962449375E+02  0.14910081851E+03  0.12509000000E+03 0.  0.
         25    1    3    3    0    0  0.60256288240E+02  0.32689523461E+02  0.42961617901E+02  0.14897192329E+03  0.12509000000E+03 0.  0.
<mgrwt>
<rscale>  2 0.42362129E+03</rscale>
<asrwt>0</asrwt>
<pdfrwt beam="1">  1       21 0.31377532E-01 0.42362129E+03</pdfrwt>
<pdfrwt beam="2">  1       21 0.30921386E-01 0.42362129E+03</pdfrwt>
<totfact> 0.91835186E+04</totfact>
</mgrwt>
</event>
<event>
 7    0  0.4691878E-002  0.4542562E+03  0.7546771E-02  0.1026460E+00
         21   -1    0    0  502  501  0.00000000000E+00  0.00000000000E+00  0.10546552452E+03  0.10546552452E+03  0.00000000000E+00 0.  1.
         21   -1    0    0  501  502 -0.00000000000E+00 -0.00000000000E+00 -0.48913786345E+03  0.48913786345E+03  0.00000000000E+00 0.  1.
      99926    2    1    2    0    0  0.14210854715E-13  0.00000000000E+00 -0.38367233893E+03  0.59460338797E+03  0.45425623312E+03 0.  0.
      99925    2    3    3    0    0  0.10016261568E+03  0.20166160133E+02 -0.30361058144E+03  0.41433520801E+03  0.26278328683E+03 0.  0.
         25    1    3    3    0    0 -0.10016261568E+03 -0.20166160133E+02 -0.80061757489E+02  0.18026817996E+03  0.12509000000E+03 0.  0.
         25    1    4    4    0    0  0.85814684155E+02  0.81671767257E+00 -0.13543378790E+03  0.20335841770E+03  0.12509000000E+03 0.  0.
         25    1    4    4    0    0  0.14347931529E+02  0.19349442460E+02 -0.16817679354E+03  0.21097679031E+03  0.12509000000E+03 0.  0.
<mgrwt>
<rscale>  2 0.45425623E+03</rscale>
<asrwt>0</asrwt>
<pdfrwt beam="1">  1       21 0.15509636E-01 0.45425623E+03</pdfrwt>
<pdfrwt beam="2">  1       21 0.71932039E-01 0.45425623E+03</pdfrwt>
<totfact> 0.59359801E+04</totfact>
</mgrwt>
</event>
<event>
 7    0  0.4691878E-002  0.4549687E+03  0.7546771E-02  0.1026251E+00
         21   -1    0    0  502  501  0.00000000000E+00  0.00000000000E+00  0.45177506817E+02  0.45177506817E+02  0.00000000000E+00 0. -1.
         21   -1    0    0  501  502 -0.00000000000E+00 -0.00000000000E+00 -0.11454621093E+04  0.11454621093E+04  0.00000000000E+00 0. -1.
      99926    2    1    2    0    0  0.00000000000E+00 -0.35527136788E-14 -0.11002846025E+04  0.11906396161E+04  0.45496866816E+03 0.  0.
      99925    2    3    3    0    0 -0.27789176034E+02 -0.28712231197E+02 -0.41558987816E+03  0.49346603361E+03  0.26305350972E+03 0.  0.
         25    1    4    4    0    0 -0.46071911192E+02 -0.39245696482E+02 -0.20650987986E+03  0.24891099669E+03  0.12509000000E+03 0.  0.
         25    1    4    4    0    0  0.18282735157E+02  0.10533465285E+02 -0.20907999830E+03  0.24455503692E+03  0.12509000000E+03 0.  0.
         25    1    3    3    0    0  0.27789176034E+02  0.28712231197E+02 -0.68469472433E+03  0.69717358251E+03  0.12509000000E+03 0.  0.
<mgrwt>
<rscale>  2 0.45496867E+03</rscale>
<asrwt>0</asrwt>
<pdfrwt beam="1">  1       21 0.66437510E-02 0.45496867E+03</pdfrwt>
<pdfrwt beam="2">  1       21 0.16845031E+00 0.45496867E+03</pdfrwt>
<totfact> 0.32461952E+04</totfact>
</mgrwt>
</event>
<event>
 7    0  0.4691878E-002  0.4722781E+03  0.7546771E-02  0.1021279E+00
         21   -1    0    0  502  501  0.00000000000E+00  0.00000000000E+00  0.74834007058E+03  0.74834007058E+03  0.00000000000E+00 0. -1.
         21   -1    0    0  501  502 -0.00000000000E+00 -0.00000000000E+00 -0.74513785436E+02  0.74513785436E+02  0.00000000000E+00 0. -1.
      99926    2    1    2    0    0  0.00000000000E+00  0.00000000000E+00  0.67382628514E+03  0.82285385601E+03  0.47227810219E+03 0.  0.
      99925    2    3    3    0    0 -0.39378653135E+02  0.57113725567E+02  0.22925904814E+03  0.35584187299E+03  0.26315598312E+03 0.  0.
         25    1    4    4    0    0 -0.50573394817E+02  0.22977534194E+01  0.10748383616E+03  0.17252023380E+03  0.12509000000E+03 0.  0.
         25    1    4    4    0    0  0.11194741682E+02  0.54815972148E+02  0.12177521198E+03  0.18332163920E+03  0.12509000000E+03 0.  0.
         25    1    3    3    0    0  0.39378653135E+02 -0.57113725567E+02  0.44456723700E+03  0.46701198302E+03  0.12509000000E+03 0.  0.
<mgrwt>
<rscale>  2 0.47227810E+03</rscale>
<asrwt>0</asrwt>
<pdfrwt beam="1">  1       21 0.11005001E+00 0.47227810E+03</pdfrwt>
<pdfrwt beam="2">  1       21 0.10957910E-01 0.47227810E+03</pdfrwt>
<totfact> 0.40852556E+04</totfact>
</mgrwt>
</event>
<event>
 7    0  0.4691878E-002  0.4557176E+03  0.7546771E-02  0.1026031E+00
         21   -1    0    0  502  501  0.00000000000E+00  0.00000000000E+00  0.22743776625E+03  0.22743776625E+03  0.00000000000E+00 0.  1.
         21   -1    0    0  501  502 -0.00000000000E+00 -0.00000000000E+00 -0.22828060559E+03  0.22828060559E+03  0.00000000000E+00 0.  1.
      99926    2    1    2    0    0  0.00000000000E+00  0.00000000000E+00 -0.84283934001E+00  0.45571837183E+03  0.45571759243E+03 0.  0.
      99925    2    3    3    0    0 -0.35165823666E+02  0.80883110353E+02 -0.72445723348E+02  0.28674146870E+03  0.26304671514E+03 0.  0.
         25    1    4    4    0    0 -0.36679403964E+02  0.70601359651E+02 -0.15986636901E+02  0.14910738184E+03  0.12509000000E+03 0.  0.
         25    1    3    3    0    0  0.35165823666E+02 -0.80883110353E+02  0.71602884008E+02  0.16897690313E+03  0.12509000000E+03 0.  0.
         25    1    4    4    0    0  0.15135802982E+01  0.10281750702E+02 -0.56459086447E+02  0.13763408686E+03  0.12509000000E+03 0.  0.
<mgrwt>
<rscale>  2 0.45571759E+03</rscale>
<asrwt>0</asrwt>
<pdfrwt beam="1">  1       21 0.33446730E-01 0.45571759E+03</pdfrwt>
<pdfrwt beam="2">  1       21 0.33570677E-01 0.45571759E+03</pdfrwt>
<totfact> 0.68102428E+04</totfact>
</mgrwt>
</event>
<event>
 7    0  0.4691878E-002  0.4516433E+03  0.7546771E-02  0.1027233E+00
         21   -1    0    0  502  501  0.00000000000E+00  0.00000000000E+00  0.16036764903E+03  0.16036764903E+03  0.00000000000E+00 0.  1.
         21   -1    0    0  501  502 -0.00000000000E+00 -0.00000000000E+00 -0.31799071499E+03  0.31799071499E+03  0.00000000000E+00 0.  1.
      99926    2    1    2    0    0  0.14210854715E-13 -0.35527136788E-14 -0.15762306596E+03  0.47835836402E+03  0.45164332554E+03 0.  0.
      99925    2    3    3    0    0  0.10325107340E+03 -0.26121776051E+02 -0.12835194884E+03  0.31148284832E+03  0.26306693195E+03 0.  0.
         25    1    4    4    0    0  0.60530307814E+02 -0.35944292163E+02 -0.30539483260E+02  0.14675175788E+03  0.12509000000E+03 0.  0.
         25    1    4    4    0    0  0.42720765589E+02  0.98225161123E+01 -0.97812465579E+02  0.16473109044E+03  0.12509000000E+03 0.  0.
         25    1    3    3    0    0 -0.10325107340E+03  0.26121776051E+02 -0.29271117121E+02  0.16687551570E+03  0.12509000000E+03 0.  0.
<mgrwt>
<rscale>  2 0.45164333E+03</rscale>
<asrwt>0</asrwt>
<pdfrwt beam="1">  1       21 0.23583478E-01 0.45164333E+03</pdfrwt>
<pdfrwt beam="2">  1       21 0.46763340E-01 0.45164333E+03</pdfrwt>
<totfact> 0.68630202E+04</totfact>
</mgrwt>
</event>
<event>
 7    0  0.4691878E-002  0.4539925E+03  0.7546771E-02  0.1026538E+00
         21   -1    0    0  502  501  0.00000000000E+00  0.00000000000E+00  0.99463540765E+02  0.99463540765E+02  0.00000000000E+00 0. -1.
         21   -1    0    0  501  502 -0.00000000000E+00 -0.00000000000E+00 -0.51805206911E+03  0.51805206911E+03  0.00000000000E+00 0. -1.
      99926    2    1    2    0    0  0.00000000000E+00  0.00000000000E+00 -0.41858852835E+03  0.61751560988E+03  0.45399248053E+03 0.  0.
      99925    2    3    3    0    0 -0.10678184246E+03  0.28603092687E+02 -0.23712324099E+03  0.37094380004E+03  0.26296648566E+03 0.  0.
         25    1    3    3    0    0  0.10678184246E+03 -0.28603092687E+02 -0.18146528736E+03  0.24657180984E+03  0.12509000000E+03 0.  0.
         25    1    4    4    0    0 -0.68153240254E+02  0.26162329796E+02 -0.76776581266E+02  0.16392523658E+03  0.12509000000E+03 0.  0.
         25    1    4    4    0    0 -0.38628602206E+02  0.24407628906E+01 -0.16034665973E+03  0.20701856346E+03  0.12509000000E+03 0.  0.
<mgrwt>
<rscale>  2 0.45399248E+03</rscale>
<asrwt>0</asrwt>
<pdfrwt beam="1">  1       21 0.14626992E-01 0.45399248E+03</pdfrwt>
<pdfrwt beam="2">  1       21 0.76184126E-01 0.45399248E+03</pdfrwt>
<totfact> 0.58073570E+04</totfact>
</mgrwt>
</event>
<event>
 7    0  0.4691878E-002  0.4561637E+03  0.7546771E-02  0.1025900E+00
         21   -1    0    0  502  501  0.00000000000E+00  0.00000000000E+00  0.37466415346E+02  0.37466415346E+02  0.00000000000E+00 0. -1.
         21   -1    0    0  501  502 -0.00000000000E+00 -0.00000000000E+00 -0.13884788327E+04  0.13884788327E+04  0.00000000000E+00 0. -1.
      99926    2    1    2    0    0  0.14210854715E-13 -0.71054273576E-14 -0.13510124174E+04  0.14259452481E+04  0.45616367521E+03 0.  0.
      99925    2    3    3    0    0 -0.67613525327E+02  0.48546986674E+02 -0.60475147799E+03  0.66470855920E+03  0.26302988390E+03 0.  0.
         25    1    3    3    0    0  0.67613525327E+02 -0.48546986674E+02 -0.74626093939E+03  0.76123668887E+03  0.12509000000E+03 0.  0.
         25    1    4    4    0    0 -0.74979822120E+02  0.19657317860E+02 -0.33300090835E+03  0.36406798394E+03  0.12509000000E+03 0.  0.
         25    1    4    4    0    0  0.73662967925E+01  0.28889668813E+02 -0.27175056964E+03  0.30064057526E+03  0.12509000000E+03 0.  0.
<mgrwt>
<rscale>  2 0.45616368E+03</rscale>
<asrwt>0</asrwt>
<pdfrwt beam="1">  1       21 0.55097672E-02 0.45616368E+03</pdfrwt>
<pdfrwt beam="2">  1       21 0.20418806E+00 0.45616368E+03</pdfrwt>
<totfact> 0.25418145E+04</totfact>
</mgrwt>
</event>
<event>
 7    0  0.4691878E-002  0.4591263E+03  0.7546771E-02  0.1025035E+00
         21   -1    0    0  502  501  0.00000000000E+00  0.00000000000E+00  0.64917170241E+02  0.64917170241E+02  0.00000000000E+00 0. -1.
         21   -1    0    0  501  502 -0.00000000000E+00 -0.00000000000E+00 -0.81179201756E+03  0.81179201756E+03  0.00000000000E+00 0. -1.
      99926    2    1    2    0    0  0.00000000000E+00 -0.17763568394E-14 -0.74687484732E+03  0.87670918780E+03  0.45912630334E+03 0.  0.
      99925    2    3    3    0    0  0.10872833257E+03 -0.87012798543E+01 -0.38770932379E+03  0.48105157828E+03  0.26304854807E+03 0.  0.
         25    1    4    4    0    0  0.14735060256E+02 -0.11344067414E+02 -0.20048227720E+03  0.23703683561E+03  0.12509000000E+03 0.  0.
         25    1    3    3    0    0 -0.10872833257E+03  0.87012798543E+01 -0.35916552353E+03  0.39565760952E+03  0.12509000000E+03 0.  0.
         25    1    4    4    0    0  0.93993272317E+02  0.26427875594E+01 -0.18722704659E+03  0.24401474267E+03  0.12509000000E+03 0.  0.
<mgrwt>
<rscale>  2 0.45912630E+03</rscale>
<asrwt>0</asrwt>
<pdfrwt beam="1">  1       21 0.95466427E-02 0.45912630E+03</pdfrwt>
<pdfrwt beam="2">  1       21 0.11938118E+00 0.45912630E+03</pdfrwt>
<totfact> 0.42854184E+04</totfact>
</mgrwt>
</event>
<event>
 7    0  0.4691878E-002  0.4562192E+03  0.7546771E-02  0.1025883E+00
         21   -1    0    0  502  501  0.00000000000E+00  0.00000000000E+00  0.35676650715E+03  0.35676650715E+03  0.00000000000E+00 0. -1.
         21   -1    0    0  501  502 -0.00000000000E+00 -0.00000000000E+00 -0.14584884761E+03  0.14584884761E+03  0.00000000000E+00 0. -1.
      99926    2    1    2    0    0  0.00000000000E+00  0.00000000000E+00  0.21091765954E+03  0.50261535476E+03  0.45621917511E+03 0.  0.
      99925    2    3    3    0    0 -0.16326880568E+02  0.11309425225E+03  0.13101811906E+03  0.31529658477E+03  0.26303861299E+03 0.  0.
         25    1    4    4    0    0  0.14449176490E+01  0.79023632505E+02  0.10612611690E+03  0.18209086487E+03  0.12509000000E+03 0.  0.
         25    1    4    4    0    0 -0.17771798217E+02  0.34070619750E+02  0.24892002162E+02  0.13320571990E+03  0.12509000000E+03 0.  0.
         25    1    3    3    0    0  0.16326880568E+02 -0.11309425225E+03  0.79899540477E+02  0.18731876999E+03  0.12509000000E+03 0.  0.
<mgrwt>
<rscale>  2 0.45621918E+03</rscale>
<asrwt>0</asrwt>
<pdfrwt beam="1">  1       21 0.52465663E-01 0.45621918E+03</pdfrwt>
<pdfrwt beam="2">  1       21 0.21448360E-01 0.45621918E+03</pdfrwt>
<totfact> 0.64461225E+04</totfact>
</mgrwt>
</event>
<event>
 7    0  0.4691878E-002  0.4524008E+03  0.7546771E-02  0.1027009E+00
         21   -1    0    0  502  501  0.00000000000E+00  0.00000000000E+00  0.14964754901E+03  0.14964754901E+03  0.00000000000E+00 0.  1.
         21   -1    0    0  501  502 -0.00000000000E+00 -0.00000000000E+00 -0.34191419789E+03  0.34191419789E+03  0.00000000000E+00 0.  1.
      99926    2    1    2    0    0 -0.17763568394E-14  0.00000000000E+00 -0.19226664888E+03  0.49156174691E+03  0.45240080322E+03 0.  0.
      99925    2    3    3    0    0  0.13955866877E+02  0.10803424508E+03 -0.14242252399E+03  0.31836212446E+03  0.26306672656E+03 0.  0.
         25    1    4    4    0    0 -0.31799637553E+02  0.40990926421E+02 -0.73594447802E+02  0.15412697312E+03  0.12509000000E+03 0.  0.
         25    1    4    4    0    0  0.45755504430E+02  0.67043318657E+02 -0.68828076192E+02  0.16423515134E+03  0.12509000000E+03 0.  0.
         25    1    3    3    0    0 -0.13955866877E+02 -0.10803424508E+03 -0.49844124884E+02  0.17319962245E+03  0.12509000000E+03 0.  0.
<mgrwt>
<rscale>  2 0.45240080E+03</rscale>
<asrwt>0</asrwt>
<pdfrwt beam="1">  1       21 0.22006993E-01 0.45240080E+03</pdfrwt>
<pdfrwt beam="2">  1       21 0.50281499E-01 0.45240080E+03</pdfrwt>
<totfact> 0.67244484E+04</totfact>
</mgrwt>
</event>
<event>
 7    0  0.4691878E-002  0.4527041E+03  0.7546771E-02  0.1026919E+00
         21   -1    0    0  502  501  0.00000000000E+00  0.00000000000E+00  0.11913450759E+03  0.11913450759E+03  0.00000000000E+00 0.  1.
         21   -1    0    0  501  502 -0.00000000000E+00 -0.00000000000E+00 -0.43006216984E+03  0.43006216984E+03  0.00000000000E+00 0.  1.
      99926    2    1    2    0    0  0.00000000000E+00 -0.26645352591E-14 -0.31092766225E+03  0.54919667743E+03  0.45270407481E+03 0.  0.
      99925    2    3    3    0    0 -0.33954555303E+02  0.26538936336E+01 -0.67976610583E+02  0.27381934252E+03  0.26305181576E+03 0.  0.
         25    1    4    4    0    0  0.19385724299E+02 -0.17087868613E+02 -0.28941169123E+02  0.13096908387E+03  0.12509000000E+03 0.  0.
         25    1    4    4    0    0 -0.53340279602E+02  0.19741762247E+02 -0.39035441460E+02  0.14285025864E+03  0.12509000000E+03 0.  0.
         25    1    3    3    0    0  0.33954555303E+02 -0.26538936336E+01 -0.24295105167E+03  0.27537733491E+03  0.12509000000E+03 0.  0.
<mgrwt>
<rscale>  2 0.45270407E+03</rscale>
<asrwt>0</asrwt>
<pdfrwt beam="1">  1       21 0.17519781E-01 0.45270407E+03</pdfrwt>
<pdfrwt beam="2">  1       21 0.63244435E-01 0.45270407E+03</pdfrwt>
<totfact> 0.63057308E+04</totfact>
</mgrwt>
</event>
<event>
 7    0  0.4691878E-002  0.4546444E+03  0.7546771E-02  0.1026346E+00
         21   -1    0    0  502  501  0.00000000000E+00  0.00000000000E+00  0.18714618099E+03  0.18714618099E+03  0.00000000000E+00 0.  1.
         21   -1    0    0  501  502 -0.00000000000E+00 -0.00000000000E+00 -0.27612311801E+03  0.27612311801E+03  0.00000000000E+00 0.  1.
      99926    2    1    2    0    0  0.00000000000E+00  0.00000000000E+00 -0.88976937022E+02  0.46326929901E+03  0.45464441939E+03 0.  0.
      99925    2    3    3    0    0  0.48514094180E+02 -0.86900604228E+02 -0.11029637220E+03  0.30200132709E+03  0.26293379298E+03 0.  0.
         25    1    4    4    0    0  0.21016522316E+02 -0.42834210757E+02 -0.11541982247E+02  0.13437704148E+03  0.12509000000E+03 0.  0.
         25    1    3    3    0    0 -0.48514094180E+02  0.86900604228E+02  0.21319435182E+02  0.16126797192E+03  0.12509000000E+03 0.  0.
         25    1    4    4    0    0  0.27497571865E+02 -0.44066393470E+02 -0.98754389957E+02  0.16762428561E+03  0.12509000000E+03 0.  0.
<mgrwt>
<rscale>  2 0.45464442E+03</rscale>
<asrwt>0</asrwt>
<pdfrwt beam="1">  1       21 0.27521498E-01 0.45464442E+03</pdfrwt>
<pdfrwt beam="2">  1       21 0.40606340E-01 0.45464442E+03</pdfrwt>
<totfact> 0.68131249E+04</totfact>
</mgrwt>
</event>
<event>
 7    0  0.4691878E-002  0.4642521E+03  0.7546771E-02  0.1023555E+00
         21   -1    0    0  502  501  0.00000000000E+00  0.00000000000E+00  0.31346490656E+03  0.31346490656E+03  0.00000000000E+00 0.  1.
         21   -1    0    0  501  502 -0.00000000000E+00 -0.00000000000E+00 -0.17189322200E+03  0.17189322200E+03  0.00000000000E+00 0.  1.
      99926    2    1    2    0    0  0.00000000000E+00  0.00000000000E+00  0.14157168456E+03  0.48535812856E+03  0.46425205556E+03 0.  0.
      99925    2    3    3    0    0 -0.50438875702E+02  0.84475854794E+02  0.16315796055E+03  0.32475387694E+03  0.26299108402E+03 0.  0.
         25    1    4    4    0    0 -0.46150074939E+02  0.71032244505E+02  0.62154024467E+02  0.16335862400E+03  0.12509000000E+03 0.  0.
         25    1    4    4    0    0 -0.42888007636E+01  0.13443610290E+02  0.10100393608E+03  0.16139525295E+03  0.12509000000E+03 0.  0.
         25    1    3    3    0    0  0.50438875702E+02 -0.84475854794E+02 -0.21586275990E+02  0.16060425161E+03  0.12509000000E+03 0.  0.
<mgrwt>
<rscale>  2 0.46425206E+03</rscale>
<asrwt>0</asrwt>
<pdfrwt beam="1">  1       21 0.46097780E-01 0.46425206E+03</pdfrwt>
<pdfrwt beam="2">  1       21 0.25278415E-01 0.46425206E+03</pdfrwt>
<totfact> 0.61658157E+04</totfact>
</mgrwt>
</event>
<event>
 7    0  0.4691878E-002  0.4628736E+03  0.7546771E-02  0.1023951E+00
         21   -1    0    0  502  501  0.00000000000E+00  0.00000000000E+00  0.34074906009E+03  0.34074906009E+03  0.00000000000E+00 0. -1.
         21   -1    0    0  501  502 -0.00000000000E+00 -0.00000000000E+00 -0.15719187090E+03  0.15719187090E+03  0.00000000000E+00 0. -1.
      99926    2    1    2    0    0  0.00000000000E+00  0.00000000000E+00  0.18355718919E+03  0.49794093099E+03  0.46287355623E+03 0.  0.
      99925    2    3    3    0    0 -0.77466766966E+02  0.92242667850E+02  0.11500730370E+03  0.31124223079E+03  0.26293580313E+03 0.  0.
         25    1    4    4    0    0 -0.36864463805E+02  0.14789028060E+02  0.83022238985E+02  0.15529940215E+03  0.12509000000E+03 0.  0.
         25    1    4    4    0    0 -0.40602303161E+02  0.77453639790E+02  0.31985064713E+02  0.15594282864E+03  0.12509000000E+03 0.  0.
         25    1    3    3    0    0  0.77466766966E+02 -0.92242667850E+02  0.68549885488E+02  0.18669870020E+03  0.12509000000E+03 0.  0.
<mgrwt>
<rscale>  2 0.46287356E+03</rscale>
<asrwt>0</asrwt>
<pdfrwt beam="1">  1       21 0.50110156E-01 0.46287356E+03</pdfrwt>
<pdfrwt beam="2">  1       21 0.23116452E-01 0.46287356E+03</pdfrwt>
<totfact> 0.61481841E+04</totfact>
</mgrwt>
</event>
<event>
 7    0  0.4691878E-002  0.4572323E+03  0.7546771E-02  0.1025587E+00
         21   -1    0    0  502  501  0.00000000000E+00  0.00000000000E+00  0.96418247695E+02  0.96418247695E+02  0.00000000000E+00 0. -1.
         21   -1    0    0  501  502 -0.00000000000E+00 -0.00000000000E+00 -0.54206911359E+03  0.54206911359E+03  0.00000000000E+00 0. -1.
      99926    2    1    2    0    0  0.00000000000E+00  0.00000000000E+00 -0.44565086589E+03  0.63848736128E+03  0.45723234383E+03 0.  0.
      99925    2    3    3    0    0  0.10591328914E+03  0.41174611923E+02 -0.30854745227E+03  0.42086882436E+03  0.26270908537E+03 0.  0.
         25    1    4    4    0    0  0.65189944788E+02  0.34939737577E+02 -0.21427768176E+03  0.25890721729E+03  0.12509000000E+03 0.  0.
         25    1    3    3    0    0 -0.10591328914E+03 -0.41174611923E+02 -0.13710341362E+03  0.21761853692E+03  0.12509000000E+03 0.  0.
         25    1    4    4    0    0  0.40723344356E+02  0.62348743456E+01 -0.94269770504E+02  0.16196160707E+03  0.12509000000E+03 0.  0.
<mgrwt>
<rscale>  2 0.45723234E+03</rscale>
<asrwt>0</asrwt>
<pdfrwt beam="1">  1       21 0.14179154E-01 0.45723234E+03</pdfrwt>
<pdfrwt beam="2">  1       21 0.79716047E-01 0.45723234E+03</pdfrwt>
<totfact> 0.55387379E+04</totfact>
</mgrwt>
</event>
<event>
 7    0  0.4691878E-002  0.4564510E+03  0.7546771E-02  0.1025816E+00
         21   -1    0    0  502  501  0.00000000000E+00  0.00000000000E+00  0.37705114423E+03  0.37705114423E+03  0.00000000000E+00 0. -1.
         21   -1    0    0  501  502 -0.00000000000E+00 -0.00000000000E+00 -0.13814272713E+03  0.13814272713E+03  0.00000000000E+00 0. -1.
      99926    2    1    2    0    0  0.00000000000E+00  0.00000000000E+00  0.23890841710E+03  0.51519387135E+03  0.45645097581E+03 0.  0.
      99925    2    3    3    0    0  0.11684464557E+02 -0.39087727111E+02  0.29436915995E+02  0.26782735179E+03  0.26306003350E+03 0.  0.
         25    1    4    4    0    0  0.32109825656E+02 -0.93707388871E+01 -0.14811286701E+02  0.13032932887E+03  0.12509000000E+03 0.  0.
         25    1    3    3    0    0 -0.11684464557E+02  0.39087727111E+02  0.20947150111E+03  0.24736651956E+03  0.12509000000E+03 0.  0.
         25    1    4    4    0    0 -0.20425361099E+02 -0.29716988224E+02  0.44248202696E+02  0.13749802292E+03  0.12509000000E+03 0.  0.
<mgrwt>
<rscale>  2 0.45645098E+03</rscale>
<asrwt>0</asrwt>
<pdfrwt beam="1">  1       21 0.55448698E-01 0.45645098E+03</pdfrwt>
<pdfrwt beam="2">  1       21 0.20315107E-01 0.45645098E+03</pdfrwt>
<totfact> 0.63481821E+04</totfact>
</mgrwt>
</event>
<event>
 7    0  0.4691878E-002  0.4522580E+03  0.7546771E-02  0.1027051E+00
         21   -1    0    0  502  501  0.00000000000E+00  0.00000000000E+00  0.90295408317E+02  0.90295408317E+02  0.00000000000E+00 0. -1.
         21   -1    0    0  501  502 -0.00000000000E+00 -0.00000000000E+00 -0.56630035837E+03  0.56630035837E+03  0.00000000000E+00 0. -1.
      99926    2    1    2    0    0  0.00000000000E+00  0.35527136788E-14 -0.47600495005E+03  0.65659576669E+03  0.45225798872E+03 0.  0.
      99925    2    3    3    0    0 -0.79813890390E+02 -0.26850023684E+02 -0.40412314596E+03  0.48954582586E+03  0.26315094080E+03 0.  0.
         25    1    4    4    0    0 -0.14591326163E+02 -0.16517017560E+02 -0.13402816905E+03  0.18465312580E+03  0.12509000000E+03 0.  0.
         25    1    4    4    0    0 -0.65222564227E+02 -0.10333006124E+02 -0.27009497690E+03  0.30489270006E+03  0.12509000000E+03 0.  0.
         25    1    3    3    0    0  0.79813890390E+02  0.26850023684E+02 -0.71881804096E+02  0.16704994083E+03  0.12509000000E+03 0.  0.
<mgrwt>
<rscale>  2 0.45225799E+03</rscale>
<asrwt>0</asrwt>
<pdfrwt beam="1">  1       21 0.13278736E-01 0.45225799E+03</pdfrwt>
<pdfrwt beam="2">  1       21 0.83279466E-01 0.45225799E+03</pdfrwt>
<totfact> 0.56535711E+04</totfact>
</mgrwt>
</event>
<event>
 7    0  0.4691878E-002  0.4513016E+03  0.7546771E-02  0.1027335E+00
         21   -1    0    0  502  501  0.00000000000E+00  0.00000000000E+00  0.10233525528E+03  0.10233525528E+03  0.00000000000E+00 0. -1.
         21   -1    0    0  501  502 -0.00000000000E+00 -0.00000000000E+00 -0.49756338495E+03  0.49756338495E+03  0.00000000000E+00 0. -1.
      99926    2    1    2    0    0  0.53290705182E-14  0.00000000000E+00 -0.39522812967E+03  0.59989864023E+03  0.45130156665E+03 0.  0.
      99925    2    3    3    0    0  0.10542144163E+02  0.28462661496E+02 -0.10946654211E+03  0.28648445272E+03  0.26300030020E+03 0.  0.
         25    1    4    4    0    0 -0.33387357800E+02  0.25524955690E+02 -0.59773397948E+02  0.14486754718E+03  0.12509000000E+03 0.  0.
         25    1    4    4    0    0  0.43929501963E+02  0.29377058069E+01 -0.49693144158E+02  0.14161690554E+03  0.12509000000E+03 0.  0.
         25    1    3    3    0    0 -0.10542144163E+02 -0.28462661496E+02 -0.28576158757E+03  0.31341418751E+03  0.12509000000E+03 0.  0.
<mgrwt>
<rscale>  2 0.45130157E+03</rscale>
<asrwt>0</asrwt>
<pdfrwt beam="1">  1       21 0.15049302E-01 0.45130157E+03</pdfrwt>
<pdfrwt beam="2">  1       21 0.73171086E-01 0.45130157E+03</pdfrwt>
<totfact> 0.60431150E+04</totfact>
</mgrwt>
</event>
<event>
 7    0  0.4691878E-002  0.4569802E+03  0.7546771E-02  0.1025661E+00
         21   -1    0    0  502  501  0.00000000000E+00  0.00000000000E+00  0.23592020030E+03  0.23592020030E+03  0.00000000000E+00 0.  1.
         21   -1    0    0  501  502 -0.00000000000E+00 -0.00000000000E+00 -0.22129398723E+03  0.22129398723E+03  0.00000000000E+00 0.  1.
      99926    2    1    2    0    0  0.00000000000E+00  0.00000000000E+00  0.14626213068E+02  0.45721418753E+03  0.45698018247E+03 0.  0.
      99925    2    3    3    0    0  0.84904717453E+02  0.49794719554E+02 -0.50218298443E+02  0.28534026887E+03  0.26307578072E+03 0.  0.
         25    1    4    4    0    0  0.43403815636E+02  0.48470262279E+02 -0.59875471713E+02  0.15318563167E+03  0.12509000000E+03 0.  0.
         25    1    4    4    0    0  0.41500901817E+02  0.13244572750E+01  0.96571732699E+01  0.13215463720E+03  0.12509000000E+03 0.  0.
         25    1    3    3    0    0 -0.84904717453E+02 -0.49794719554E+02  0.64844511511E+02  0.17187391866E+03  0.12509000000E+03 0.  0.
<mgrwt>
<rscale>  2 0.45698018E+03</rscale>
<asrwt>0</asrwt>
<pdfrwt beam="1">  1       21 0.34694147E-01 0.45698018E+03</pdfrwt>
<pdfrwt beam="2">  1       21 0.32543233E-01 0.45698018E+03</pdfrwt>
<totfact> 0.67314052E+04</totfact>
</mgrwt>
</event>
<event>
 7    0  0.4691878E-002  0.4462490E+03  0.7546771E-02  0.1028847E+00
         21   -1    0    0  502  501  0.00000000000E+00  0.00000000000E+00  0.53710133060E+02  0.53710133060E+02  0.00000000000E+00 0.  1.
         21   -1    0    0  501  502 -0.00000000000E+00 -0.00000000000E+00 -0.92691174670E+03  0.92691174670E+03  0.00000000000E+00 0.  1.
      99926    2    1    2    0    0  0.00000000000E+00  0.00000000000E+00 -0.87320161364E+03  0.98062187976E+03  0.44624904818E+03 0.  0.
      99925    2    3    3    0    0  0.48729063825E+02  0.92779754546E+02 -0.56009947940E+03  0.62754531713E+03  0.26290510400E+03 0.  0.
         25    1    4    4    0    0  0.35545565926E+02  0.57620421408E+02 -0.20781024285E+03  0.25182574403E+03  0.12509000000E+03 0.  0.
         25    1    3    3    0    0 -0.48729063825E+02 -0.92779754546E+02 -0.31310213424E+03  0.35307656263E+03  0.12509000000E+03 0.  0.
         25    1    4    4    0    0  0.13183497900E+02  0.35159333138E+02 -0.35228923655E+03  0.37571957310E+03  0.12509000000E+03 0.  0.
<mgrwt>
<rscale>  2 0.44624905E+03</rscale>
<asrwt>0</asrwt>
<pdfrwt beam="1">  1       21 0.78985490E-02 0.44624905E+03</pdfrwt>
<pdfrwt beam="2">  1       21 0.13631055E+00 0.44624905E+03</pdfrwt>
<totfact> 0.42776943E+04</totfact>
</mgrwt>
</event>
<event>
 7    0  0.4691878E-002  0.4560086E+03  0.7546771E-02  0.1025945E+00
         21   -1    0    0  502  501  0.00000000000E+00  0.00000000000E+00  0.66245123321E+03  0.66245123321E+03  0.00000000000E+00 0. -1.
         21   -1    0    0  501  502 -0.00000000000E+00 -0.00000000000E+00 -0.78475165041E+02  0.78475165041E+02  0.00000000000E+00 0. -1.
      99926    2    1    2    0    0 -0.14210854715E-13  0.00000000000E+00  0.58397606817E+03  0.74092639825E+03  0.45600863965E+03 0.  0.
      99925    2    3    3    0    0  0.10268055217E+03  0.43154810119E+02  0.39990603657E+03  0.49205912828E+03  0.26418121472E+03 0.  0.
         25    1    4    4    0    0  0.92485003657E+02  0.42036522946E+02  0.22912525587E+03  0.28011861084E+03  0.12509000000E+03 0.  0.
         25    1    4    4    0    0  0.10195548510E+02  0.11182871738E+01  0.17078078070E+03  0.21194051744E+03  0.12509000000E+03 0.  0.
         25    1    3    3    0    0 -0.10268055217E+03 -0.43154810119E+02  0.18407003160E+03  0.24886726997E+03  0.12509000000E+03 0.  0.
<mgrwt>
<rscale>  2 0.45600864E+03</rscale>
<asrwt>0</asrwt>
<pdfrwt beam="1">  1       21 0.97419296E-01 0.45600864E+03</pdfrwt>
<pdfrwt beam="2">  1       21 0.11540466E-01 0.45600864E+03</pdfrwt>
<totfact> 0.50336291E+04</totfact>
</mgrwt>
</event>
<event>
 7    0  0.4691878E-002  0.4579233E+03  0.7546771E-02  0.1025385E+00
         21   -1    0    0  502  501  0.00000000000E+00  0.00000000000E+00  0.59817220380E+03  0.59817220380E+03  0.00000000000E+00 0. -1.
         21   -1    0    0  501  502 -0.00000000000E+00 -0.00000000000E+00 -0.87639381120E+02  0.87639381120E+02  0.00000000000E+00 0. -1.
      99926    2    1    2    0    0 -0.88817841970E-15  0.00000000000E+00  0.51053282268E+03  0.68581158492E+03  0.45792331998E+03 0.  0.
      99925    2    3    3    0    0 -0.52308717527E+01 -0.72274680285E+02  0.18523447762E+03  0.32983755100E+03  0.26311595717E+03 0.  0.
         25    1    4    4    0    0  0.29254587880E+01 -0.31157924000E+02  0.14009205411E+03  0.19040132946E+03  0.12509000000E+03 0.  0.
         25    1    4    4    0    0 -0.81563305406E+01 -0.41116756285E+02  0.45142423515E+02  0.13943622154E+03  0.12509000000E+03 0.  0.
         25    1    3    3    0    0  0.52308717527E+01  0.72274680285E+02  0.32529834506E+03  0.35597403392E+03  0.12509000000E+03 0.  0.
<mgrwt>
<rscale>  2 0.45792332E+03</rscale>
<asrwt>0</asrwt>
<pdfrwt beam="1">  1       21 0.87966498E-01 0.45792332E+03</pdfrwt>
<pdfrwt beam="2">  1       21 0.12888145E-01 0.45792332E+03</pdfrwt>
<totfact> 0.52462392E+04</totfact>
</mgrwt>
</event>
<event>
 7    0  0.4691878E-002  0.4607963E+03  0.7546771E-02  0.1024551E+00
         21   -1    0    0  502  501  0.00000000000E+00  0.00000000000E+00  0.59696255242E+03  0.59696255242E+03  0.00000000000E+00 0.  1.
         21   -1    0    0  501  502 -0.00000000000E+00 -0.00000000000E+00 -0.88922354954E+02  0.88922354954E+02  0.00000000000E+00 0.  1.
      99926    2    1    2    0    0  0.00000000000E+00  0.00000000000E+00  0.50804019747E+03  0.68588490737E+03  0.46079633671E+03 0.  0.
      99925    2    3    3    0    0 -0.90049563830E+02  0.51862934081E+02  0.40299327653E+03  0.49228467087E+03  0.26294852798E+03 0.  0.
         25    1    4    4    0    0 -0.35536403914E+02 -0.72692943511E+01  0.22854315662E+03  0.26304973138E+03  0.12509000000E+03 0.  0.
         25    1    4    4    0    0 -0.54513159916E+02  0.59132228433E+02  0.17445011991E+03  0.22923493948E+03  0.12509000000E+03 0.  0.
         25    1    3    3    0    0  0.90049563830E+02 -0.51862934081E+02  0.10504692094E+03  0.19360023651E+03  0.12509000000E+03 0.  0.
<mgrwt>
<rscale>  2 0.46079634E+03</rscale>
<asrwt>0</asrwt>
<pdfrwt beam="1">  1       21 0.87788608E-01 0.46079634E+03</pdfrwt>
<pdfrwt beam="2">  1       21 0.13076817E-01 0.46079634E+03</pdfrwt>
<totfact> 0.51294211E+04</totfact>
</mgrwt>
</event>
<event>
 7    0  0.4691878E-002  0.4535942E+03  0.7546771E-02  0.1026656E+00
         21   -1    0    0  502  501  0.00000000000E+00  0.00000000000E+00  0.20013256642E+03  0.20013256642E+03  0.00000000000E+00 0.  1.
         21   -1    0    0  501  502 -0.00000000000E+00 -0.00000000000E+00 -0.25701424407E+03  0.25701424407E+03  0.00000000000E+00 0.  1.
      99926    2    1    2    0    0  0.00000000000E+00 -0.17763568394E-14 -0.56881677644E+02  0.45714681049E+03  0.45359418106E+03 0.  0.
      99925    2    3    3    0    0 -0.53166810877E+02  0.95423777372E+01  0.62836661203E+02  0.27576942627E+03  0.26302578528E+03 0.  0.
         25    1    4    4    0    0 -0.37172231310E+02 -0.29433508815E+02  0.51294618909E+02  0.14327160309E+03  0.12509000000E+03 0.  0.
         25    1    4    4    0    0 -0.15994579567E+02  0.38975886552E+02  0.11542042294E+02  0.13249782318E+03  0.12509000000E+03 0.  0.
         25    1    3    3    0    0  0.53166810877E+02 -0.95423777372E+01 -0.11971833885E+03  0.18137738422E+03  0.12509000000E+03 0.  0.
<mgrwt>
<rscale>  2 0.45359418E+03</rscale>
<asrwt>0</asrwt>
<pdfrwt beam="1">  1       21 0.29431260E-01 0.45359418E+03</pdfrwt>
<pdfrwt beam="2">  1       21 0.37796212E-01 0.45359418E+03</pdfrwt>
<totfact> 0.69161108E+04</totfact>
</mgrwt>
</event>
<event>
 7    0  0.4691878E-002  0.4232281E+03  0.7546771E-02  0.1036021E+00
         21   -1    0    0  502  501  0.00000000000E+00  0.00000000000E+00  0.22280312737E+04  0.22280312737E+04  0.00000000000E+00 0.  1.
         21   -1    0    0  501  502 -0.00000000000E+00 -0.00000000000E+00 -0.20098687021E+02  0.20098687021E+02  0.00000000000E+00 0.  1.
      99926    2    1    2    0    0  0.00000000000E+00  0.35527136788E-14  0.22079325867E+04  0.22481299607E+04  0.42322808623E+03 0.  0.
      99925    2    3    3    0    0  0.72495036601E+02 -0.30928969038E+01  0.16104596477E+04  0.16334052115E+04  0.26299660049E+03 0.  0.
         25    1    4    4    0    0  0.54995261396E+02 -0.35351950858E+02  0.75684497287E+03  0.76989353827E+03  0.12509000000E+03 0.  0.
         25    1    4    4    0    0  0.17499775205E+02  0.32259053954E+02  0.85361467483E+03  0.86351167327E+03  0.12509000000E+03 0.  0.
         25    1    3    3    0    0 -0.72495036601E+02  0.30928969038E+01  0.59747293895E+03  0.61472474916E+03  0.12509000000E+03 0.  0.
<mgrwt>
<rscale>  2 0.42322809E+03</rscale>
<asrwt>0</asrwt>
<pdfrwt beam="1">  1       21 0.32765149E+00 0.42322809E+03</pdfrwt>
<pdfrwt beam="2">  1       21 0.29556908E-02 0.42322809E+03</pdfrwt>
<totfact> 0.12987074E+04</totfact>
</mgrwt>
</event>
<event>
 7    0  0.4691878E-002  0.4581615E+03  0.7546771E-02  0.1025316E+00
         21   -1    0    0  502  501  0.00000000000E+00  0.00000000000E+00  0.14141480954E+03  0.14141480954E+03  0.00000000000E+00 0.  1.
         21   -1    0    0  501  502 -0.00000000000E+00 -0.00000000000E+00 -0.37109263596E+03  0.37109263596E+03  0.00000000000E+00 0.  1.
      99926    2    1    2    0    0  0.00000000000E+00  0.11102230246E-14 -0.22967782642E+03  0.51250744551E+03  0.45816151928E+03 0.  0.
      99925    2    3    3    0    0 -0.36815136222E+02 -0.19679932856E+01 -0.26730911091E+03  0.37677664972E+03  0.26295865787E+03 0.  0.
         25    1    3    3    0    0  0.36815136222E+02  0.19679932856E+01  0.37631284485E+02  0.13573079579E+03  0.12509000000E+03 0.  0.
         25    1    4    4    0    0  0.16582442856E+02 -0.15668655551E+02 -0.15001551008E+03  0.19665361818E+03  0.12509000000E+03 0.  0.
         25    1    4    4    0    0 -0.53397579078E+02  0.13700662265E+02 -0.11729360083E+03  0.18012303154E+03  0.12509000000E+03 0.  0.
<mgrwt>
<rscale>  2 0.45816152E+03</rscale>
<asrwt>0</asrwt>
<pdfrwt beam="1">  1       21 0.20796296E-01 0.45816152E+03</pdfrwt>
<pdfrwt beam="2">  1       21 0.54572446E-01 0.45816152E+03</pdfrwt>
<totfact> 0.62809838E+04</totfact>
</mgrwt>
</event>
<event>
 7    0  0.4691878E-002  0.4512236E+03  0.7546771E-02  0.1027358E+00
         21   -1    0    0  502  501  0.00000000000E+00  0.00000000000E+00  0.70413986285E+03  0.70413986285E+03  0.00000000000E+00 0. -1.
         21   -1    0    0  501  502 -0.00000000000E+00 -0.00000000000E+00 -0.72287738247E+02  0.72287738247E+02  0.00000000000E+00 0. -1.
      99926    2    1    2    0    0  0.35527136788E-14  0.00000000000E+00  0.63185212460E+03  0.77642760110E+03  0.45122357250E+03 0.  0.
      99925    2    3    3    0    0  0.17005858430E+02  0.64123447470E+02  0.24874808259E+03  0.36799494956E+03  0.26295181797E+03 0.  0.
         25    1    4    4    0    0  0.36171603423E+02  0.23929705687E+02  0.85659516030E+02  0.15768981101E+03  0.12509000000E+03 0.  0.
         25    1    4    4    0    0 -0.19165744992E+02  0.40193741783E+02  0.16308856657E+03  0.21030513856E+03  0.12509000000E+03 0.  0.
         25    1    3    3    0    0 -0.17005858430E+02 -0.64123447470E+02  0.38310404201E+03  0.40843265153E+03  0.12509000000E+03 0.  0.
<mgrwt>
<rscale>  2 0.45122357E+03</rscale>
<asrwt>0</asrwt>
<pdfrwt beam="1">  1       21 0.10354998E+00 0.45122357E+03</pdfrwt>
<pdfrwt beam="2">  1       21 0.10630550E-01 0.45122357E+03</pdfrwt>
<totfact> 0.50403746E+04</totfact>
</mgrwt>
</event>
<event>
 7    0  0.4691878E-002  0.4618994E+03  0.7546771E-02  0.1024232E+00
         21   -1    0    0  502  501  0.00000000000E+00  0.00000000000E+00  0.17009315128E+04  0.17009315128E+04  0.00000000000E+00 0.  1.
         21   -1    0    0  501  502 -0.00000000000E+00 -0.00000000000E+00 -0.31357971578E+02  0.31357971578E+02  0.00000000000E+00 0.  1.
      99926    2    1    2    0    0  0.00000000000E+00  0.14210854715E-13  0.16695735412E+04  0.17322894844E+04  0.46189939179E+03 0.  0.
      99925    2    3    3    0    0  0.67153298262E+02 -0.90108463893E+02  0.89075660861E+03  0.93552576573E+03  0.26292968989E+03 0.  0.
         25    1    4    4    0    0  0.54267283292E+02 -0.62865110341E+02  0.37454709422E+03  0.40352198704E+03  0.12509000000E+03 0.  0.
         25    1    4    4    0    0  0.12886014970E+02 -0.27243353552E+02  0.51620951439E+03  0.53200377869E+03  0.12509000000E+03 0.  0.
         25    1    3    3    0    0 -0.67153298262E+02  0.90108463893E+02  0.77881693263E+03  0.79676371867E+03  0.12509000000E+03 0.  0.
<mgrwt>
<rscale>  2 0.46189939E+03</rscale>
<asrwt>0</asrwt>
<pdfrwt beam="1">  1       21 0.25013692E+00 0.46189939E+03</pdfrwt>
<pdfrwt beam="2">  1       21 0.46114676E-02 0.46189939E+03</pdfrwt>
<totfact> 0.17633941E+04</totfact>
</mgrwt>
</event>
<event>
 7    0  0.4691878E-002  0.4565275E+03  0.7546771E-02  0.1025793E+00
         21   -1    0    0  502  501  0.00000000000E+00  0.00000000000E+00  0.19342854656E+03  0.19342854656E+03  0.00000000000E+00 0. -1.
         21   -1    0    0  501  502 -0.00000000000E+00 -0.00000000000E+00 -0.26937259184E+03  0.26937259184E+03  0.00000000000E+00 0. -1.
      99926    2    1    2    0    0 -0.14210854715E-13  0.00000000000E+00 -0.75944045287E+02  0.46280113840E+03  0.45652754100E+03 0.  0.
      99925    2    3    3    0    0 -0.11319040036E+03 -0.17877476375E+02 -0.47870730978E+02  0.29084972093E+03  0.26300243798E+03 0.  0.
         25    1    4    4    0    0 -0.75775259571E+02 -0.17091297793E+02 -0.61497057379E+02  0.15957254961E+03  0.12509000000E+03 0.  0.
         25    1    4    4    0    0 -0.37415140792E+02 -0.78617858260E+00  0.13626326400E+02  0.13127717131E+03  0.12509000000E+03 0.  0.
         25    1    3    3    0    0  0.11319040036E+03  0.17877476375E+02 -0.28073314308E+02  0.17195141748E+03  0.12509000000E+03 0.  0.
<mgrwt>
<rscale>  2 0.45652754E+03</rscale>
<asrwt>0</asrwt>
<pdfrwt beam="1">  1       21 0.28445375E-01 0.45652754E+03</pdfrwt>
<pdfrwt beam="2">  1       21 0.39613616E-01 0.45652754E+03</pdfrwt>
<totfact> 0.67154450E+04</totfact>
</mgrwt>
</event>
<event>
 7    0  0.4691878E-002  0.4764062E+03  0.7546771E-02  0.1020128E+00
         21   -1    0    0  502  501  0.00000000000E+00  0.00000000000E+00  0.69744809632E+03  0.69744809632E+03  0.00000000000E+00 0. -1.
         21   -1    0    0  501  502 -0.00000000000E+00 -0.00000000000E+00 -0.81354741707E+02  0.81354741707E+02  0.00000000000E+00 0. -1.
      99926    2    1    2    0    0  0.00000000000E+00  0.00000000000E+00  0.61609335461E+03  0.77880283803E+03  0.47640617011E+03 0.  0.
      99925    2    3    3    0    0  0.96507570004E+02 -0.16163737118E+02  0.23527590156E+03  0.36619598143E+03  0.26300146291E+03 0.  0.
         25    1    3    3    0    0 -0.96507570004E+02  0.16163737118E+02  0.38081745305E+03  0.41260685660E+03  0.12509000000E+03 0.  0.
         25    1    4    4    0    0  0.22081949704E+02 -0.36867057289E+02  0.93717566533E+02  0.16210269212E+03  0.12509000000E+03 0.  0.
         25    1    4    4    0    0  0.74425620300E+02  0.20703320171E+02  0.14155833503E+03  0.20409328931E+03  0.12509000000E+03 0.  0.
<mgrwt>
<rscale>  2 0.47640617E+03</rscale>
<asrwt>0</asrwt>
<pdfrwt beam="1">  1       21 0.10256589E+00 0.47640617E+03</pdfrwt>
<pdfrwt beam="2">  1       21 0.11963933E-01 0.47640617E+03</pdfrwt>
<totfact> 0.41400335E+04</totfact>
</mgrwt>
</event>
<event>
 7    0  0.4691878E-002  0.4747332E+03  0.7546771E-02  0.1020593E+00
         21   -1    0    0  502  501  0.00000000000E+00  0.00000000000E+00  0.51755294765E+02  0.51755294765E+02  0.00000000000E+00 0.  1.
         21   -1    0    0  501  502 -0.00000000000E+00 -0.00000000000E+00 -0.10886401691E+04  0.10886401691E+04  0.00000000000E+00 0.  1.
      99926    2    1    2    0    0  0.00000000000E+00 -0.35527136788E-14 -0.10368848743E+04  0.11403954638E+04  0.47473315807E+03 0.  0.
      99925    2    3    3    0    0  0.13032443748E+03 -0.44616348346E+01 -0.61664448162E+03  0.68295272323E+03  0.26300121723E+03 0.  0.
         25    1    4    4    0    0  0.52048148476E+02 -0.37010638019E+02 -0.25749473041E+03  0.29330844068E+03  0.12509000000E+03 0.  0.
         25    1    3    3    0    0 -0.13032443748E+03  0.44616348346E+01 -0.42024039270E+03  0.45744274062E+03  0.12509000000E+03 0.  0.
         25    1    4    4    0    0  0.78276289001E+02  0.32549003184E+02 -0.35914975120E+03  0.38964428254E+03  0.12509000000E+03 0.  0.
<mgrwt>
<rscale>  2 0.47473316E+03</rscale>
<asrwt>0</asrwt>
<pdfrwt beam="1">  1       21 0.76110727E-02 0.47473316E+03</pdfrwt>
<pdfrwt beam="2">  1       21 0.16009414E+00 0.47473316E+03</pdfrwt>
<totfact> 0.29327367E+04</totfact>
</mgrwt>
</event>
<event>
 7    0  0.4691878E-002  0.4484362E+03  0.7546771E-02  0.1028189E+00
         21   -1    0    0  502  501  0.00000000000E+00  0.00000000000E+00  0.24714743297E+03  0.24714743297E+03  0.00000000000E+00 0. -1.
         21   -1    0    0  501  502 -0.00000000000E+00 -0.00000000000E+00 -0.20341609216E+03  0.20341609216E+03  0.00000000000E+00 0. -1.
      99926    2    1    2    0    0  0.00000000000E+00  0.00000000000E+00  0.43731340801E+02  0.45056352513E+03  0.44843623851E+03 0.  0.
      99925    2    3    3    0    0  0.37829434069E+02 -0.99816122612E+02  0.33973497726E+02  0.28583026189E+03  0.26296466616E+03 0.  0.
         25    1    4    4    0    0 -0.13780177317E+02 -0.71563034134E+02  0.66793822450E+01  0.14492509579E+03  0.12509000000E+03 0.  0.
         25    1    4    4    0    0  0.51609611386E+02 -0.28253088478E+02  0.27294115481E+02  0.14090516611E+03  0.12509000000E+03 0.  0.
         25    1    3    3    0    0 -0.37829434069E+02  0.99816122612E+02  0.97578430756E+01  0.16473326324E+03  0.12509000000E+03 0.  0.
<mgrwt>
<rscale>  2 0.44843624E+03</rscale>
<asrwt>0</asrwt>
<pdfrwt beam="1">  1       21 0.36345211E-01 0.44843624E+03</pdfrwt>
<pdfrwt beam="2">  1       21 0.29914131E-01 0.44843624E+03</pdfrwt>
<totfact> 0.72600220E+04</totfact>
</mgrwt>
</event>
<event>
 7    0  0.4691878E-002  0.4621365E+03  0.7546771E-02  0.1024163E+00
         21   -1    0    0  502  501  0.00000000000E+00  0.00000000000E+00  0.73531318422E+02  0.73531318422E+02  0.00000000000E+00 0.  1.
         21   -1    0    0  501  502 -0.00000000000E+00 -0.00000000000E+00 -0.72611981467E+03  0.72611981467E+03  0.00000000000E+00 0.  1.
      99926    2    1    2    0    0  0.00000000000E+00  0.00000000000E+00 -0.65258849625E+03  0.79965113309E+03  0.46213654824E+03 0.  0.
      99925    2    3    3    0    0  0.55559692063E+02 -0.38791724513E+02 -0.23734309667E+03  0.36071158458E+03  0.26303882687E+03 0.  0.
         25    1    4    4    0    0 -0.59179369006E+01 -0.20715108129E+02 -0.14416908765E+03  0.19208428258E+03  0.12509000000E+03 0.  0.
         25    1    4    4    0    0  0.61477628964E+02 -0.18076616384E+02 -0.93174009019E+02  0.16862730200E+03  0.12509000000E+03 0.  0.
         25    1    3    3    0    0 -0.55559692063E+02  0.38791724513E+02 -0.41524539958E+03  0.43893954851E+03  0.12509000000E+03 0.  0.
<mgrwt>
<rscale>  2 0.46213655E+03</rscale>
<asrwt>0</asrwt>
<pdfrwt beam="1">  1       21 0.10813429E-01 0.46213655E+03</pdfrwt>
<pdfrwt beam="2">  1       21 0.10678233E+00 0.46213655E+03</pdfrwt>
<totfact> 0.45196729E+04</totfact>
</mgrwt>
</event>
<event>
 7    0  0.4691878E-002  0.4451321E+03  0.7546771E-02  0.1029184E+00
         21   -1    0    0  502  501  0.00000000000E+00  0.00000000000E+00  0.61657543653E+02  0.61657543653E+02  0.00000000000E+00 0.  1.
         21   -1    0    0  501  502 -0.00000000000E+00 -0.00000000000E+00 -0.80339960146E+03  0.80339960146E+03  0.00000000000E+00 0.  1.
      99926    2    1    2    0    0  0.14210854715E-13  0.00000000000E+00 -0.74174205781E+03  0.86505714511E+03  0.44513209724E+03 0.  0.
      99925    2    3    3    0    0 -0.83554001880E+02  0.57334275458E+02 -0.42872517662E+03  0.51306912489E+03  0.26299459971E+03 0.  0.
         25    1    4    4    0    0 -0.30468684976E+02  0.27658330131E+02 -0.28010546647E+03  0.30951559644E+03  0.12509000000E+03 0.  0.
         25    1    3    3    0    0  0.83554001880E+02 -0.57334275458E+02 -0.31301688118E+03  0.35198802022E+03  0.12509000000E+03 0.  0.
         25    1    4    4    0    0 -0.53085316904E+02  0.29675945327E+02 -0.14861971015E+03  0.20355352846E+03  0.12509000000E+03 0.  0.
<mgrwt>
<rscale>  2 0.44513210E+03</rscale>
<asrwt>0</asrwt>
<pdfrwt beam="1">  1       21 0.90672854E-02 0.44513210E+03</pdfrwt>
<pdfrwt beam="2">  1       21 0.11814701E+00 0.44513210E+03</pdfrwt>
<totfact> 0.48412374E+04</totfact>
</mgrwt>
</event>
<event>
 7    0  0.4691878E-002  0.4569030E+03  0.7546771E-02  0.1025683E+00
         21   -1    0    0  502  501  0.00000000000E+00  0.00000000000E+00  0.51938002056E+03  0.51938002056E+03  0.00000000000E+00 0. -1.
         21   -1    0    0  501  502 -0.00000000000E+00 -0.00000000000E+00 -0.10048535265E+03  0.10048535265E+03  0.00000000000E+00 0. -1.
      99926    2    1    2    0    0  0.35527136788E-14  0.00000000000E+00  0.41889466791E+03  0.61986537322E+03  0.45690298544E+03 0.  0.
      99925    2    3    3    0    0 -0.18051171897E+02 -0.99158004423E+01  0.10970756678E+03  0.28569724261E+03  0.26298858591E+03 0.  0.
         25    1    4    4    0    0 -0.39402552401E+02 -0.28560930215E+02  0.41876213022E+02  0.14060374528E+03  0.12509000000E+03 0.  0.
         25    1    3    3    0    0  0.18051171897E+02  0.99158004423E+01  0.30918710114E+03  0.33416813061E+03  0.12509000000E+03 0.  0.
         25    1    4    4    0    0  0.21351380505E+02  0.18645129772E+02  0.67831353754E+02  0.14509349732E+03  0.12509000000E+03 0.  0.
<mgrwt>
<rscale>  2 0.45690299E+03</rscale>
<asrwt>0</asrwt>
<pdfrwt beam="1">  1       21 0.76379414E-01 0.45690299E+03</pdfrwt>
<pdfrwt beam="2">  1       21 0.14777258E-01 0.45690299E+03</pdfrwt>
<totfact> 0.56616273E+04</totfact>
</mgrwt>
</event>
<event>
 7    0  0.4691878E-002  0.4537433E+03  0.7546771E-02  0.1026612E+00
         21   -1    0    0  502  501  0.00000000000E+00  0.00000000000E+00  0.56736166704E+03  0.56736166704E+03  0.00000000000E+00 0. -1.
         21   -1    0    0  501  502 -0.00000000000E+00 -0.00000000000E+00 -0.90719448867E+02  0.90719448867E+02  0.00000000000E+00 0. -1.
      99926    2    1    2    0    0 -0.35527136788E-14  0.00000000000E+00  0.47664221817E+03  0.65808111591E+03  0.45374326548E+03 0.  0.
      99925    2    3    3    0    0 -0.29016131842E+02 -0.84944633185E+02  0.20269061792E+03  0.34382880646E+03  0.26282548382E+03 0.  0.
         25    1    4    4    0    0 -0.26446527240E+02 -0.32741936561E+01  0.10294742190E+03  0.16418227347E+03  0.12509000000E+03 0.  0.
         25    1    3    3    0    0  0.29016131842E+02  0.84944633185E+02  0.27395160025E+03  0.31425230945E+03  0.12509000000E+03 0.  0.
         25    1    4    4    0    0 -0.25696046017E+01 -0.81670439528E+02  0.99743196023E+02  0.17964653298E+03  0.12509000000E+03 0.  0.
<mgrwt>
<rscale>  2 0.45374327E+03</rscale>
<asrwt>0</asrwt>
<pdfrwt beam="1">  1       21 0.83435538E-01 0.45374327E+03</pdfrwt>
<pdfrwt beam="2">  1       21 0.13341096E-01 0.45374327E+03</pdfrwt>
<totfact> 0.55788962E+04</totfact>
</mgrwt>
</event>
<event>
 7    0  0.4691878E-002  0.4203931E+03  0.7546771E-02  0.1036938E+00
         21   -1    0    0  502  501  0.00000000000E+00  0.00000000000E+00  0.47327218287E+02  0.47327218287E+02  0.00000000000E+00 0.  1.
         21   -1    0    0  501  502 -0.00000000000E+00 -0.00000000000E+00 -0.93355542044E+03  0.93355542044E+03  0.00000000000E+00 0.  1.
      99926    2    1    2    0    0  0.00000000000E+00  0.22204460493E-15 -0.88622820216E+03  0.98088263873E+03  0.42039305973E+03 0.  0.
      99925    2    3    3    0    0  0.62451584952E+02 -0.15765512165E+01 -0.68080856501E+03  0.73239235441E+03  0.26267008324E+03 0.  0.
         25    1    4    4    0    0  0.41011589092E+02 -0.94271659197E+00 -0.24068067802E+03  0.27433107011E+03  0.12509000000E+03 0.  0.
         25    1    4    4    0    0  0.21439995859E+02 -0.63383462451E+00 -0.44012788699E+03  0.45806128430E+03  0.12509000000E+03 0.  0.
         25    1    3    3    0    0 -0.62451584952E+02  0.15765512165E+01 -0.20541963714E+03  0.24849028432E+03  0.12509000000E+03 0.  0.
<mgrwt>
<rscale>  2 0.42039306E+03</rscale>
<asrwt>0</asrwt>
<pdfrwt beam="1">  1       21 0.69598858E-02 0.42039306E+03</pdfrwt>
<pdfrwt beam="2">  1       21 0.13728755E+00 0.42039306E+03</pdfrwt>
<totfact> 0.52816496E+04</totfact>
</mgrwt>
</event>
<event>
 7    0  0.4691878E-002  0.4510024E+03  0.7546771E-02  0.1027424E+00
         21   -1    0    0  502  501  0.00000000000E+00  0.00000000000E+00  0.74537999720E+03  0.74537999720E+03  0.00000000000E+00 0. -1.
         21   -1    0    0  501  502 -0.00000000000E+00 -0.00000000000E+00 -0.68221288397E+02  0.68221288397E+02  0.00000000000E+00 0. -1.
      99926    2    1    2    0    0 -0.71054273576E-14  0.00000000000E+00  0.67715870881E+03  0.81360128560E+03  0.45100236698E+03 0.  0.
      99925    2    3    3    0    0  0.56594682928E+02  0.50267155683E+02  0.28490815194E+03  0.39498720015E+03  0.26289254109E+03 0.  0.
         25    1    4    4    0    0  0.32319884841E+02  0.66175589714E+02  0.15162892516E+03  0.20991098751E+03  0.12509000000E+03 0.  0.
         25    1    4    4    0    0  0.24274798087E+02 -0.15908434031E+02  0.13327922678E+03  0.18507621264E+03  0.12509000000E+03 0.  0.
         25    1    3    3    0    0 -0.56594682928E+02 -0.50267155683E+02  0.39225055687E+03  0.41861408545E+03  0.12509000000E+03 0.  0.
<mgrwt>
<rscale>  2 0.45100237E+03</rscale>
<asrwt>0</asrwt>
<pdfrwt beam="1">  1       21 0.10961470E+00 0.45100237E+03</pdfrwt>
<pdfrwt beam="2">  1       21 0.10032543E-01 0.45100237E+03</pdfrwt>
<totfact> 0.48621343E+04</totfact>
</mgrwt>
</event>
<event>
 7    0  0.4691878E-002  0.4619862E+03  0.7546771E-02  0.1024207E+00
         21   -1    0    0  502  501  0.00000000000E+00  0.00000000000E+00  0.53495599951E+03  0.53495599951E+03  0.00000000000E+00 0.  1.
         21   -1    0    0  501  502 -0.00000000000E+00 -0.00000000000E+00 -0.99742431094E+02  0.99742431094E+02  0.00000000000E+00 0.  1.
      99926    2    1    2    0    0  0.00000000000E+00  0.00000000000E+00  0.43521356842E+03  0.63469843061E+03  0.46198619858E+03 0.  0.
      99925    2    3    3    0    0 -0.41047464355E+02  0.14515165021E+02  0.11867788105E+03  0.29156881396E+03  0.26274007969E+03 0.  0.
         25    1    4    4    0    0 -0.19972620813E+02  0.75246230488E+01  0.10323882564E+03  0.16358877942E+03  0.12509000000E+03 0.  0.
         25    1    4    4    0    0 -0.21074843542E+02  0.69905419722E+01  0.15439055415E+02  0.12798003453E+03  0.12509000000E+03 0.  0.
         25    1    3    3    0    0  0.41047464355E+02 -0.14515165021E+02  0.31653568737E+03  0.34312961665E+03  0.12509000000E+03 0.  0.
<mgrwt>
<rscale>  2 0.46198620E+03</rscale>
<asrwt>0</asrwt>
<pdfrwt beam="1">  1       21 0.78669999E-01 0.46198620E+03</pdfrwt>
<pdfrwt beam="2">  1       21 0.14668005E-01 0.46198620E+03</pdfrwt>
<totfact> 0.53575663E+04</totfact>
</mgrwt>
</event>
<event>
 7    0  0.4691878E-002  0.4597781E+03  0.7546771E-02  0.1024846E+00
         21   -1    0    0  502  501  0.00000000000E+00  0.00000000000E+00  0.12605157435E+03  0.12605157435E+03  0.00000000000E+00 0.  1.
         21   -1    0    0  501  502 -0.00000000000E+00 -0.00000000000E+00 -0.41926472898E+03  0.41926472898E+03  0.00000000000E+00 0.  1.
      99926    2    1    2    0    0  0.00000000000E+00  0.00000000000E+00 -0.29321315463E+03  0.54531630333E+03  0.45977811673E+03 0.  0.
      99925    2    3    3    0    0  0.43599493998E+02 -0.58380453835E+02 -0.29308167836E+03  0.40055194773E+03  0.26312696436E+03 0.  0.
         25    1    3    3    0    0 -0.43599493998E+02  0.58380453835E+02 -0.13147627454E+00  0.14476435560E+03  0.12509000000E+03 0.  0.
         25    1    4    4    0    0 -0.17634204074E+02 -0.27191695926E+02 -0.12149722921E+03  0.17736808700E+03  0.12509000000E+03 0.  0.
         25    1    4    4    0    0  0.61233698072E+02 -0.31188757908E+02 -0.17158444915E+03  0.22318386073E+03  0.12509000000E+03 0.  0.
<mgrwt>
<rscale>  2 0.45977812E+03</rscale>
<asrwt>0</asrwt>
<pdfrwt beam="1">  1       21 0.18536996E-01 0.45977812E+03</pdfrwt>
<pdfrwt beam="2">  1       21 0.61656578E-01 0.45977812E+03</pdfrwt>
<totfact> 0.59880730E+04</totfact>
</mgrwt>
</event>
<event>
 7    0  0.4691878E-002  0.4556982E+03  0.7546771E-02  0.1026036E+00
         21   -1    0    0  502  501  0.00000000000E+00  0.00000000000E+00  0.11770536992E+03  0.11770536992E+03  0.00000000000E+00 0. -1.
         21   -1    0    0  501  502 -0.00000000000E+00 -0.00000000000E+00 -0.44106064722E+03  0.44106064722E+03  0.00000000000E+00 0. -1.
      99926    2    1    2    0    0  0.00000000000E+00 -0.35527136788E-14 -0.32335527730E+03  0.55876601715E+03  0.45569817485E+03 0.  0.
      99925    2    3    3    0    0  0.70278833536E+02  0.27594056131E+02 -0.30806711391E+03  0.41185862313E+03  0.26271968407E+03 0.  0.
         25    1    4    4    0    0  0.45705652797E+02  0.53044286946E+02 -0.16048536370E+03  0.21518773928E+03  0.12509000000E+03 0.  0.
         25    1    3    3    0    0 -0.70278833536E+02 -0.27594056131E+02 -0.15288163392E+02  0.14690739402E+03  0.12509000000E+03 0.  0.
         25    1    4    4    0    0  0.24573180739E+02 -0.25450230815E+02 -0.14758175021E+03  0.19667088385E+03  0.12509000000E+03 0.  0.
<mgrwt>
<rscale>  2 0.45569817E+03</rscale>
<asrwt>0</asrwt>
<pdfrwt beam="1">  1       21 0.17309613E-01 0.45569817E+03</pdfrwt>
<pdfrwt beam="2">  1       21 0.64861860E-01 0.45569817E+03</pdfrwt>
<totfact> 0.60953612E+04</totfact>
</mgrwt>
</event>
<event>
 7    0  0.4691878E-002  0.4529158E+03  0.7546771E-02  0.1026856E+00
         21   -1    0    0  502  501  0.00000000000E+00  0.00000000000E+00  0.52306402885E+03  0.52306402885E+03  0.00000000000E+00 0.  1.
         21   -1    0    0  501  502 -0.00000000000E+00 -0.00000000000E+00 -0.98043800894E+02  0.98043800894E+02  0.00000000000E+00 0.  1.
      99926    2    1    2    0    0  0.22204460493E-15  0.00000000000E+00  0.42502022796E+03  0.62110782975E+03  0.45291582220E+03 0.  0.
      99925    2    3    3    0    0  0.63473178328E+00  0.28196975051E+02  0.12026421586E+03  0.29047327726E+03  0.26289878452E+03 0.  0.
         25    1    4    4    0    0 -0.11447935376E+02 -0.10667604081E+02  0.91632463813E+02  0.15584886758E+03  0.12509000000E+03 0.  0.
         25    1    3    3    0    0 -0.63473178328E+00 -0.28196975051E+02  0.30475601210E+03  0.33063455249E+03  0.12509000000E+03 0.  0.
         25    1    4    4    0    0  0.12082667160E+02  0.38864579132E+02  0.28631752046E+02  0.13462440968E+03  0.12509000000E+03 0.  0.
<mgrwt>
<rscale>  2 0.45291582E+03</rscale>
<asrwt>0</asrwt>
<pdfrwt beam="1">  1       21 0.76921179E-01 0.45291582E+03</pdfrwt>
<pdfrwt beam="2">  1       21 0.14418206E-01 0.45291582E+03</pdfrwt>
<totfact> 0.58351863E+04</totfact>
</mgrwt>
</event>
<event>
 7    0  0.4691878E-002  0.4628446E+03  0.7546771E-02  0.1023959E+00
         21   -1    0    0  502  501  0.00000000000E+00  0.00000000000E+00  0.35886368224E+03  0.35886368224E+03  0.00000000000E+00 0.  1.
         21   -1    0    0  501  502 -0.00000000000E+00 -0.00000000000E+00 -0.14923849509E+03  0.14923849509E+03  0.00000000000E+00 0.  1.
      99926    2    1    2    0    0  0.00000000000E+00  0.00000000000E+00  0.20962518715E+03  0.50810217734E+03  0.46284457815E+03 0.  0.
      99925    2    3    3    0    0  0.11664573220E+03  0.27871003880E+02  0.14236094012E+03  0.32221240697E+03  0.26300414110E+03 0.  0.
         25    1    3    3    0    0 -0.11664573220E+03 -0.27871003880E+02  0.67264247034E+02  0.18588977037E+03  0.12509000000E+03 0.  0.
         25    1    4    4    0    0  0.60273781574E+02  0.26185491475E+02  0.11525428060E+03  0.18234490946E+03  0.12509000000E+03 0.  0.
         25    1    4    4    0    0  0.56371950629E+02  0.16855124044E+01  0.27106659522E+02  0.13986749751E+03  0.12509000000E+03 0.  0.
<mgrwt>
<rscale>  2 0.46284458E+03</rscale>
<asrwt>0</asrwt>
<pdfrwt beam="1">  1       21 0.52774071E-01 0.46284458E+03</pdfrwt>
<pdfrwt beam="2">  1       21 0.21946838E-01 0.46284458E+03</pdfrwt>
<totfact> 0.60828406E+04</totfact>
</mgrwt>
</event>
<event>
 7    0  0.4691878E-002  0.4523023E+03  0.7546771E-02  0.1027038E+00
         21   -1    0    0  502  501  0.00000000000E+00  0.00000000000E+00  0.20372947965E+02  0.20372947965E+02  0.00000000000E+00 0. -1.
         21   -1    0    0  501  502 -0.00000000000E+00 -0.00000000000E+00 -0.25104047798E+04  0.25104047798E+04  0.00000000000E+00 0. -1.
      99926    2    1    2    0    0  0.00000000000E+00  0.00000000000E+00 -0.24900318318E+04  0.25307777278E+04  0.45230231461E+03 0.  0.
      99925    2    3    3    0    0 -0.55549103710E+02 -0.23218112829E+02 -0.10522296457E+04  0.10862890922E+04  0.26308170002E+03 0.  0.
         25    1    3    3    0    0  0.55549103710E+02  0.23218112829E+02 -0.14378021861E+04  0.14444886355E+04  0.12509000000E+03 0.  0.
         25    1    4    4    0    0 -0.58848721854E+02 -0.95336159403E+01 -0.65867523732E+03  0.67309333547E+03  0.12509000000E+03 0.  0.
         25    1    4    4    0    0  0.32996181448E+01 -0.13684496889E+02 -0.39355440841E+03  0.41319575677E+03  0.12509000000E+03 0.  0.
<mgrwt>
<rscale>  2 0.45230231E+03</rscale>
<asrwt>0</asrwt>
<pdfrwt beam="1">  1       21 0.29960253E-02 0.45230231E+03</pdfrwt>
<pdfrwt beam="2">  1       21 0.36917674E+00 0.45230231E+03</pdfrwt>
<totfact> 0.69670026E+03</totfact>
</mgrwt>
</event>
<event>
 7    0  0.4691878E-002  0.4462570E+03  0.7546771E-02  0.1028844E+00
         21   -1    0    0  502  501  0.00000000000E+00  0.00000000000E+00  0.59277865927E+03  0.59277865927E+03  0.00000000000E+00 0.  1.
         21   -1    0    0  501  502 -0.00000000000E+00 -0.00000000000E+00 -0.83988041988E+02  0.83988041988E+02  0.00000000000E+00 0.  1.
      99926    2    1    2    0    0  0.14210854715E-13  0.71054273576E-14  0.50879061729E+03  0.67676670126E+03  0.44625696151E+03 0.  0.
      99925    2    3    3    0    0  0.89750585530E+02  0.52439502407E+02  0.30348602183E+03  0.41484580857E+03  0.26303651918E+03 0.  0.
         25    1    4    4    0    0  0.16952379811E+02  0.17933228556E+02  0.96357126255E+02  0.15981610603E+03  0.12509000000E+03 0.  0.
         25    1    4    4    0    0  0.72798205720E+02  0.34506273851E+02  0.20712889558E+03  0.25502970253E+03  0.12509000000E+03 0.  0.
         25    1    3    3    0    0 -0.89750585530E+02 -0.52439502407E+02  0.20530459545E+03  0.26192089270E+03  0.12509000000E+03 0.  0.
<mgrwt>
<rscale>  2 0.44625696E+03</rscale>
<asrwt>0</asrwt>
<pdfrwt beam="1">  1       21 0.87173330E-01 0.44625696E+03</pdfrwt>
<pdfrwt beam="2">  1       21 0.12351183E-01 0.44625696E+03</pdfrwt>
<totfact> 0.58079816E+04</totfact>
</mgrwt>
</event>
<event>
 7    0  0.4691878E-002  0.4543314E+03  0.7546771E-02  0.1026438E+00
         21   -1    0    0  502  501  0.00000000000E+00  0.00000000000E+00  0.40724212377E+03  0.40724212377E+03  0.00000000000E+00 0.  1.
         21   -1    0    0  501  502 -0.00000000000E+00 -0.00000000000E+00 -0.12671637602E+03  0.12671637602E+03  0.00000000000E+00 0.  1.
      99926    2    1    2    0    0  0.00000000000E+00 -0.17763568394E-14  0.28052574775E+03  0.53395849980E+03  0.45433135964E+03 0.  0.
      99925    2    3    3    0    0  0.30254772273E+02  0.52850115192E+01  0.30380428218E+03  0.40306663276E+03  0.26310147468E+03 0.  0.
         25    1    4    4    0    0  0.17541197626E+02 -0.37783748395E+02  0.15779584011E+03  0.20562670185E+03  0.12509000000E+03 0.  0.
         25    1    4    4    0    0  0.12713574647E+02  0.43068759915E+02  0.14600844207E+03  0.19743993091E+03  0.12509000000E+03 0.  0.
         25    1    3    3    0    0 -0.30254772273E+02 -0.52850115192E+01 -0.23278534430E+02  0.13089186704E+03  0.12509000000E+03 0.  0.
<mgrwt>
<rscale>  2 0.45433136E+03</rscale>
<asrwt>0</asrwt>
<pdfrwt beam="1">  1       21 0.59888547E-01 0.45433136E+03</pdfrwt>
<pdfrwt beam="2">  1       21 0.18634761E-01 0.45433136E+03</pdfrwt>
<totfact> 0.63273357E+04</totfact>
</mgrwt>
</event>
<event>
 7    0  0.4691878E-002  0.4495878E+03  0.7546771E-02  0.1027845E+00
         21   -1    0    0  502  501  0.00000000000E+00  0.00000000000E+00  0.34737641180E+03  0.34737641180E+03  0.00000000000E+00 0.  1.
         21   -1    0    0  501  502 -0.00000000000E+00 -0.00000000000E+00 -0.14546844392E+03  0.14546844392E+03  0.00000000000E+00 0.  1.
      99926    2    1    2    0    0 -0.71054273576E-14  0.71054273576E-14  0.20190796787E+03  0.49284485572E+03  0.44958783827E+03 0.  0.
      99925    2    3    3    0    0  0.62595422068E+02 -0.42252051085E+02  0.21154018308E+03  0.34640814463E+03  0.26371562511E+03 0.  0.
         25    1    4    4    0    0  0.26460699400E+02 -0.43468605400E+02  0.63431371145E+02  0.14920031908E+03  0.12509000000E+03 0.  0.
         25    1    4    4    0    0  0.36134722668E+02  0.12165543153E+01  0.14810881193E+03  0.19720782555E+03  0.12509000000E+03 0.  0.
         25    1    3    3    0    0 -0.62595422068E+02  0.42252051085E+02 -0.96322152066E+01  0.14643671109E+03  0.12509000000E+03 0.  0.
<mgrwt>
<rscale>  2 0.44958784E+03</rscale>
<asrwt>0</asrwt>
<pdfrwt beam="1">  1       21 0.51084766E-01 0.44958784E+03</pdfrwt>
<pdfrwt beam="2">  1       21 0.21392418E-01 0.44958784E+03</pdfrwt>
<totfact> 0.68679999E+04</totfact>
</mgrwt>
</event>
<event>
 7    0  0.4691878E-002  0.4558781E+03  0.7546771E-02  0.1025984E+00
         21   -1    0    0  502  501  0.00000000000E+00  0.00000000000E+00  0.81299553265E+02  0.81299553265E+02  0.00000000000E+00 0. -1.
         21   -1    0    0  501  502 -0.00000000000E+00 -0.00000000000E+00 -0.63907117998E+03  0.63907117998E+03  0.00000000000E+00 0. -1.
      99926    2    1    2    0    0 -0.17763568394E-14  0.00000000000E+00 -0.55777162671E+03  0.72037073324E+03  0.45587806017E+03 0.  0.
      99925    2    3    3    0    0 -0.11357401547E+02 -0.11253141421E+03 -0.37203569387E+03  0.46949695103E+03  0.26310552969E+03 0.  0.
         25    1    4    4    0    0 -0.36247604523E+02 -0.27539007594E+02 -0.17403597708E+03  0.21910799892E+03  0.12509000000E+03 0.  0.
         25    1    4    4    0    0  0.24890202976E+02 -0.84992406619E+02 -0.19799971679E+03  0.25038895211E+03  0.12509000000E+03 0.  0.
         25    1    3    3    0    0  0.11357401547E+02  0.11253141421E+03 -0.18573593284E+03  0.25087378222E+03  0.12509000000E+03 0.  0.
<mgrwt>
<rscale>  2 0.45587806E+03</rscale>
<asrwt>0</asrwt>
<pdfrwt beam="1">  1       21 0.11955817E-01 0.45587806E+03</pdfrwt>
<pdfrwt beam="2">  1       21 0.93981055E-01 0.45587806E+03</pdfrwt>
<totfact> 0.51454628E+04</totfact>
</mgrwt>
</event>
<event>
 7    0  0.4691878E-002  0.4443543E+03  0.7546771E-02  0.1029419E+00
         21   -1    0    0  502  501  0.00000000000E+00  0.00000000000E+00  0.95124365804E+02  0.95124365804E+02  0.00000000000E+00 0. -1.
         21   -1    0    0  501  502 -0.00000000000E+00 -0.00000000000E+00 -0.51892789185E+03  0.51892789185E+03  0.00000000000E+00 0. -1.
      99926    2    1    2    0    0  0.14210854715E-13  0.00000000000E+00 -0.42380352605E+03  0.61405225766E+03  0.44435430283E+03 0.  0.
      99925    2    3    3    0    0 -0.71429054419E+02 -0.66412533027E+02 -0.31445157407E+03  0.42139169641E+03  0.26301793667E+03 0.  0.
         25    1    3    3    0    0  0.71429054419E+02  0.66412533027E+02 -0.10935195198E+03  0.19266056125E+03  0.12509000000E+03 0.  0.
         25    1    4    4    0    0 -0.86209925360E+01 -0.52149282862E+02 -0.11897049487E+03  0.18054183993E+03  0.12509000000E+03 0.  0.
         25    1    4    4    0    0 -0.62808061883E+02 -0.14263250165E+02 -0.19548107919E+03  0.24084985648E+03  0.12509000000E+03 0.  0.
<mgrwt>
<rscale>  2 0.44435430E+03</rscale>
<asrwt>0</asrwt>
<pdfrwt beam="1">  1       21 0.13988877E-01 0.44435430E+03</pdfrwt>
<pdfrwt beam="2">  1       21 0.76312925E-01 0.44435430E+03</pdfrwt>
<totfact> 0.62949350E+04</totfact>
</mgrwt>
</event>
<event>
 7    0  0.4691878E-002  0.4712447E+03  0.7546771E-02  0.1021569E+00
         21   -1    0    0  502  501  0.00000000000E+00  0.00000000000E+00  0.28052106047E+03  0.28052106047E+03  0.00000000000E+00 0. -1.
         21   -1    0    0  501  502 -0.00000000000E+00 -0.00000000000E+00 -0.19790992258E+03  0.19790992258E+03  0.00000000000E+00 0. -1.
      99926    2    1    2    0    0  0.00000000000E+00  0.00000000000E+00  0.82611137892E+02  0.47843098305E+03  0.47124474049E+03 0.  0.
      99925    2    3    3    0    0 -0.10620005019E+03 -0.44229800204E+02  0.10795610824E+03  0.30660373984E+03  0.26290037294E+03 0.  0.
         25    1    3    3    0    0  0.10620005019E+03  0.44229800204E+02 -0.25344970351E+02  0.17182724321E+03  0.12509000000E+03 0.  0.
         25    1    4    4    0    0 -0.38032872465E+02 -0.13541293809E+02  0.91054528479E+02  0.15990091082E+03  0.12509000000E+03 0.  0.
         25    1    4    4    0    0 -0.68167177723E+02 -0.30688506394E+02  0.16901579764E+02  0.14670282902E+03  0.12509000000E+03 0.  0.
<mgrwt>
<rscale>  2 0.47124474E+03</rscale>
<asrwt>0</asrwt>
<pdfrwt beam="1">  1       21 0.41253097E-01 0.47124474E+03</pdfrwt>
<pdfrwt beam="2">  1       21 0.29104400E-01 0.47124474E+03</pdfrwt>
<totfact> 0.58849926E+04</totfact>
</mgrwt>
</event>
<event>
 7    0  0.4691878E-002  0.4539588E+03  0.7546771E-02  0.1026548E+00
         21   -1    0    0  502  501  0.00000000000E+00  0.00000000000E+00  0.16277111975E+04  0.16277111975E+04  0.00000000000E+00 0. -1.
         21   -1    0    0  501  502 -0.00000000000E+00 -0.00000000000E+00 -0.31651588374E+02  0.31651588374E+02  0.00000000000E+00 0. -1.
      99926    2    1    2    0    0  0.00000000000E+00  0.00000000000E+00  0.15960596091E+04  0.16593627858E+04  0.45395878585E+03 0.  0.
      99925    2    3    3    0    0 -0.33712527885E+02  0.91614975220E+02  0.80345062918E+03  0.85102724823E+03  0.26302970456E+03 0.  0.
         25    1    3    3    0    0  0.33712527885E+02 -0.91614975220E+02  0.79260897991E+03  0.80833553761E+03  0.12509000000E+03 0.  0.
         25    1    4    4    0    0 -0.38050172392E+02  0.55986413389E+02  0.52051733366E+03  0.53959994148E+03  0.12509000000E+03 0.  0.
         25    1    4    4    0    0  0.43376445074E+01  0.35628561831E+02  0.28293329552E+03  0.31142730675E+03  0.12509000000E+03 0.  0.
<mgrwt>
<rscale>  2 0.45395879E+03</rscale>
<asrwt>0</asrwt>
<pdfrwt beam="1">  1       21 0.23936924E+00 0.45395879E+03</pdfrwt>
<pdfrwt beam="2">  1       21 0.46546465E-02 0.45395879E+03</pdfrwt>
<totfact> 0.20284481E+04</totfact>
</mgrwt>
</event>
<event>
 7    0  0.4691878E-002  0.4518196E+03  0.7546771E-02  0.1027181E+00
         21   -1    0    0  502  501  0.00000000000E+00  0.00000000000E+00  0.67815314002E+03  0.67815314002E+03  0.00000000000E+00 0. -1.
         21   -1    0    0  501  502 -0.00000000000E+00 -0.00000000000E+00 -0.75256214703E+02  0.75256214703E+02  0.00000000000E+00 0. -1.
      99926    2    1    2    0    0  0.14210854715E-13  0.00000000000E+00  0.60289692531E+03  0.75340935472E+03  0.45181960252E+03 0.  0.
      99925    2    3    3    0    0  0.77575800325E+02 -0.78096688693E+02  0.37106617137E+03  0.46790961014E+03  0.26293003279E+03 0.  0.
         25    1    4    4    0    0 -0.29541738105E+01 -0.38560173785E+02  0.17878070179E+03  0.22159797287E+03  0.12509000000E+03 0.  0.
         25    1    4    4    0    0  0.80529974136E+02 -0.39536514908E+02  0.19228546958E+03  0.24631163727E+03  0.12509000000E+03 0.  0.
         25    1    3    3    0    0 -0.77575800325E+02  0.78096688693E+02  0.23183075394E+03  0.28549974458E+03  0.12509000000E+03 0.  0.
<mgrwt>
<rscale>  2 0.45181960E+03</rscale>
<asrwt>0</asrwt>
<pdfrwt beam="1">  1       21 0.99728400E-01 0.45181960E+03</pdfrwt>
<pdfrwt beam="2">  1       21 0.11067091E-01 0.45181960E+03</pdfrwt>
<totfact> 0.51369205E+04</totfact>
</mgrwt>
</event>
<event>
 7    0  0.4691878E-002  0.4429132E+03  0.7546771E-02  0.1029857E+00
         21   -1    0    0  502  501  0.00000000000E+00  0.00000000000E+00  0.34290590335E+03  0.34290590335E+03  0.00000000000E+00 0.  1.
         21   -1    0    0  501  502 -0.00000000000E+00 -0.00000000000E+00 -0.14302183032E+03  0.14302183032E+03  0.00000000000E+00 0.  1.
      99926    2    1    2    0    0 -0.14210854715E-13  0.00000000000E+00  0.19988407303E+03  0.48592773367E+03  0.44291321915E+03 0.  0.
      99925    2    3    3    0    0 -0.78183290460E+02  0.54113351765E+02  0.16611802684E+03  0.32521514636E+03  0.26292358363E+03 0.  0.
         25    1    4    4    0    0 -0.13927529381E+01  0.90107305270E+01  0.64008399172E+02  0.14081092390E+03  0.12509000000E+03 0.  0.
         25    1    4    4    0    0 -0.76790537522E+02  0.45102621238E+02  0.10210962767E+03  0.18440422245E+03  0.12509000000E+03 0.  0.
         25    1    3    3    0    0  0.78183290460E+02 -0.54113351765E+02  0.33766046186E+02  0.16071258731E+03  0.12509000000E+03 0.  0.
<mgrwt>
<rscale>  2 0.44291322E+03</rscale>
<asrwt>0</asrwt>
<pdfrwt beam="1">  1       21 0.50427339E-01 0.44291322E+03</pdfrwt>
<pdfrwt beam="2">  1       21 0.21032622E-01 0.44291322E+03</pdfrwt>
<totfact> 0.73030978E+04</totfact>
</mgrwt>
</event>
<event>
 7    0  0.4691878E-002  0.4608147E+03  0.7546771E-02  0.1024545E+00
         21   -1    0    0  502  501  0.00000000000E+00  0.00000000000E+00  0.32271588883E+02  0.32271588883E+02  0.00000000000E+00 0. -1.
         21   -1    0    0  501  502 -0.00000000000E+00 -0.00000000000E+00 -0.16450241703E+04  0.16450241703E+04  0.00000000000E+00 0. -1.
      99926    2    1    2    0    0  0.71054273576E-14  0.14210854715E-13 -0.16127525815E+04  0.16772957592E+04  0.46081468608E+03 0.  0.
      99925    2    3    3    0    0 -0.54879750717E+02 -0.10442680165E+03 -0.97325790750E+03  0.10150890769E+04  0.26316940488E+03 0.  0.
         25    1    3    3    0    0  0.54879750717E+02  0.10442680165E+03 -0.63949467395E+03  0.66220668228E+03  0.12509000000E+03 0.  0.
         25    1    4    4    0    0 -0.52246343234E+02 -0.89387774314E+02 -0.54613755533E+03  0.56976626086E+03  0.12509000000E+03 0.  0.
         25    1    4    4    0    0 -0.26334074825E+01 -0.15039027337E+02 -0.42712035218E+03  0.44532281608E+03  0.12509000000E+03 0.  0.
<mgrwt>
<rscale>  2 0.46081469E+03</rscale>
<asrwt>0</asrwt>
<pdfrwt beam="1">  1       21 0.47458207E-02 0.46081469E+03</pdfrwt>
<pdfrwt beam="2">  1       21 0.24191538E+00 0.46081469E+03</pdfrwt>
<totfact> 0.18871711E+04</totfact>
</mgrwt>
</event>
<event>
 7    0  0.4691878E-002  0.4599591E+03  0.7546771E-02  0.1024793E+00
         21   -1    0    0  502  501  0.00000000000E+00  0.00000000000E+00  0.11100640955E+04  0.11100640955E+04  0.00000000000E+00 0.  1.
         21   -1    0    0  501  502 -0.00000000000E+00 -0.00000000000E+00 -0.47646436976E+02  0.47646436976E+02  0.00000000000E+00 0.  1.
      99926    2    1    2    0    0  0.00000000000E+00  0.00000000000E+00  0.10624176585E+04  0.11577105325E+04  0.45995912412E+03 0.  0.
      99925    2    3    3    0    0 -0.32013601649E+02  0.88705525147E+02  0.84363330026E+03  0.88862384681E+03  0.26275778757E+03 0.  0.
         25    1    4    4    0    0 -0.30031050066E+02  0.46882124953E+02  0.54886996656E+03  0.56569032686E+03  0.12509000000E+03 0.  0.
         25    1    3    3    0    0  0.32013601649E+02 -0.88705525147E+02  0.21878435826E+03  0.26908668567E+03  0.12509000000E+03 0.  0.
         25    1    4    4    0    0 -0.19825515834E+01  0.41823400193E+02  0.29476333370E+03  0.32293351995E+03  0.12509000000E+03 0.  0.
<mgrwt>
<rscale>  2 0.45995912E+03</rscale>
<asrwt>0</asrwt>
<pdfrwt beam="1">  1       21 0.16324470E+00 0.45995912E+03</pdfrwt>
<pdfrwt beam="2">  1       21 0.70068297E-02 0.45995912E+03</pdfrwt>
<totfact> 0.32261031E+04</totfact>
</mgrwt>
</event>
<event>
 7    0  0.4691878E-002  0.4317049E+03  0.7546771E-02  0.1033323E+00
         21   -1    0    0  502  501  0.00000000000E+00  0.00000000000E+00  0.59972960023E+03  0.59972960023E+03  0.00000000000E+00 0.  1.
         21   -1    0    0  501  502 -0.00000000000E+00 -0.00000000000E+00 -0.77688821211E+02  0.77688821211E+02  0.00000000000E+00 0.  1.
      99926    2    1    2    0    0  0.71054273576E-14  0.00000000000E+00  0.52204077902E+03  0.67741842144E+03  0.43170492556E+03 0.  0.
      99925    2    3    3    0    0 -0.46148073525E+02  0.76755752990E+02  0.33419492779E+03  0.43461260967E+03  0.26302239527E+03 0.  0.
         25    1    3    3    0    0  0.46148073525E+02 -0.76755752990E+02  0.18784585123E+03  0.24280581178E+03  0.12509000000E+03 0.  0.
         25    1    4    4    0    0 -0.46552049266E+02  0.33945159221E+02  0.11881584863E+03  0.18189029966E+03  0.12509000000E+03 0.  0.
         25    1    4    4    0    0  0.40397574086E+00  0.42810593769E+02  0.21537907916E+03  0.25272231000E+03  0.12509000000E+03 0.  0.
<mgrwt>
<rscale>  2 0.43170493E+03</rscale>
<asrwt>0</asrwt>
<pdfrwt beam="1">  1       21 0.88195527E-01 0.43170493E+03</pdfrwt>
<pdfrwt beam="2">  1       21 0.11424827E-01 0.43170493E+03</pdfrwt>
<totfact> 0.65331065E+04</totfact>
</mgrwt>
</event>
<event>
 7    0  0.4691878E-002  0.4549672E+03  0.7546771E-02  0.1026251E+00
         21   -1    0    0  502  501  0.00000000000E+00  0.00000000000E+00  0.99744644825E+02  0.99744644825E+02  0.00000000000E+00 0.  1.
         21   -1    0    0  501  502 -0.00000000000E+00 -0.00000000000E+00 -0.51881268087E+03  0.51881268087E+03  0.00000000000E+00 0.  1.
      99926    2    1    2    0    0 -0.88817841970E-15  0.00000000000E+00 -0.41906803605E+03  0.61855732570E+03  0.45496719259E+03 0.  0.
      99925    2    3    3    0    0 -0.32336112179E+01  0.10040058525E+02 -0.11062246939E+03  0.28554466121E+03  0.26303452966E+03 0.  0.
         25    1    3    3    0    0  0.32336112179E+01 -0.10040058525E+02 -0.30844556666E+03  0.33301266449E+03  0.12509000000E+03 0.  0.
         25    1    4    4    0    0  0.33434288299E+02 -0.13992685831E+02 -0.63266524684E+02  0.14478883982E+03  0.12509000000E+03 0.  0.
         25    1    4    4    0    0 -0.36667899517E+02  0.24032744356E+02 -0.47355944703E+02  0.14075582139E+03  0.12509000000E+03 0.  0.
<mgrwt>
<rscale>  2 0.45496719E+03</rscale>
<asrwt>0</asrwt>
<pdfrwt beam="1">  1       21 0.14668330E-01 0.45496719E+03</pdfrwt>
<pdfrwt beam="2">  1       21 0.76295982E-01 0.45496719E+03</pdfrwt>
<totfact> 0.57565226E+04</totfact>
</mgrwt>
</event>
<event>
 7    0  0.4691878E-002  0.4525268E+03  0.7546771E-02  0.1026971E+00
         21   -1    0    0  502  501  0.00000000000E+00  0.00000000000E+00  0.56877343000E+03  0.56877343000E+03  0.00000000000E+00 0. -1.
         21   -1    0    0  501  502 -0.00000000000E+00 -0.00000000000E+00 -0.90009684187E+02  0.90009684187E+02  0.00000000000E+00 0. -1.
      99926    2    1    2    0    0  0.00000000000E+00  0.14210854715E-13  0.47876374581E+03  0.65878311419E+03  0.45252675858E+03 0.  0.
      99925    2    3    3    0    0 -0.50715882885E+02  0.90088976395E+02  0.36059495006E+03  0.45803576841E+03  0.26283059695E+03 0.  0.
         25    1    4    4    0    0 -0.37234206065E+02  0.86456990119E+02  0.19770145986E+03  0.25217964345E+03  0.12509000000E+03 0.  0.
         25    1    3    3    0    0  0.50715882885E+02 -0.90088976395E+02  0.11816879575E+03  0.20074734577E+03  0.12509000000E+03 0.  0.
         25    1    4    4    0    0 -0.13481676820E+02  0.36319862757E+01  0.16289349020E+03  0.20585612496E+03  0.12509000000E+03 0.  0.
<mgrwt>
<rscale>  2 0.45252676E+03</rscale>
<asrwt>0</asrwt>
<pdfrwt beam="1">  1       21 0.83643150E-01 0.45252676E+03</pdfrwt>
<pdfrwt beam="2">  1       21 0.13236719E-01 0.45252676E+03</pdfrwt>
<totfact> 0.56287810E+04</totfact>
</mgrwt>
</event>
<event>
 7    0  0.4691878E-002  0.4515691E+03  0.7546771E-02  0.1027255E+00
         21   -1    0    0  502  501  0.00000000000E+00  0.00000000000E+00  0.26660549115E+03  0.26660549115E+03  0.00000000000E+00 0. -1.
         21   -1    0    0  501  502 -0.00000000000E+00 -0.00000000000E+00 -0.19121387657E+03  0.19121387657E+03  0.00000000000E+00 0. -1.
      99926    2    1    2    0    0 -0.35527136788E-14  0.00000000000E+00  0.75391614585E+02  0.45781936772E+03  0.45156912860E+03 0.  0.
      99925    2    3    3    0    0 -0.19639339929E+02  0.58383739355E+02 -0.44793845155E+02  0.27373672995E+03  0.26292764036E+03 0.  0.
         25    1    4    4    0    0 -0.11298276033E+02  0.49031603203E+02 -0.59090018618E+02  0.14721035138E+03  0.12509000000E+03 0.  0.
         25    1    4    4    0    0 -0.83410638963E+01  0.93521361522E+01  0.14296173463E+02  0.12652637857E+03  0.12509000000E+03 0.  0.
         25    1    3    3    0    0  0.19639339929E+02 -0.58383739355E+02  0.12018545974E+03  0.18408263777E+03  0.12509000000E+03 0.  0.
<mgrwt>
<rscale>  2 0.45156913E+03</rscale>
<asrwt>0</asrwt>
<pdfrwt beam="1">  1       21 0.39206690E-01 0.45156913E+03</pdfrwt>
<pdfrwt beam="2">  1       21 0.28119688E-01 0.45156913E+03</pdfrwt>
<totfact> 0.70241884E+04</totfact>
</mgrwt>
</event>
<event>
 7    0  0.4691878E-002  0.4278819E+03  0.7546771E-02  0.1034531E+00
         21   -1    0    0  502  501  0.00000000000E+00  0.00000000000E+00  0.17750872885E+03  0.17750872885E+03  0.00000000000E+00 0.  1.
         21   -1    0    0  501  502 -0.00000000000E+00 -0.00000000000E+00 -0.25785055772E+03  0.25785055772E+03  0.00000000000E+00 0.  1.
      99926    2    1    2    0    0  0.00000000000E+00  0.00000000000E+00 -0.80341828873E+02  0.43535928657E+03  0.42788187498E+03 0.  0.
      99925    2    3    3    0    0  0.77954326487E+02  0.33353005212E+02 -0.43930701974E+02  0.27991611935E+03  0.26312321699E+03 0.  0.
         25    1    4    4    0    0  0.56220697024E+02  0.53690283660E+02 -0.32538252027E+02  0.15082990180E+03  0.12509000000E+03 0.  0.
         25    1    4    4    0    0  0.21733629463E+02 -0.20337278448E+02 -0.11392449947E+02  0.12908621755E+03  0.12509000000E+03 0.  0.
         25    1    3    3    0    0 -0.77954326487E+02 -0.33353005212E+02 -0.36411126899E+02  0.15544316722E+03  0.12509000000E+03 0.  0.
<mgrwt>
<rscale>  2 0.42788187E+03</rscale>
<asrwt>0</asrwt>
<pdfrwt beam="1">  1       21 0.26104225E-01 0.42788187E+03</pdfrwt>
<pdfrwt beam="2">  1       21 0.37919199E-01 0.42788187E+03</pdfrwt>
<totfact> 0.87443474E+04</totfact>
</mgrwt>
</event>
<event>
 7    0  0.4691878E-002  0.4517828E+03  0.7546771E-02  0.1027192E+00
         21   -1    0    0  502  501  0.00000000000E+00  0.00000000000E+00  0.26615538883E+04  0.26615538883E+04  0.00000000000E+00 0. -1.
         21   -1    0    0  501  502 -0.00000000000E+00 -0.00000000000E+00 -0.19171852066E+02  0.19171852066E+02  0.00000000000E+00 0. -1.
      99926    2    1    2    0    0  0.00000000000E+00  0.00000000000E+00  0.26423820363E+04  0.26807257404E+04  0.45178276821E+03 0.  0.
      99925    2    3    3    0    0 -0.10398371399E+03 -0.36963717824E+02  0.15735899721E+04  0.15989942979E+04  0.26156917851E+03 0.  0.
         25    1    4    4    0    0 -0.26379751072E+02  0.12805400469E+02  0.72238144727E+03  0.73371815639E+03  0.12509000000E+03 0.  0.
         25    1    3    3    0    0  0.10398371399E+03  0.36963717824E+02  0.10687920642E+04  0.10817314425E+04  0.12509000000E+03 0.  0.
         25    1    4    4    0    0 -0.77603962922E+02 -0.49769118293E+02  0.85120852480E+03  0.86527614146E+03  0.12509000000E+03 0.  0.
<mgrwt>
<rscale>  2 0.45178277E+03</rscale>
<asrwt>0</asrwt>
<pdfrwt beam="1">  1       21 0.39140473E+00 0.45178277E+03</pdfrwt>
<pdfrwt beam="2">  1       21 0.28193918E-02 0.45178277E+03</pdfrwt>
<totfact> 0.55925285E+03</totfact>
</mgrwt>
</event>
<event>
 7    0  0.4691878E-002  0.4540545E+03  0.7546771E-02  0.1026520E+00
         21   -1    0    0  502  501  0.00000000000E+00  0.00000000000E+00  0.33125631696E+02  0.33125631696E+02  0.00000000000E+00 0. -1.
         21   -1    0    0  501  502 -0.00000000000E+00 -0.00000000000E+00 -0.15559362815E+04  0.15559362815E+04  0.00000000000E+00 0. -1.
      99926    2    1    2    0    0  0.00000000000E+00  0.00000000000E+00 -0.15228106498E+04  0.15890619132E+04  0.45405449983E+03 0.  0.
      99925    2    3    3    0    0  0.80782147933E+02  0.77717145428E+02 -0.93283350963E+03  0.97564016257E+03  0.26292519850E+03 0.  0.
         25    1    4    4    0    0  0.73747922817E+01  0.60533938020E+02 -0.42339030491E+03  0.44567432459E+03  0.12509000000E+03 0.  0.
         25    1    4    4    0    0  0.73407355651E+02  0.17183207408E+02 -0.50944320473E+03  0.52996583798E+03  0.12509000000E+03 0.  0.
         25    1    3    3    0    0 -0.80782147933E+02 -0.77717145428E+02 -0.58997714021E+03  0.61342175067E+03  0.12509000000E+03 0.  0.
<mgrwt>
<rscale>  2 0.45405450E+03</rscale>
<asrwt>0</asrwt>
<pdfrwt beam="1">  1       21 0.48714157E-02 0.45405450E+03</pdfrwt>
<pdfrwt beam="2">  1       21 0.22881419E+00 0.45405450E+03</pdfrwt>
<totfact> 0.21837956E+04</totfact>
</mgrwt>
</event>
<event>
 7    0  0.4691878E-002  0.4527471E+03  0.7546771E-02  0.1026906E+00
         21   -1    0    0  502  501  0.00000000000E+00  0.00000000000E+00  0.50239983912E+02  0.50239983912E+02  0.00000000000E+00 0. -1.
         21   -1    0    0  501  502 -0.00000000000E+00 -0.00000000000E+00 -0.10200040049E+04  0.10200040049E+04  0.00000000000E+00 0. -1.
      99926    2    1    2    0    0  0.71054273576E-14  0.00000000000E+00 -0.96976402095E+03  0.10702439888E+04  0.45274710289E+03 0.  0.
      99925    2    3    3    0    0  0.43052587171E+02  0.91771694031E+02 -0.50495630462E+03  0.57834024783E+03  0.26309884759E+03 0.  0.
         25    1    4    4    0    0 -0.40948187944E+00  0.33729754602E+02 -0.30687063230E+03  0.33309901995E+03  0.12509000000E+03 0.  0.
         25    1    4    4    0    0  0.43462069051E+02  0.58041939429E+02 -0.19808567232E+03  0.24524122789E+03  0.12509000000E+03 0.  0.
         25    1    3    3    0    0 -0.43052587171E+02 -0.91771694031E+02 -0.46480771634E+03  0.49190374094E+03  0.12509000000E+03 0.  0.
<mgrwt>
<rscale>  2 0.45274710E+03</rscale>
<asrwt>0</asrwt>
<pdfrwt beam="1">  1       21 0.73882328E-02 0.45274710E+03</pdfrwt>
<pdfrwt beam="2">  1       21 0.15000059E+00 0.45274710E+03</pdfrwt>
<totfact> 0.37192822E+04</totfact>
</mgrwt>
</event>
<event>
 7    0  0.4691878E-002  0.4581432E+03  0.7546771E-02  0.1025321E+00
         21   -1    0    0  502  501  0.00000000000E+00  0.00000000000E+00  0.16470443454E+03  0.16470443454E+03  0.00000000000E+00 0. -1.
         21   -1    0    0  501  502 -0.00000000000E+00 -0.00000000000E+00 -0.31859364967E+03  0.31859364967E+03  0.00000000000E+00 0. -1.
      99926    2    1    2    0    0  0.00000000000E+00  0.00000000000E+00 -0.15388921513E+03  0.48329808421E+03  0.45814315194E+03 0.  0.
      99925    2    3    3    0    0  0.10434474253E+03 -0.21168224796E+02 -0.14539761095E+03  0.31881241773E+03  0.26299234475E+03 0.  0.
         25    1    3    3    0    0 -0.10434474253E+03  0.21168224796E+02 -0.84916041793E+01  0.16448566648E+03  0.12509000000E+03 0.  0.
         25    1    4    4    0    0  0.26369606613E+02 -0.26094731890E+02 -0.10034559307E+03  0.16459962738E+03  0.12509000000E+03 0.  0.
         25    1    4    4    0    0  0.77975135920E+02  0.49265070940E+01 -0.45052017883E+02  0.15421279036E+03  0.12509000000E+03 0.  0.
<mgrwt>
<rscale>  2 0.45814315E+03</rscale>
<asrwt>0</asrwt>
<pdfrwt beam="1">  1       21 0.24221241E-01 0.45814315E+03</pdfrwt>
<pdfrwt beam="2">  1       21 0.46852007E-01 0.45814315E+03</pdfrwt>
<totfact> 0.64828197E+04</totfact>
</mgrwt>
</event>
<event>
 7    0  0.4691878E-002  0.4556428E+03  0.7546771E-02  0.1026053E+00
         21   -1    0    0  502  501  0.00000000000E+00  0.00000000000E+00  0.20928731772E+03  0.20928731772E+03  0.00000000000E+00 0.  1.
         21   -1    0    0  501  502 -0.00000000000E+00 -0.00000000000E+00 -0.24799684993E+03  0.24799684993E+03  0.00000000000E+00 0.  1.
      99926    2    1    2    0    0  0.17763568394E-14  0.00000000000E+00 -0.38709532208E+02  0.45728416766E+03  0.45564282295E+03 0.  0.
      99925    2    3    3    0    0  0.11261531801E+02  0.10728373891E+03 -0.60954977217E+02  0.29061386239E+03  0.26287693896E+03 0.  0.
         25    1    4    4    0    0 -0.24181446318E+02  0.30661834088E+02 -0.10387658897E+02  0.13145456239E+03  0.12509000000E+03 0.  0.
         25    1    3    3    0    0 -0.11261531801E+02 -0.10728373891E+03  0.22245445009E+02  0.16667030526E+03  0.12509000000E+03 0.  0.
         25    1    4    4    0    0  0.35442978119E+02  0.76621904819E+02 -0.50567318320E+02  0.15915930001E+03  0.12509000000E+03 0.  0.
<mgrwt>
<rscale>  2 0.45564282E+03</rscale>
<asrwt>0</asrwt>
<pdfrwt beam="1">  1       21 0.30777547E-01 0.45564282E+03</pdfrwt>
<pdfrwt beam="2">  1       21 0.36470125E-01 0.45564282E+03</pdfrwt>
<totfact> 0.68029223E+04</totfact>
</mgrwt>
</event>
<event>
 7    0  0.4691878E-002  0.4556830E+03  0.7546771E-02  0.1026041E+00
         21   -1    0    0  502  501  0.00000000000E+00  0.00000000000E+00  0.53068149614E+03  0.53068149614E+03  0.00000000000E+00 0.  1.
         21   -1    0    0  501  502 -0.00000000000E+00 -0.00000000000E+00 -0.97820908218E+02  0.97820908218E+02  0.00000000000E+00 0.  1.
      99926    2    1    2    0    0 -0.35527136788E-14  0.00000000000E+00  0.43286058793E+03  0.62850240436E+03  0.45568298598E+03 0.  0.
      99925    2    3    3    0    0  0.19079172656E+02  0.68259082872E+02  0.14985645114E+03  0.31107183437E+03  0.26322122439E+03 0.  0.
         25    1    3    3    0    0 -0.19079172656E+02 -0.68259082872E+02  0.28300413679E+03  0.31743056999E+03  0.12509000000E+03 0.  0.
         25    1    4    4    0    0  0.44548213281E+02  0.39407548068E+02  0.10079160572E+03  0.17130077068E+03  0.12509000000E+03 0.  0.
         25    1    4    4    0    0 -0.25469040625E+02  0.28851534804E+02  0.49064845420E+02  0.13977106370E+03  0.12509000000E+03 0.  0.
<mgrwt>
<rscale>  2 0.45568299E+03</rscale>
<asrwt>0</asrwt>
<pdfrwt beam="1">  1       21 0.78041395E-01 0.45568299E+03</pdfrwt>
<pdfrwt beam="2">  1       21 0.14385428E-01 0.45568299E+03</pdfrwt>
<totfact> 0.56651219E+04</totfact>
</mgrwt>
</event>
<event>
 7    0  0.4691878E-002  0.4535599E+03  0.7546771E-02  0.1026666E+00
         21   -1    0    0  502  501  0.00000000000E+00  0.00000000000E+00  0.73042754642E+02  0.73042754642E+02  0.00000000000E+00 0. -1.
         21   -1    0    0  501  502 -0.00000000000E+00 -0.00000000000E+00 -0.70409639496E+03  0.70409639496E+03  0.00000000000E+00 0. -1.
      99926    2    1    2    0    0 -0.35527136788E-14  0.00000000000E+00 -0.63105364032E+03  0.77713914961E+03  0.45355987575E+03 0.  0.
      99925    2    3    3    0    0 -0.28769222454E+02 -0.67728387764E+02 -0.25360570195E+03  0.37275164120E+03  0.26308388641E+03 0.  0.
         25    1    3    3    0    0  0.28769222454E+02  0.67728387764E+02 -0.37744793837E+03  0.40438750840E+03  0.12509000000E+03 0.  0.
         25    1    4    4    0    0  0.13606111121E+02 -0.31331533180E+02 -0.83036943538E+02  0.15397867815E+03  0.12509000000E+03 0.  0.
         25    1    4    4    0    0 -0.42375333575E+02 -0.36396854584E+02 -0.17056875841E+03  0.21877296306E+03  0.12509000000E+03 0.  0.
<mgrwt>
<rscale>  2 0.45355988E+03</rscale>
<asrwt>0</asrwt>
<pdfrwt beam="1">  1       21 0.10741582E-01 0.45355988E+03</pdfrwt>
<pdfrwt beam="2">  1       21 0.10354359E+00 0.45355988E+03</pdfrwt>
<totfact> 0.49447064E+04</totfact>
</mgrwt>
</event>
<event>
 7    0  0.4691878E-002  0.4444304E+03  0.7546771E-02  0.1029396E+00
         21   -1    0    0  502  501  0.00000000000E+00  0.00000000000E+00  0.10638737982E+04  0.10638737982E+04  0.00000000000E+00 0. -1.
         21   -1    0    0  501  502 -0.00000000000E+00 -0.00000000000E+00 -0.46414903293E+02  0.46414903293E+02  0.00000000000E+00 0. -1.
      99926    2    1    2    0    0  0.00000000000E+00 -0.14210854715E-13  0.10174588949E+04  0.11102887015E+04  0.44443041957E+03 0.  0.
      99925    2    3    3    0    0 -0.62324364215E+02 -0.64805332551E+02  0.77180513212E+03  0.82032777865E+03  0.26300274706E+03 0.  0.
         25    1    3    3    0    0  0.62324364215E+02  0.64805332551E+02  0.24565376276E+03  0.28996092282E+03  0.12509000000E+03 0.  0.
         25    1    4    4    0    0 -0.71495876410E+02 -0.24106127208E+02  0.40533333672E+03  0.43085425340E+03  0.12509000000E+03 0.  0.
         25    1    4    4    0    0  0.91715121947E+01 -0.40699205343E+02  0.36647179540E+03  0.38947352526E+03  0.12509000000E+03 0.  0.
<mgrwt>
<rscale>  2 0.44443042E+03</rscale>
<asrwt>0</asrwt>
<pdfrwt beam="1">  1       21 0.15645201E+00 0.44443042E+03</pdfrwt>
<pdfrwt beam="2">  1       21 0.68257218E-02 0.44443042E+03</pdfrwt>
<totfact> 0.38187519E+04</totfact>
</mgrwt>
</event>
<event>
 7    0  0.4691878E-002  0.4539940E+03  0.7546771E-02  0.1026538E+00
         21   -1    0    0  502  501  0.00000000000E+00  0.00000000000E+00  0.54208780309E+03  0.54208780309E+03  0.00000000000E+00 0.  1.
         21   -1    0    0  501  502 -0.00000000000E+00 -0.00000000000E+00 -0.95054053440E+02  0.95054053440E+02  0.00000000000E+00 0.  1.
      99926    2    1    2    0    0 -0.53290705182E-14  0.14210854715E-13  0.44703374965E+03  0.63714185653E+03  0.45399402201E+03 0.  0.
      99925    2    3    3    0    0 -0.28315952581E+01 -0.10541559807E+03  0.33531516142E+03  0.43902820908E+03  0.26303810494E+03 0.  0.
         25    1    4    4    0    0  0.33099939924E+02 -0.60428871261E+02  0.20183228420E+03  0.24724690807E+03  0.12509000000E+03 0.  0.
         25    1    4    4    0    0 -0.35931535182E+02 -0.44986726806E+02  0.13348287722E+03  0.19178130102E+03  0.12509000000E+03 0.  0.
         25    1    3    3    0    0  0.28315952581E+01  0.10541559807E+03  0.11171858823E+03  0.19811364745E+03  0.12509000000E+03 0.  0.
<mgrwt>
<rscale>  2 0.45399402E+03</rscale>
<asrwt>0</asrwt>
<pdfrwt beam="1">  1       21 0.79718793E-01 0.45399402E+03</pdfrwt>
<pdfrwt beam="2">  1       21 0.13978538E-01 0.45399402E+03</pdfrwt>
<totfact> 0.56898790E+04</totfact>
</mgrwt>
</event>
<event>
 7    0  0.4691878E-002  0.4538033E+03  0.7546771E-02  0.1026594E+00
         21   -1    0    0  502  501  0.00000000000E+00  0.00000000000E+00  0.69492199607E+03  0.69492199607E+03  0.00000000000E+00 0. -1.
         21   -1    0    0  501  502 -0.00000000000E+00 -0.00000000000E+00 -0.74086524798E+02  0.74086524798E+02  0.00000000000E+00 0. -1.
      99926    2    1    2    0    0  0.00000000000E+00 -0.14210854715E-13  0.62083547128E+03  0.76900852087E+03  0.45380328643E+03 0.  0.
      99925    2    3    3    0    0 -0.26165642991E+02 -0.10300554270E+03  0.33093297724E+03  0.43586328701E+03  0.26299313077E+03 0.  0.
         25    1    3    3    0    0  0.26165642991E+02  0.10300554270E+03  0.28990249403E+03  0.33314523386E+03  0.12509000000E+03 0.  0.
         25    1    4    4    0    0 -0.48061652848E+02 -0.70340218568E+02  0.15736518941E+03  0.21833226917E+03  0.12509000000E+03 0.  0.
         25    1    4    4    0    0  0.21896009858E+02 -0.32665324130E+02  0.17356778783E+03  0.21753101784E+03  0.12509000000E+03 0.  0.
<mgrwt>
<rscale>  2 0.45380329E+03</rscale>
<asrwt>0</asrwt>
<pdfrwt beam="1">  1       21 0.10219441E+00 0.45380329E+03</pdfrwt>
<pdfrwt beam="2">  1       21 0.10895078E-01 0.45380329E+03</pdfrwt>
<totfact> 0.49766170E+04</totfact>
</mgrwt>
</event>
<event>
 7    0  0.4691878E-002  0.4574863E+03  0.7546771E-02  0.1025513E+00
         21   -1    0    0  502  501  0.00000000000E+00  0.00000000000E+00  0.66932708445E+03  0.66932708445E+03  0.00000000000E+00 0.  1.
         21   -1    0    0  501  502 -0.00000000000E+00 -0.00000000000E+00 -0.78173167508E+02  0.78173167508E+02  0.00000000000E+00 0.  1.
      99926    2    1    2    0    0 -0.14210854715E-13  0.71054273576E-14  0.59115391694E+03  0.74750025195E+03  0.45748625461E+03 0.  0.
      99925    2    3    3    0    0 -0.10380260725E+03  0.30850547993E+02  0.30895854886E+03  0.42037875854E+03  0.26369713336E+03 0.  0.
         25    1    4    4    0    0 -0.47023625182E+02 -0.19999445098E+02  0.18101924442E+03  0.22589084550E+03  0.12509000000E+03 0.  0.
         25    1    4    4    0    0 -0.56778982064E+02  0.50849993091E+02  0.12793930443E+03  0.19448791304E+03  0.12509000000E+03 0.  0.
         25    1    3    3    0    0  0.10380260725E+03 -0.30850547993E+02  0.28219536808E+03  0.32712149341E+03  0.12509000000E+03 0.  0.
<mgrwt>
<rscale>  2 0.45748625E+03</rscale>
<asrwt>0</asrwt>
<pdfrwt beam="1">  1       21 0.98430450E-01 0.45748625E+03</pdfrwt>
<pdfrwt beam="2">  1       21 0.11496054E-01 0.45748625E+03</pdfrwt>
<totfact> 0.49425729E+04</totfact>
</mgrwt>
</event>
<event>
 7    0  0.4691878E-002  0.4485519E+03  0.7546771E-02  0.1028155E+00
         21   -1    0    0  502  501  0.00000000000E+00  0.00000000000E+00  0.15256974359E+04  0.15256974359E+04  0.00000000000E+00 0.  1.
         21   -1    0    0  501  502 -0.00000000000E+00 -0.00000000000E+00 -0.32968332719E+02  0.32968332719E+02  0.00000000000E+00 0.  1.
      99926    2    1    2    0    0 -0.17763568394E-14  0.00000000000E+00  0.14927291032E+04  0.15586657686E+04  0.44855189530E+03 0.  0.
      99925    2    3    3    0    0 -0.88447112867E+01  0.84488323722E+01  0.57468404812E+03  0.63205698229E+03  0.26283961271E+03 0.  0.
         25    1    4    4    0    0 -0.19674176036E+02  0.41256752662E+02  0.27965406056E+03  0.30974682328E+03  0.12509000000E+03 0.  0.
         25    1    3    3    0    0  0.88447112867E+01 -0.84488323722E+01  0.91804505505E+03  0.92660878633E+03  0.12509000000E+03 0.  0.
         25    1    4    4    0    0  0.10829464750E+02 -0.32807920290E+02  0.29502998756E+03  0.32231015901E+03  0.12509000000E+03 0.  0.
<mgrwt>
<rscale>  2 0.44855190E+03</rscale>
<asrwt>0</asrwt>
<pdfrwt beam="1">  1       21 0.22436722E+00 0.44855190E+03</pdfrwt>
<pdfrwt beam="2">  1       21 0.48482852E-02 0.44855190E+03</pdfrwt>
<totfact> 0.23533943E+04</totfact>
</mgrwt>
</event>
<event>
 7    0  0.4691878E-002  0.4566120E+03  0.7546771E-02  0.1025768E+00
         21   -1    0    0  502  501  0.00000000000E+00  0.00000000000E+00  0.10361372042E+03  0.10361372042E+03  0.00000000000E+00 0.  1.
         21   -1    0    0  501  502 -0.00000000000E+00 -0.00000000000E+00 -0.50305716833E+03  0.50305716833E+03  0.00000000000E+00 0.  1.
      99926    2    1    2    0    0  0.28421709430E-13 -0.35527136788E-14 -0.39944344791E+03  0.60667088875E+03  0.45661197879E+03 0.  0.
      99925    2    3    3    0    0 -0.11000374166E+03  0.31443796527E+02 -0.26113166926E+03  0.38788516770E+03  0.26301258357E+03 0.  0.
         25    1    3    3    0    0  0.11000374166E+03 -0.31443796527E+02 -0.13831177865E+03  0.21878572105E+03  0.12509000000E+03 0.  0.
         25    1    4    4    0    0 -0.98791120536E+02  0.13873803394E+02 -0.14448221940E+03  0.21558011908E+03  0.12509000000E+03 0.  0.
         25    1    4    4    0    0 -0.11212621123E+02  0.17569993134E+02 -0.11664944985E+03  0.17230504863E+03  0.12509000000E+03 0.  0.
<mgrwt>
<rscale>  2 0.45661198E+03</rscale>
<asrwt>0</asrwt>
<pdfrwt beam="1">  1       21 0.15237312E-01 0.45661198E+03</pdfrwt>
<pdfrwt beam="2">  1       21 0.73978995E-01 0.45661198E+03</pdfrwt>
<totfact> 0.57533373E+04</totfact>
</mgrwt>
</event>
<event>
 7    0  0.4691878E-002  0.4560130E+03  0.7546771E-02  0.1025944E+00
         21   -1    0    0  502  501  0.00000000000E+00  0.00000000000E+00  0.12015277090E+03  0.12015277090E+03  0.00000000000E+00 0. -1.
         21   -1    0    0  501  502 -0.00000000000E+00 -0.00000000000E+00 -0.43267394491E+03  0.43267394491E+03  0.00000000000E+00 0. -1.
      99926    2    1    2    0    0  0.71054273576E-14  0.00000000000E+00 -0.31252117401E+03  0.55282671582E+03  0.45601304095E+03 0.  0.
      99925    2    3    3    0    0  0.44793880434E+02  0.10434547920E+03 -0.21030930102E+03  0.35536976903E+03  0.26298897294E+03 0.  0.
         25    1    3    3    0    0 -0.44793880434E+02 -0.10434547920E+03 -0.10221187299E+03  0.19745694679E+03  0.12509000000E+03 0.  0.
         25    1    4    4    0    0 -0.15593244881E+02  0.37546231824E+02 -0.11007382101E+03  0.17151274874E+03  0.12509000000E+03 0.  0.
         25    1    4    4    0    0  0.60387125315E+02  0.66799247380E+02 -0.10023548001E+03  0.18385702028E+03  0.12509000000E+03 0.  0.
<mgrwt>
<rscale>  2 0.45601304E+03</rscale>
<asrwt>0</asrwt>
<pdfrwt beam="1">  1       21 0.17669525E-01 0.45601304E+03</pdfrwt>
<pdfrwt beam="2">  1       21 0.63628521E-01 0.45601304E+03</pdfrwt>
<totfact> 0.61188235E+04</totfact>
</mgrwt>
</event>
<event>
 7    0  0.4691878E-002  0.4446788E+03  0.7546771E-02  0.1029321E+00
         21   -1    0    0  502  501  0.00000000000E+00  0.00000000000E+00  0.70416667250E+03  0.70416667250E+03  0.00000000000E+00 0.  1.
         21   -1    0    0  501  502 -0.00000000000E+00 -0.00000000000E+00 -0.70203266323E+02  0.70203266323E+02  0.00000000000E+00 0.  1.
      99926    2    1    2    0    0 -0.17763568394E-14  0.00000000000E+00  0.63396340617E+03  0.77436993882E+03  0.44467876246E+03 0.  0.
      99925    2    3    3    0    0  0.11815541132E+02  0.98460901854E+02  0.45075241440E+03  0.53137213674E+03  0.26333334847E+03 0.  0.
         25    1    4    4    0    0  0.25866353145E+02  0.25912197479E+02  0.26706440882E+03  0.29717236877E+03  0.12509000000E+03 0.  0.
         25    1    4    4    0    0 -0.14050812013E+02  0.72548704375E+02  0.18368800558E+03  0.23419976797E+03  0.12509000000E+03 0.  0.
         25    1    3    3    0    0 -0.11815541132E+02 -0.98460901854E+02  0.18321099177E+03  0.24299780207E+03  0.12509000000E+03 0.  0.
<mgrwt>
<rscale>  2 0.44467876E+03</rscale>
<asrwt>0</asrwt>
<pdfrwt beam="1">  1       21 0.10355392E+00 0.44467876E+03</pdfrwt>
<pdfrwt beam="2">  1       21 0.10324010E-01 0.44467876E+03</pdfrwt>
<totfact> 0.53211491E+04</totfact>
</mgrwt>
</event>
<event>
 7    0  0.4691878E-002  0.4029310E+03  0.7546771E-02  0.1042769E+00
         21   -1    0    0  502  501  0.00000000000E+00  0.00000000000E+00  0.70762618207E+02  0.70762618207E+02  0.00000000000E+00 0.  1.
         21   -1    0    0  501  502 -0.00000000000E+00 -0.00000000000E+00 -0.57358451451E+03  0.57358451451E+03  0.00000000000E+00 0.  1.
      99926    2    1    2    0    0  0.00000000000E+00  0.00000000000E+00 -0.50282189630E+03  0.64434713272E+03  0.40293097180E+03 0.  0.
      99925    2    3    3    0    0 -0.17747160501E+02 -0.35594939655E+02 -0.38533993111E+03  0.46818958482E+03  0.26293090992E+03 0.  0.
         25    1    4    4    0    0  0.31362916476E+02 -0.16443871359E+02 -0.18006032209E+03  0.22208840835E+03  0.12509000000E+03 0.  0.
         25    1    4    4    0    0 -0.49110076976E+02 -0.19151068297E+02 -0.20527960902E+03  0.24610117647E+03  0.12509000000E+03 0.  0.
         25    1    3    3    0    0  0.17747160501E+02  0.35594939655E+02 -0.11748196519E+03  0.17615754789E+03  0.12509000000E+03 0.  0.
<mgrwt>
<rscale>  2 0.40293097E+03</rscale>
<asrwt>0</asrwt>
<pdfrwt beam="1">  1       21 0.10406267E-01 0.40293097E+03</pdfrwt>
<pdfrwt beam="2">  1       21 0.84350666E-01 0.40293097E+03</pdfrwt>
<totfact> 0.86401699E+04</totfact>
</mgrwt>
</event>
<event>
 7    0  0.4691878E-002  0.4587359E+03  0.7546771E-02  0.1025148E+00
         21   -1    0    0  502  501  0.00000000000E+00  0.00000000000E+00  0.14164876525E+03  0.14164876525E+03  0.00000000000E+00 0.  1.
         21   -1    0    0  501  502 -0.00000000000E+00 -0.00000000000E+00 -0.37140922962E+03  0.37140922962E+03  0.00000000000E+00 0.  1.
      99926    2    1    2    0    0  0.00000000000E+00 -0.97144514655E-15 -0.22976046437E+03  0.51305799487E+03  0.45873590999E+03 0.  0.
      99925    2    3    3    0    0  0.55415616429E+02 -0.15442060364E+00 -0.25880603857E+03  0.37319353237E+03  0.26310061310E+03 0.  0.
         25    1    4    4    0    0  0.54969272420E+02 -0.20891150853E+02 -0.16626842949E+03  0.21621924021E+03  0.12509000000E+03 0.  0.
         25    1    4    4    0    0  0.44634400921E+00  0.20736730249E+02 -0.92537609081E+02  0.15697429216E+03  0.12509000000E+03 0.  0.
         25    1    3    3    0    0 -0.55415616429E+02  0.15442060364E+00  0.29045574202E+02  0.13986446250E+03  0.12509000000E+03 0.  0.
<mgrwt>
<rscale>  2 0.45873591E+03</rscale>
<asrwt>0</asrwt>
<pdfrwt beam="1">  1       21 0.20830701E-01 0.45873591E+03</pdfrwt>
<pdfrwt beam="2">  1       21 0.54619003E-01 0.45873591E+03</pdfrwt>
<totfact> 0.62489325E+04</totfact>
</mgrwt>
</event>
<event>
 7    0  0.4691878E-002  0.4539810E+03  0.7546771E-02  0.1026541E+00
         21   -1    0    0  502  501  0.00000000000E+00  0.00000000000E+00  0.22516216248E+04  0.22516216248E+04  0.00000000000E+00 0. -1.
         21   -1    0    0  501  502 -0.00000000000E+00 -0.00000000000E+00 -0.22883372084E+02  0.22883372084E+02  0.00000000000E+00 0. -1.
      99926    2    1    2    0    0  0.00000000000E+00  0.35527136788E-14  0.22287382527E+04  0.22745049969E+04  0.45398103675E+03 0.  0.
      99925    2    3    3    0    0 -0.10842055683E+03  0.29337176625E+02  0.14043844082E+04  0.14331831464E+04  0.26287388227E+03 0.  0.
         25    1    3    3    0    0  0.10842055683E+03 -0.29337176625E+02  0.82435384451E+03  0.84132185050E+03  0.12509000000E+03 0.  0.
         25    1    4    4    0    0 -0.58170056253E+02 -0.16319171709E+02  0.82226318137E+03  0.83391505464E+03  0.12509000000E+03 0.  0.
         25    1    4    4    0    0 -0.50250500577E+02  0.45656348333E+02  0.58212122681E+03  0.59926809172E+03  0.12509000000E+03 0.  0.
<mgrwt>
<rscale>  2 0.45398104E+03</rscale>
<asrwt>0</asrwt>
<pdfrwt beam="1">  1       21 0.33112068E+00 0.45398104E+03</pdfrwt>
<pdfrwt beam="2">  1       21 0.33652033E-02 0.45398104E+03</pdfrwt>
<totfact> 0.98006972E+03</totfact>
</mgrwt>
</event>
<event>
 7    0  0.4691878E-002  0.4591592E+03  0.7546771E-02  0.1025025E+00
         21   -1    0    0  502  501  0.00000000000E+00  0.00000000000E+00  0.26954356273E+03  0.26954356273E+03  0.00000000000E+00 0.  1.
         21   -1    0    0  501  502 -0.00000000000E+00 -0.00000000000E+00 -0.19554090977E+03  0.19554090977E+03  0.00000000000E+00 0.  1.
      99926    2    1    2    0    0  0.00000000000E+00  0.00000000000E+00  0.74002652968E+02  0.46508447250E+03  0.45915920323E+03 0.  0.
      99925    2    3    3    0    0 -0.49378604297E+02  0.17681402973E+02  0.15238347981E+03  0.30842579674E+03  0.26297313285E+03 0.  0.
         25    1    4    4    0    0  0.28652745885E+01 -0.14731112789E+02  0.94557099586E+02  0.15752386697E+03  0.12509000000E+03 0.  0.
         25    1    3    3    0    0  0.49378604297E+02 -0.17681402973E+02 -0.78380826846E+02  0.15665867576E+03  0.12509000000E+03 0.  0.
         25    1    4    4    0    0 -0.52243878886E+02  0.32412515763E+02  0.57826380229E+02  0.15090192977E+03  0.12509000000E+03 0.  0.
<mgrwt>
<rscale>  2 0.45915920E+03</rscale>
<asrwt>0</asrwt>
<pdfrwt beam="1">  1       21 0.39638759E-01 0.45915920E+03</pdfrwt>
<pdfrwt beam="2">  1       21 0.28756016E-01 0.45915920E+03</pdfrwt>
<totfact> 0.65607644E+04</totfact>
</mgrwt>
</event>
<event>
 7    0  0.4691878E-002  0.4517864E+03  0.7546771E-02  0.1027191E+00
         21   -1    0    0  502  501  0.00000000000E+00  0.00000000000E+00  0.77632556619E+03  0.77632556619E+03  0.00000000000E+00 0.  1.
         21   -1    0    0  501  502 -0.00000000000E+00 -0.00000000000E+00 -0.65729817621E+02  0.65729817621E+02  0.00000000000E+00 0.  1.
      99926    2    1    2    0    0  0.00000000000E+00  0.35527136788E-14  0.71059574857E+03  0.84205538381E+03  0.45178640033E+03 0.  0.
      99925    2    3    3    0    0 -0.32151359855E+02 -0.26871112674E+02  0.25837559966E+03  0.37098602818E+03  0.26290096228E+03 0.  0.
         25    1    3    3    0    0  0.32151359855E+02  0.26871112674E+02  0.45222014891E+03  0.47106935564E+03  0.12509000000E+03 0.  0.
         25    1    4    4    0    0  0.98555331959E+01 -0.11808056657E+02  0.82643282331E+02  0.15071158532E+03  0.12509000000E+03 0.  0.
         25    1    4    4    0    0 -0.42006893051E+02 -0.15063056017E+02  0.17573231733E+03  0.22027444285E+03  0.12509000000E+03 0.  0.
<mgrwt>
<rscale>  2 0.45178640E+03</rscale>
<asrwt>0</asrwt>
<pdfrwt beam="1">  1       21 0.11416552E+00 0.45178640E+03</pdfrwt>
<pdfrwt beam="2">  1       21 0.96661501E-02 0.45178640E+03</pdfrwt>
<totfact> 0.46969905E+04</totfact>
</mgrwt>
</event>
<event>
 7    0  0.4691878E-002  0.4468455E+03  0.7546771E-02  0.1028667E+00
         21   -1    0    0  502  501  0.00000000000E+00  0.00000000000E+00  0.49858365906E+02  0.49858365906E+02  0.00000000000E+00 0.  1.
         21   -1    0    0  501  502 -0.00000000000E+00 -0.00000000000E+00 -0.10011904410E+04  0.10011904410E+04  0.00000000000E+00 0.  1.
      99926    2    1    2    0    0  0.00000000000E+00  0.00000000000E+00 -0.95133207512E+03  0.10510488069E+04  0.44684547374E+03 0.  0.
      99925    2    3    3    0    0  0.27416092257E+02 -0.36088528384E+02 -0.37913749161E+03  0.46358972453E+03  0.26289954574E+03 0.  0.
         25    1    4    4    0    0  0.53667731399E+02 -0.12610586449E+02 -0.18728006306E+03  0.23186328387E+03  0.12509000000E+03 0.  0.
         25    1    4    4    0    0 -0.26251639142E+02 -0.23477941935E+02 -0.19185742855E+03  0.23172644067E+03  0.12509000000E+03 0.  0.
         25    1    3    3    0    0 -0.27416092257E+02  0.36088528384E+02 -0.57219458351E+03  0.58745908240E+03  0.12509000000E+03 0.  0.
<mgrwt>
<rscale>  2 0.44684547E+03</rscale>
<asrwt>0</asrwt>
<pdfrwt beam="1">  1       21 0.73321126E-02 0.44684547E+03</pdfrwt>
<pdfrwt beam="2">  1       21 0.14723389E+00 0.44684547E+03</pdfrwt>
<totfact> 0.39706561E+04</totfact>
</mgrwt>
</event>
<event>
 7    0  0.4691878E-002  0.4536596E+03  0.7546771E-02  0.1026636E+00
         21   -1    0    0  502  501  0.00000000000E+00  0.00000000000E+00  0.23819974134E+03  0.23819974134E+03  0.00000000000E+00 0.  1.
         21   -1    0    0  501  502 -0.00000000000E+00 -0.00000000000E+00 -0.21600260643E+03  0.21600260643E+03  0.00000000000E+00 0.  1.
      99926    2    1    2    0    0  0.35527136788E-14  0.00000000000E+00  0.22197134912E+02  0.45420234777E+03  0.45365963003E+03 0.  0.
      99925    2    3    3    0    0 -0.27241218460E+02  0.90310024711E+02  0.75316547127E+02  0.28877210688E+03  0.26233330496E+03 0.  0.
         25    1    4    4    0    0  0.22957048440E+02  0.60000796337E+02  0.37348693584E+02  0.14549761045E+03  0.12509000000E+03 0.  0.
         25    1    3    3    0    0  0.27241218460E+02 -0.90310024711E+02 -0.53119412215E+02  0.16543024089E+03  0.12509000000E+03 0.  0.
         25    1    4    4    0    0 -0.50198266899E+02  0.30309228374E+02  0.37967853543E+02  0.14327449643E+03  0.12509000000E+03 0.  0.
<mgrwt>
<rscale>  2 0.45365963E+03</rscale>
<asrwt>0</asrwt>
<pdfrwt beam="1">  1       21 0.35029374E-01 0.45365963E+03</pdfrwt>
<pdfrwt beam="2">  1       21 0.31765089E-01 0.45365963E+03</pdfrwt>
<totfact> 0.69342929E+04</totfact>
</mgrwt>
</event>
<event>
 6    0  0.4691878E-002  0.4567898E+03  0.7546771E-02  0.1025716E+00
         21   -1    0    0  502  501  0.00000000000E+00  0.00000000000E+00  0.17309939065E+03  0.17309939065E+03  0.00000000000E+00 0. -1.
         21   -1    0    0  501  502 -0.00000000000E+00 -0.00000000000E+00 -0.30135422067E+03  0.30135422067E+03  0.00000000000E+00 0. -1.
      99926    2    1    2    0    0  0.14210854715E-13  0.00000000000E+00 -0.12825483002E+03  0.47445361132E+03  0.45678980710E+03 0.  0.
         25    1    3    3    0    0  0.50044508271E+02 -0.42888347464E+02 -0.11872214521E+03  0.18462480608E+03  0.12509000000E+03 0.  0.
         25    1    3    3    0    0 -0.75085010329E+02  0.16000380597E+02  0.37064824111E+02  0.15137727783E+03  0.12509000000E+03 0.  0.
         25    1    3    3    0    0  0.25040502058E+02  0.26887966867E+02 -0.46597508920E+02  0.13845152741E+03  0.12509000000E+03 0.  0.
<mgrwt>
<rscale>  2 0.45678981E+03</rscale>
<asrwt>0</asrwt>
<pdfrwt beam="1">  1       21 0.25455793E-01 0.45678981E+03</pdfrwt>
<pdfrwt beam="2">  1       21 0.44316797E-01 0.45678981E+03</pdfrwt>
<totfact> 0.66161483E+04</totfact>
</mgrwt>
</event>
<event>
 7    0  0.4691878E-002  0.4438949E+03  0.7546771E-02  0.1029558E+00
         21   -1    0    0  502  501  0.00000000000E+00  0.00000000000E+00  0.39285253329E+03  0.39285253329E+03  0.00000000000E+00 0.  1.
         21   -1    0    0  501  502 -0.00000000000E+00 -0.00000000000E+00 -0.12539225847E+03  0.12539225847E+03  0.00000000000E+00 0.  1.
      99926    2    1    2    0    0  0.14210854715E-13  0.00000000000E+00  0.26746027481E+03  0.51824479176E+03  0.44389488123E+03 0.  0.
      99925    2    3    3    0    0  0.75395173385E+02 -0.44255632644E+02  0.23239368877E+03  0.36165562628E+03  0.26295431589E+03 0.  0.
         25    1    4    4    0    0  0.36074442815E+02 -0.47852796918E+02  0.78253774917E+02  0.15925582246E+03  0.12509000000E+03 0.  0.
         25    1    4    4    0    0  0.39320730569E+02  0.35971642743E+01  0.15413991386E+03  0.20239980382E+03  0.12509000000E+03 0.  0.
         25    1    3    3    0    0 -0.75395173385E+02  0.44255632644E+02  0.35066586037E+02  0.15658916548E+03  0.12509000000E+03 0.  0.
<mgrwt>
<rscale>  2 0.44389488E+03</rscale>
<asrwt>0</asrwt>
<pdfrwt beam="1">  1       21 0.57772431E-01 0.44389488E+03</pdfrwt>
<pdfrwt beam="2">  1       21 0.18440038E-01 0.44389488E+03</pdfrwt>
<totfact> 0.69967349E+04</totfact>
</mgrwt>
</event>
<event>
 7    0  0.4691878E-002  0.4534695E+03  0.7546771E-02  0.1026692E+00
         21   -1    0    0  502  501  0.00000000000E+00  0.00000000000E+00  0.12731667546E+03  0.12731667546E+03  0.00000000000E+00 0. -1.
         21   -1    0    0  501  502 -0.00000000000E+00 -0.00000000000E+00 -0.40378573082E+03  0.40378573082E+03  0.00000000000E+00 0. -1.
      99926    2    1    2    0    0  0.00000000000E+00  0.00000000000E+00 -0.27646905536E+03  0.53110240628E+03  0.45346954406E+03 0.  0.
      99925    2    3    3    0    0 -0.43636571654E+02 -0.11587470427E+02 -0.29393722091E+03  0.39697163143E+03  0.26296191067E+03 0.  0.
         25    1    4    4    0    0 -0.14474666502E+02 -0.45285982807E+02 -0.13988573122E+03  0.19358683351E+03  0.12509000000E+03 0.  0.
         25    1    4    4    0    0 -0.29161905152E+02  0.33698512380E+02 -0.15405148969E+03  0.20338479792E+03  0.12509000000E+03 0.  0.
         25    1    3    3    0    0  0.43636571654E+02  0.11587470427E+02  0.17468165549E+02  0.13413077486E+03  0.12509000000E+03 0.  0.
<mgrwt>
<rscale>  2 0.45346954E+03</rscale>
<asrwt>0</asrwt>
<pdfrwt beam="1">  1       21 0.18723040E-01 0.45346954E+03</pdfrwt>
<pdfrwt beam="2">  1       21 0.59380256E-01 0.45346954E+03</pdfrwt>
<totfact> 0.63903470E+04</totfact>
</mgrwt>
</event>
<event>
 7    0  0.4691878E-002  0.4493286E+03  0.7546771E-02  0.1027922E+00
         21   -1    0    0  502  501  0.00000000000E+00  0.00000000000E+00  0.15862755413E+03  0.15862755413E+03  0.00000000000E+00 0. -1.
         21   -1    0    0  501  502 -0.00000000000E+00 -0.00000000000E+00 -0.31819223230E+03  0.31819223230E+03  0.00000000000E+00 0. -1.
      99926    2    1    2    0    0  0.35527136788E-14  0.35527136788E-14 -0.15956467817E+03  0.47681978643E+03  0.44932863498E+03 0.  0.
      99925    2    3    3    0    0  0.17291290590E+02  0.29892309847E+02 -0.20920979817E+03  0.33787848602E+03  0.26306005540E+03 0.  0.
         25    1    4    4    0    0  0.13552643388E+02  0.26156952195E+02 -0.15526353631E+03  0.20154933415E+03  0.12509000000E+03 0.  0.
         25    1    4    4    0    0  0.37386472014E+01  0.37353576524E+01 -0.53946261864E+02  0.13632915187E+03  0.12509000000E+03 0.  0.
         25    1    3    3    0    0 -0.17291290590E+02 -0.29892309847E+02  0.49645120005E+02  0.13894130041E+03  0.12509000000E+03 0.  0.
<mgrwt>
<rscale>  2 0.44932863E+03</rscale>
<asrwt>0</asrwt>
<pdfrwt beam="1">  1       21 0.23327582E-01 0.44932863E+03</pdfrwt>
<pdfrwt beam="2">  1       21 0.46792975E-01 0.44932863E+03</pdfrwt>
<totfact> 0.70032211E+04</totfact>
</mgrwt>
</event>
<event>
 6    0  0.4691878E-002  0.4543751E+03  0.7546771E-02  0.1026425E+00
         21   -1    0    0  502  501  0.00000000000E+00  0.00000000000E+00  0.16979207162E+04  0.16979207162E+04  0.00000000000E+00 0.  1.
         21   -1    0    0  501  502 -0.00000000000E+00 -0.00000000000E+00 -0.30398463008E+02  0.30398463008E+02  0.00000000000E+00 0.  1.
      99926    2    1    2    0    0  0.00000000000E+00  0.00000000000E+00  0.16675222532E+04  0.17283191792E+04  0.45437508770E+03 0.  0.
         25    1    3    3    0    0  0.13951063921E+02 -0.33713031971E+02  0.28087713530E+03  0.30962989834E+03  0.12509000000E+03 0.  0.
         25    1    3    3    0    0 -0.86653598606E+01  0.83764817828E+02  0.94384238179E+03  0.95581252499E+03  0.12509000000E+03 0.  0.
         25    1    3    3    0    0 -0.52857040603E+01 -0.50051785856E+02  0.44280273607E+03  0.46287675585E+03  0.12509000000E+03 0.  0.
<mgrwt>
<rscale>  2 0.45437509E+03</rscale>
<asrwt>0</asrwt>
<pdfrwt beam="1">  1       21 0.24969416E+00 0.45437509E+03</pdfrwt>
<pdfrwt beam="2">  1       21 0.44703634E-02 0.45437509E+03</pdfrwt>
<totfact> 0.18769240E+04</totfact>
</mgrwt>
</event>
<event>
 7    0  0.4691878E-002  0.4453172E+03  0.7546771E-02  0.1029128E+00
         21   -1    0    0  502  501  0.00000000000E+00  0.00000000000E+00  0.21878955624E+03  0.21878955624E+03  0.00000000000E+00 0.  1.
         21   -1    0    0  501  502 -0.00000000000E+00 -0.00000000000E+00 -0.22659603287E+03  0.22659603287E+03  0.00000000000E+00 0.  1.
      99926    2    1    2    0    0  0.00000000000E+00  0.88817841970E-15 -0.78064766258E+01  0.44538558911E+03  0.44531717002E+03 0.  0.
      99925    2    3    3    0    0 -0.39994001824E+02 -0.40834807456E+01  0.90919944676E+02  0.28103654178E+03  0.26286670858E+03 0.  0.
         25    1    4    4    0    0 -0.49511526240E+02 -0.20439176207E+02  0.69240987787E+02  0.15267931636E+03  0.12509000000E+03 0.  0.
         25    1    4    4    0    0  0.95175244158E+01  0.16355695461E+02  0.21678956888E+02  0.12835722542E+03  0.12509000000E+03 0.  0.
         25    1    3    3    0    0  0.39994001824E+02  0.40834807456E+01 -0.98726421302E+02  0.16434904734E+03  0.12509000000E+03 0.  0.
<mgrwt>
<rscale>  2 0.44531717E+03</rscale>
<asrwt>0</asrwt>
<pdfrwt beam="1">  1       21 0.32174935E-01 0.44531717E+03</pdfrwt>
<pdfrwt beam="2">  1       21 0.33322946E-01 0.44531717E+03</pdfrwt>
<totfact> 0.74875699E+04</totfact>
</mgrwt>
</event>
<event>
 7    0  0.4691878E-002  0.4530123E+03  0.7546771E-02  0.1026828E+00
         21   -1    0    0  502  501  0.00000000000E+00  0.00000000000E+00  0.19356977827E+03  0.19356977827E+03  0.00000000000E+00 0. -1.
         21   -1    0    0  501  502 -0.00000000000E+00 -0.00000000000E+00 -0.26504668250E+03  0.26504668250E+03  0.00000000000E+00 0. -1.
      99926    2    1    2    0    0 -0.33306690739E-14  0.00000000000E+00 -0.71476904227E+02  0.45861646077E+03  0.45301226281E+03 0.  0.
      99925    2    3    3    0    0  0.13646359813E+00 -0.60631810000E+02  0.49484290524E+02  0.27434667556E+03  0.26294708284E+03 0.  0.
         25    1    4    4    0    0  0.39113440971E+02 -0.25874815590E+02  0.14680139607E+02  0.13439636135E+03  0.12509000000E+03 0.  0.
         25    1    4    4    0    0 -0.38976977373E+02 -0.34756994410E+02  0.34804150917E+02  0.13995031421E+03  0.12509000000E+03 0.  0.
         25    1    3    3    0    0 -0.13646359813E+00  0.60631810000E+02 -0.12096119475E+03  0.18426978521E+03  0.12509000000E+03 0.  0.
<mgrwt>
<rscale>  2 0.45301226E+03</rscale>
<asrwt>0</asrwt>
<pdfrwt beam="1">  1       21 0.28466144E-01 0.45301226E+03</pdfrwt>
<pdfrwt beam="2">  1       21 0.38977453E-01 0.45301226E+03</pdfrwt>
<totfact> 0.69374665E+04</totfact>
</mgrwt>
</event>
<event>
 7    0  0.4691878E-002  0.4593216E+03  0.7546771E-02  0.1024978E+00
         21   -1    0    0  502  501  0.00000000000E+00  0.00000000000E+00  0.77927259494E+02  0.77927259494E+02  0.00000000000E+00 0. -1.
         21   -1    0    0  501  502 -0.00000000000E+00 -0.00000000000E+00 -0.67683734415E+03  0.67683734415E+03  0.00000000000E+00 0. -1.
      99926    2    1    2    0    0  0.14210854715E-13  0.00000000000E+00 -0.59891008465E+03  0.75476460364E+03  0.45932158387E+03 0.  0.
      99925    2    3    3    0    0 -0.80311762113E+02  0.32210653398E+02 -0.50613978941E+03  0.57660360593E+03  0.26231036316E+03 0.  0.
         25    1    3    3    0    0  0.80311762113E+02 -0.32210653398E+02 -0.92770295244E+02  0.17816099771E+03  0.12509000000E+03 0.  0.
         25    1    4    4    0    0 -0.23773418447E+02 -0.18113655613E+02 -0.20814301243E+03  0.24467182442E+03  0.12509000000E+03 0.  0.
         25    1    4    4    0    0 -0.56538343666E+02  0.50324309011E+02 -0.29799677698E+03  0.33193178151E+03  0.12509000000E+03 0.  0.
<mgrwt>
<rscale>  2 0.45932158E+03</rscale>
<asrwt>0</asrwt>
<pdfrwt beam="1">  1       21 0.11459891E-01 0.45932158E+03</pdfrwt>
<pdfrwt beam="2">  1       21 0.99534907E-01 0.45932158E+03</pdfrwt>
<totfact> 0.48364851E+04</totfact>
</mgrwt>
</event>
<event>
 7    0  0.4691878E-002  0.4600559E+03  0.7546771E-02  0.1024765E+00
         21   -1    0    0  502  501  0.00000000000E+00  0.00000000000E+00  0.66739553744E+02  0.66739553744E+02  0.00000000000E+00 0.  1.
         21   -1    0    0  501  502 -0.00000000000E+00 -0.00000000000E+00 -0.79282592149E+03  0.79282592149E+03  0.00000000000E+00 0.  1.
      99926    2    1    2    0    0  0.88817841970E-15  0.00000000000E+00 -0.72608636775E+03  0.85956547524E+03  0.46005585834E+03 0.  0.
      99925    2    3    3    0    0  0.17728374417E+01  0.48583148210E+02 -0.65533674784E+03  0.70785363634E+03  0.26311034221E+03 0.  0.
         25    1    3    3    0    0 -0.17728374417E+01 -0.48583148210E+02 -0.70749619908E+02  0.15171183889E+03  0.12509000000E+03 0.  0.
         25    1    4    4    0    0 -0.83483680919E+01  0.64816418425E+01 -0.41378975385E+03  0.43241319987E+03  0.12509000000E+03 0.  0.
         25    1    4    4    0    0  0.10121205534E+02  0.42101506367E+02 -0.24154699399E+03  0.27544043647E+03  0.12509000000E+03 0.  0.
<mgrwt>
<rscale>  2 0.46005586E+03</rscale>
<asrwt>0</asrwt>
<pdfrwt beam="1">  1       21 0.98146403E-02 0.46005586E+03</pdfrwt>
<pdfrwt beam="2">  1       21 0.11659205E+00 0.46005586E+03</pdfrwt>
<totfact> 0.43272689E+04</totfact>
</mgrwt>
</event>
<event>
 7    0  0.4691878E-002  0.4601704E+03  0.7546771E-02  0.1024732E+00
         21   -1    0    0  502  501  0.00000000000E+00  0.00000000000E+00  0.15236564299E+03  0.15236564299E+03  0.00000000000E+00 0.  1.
         21   -1    0    0  501  502 -0.00000000000E+00 -0.00000000000E+00 -0.34744845815E+03  0.34744845815E+03  0.00000000000E+00 0.  1.
      99926    2    1    2    0    0 -0.71054273576E-14 -0.14210854715E-13 -0.19508281515E+03  0.49981410114E+03  0.46017043683E+03 0.  0.
      99925    2    3    3    0    0 -0.63110780453E+02 -0.99282531430E+02 -0.13171704062E+03  0.31677661553E+03  0.26297918872E+03 0.  0.
         25    1    4    4    0    0  0.79205429023E+01 -0.58497181263E+02 -0.56653269619E+02  0.14947159019E+03  0.12509000000E+03 0.  0.
         25    1    4    4    0    0 -0.71031323355E+02 -0.40785350166E+02 -0.75063771006E+02  0.16730502534E+03  0.12509000000E+03 0.  0.
         25    1    3    3    0    0  0.63110780453E+02  0.99282531430E+02 -0.63365774528E+02  0.18303748561E+03  0.12509000000E+03 0.  0.
<mgrwt>
<rscale>  2 0.46017044E+03</rscale>
<asrwt>0</asrwt>
<pdfrwt beam="1">  1       21 0.22406712E-01 0.46017044E+03</pdfrwt>
<pdfrwt beam="2">  1       21 0.51095362E-01 0.46017044E+03</pdfrwt>
<totfact> 0.62671603E+04</totfact>
</mgrwt>
</event>
<event>
 7    0  0.4691878E-002  0.4607297E+03  0.7546771E-02  0.1024570E+00
         21   -1    0    0  502  501  0.00000000000E+00  0.00000000000E+00  0.58608837221E+03  0.58608837221E+03  0.00000000000E+00 0.  1.
         21   -1    0    0  501  502 -0.00000000000E+00 -0.00000000000E+00 -0.90546011915E+02  0.90546011915E+02  0.00000000000E+00 0.  1.
      99926    2    1    2    0    0 -0.19984014443E-14  0.35527136788E-14  0.49554236029E+03  0.67663438412E+03  0.46072970268E+03 0.  0.
      99925    2    3    3    0    0 -0.19581351466E+01  0.24868293940E+02  0.14019054250E+03  0.29908347518E+03  0.26301192099E+03 0.  0.
         25    1    4    4    0    0 -0.30902146744E+02  0.21196009745E+02  0.41233309818E+02  0.13693760419E+03  0.12509000000E+03 0.  0.
         25    1    4    4    0    0  0.28944011597E+02  0.36722841948E+01  0.98957232681E+02  0.16214587099E+03  0.12509000000E+03 0.  0.
         25    1    3    3    0    0  0.19581351466E+01 -0.24868293940E+02  0.35535181779E+03  0.37755090895E+03  0.12509000000E+03 0.  0.
<mgrwt>
<rscale>  2 0.46072970E+03</rscale>
<asrwt>0</asrwt>
<pdfrwt beam="1">  1       21 0.86189464E-01 0.46072970E+03</pdfrwt>
<pdfrwt beam="2">  1       21 0.13315590E-01 0.46072970E+03</pdfrwt>
<totfact> 0.51810813E+04</totfact>
</mgrwt>
</event>
<event>
 7    0  0.4691878E-002  0.4507239E+03  0.7546771E-02  0.1027506E+00
         21   -1    0    0  502  501  0.00000000000E+00  0.00000000000E+00  0.96076569776E+02  0.96076569776E+02  0.00000000000E+00 0. -1.
         21   -1    0    0  501  502 -0.00000000000E+00 -0.00000000000E+00 -0.52862006337E+03  0.52862006337E+03  0.00000000000E+00 0. -1.
      99926    2    1    2    0    0  0.00000000000E+00  0.00000000000E+00 -0.43254349359E+03  0.62469663315E+03  0.45072387291E+03 0.  0.
      99925    2    3    3    0    0  0.37982880561E+02 -0.62444201278E+02 -0.38570592062E+03  0.47243618578E+03  0.26284009388E+03 0.  0.
         25    1    4    4    0    0 -0.15501034661E+02 -0.50716724507E+02 -0.17963887099E+03  0.22523343511E+03  0.12509000000E+03 0.  0.
         25    1    4    4    0    0  0.53483915223E+02 -0.11727476771E+02 -0.20606704963E+03  0.24720275067E+03  0.12509000000E+03 0.  0.
         25    1    3    3    0    0 -0.37982880561E+02  0.62444201278E+02 -0.46837572978E+02  0.15226044736E+03  0.12509000000E+03 0.  0.
<mgrwt>
<rscale>  2 0.45072387E+03</rscale>
<asrwt>0</asrwt>
<pdfrwt beam="1">  1       21 0.14128908E-01 0.45072387E+03</pdfrwt>
<pdfrwt beam="2">  1       21 0.77738243E-01 0.45072387E+03</pdfrwt>
<totfact> 0.59155272E+04</totfact>
</mgrwt>
</event>
<event>
 7    0  0.4691878E-002  0.4570638E+03  0.7546771E-02  0.1025636E+00
         21   -1    0    0  502  501  0.00000000000E+00  0.00000000000E+00  0.12283827936E+03  0.12283827936E+03  0.00000000000E+00 0. -1.
         21   -1    0    0  501  502 -0.00000000000E+00 -0.00000000000E+00 -0.42516735440E+03  0.42516735440E+03  0.00000000000E+00 0. -1.
      99926    2    1    2    0    0  0.00000000000E+00  0.00000000000E+00 -0.30232907504E+03  0.54800563376E+03  0.45706378659E+03 0.  0.
      99925    2    3    3    0    0 -0.57126538972E+02 -0.91834012174E+02 -0.23694192822E+03  0.37018574084E+03  0.26305717654E+03 0.  0.
         25    1    4    4    0    0 -0.61161464850E+02 -0.36960207217E+02 -0.91758005883E+02  0.17080345852E+03  0.12509000000E+03 0.  0.
         25    1    4    4    0    0  0.40349258781E+01 -0.54873804957E+02 -0.14518392234E+03  0.19938228232E+03  0.12509000000E+03 0.  0.
         25    1    3    3    0    0  0.57126538972E+02  0.91834012174E+02 -0.65387146819E+02  0.17781989291E+03  0.12509000000E+03 0.  0.
<mgrwt>
<rscale>  2 0.45706379E+03</rscale>
<asrwt>0</asrwt>
<pdfrwt beam="1">  1       21 0.18064453E-01 0.45706379E+03</pdfrwt>
<pdfrwt beam="2">  1       21 0.62524610E-01 0.45706379E+03</pdfrwt>
<totfact> 0.60996343E+04</totfact>
</mgrwt>
</event>
<event>
 7    0  0.4691878E-002  0.4555656E+03  0.7546771E-02  0.1026075E+00
         21   -1    0    0  502  501  0.00000000000E+00  0.00000000000E+00  0.50651419798E+03  0.50651419798E+03  0.00000000000E+00 0. -1.
         21   -1    0    0  501  502 -0.00000000000E+00 -0.00000000000E+00 -0.10243545412E+03  0.10243545412E+03  0.00000000000E+00 0. -1.
      99926    2    1    2    0    0 -0.14210854715E-13  0.00000000000E+00  0.40407874386E+03  0.60894965210E+03  0.45556563473E+03 0.  0.
      99925    2    3    3    0    0  0.82426547037E+02  0.16010356282E+02  0.15169946201E+03  0.31502231894E+03  0.26301305575E+03 0.  0.
         25    1    4    4    0    0  0.57818449993E+02 -0.27968035691E+02  0.66914061334E+02  0.15572470544E+03  0.12509000000E+03 0.  0.
         25    1    3    3    0    0 -0.82426547037E+02 -0.16010356282E+02  0.25237928186E+03  0.29392733315E+03  0.12509000000E+03 0.  0.
         25    1    4    4    0    0  0.24608097044E+02  0.43978391973E+02  0.84785400672E+02  0.15929761350E+03  0.12509000000E+03 0.  0.
<mgrwt>
<rscale>  2 0.45556563E+03</rscale>
<asrwt>0</asrwt>
<pdfrwt beam="1">  1       21 0.74487381E-01 0.45556563E+03</pdfrwt>
<pdfrwt beam="2">  1       21 0.15064038E-01 0.45556563E+03</pdfrwt>
<totfact> 0.57871741E+04</totfact>
</mgrwt>
</event>
<event>
 7    0  0.4691878E-002  0.4369403E+03  0.7546771E-02  0.1031690E+00
         21   -1    0    0  502  501  0.00000000000E+00  0.00000000000E+00  0.15250825526E+03  0.15250825526E+03  0.00000000000E+00 0. -1.
         21   -1    0    0  501  502 -0.00000000000E+00 -0.00000000000E+00 -0.31296149260E+03  0.31296149260E+03  0.00000000000E+00 0. -1.
      99926    2    1    2    0    0  0.35527136788E-14 -0.14210854715E-13 -0.16045323735E+03  0.46546974786E+03  0.43694032178E+03 0.  0.
      99925    2    3    3    0    0 -0.18295523160E+02  0.92021376590E+02 -0.87891149941E+02  0.29308812313E+03  0.26338780109E+03 0.  0.
         25    1    4    4    0    0 -0.36477405684E+02  0.65960594126E+02 -0.20456759897E+02  0.14746995704E+03  0.12509000000E+03 0.  0.
         25    1    4    4    0    0  0.18181882524E+02  0.26060782464E+02 -0.67434390045E+02  0.14561816609E+03  0.12509000000E+03 0.  0.
         25    1    3    3    0    0  0.18295523160E+02 -0.92021376590E+02 -0.72562087406E+02  0.17238162473E+03  0.12509000000E+03 0.  0.
<mgrwt>
<rscale>  2 0.43694032E+03</rscale>
<asrwt>0</asrwt>
<pdfrwt beam="1">  1       21 0.22427685E-01 0.43694032E+03</pdfrwt>
<pdfrwt beam="2">  1       21 0.46023748E-01 0.43694032E+03</pdfrwt>
<totfact> 0.78425608E+04</totfact>
</mgrwt>
</event>
<event>
 7    0  0.4691878E-002  0.4679089E+03  0.7546771E-02  0.1022512E+00
         21   -1    0    0  502  501  0.00000000000E+00  0.00000000000E+00  0.59213800235E+03  0.59213800235E+03  0.00000000000E+00 0. -1.
         21   -1    0    0  501  502 -0.00000000000E+00 -0.00000000000E+00 -0.92435673252E+02  0.92435673252E+02  0.00000000000E+00 0. -1.
      99926    2    1    2    0    0 -0.88817841970E-15  0.00000000000E+00  0.49970232910E+03  0.68457367560E+03  0.46790885824E+03 0.  0.
      99925    2    3    3    0    0  0.44391358429E+01  0.45664359408E+02  0.48086077606E+03  0.55000974333E+03  0.26301842551E+03 0.  0.
         25    1    3    3    0    0 -0.44391358429E+01 -0.45664359408E+02  0.18841553036E+02  0.13456393227E+03  0.12509000000E+03 0.  0.
         25    1    4    4    0    0 -0.15832561795E+02  0.26186377715E+02  0.16635901987E+03  0.21037877265E+03  0.12509000000E+03 0.  0.
         25    1    4    4    0    0  0.20271697637E+02  0.19477981693E+02  0.31450175620E+03  0.33963097068E+03  0.12509000000E+03 0.  0.
<mgrwt>
<rscale>  2 0.46790886E+03</rscale>
<asrwt>0</asrwt>
<pdfrwt beam="1">  1       21 0.87079116E-01 0.46790886E+03</pdfrwt>
<pdfrwt beam="2">  1       21 0.13593482E-01 0.46790886E+03</pdfrwt>
<totfact> 0.48612606E+04</totfact>
</mgrwt>
</event>
<event>
 7    0  0.4691878E-002  0.4487432E+03  0.7546771E-02  0.1028098E+00
         21   -1    0    0  502  501  0.00000000000E+00  0.00000000000E+00  0.10212877900E+03  0.10212877900E+03  0.00000000000E+00 0.  1.
         21   -1    0    0  501  502 -0.00000000000E+00 -0.00000000000E+00 -0.49293260475E+03  0.49293260475E+03  0.00000000000E+00 0.  1.
      99926    2    1    2    0    0 -0.71054273576E-14 -0.71054273576E-14 -0.39080382574E+03  0.59506138375E+03  0.44874315618E+03 0.  0.
      99925    2    3    3    0    0  0.43717700935E+02  0.63893639951E+02 -0.34579625821E+03  0.44122112947E+03  0.26288286042E+03 0.  0.
         25    1    4    4    0    0  0.12814652273E+02  0.30579247588E+02 -0.10731340923E+03  0.16811597663E+03  0.12509000000E+03 0.  0.
         25    1    4    4    0    0  0.30903048662E+02  0.33314392363E+02 -0.23848284898E+03  0.27310515285E+03  0.12509000000E+03 0.  0.
         25    1    3    3    0    0 -0.43717700935E+02 -0.63893639951E+02 -0.45007567533E+02  0.15384025428E+03  0.12509000000E+03 0.  0.
<mgrwt>
<rscale>  2 0.44874316E+03</rscale>
<asrwt>0</asrwt>
<pdfrwt beam="1">  1       21 0.15018938E-01 0.44874316E+03</pdfrwt>
<pdfrwt beam="2">  1       21 0.72490088E-01 0.44874316E+03</pdfrwt>
<totfact> 0.61991943E+04</totfact>
</mgrwt>
</event>
<event>
 7    0  0.4691878E-002  0.4511244E+03  0.7546771E-02  0.1027387E+00
         21   -1    0    0  502  501  0.00000000000E+00  0.00000000000E+00  0.86782027937E+03  0.86782027937E+03  0.00000000000E+00 0. -1.
         21   -1    0    0  501  502 -0.00000000000E+00 -0.00000000000E+00 -0.58627694239E+02  0.58627694239E+02  0.00000000000E+00 0. -1.
      99926    2    1    2    0    0  0.00000000000E+00  0.00000000000E+00  0.80919258513E+03  0.92644797361E+03  0.45112438193E+03 0.  0.
      99925    2    3    3    0    0 -0.85971164668E+02 -0.48342191644E+02  0.40972971856E+03  0.49639437402E+03  0.26229930164E+03 0.  0.
         25    1    4    4    0    0 -0.36092758634E+02 -0.62002706464E+02  0.22843850878E+03  0.27014567039E+03  0.12509000000E+03 0.  0.
         25    1    3    3    0    0  0.85971164668E+02  0.48342191644E+02  0.39946286658E+03  0.43005359959E+03  0.12509000000E+03 0.  0.
         25    1    4    4    0    0 -0.49878406034E+02  0.13660514820E+02  0.18129120977E+03  0.22624870363E+03  0.12509000000E+03 0.  0.
<mgrwt>
<rscale>  2 0.45112438E+03</rscale>
<asrwt>0</asrwt>
<pdfrwt beam="1">  1       21 0.12762062E+00 0.45112438E+03</pdfrwt>
<pdfrwt beam="2">  1       21 0.86217203E-02 0.45112438E+03</pdfrwt>
<totfact> 0.43410643E+04</totfact>
</mgrwt>
</event>
<event>
 7    0  0.4691878E-002  0.4384003E+03  0.7546771E-02  0.1031239E+00
         21   -1    0    0  502  501  0.00000000000E+00  0.00000000000E+00  0.65041909535E+02  0.65041909535E+02  0.00000000000E+00 0.  1.
         21   -1    0    0  501  502 -0.00000000000E+00 -0.00000000000E+00 -0.73873464910E+03  0.73873464910E+03  0.00000000000E+00 0.  1.
      99926    2    1    2    0    0 -0.26645352591E-14 -0.71054273576E-14 -0.67369273957E+03  0.80377655864E+03  0.43840032946E+03 0.  0.
      99925    2    3    3    0    0  0.56455185614E+01 -0.53550876453E+02 -0.28312478308E+03  0.39014579941E+03  0.26297249619E+03 0.  0.
         25    1    3    3    0    0 -0.56455185614E+01  0.53550876453E+02 -0.39056795649E+03  0.41363075923E+03  0.12509000000E+03 0.  0.
         25    1    4    4    0    0  0.27168607007E+02 -0.48770622247E+02 -0.18199354560E+03  0.22778469119E+03  0.12509000000E+03 0.  0.
         25    1    4    4    0    0 -0.21523088445E+02 -0.47802542057E+01 -0.10113123748E+03  0.16236110822E+03  0.12509000000E+03 0.  0.
<mgrwt>
<rscale>  2 0.43840033E+03</rscale>
<asrwt>0</asrwt>
<pdfrwt beam="1">  1       21 0.95649869E-02 0.43840033E+03</pdfrwt>
<pdfrwt beam="2">  1       21 0.10863745E+00 0.43840033E+03</pdfrwt>
<totfact> 0.54320806E+04</totfact>
</mgrwt>
</event>
<event>
 7    0  0.4691878E-002  0.4520883E+03  0.7546771E-02  0.1027101E+00
         21   -1    0    0  502  501  0.00000000000E+00  0.00000000000E+00  0.13188839320E+04  0.13188839320E+04  0.00000000000E+00 0.  1.
         21   -1    0    0  501  502 -0.00000000000E+00 -0.00000000000E+00 -0.38741812502E+02  0.38741812502E+02  0.00000000000E+00 0.  1.
      99926    2    1    2    0    0  0.00000000000E+00  0.00000000000E+00  0.12801421194E+04  0.13576257445E+04  0.45208828343E+03 0.  0.
      99925    2    3    3    0    0 -0.60029637543E+02 -0.87761542171E+02  0.71828548316E+03  0.77227453918E+03  0.26299863666E+03 0.  0.
         25    1    4    4    0    0 -0.65108819908E+02 -0.24635446359E+02  0.38108396079E+03  0.40708544179E+03  0.12509000000E+03 0.  0.
         25    1    4    4    0    0  0.50791823646E+01 -0.63126095812E+02  0.33720152236E+03  0.36518909739E+03  0.12509000000E+03 0.  0.
         25    1    3    3    0    0  0.60029637543E+02  0.87761542171E+02  0.56185663629E+03  0.58535120527E+03  0.12509000000E+03 0.  0.
<mgrwt>
<rscale>  2 0.45208828E+03</rscale>
<asrwt>0</asrwt>
<pdfrwt beam="1">  1       21 0.19395349E+00 0.45208828E+03</pdfrwt>
<pdfrwt beam="2">  1       21 0.56973263E-02 0.45208828E+03</pdfrwt>
<totfact> 0.28114356E+04</totfact>
</mgrwt>
</event>
<event>
 7    0  0.4691878E-002  0.4523559E+03  0.7546771E-02  0.1027022E+00
         21   -1    0    0  502  501  0.00000000000E+00  0.00000000000E+00  0.11536357162E+04  0.11536357162E+04  0.00000000000E+00 0. -1.
         21   -1    0    0  501  502 -0.00000000000E+00 -0.00000000000E+00 -0.44343686975E+02  0.44343686975E+02  0.00000000000E+00 0. -1.
      99926    2    1    2    0    0 -0.71054273576E-14  0.71054273576E-14  0.11092920292E+04  0.11979794032E+04  0.45235588239E+03 0.  0.
      99925    2    3    3    0    0  0.55607450158E+02 -0.60310686883E+02  0.50320704626E+03  0.57370696093E+03  0.26304520173E+03 0.  0.
         25    1    4    4    0    0  0.43786757848E+02 -0.61582598136E+02  0.22305181419E+03  0.26666330169E+03  0.12509000000E+03 0.  0.
         25    1    3    3    0    0 -0.55607450158E+02  0.60310686883E+02  0.60608498298E+03  0.62427244226E+03  0.12509000000E+03 0.  0.
         25    1    4    4    0    0  0.11820692310E+02  0.12719112534E+01  0.28015523207E+03  0.30704365925E+03  0.12509000000E+03 0.  0.
<mgrwt>
<rscale>  2 0.45235588E+03</rscale>
<asrwt>0</asrwt>
<pdfrwt beam="1">  1       21 0.16965229E+00 0.45235588E+03</pdfrwt>
<pdfrwt beam="2">  1       21 0.65211312E-02 0.45235588E+03</pdfrwt>
<totfact> 0.32892361E+04</totfact>
</mgrwt>
</event>
<event>
 7    0  0.4691878E-002  0.4559909E+03  0.7546771E-02  0.1025950E+00
         21   -1    0    0  502  501  0.00000000000E+00  0.00000000000E+00  0.10552985324E+03  0.10552985324E+03  0.00000000000E+00 0. -1.
         21   -1    0    0  501  502 -0.00000000000E+00 -0.00000000000E+00 -0.49258017966E+03  0.49258017966E+03  0.00000000000E+00 0. -1.
      99926    2    1    2    0    0  0.00000000000E+00  0.00000000000E+00 -0.38705032642E+03  0.59811003290E+03  0.45599085108E+03 0.  0.
      99925    2    3    3    0    0  0.74734771514E+02 -0.18484647701E+02 -0.13298433991E+03  0.30464112163E+03  0.26304830365E+03 0.  0.
         25    1    4    4    0    0  0.52709001981E+02  0.24450805459E+02 -0.86155623266E+02  0.16262343096E+03  0.12509000000E+03 0.  0.
         25    1    4    4    0    0  0.22025769534E+02 -0.42935453160E+02 -0.46828716643E+02  0.14201769067E+03  0.12509000000E+03 0.  0.
         25    1    3    3    0    0 -0.74734771514E+02  0.18484647701E+02 -0.25406598651E+03  0.29346891126E+03  0.12509000000E+03 0.  0.
<mgrwt>
<rscale>  2 0.45599085E+03</rscale>
<asrwt>0</asrwt>
<pdfrwt beam="1">  1       21 0.15519096E-01 0.45599085E+03</pdfrwt>
<pdfrwt beam="2">  1       21 0.72438262E-01 0.45599085E+03</pdfrwt>
<totfact> 0.58336663E+04</totfact>
</mgrwt>
</event>
<event>
 7    0  0.4691878E-002  0.4545902E+03  0.7546771E-02  0.1026362E+00
         21   -1    0    0  502  501  0.00000000000E+00  0.00000000000E+00  0.55571330005E+03  0.55571330005E+03  0.00000000000E+00 0. -1.
         21   -1    0    0  501  502 -0.00000000000E+00 -0.00000000000E+00 -0.92967127245E+02  0.92967127245E+02  0.00000000000E+00 0. -1.
      99926    2    1    2    0    0  0.00000000000E+00  0.00000000000E+00  0.46274617281E+03  0.64868042730E+03  0.45459022901E+03 0.  0.
      99925    2    3    3    0    0  0.95119720166E+02  0.20849711832E+02  0.20983343207E+03  0.35019284937E+03  0.26291156477E+03 0.  0.
         25    1    4    4    0    0  0.86385838268E+02  0.27842621546E+02  0.10872378237E+03  0.18896056092E+03  0.12509000000E+03 0.  0.
         25    1    4    4    0    0  0.87338818984E+01 -0.69929097141E+01  0.10110964969E+03  0.16123228845E+03  0.12509000000E+03 0.  0.
         25    1    3    3    0    0 -0.95119720166E+02 -0.20849711832E+02  0.25291274074E+03  0.29848757793E+03  0.12509000000E+03 0.  0.
<mgrwt>
<rscale>  2 0.45459023E+03</rscale>
<asrwt>0</asrwt>
<pdfrwt beam="1">  1       21 0.81722543E-01 0.45459023E+03</pdfrwt>
<pdfrwt beam="2">  1       21 0.13671637E-01 0.45459023E+03</pdfrwt>
<totfact> 0.55958257E+04</totfact>
</mgrwt>
</event>
<event>
 7    0  0.4691878E-002  0.4216630E+03  0.7546771E-02  0.1036526E+00
         21   -1    0    0  502  501  0.00000000000E+00  0.00000000000E+00  0.75873135941E+02  0.75873135941E+02  0.00000000000E+00 0.  1.
         21   -1    0    0  501  502 -0.00000000000E+00 -0.00000000000E+00 -0.58584532442E+03  0.58584532442E+03  0.00000000000E+00 0.  1.
      99926    2    1    2    0    0 -0.17763568394E-14  0.00000000000E+00 -0.50997218848E+03  0.66171846036E+03  0.42166300260E+03 0.  0.
      99925    2    3    3    0    0  0.50773114345E+01  0.72109478464E+02 -0.37742551424E+03  0.46565294853E+03  0.26297736348E+03 0.  0.
         25    1    3    3    0    0 -0.50773114345E+01 -0.72109478464E+02 -0.13254667424E+03  0.19606551183E+03  0.12509000000E+03 0.  0.
         25    1    4    4    0    0 -0.15422220805E+02  0.69420523380E+01 -0.21713117975E+03  0.25115631449E+03  0.12509000000E+03 0.  0.
         25    1    4    4    0    0  0.20499532239E+02  0.65167426126E+02 -0.16029433448E+03  0.21449663405E+03  0.12509000000E+03 0.  0.
<mgrwt>
<rscale>  2 0.42166300E+03</rscale>
<asrwt>0</asrwt>
<pdfrwt beam="1">  1       21 0.11157814E-01 0.42166300E+03</pdfrwt>
<pdfrwt beam="2">  1       21 0.86153721E-01 0.42166300E+03</pdfrwt>
<totfact> 0.72209200E+04</totfact>
</mgrwt>
</event>
<event>
 7    0  0.4691878E-002  0.4536628E+03  0.7546771E-02  0.1026635E+00
         21   -1    0    0  502  501  0.00000000000E+00  0.00000000000E+00  0.15403668849E+03  0.15403668849E+03  0.00000000000E+00 0. -1.
         21   -1    0    0  501  502 -0.00000000000E+00 -0.00000000000E+00 -0.33402748488E+03  0.33402748488E+03  0.00000000000E+00 0. -1.
      99926    2    1    2    0    0  0.17763568394E-14  0.00000000000E+00 -0.17999079639E+03  0.48806417337E+03  0.45366281592E+03 0.  0.
      99925    2    3    3    0    0 -0.14945255243E+02  0.57223277476E+02 -0.11451113101E+02  0.27000226225E+03  0.26319618062E+03 0.  0.
         25    1    4    4    0    0 -0.38642595695E+02  0.43317161758E+02 -0.28450804807E+02  0.14080690004E+03  0.12509000000E+03 0.  0.
         25    1    3    3    0    0  0.14945255243E+02 -0.57223277476E+02 -0.16853968329E+03  0.21806191112E+03  0.12509000000E+03 0.  0.
         25    1    4    4    0    0  0.23697340452E+02  0.13906115718E+02  0.16999691706E+02  0.12919536221E+03  0.12509000000E+03 0.  0.
<mgrwt>
<rscale>  2 0.45366282E+03</rscale>
<asrwt>0</asrwt>
<pdfrwt beam="1">  1       21 0.22652455E-01 0.45366282E+03</pdfrwt>
<pdfrwt beam="2">  1       21 0.49121688E-01 0.45366282E+03</pdfrwt>
<totfact> 0.66824163E+04</totfact>
</mgrwt>
</event>
<event>
 7    0  0.4691878E-002  0.4566583E+03  0.7546771E-02  0.1025755E+00
         21   -1    0    0  502  501  0.00000000000E+00  0.00000000000E+00  0.28298289082E+03  0.28298289082E+03  0.00000000000E+00 0.  1.
         21   -1    0    0  501  502 -0.00000000000E+00 -0.00000000000E+00 -0.18423096124E+03  0.18423096124E+03  0.00000000000E+00 0.  1.
      99926    2    1    2    0    0  0.00000000000E+00  0.00000000000E+00  0.98751929587E+02  0.46721385206E+03  0.45665834051E+03 0.  0.
      99925    2    3    3    0    0  0.35707852422E+02 -0.68764358003E+02  0.14856968887E+03  0.31186616171E+03  0.26302844468E+03 0.  0.
         25    1    4    4    0    0  0.52329113145E+02 -0.12925178326E+02  0.73142665582E+02  0.15460515498E+03  0.12509000000E+03 0.  0.
         25    1    3    3    0    0 -0.35707852422E+02  0.68764358003E+02 -0.49817759288E+02  0.15534769035E+03  0.12509000000E+03 0.  0.
         25    1    4    4    0    0 -0.16621260723E+02 -0.55839179677E+02  0.75427023292E+02  0.15726100673E+03  0.12509000000E+03 0.  0.
<mgrwt>
<rscale>  2 0.45665834E+03</rscale>
<asrwt>0</asrwt>
<pdfrwt beam="1">  1       21 0.41615131E-01 0.45665834E+03</pdfrwt>
<pdfrwt beam="2">  1       21 0.27092788E-01 0.45665834E+03</pdfrwt>
<totfact> 0.66761509E+04</totfact>
</mgrwt>
</event>
<event>
 7    0  0.4691878E-002  0.4399103E+03  0.7546771E-02  0.1030774E+00
         21   -1    0    0  502  501  0.00000000000E+00  0.00000000000E+00  0.81356305238E+02  0.81356305238E+02  0.00000000000E+00 0. -1.
         21   -1    0    0  501  502 -0.00000000000E+00 -0.00000000000E+00 -0.59467153012E+03  0.59467153012E+03  0.00000000000E+00 0. -1.
      99926    2    1    2    0    0  0.00000000000E+00  0.17763568394E-14 -0.51331522488E+03  0.67602783536E+03  0.43991034778E+03 0.  0.
      99925    2    3    3    0    0 -0.73777909130E+02 -0.79673064812E+01 -0.42681930602E+03  0.50680694443E+03  0.26300551530E+03 0.  0.
         25    1    4    4    0    0 -0.55075017868E+02 -0.18126809757E+02 -0.15902135677E+03  0.21046885478E+03  0.12509000000E+03 0.  0.
         25    1    3    3    0    0  0.73777909130E+02  0.79673064812E+01 -0.86495918858E+02  0.16922089093E+03  0.12509000000E+03 0.  0.
         25    1    4    4    0    0 -0.18702891262E+02  0.10159503276E+02 -0.26779794926E+03  0.29633808964E+03  0.12509000000E+03 0.  0.
<mgrwt>
<rscale>  2 0.43991035E+03</rscale>
<asrwt>0</asrwt>
<pdfrwt beam="1">  1       21 0.11964163E-01 0.43991035E+03</pdfrwt>
<pdfrwt beam="2">  1       21 0.87451693E-01 0.43991035E+03</pdfrwt>
<totfact> 0.61176265E+04</totfact>
</mgrwt>
</event>
<event>
 7    0  0.4691878E-002  0.4810202E+03  0.7546771E-02  0.1018855E+00
         21   -1    0    0  502  501  0.00000000000E+00  0.00000000000E+00  0.37024025442E+02  0.37024025442E+02  0.00000000000E+00 0.  1.
         21   -1    0    0  501  502 -0.00000000000E+00 -0.00000000000E+00 -0.15623667080E+04  0.15623667080E+04  0.00000000000E+00 0.  1.
      99926    2    1    2    0    0 -0.44408920985E-15  0.35527136788E-14 -0.15253426825E+04  0.15993907334E+04  0.48102018563E+03 0.  0.
      99925    2    3    3    0    0 -0.22402485343E+01  0.18928629618E+02 -0.13871620792E+04  0.14120282532E+04  0.26313844707E+03 0.  0.
         25    1    4    4    0    0  0.21930915729E+01 -0.29409548635E+02 -0.74404098205E+03  0.75505908529E+03  0.12509000000E+03 0.  0.
         25    1    3    3    0    0  0.22402485343E+01 -0.18928629618E+02 -0.13818060336E+03  0.18736248018E+03  0.12509000000E+03 0.  0.
         25    1    4    4    0    0 -0.44333401072E+01  0.48338178253E+02 -0.64312109711E+03  0.65696916795E+03  0.12509000000E+03 0.  0.
<mgrwt>
<rscale>  2 0.48102019E+03</rscale>
<asrwt>0</asrwt>
<pdfrwt beam="1">  1       21 0.54447086E-02 0.48102019E+03</pdfrwt>
<pdfrwt beam="2">  1       21 0.22975985E+00 0.48102019E+03</pdfrwt>
<totfact> 0.17608219E+04</totfact>
</mgrwt>
</event>
<event>
 7    0  0.4691878E-002  0.4576141E+03  0.7546771E-02  0.1025475E+00
         21   -1    0    0  502  501  0.00000000000E+00  0.00000000000E+00  0.42853411206E+03  0.42853411206E+03  0.00000000000E+00 0. -1.
         21   -1    0    0  501  502 -0.00000000000E+00 -0.00000000000E+00 -0.12216687634E+03  0.12216687634E+03  0.00000000000E+00 0. -1.
      99926    2    1    2    0    0  0.00000000000E+00  0.00000000000E+00  0.30636723571E+03  0.55070098840E+03  0.45761413386E+03 0.  0.
      99925    2    3    3    0    0 -0.54112590295E+02  0.81297479493E+02  0.11792509516E+03  0.30433662199E+03  0.26301520644E+03 0.  0.
         25    1    3    3    0    0  0.54112590295E+02 -0.81297479493E+02  0.18844214055E+03  0.24636436641E+03  0.12509000000E+03 0.  0.
         25    1    4    4    0    0 -0.27039128352E+02  0.49666490517E+01  0.30837259294E+02  0.13173544218E+03  0.12509000000E+03 0.  0.
         25    1    4    4    0    0 -0.27073461943E+02  0.76330830442E+02  0.87087835865E+02  0.17260117981E+03  0.12509000000E+03 0.  0.
<mgrwt>
<rscale>  2 0.45761413E+03</rscale>
<asrwt>0</asrwt>
<pdfrwt beam="1">  1       21 0.63019722E-01 0.45761413E+03</pdfrwt>
<pdfrwt beam="2">  1       21 0.17965717E-01 0.45761413E+03</pdfrwt>
<totfact> 0.60557969E+04</totfact>
</mgrwt>
</event>
<event>
 7    0  0.4691878E-002  0.4570059E+03  0.7546771E-02  0.1025653E+00
         21   -1    0    0  502  501  0.00000000000E+00  0.00000000000E+00  0.15191063018E+03  0.15191063018E+03  0.00000000000E+00 0.  1.
         21   -1    0    0  501  502 -0.00000000000E+00 -0.00000000000E+00 -0.34371261798E+03  0.34371261798E+03  0.00000000000E+00 0.  1.
      99926    2    1    2    0    0 -0.14210854715E-13 -0.35527136788E-14 -0.19180198780E+03  0.49562324816E+03  0.45700590980E+03 0.  0.
      99925    2    3    3    0    0 -0.66645341562E+02  0.20749264711E+02 -0.21963309166E+03  0.34969788375E+03  0.26301669417E+03 0.  0.
         25    1    4    4    0    0 -0.64296500592E+02  0.33635747723E+02 -0.13703203278E+03  0.19922522335E+03  0.12509000000E+03 0.  0.
         25    1    4    4    0    0 -0.23488409703E+01 -0.12886483012E+02 -0.82601058880E+02  0.15047266040E+03  0.12509000000E+03 0.  0.
         25    1    3    3    0    0  0.66645341562E+02 -0.20749264711E+02  0.27831103855E+02  0.14592536442E+03  0.12509000000E+03 0.  0.
<mgrwt>
<rscale>  2 0.45700591E+03</rscale>
<asrwt>0</asrwt>
<pdfrwt beam="1">  1       21 0.22339799E-01 0.45700591E+03</pdfrwt>
<pdfrwt beam="2">  1       21 0.50545972E-01 0.45700591E+03</pdfrwt>
<totfact> 0.64545282E+04</totfact>
</mgrwt>
</event>
<event>
 7    0  0.4691878E-002  0.4556622E+03  0.7546771E-02  0.1026047E+00
         21   -1    0    0  502  501  0.00000000000E+00  0.00000000000E+00  0.85203463860E+02  0.85203463860E+02  0.00000000000E+00 0.  1.
         21   -1    0    0  501  502 -0.00000000000E+00 -0.00000000000E+00 -0.60921234138E+03  0.60921234138E+03  0.00000000000E+00 0.  1.
      99926    2    1    2    0    0  0.00000000000E+00  0.00000000000E+00 -0.52400887752E+03  0.69441580524E+03  0.45566216306E+03 0.  0.
      99925    2    3    3    0    0 -0.35490649581E+02  0.47369835931E+02 -0.18139805545E+03  0.32491185254E+03  0.26298093055E+03 0.  0.
         25    1    4    4    0    0 -0.22192902760E+02  0.61885872110E+02 -0.77878910836E+02  0.16135370759E+03  0.12509000000E+03 0.  0.
         25    1    4    4    0    0 -0.13297746822E+02 -0.14516036179E+02 -0.10351914461E+03  0.16355814495E+03  0.12509000000E+03 0.  0.
         25    1    3    3    0    0  0.35490649581E+02 -0.47369835931E+02 -0.34261082207E+03  0.36950395270E+03  0.12509000000E+03 0.  0.
<mgrwt>
<rscale>  2 0.45566216E+03</rscale>
<asrwt>0</asrwt>
<pdfrwt beam="1">  1       21 0.12529921E-01 0.45566216E+03</pdfrwt>
<pdfrwt beam="2">  1       21 0.89590055E-01 0.45566216E+03</pdfrwt>
<totfact> 0.52930818E+04</totfact>
</mgrwt>
</event>
<event>
 7    0  0.4691878E-002  0.4564140E+03  0.7546771E-02  0.1025826E+00
         21   -1    0    0  502  501  0.00000000000E+00  0.00000000000E+00  0.25751574770E+03  0.25751574770E+03  0.00000000000E+00 0. -1.
         21   -1    0    0  501  502 -0.00000000000E+00 -0.00000000000E+00 -0.20223398333E+03  0.20223398333E+03  0.00000000000E+00 0. -1.
      99926    2    1    2    0    0  0.00000000000E+00  0.00000000000E+00  0.55281764371E+02  0.45974973103E+03  0.45641400254E+03 0.  0.
      99925    2    3    3    0    0 -0.10528113208E+03 -0.44096074119E+02  0.27144330843E+02  0.28808784304E+03  0.26311444294E+03 0.  0.
         25    1    4    4    0    0 -0.62734524219E+02 -0.61986514961E+02  0.22269268464E+02  0.15466537099E+03  0.12509000000E+03 0.  0.
         25    1    4    4    0    0 -0.42546607857E+02  0.17890440842E+02  0.48750623792E+01  0.13342247205E+03  0.12509000000E+03 0.  0.
         25    1    3    3    0    0  0.10528113208E+03  0.44096074119E+02  0.28137433528E+02  0.17166188799E+03  0.12509000000E+03 0.  0.
<mgrwt>
<rscale>  2 0.45641400E+03</rscale>
<asrwt>0</asrwt>
<pdfrwt beam="1">  1       21 0.37869963E-01 0.45641400E+03</pdfrwt>
<pdfrwt beam="2">  1       21 0.29740292E-01 0.45641400E+03</pdfrwt>
<totfact> 0.67435111E+04</totfact>
</mgrwt>
</event>
<event>
 7    0  0.4691878E-002  0.4604511E+03  0.7546771E-02  0.1024650E+00
         21   -1    0    0  502  501  0.00000000000E+00  0.00000000000E+00  0.75064773858E+02  0.75064773858E+02  0.00000000000E+00 0.  1.
         21   -1    0    0  501  502 -0.00000000000E+00 -0.00000000000E+00 -0.70610748900E+03  0.70610748900E+03  0.00000000000E+00 0.  1.
      99926    2    1    2    0    0  0.17763568394E-14  0.00000000000E+00 -0.63104271514E+03  0.78117226285E+03  0.46045107875E+03 0.  0.
      99925    2    3    3    0    0 -0.58191424122E+01 -0.74197858725E+02 -0.55098444020E+03  0.61505176399E+03  0.26299360141E+03 0.  0.
         25    1    4    4    0    0 -0.29809711876E+02 -0.52982028645E+02 -0.34452878607E+03  0.37154179685E+03  0.12509000000E+03 0.  0.
         25    1    4    4    0    0  0.23990569464E+02 -0.21215830080E+02 -0.20645565414E+03  0.24350996713E+03  0.12509000000E+03 0.  0.
         25    1    3    3    0    0  0.58191424122E+01  0.74197858725E+02 -0.80058274936E+02  0.16612049887E+03  0.12509000000E+03 0.  0.
<mgrwt>
<rscale>  2 0.46045108E+03</rscale>
<asrwt>0</asrwt>
<pdfrwt beam="1">  1       21 0.11038937E-01 0.46045108E+03</pdfrwt>
<pdfrwt beam="2">  1       21 0.10383934E+00 0.46045108E+03</pdfrwt>
<totfact> 0.46660346E+04</totfact>
</mgrwt>
</event>
<event>
 7    0  0.4691878E-002  0.4459777E+03  0.7546771E-02  0.1028928E+00
         21   -1    0    0  502  501  0.00000000000E+00  0.00000000000E+00  0.11586437875E+03  0.11586437875E+03  0.00000000000E+00 0. -1.
         21   -1    0    0  501  502 -0.00000000000E+00 -0.00000000000E+00 -0.42915714416E+03  0.42915714416E+03  0.00000000000E+00 0. -1.
      99926    2    1    2    0    0  0.00000000000E+00  0.35527136788E-14 -0.31329276541E+03  0.54502152290E+03  0.44597769403E+03 0.  0.
      99925    2    3    3    0    0 -0.79485115318E+02 -0.17424076588E+02 -0.27906325656E+03  0.39191812850E+03  0.26287266173E+03 0.  0.
         25    1    4    4    0    0 -0.74769978261E+02 -0.31829723924E+02 -0.15001661216E+03  0.21155654799E+03  0.12509000000E+03 0.  0.
         25    1    3    3    0    0  0.79485115318E+02  0.17424076588E+02 -0.34229508853E+02  0.15310339441E+03  0.12509000000E+03 0.  0.
         25    1    4    4    0    0 -0.47151370565E+01  0.14405647335E+02 -0.12904664440E+03  0.18036158051E+03  0.12509000000E+03 0.  0.
<mgrwt>
<rscale>  2 0.44597769E+03</rscale>
<asrwt>0</asrwt>
<pdfrwt beam="1">  1       21 0.17038879E-01 0.44597769E+03</pdfrwt>
<pdfrwt beam="2">  1       21 0.63111345E-01 0.44597769E+03</pdfrwt>
<totfact> 0.66842396E+04</totfact>
</mgrwt>
</event>
<event>
 7    0  0.4691878E-002  0.4573559E+03  0.7546771E-02  0.1025551E+00
         21   -1    0    0  502  501  0.00000000000E+00  0.00000000000E+00  0.13823779551E+03  0.13823779551E+03  0.00000000000E+00 0.  1.
         21   -1    0    0  501  502 -0.00000000000E+00 -0.00000000000E+00 -0.37828735484E+03  0.37828735484E+03  0.00000000000E+00 0.  1.
      99926    2    1    2    0    0  0.14210854715E-13  0.00000000000E+00 -0.24004955933E+03  0.51652515036E+03  0.45735592269E+03 0.  0.
      99925    2    3    3    0    0  0.90965636023E+02 -0.68829528757E+02 -0.13206939716E+03  0.31572805255E+03  0.26311523433E+03 0.  0.
         25    1    4    4    0    0  0.26033132747E+02 -0.44366558494E+02 -0.10238159444E+03  0.16963376578E+03  0.12509000000E+03 0.  0.
         25    1    4    4    0    0  0.64932503276E+02 -0.24462970262E+02 -0.29687802720E+02  0.14609428677E+03  0.12509000000E+03 0.  0.
         25    1    3    3    0    0 -0.90965636023E+02  0.68829528757E+02 -0.10798016217E+03  0.20079709781E+03  0.12509000000E+03 0.  0.
<mgrwt>
<rscale>  2 0.45735592E+03</rscale>
<asrwt>0</asrwt>
<pdfrwt beam="1">  1       21 0.20329088E-01 0.45735592E+03</pdfrwt>
<pdfrwt beam="2">  1       21 0.55630493E-01 0.45735592E+03</pdfrwt>
<totfact> 0.62939761E+04</totfact>
</mgrwt>
</event>
<event>
 7    0  0.4691878E-002  0.4535576E+03  0.7546771E-02  0.1026666E+00
         21   -1    0    0  502  501  0.00000000000E+00  0.00000000000E+00  0.24963854949E+04  0.24963854949E+04  0.00000000000E+00 0.  1.
         21   -1    0    0  501  502 -0.00000000000E+00 -0.00000000000E+00 -0.20601234967E+02  0.20601234967E+02  0.00000000000E+00 0.  1.
      99926    2    1    2    0    0  0.00000000000E+00 -0.35527136788E-14  0.24757842599E+04  0.25169867298E+04  0.45355760009E+03 0.  0.
      99925    2    3    3    0    0 -0.71466496490E+02 -0.31163369517E+02  0.20046050537E+04  0.20232904991E+04  0.26302928922E+03 0.  0.
         25    1    3    3    0    0  0.71466496490E+02  0.31163369517E+02  0.47117920624E+03  0.49369623070E+03  0.12509000000E+03 0.  0.
         25    1    4    4    0    0 -0.21454800408E+02 -0.50203601388E+02  0.88816632152E+03  0.89859202803E+03  0.12509000000E+03 0.  0.
         25    1    4    4    0    0 -0.50011696082E+02  0.19040231871E+02  0.11164387322E+04  0.11246984711E+04  0.12509000000E+03 0.  0.
<mgrwt>
<rscale>  2 0.45355760E+03</rscale>
<asrwt>0</asrwt>
<pdfrwt beam="1">  1       21 0.36711531E+00 0.45355760E+03</pdfrwt>
<pdfrwt beam="2">  1       21 0.30295951E-02 0.45355760E+03</pdfrwt>
<totfact> 0.70381423E+03</totfact>
</mgrwt>
</event>
<event>
 7    0  0.4691878E-002  0.4575724E+03  0.7546771E-02  0.1025488E+00
         21   -1    0    0  502  501  0.00000000000E+00  0.00000000000E+00  0.57228623249E+03  0.57228623249E+03  0.00000000000E+00 0.  1.
         21   -1    0    0  501  502 -0.00000000000E+00 -0.00000000000E+00 -0.91463206694E+02  0.91463206694E+02  0.00000000000E+00 0.  1.
      99926    2    1    2    0    0  0.14210854715E-13  0.35527136788E-14  0.48082302580E+03  0.66374943918E+03  0.45757243785E+03 0.  0.
      99925    2    3    3    0    0 -0.96895463245E+02  0.30137151875E+02  0.38194966183E+03  0.47475094998E+03  0.26307022183E+03 0.  0.
         25    1    3    3    0    0  0.96895463245E+02 -0.30137151875E+02  0.98873363968E+02  0.18899848921E+03  0.12509000000E+03 0.  0.
         25    1    4    4    0    0 -0.68358550845E+02  0.52139006403E+02  0.20520876241E+03  0.25524402389E+03  0.12509000000E+03 0.  0.
         25    1    4    4    0    0 -0.28536912400E+02 -0.22001854528E+02  0.17674089942E+03  0.21950692609E+03  0.12509000000E+03 0.  0.
<mgrwt>
<rscale>  2 0.45757244E+03</rscale>
<asrwt>0</asrwt>
<pdfrwt beam="1">  1       21 0.84159738E-01 0.45757244E+03</pdfrwt>
<pdfrwt beam="2">  1       21 0.13450472E-01 0.45757244E+03</pdfrwt>
<totfact> 0.53815552E+04</totfact>
</mgrwt>
</event>
<event>
 7    0  0.4691878E-002  0.3983865E+03  0.7546771E-02  0.1044340E+00
         21   -1    0    0  502  501  0.00000000000E+00  0.00000000000E+00  0.70377326040E+03  0.70377326040E+03  0.00000000000E+00 0. -1.
         21   -1    0    0  501  502 -0.00000000000E+00 -0.00000000000E+00 -0.56378881338E+02  0.56378881338E+02  0.00000000000E+00 0. -1.
      99926    2    1    2    0    0 -0.35527136788E-14  0.35527136788E-14  0.64739437906E+03  0.76015214174E+03  0.39838649142E+03 0.  0.
      99925    2    3    3    0    0 -0.26333846578E+02  0.28828951325E+02  0.46322901243E+03  0.53412344825E+03  0.26302501803E+03 0.  0.
         25    1    4    4    0    0  0.13016592475E+02  0.41313268671E+02  0.26323204686E+03  0.29464357526E+03  0.12509000000E+03 0.  0.
         25    1    3    3    0    0  0.26333846578E+02 -0.28828951325E+02  0.18416536664E+03  0.22602869349E+03  0.12509000000E+03 0.  0.
         25    1    4    4    0    0 -0.39350439053E+02 -0.12484317346E+02  0.19999696557E+03  0.23947987299E+03  0.12509000000E+03 0.  0.
<mgrwt>
<rscale>  2 0.39838649E+03</rscale>
<asrwt>0</asrwt>
<pdfrwt beam="1">  1       21 0.10349606E+00 0.39838649E+03</pdfrwt>
<pdfrwt beam="2">  1       21 0.82910123E-02 0.39838649E+03</pdfrwt>
<totfact> 0.79705985E+04</totfact>
</mgrwt>
</event>
<event>
 7    0  0.4691878E-002  0.4529515E+03  0.7546771E-02  0.1026846E+00
         21   -1    0    0  502  501  0.00000000000E+00  0.00000000000E+00  0.16655544911E+03  0.16655544911E+03  0.00000000000E+00 0. -1.
         21   -1    0    0  501  502 -0.00000000000E+00 -0.00000000000E+00 -0.30795309299E+03  0.30795309299E+03  0.00000000000E+00 0. -1.
      99926    2    1    2    0    0 -0.71054273576E-14 -0.14210854715E-13 -0.14139764388E+03  0.47450854210E+03  0.45295150163E+03 0.  0.
      99925    2    3    3    0    0 -0.51984535538E+02  0.91605207500E+02 -0.12640039560E+03  0.31029425669E+03  0.26308089963E+03 0.  0.
         25    1    4    4    0    0 -0.49192047302E+02  0.17343078790E+02 -0.41054290446E+02  0.14161074381E+03  0.12509000000E+03 0.  0.
         25    1    4    4    0    0 -0.27924882364E+01  0.74262128710E+02 -0.85346105149E+02  0.16868351287E+03  0.12509000000E+03 0.  0.
         25    1    3    3    0    0  0.51984535538E+02 -0.91605207500E+02 -0.14997248288E+02  0.16421428541E+03  0.12509000000E+03 0.  0.
<mgrwt>
<rscale>  2 0.45295150E+03</rscale>
<asrwt>0</asrwt>
<pdfrwt beam="1">  1       21 0.24493449E-01 0.45295150E+03</pdfrwt>
<pdfrwt beam="2">  1       21 0.45287219E-01 0.45295150E+03</pdfrwt>
<totfact> 0.68204138E+04</totfact>
</mgrwt>
</event>
<event>
 7    0  0.4691878E-002  0.4542039E+03  0.7546771E-02  0.1026476E+00
         21   -1    0    0  502  501  0.00000000000E+00  0.00000000000E+00  0.32705507629E+03  0.32705507629E+03  0.00000000000E+00 0.  1.
         21   -1    0    0  501  502 -0.00000000000E+00 -0.00000000000E+00 -0.15769604298E+03  0.15769604298E+03  0.00000000000E+00 0.  1.
      99926    2    1    2    0    0  0.71054273576E-14  0.71054273576E-14  0.16935903331E+03  0.48475111927E+03  0.45420388096E+03 0.  0.
      99925    2    3    3    0    0 -0.60260255703E+02 -0.35239324090E+02  0.20074672434E+03  0.33810254741E+03  0.26294671866E+03 0.  0.
         25    1    3    3    0    0  0.60260255703E+02  0.35239324090E+02 -0.31387691037E+02  0.14664857186E+03  0.12509000000E+03 0.  0.
         25    1    4    4    0    0 -0.75376538347E+00 -0.25650716888E+01  0.63197250232E+02  0.14017327952E+03  0.12509000000E+03 0.  0.
         25    1    4    4    0    0 -0.59506490320E+02 -0.32674252401E+02  0.13754947411E+03  0.19792926789E+03  0.12509000000E+03 0.  0.
<mgrwt>
<rscale>  2 0.45420388E+03</rscale>
<asrwt>0</asrwt>
<pdfrwt beam="1">  1       21 0.48096335E-01 0.45420388E+03</pdfrwt>
<pdfrwt beam="2">  1       21 0.23190595E-01 0.45420388E+03</pdfrwt>
<totfact> 0.66776877E+04</totfact>
</mgrwt>
</event>
<event>
 7    0  0.4691878E-002  0.4524725E+03  0.7546771E-02  0.1026987E+00
         21   -1    0    0  502  501  0.00000000000E+00  0.00000000000E+00  0.16988441193E+03  0.16988441193E+03  0.00000000000E+00 0.  1.
         21   -1    0    0  501  502 -0.00000000000E+00 -0.00000000000E+00 -0.30128038717E+03  0.30128038717E+03  0.00000000000E+00 0.  1.
      99926    2    1    2    0    0  0.00000000000E+00  0.17763568394E-14 -0.13139597524E+03  0.47116479911E+03  0.45247250260E+03 0.  0.
      99925    2    3    3    0    0  0.50951464225E+02  0.15575967732E+02 -0.18398874793E+03  0.32538355780E+03  0.26302839741E+03 0.  0.
         25    1    3    3    0    0 -0.50951464225E+02 -0.15575967732E+02  0.52592772695E+02  0.14578124131E+03  0.12509000000E+03 0.  0.
         25    1    4    4    0    0  0.42968018308E+02 -0.14733075395E+02 -0.12850146883E+03  0.18499580995E+03  0.12509000000E+03 0.  0.
         25    1    4    4    0    0  0.79834459168E+01  0.30309043126E+02 -0.55487279109E+02  0.14038774785E+03  0.12509000000E+03 0.  0.
<mgrwt>
<rscale>  2 0.45247250E+03</rscale>
<asrwt>0</asrwt>
<pdfrwt beam="1">  1       21 0.24983002E-01 0.45247250E+03</pdfrwt>
<pdfrwt beam="2">  1       21 0.44305939E-01 0.45247250E+03</pdfrwt>
<totfact> 0.68716953E+04</totfact>
</mgrwt>
</event>
<event>
 7    0  0.4691878E-002  0.4726441E+03  0.7546771E-02  0.1021177E+00
         21   -1    0    0  502  501  0.00000000000E+00  0.00000000000E+00  0.15506024851E+02  0.15506024851E+02  0.00000000000E+00 0.  1.
         21   -1    0    0  501  502 -0.00000000000E+00 -0.00000000000E+00 -0.36017033990E+04  0.36017033990E+04  0.00000000000E+00 0.  1.
      99926    2    1    2    0    0  0.14210854715E-13  0.17763568394E-14 -0.35861973742E+04  0.36172094239E+04  0.47264406232E+03 0.  0.
      99925    2    3    3    0    0  0.91307000626E+02 -0.14911880579E+02 -0.29106159614E+04  0.29239439004E+04  0.26306525018E+03 0.  0.
         25    1    4    4    0    0  0.31491093925E+02  0.25964365863E+02 -0.15918707946E+04  0.15972995874E+04  0.12509000000E+03 0.  0.
         25    1    4    4    0    0  0.59815906701E+02 -0.40876246442E+02 -0.13187451668E+04  0.13266443130E+04  0.12509000000E+03 0.  0.
         25    1    3    3    0    0 -0.91307000626E+02  0.14911880579E+02 -0.67558141282E+03  0.69326552344E+03  0.12509000000E+03 0.  0.
<mgrwt>
<rscale>  2 0.47264406E+03</rscale>
<asrwt>0</asrwt>
<pdfrwt beam="1">  1       21 0.22802967E-02 0.47264406E+03</pdfrwt>
<pdfrwt beam="2">  1       21 0.52966251E+00 0.47264406E+03</pdfrwt>
<totfact> 0.88985728E+02</totfact>
</mgrwt>
</event>
<event>
 7    0  0.4691878E-002  0.4485729E+03  0.7546771E-02  0.1028148E+00
         21   -1    0    0  502  501  0.00000000000E+00  0.00000000000E+00  0.14776209740E+03  0.14776209740E+03  0.00000000000E+00 0. -1.
         21   -1    0    0  501  502 -0.00000000000E+00 -0.00000000000E+00 -0.34044198322E+03  0.34044198322E+03  0.00000000000E+00 0. -1.
      99926    2    1    2    0    0  0.00000000000E+00 -0.22204460493E-15 -0.19267988582E+03  0.48820408061E+03  0.44857294382E+03 0.  0.
      99925    2    3    3    0    0  0.95597214058E+02 -0.14265554574E+01 -0.17414746493E+03  0.32967389068E+03  0.26309061606E+03 0.  0.
         25    1    4    4    0    0  0.56881641591E+02  0.17948283843E+01 -0.42220281547E+02  0.14376648717E+03  0.12509000000E+03 0.  0.
         25    1    4    4    0    0  0.38715572467E+02 -0.32213838418E+01 -0.13192718338E+03  0.18590740351E+03  0.12509000000E+03 0.  0.
         25    1    3    3    0    0 -0.95597214058E+02  0.14265554574E+01 -0.18532420893E+02  0.15853018993E+03  0.12509000000E+03 0.  0.
<mgrwt>
<rscale>  2 0.44857294E+03</rscale>
<asrwt>0</asrwt>
<pdfrwt beam="1">  1       21 0.21729720E-01 0.44857294E+03</pdfrwt>
<pdfrwt beam="2">  1       21 0.50064998E-01 0.44857294E+03</pdfrwt>
<totfact> 0.69591064E+04</totfact>
</mgrwt>
</event>
<event>
 7    0  0.4691878E-002  0.4508102E+03  0.7546771E-02  0.1027481E+00
         21   -1    0    0  502  501  0.00000000000E+00  0.00000000000E+00  0.48956927667E+03  0.48956927667E+03  0.00000000000E+00 0. -1.
         21   -1    0    0  501  502 -0.00000000000E+00 -0.00000000000E+00 -0.10377991276E+03  0.10377991276E+03  0.00000000000E+00 0. -1.
      99926    2    1    2    0    0  0.00000000000E+00  0.00000000000E+00  0.38578936392E+03  0.59334918943E+03  0.45081018986E+03 0.  0.
      99925    2    3    3    0    0 -0.50246746800E+01  0.97063657883E+02  0.17828492204E+03  0.33228942130E+03  0.26302879128E+03 0.  0.
         25    1    4    4    0    0  0.27359138123E+02  0.22854429494E+02  0.99299146653E+02  0.16364191398E+03  0.12509000000E+03 0.  0.
         25    1    4    4    0    0 -0.32383812803E+02  0.74209228389E+02  0.78985775387E+02  0.16864750731E+03  0.12509000000E+03 0.  0.
         25    1    3    3    0    0  0.50246746800E+01 -0.97063657883E+02  0.20750444188E+03  0.26105976813E+03  0.12509000000E+03 0.  0.
<mgrwt>
<rscale>  2 0.45081019E+03</rscale>
<asrwt>0</asrwt>
<pdfrwt beam="1">  1       21 0.71995481E-01 0.45081019E+03</pdfrwt>
<pdfrwt beam="2">  1       21 0.15261752E-01 0.45081019E+03</pdfrwt>
<totfact> 0.61087160E+04</totfact>
</mgrwt>
</event>
<event>
 7    0  0.4691878E-002  0.4529864E+03  0.7546771E-02  0.1026835E+00
         21   -1    0    0  502  501  0.00000000000E+00  0.00000000000E+00  0.49270362303E+03  0.49270362303E+03  0.00000000000E+00 0.  1.
         21   -1    0    0  501  502 -0.00000000000E+00 -0.00000000000E+00 -0.10411768458E+03  0.10411768458E+03  0.00000000000E+00 0.  1.
      99926    2    1    2    0    0  0.00000000000E+00  0.00000000000E+00  0.38858593845E+03  0.59682130761E+03  0.45298635924E+03 0.  0.
      99925    2    3    3    0    0 -0.97121596744E+02 -0.17255187528E+02  0.31286749504E+03  0.42043781399E+03  0.26296680385E+03 0.  0.
         25    1    4    4    0    0 -0.61376551569E+02 -0.84631588330E+01  0.21925267470E+03  0.25991912127E+03  0.12509000000E+03 0.  0.
         25    1    4    4    0    0 -0.35745045175E+02 -0.87920286948E+01  0.93614820346E+02  0.16051869272E+03  0.12509000000E+03 0.  0.
         25    1    3    3    0    0  0.97121596744E+02  0.17255187528E+02  0.75718443400E+02  0.17638349362E+03  0.12509000000E+03 0.  0.
<mgrwt>
<rscale>  2 0.45298636E+03</rscale>
<asrwt>0</asrwt>
<pdfrwt beam="1">  1       21 0.72456414E-01 0.45298636E+03</pdfrwt>
<pdfrwt beam="2">  1       21 0.15311424E-01 0.45298636E+03</pdfrwt>
<totfact> 0.59820525E+04</totfact>
</mgrwt>
</event>
<event>
 7    0  0.4691878E-002  0.4651654E+03  0.7546771E-02  0.1023294E+00
         21   -1    0    0  502  501  0.00000000000E+00  0.00000000000E+00  0.34996349102E+03  0.34996349102E+03  0.00000000000E+00 0. -1.
         21   -1    0    0  501  502 -0.00000000000E+00 -0.00000000000E+00 -0.15457245425E+03  0.15457245425E+03  0.00000000000E+00 0. -1.
      99926    2    1    2    0    0  0.00000000000E+00  0.00000000000E+00  0.19539103678E+03  0.50453594527E+03  0.46516541447E+03 0.  0.
      99925    2    3    3    0    0 -0.68473004344E+02  0.72628388235E+02  0.44808255232E+02  0.28479492202E+03  0.26293902862E+03 0.  0.
         25    1    4    4    0    0 -0.21224751894E+02  0.46283751834E+02 -0.15148550311E+02  0.13590313629E+03  0.12509000000E+03 0.  0.
         25    1    3    3    0    0  0.68473004344E+02 -0.72628388235E+02  0.15058278154E+03  0.21974102325E+03  0.12509000000E+03 0.  0.
         25    1    4    4    0    0 -0.47248252450E+02  0.26344636401E+02  0.59956805544E+02  0.14889178573E+03  0.12509000000E+03 0.  0.
<mgrwt>
<rscale>  2 0.46516541E+03</rscale>
<asrwt>0</asrwt>
<pdfrwt beam="1">  1       21 0.51465219E-01 0.46516541E+03</pdfrwt>
<pdfrwt beam="2">  1       21 0.22731243E-01 0.46516541E+03</pdfrwt>
<totfact> 0.59966148E+04</totfact>
</mgrwt>
</event>
<event>
 7    0  0.4691878E-002  0.4526519E+03  0.7546771E-02  0.1026934E+00
         21   -1    0    0  502  501  0.00000000000E+00  0.00000000000E+00  0.69033253710E+02  0.69033253710E+02  0.00000000000E+00 0.  1.
         21   -1    0    0  501  502 -0.00000000000E+00 -0.00000000000E+00 -0.74201101006E+03  0.74201101006E+03  0.00000000000E+00 0.  1.
      99926    2    1    2    0    0  0.71054273576E-14 -0.71054273576E-14 -0.67297775635E+03  0.81104426377E+03  0.45265189412E+03 0.  0.
      99925    2    3    3    0    0  0.61366458691E+02 -0.57063999222E+02 -0.55513296558E+03  0.61984529654E+03  0.26270409190E+03 0.  0.
         25    1    4    4    0    0  0.35185684046E+02 -0.68165430323E+02 -0.27367516731E+03  0.31053206526E+03  0.12509000000E+03 0.  0.
         25    1    4    4    0    0  0.26180774645E+02  0.11101431101E+02 -0.28145779828E+03  0.30931323128E+03  0.12509000000E+03 0.  0.
         25    1    3    3    0    0 -0.61366458691E+02  0.57063999222E+02 -0.11784479076E+03  0.19119896723E+03  0.12509000000E+03 0.  0.
<mgrwt>
<rscale>  2 0.45265189E+03</rscale>
<asrwt>0</asrwt>
<pdfrwt beam="1">  1       21 0.10151949E-01 0.45265189E+03</pdfrwt>
<pdfrwt beam="2">  1       21 0.10911927E+00 0.45265189E+03</pdfrwt>
<totfact> 0.48115720E+04</totfact>
</mgrwt>
</event>
<event>
 7    0  0.4691878E-002  0.4030541E+03  0.7546771E-02  0.1042727E+00
         21   -1    0    0  502  501  0.00000000000E+00  0.00000000000E+00  0.40315693710E+02  0.40315693710E+02  0.00000000000E+00 0.  1.
         21   -1    0    0  501  502 -0.00000000000E+00 -0.00000000000E+00 -0.10073784133E+04  0.10073784133E+04  0.00000000000E+00 0.  1.
      99926    2    1    2    0    0  0.00000000000E+00  0.17763568394E-14 -0.96706271958E+03  0.10476941070E+04  0.40305413810E+03 0.  0.
      99925    2    3    3    0    0 -0.40671452877E+02 -0.76272819243E+01 -0.72621248010E+03  0.77316052351E+03  0.26206923960E+03 0.  0.
         25    1    4    4    0    0 -0.30110525640E+02  0.14085265555E+02 -0.46278327866E+03  0.48054230779E+03  0.12509000000E+03 0.  0.
         25    1    4    4    0    0 -0.10560927237E+02 -0.21712547480E+02 -0.26342920144E+03  0.29261821572E+03  0.12509000000E+03 0.  0.
         25    1    3    3    0    0  0.40671452877E+02  0.76272819243E+01 -0.24085023948E+03  0.27453358349E+03  0.12509000000E+03 0.  0.
<mgrwt>
<rscale>  2 0.40305414E+03</rscale>
<asrwt>0</asrwt>
<pdfrwt beam="1">  1       21 0.59287777E-02 0.40305414E+03</pdfrwt>
<pdfrwt beam="2">  1       21 0.14814391E+00 0.40305414E+03</pdfrwt>
<totfact> 0.57305142E+04</totfact>
</mgrwt>
</event>
<event>
 7    0  0.4691878E-002  0.4496919E+03  0.7546771E-02  0.1027814E+00
         21   -1    0    0  502  501  0.00000000000E+00  0.00000000000E+00  0.53203562390E+03  0.53203562390E+03  0.00000000000E+00 0. -1.
         21   -1    0    0  501  502 -0.00000000000E+00 -0.00000000000E+00 -0.95023148738E+02  0.95023148738E+02  0.00000000000E+00 0. -1.
      99926    2    1    2    0    0  0.00000000000E+00  0.00000000000E+00  0.43701247516E+03  0.62705877264E+03  0.44969189552E+03 0.  0.
      99925    2    3    3    0    0  0.39794215479E+02  0.39800136544E+02  0.40506982142E+03  0.48622031311E+03  0.26298479462E+03 0.  0.
         25    1    4    4    0    0 -0.10549121218E+02  0.46408651493E+02  0.20827712543E+03  0.24757204198E+03  0.12509000000E+03 0.  0.
         25    1    3    3    0    0 -0.39794215479E+02 -0.39800136544E+02  0.31942653745E+02  0.14083845953E+03  0.12509000000E+03 0.  0.
         25    1    4    4    0    0  0.50343336697E+02 -0.66085149484E+01  0.19679269598E+03  0.23864827113E+03  0.12509000000E+03 0.  0.
<mgrwt>
<rscale>  2 0.44969190E+03</rscale>
<asrwt>0</asrwt>
<pdfrwt beam="1">  1       21 0.78240532E-01 0.44969190E+03</pdfrwt>
<pdfrwt beam="2">  1       21 0.13973993E-01 0.44969190E+03</pdfrwt>
<totfact> 0.59497185E+04</totfact>
</mgrwt>
</event>
<event>
 7    0  0.4691878E-002  0.4623267E+03  0.7546771E-02  0.1024109E+00
         21   -1    0    0  502  501  0.00000000000E+00  0.00000000000E+00  0.47536507978E+02  0.47536507978E+02  0.00000000000E+00 0. -1.
         21   -1    0    0  501  502 -0.00000000000E+00 -0.00000000000E+00 -0.11241147321E+04  0.11241147321E+04  0.00000000000E+00 0. -1.
      99926    2    1    2    0    0  0.00000000000E+00 -0.17763568394E-14 -0.10765782241E+04  0.11716512401E+04  0.46232667642E+03 0.  0.
      99925    2    3    3    0    0 -0.10718933202E+03  0.97327629387E+01 -0.53933264257E+03  0.60963291069E+03  0.26303670254E+03 0.  0.
         25    1    3    3    0    0  0.10718933202E+03 -0.97327629387E+01 -0.53724558157E+03  0.56201832941E+03  0.12509000000E+03 0.  0.
         25    1    4    4    0    0 -0.80438056109E+02 -0.19378067570E+02 -0.24294771062E+03  0.28551162598E+03  0.12509000000E+03 0.  0.
         25    1    4    4    0    0 -0.26751275911E+02  0.29110830508E+02 -0.29638493195E+03  0.32412128471E+03  0.12509000000E+03 0.  0.
<mgrwt>
<rscale>  2 0.46232668E+03</rscale>
<asrwt>0</asrwt>
<pdfrwt beam="1">  1       21 0.69906620E-02 0.46232668E+03</pdfrwt>
<pdfrwt beam="2">  1       21 0.16531101E+00 0.46232668E+03</pdfrwt>
<totfact> 0.31245366E+04</totfact>
</mgrwt>
</event>
<event>
 7    0  0.4691878E-002  0.4412585E+03  0.7546771E-02  0.1030361E+00
         21   -1    0    0  502  501  0.00000000000E+00  0.00000000000E+00  0.12033409887E+03  0.12033409887E+03  0.00000000000E+00 0. -1.
         21   -1    0    0  501  502 -0.00000000000E+00 -0.00000000000E+00 -0.40451761162E+03  0.40451761162E+03  0.00000000000E+00 0. -1.
      99926    2    1    2    0    0  0.00000000000E+00  0.00000000000E+00 -0.28418351275E+03  0.52485171050E+03  0.44125848331E+03 0.  0.
      99925    2    3    3    0    0 -0.69599590707E+02 -0.55700110597E+02 -0.12798788262E+03  0.30578279823E+03  0.26301257812E+03 0.  0.
         25    1    4    4    0    0 -0.37800252548E+02 -0.10910012163E+01 -0.28060696938E+02  0.13365986753E+03  0.12509000000E+03 0.  0.
         25    1    4    4    0    0 -0.31799338159E+02 -0.54609109381E+02 -0.99927185678E+02  0.17212293070E+03  0.12509000000E+03 0.  0.
         25    1    3    3    0    0  0.69599590707E+02  0.55700110597E+02 -0.15619563014E+03  0.21906891226E+03  0.12509000000E+03 0.  0.
<mgrwt>
<rscale>  2 0.44125848E+03</rscale>
<asrwt>0</asrwt>
<pdfrwt beam="1">  1       21 0.17696191E-01 0.44125848E+03</pdfrwt>
<pdfrwt beam="2">  1       21 0.59487884E-01 0.44125848E+03</pdfrwt>
<totfact> 0.70971013E+04</totfact>
</mgrwt>
</event>
<event>
 7    0  0.4691878E-002  0.4746627E+03  0.7546771E-02  0.1020612E+00
         21   -1    0    0  502  501  0.00000000000E+00  0.00000000000E+00  0.34285953830E+03  0.34285953830E+03  0.00000000000E+00 0.  1.
         21   -1    0    0  501  502 -0.00000000000E+00 -0.00000000000E+00 -0.16428351488E+03  0.16428351488E+03  0.00000000000E+00 0.  1.
      99926    2    1    2    0    0  0.17763568394E-14  0.14210854715E-13  0.17857602342E+03  0.50714305318E+03  0.47466270156E+03 0.  0.
      99925    2    3    3    0    0 -0.79233869051E+01 -0.10721928619E+03  0.31040287067E+02  0.28584448339E+03  0.26303006267E+03 0.  0.
         25    1    4    4    0    0 -0.31281596323E+01 -0.76998110260E+02 -0.18051179705E+02  0.14802650964E+03  0.12509000000E+03 0.  0.
         25    1    3    3    0    0  0.79233869051E+01  0.10721928619E+03  0.14753573635E+03  0.22129856979E+03  0.12509000000E+03 0.  0.
         25    1    4    4    0    0 -0.47952272728E+01 -0.30221175933E+02  0.49091466771E+02  0.13781797375E+03  0.12509000000E+03 0.  0.
<mgrwt>
<rscale>  2 0.47466270E+03</rscale>
<asrwt>0</asrwt>
<pdfrwt beam="1">  1       21 0.50420520E-01 0.47466270E+03</pdfrwt>
<pdfrwt beam="2">  1       21 0.24159340E-01 0.47466270E+03</pdfrwt>
<totfact> 0.55576908E+04</totfact>
</mgrwt>
</event>
<event>
 7    0  0.4691878E-002  0.4553324E+03  0.7546771E-02  0.1026144E+00
         21   -1    0    0  502  501  0.00000000000E+00  0.00000000000E+00  0.22430451886E+02  0.22430451886E+02  0.00000000000E+00 0. -1.
         21   -1    0    0  501  502 -0.00000000000E+00 -0.00000000000E+00 -0.23107830138E+04  0.23107830138E+04  0.00000000000E+00 0. -1.
      99926    2    1    2    0    0  0.44408920985E-15  0.00000000000E+00 -0.22883525619E+04  0.23332134657E+04  0.45533243772E+03 0.  0.
      99925    2    3    3    0    0  0.23876515784E+01  0.48228801679E+02 -0.19646291076E+04  0.19828192574E+04  0.26357723556E+03 0.  0.
         25    1    3    3    0    0 -0.23876515784E+01 -0.48228801679E+02 -0.32372345433E+03  0.35039420825E+03  0.12509000000E+03 0.  0.
         25    1    4    4    0    0  0.62444885637E+01  0.55530296164E+02 -0.82270850254E+03  0.83403800614E+03  0.12509000000E+03 0.  0.
         25    1    4    4    0    0 -0.38568369853E+01 -0.73014944851E+01 -0.11419206050E+04  0.11487812513E+04  0.12509000000E+03 0.  0.
<mgrwt>
<rscale>  2 0.45533244E+03</rscale>
<asrwt>0</asrwt>
<pdfrwt beam="1">  1       21 0.32985978E-02 0.45533244E+03</pdfrwt>
<pdfrwt beam="2">  1       21 0.33982084E+00 0.45533244E+03</pdfrwt>
<totfact> 0.89694235E+03</totfact>
</mgrwt>
</event>
<event>
 7    0  0.4691878E-002  0.4591566E+03  0.7546771E-02  0.1025026E+00
         21   -1    0    0  502  501  0.00000000000E+00  0.00000000000E+00  0.31003423381E+02  0.31003423381E+02  0.00000000000E+00 0.  1.
         21   -1    0    0  501  502 -0.00000000000E+00 -0.00000000000E+00 -0.17000120748E+04  0.17000120748E+04  0.00000000000E+00 0.  1.
      99926    2    1    2    0    0  0.00000000000E+00  0.14210854715E-13 -0.16690086514E+04  0.17310154982E+04  0.45915659249E+03 0.  0.
      99925    2    3    3    0    0  0.49611584707E+02 -0.10241368434E+03 -0.94396700246E+03  0.98651380382E+03  0.26303214883E+03 0.  0.
         25    1    3    3    0    0 -0.49611584707E+02  0.10241368434E+03 -0.72504164898E+03  0.74450169438E+03  0.12509000000E+03 0.  0.
         25    1    4    4    0    0  0.13673610582E+02 -0.80580166491E+02 -0.59357399100E+03  0.61209290287E+03  0.12509000000E+03 0.  0.
         25    1    4    4    0    0  0.35937974125E+02 -0.21833517853E+02 -0.35039301146E+03  0.37442090095E+03  0.12509000000E+03 0.  0.
<mgrwt>
<rscale>  2 0.45915659E+03</rscale>
<asrwt>0</asrwt>
<pdfrwt beam="1">  1       21 0.45593262E-02 0.45915659E+03</pdfrwt>
<pdfrwt beam="2">  1       21 0.25000182E+00 0.45915659E+03</pdfrwt>
<totfact> 0.18034410E+04</totfact>
</mgrwt>
</event>
<event>
 7    0  0.4691878E-002  0.4557552E+03  0.7546771E-02  0.1026020E+00
         21   -1    0    0  502  501  0.00000000000E+00  0.00000000000E+00  0.87050141722E+03  0.87050141722E+03  0.00000000000E+00 0. -1.
         21   -1    0    0  501  502 -0.00000000000E+00 -0.00000000000E+00 -0.59653215429E+02  0.59653215429E+02  0.00000000000E+00 0. -1.
      99926    2    1    2    0    0  0.00000000000E+00  0.71054273576E-14  0.81084820179E+03  0.93015463265E+03  0.45575523507E+03 0.  0.
      99925    2    3    3    0    0 -0.11594049391E+02 -0.61725943048E+02  0.70373480571E+03  0.75390111709E+03  0.26302034819E+03 0.  0.
         25    1    4    4    0    0 -0.75068994995E+01 -0.16372828195E+01  0.25418937480E+03  0.28340568201E+03  0.12509000000E+03 0.  0.
         25    1    3    3    0    0  0.11594049391E+02  0.61725943048E+02  0.10711339609E+03  0.17625351556E+03  0.12509000000E+03 0.  0.
         25    1    4    4    0    0 -0.40871498911E+01 -0.60088660228E+02  0.44954543090E+03  0.47049543508E+03  0.12509000000E+03 0.  0.
<mgrwt>
<rscale>  2 0.45575524E+03</rscale>
<asrwt>0</asrwt>
<pdfrwt beam="1">  1       21 0.12801491E+00 0.45575524E+03</pdfrwt>
<pdfrwt beam="2">  1       21 0.87725322E-02 0.45575524E+03</pdfrwt>
<totfact> 0.41708134E+04</totfact>
</mgrwt>
</event>
<event>
 7    0  0.4691878E-002  0.4618310E+03  0.7546771E-02  0.1024252E+00
         21   -1    0    0  502  501  0.00000000000E+00  0.00000000000E+00  0.34704085032E+03  0.34704085032E+03  0.00000000000E+00 0. -1.
         21   -1    0    0  501  502 -0.00000000000E+00 -0.00000000000E+00 -0.15364755609E+03  0.15364755609E+03  0.00000000000E+00 0. -1.
      99926    2    1    2    0    0 -0.35527136788E-14  0.00000000000E+00  0.19339329423E+03  0.50068840641E+03  0.46183104493E+03 0.  0.
      99925    2    3    3    0    0 -0.10398347380E+02  0.11849440628E+03  0.10831723852E+03  0.30824492561E+03  0.26293204455E+03 0.  0.
         25    1    4    4    0    0  0.32033813699E+02  0.57163443330E+02  0.70222281162E+02  0.15771018149E+03  0.12509000000E+03 0.  0.
         25    1    3    3    0    0  0.10398347380E+02 -0.11849440628E+03  0.85076055709E+02  0.19244348080E+03  0.12509000000E+03 0.  0.
         25    1    4    4    0    0 -0.42432161079E+02  0.61330962951E+02  0.38094957359E+02  0.15053474412E+03  0.12509000000E+03 0.  0.
<mgrwt>
<rscale>  2 0.46183104E+03</rscale>
<asrwt>0</asrwt>
<pdfrwt beam="1">  1       21 0.51035419E-01 0.46183104E+03</pdfrwt>
<pdfrwt beam="2">  1       21 0.22595229E-01 0.46183104E+03</pdfrwt>
<totfact> 0.61802338E+04</totfact>
</mgrwt>
</event>
<event>
 7    0  0.4691878E-002  0.4539170E+03  0.7546771E-02  0.1026560E+00
         21   -1    0    0  502  501  0.00000000000E+00  0.00000000000E+00  0.34162962386E+03  0.34162962386E+03  0.00000000000E+00 0. -1.
         21   -1    0    0  501  502 -0.00000000000E+00 -0.00000000000E+00 -0.15077780847E+03  0.15077780847E+03  0.00000000000E+00 0. -1.
      99926    2    1    2    0    0 -0.14210854715E-13  0.00000000000E+00  0.19085181539E+03  0.49240743233E+03  0.45391702322E+03 0.  0.
      99925    2    3    3    0    0 -0.64330744199E+02 -0.13460958799E+02  0.21614645018E+02  0.27193437275E+03  0.26298568049E+03 0.  0.
         25    1    3    3    0    0  0.64330744199E+02  0.13460958799E+02  0.16923717038E+03  0.22047305957E+03  0.12509000000E+03 0.  0.
         25    1    4    4    0    0  0.94046756682E+01 -0.44151023936E+01  0.13026965457E+02  0.12619489285E+03  0.12509000000E+03 0.  0.
         25    1    4    4    0    0 -0.73735419867E+02 -0.90458564058E+01  0.85876795614E+01  0.14573947990E+03  0.12509000000E+03 0.  0.
<mgrwt>
<rscale>  2 0.45391702E+03</rscale>
<asrwt>0</asrwt>
<pdfrwt beam="1">  1       21 0.50239651E-01 0.45391702E+03</pdfrwt>
<pdfrwt beam="2">  1       21 0.22173207E-01 0.45391702E+03</pdfrwt>
<totfact> 0.66376245E+04</totfact>
</mgrwt>
</event>
<event>
 7    0  0.4691878E-002  0.4538530E+03  0.7546771E-02  0.1026579E+00
         21   -1    0    0  502  501  0.00000000000E+00  0.00000000000E+00  0.23720923943E+03  0.23720923943E+03  0.00000000000E+00 0. -1.
         21   -1    0    0  501  502 -0.00000000000E+00 -0.00000000000E+00 -0.21708952423E+03  0.21708952423E+03  0.00000000000E+00 0. -1.
      99926    2    1    2    0    0  0.44408920985E-15  0.14210854715E-13  0.20119715195E+02  0.45429876366E+03  0.45385301995E+03 0.  0.
      99925    2    3    3    0    0  0.49316780377E+00  0.84459683789E+02  0.86350557138E+02  0.28947244924E+03  0.26306690927E+03 0.  0.
         25    1    3    3    0    0 -0.49316780377E+00 -0.84459683789E+02 -0.66230841943E+02  0.16482631442E+03  0.12509000000E+03 0.  0.
         25    1    4    4    0    0 -0.45537188384E+01  0.67021137682E+02  0.11218824971E+02  0.14242871686E+03  0.12509000000E+03 0.  0.
         25    1    4    4    0    0  0.50468866421E+01  0.17438546107E+02  0.75131732168E+02  0.14704373238E+03  0.12509000000E+03 0.  0.
<mgrwt>
<rscale>  2 0.45385302E+03</rscale>
<asrwt>0</asrwt>
<pdfrwt beam="1">  1       21 0.34883712E-01 0.45385302E+03</pdfrwt>
<pdfrwt beam="2">  1       21 0.31924930E-01 0.45385302E+03</pdfrwt>
<totfact> 0.69228605E+04</totfact>
</mgrwt>
</event>
<event>
 7    0  0.4691878E-002  0.4535317E+03  0.7546771E-02  0.1026674E+00
         21   -1    0    0  502  501  0.00000000000E+00  0.00000000000E+00  0.62475112977E+02  0.62475112977E+02  0.00000000000E+00 0.  1.
         21   -1    0    0  501  502 -0.00000000000E+00 -0.00000000000E+00 -0.82309169352E+03  0.82309169352E+03  0.00000000000E+00 0.  1.
      99926    2    1    2    0    0  0.71054273576E-14 -0.14210854715E-13 -0.76061658054E+03  0.88556680649E+03  0.45353168155E+03 0.  0.
      99925    2    3    3    0    0  0.56267624596E+02 -0.83256111766E+02 -0.57480644910E+03  0.64006621837E+03  0.26302981627E+03 0.  0.
         25    1    4    4    0    0  0.16309272600E+02 -0.78924236732E+02 -0.27351841397E+03  0.31137575114E+03  0.12509000000E+03 0.  0.
         25    1    4    4    0    0  0.39958351996E+02 -0.43318750346E+01 -0.30128803513E+03  0.32869046723E+03  0.12509000000E+03 0.  0.
         25    1    3    3    0    0 -0.56267624596E+02  0.83256111766E+02 -0.18581013144E+03  0.24550058813E+03  0.12509000000E+03 0.  0.
<mgrwt>
<rscale>  2 0.45353168E+03</rscale>
<asrwt>0</asrwt>
<pdfrwt beam="1">  1       21 0.91875175E-02 0.45353168E+03</pdfrwt>
<pdfrwt beam="2">  1       21 0.12104288E+00 0.45353168E+03</pdfrwt>
<totfact> 0.44371649E+04</totfact>
</mgrwt>
</event>
<event>
 7    0  0.4691878E-002  0.4517707E+03  0.7546771E-02  0.1027195E+00
         21   -1    0    0  502  501  0.00000000000E+00  0.00000000000E+00  0.45995696717E+02  0.45995696717E+02  0.00000000000E+00 0.  1.
         21   -1    0    0  501  502 -0.00000000000E+00 -0.00000000000E+00 -0.11093254983E+04  0.11093254983E+04  0.00000000000E+00 0.  1.
      99926    2    1    2    0    0  0.00000000000E+00  0.00000000000E+00 -0.10633298016E+04  0.11553211950E+04  0.45177073469E+03 0.  0.
      99925    2    3    3    0    0 -0.30696639883E+02  0.33080053638E+02 -0.41288340884E+03  0.49142015451E+03  0.26264897738E+03 0.  0.
         25    1    3    3    0    0  0.30696639883E+02 -0.33080053638E+02 -0.65044639275E+03  0.66390104051E+03  0.12509000000E+03 0.  0.
         25    1    4    4    0    0 -0.15093997473E+02 -0.18478692839E+02 -0.16318108452E+03  0.20699001254E+03  0.12509000000E+03 0.  0.
         25    1    4    4    0    0 -0.15602642410E+02  0.51558746477E+02 -0.24970232432E+03  0.28443014197E+03  0.12509000000E+03 0.  0.
<mgrwt>
<rscale>  2 0.45177073E+03</rscale>
<asrwt>0</asrwt>
<pdfrwt beam="1">  1       21 0.67640722E-02 0.45177073E+03</pdfrwt>
<pdfrwt beam="2">  1       21 0.16313612E+00 0.45177073E+03</pdfrwt>
<totfact> 0.34464405E+04</totfact>
</mgrwt>
</event>
<event>
 7    0  0.4691878E-002  0.4547888E+03  0.7546771E-02  0.1026304E+00
         21   -1    0    0  502  501  0.00000000000E+00  0.00000000000E+00  0.21994005043E+03  0.21994005043E+03  0.00000000000E+00 0. -1.
         21   -1    0    0  501  502 -0.00000000000E+00 -0.00000000000E+00 -0.23510142062E+03  0.23510142062E+03  0.00000000000E+00 0. -1.
      99926    2    1    2    0    0 -0.55511151231E-15 -0.14210854715E-13 -0.15161370184E+02  0.45504147105E+03  0.45478882267E+03 0.  0.
      99925    2    3    3    0    0  0.29853870743E+00 -0.66467973078E+02 -0.10070023916E+03  0.28956492656E+03  0.26322847102E+03 0.  0.
         25    1    3    3    0    0 -0.29853870743E+00  0.66467973078E+02  0.85538868972E+02  0.16547654449E+03  0.12509000000E+03 0.  0.
         25    1    4    4    0    0  0.16494475896E+02  0.46925177998E+01 -0.38995705139E+02  0.13214484696E+03  0.12509000000E+03 0.  0.
         25    1    4    4    0    0 -0.16195937188E+02 -0.71160490877E+02 -0.61704534016E+02  0.15742007960E+03  0.12509000000E+03 0.  0.
<mgrwt>
<rscale>  2 0.45478882E+03</rscale>
<asrwt>0</asrwt>
<pdfrwt beam="1">  1       21 0.32344125E-01 0.45478882E+03</pdfrwt>
<pdfrwt beam="2">  1       21 0.34573738E-01 0.45478882E+03</pdfrwt>
<totfact> 0.68658382E+04</totfact>
</mgrwt>
</event>
<event>
 7    0  0.4691878E-002  0.4553237E+03  0.7546771E-02  0.1026146E+00
         21   -1    0    0  502  501  0.00000000000E+00  0.00000000000E+00  0.20597824481E+04  0.20597824481E+04  0.00000000000E+00 0. -1.
         21   -1    0    0  501  502 -0.00000000000E+00 -0.00000000000E+00 -0.25162810311E+02  0.25162810311E+02  0.00000000000E+00 0. -1.
      99926    2    1    2    0    0  0.71054273576E-14  0.35527136788E-14  0.20346196378E+04  0.20849452584E+04  0.45532368717E+03 0.  0.
      99925    2    3    3    0    0  0.63596505514E+02  0.30697635336E+02  0.16857552747E+04  0.17076645774E+04  0.26336401121E+03 0.  0.
         25    1    3    3    0    0 -0.63596505514E+02 -0.30697635336E+02  0.34886436306E+03  0.37728068098E+03  0.12509000000E+03 0.  0.
         25    1    4    4    0    0  0.35415210448E+02 -0.13671867280E+02  0.64603108092E+03  0.65912428471E+03  0.12509000000E+03 0.  0.
         25    1    4    4    0    0  0.28181295065E+02  0.44369502616E+02  0.10397241938E+04  0.10485402927E+04  0.12509000000E+03 0.  0.
<mgrwt>
<rscale>  2 0.45532369E+03</rscale>
<asrwt>0</asrwt>
<pdfrwt beam="1">  1       21 0.30290907E+00 0.45532369E+03</pdfrwt>
<pdfrwt beam="2">  1       21 0.37004147E-02 0.45532369E+03</pdfrwt>
<totfact> 0.12341116E+04</totfact>
</mgrwt>
</event>
<event>
 7    0  0.4691878E-002  0.4347300E+03  0.7546771E-02  0.1032376E+00
         21   -1    0    0  502  501  0.00000000000E+00  0.00000000000E+00  0.12140546890E+03  0.12140546890E+03  0.00000000000E+00 0.  1.
         21   -1    0    0  501  502 -0.00000000000E+00 -0.00000000000E+00 -0.38917142425E+03  0.38917142425E+03  0.00000000000E+00 0.  1.
      99926    2    1    2    0    0 -0.35527136788E-14  0.00000000000E+00 -0.26776595535E+03  0.51057689315E+03  0.43472998168E+03 0.  0.
      99925    2    3    3    0    0 -0.29339966344E+02 -0.64633261081E+02 -0.24234190261E+03  0.36452148373E+03  0.26288404721E+03 0.  0.
         25    1    4    4    0    0 -0.61969676720E+01  0.83797577516E+01 -0.10688069025E+03  0.16486240565E+03  0.12509000000E+03 0.  0.
         25    1    3    3    0    0  0.29339966344E+02  0.64633261081E+02 -0.25424052745E+02  0.14605540942E+03  0.12509000000E+03 0.  0.
         25    1    4    4    0    0 -0.23142998672E+02 -0.73013018832E+02 -0.13546121235E+03  0.19965907808E+03  0.12509000000E+03 0.  0.
<mgrwt>
<rscale>  2 0.43472998E+03</rscale>
<asrwt>0</asrwt>
<pdfrwt beam="1">  1       21 0.17853746E-01 0.43472998E+03</pdfrwt>
<pdfrwt beam="2">  1       21 0.57231091E-01 0.43472998E+03</pdfrwt>
<totfact> 0.76040604E+04</totfact>
</mgrwt>
</event>
<event>
 7    0  0.4691878E-002  0.4513794E+03  0.7546771E-02  0.1027311E+00
         21   -1    0    0  502  501  0.00000000000E+00  0.00000000000E+00  0.38341526697E+03  0.38341526697E+03  0.00000000000E+00 0. -1.
         21   -1    0    0  501  502 -0.00000000000E+00 -0.00000000000E+00 -0.13284771021E+03  0.13284771021E+03  0.00000000000E+00 0. -1.
      99926    2    1    2    0    0  0.00000000000E+00  0.00000000000E+00  0.25056755676E+03  0.51626297718E+03  0.45137939819E+03 0.  0.
      99925    2    3    3    0    0 -0.70124479377E+02  0.74776769596E+02  0.11331354488E+03  0.30414230455E+03  0.26297067153E+03 0.  0.
         25    1    4    4    0    0 -0.55286351301E+02  0.10528890294E+02  0.31367453525E+02  0.14070843405E+03  0.12509000000E+03 0.  0.
         25    1    3    3    0    0  0.70124479377E+02 -0.74776769596E+02  0.13725401189E+03  0.21212067263E+03  0.12509000000E+03 0.  0.
         25    1    4    4    0    0 -0.14838128076E+02  0.64247879302E+02  0.81946091354E+02  0.16343387050E+03  0.12509000000E+03 0.  0.
<mgrwt>
<rscale>  2 0.45137940E+03</rscale>
<asrwt>0</asrwt>
<pdfrwt beam="1">  1       21 0.56384598E-01 0.45137940E+03</pdfrwt>
<pdfrwt beam="2">  1       21 0.19536428E-01 0.45137940E+03</pdfrwt>
<totfact> 0.66018798E+04</totfact>
</mgrwt>
</event>
<event>
 7    0  0.4691878E-002  0.4539587E+03  0.7546771E-02  0.1026548E+00
         21   -1    0    0  502  501  0.00000000000E+00  0.00000000000E+00  0.40036277159E+03  0.40036277159E+03  0.00000000000E+00 0. -1.
         21   -1    0    0  501  502 -0.00000000000E+00 -0.00000000000E+00 -0.12868235004E+03  0.12868235004E+03  0.00000000000E+00 0. -1.
      99926    2    1    2    0    0  0.14210854715E-13  0.00000000000E+00  0.27168042155E+03  0.52904512163E+03  0.45395868674E+03 0.  0.
      99925    2    3    3    0    0 -0.67050756489E+02 -0.79719999807E+02  0.21978484664E+03  0.35818921418E+03  0.26295066463E+03 0.  0.
         25    1    3    3    0    0  0.67050756489E+02  0.79719999807E+02  0.51895574911E+02  0.17085590745E+03  0.12509000000E+03 0.  0.
         25    1    4    4    0    0  0.27605735295E+01 -0.35080319214E+02  0.12741763124E+03  0.18199178666E+03  0.12509000000E+03 0.  0.
         25    1    4    4    0    0 -0.69811330018E+02 -0.44639680592E+02  0.92367215395E+02  0.17619742751E+03  0.12509000000E+03 0.  0.
<mgrwt>
<rscale>  2 0.45395869E+03</rscale>
<asrwt>0</asrwt>
<pdfrwt beam="1">  1       21 0.58876878E-01 0.45395869E+03</pdfrwt>
<pdfrwt beam="2">  1       21 0.18923875E-01 0.45395869E+03</pdfrwt>
<totfact> 0.63796138E+04</totfact>
</mgrwt>
</event>
<event>
 7    0  0.4691878E-002  0.4553930E+03  0.7546771E-02  0.1026126E+00
         21   -1    0    0  502  501  0.00000000000E+00  0.00000000000E+00  0.51762885497E+03  0.51762885497E+03  0.00000000000E+00 0. -1.
         21   -1    0    0  501  502 -0.00000000000E+00 -0.00000000000E+00 -0.10015999574E+03  0.10015999574E+03  0.00000000000E+00 0. -1.
      99926    2    1    2    0    0 -0.35527136788E-14  0.14210854715E-13  0.41746885923E+03  0.61778885072E+03  0.45539303424E+03 0.  0.
      99925    2    3    3    0    0 -0.16753171221E+02  0.10167099766E+03  0.19887070587E+03  0.34566696394E+03  0.26328393759E+03 0.  0.
         25    1    4    4    0    0  0.26858299499E+02  0.35594553749E+02  0.74186583273E+02  0.15211672408E+03  0.12509000000E+03 0.  0.
         25    1    3    3    0    0  0.16753171221E+02 -0.10167099766E+03  0.21859815336E+03  0.27212188678E+03  0.12509000000E+03 0.  0.
         25    1    4    4    0    0 -0.43611470720E+02  0.66076443912E+02  0.12468412260E+03  0.19355023985E+03  0.12509000000E+03 0.  0.
<mgrwt>
<rscale>  2 0.45539303E+03</rscale>
<asrwt>0</asrwt>
<pdfrwt beam="1">  1       21 0.76121889E-01 0.45539303E+03</pdfrwt>
<pdfrwt beam="2">  1       21 0.14729411E-01 0.45539303E+03</pdfrwt>
<totfact> 0.57418043E+04</totfact>
</mgrwt>
</event>
<event>
 7    0  0.4691878E-002  0.4530404E+03  0.7546771E-02  0.1026819E+00
         21   -1    0    0  502  501  0.00000000000E+00  0.00000000000E+00  0.18361354682E+03  0.18361354682E+03  0.00000000000E+00 0.  1.
         21   -1    0    0  501  502 -0.00000000000E+00 -0.00000000000E+00 -0.27945322502E+03  0.27945322502E+03  0.00000000000E+00 0.  1.
      99926    2    1    2    0    0  0.00000000000E+00  0.14210854715E-13 -0.95839678200E+02  0.46306677184E+03  0.45304038591E+03 0.  0.
      99925    2    3    3    0    0  0.41360674079E+02 -0.10304921987E+03 -0.52271087254E+02  0.29022124169E+03  0.26299478225E+03 0.  0.
         25    1    3    3    0    0 -0.41360674079E+02  0.10304921987E+03 -0.43568590946E+02  0.17284553015E+03  0.12509000000E+03 0.  0.
         25    1    4    4    0    0  0.48084167652E+02 -0.69846794985E+02 -0.17704611672E+01  0.15113339995E+03  0.12509000000E+03 0.  0.
         25    1    4    4    0    0 -0.67234935727E+01 -0.33202424888E+02 -0.50500626087E+02  0.13908784174E+03  0.12509000000E+03 0.  0.
<mgrwt>
<rscale>  2 0.45304039E+03</rscale>
<asrwt>0</asrwt>
<pdfrwt beam="1">  1       21 0.27001993E-01 0.45304039E+03</pdfrwt>
<pdfrwt beam="2">  1       21 0.41096062E-01 0.45304039E+03</pdfrwt>
<totfact> 0.69022181E+04</totfact>
</mgrwt>
</event>
<event>
 7    0  0.4691878E-002  0.4462187E+03  0.7546771E-02  0.1028856E+00
         21   -1    0    0  502  501  0.00000000000E+00  0.00000000000E+00  0.11812201633E+03  0.11812201633E+03  0.00000000000E+00 0.  1.
         21   -1    0    0  501  502 -0.00000000000E+00 -0.00000000000E+00 -0.42140993901E+03  0.42140993901E+03  0.00000000000E+00 0.  1.
      99926    2    1    2    0    0 -0.14210854715E-13  0.00000000000E+00 -0.30328792268E+03  0.53953195534E+03  0.44621874321E+03 0.  0.
      99925    2    3    3    0    0  0.77943836398E+02 -0.23264705923E+02 -0.11265780444E+03  0.29744965889E+03  0.26299815683E+03 0.  0.
         25    1    4    4    0    0  0.38557610046E+00  0.49519998680E+01 -0.57444101644E+02  0.13773889750E+03  0.12509000000E+03 0.  0.
         25    1    4    4    0    0  0.77558260298E+02 -0.28216705791E+02 -0.55213702791E+02  0.15971076138E+03  0.12509000000E+03 0.  0.
         25    1    3    3    0    0 -0.77943836398E+02  0.23264705923E+02 -0.19063011824E+03  0.24208229645E+03  0.12509000000E+03 0.  0.
<mgrwt>
<rscale>  2 0.44621874E+03</rscale>
<asrwt>0</asrwt>
<pdfrwt beam="1">  1       21 0.17370885E-01 0.44621874E+03</pdfrwt>
<pdfrwt beam="2">  1       21 0.61972049E-01 0.44621874E+03</pdfrwt>
<totfact> 0.67106946E+04</totfact>
</mgrwt>
</event>
<event>
 7    0  0.4691878E-002  0.4551723E+03  0.7546771E-02  0.1026191E+00
         21   -1    0    0  502  501  0.00000000000E+00  0.00000000000E+00  0.13871844618E+03  0.13871844618E+03  0.00000000000E+00 0.  1.
         21   -1    0    0  501  502 -0.00000000000E+00 -0.00000000000E+00 -0.37338553825E+03  0.37338553825E+03  0.00000000000E+00 0.  1.
      99926    2    1    2    0    0  0.00000000000E+00  0.17763568394E-14 -0.23466709207E+03  0.51210398443E+03  0.45517232645E+03 0.  0.
      99925    2    3    3    0    0 -0.54696190811E+02 -0.20247000188E+01 -0.25934605073E+03  0.37335121220E+03  0.26293531700E+03 0.  0.
         25    1    4    4    0    0  0.79815407775E+01 -0.13211784485E+02 -0.14647408816E+03  0.19323670160E+03  0.12509000000E+03 0.  0.
         25    1    3    3    0    0  0.54696190811E+02  0.20247000188E+01  0.24678958662E+02  0.13875277222E+03  0.12509000000E+03 0.  0.
         25    1    4    4    0    0 -0.62677731588E+02  0.11187084466E+02 -0.11287196258E+03  0.18011451061E+03  0.12509000000E+03 0.  0.
<mgrwt>
<rscale>  2 0.45517233E+03</rscale>
<asrwt>0</asrwt>
<pdfrwt beam="1">  1       21 0.20399771E-01 0.45517233E+03</pdfrwt>
<pdfrwt beam="2">  1       21 0.54909638E-01 0.45517233E+03</pdfrwt>
<totfact> 0.64340379E+04</totfact>
</mgrwt>
</event>
<event>
 7    0  0.4691878E-002  0.4678550E+03  0.7546771E-02  0.1022527E+00
         21   -1    0    0  502  501  0.00000000000E+00  0.00000000000E+00  0.40580574175E+03  0.40580574175E+03  0.00000000000E+00 0.  1.
         21   -1    0    0  501  502 -0.00000000000E+00 -0.00000000000E+00 -0.13484793674E+03  0.13484793674E+03  0.00000000000E+00 0.  1.
      99926    2    1    2    0    0  0.14210854715E-13  0.17763568394E-14  0.27095780501E+03  0.54065367848E+03  0.46785496466E+03 0.  0.
      99925    2    3    3    0    0 -0.10013582027E+03 -0.83974026415E+01  0.25425370433E+03  0.37933339472E+03  0.26296611819E+03 0.  0.
         25    1    4    4    0    0 -0.48978948966E+02  0.64580378571E-01  0.18091736248E+03  0.22533872672E+03  0.12509000000E+03 0.  0.
         25    1    4    4    0    0 -0.51156871303E+02 -0.84619830201E+01  0.73336341853E+02  0.15399466801E+03  0.12509000000E+03 0.  0.
         25    1    3    3    0    0  0.10013582027E+03  0.83974026415E+01  0.16704100679E+02  0.16132028376E+03  0.12509000000E+03 0.  0.
<mgrwt>
<rscale>  2 0.46785496E+03</rscale>
<asrwt>0</asrwt>
<pdfrwt beam="1">  1       21 0.59677315E-01 0.46785496E+03</pdfrwt>
<pdfrwt beam="2">  1       21 0.19830579E-01 0.46785496E+03</pdfrwt>
<totfact> 0.56510477E+04</totfact>
</mgrwt>
</event>
<event>
 7    0  0.4691878E-002  0.4456386E+03  0.7546771E-02  0.1029031E+00
         21   -1    0    0  502  501  0.00000000000E+00  0.00000000000E+00  0.54492992156E+03  0.54492992156E+03  0.00000000000E+00 0.  1.
         21   -1    0    0  501  502 -0.00000000000E+00 -0.00000000000E+00 -0.91109753459E+02  0.91109753459E+02  0.00000000000E+00 0.  1.
      99926    2    1    2    0    0  0.00000000000E+00  0.00000000000E+00  0.45382016810E+03  0.63603967502E+03  0.44563855670E+03 0.  0.
      99925    2    3    3    0    0  0.97844958408E+02 -0.77556132360E+01  0.33774611965E+03  0.43917810374E+03  0.26300414453E+03 0.  0.
         25    1    4    4    0    0  0.82537485871E+02 -0.29665695256E+02  0.18040629371E+03  0.23640310692E+03  0.12509000000E+03 0.  0.
         25    1    4    4    0    0  0.15307472538E+02  0.21910082020E+02  0.15733982594E+03  0.20277499682E+03  0.12509000000E+03 0.  0.
         25    1    3    3    0    0 -0.97844958408E+02  0.77556132360E+01  0.11607404845E+03  0.19686157128E+03  0.12509000000E+03 0.  0.
<mgrwt>
<rscale>  2 0.44563856E+03</rscale>
<asrwt>0</asrwt>
<pdfrwt beam="1">  1       21 0.80136752E-01 0.44563856E+03</pdfrwt>
<pdfrwt beam="2">  1       21 0.13398493E-01 0.44563856E+03</pdfrwt>
<totfact> 0.60888284E+04</totfact>
</mgrwt>
</event>
<event>
 7    0  0.4691878E-002  0.4577353E+03  0.7546771E-02  0.1025440E+00
         21   -1    0    0  502  501  0.00000000000E+00  0.00000000000E+00  0.82364412555E+02  0.82364412555E+02  0.00000000000E+00 0. -1.
         21   -1    0    0  501  502 -0.00000000000E+00 -0.00000000000E+00 -0.63595920278E+03  0.63595920278E+03  0.00000000000E+00 0. -1.
      99926    2    1    2    0    0  0.14210854715E-13 -0.71054273576E-14 -0.55359479023E+03  0.71832361534E+03  0.45773532154E+03 0.  0.
      99925    2    3    3    0    0  0.10043712257E+03 -0.50452772403E+02 -0.30475647546E+03  0.41798861433E+03  0.26306819371E+03 0.  0.
         25    1    3    3    0    0 -0.10043712257E+03  0.50452772403E+02 -0.24883831477E+03  0.30033500101E+03  0.12509000000E+03 0.  0.
         25    1    4    4    0    0  0.39577496314E+02 -0.64494082258E+02 -0.16008531554E+03  0.21679640498E+03  0.12509000000E+03 0.  0.
         25    1    4    4    0    0  0.60859626258E+02  0.14041309855E+02 -0.14467115993E+03  0.20119220935E+03  0.12509000000E+03 0.  0.
<mgrwt>
<rscale>  2 0.45773532E+03</rscale>
<asrwt>0</asrwt>
<pdfrwt beam="1">  1       21 0.12112414E-01 0.45773532E+03</pdfrwt>
<pdfrwt beam="2">  1       21 0.93523413E-01 0.45773532E+03</pdfrwt>
<totfact> 0.50817167E+04</totfact>
</mgrwt>
</event>
<event>
 7    0  0.5400192E-002  0.4042484E+03  0.7546771E-02  0.1042318E+00
         21   -1    0    0  502  501  0.00000000000E+00  0.00000000000E+00  0.16780070405E+03  0.16780070405E+03  0.00000000000E+00 0.  1.
         21   -1    0    0  501  502 -0.00000000000E+00 -0.00000000000E+00 -0.24346852599E+03  0.24346852599E+03  0.00000000000E+00 0.  1.
      99926    2    1    2    0    0  0.00000000000E+00  0.00000000000E+00 -0.75667821934E+02  0.41126923004E+03  0.40424838936E+03 0.  0.
      99925    2    3    3    0    0  0.32230435578E+02 -0.18873278718E+02 -0.87702800069E+02  0.28016869448E+03  0.26345343914E+03 0.  0.
         25    1    4    4    0    0  0.37147788367E+02  0.25098563105E+02 -0.35113420066E+02  0.13744219301E+03  0.12509000000E+03 0.  0.
         25    1    4    4    0    0 -0.49173527893E+01 -0.43971841823E+02 -0.52589380004E+02  0.14272650147E+03  0.12509000000E+03 0.  0.
         25    1    3    3    0    0 -0.32230435578E+02  0.18873278718E+02  0.12034978136E+02  0.13110053557E+03  0.12509000000E+03 0.  0.
<mgrwt>
<rscale>  2 0.40424839E+03</rscale>
<asrwt>0</asrwt>
<pdfrwt beam="1">  1       21 0.24676574E-01 0.40424839E+03</pdfrwt>
<pdfrwt beam="2">  1       21 0.35804195E-01 0.40424839E+03</pdfrwt>
<totfact> 0.11014965E+05</totfact>
</mgrwt>
</event>
<event>
 7    0  0.4691878E-002  0.4556359E+03  0.7546771E-02  0.1026055E+00
         21   -1    0    0  502  501  0.00000000000E+00  0.00000000000E+00  0.46143626652E+02  0.46143626652E+02  0.00000000000E+00 0.  1.
         21   -1    0    0  501  502 -0.00000000000E+00 -0.00000000000E+00 -0.11247709207E+04  0.11247709207E+04  0.00000000000E+00 0.  1.
      99926    2    1    2    0    0  0.00000000000E+00  0.00000000000E+00 -0.10786272940E+04  0.11709145473E+04  0.45563586089E+03 0.  0.
      99925    2    3    3    0    0 -0.29087294368E+02 -0.75400442064E+02 -0.88381258789E+03  0.92569714341E+03  0.26317145256E+03 0.  0.
         25    1    4    4    0    0 -0.22981262053E+02 -0.13327501418E+02 -0.53154184934E+03  0.54670833760E+03  0.12509000000E+03 0.  0.
         25    1    4    4    0    0 -0.61060323148E+01 -0.62072940646E+02 -0.35227073855E+03  0.37898880581E+03  0.12509000000E+03 0.  0.
         25    1    3    3    0    0  0.29087294368E+02  0.75400442064E+02 -0.19481470611E+03  0.24521740390E+03  0.12509000000E+03 0.  0.
<mgrwt>
<rscale>  2 0.45563586E+03</rscale>
<asrwt>0</asrwt>
<pdfrwt beam="1">  1       21 0.67858275E-02 0.45563586E+03</pdfrwt>
<pdfrwt beam="2">  1       21 0.16540749E+00 0.45563586E+03</pdfrwt>
<totfact> 0.32928246E+04</totfact>
</mgrwt>
</event>
<event>
 7    0  0.4691878E-002  0.4757043E+03  0.7546771E-02  0.1020322E+00
         21   -1    0    0  502  501  0.00000000000E+00  0.00000000000E+00  0.50787991781E+03  0.50787991781E+03  0.00000000000E+00 0.  1.
         21   -1    0    0  501  502 -0.00000000000E+00 -0.00000000000E+00 -0.11139176663E+03  0.11139176663E+03  0.00000000000E+00 0.  1.
      99926    2    1    2    0    0  0.71054273576E-14  0.00000000000E+00  0.39648815119E+03  0.61927168444E+03  0.47570428326E+03 0.  0.
      99925    2    3    3    0    0  0.62079453833E+02 -0.73841246739E+02  0.36165053122E+03  0.45750779423E+03  0.26308912320E+03 0.  0.
         25    1    3    3    0    0 -0.62079453833E+02  0.73841246739E+02  0.34837619968E+02  0.16176389020E+03  0.12509000000E+03 0.  0.
         25    1    4    4    0    0  0.18297118220E+02  0.31347300129E+01  0.15003355144E+03  0.19621973837E+03  0.12509000000E+03 0.  0.
         25    1    4    4    0    0  0.43782335613E+02 -0.76975976752E+02  0.21161697978E+03  0.26128805587E+03  0.12509000000E+03 0.  0.
<mgrwt>
<rscale>  2 0.47570428E+03</rscale>
<asrwt>0</asrwt>
<pdfrwt beam="1">  1       21 0.74688223E-01 0.47570428E+03</pdfrwt>
<pdfrwt beam="2">  1       21 0.16381142E-01 0.47570428E+03</pdfrwt>
<totfact> 0.48991432E+04</totfact>
</mgrwt>
</event>
<event>
 6    0  0.4691878E-002  0.4505626E+03  0.7546771E-02  0.1027554E+00
         21   -1    0    0  502  501  0.00000000000E+00  0.00000000000E+00  0.30016917186E+03  0.30016917186E+03  0.00000000000E+00 0. -1.
         21   -1    0    0  501  502 -0.00000000000E+00 -0.00000000000E+00 -0.16907683545E+03  0.16907683545E+03  0.00000000000E+00 0. -1.
      99926    2    1    2    0    0 -0.14210854715E-13 -0.13322676296E-14  0.13109233640E+03  0.46924600731E+03  0.45056255360E+03 0.  0.
         25    1    3    3    0    0  0.45176187076E+02  0.31125277623E+02  0.27863941215E+02  0.13940436903E+03  0.12509000000E+03 0.  0.
         25    1    3    3    0    0 -0.10895042726E+03 -0.26914899061E+01  0.28750124004E+02  0.16837908852E+03  0.12509000000E+03 0.  0.
         25    1    3    3    0    0  0.63774240189E+02 -0.28433787717E+02  0.74478271186E+02  0.16146254976E+03  0.12509000000E+03 0.  0.
<mgrwt>
<rscale>  2 0.45056255E+03</rscale>
<asrwt>0</asrwt>
<pdfrwt beam="1">  1       21 0.44142526E-01 0.45056255E+03</pdfrwt>
<pdfrwt beam="2">  1       21 0.24864240E-01 0.45056255E+03</pdfrwt>
<totfact> 0.69921299E+04</totfact>
</mgrwt>
</event>
<event>
 7    0  0.4691878E-002  0.4571561E+03  0.7546771E-02  0.1025609E+00
         21   -1    0    0  502  501  0.00000000000E+00  0.00000000000E+00  0.14715636669E+03  0.14715636669E+03  0.00000000000E+00 0. -1.
         21   -1    0    0  501  502 -0.00000000000E+00 -0.00000000000E+00 -0.35505042961E+03  0.35505042961E+03  0.00000000000E+00 0. -1.
      99926    2    1    2    0    0  0.00000000000E+00  0.00000000000E+00 -0.20789406292E+03  0.50220679630E+03  0.45715612744E+03 0.  0.
      99925    2    3    3    0    0  0.67626260326E+02 -0.82391329782E+02 -0.82646187146E+02  0.29557625453E+03  0.26300815136E+03 0.  0.
         25    1    4    4    0    0  0.19304491919E+02 -0.84291006371E+01 -0.61521586039E+02  0.14098271807E+03  0.12509000000E+03 0.  0.
         25    1    4    4    0    0  0.48321768407E+02 -0.73962229145E+02 -0.21124601107E+02  0.15459353646E+03  0.12509000000E+03 0.  0.
         25    1    3    3    0    0 -0.67626260326E+02  0.82391329782E+02 -0.12524787577E+03  0.20663054178E+03  0.12509000000E+03 0.  0.
<mgrwt>
<rscale>  2 0.45715613E+03</rscale>
<asrwt>0</asrwt>
<pdfrwt beam="1">  1       21 0.21640643E-01 0.45715613E+03</pdfrwt>
<pdfrwt beam="2">  1       21 0.52213297E-01 0.45715613E+03</pdfrwt>
<totfact> 0.64013272E+04</totfact>
</mgrwt>
</event>
<event>
 7    0  0.4691878E-002  0.4447050E+03  0.7546771E-02  0.1029313E+00
         21   -1    0    0  502  501  0.00000000000E+00  0.00000000000E+00  0.37450158308E+02  0.37450158308E+02  0.00000000000E+00 0. -1.
         21   -1    0    0  501  502 -0.00000000000E+00 -0.00000000000E+00 -0.13201714115E+04  0.13201714115E+04  0.00000000000E+00 0. -1.
      99926    2    1    2    0    0  0.00000000000E+00  0.35527136788E-14 -0.12827212532E+04  0.13576215698E+04  0.44470497346E+03 0.  0.
      99925    2    3    3    0    0 -0.21427593913E+02  0.16703662293E+02 -0.51102851919E+03  0.57538417750E+03  0.26301834570E+03 0.  0.
         25    1    3    3    0    0  0.21427593913E+02 -0.16703662293E+02 -0.77169273403E+03  0.78223739234E+03  0.12509000000E+03 0.  0.
         25    1    4    4    0    0  0.25341629627E+02  0.22018451727E+02 -0.27945560690E+03  0.30800966663E+03  0.12509000000E+03 0.  0.
         25    1    4    4    0    0 -0.46769223541E+02 -0.53147894337E+01 -0.23157291230E+03  0.26737451088E+03  0.12509000000E+03 0.  0.
<mgrwt>
<rscale>  2 0.44470497E+03</rscale>
<asrwt>0</asrwt>
<pdfrwt beam="1">  1       21 0.55073779E-02 0.44470497E+03</pdfrwt>
<pdfrwt beam="2">  1       21 0.19414279E+00 0.44470497E+03</pdfrwt>
<totfact> 0.29797668E+04</totfact>
</mgrwt>
</event>
<event>
 7    0  0.4691878E-002  0.4540744E+03  0.7546771E-02  0.1026514E+00
         21   -1    0    0  502  501  0.00000000000E+00  0.00000000000E+00  0.10936531344E+03  0.10936531344E+03  0.00000000000E+00 0.  1.
         21   -1    0    0  501  502 -0.00000000000E+00 -0.00000000000E+00 -0.47131835289E+03  0.47131835289E+03  0.00000000000E+00 0.  1.
      99926    2    1    2    0    0 -0.71054273576E-14  0.00000000000E+00 -0.36195303944E+03  0.58068366633E+03  0.45407435248E+03 0.  0.
      99925    2    3    3    0    0  0.53880730126E+02  0.71241736873E+02 -0.14115544737E+03  0.31165280766E+03  0.26310472069E+03 0.  0.
         25    1    3    3    0    0 -0.53880730126E+02 -0.71241736873E+02 -0.22079759207E+03  0.26903085867E+03  0.12509000000E+03 0.  0.
         25    1    4    4    0    0 -0.86254306830E+01  0.39820544756E+02 -0.90327739040E+02  0.15958283861E+03  0.12509000000E+03 0.  0.
         25    1    4    4    0    0  0.62506160809E+02  0.31421192117E+02 -0.50827708330E+02  0.15206996905E+03  0.12509000000E+03 0.  0.
<mgrwt>
<rscale>  2 0.45407435E+03</rscale>
<asrwt>0</asrwt>
<pdfrwt beam="1">  1       21 0.16083134E-01 0.45407435E+03</pdfrwt>
<pdfrwt beam="2">  1       21 0.69311522E-01 0.45407435E+03</pdfrwt>
<totfact> 0.60323495E+04</totfact>
</mgrwt>
</event>
<event>
 6    0  0.7508872E-002  0.3917817E+03  0.7546771E-02  0.1046663E+00
         21   -1    0    0  502  501  0.00000000000E+00  0.00000000000E+00  0.61436522112E+03  0.61436522112E+03  0.00000000000E+00 0.  1.
         21   -1    0    0  501  502 -0.00000000000E+00 -0.00000000000E+00 -0.62459950457E+02  0.62459950457E+02  0.00000000000E+00 0.  1.
      99926    2    1    2    0    0  0.00000000000E+00  0.35527136788E-14  0.55190527066E+03  0.67682517157E+03  0.39178168039E+03 0.  0.
         25    1    3    3    0    0  0.20302619167E+02 -0.26416857211E+02  0.16978239135E+03  0.21350319717E+03  0.12509000000E+03 0.  0.
         25    1    3    3    0    0  0.18788012150E+02  0.33165940716E+02  0.19295252489E+03  0.23309044165E+03  0.12509000000E+03 0.  0.
         25    1    3    3    0    0 -0.39090631317E+02 -0.67490835047E+01  0.18917035441E+03  0.23023153275E+03  0.12509000000E+03 0.  0.
<mgrwt>
<rscale>  2 0.39178168E+03</rscale>
<asrwt>0</asrwt>
<pdfrwt beam="1">  1       21 0.90347823E-01 0.39178168E+03</pdfrwt>
<pdfrwt beam="2">  1       21 0.91852872E-02 0.39178168E+03</pdfrwt>
<totfact> 0.92208415E+04</totfact>
</mgrwt>
</event>
<event>
 7    0  0.4691878E-002  0.4572312E+03  0.7546771E-02  0.1025587E+00
         21   -1    0    0  502  501  0.00000000000E+00  0.00000000000E+00  0.82705096218E+02  0.82705096218E+02  0.00000000000E+00 0.  1.
         21   -1    0    0  501  502 -0.00000000000E+00 -0.00000000000E+00 -0.63194536889E+03  0.63194536889E+03  0.00000000000E+00 0.  1.
      99926    2    1    2    0    0  0.71054273576E-14 -0.71054273576E-14 -0.54924027267E+03  0.71465046511E+03  0.45723124363E+03 0.  0.
      99925    2    3    3    0    0 -0.32414666621E+02  0.60498089846E+02 -0.48978739085E+03  0.56007723733E+03  0.26283853229E+03 0.  0.
         25    1    4    4    0    0  0.99048383337E+01  0.26576740224E+02 -0.30113611009E+03  0.32731467099E+03  0.12509000000E+03 0.  0.
         25    1    4    4    0    0 -0.42319504954E+02  0.33921349622E+02 -0.18865128076E+03  0.23276256635E+03  0.12509000000E+03 0.  0.
         25    1    3    3    0    0  0.32414666621E+02 -0.60498089846E+02 -0.59452881820E+02  0.15457322777E+03  0.12509000000E+03 0.  0.
<mgrwt>
<rscale>  2 0.45723124E+03</rscale>
<asrwt>0</asrwt>
<pdfrwt beam="1">  1       21 0.12162514E-01 0.45723124E+03</pdfrwt>
<pdfrwt beam="2">  1       21 0.92933143E-01 0.45723124E+03</pdfrwt>
<totfact> 0.51209961E+04</totfact>
</mgrwt>
</event>
<event>
 7    0  0.4691878E-002  0.4549205E+03  0.7546771E-02  0.1026265E+00
         21   -1    0    0  502  501  0.00000000000E+00  0.00000000000E+00  0.70898762829E+03  0.70898762829E+03  0.00000000000E+00 0.  1.
         21   -1    0    0  501  502 -0.00000000000E+00 -0.00000000000E+00 -0.72974721973E+02  0.72974721973E+02  0.00000000000E+00 0.  1.
      99926    2    1    2    0    0  0.00000000000E+00  0.00000000000E+00  0.63601290631E+03  0.78196235026E+03  0.45492054276E+03 0.  0.
      99925    2    3    3    0    0  0.97648149421E+01 -0.33483221994E+02  0.21514320428E+03  0.34151338392E+03  0.26292264124E+03 0.  0.
         25    1    3    3    0    0 -0.97648149421E+01  0.33483221994E+02  0.42086970203E+03  0.44044896634E+03  0.12509000000E+03 0.  0.
         25    1    4    4    0    0  0.69942617816E+01  0.43726145981E+01  0.61035221398E+02  0.13943043358E+03  0.12509000000E+03 0.  0.
         25    1    4    4    0    0  0.27705531605E+01 -0.37855836593E+02  0.15410798289E+03  0.20208295034E+03  0.12509000000E+03 0.  0.
<mgrwt>
<rscale>  2 0.45492054E+03</rscale>
<asrwt>0</asrwt>
<pdfrwt beam="1">  1       21 0.10426288E+00 0.45492054E+03</pdfrwt>
<pdfrwt beam="2">  1       21 0.10731577E-01 0.45492054E+03</pdfrwt>
<totfact> 0.48680037E+04</totfact>
</mgrwt>
</event>
<event>
 7    0  0.4691878E-002  0.4551091E+03  0.7546771E-02  0.1026209E+00
         21   -1    0    0  502  501  0.00000000000E+00  0.00000000000E+00  0.70923810981E+03  0.70923810981E+03  0.00000000000E+00 0. -1.
         21   -1    0    0  501  502 -0.00000000000E+00 -0.00000000000E+00 -0.73009422781E+02  0.73009422781E+02  0.00000000000E+00 0. -1.
      99926    2    1    2    0    0  0.35527136788E-14  0.00000000000E+00  0.63622868703E+03  0.78224753259E+03  0.45510906390E+03 0.  0.
      99925    2    3    3    0    0  0.18231832404E+02  0.85258689135E+02  0.52375582029E+03  0.59277696064E+03  0.26355819468E+03 0.  0.
         25    1    3    3    0    0 -0.18231832404E+02 -0.85258689135E+02  0.11247286674E+03  0.18947057196E+03  0.12509000000E+03 0.  0.
         25    1    4    4    0    0  0.39834620928E+02  0.24057457327E+02  0.29987936009E+03  0.32823878044E+03  0.12509000000E+03 0.  0.
         25    1    4    4    0    0 -0.21602788523E+02  0.61201231808E+02  0.22387646020E+03  0.26453818019E+03  0.12509000000E+03 0.  0.
<mgrwt>
<rscale>  2 0.45510906E+03</rscale>
<asrwt>0</asrwt>
<pdfrwt beam="1">  1       21 0.10429972E+00 0.45510906E+03</pdfrwt>
<pdfrwt beam="2">  1       21 0.10736680E-01 0.45510906E+03</pdfrwt>
<totfact> 0.48593890E+04</totfact>
</mgrwt>
</event>
<event>
 7    0  0.4691878E-002  0.4555171E+03  0.7546771E-02  0.1026089E+00
         21   -1    0    0  502  501  0.00000000000E+00  0.00000000000E+00  0.14419307484E+03  0.14419307484E+03  0.00000000000E+00 0.  1.
         21   -1    0    0  501  502 -0.00000000000E+00 -0.00000000000E+00 -0.35975338943E+03  0.35975338943E+03  0.00000000000E+00 0.  1.
      99926    2    1    2    0    0  0.14210854715E-13  0.66613381478E-15 -0.21556031459E+03  0.50394646427E+03  0.45551705745E+03 0.  0.
      99925    2    3    3    0    0  0.88041915366E+02  0.19458598119E+01 -0.21495874950E+03  0.35096595828E+03  0.26308681962E+03 0.  0.
         25    1    3    3    0    0 -0.88041915366E+02 -0.19458598119E+01 -0.60156508910E+00  0.15298050599E+03  0.12509000000E+03 0.  0.
         25    1    4    4    0    0  0.31769869373E+02  0.25060012789E+02 -0.65818443002E+02  0.14702688319E+03  0.12509000000E+03 0.  0.
         25    1    4    4    0    0  0.56272045993E+02 -0.23114152977E+02 -0.14914030650E+03  0.20393907509E+03  0.12509000000E+03 0.  0.
<mgrwt>
<rscale>  2 0.45551706E+03</rscale>
<asrwt>0</asrwt>
<pdfrwt beam="1">  1       21 0.21204865E-01 0.45551706E+03</pdfrwt>
<pdfrwt beam="2">  1       21 0.52904908E-01 0.45551706E+03</pdfrwt>
<totfact> 0.64728229E+04</totfact>
</mgrwt>
</event>
<event>
 7    0  0.4691878E-002  0.4518425E+03  0.7546771E-02  0.1027174E+00
         21   -1    0    0  502  501  0.00000000000E+00  0.00000000000E+00  0.43039199913E+03  0.43039199913E+03  0.00000000000E+00 0. -1.
         21   -1    0    0  501  502 -0.00000000000E+00 -0.00000000000E+00 -0.11859052264E+03  0.11859052264E+03  0.00000000000E+00 0. -1.
      99926    2    1    2    0    0  0.71054273576E-14  0.00000000000E+00  0.31180147648E+03  0.54898252177E+03  0.45184250406E+03 0.  0.
      99925    2    3    3    0    0 -0.45446051250E+02 -0.63320098615E+02  0.29262107341E+03  0.40035488495E+03  0.26188196357E+03 0.  0.
         25    1    4    4    0    0 -0.28995721224E+02 -0.23496850081E+02  0.90719254523E+02  0.15896649035E+03  0.12509000000E+03 0.  0.
         25    1    4    4    0    0 -0.16450330026E+02 -0.39823248534E+02  0.20190181888E+03  0.24138839460E+03  0.12509000000E+03 0.  0.
         25    1    3    3    0    0  0.45446051250E+02  0.63320098615E+02  0.19180403077E+02  0.14862763681E+03  0.12509000000E+03 0.  0.
<mgrwt>
<rscale>  2 0.45184250E+03</rscale>
<asrwt>0</asrwt>
<pdfrwt beam="1">  1       21 0.63292940E-01 0.45184250E+03</pdfrwt>
<pdfrwt beam="2">  1       21 0.17439783E-01 0.45184250E+03</pdfrwt>
<totfact> 0.63505503E+04</totfact>
</mgrwt>
</event>
<event>
 7    0  0.4691878E-002  0.4542262E+03  0.7546771E-02  0.1026469E+00
         21   -1    0    0  502  501  0.00000000000E+00  0.00000000000E+00  0.25660376782E+03  0.25660376782E+03  0.00000000000E+00 0. -1.
         21   -1    0    0  501  502 -0.00000000000E+00 -0.00000000000E+00 -0.20101172507E+03  0.20101172507E+03  0.00000000000E+00 0. -1.
      99926    2    1    2    0    0 -0.14210854715E-13 -0.14210854715E-13  0.55592042748E+02  0.45761549289E+03  0.45422622570E+03 0.  0.
      99925    2    3    3    0    0  0.50914146123E+02  0.97500242441E+02  0.12308892906E+02  0.28551236476E+03  0.26318672845E+03 0.  0.
         25    1    4    4    0    0  0.43831935305E+02  0.70644664587E+02  0.37763014385E+02  0.15487240084E+03  0.12509000000E+03 0.  0.
         25    1    3    3    0    0 -0.50914146123E+02 -0.97500242441E+02  0.43283149842E+02  0.17210312813E+03  0.12509000000E+03 0.  0.
         25    1    4    4    0    0  0.70822108173E+01  0.26855577854E+02 -0.25454121479E+02  0.13063996392E+03  0.12509000000E+03 0.  0.
<mgrwt>
<rscale>  2 0.45422623E+03</rscale>
<asrwt>0</asrwt>
<pdfrwt beam="1">  1       21 0.37735848E-01 0.45422623E+03</pdfrwt>
<pdfrwt beam="2">  1       21 0.29560548E-01 0.45422623E+03</pdfrwt>
<totfact> 0.68778087E+04</totfact>
</mgrwt>
</event>
<event>
 7    0  0.4691878E-002  0.4480478E+03  0.7546771E-02  0.1028306E+00
         21   -1    0    0  502  501  0.00000000000E+00  0.00000000000E+00  0.40675913524E+04  0.40675913524E+04  0.00000000000E+00 0. -1.
         21   -1    0    0  501  502 -0.00000000000E+00 -0.00000000000E+00 -0.12338188694E+02  0.12338188694E+02  0.00000000000E+00 0. -1.
      99926    2    1    2    0    0 -0.71054273576E-14  0.00000000000E+00  0.40552531637E+04  0.40799295410E+04  0.44804780831E+03 0.  0.
      99925    2    3    3    0    0 -0.62795459547E+02 -0.82116337660E+02  0.27917818692E+04  0.28060796352E+04  0.26334492806E+03 0.  0.
         25    1    3    3    0    0  0.62795459547E+02  0.82116337660E+02  0.12634712945E+04  0.12738499059E+04  0.12509000000E+03 0.  0.
         25    1    4    4    0    0 -0.70325621585E+02 -0.39260496263E+02  0.13231729920E+04  0.13315109292E+04  0.12509000000E+03 0.  0.
         25    1    4    4    0    0  0.75301620380E+01 -0.42855841397E+02  0.14686088772E+04  0.14745687060E+04  0.12509000000E+03 0.  0.
<mgrwt>
<rscale>  2 0.44804781E+03</rscale>
<asrwt>0</asrwt>
<pdfrwt beam="1">  1       21 0.59817427E+00 0.44804781E+03</pdfrwt>
<pdfrwt beam="2">  1       21 0.18144423E-02 0.44804781E+03</pdfrwt>
<totfact> 0.39810877E+02</totfact>
</mgrwt>
</event>
<event>
 7    0  0.4691878E-002  0.4489013E+03  0.7546771E-02  0.1028050E+00
         21   -1    0    0  502  501  0.00000000000E+00  0.00000000000E+00  0.41033207485E+03  0.41033207485E+03  0.00000000000E+00 0. -1.
         21   -1    0    0  501  502 -0.00000000000E+00 -0.00000000000E+00 -0.12277395987E+03  0.12277395987E+03  0.00000000000E+00 0. -1.
      99926    2    1    2    0    0  0.88817841970E-15  0.17763568394E-14  0.28755811498E+03  0.53310603472E+03  0.44890129735E+03 0.  0.
      99925    2    3    3    0    0  0.56100132949E+01  0.13644333059E+02  0.30816298453E+03  0.40547489110E+03  0.26311180551E+03 0.  0.
         25    1    4    4    0    0 -0.17345576732E+02  0.38596052935E+02  0.17960222867E+03  0.22292373803E+03  0.12509000000E+03 0.  0.
         25    1    4    4    0    0  0.22955590027E+02 -0.24951719876E+02  0.12856075586E+03  0.18255115307E+03  0.12509000000E+03 0.  0.
         25    1    3    3    0    0 -0.56100132949E+01 -0.13644333059E+02 -0.20604869549E+02  0.12763114362E+03  0.12509000000E+03 0.  0.
<mgrwt>
<rscale>  2 0.44890130E+03</rscale>
<asrwt>0</asrwt>
<pdfrwt beam="1">  1       21 0.60342952E-01 0.44890130E+03</pdfrwt>
<pdfrwt beam="2">  1       21 0.18054994E-01 0.44890130E+03</pdfrwt>
<totfact> 0.66131881E+04</totfact>
</mgrwt>
</event>
<event>
 7    0  0.4691878E-002  0.4544348E+03  0.7546771E-02  0.1026408E+00
         21   -1    0    0  502  501  0.00000000000E+00  0.00000000000E+00  0.18846617725E+03  0.18846617725E+03  0.00000000000E+00 0. -1.
         21   -1    0    0  501  502 -0.00000000000E+00 -0.00000000000E+00 -0.27393636557E+03  0.27393636557E+03  0.00000000000E+00 0. -1.
      99926    2    1    2    0    0  0.00000000000E+00  0.00000000000E+00 -0.85470188321E+02  0.46240254282E+03  0.45443476816E+03 0.  0.
      99925    2    3    3    0    0 -0.88210046112E+02  0.11961347022E+02 -0.12395112199E+03  0.30412311771E+03  0.26306444843E+03 0.  0.
         25    1    4    4    0    0 -0.78106960440E+02 -0.59565403517E+01 -0.90063005152E+02  0.17290179478E+03  0.12509000000E+03 0.  0.
         25    1    3    3    0    0  0.88210046112E+02 -0.11961347022E+02  0.38480933667E+02  0.15827942511E+03  0.12509000000E+03 0.  0.
         25    1    4    4    0    0 -0.10103085672E+02  0.17917887374E+02 -0.33888116836E+02  0.13122132293E+03  0.12509000000E+03 0.  0.
<mgrwt>
<rscale>  2 0.45443477E+03</rscale>
<asrwt>0</asrwt>
<pdfrwt beam="1">  1       21 0.27715615E-01 0.45443477E+03</pdfrwt>
<pdfrwt beam="2">  1       21 0.40284759E-01 0.45443477E+03</pdfrwt>
<totfact> 0.68309824E+04</totfact>
</mgrwt>
</event>
<event>
 7    0  0.4691878E-002  0.4632444E+03  0.7546771E-02  0.1023844E+00
         21   -1    0    0  502  501  0.00000000000E+00  0.00000000000E+00  0.24705553279E+02  0.24705553279E+02  0.00000000000E+00 0.  1.
         21   -1    0    0  501  502 -0.00000000000E+00 -0.00000000000E+00 -0.21715299019E+04  0.21715299019E+04  0.00000000000E+00 0.  1.
      99926    2    1    2    0    0  0.71054273576E-14  0.00000000000E+00 -0.21468243486E+04  0.21962354552E+04  0.46324441794E+03 0.  0.
      99925    2    3    3    0    0 -0.60069966541E+02  0.43903378730E+02 -0.89075895894E+03  0.93176573280E+03  0.26305883440E+03 0.  0.
         25    1    4    4    0    0  0.22617448848E+01  0.19562424545E+02 -0.50854439817E+03  0.52407319809E+03  0.12509000000E+03 0.  0.
         25    1    4    4    0    0 -0.62331711426E+02  0.24340954185E+02 -0.38221456077E+03  0.40769253472E+03  0.12509000000E+03 0.  0.
         25    1    3    3    0    0  0.60069966541E+02 -0.43903378730E+02 -0.12560653897E+04  0.12644697224E+04  0.12509000000E+03 0.  0.
<mgrwt>
<rscale>  2 0.46324442E+03</rscale>
<asrwt>0</asrwt>
<pdfrwt beam="1">  1       21 0.36331701E-02 0.46324442E+03</pdfrwt>
<pdfrwt beam="2">  1       21 0.31934259E+00 0.46324442E+03</pdfrwt>
<totfact> 0.10100216E+04</totfact>
</mgrwt>
</event>
<event>
 7    0  0.4691878E-002  0.4553754E+03  0.7546771E-02  0.1026131E+00
         21   -1    0    0  502  501  0.00000000000E+00  0.00000000000E+00  0.66919587437E+03  0.66919587437E+03  0.00000000000E+00 0. -1.
         21   -1    0    0  501  502 -0.00000000000E+00 -0.00000000000E+00 -0.77468648296E+02  0.77468648296E+02  0.00000000000E+00 0. -1.
      99926    2    1    2    0    0  0.00000000000E+00 -0.14210854715E-13  0.59172722607E+03  0.74666452266E+03  0.45537544876E+03 0.  0.
      99925    2    3    3    0    0  0.53370274546E+02  0.77500432450E+02  0.47632051817E+03  0.55218850984E+03  0.26301370902E+03 0.  0.
         25    1    4    4    0    0  0.35785191057E+02  0.40793555737E+01  0.18402995015E+03  0.22541462173E+03  0.12509000000E+03 0.  0.
         25    1    4    4    0    0  0.17585083489E+02  0.73421076877E+02  0.29229056803E+03  0.32677388811E+03  0.12509000000E+03 0.  0.
         25    1    3    3    0    0 -0.53370274546E+02 -0.77500432450E+02  0.11540670790E+03  0.19447601282E+03  0.12509000000E+03 0.  0.
<mgrwt>
<rscale>  2 0.45537545E+03</rscale>
<asrwt>0</asrwt>
<pdfrwt beam="1">  1       21 0.98411155E-01 0.45537545E+03</pdfrwt>
<pdfrwt beam="2">  1       21 0.11392449E-01 0.45537545E+03</pdfrwt>
<totfact> 0.50292934E+04</totfact>
</mgrwt>
</event>
<event>
 7    0  0.4691878E-002  0.4553194E+03  0.7546771E-02  0.1026148E+00
         21   -1    0    0  502  501  0.00000000000E+00  0.00000000000E+00  0.18934101924E+03  0.18934101924E+03  0.00000000000E+00 0. -1.
         21   -1    0    0  501  502 -0.00000000000E+00 -0.00000000000E+00 -0.27373323408E+03  0.27373323408E+03  0.00000000000E+00 0. -1.
      99926    2    1    2    0    0  0.00000000000E+00 -0.17763568394E-14 -0.84392214848E+02  0.46307425332E+03  0.45531935843E+03 0.  0.
      99925    2    3    3    0    0  0.74465161696E+02 -0.11966100375E+02 -0.13928605739E+03  0.30703230411E+03  0.26302087772E+03 0.  0.
         25    1    3    3    0    0 -0.74465161696E+02  0.11966100375E+02  0.54893842544E+02  0.15604194921E+03  0.12509000000E+03 0.  0.
         25    1    4    4    0    0  0.32975871477E+01 -0.26542785608E+02 -0.78803575144E+02  0.15024282048E+03  0.12509000000E+03 0.  0.
         25    1    4    4    0    0  0.71167574549E+02  0.14576685233E+02 -0.60482482248E+02  0.15678948363E+03  0.12509000000E+03 0.  0.
<mgrwt>
<rscale>  2 0.45531936E+03</rscale>
<asrwt>0</asrwt>
<pdfrwt beam="1">  1       21 0.27844268E-01 0.45531936E+03</pdfrwt>
<pdfrwt beam="2">  1       21 0.40254887E-01 0.45531936E+03</pdfrwt>
<totfact> 0.67781100E+04</totfact>
</mgrwt>
</event>
<event>
 7    0  0.4691878E-002  0.4523494E+03  0.7546771E-02  0.1027024E+00
         21   -1    0    0  502  501  0.00000000000E+00  0.00000000000E+00  0.73571631090E+03  0.73571631090E+03  0.00000000000E+00 0.  1.
         21   -1    0    0  501  502 -0.00000000000E+00 -0.00000000000E+00 -0.69530858135E+02  0.69530858135E+02  0.00000000000E+00 0.  1.
      99926    2    1    2    0    0  0.00000000000E+00 -0.44408920985E-15  0.66618545276E+03  0.80524716904E+03  0.45234936251E+03 0.  0.
      99925    2    3    3    0    0 -0.76677768182E+02  0.15847371455E+00  0.56237127693E+03  0.62551293064E+03  0.26291722659E+03 0.  0.
         25    1    4    4    0    0 -0.63620506094E+01  0.11150860550E+02  0.31728652362E+03  0.34129615226E+03  0.12509000000E+03 0.  0.
         25    1    4    4    0    0 -0.70315717572E+02 -0.10992386836E+02  0.24508475331E+03  0.28421677837E+03  0.12509000000E+03 0.  0.
         25    1    3    3    0    0  0.76677768182E+02 -0.15847371455E+00  0.10381417584E+03  0.17973423840E+03  0.12509000000E+03 0.  0.
<mgrwt>
<rscale>  2 0.45234936E+03</rscale>
<asrwt>0</asrwt>
<pdfrwt beam="1">  1       21 0.10819357E+00 0.45234936E+03</pdfrwt>
<pdfrwt beam="2">  1       21 0.10225127E-01 0.45234936E+03</pdfrwt>
<totfact> 0.48513332E+04</totfact>
</mgrwt>
</event>
<event>
 7    0  0.4691878E-002  0.4532723E+03  0.7546771E-02  0.1026751E+00
         21   -1    0    0  502  501  0.00000000000E+00  0.00000000000E+00  0.11165115567E+04  0.11165115567E+04  0.00000000000E+00 0.  1.
         21   -1    0    0  501  502 -0.00000000000E+00 -0.00000000000E+00 -0.46003961207E+02  0.46003961207E+02  0.00000000000E+00 0.  1.
      99926    2    1    2    0    0  0.00000000000E+00  0.00000000000E+00  0.10705075955E+04  0.11625155179E+04  0.45327234349E+03 0.  0.
      99925    2    3    3    0    0 -0.42011531777E+02 -0.32156703193E+02  0.42310127381E+03  0.50101610308E+03  0.26306543917E+03 0.  0.
         25    1    3    3    0    0  0.42011531777E+02  0.32156703193E+02  0.64740632171E+03  0.66149941486E+03  0.12509000000E+03 0.  0.
         25    1    4    4    0    0 -0.32371125889E+02 -0.18382837368E+02  0.28766054727E+03  0.31588275841E+03  0.12509000000E+03 0.  0.
         25    1    4    4    0    0 -0.96404058874E+01 -0.13773865825E+02  0.13544072654E+03  0.18513334467E+03  0.12509000000E+03 0.  0.
<mgrwt>
<rscale>  2 0.45327234E+03</rscale>
<asrwt>0</asrwt>
<pdfrwt beam="1">  1       21 0.16419286E+00 0.45327234E+03</pdfrwt>
<pdfrwt beam="2">  1       21 0.67652892E-02 0.45327234E+03</pdfrwt>
<totfact> 0.33820278E+04</totfact>
</mgrwt>
</event>
<event>
 6    0  0.4691878E-002  0.4561301E+03  0.7546771E-02  0.1025910E+00
         21   -1    0    0  502  501  0.00000000000E+00  0.00000000000E+00  0.24268971808E+03  0.24268971808E+03  0.00000000000E+00 0. -1.
         21   -1    0    0  501  502 -0.00000000000E+00 -0.00000000000E+00 -0.21432163174E+03  0.21432163174E+03  0.00000000000E+00 0. -1.
      99926    2    1    2    0    0 -0.71054273576E-14  0.00000000000E+00  0.28368086335E+02  0.45701134982E+03  0.45613005332E+03 0.  0.
         25    1    3    3    0    0 -0.67805844293E+02 -0.32152463206E+02  0.75603155236E+02  0.16430081738E+03  0.12509000000E+03 0.  0.
         25    1    3    3    0    0  0.30256305315E+02 -0.39630309576E+02  0.51002504059E+01  0.13475728590E+03  0.12509000000E+03 0.  0.
         25    1    3    3    0    0  0.37549538977E+02  0.71782772782E+02 -0.52335319307E+02  0.15795324654E+03  0.12509000000E+03 0.  0.
<mgrwt>
<rscale>  2 0.45613005E+03</rscale>
<asrwt>0</asrwt>
<pdfrwt beam="1">  1       21 0.35689665E-01 0.45613005E+03</pdfrwt>
<pdfrwt beam="2">  1       21 0.31517887E-01 0.45613005E+03</pdfrwt>
<totfact> 0.67785477E+04</totfact>
</mgrwt>
</event>
<event>
 7    0  0.4691878E-002  0.4583824E+03  0.7546771E-02  0.1025251E+00
         21   -1    0    0  502  501  0.00000000000E+00  0.00000000000E+00  0.28095010468E+03  0.28095010468E+03  0.00000000000E+00 0. -1.
         21   -1    0    0  501  502 -0.00000000000E+00 -0.00000000000E+00 -0.18696771371E+03  0.18696771371E+03  0.00000000000E+00 0. -1.
      99926    2    1    2    0    0  0.00000000000E+00  0.00000000000E+00  0.93982390976E+02  0.46791781839E+03  0.45838236763E+03 0.  0.
      99925    2    3    3    0    0  0.83342987507E+02  0.65359927925E+02  0.78256990536E+01  0.28274639131E+03  0.26204256617E+03 0.  0.
         25    1    4    4    0    0  0.76390431032E+02  0.42351618017E+02  0.23649469281E+02  0.15438899896E+03  0.12509000000E+03 0.  0.
         25    1    3    3    0    0 -0.83342987507E+02 -0.65359927925E+02  0.86156691922E+02  0.18517142708E+03  0.12509000000E+03 0.  0.
         25    1    4    4    0    0  0.69525564756E+01  0.23008309907E+02 -0.15823770227E+02  0.12835739235E+03  0.12509000000E+03 0.  0.
<mgrwt>
<rscale>  2 0.45838237E+03</rscale>
<asrwt>0</asrwt>
<pdfrwt beam="1">  1       21 0.41316192E-01 0.45838237E+03</pdfrwt>
<pdfrwt beam="2">  1       21 0.27495252E-01 0.45838237E+03</pdfrwt>
<totfact> 0.65806998E+04</totfact>
</mgrwt>
</event>
<event>
 7    0  0.4691878E-002  0.4537977E+03  0.7546771E-02  0.1026596E+00
         21   -1    0    0  502  501  0.00000000000E+00  0.00000000000E+00  0.38851505889E+02  0.38851505889E+02  0.00000000000E+00 0. -1.
         21   -1    0    0  501  502 -0.00000000000E+00 -0.00000000000E+00 -0.13251247477E+04  0.13251247477E+04  0.00000000000E+00 0. -1.
      99926    2    1    2    0    0 -0.14210854715E-13  0.71054273576E-14 -0.12862732418E+04  0.13639762536E+04  0.45379771678E+03 0.  0.
      99925    2    3    3    0    0  0.82710471457E+02 -0.57246244706E+02 -0.66128960036E+03  0.71870870071E+03  0.26290702977E+03 0.  0.
         25    1    4    4    0    0  0.71986596973E+00 -0.16546307268E+02 -0.28014660884E+03  0.30725222381E+03  0.12509000000E+03 0.  0.
         25    1    4    4    0    0  0.81990605487E+02 -0.40699937438E+02 -0.38114299152E+03  0.41145647689E+03  0.12509000000E+03 0.  0.
         25    1    3    3    0    0 -0.82710471457E+02  0.57246244706E+02 -0.62498364141E+03  0.64526755285E+03  0.12509000000E+03 0.  0.
<mgrwt>
<rscale>  2 0.45379772E+03</rscale>
<asrwt>0</asrwt>
<pdfrwt beam="1">  1       21 0.57134567E-02 0.45379772E+03</pdfrwt>
<pdfrwt beam="2">  1       21 0.19487129E+00 0.45379772E+03</pdfrwt>
<totfact> 0.27564687E+04</totfact>
</mgrwt>
</event>
<event>
 7    0  0.4691878E-002  0.4560118E+03  0.7546771E-02  0.1025944E+00
         21   -1    0    0  502  501  0.00000000000E+00  0.00000000000E+00  0.65114971516E+03  0.65114971516E+03  0.00000000000E+00 0.  1.
         21   -1    0    0  501  502 -0.00000000000E+00 -0.00000000000E+00 -0.79838308570E+02  0.79838308570E+02  0.00000000000E+00 0.  1.
      99926    2    1    2    0    0  0.00000000000E+00 -0.71054273576E-14  0.57131140659E+03  0.73098802373E+03  0.45601180636E+03 0.  0.
      99925    2    3    3    0    0  0.15512705497E+02 -0.55015907579E+02  0.51750462061E+03  0.58330568750E+03  0.26299638513E+03 0.  0.
         25    1    4    4    0    0 -0.10043279291E+02 -0.13176124082E+02  0.17804344578E+03  0.21822340477E+03  0.12509000000E+03 0.  0.
         25    1    3    3    0    0 -0.15512705497E+02  0.55015907579E+02  0.53806785982E+02  0.14768233624E+03  0.12509000000E+03 0.  0.
         25    1    4    4    0    0  0.25555984789E+02 -0.41839783497E+02  0.33946117483E+03  0.36508228272E+03  0.12509000000E+03 0.  0.
<mgrwt>
<rscale>  2 0.45601181E+03</rscale>
<asrwt>0</asrwt>
<pdfrwt beam="1">  1       21 0.95757308E-01 0.45601181E+03</pdfrwt>
<pdfrwt beam="2">  1       21 0.11740928E-01 0.45601181E+03</pdfrwt>
<totfact> 0.50846871E+04</totfact>
</mgrwt>
</event>
<event>
 7    0  0.4691878E-002  0.4538309E+03  0.7546771E-02  0.1026586E+00
         21   -1    0    0  502  501  0.00000000000E+00  0.00000000000E+00  0.38614535933E+02  0.38614535933E+02  0.00000000000E+00 0.  1.
         21   -1    0    0  501  502 -0.00000000000E+00 -0.00000000000E+00 -0.13334515793E+04  0.13334515793E+04  0.00000000000E+00 0.  1.
      99926    2    1    2    0    0  0.00000000000E+00 -0.14210854715E-13 -0.12948370434E+04  0.13720661153E+04  0.45383086685E+03 0.  0.
      99925    2    3    3    0    0  0.16849108835E+02 -0.11036136158E+03 -0.84410258926E+03  0.89115803793E+03  0.26303981595E+03 0.  0.
         25    1    3    3    0    0 -0.16849108835E+02  0.11036136158E+03 -0.45073445415E+03  0.48090807735E+03  0.12509000000E+03 0.  0.
         25    1    4    4    0    0  0.48082869661E+02 -0.48039998030E+02 -0.43683103590E+03  0.45944386577E+03  0.12509000000E+03 0.  0.
         25    1    4    4    0    0 -0.31233760826E+02 -0.62321363553E+02 -0.40727155336E+03  0.43171417216E+03  0.12509000000E+03 0.  0.
<mgrwt>
<rscale>  2 0.45383087E+03</rscale>
<asrwt>0</asrwt>
<pdfrwt beam="1">  1       21 0.56786081E-02 0.45383087E+03</pdfrwt>
<pdfrwt beam="2">  1       21 0.19609583E+00 0.45383087E+03</pdfrwt>
<totfact> 0.27333535E+04</totfact>
</mgrwt>
</event>
<event>
 7    0  0.4691878E-002  0.4535617E+03  0.7546771E-02  0.1026665E+00
         21   -1    0    0  502  501  0.00000000000E+00  0.00000000000E+00  0.14129828459E+03  0.14129828459E+03  0.00000000000E+00 0.  1.
         21   -1    0    0  501  502 -0.00000000000E+00 -0.00000000000E+00 -0.36397857443E+03  0.36397857443E+03  0.00000000000E+00 0.  1.
      99926    2    1    2    0    0  0.00000000000E+00  0.71054273576E-14 -0.22268028984E+03  0.50527685901E+03  0.45356167472E+03 0.  0.
      99925    2    3    3    0    0 -0.83114360859E+02 -0.61025139035E+02 -0.92201813164E+02  0.29718023350E+03  0.26302633377E+03 0.  0.
         25    1    3    3    0    0  0.83114360859E+02  0.61025139035E+02 -0.13047847668E+03  0.20809662552E+03  0.12509000000E+03 0.  0.
         25    1    4    4    0    0 -0.79706030943E+02 -0.39166854683E+02 -0.68268249707E+02  0.16791413250E+03  0.12509000000E+03 0.  0.
         25    1    4    4    0    0 -0.34083299161E+01 -0.21858284352E+02 -0.23933563457E+02  0.12926610100E+03  0.12509000000E+03 0.  0.
<mgrwt>
<rscale>  2 0.45356167E+03</rscale>
<asrwt>0</asrwt>
<pdfrwt beam="1">  1       21 0.20779160E-01 0.45356167E+03</pdfrwt>
<pdfrwt beam="2">  1       21 0.53526260E-01 0.45356167E+03</pdfrwt>
<totfact> 0.65647762E+04</totfact>
</mgrwt>
</event>
<event>
 7    0  0.4691878E-002  0.4148825E+03  0.7546771E-02  0.1038745E+00
         21   -1    0    0  502  501  0.00000000000E+00  0.00000000000E+00  0.27415989667E+03  0.27415989667E+03  0.00000000000E+00 0. -1.
         21   -1    0    0  501  502 -0.00000000000E+00 -0.00000000000E+00 -0.15695901081E+03  0.15695901081E+03  0.00000000000E+00 0. -1.
      99926    2    1    2    0    0  0.71054273576E-14 -0.22204460493E-14  0.11720088586E+03  0.43111890748E+03  0.41488247100E+03 0.  0.
      99925    2    3    3    0    0 -0.62096326251E+02  0.33797724406E+01  0.10785211485E+03  0.29111074981E+03  0.26314637254E+03 0.  0.
         25    1    3    3    0    0  0.62096326251E+02 -0.33797724406E+01  0.93487710005E+01  0.14000815767E+03  0.12509000000E+03 0.  0.
         25    1    4    4    0    0 -0.49435550923E+02  0.33334039126E+02  0.35745577897E+02  0.14310935084E+03  0.12509000000E+03 0.  0.
         25    1    4    4    0    0 -0.12660775328E+02 -0.29954266686E+02  0.72106536958E+02  0.14800139897E+03  0.12509000000E+03 0.  0.
<mgrwt>
<rscale>  2 0.41488247E+03</rscale>
<asrwt>0</asrwt>
<pdfrwt beam="1">  1       21 0.40317632E-01 0.41488247E+03</pdfrwt>
<pdfrwt beam="2">  1       21 0.23082207E-01 0.41488247E+03</pdfrwt>
<totfact> 0.98147203E+04</totfact>
</mgrwt>
</event>
<event>
 7    0  0.4691878E-002  0.4344894E+03  0.7546771E-02  0.1032451E+00
         21   -1    0    0  502  501  0.00000000000E+00  0.00000000000E+00  0.10220844871E+03  0.10220844871E+03  0.00000000000E+00 0.  1.
         21   -1    0    0  501  502 -0.00000000000E+00 -0.00000000000E+00 -0.46175507371E+03  0.46175507371E+03  0.00000000000E+00 0.  1.
      99926    2    1    2    0    0  0.00000000000E+00  0.00000000000E+00 -0.35954662500E+03  0.56396352241E+03  0.43448944643E+03 0.  0.
      99925    2    3    3    0    0  0.37988246859E+01 -0.54965447336E+02 -0.13374444519E+03  0.30001321653E+03  0.26283972683E+03 0.  0.
         25    1    4    4    0    0  0.29325470866E+01  0.12958231934E+02 -0.54441915354E+02  0.13706912801E+03  0.12509000000E+03 0.  0.
         25    1    3    3    0    0 -0.37988246859E+01  0.54965447336E+02 -0.22580217981E+03  0.26395030589E+03  0.12509000000E+03 0.  0.
         25    1    4    4    0    0  0.86627759934E+00 -0.67923679270E+02 -0.79302529837E+02  0.16294408851E+03  0.12509000000E+03 0.  0.
<mgrwt>
<rscale>  2 0.43448945E+03</rscale>
<asrwt>0</asrwt>
<pdfrwt beam="1">  1       21 0.15030654E-01 0.43448945E+03</pdfrwt>
<pdfrwt beam="2">  1       21 0.67905157E-01 0.43448945E+03</pdfrwt>
<totfact> 0.71930153E+04</totfact>
</mgrwt>
</event>
<event>
 7    0  0.4691878E-002  0.4489794E+03  0.7546771E-02  0.1028027E+00
         21   -1    0    0  502  501  0.00000000000E+00  0.00000000000E+00  0.75708191494E+02  0.75708191494E+02  0.00000000000E+00 0.  1.
         21   -1    0    0  501  502 -0.00000000000E+00 -0.00000000000E+00 -0.66565629972E+03  0.66565629972E+03  0.00000000000E+00 0.  1.
      99926    2    1    2    0    0  0.14210854715E-13 -0.35527136788E-14 -0.58994810823E+03  0.74136449122E+03  0.44897944099E+03 0.  0.
      99925    2    3    3    0    0  0.93193171279E+02 -0.31300736536E+02 -0.44475668611E+03  0.52597470400E+03  0.26301364247E+03 0.  0.
         25    1    4    4    0    0  0.67986157011E+02  0.10226475400E+02 -0.18563844298E+03  0.23417053178E+03  0.12509000000E+03 0.  0.
         25    1    3    3    0    0 -0.93193171279E+02  0.31300736536E+02 -0.14519142212E+03  0.21538978722E+03  0.12509000000E+03 0.  0.
         25    1    4    4    0    0  0.25207014268E+02 -0.41527211936E+02 -0.25911824313E+03  0.29180417222E+03  0.12509000000E+03 0.  0.
<mgrwt>
<rscale>  2 0.44897944E+03</rscale>
<asrwt>0</asrwt>
<pdfrwt beam="1">  1       21 0.11133558E-01 0.44897944E+03</pdfrwt>
<pdfrwt beam="2">  1       21 0.97890632E-01 0.44897944E+03</pdfrwt>
<totfact> 0.53186918E+04</totfact>
</mgrwt>
</event>
<event>
 7    0  0.4691878E-002  0.4562898E+03  0.7546771E-02  0.1025863E+00
         21   -1    0    0  502  501  0.00000000000E+00  0.00000000000E+00  0.12860983501E+03  0.12860983501E+03  0.00000000000E+00 0. -1.
         21   -1    0    0  501  502 -0.00000000000E+00 -0.00000000000E+00 -0.40471315750E+03  0.40471315750E+03  0.00000000000E+00 0. -1.
      99926    2    1    2    0    0  0.00000000000E+00  0.14210854715E-13 -0.27610332249E+03  0.53332299252E+03  0.45628978693E+03 0.  0.
      99925    2    3    3    0    0  0.83868073453E+02 -0.70648052496E+02 -0.21211660308E+03  0.35509053355E+03  0.26281330379E+03 0.  0.
         25    1    4    4    0    0  0.56592329507E+02 -0.44173890789E+02 -0.64765848278E+02  0.15810170015E+03  0.12509000000E+03 0.  0.
         25    1    3    3    0    0 -0.83868073453E+02  0.70648052496E+02 -0.63986719412E+02  0.17823245896E+03  0.12509000000E+03 0.  0.
         25    1    4    4    0    0  0.27275743946E+02 -0.26474161707E+02 -0.14735075480E+03  0.19698883341E+03  0.12509000000E+03 0.  0.
<mgrwt>
<rscale>  2 0.45628979E+03</rscale>
<asrwt>0</asrwt>
<pdfrwt beam="1">  1       21 0.18913211E-01 0.45628979E+03</pdfrwt>
<pdfrwt beam="2">  1       21 0.59516642E-01 0.45628979E+03</pdfrwt>
<totfact> 0.62342389E+04</totfact>
</mgrwt>
</event>
<event>
 7    0  0.4691878E-002  0.4420935E+03  0.7546771E-02  0.1030106E+00
         21   -1    0    0  502  501  0.00000000000E+00  0.00000000000E+00  0.59511407364E+02  0.59511407364E+02  0.00000000000E+00 0. -1.
         21   -1    0    0  501  502 -0.00000000000E+00 -0.00000000000E+00 -0.82104711971E+03  0.82104711971E+03  0.00000000000E+00 0. -1.
      99926    2    1    2    0    0  0.71054273576E-14  0.00000000000E+00 -0.76153571234E+03  0.88055852707E+03  0.44209351774E+03 0.  0.
      99925    2    3    3    0    0 -0.54872568922E+02 -0.54273082880E+02 -0.35806172320E+03  0.45114574854E+03  0.26337752840E+03 0.  0.
         25    1    4    4    0    0 -0.61807921197E+02 -0.43200778888E+02 -0.22315309180E+03  0.26670458732E+03  0.12509000000E+03 0.  0.
         25    1    3    3    0    0  0.54872568922E+02  0.54273082880E+02 -0.40347398915E+03  0.42941277853E+03  0.12509000000E+03 0.  0.
         25    1    4    4    0    0  0.69353522747E+01 -0.11072303992E+02 -0.13490863140E+03  0.18444116122E+03  0.12509000000E+03 0.  0.
<mgrwt>
<rscale>  2 0.44209352E+03</rscale>
<asrwt>0</asrwt>
<pdfrwt beam="1">  1       21 0.87516780E-02 0.44209352E+03</pdfrwt>
<pdfrwt beam="2">  1       21 0.12074222E+00 0.44209352E+03</pdfrwt>
<totfact> 0.48836632E+04</totfact>
</mgrwt>
</event>
<event>
 7    0  0.4691878E-002  0.4543153E+03  0.7546771E-02  0.1026443E+00
         21   -1    0    0  502  501  0.00000000000E+00  0.00000000000E+00  0.27907082246E+03  0.27907082246E+03  0.00000000000E+00 0. -1.
         21   -1    0    0  501  502 -0.00000000000E+00 -0.00000000000E+00 -0.18490140556E+03  0.18490140556E+03  0.00000000000E+00 0. -1.
      99926    2    1    2    0    0  0.00000000000E+00  0.00000000000E+00  0.94169416902E+02  0.46397222803E+03  0.45431525321E+03 0.  0.
      99925    2    3    3    0    0  0.21499546972E+02 -0.11941980734E+02 -0.52748633670E+02  0.26945420031E+03  0.26309372148E+03 0.  0.
         25    1    3    3    0    0 -0.21499546972E+02  0.11941980734E+02  0.14691805057E+03  0.19451802772E+03  0.12509000000E+03 0.  0.
         25    1    4    4    0    0 -0.20197529336E+02 -0.23978804505E+01 -0.52698151443E+02  0.13725266222E+03  0.12509000000E+03 0.  0.
         25    1    4    4    0    0  0.41697076308E+02 -0.95441002839E+01 -0.50482227249E-01  0.13220153808E+03  0.12509000000E+03 0.  0.
<mgrwt>
<rscale>  2 0.45431525E+03</rscale>
<asrwt>0</asrwt>
<pdfrwt beam="1">  1       21 0.41039827E-01 0.45431525E+03</pdfrwt>
<pdfrwt beam="2">  1       21 0.27191383E-01 0.45431525E+03</pdfrwt>
<totfact> 0.68257428E+04</totfact>
</mgrwt>
</event>
<event>
 7    0  0.4691878E-002  0.4528611E+03  0.7546771E-02  0.1026872E+00
         21   -1    0    0  502  501  0.00000000000E+00  0.00000000000E+00  0.62648252950E+02  0.62648252950E+02  0.00000000000E+00 0.  1.
         21   -1    0    0  501  502 -0.00000000000E+00 -0.00000000000E+00 -0.81839156728E+03  0.81839156728E+03  0.00000000000E+00 0.  1.
      99926    2    1    2    0    0  0.00000000000E+00  0.00000000000E+00 -0.75574331433E+03  0.88103982023E+03  0.45286113509E+03 0.  0.
      99925    2    3    3    0    0 -0.95211343105E+02  0.23521426297E+02 -0.57792275178E+03  0.64253171152E+03  0.26312323338E+03 0.  0.
         25    1    3    3    0    0  0.95211343105E+02 -0.23521426297E+02 -0.17782056255E+03  0.23850810870E+03  0.12509000000E+03 0.  0.
         25    1    4    4    0    0 -0.27790402982E+02  0.13063280270E+02 -0.19253140361E+03  0.23164370327E+03  0.12509000000E+03 0.  0.
         25    1    4    4    0    0 -0.67420940123E+02  0.10458146027E+02 -0.38539134816E+03  0.41088800825E+03  0.12509000000E+03 0.  0.
<mgrwt>
<rscale>  2 0.45286114E+03</rscale>
<asrwt>0</asrwt>
<pdfrwt beam="1">  1       21 0.92129791E-02 0.45286114E+03</pdfrwt>
<pdfrwt beam="2">  1       21 0.12035169E+00 0.45286114E+03</pdfrwt>
<totfact> 0.44809548E+04</totfact>
</mgrwt>
</event>
<event>
 7    0  0.4691878E-002  0.4483278E+03  0.7546771E-02  0.1028222E+00
         21   -1    0    0  502  501  0.00000000000E+00  0.00000000000E+00  0.21686742600E+03  0.21686742600E+03  0.00000000000E+00 0. -1.
         21   -1    0    0  501  502 -0.00000000000E+00 -0.00000000000E+00 -0.23170583011E+03  0.23170583011E+03  0.00000000000E+00 0. -1.
      99926    2    1    2    0    0 -0.88817841970E-15  0.00000000000E+00 -0.14838404110E+02  0.44857325612E+03  0.44832776834E+03 0.  0.
      99925    2    3    3    0    0  0.30708591651E+01 -0.10154921073E+03  0.23625741526E+02  0.28289685172E+03  0.26296536021E+03 0.  0.
         25    1    3    3    0    0 -0.30708591651E+01  0.10154921073E+03 -0.38464145636E+02  0.16567640440E+03  0.12509000000E+03 0.  0.
         25    1    4    4    0    0  0.21906253917E+02 -0.74773907080E+02 -0.14517717351E+02  0.14808542588E+03  0.12509000000E+03 0.  0.
         25    1    4    4    0    0 -0.18835394752E+02 -0.26775303650E+02  0.38143458877E+02  0.13481142584E+03  0.12509000000E+03 0.  0.
<mgrwt>
<rscale>  2 0.44832777E+03</rscale>
<asrwt>0</asrwt>
<pdfrwt beam="1">  1       21 0.31892269E-01 0.44832777E+03</pdfrwt>
<pdfrwt beam="2">  1       21 0.34074386E-01 0.44832777E+03</pdfrwt>
<totfact> 0.72819377E+04</totfact>
</mgrwt>
</event>
<event>
 7    0  0.4691878E-002  0.4442898E+03  0.7546771E-02  0.1029439E+00
         21   -1    0    0  502  501  0.00000000000E+00  0.00000000000E+00  0.53114036455E+03  0.53114036455E+03  0.00000000000E+00 0. -1.
         21   -1    0    0  501  502 -0.00000000000E+00 -0.00000000000E+00 -0.92910201277E+02  0.92910201277E+02  0.00000000000E+00 0. -1.
      99926    2    1    2    0    0  0.00000000000E+00  0.00000000000E+00  0.43823016327E+03  0.62405056583E+03  0.44428980712E+03 0.  0.
      99925    2    3    3    0    0  0.35816796615E+02  0.94699033426E+02  0.30365102232E+03  0.41426543020E+03  0.26298508218E+03 0.  0.
         25    1    4    4    0    0 -0.73525909382E+01  0.37481937490E+02  0.19010058041E+03  0.23074812026E+03  0.12509000000E+03 0.  0.
         25    1    3    3    0    0 -0.35816796615E+02 -0.94699033426E+02  0.13457914096E+03  0.20978513563E+03  0.12509000000E+03 0.  0.
         25    1    4    4    0    0  0.43169387553E+02  0.57217095935E+02  0.11355044191E+03  0.18351730994E+03  0.12509000000E+03 0.  0.
<mgrwt>
<rscale>  2 0.44428981E+03</rscale>
<asrwt>0</asrwt>
<pdfrwt beam="1">  1       21 0.78108876E-01 0.44428981E+03</pdfrwt>
<pdfrwt beam="2">  1       21 0.13663265E-01 0.44428981E+03</pdfrwt>
<totfact> 0.62327117E+04</totfact>
</mgrwt>
</event>
<event>
 7    0  0.4691878E-002  0.5021745E+03  0.7546771E-02  0.1013213E+00
         21   -1    0    0  502  501  0.00000000000E+00  0.00000000000E+00  0.93768381148E+03  0.93768381148E+03  0.00000000000E+00 0.  1.
         21   -1    0    0  501  502 -0.00000000000E+00 -0.00000000000E+00 -0.67234621377E+02  0.67234621377E+02  0.00000000000E+00 0.  1.
      99926    2    1    2    0    0  0.35527136788E-14 -0.32196467714E-14  0.87044919010E+03  0.10049184329E+04  0.50217453554E+03 0.  0.
      99925    2    3    3    0    0 -0.30838960367E+02  0.88922571301E+00  0.22719460707E+03  0.34888809904E+03  0.26297088046E+03 0.  0.
         25    1    4    4    0    0  0.39330093010E+01  0.32953989976E+02  0.92474799147E+02  0.15906140511E+03  0.12509000000E+03 0.  0.
         25    1    4    4    0    0 -0.34771969668E+02 -0.32064764263E+02  0.13471980793E+03  0.18982669393E+03  0.12509000000E+03 0.  0.
         25    1    3    3    0    0  0.30838960367E+02 -0.88922571301E+00  0.64325458303E+03  0.65603033382E+03  0.12509000000E+03 0.  0.
<mgrwt>
<rscale>  2 0.50217454E+03</rscale>
<asrwt>0</asrwt>
<pdfrwt beam="1">  1       21 0.13789467E+00 0.50217454E+03</pdfrwt>
<pdfrwt beam="2">  1       21 0.98874449E-02 0.50217454E+03</pdfrwt>
<totfact> 0.27397976E+04</totfact>
</mgrwt>
</event>
<event>
 7    0  0.4691878E-002  0.4600512E+03  0.7546771E-02  0.1024766E+00
         21   -1    0    0  502  501  0.00000000000E+00  0.00000000000E+00  0.71774601693E+03  0.71774601693E+03  0.00000000000E+00 0. -1.
         21   -1    0    0  501  502 -0.00000000000E+00 -0.00000000000E+00 -0.73719366291E+02  0.73719366291E+02  0.00000000000E+00 0. -1.
      99926    2    1    2    0    0 -0.14210854715E-13  0.00000000000E+00  0.64402665064E+03  0.79146538322E+03  0.46005122118E+03 0.  0.
      99925    2    3    3    0    0  0.10844918975E+03 -0.38986129245E+02  0.44725677252E+03  0.53137494114E+03  0.26275380581E+03 0.  0.
         25    1    4    4    0    0  0.91790308775E+02 -0.55430462295E+01  0.26608570646E+03  0.30806703399E+03  0.12509000000E+03 0.  0.
         25    1    4    4    0    0  0.16658880977E+02 -0.33443083015E+02  0.18117106606E+03  0.22330790715E+03  0.12509000000E+03 0.  0.
         25    1    3    3    0    0 -0.10844918975E+03  0.38986129245E+02  0.19676987812E+03  0.26009044209E+03  0.12509000000E+03 0.  0.
<mgrwt>
<rscale>  2 0.46005122E+03</rscale>
<asrwt>0</asrwt>
<pdfrwt beam="1">  1       21 0.10555088E+00 0.46005122E+03</pdfrwt>
<pdfrwt beam="2">  1       21 0.10841084E-01 0.46005122E+03</pdfrwt>
<totfact> 0.46316769E+04</totfact>
</mgrwt>
</event>
<event>
 7    0  0.4691878E-002  0.4635958E+03  0.7546771E-02  0.1023743E+00
         21   -1    0    0  502  501  0.00000000000E+00  0.00000000000E+00  0.11373667432E+04  0.11373667432E+04  0.00000000000E+00 0. -1.
         21   -1    0    0  501  502 -0.00000000000E+00 -0.00000000000E+00 -0.47240927641E+02  0.47240927641E+02  0.00000000000E+00 0. -1.
      99926    2    1    2    0    0  0.00000000000E+00  0.28421709430E-13  0.10901258155E+04  0.11846076708E+04  0.46359577226E+03 0.  0.
      99925    2    3    3    0    0 -0.32201447735E+02  0.11471600039E+03  0.73440474236E+03  0.78915642985E+03  0.26309855794E+03 0.  0.
         25    1    3    3    0    0  0.32201447735E+02 -0.11471600039E+03  0.35572107317E+03  0.39545124096E+03  0.12509000000E+03 0.  0.
         25    1    4    4    0    0  0.52244333600E+01  0.33708727532E+02  0.41368984601E+03  0.43353243225E+03  0.12509000000E+03 0.  0.
         25    1    4    4    0    0 -0.37425881095E+02  0.81007272858E+02  0.32071489635E+03  0.35562399761E+03  0.12509000000E+03 0.  0.
<mgrwt>
<rscale>  2 0.46359577E+03</rscale>
<asrwt>0</asrwt>
<pdfrwt beam="1">  1       21 0.16725980E+00 0.46359577E+03</pdfrwt>
<pdfrwt beam="2">  1       21 0.69471960E-02 0.46359577E+03</pdfrwt>
<totfact> 0.30549844E+04</totfact>
</mgrwt>
</event>
<event>
 7    0  0.4691878E-002  0.4570923E+03  0.7546771E-02  0.1025628E+00
         21   -1    0    0  502  501  0.00000000000E+00  0.00000000000E+00  0.18482302819E+02  0.18482302819E+02  0.00000000000E+00 0. -1.
         21   -1    0    0  501  502 -0.00000000000E+00 -0.00000000000E+00 -0.28261276244E+04  0.28261276244E+04  0.00000000000E+00 0. -1.
      99926    2    1    2    0    0  0.00000000000E+00  0.00000000000E+00 -0.28076453216E+04  0.28446099272E+04  0.45709231697E+03 0.  0.
      99925    2    3    3    0    0  0.45568086490E+02 -0.77645149399E+02 -0.22098016980E+04  0.22272204828E+04  0.26302531201E+03 0.  0.
         25    1    3    3    0    0 -0.45568086490E+02  0.77645149399E+02 -0.59784362358E+03  0.61738944443E+03  0.12509000000E+03 0.  0.
         25    1    4    4    0    0 -0.81037905254E+01 -0.63792608137E+02 -0.10510997007E+04  0.10604684141E+04  0.12509000000E+03 0.  0.
         25    1    4    4    0    0  0.53671877016E+02 -0.13852541262E+02 -0.11587019972E+04  0.11667520687E+04  0.12509000000E+03 0.  0.
<mgrwt>
<rscale>  2 0.45709232E+03</rscale>
<asrwt>0</asrwt>
<pdfrwt beam="1">  1       21 0.27179868E-02 0.45709232E+03</pdfrwt>
<pdfrwt beam="2">  1       21 0.41560684E+00 0.45709232E+03</pdfrwt>
<totfact> 0.41417712E+03</totfact>
</mgrwt>
</event>
<event>
 7    0  0.4691878E-002  0.4694098E+03  0.7546771E-02  0.1022087E+00
         21   -1    0    0  502  501  0.00000000000E+00  0.00000000000E+00  0.52375263051E+03  0.52375263051E+03  0.00000000000E+00 0. -1.
         21   -1    0    0  501  502 -0.00000000000E+00 -0.00000000000E+00 -0.10517636058E+03  0.10517636058E+03  0.00000000000E+00 0. -1.
      99926    2    1    2    0    0 -0.14210854715E-13 -0.35527136788E-14  0.41857626993E+03  0.62892899110E+03  0.46940982318E+03 0.  0.
      99925    2    3    3    0    0  0.11352804328E+03 -0.20708659448E+02  0.19154070014E+03  0.34518593262E+03  0.26296011690E+03 0.  0.
         25    1    4    4    0    0  0.15523793056E+02  0.44879346759E+01  0.78764995014E+02  0.14870293288E+03  0.12509000000E+03 0.  0.
         25    1    4    4    0    0  0.98004250223E+02 -0.25196594124E+02  0.11277570513E+03  0.19648299973E+03  0.12509000000E+03 0.  0.
         25    1    3    3    0    0 -0.11352804328E+03  0.20708659448E+02  0.22703556979E+03  0.28374305848E+03  0.12509000000E+03 0.  0.
<mgrwt>
<rscale>  2 0.46940982E+03</rscale>
<asrwt>0</asrwt>
<pdfrwt beam="1">  1       21 0.77022444E-01 0.46940982E+03</pdfrwt>
<pdfrwt beam="2">  1       21 0.15467112E-01 0.46940982E+03</pdfrwt>
<totfact> 0.50890474E+04</totfact>
</mgrwt>
</event>
<event>
 7    0  0.4691878E-002  0.4540731E+03  0.7546771E-02  0.1026514E+00
         21   -1    0    0  502  501  0.00000000000E+00  0.00000000000E+00  0.46921455485E+03  0.46921455485E+03  0.00000000000E+00 0. -1.
         21   -1    0    0  501  502 -0.00000000000E+00 -0.00000000000E+00 -0.10985505094E+03  0.10985505094E+03  0.00000000000E+00 0. -1.
      99926    2    1    2    0    0  0.00000000000E+00  0.00000000000E+00  0.35935950391E+03  0.57906960578E+03  0.45407307263E+03 0.  0.
      99925    2    3    3    0    0  0.37870500394E+02 -0.86887731758E+02  0.30293031022E+03  0.41229006648E+03  0.26312102412E+03 0.  0.
         25    1    3    3    0    0 -0.37870500394E+02  0.86887731758E+02  0.56429193690E+02  0.16677953930E+03  0.12509000000E+03 0.  0.
         25    1    4    4    0    0  0.24698623206E+02 -0.37230439734E+02  0.20900565172E+03  0.24764288437E+03  0.12509000000E+03 0.  0.
         25    1    4    4    0    0  0.13171877188E+02 -0.49657292025E+02  0.93924658504E+02  0.16464718210E+03  0.12509000000E+03 0.  0.
<mgrwt>
<rscale>  2 0.45407307E+03</rscale>
<asrwt>0</asrwt>
<pdfrwt beam="1">  1       21 0.69002140E-01 0.45407307E+03</pdfrwt>
<pdfrwt beam="2">  1       21 0.16155155E-01 0.45407307E+03</pdfrwt>
<totfact> 0.60427048E+04</totfact>
</mgrwt>
</event>
<event>
 7    0  0.4691878E-002  0.4577681E+03  0.7546771E-02  0.1025431E+00
         21   -1    0    0  502  501  0.00000000000E+00  0.00000000000E+00  0.17410523109E+04  0.17410523109E+04  0.00000000000E+00 0.  1.
         21   -1    0    0  501  502 -0.00000000000E+00 -0.00000000000E+00 -0.30089790500E+02  0.30089790500E+02  0.00000000000E+00 0.  1.
      99926    2    1    2    0    0  0.00000000000E+00  0.35527136788E-14  0.17109625204E+04  0.17711421014E+04  0.45776806041E+03 0.  0.
      99925    2    3    3    0    0 -0.11302049269E+03  0.23152397690E+02  0.11353853375E+04  0.11709369141E+04  0.26207580373E+03 0.  0.
         25    1    4    4    0    0 -0.71390568358E+02  0.34207697280E+02  0.47907455201E+03  0.50142468456E+03  0.12509000000E+03 0.  0.
         25    1    3    3    0    0  0.11302049269E+03 -0.23152397690E+02  0.57557718289E+03  0.60020518729E+03  0.12509000000E+03 0.  0.
         25    1    4    4    0    0 -0.41629924335E+02 -0.11055299590E+02  0.65631078547E+03  0.66951222952E+03  0.12509000000E+03 0.  0.
<mgrwt>
<rscale>  2 0.45776806E+03</rscale>
<asrwt>0</asrwt>
<pdfrwt beam="1">  1       21 0.25603704E+00 0.45776806E+03</pdfrwt>
<pdfrwt beam="2">  1       21 0.44249704E-02 0.45776806E+03</pdfrwt>
<totfact> 0.17442738E+04</totfact>
</mgrwt>
</event>
<event>
 7    0  0.4691878E-002  0.4501616E+03  0.7546771E-02  0.1027674E+00
         21   -1    0    0  502  501  0.00000000000E+00  0.00000000000E+00  0.16477101050E+03  0.16477101050E+03  0.00000000000E+00 0. -1.
         21   -1    0    0  501  502 -0.00000000000E+00 -0.00000000000E+00 -0.30746524959E+03  0.30746524959E+03  0.00000000000E+00 0. -1.
      99926    2    1    2    0    0  0.00000000000E+00  0.71054273576E-14 -0.14269423909E+03  0.47223626009E+03  0.45016157041E+03 0.  0.
      99925    2    3    3    0    0 -0.97407507789E+02 -0.38079545933E+02 -0.12065845581E+03  0.30770249991E+03  0.26302868874E+03 0.  0.
         25    1    4    4    0    0 -0.31111641146E+02 -0.45929062360E+02 -0.86400449865E+02  0.16183312028E+03  0.12509000000E+03 0.  0.
         25    1    4    4    0    0 -0.66295866643E+02  0.78495164275E+01 -0.34258005942E+02  0.14586937963E+03  0.12509000000E+03 0.  0.
         25    1    3    3    0    0  0.97407507789E+02  0.38079545933E+02 -0.22035783281E+02  0.16453376017E+03  0.12509000000E+03 0.  0.
<mgrwt>
<rscale>  2 0.45016157E+03</rscale>
<asrwt>0</asrwt>
<pdfrwt beam="1">  1       21 0.24231031E-01 0.45016157E+03</pdfrwt>
<pdfrwt beam="2">  1       21 0.45215477E-01 0.45016157E+03</pdfrwt>
<totfact> 0.69915987E+04</totfact>
</mgrwt>
</event>
<event>
 7    0  0.4691878E-002  0.4431105E+03  0.7546771E-02  0.1029797E+00
         21   -1    0    0  502  501  0.00000000000E+00  0.00000000000E+00  0.56114124796E+02  0.56114124796E+02  0.00000000000E+00 0. -1.
         21   -1    0    0  501  502 -0.00000000000E+00 -0.00000000000E+00 -0.87476608926E+03  0.87476608926E+03  0.00000000000E+00 0. -1.
      99926    2    1    2    0    0  0.00000000000E+00  0.00000000000E+00 -0.81865196447E+03  0.93088021406E+03  0.44311052120E+03 0.  0.
      99925    2    3    3    0    0  0.91623002280E+02 -0.29205969169E+02 -0.45185657485E+03  0.53158817917E+03  0.26299023711E+03 0.  0.
         25    1    3    3    0    0 -0.91623002280E+02  0.29205969169E+02 -0.36679538962E+03  0.39929203489E+03  0.12509000000E+03 0.  0.
         25    1    4    4    0    0  0.41159128345E+01 -0.12830200564E+02 -0.18530779479E+03  0.22398223522E+03  0.12509000000E+03 0.  0.
         25    1    4    4    0    0  0.87507089445E+02 -0.16375768605E+02 -0.26654878006E+03  0.30760594394E+03  0.12509000000E+03 0.  0.
<mgrwt>
<rscale>  2 0.44311052E+03</rscale>
<asrwt>0</asrwt>
<pdfrwt beam="1">  1       21 0.82520777E-02 0.44311052E+03</pdfrwt>
<pdfrwt beam="2">  1       21 0.12864206E+00 0.44311052E+03</pdfrwt>
<totfact> 0.46061333E+04</totfact>
</mgrwt>
</event>
<event>
 7    0  0.4691878E-002  0.4479291E+03  0.7546771E-02  0.1028341E+00
         21   -1    0    0  502  501  0.00000000000E+00  0.00000000000E+00  0.63570898019E+02  0.63570898019E+02  0.00000000000E+00 0. -1.
         21   -1    0    0  501  502 -0.00000000000E+00 -0.00000000000E+00 -0.78904204811E+03  0.78904204811E+03  0.00000000000E+00 0. -1.
      99926    2    1    2    0    0  0.00000000000E+00  0.35527136788E-14 -0.72547115009E+03  0.85261294613E+03  0.44792906391E+03 0.  0.
      99925    2    3    3    0    0 -0.97971264632E+02 -0.17832816524E+02 -0.38869203717E+03  0.47980729027E+03  0.26309153920E+03 0.  0.
         25    1    3    3    0    0  0.97971264632E+02  0.17832816524E+02 -0.33677911293E+03  0.37280565586E+03  0.12509000000E+03 0.  0.
         25    1    4    4    0    0 -0.61941528689E+02  0.22495875590E+02 -0.23629306884E+03  0.27536292393E+03  0.12509000000E+03 0.  0.
         25    1    4    4    0    0 -0.36029735944E+02 -0.40328692114E+02 -0.15239896833E+03  0.20444436634E+03  0.12509000000E+03 0.  0.
<mgrwt>
<rscale>  2 0.44792906E+03</rscale>
<asrwt>0</asrwt>
<pdfrwt beam="1">  1       21 0.93486612E-02 0.44792906E+03</pdfrwt>
<pdfrwt beam="2">  1       21 0.11603560E+00 0.44792906E+03</pdfrwt>
<totfact> 0.47926172E+04</totfact>
</mgrwt>
</event>
<event>
 6    0  0.4691878E-002  0.4521316E+03  0.7546771E-02  0.1027088E+00
         21   -1    0    0  502  501  0.00000000000E+00  0.00000000000E+00  0.48680854315E+03  0.48680854315E+03  0.00000000000E+00 0. -1.
         21   -1    0    0  501  502 -0.00000000000E+00 -0.00000000000E+00 -0.10498120242E+03  0.10498120242E+03  0.00000000000E+00 0. -1.
      99926    2    1    2    0    0 -0.14210854715E-13  0.39968028887E-14  0.38182734073E+03  0.59178974557E+03  0.45213160123E+03 0.  0.
         25    1    3    3    0    0 -0.94800121683E+02 -0.15957274432E+01  0.20801619792E+03  0.26059135848E+03  0.12509000000E+03 0.  0.
         25    1    3    3    0    0  0.54931378933E+02 -0.37711508889E+02  0.63654773037E+02  0.15536747576E+03  0.12509000000E+03 0.  0.
         25    1    3    3    0    0  0.39868742750E+02  0.39307236332E+02  0.11015636978E+03  0.17583091133E+03  0.12509000000E+03 0.  0.
<mgrwt>
<rscale>  2 0.45213160E+03</rscale>
<asrwt>0</asrwt>
<pdfrwt beam="1">  1       21 0.71589491E-01 0.45213160E+03</pdfrwt>
<pdfrwt beam="2">  1       21 0.15438412E-01 0.45213160E+03</pdfrwt>
<totfact> 0.60547417E+04</totfact>
</mgrwt>
</event>
<event>
 7    0  0.4691878E-002  0.4489891E+03  0.7546771E-02  0.1028024E+00
         21   -1    0    0  502  501  0.00000000000E+00  0.00000000000E+00  0.15996528356E+03  0.15996528356E+03  0.00000000000E+00 0.  1.
         21   -1    0    0  501  502 -0.00000000000E+00 -0.00000000000E+00 -0.31505459180E+03  0.31505459180E+03  0.00000000000E+00 0.  1.
      99926    2    1    2    0    0  0.00000000000E+00  0.00000000000E+00 -0.15508930824E+03  0.47501987536E+03  0.44898907387E+03 0.  0.
      99925    2    3    3    0    0 -0.87349449368E+02 -0.59514017356E+02 -0.11904198828E+03  0.30733337637E+03  0.26288964356E+03 0.  0.
         25    1    4    4    0    0 -0.11959573722E+02 -0.97443666865E-01 -0.53834434948E+02  0.13670660330E+03  0.12509000000E+03 0.  0.
         25    1    3    3    0    0  0.87349449368E+02  0.59514017356E+02 -0.36047319959E+02  0.16768649899E+03  0.12509000000E+03 0.  0.
         25    1    4    4    0    0 -0.75389875646E+02 -0.59416573690E+02 -0.65207553329E+02  0.17062677308E+03  0.12509000000E+03 0.  0.
<mgrwt>
<rscale>  2 0.44898907E+03</rscale>
<asrwt>0</asrwt>
<pdfrwt beam="1">  1       21 0.23524307E-01 0.44898907E+03</pdfrwt>
<pdfrwt beam="2">  1       21 0.46331557E-01 0.44898907E+03</pdfrwt>
<totfact> 0.70361872E+04</totfact>
</mgrwt>
</event>
<event>
 7    0  0.4691878E-002  0.4506718E+03  0.7546771E-02  0.1027522E+00
         21   -1    0    0  502  501  0.00000000000E+00  0.00000000000E+00  0.48693199485E+03  0.48693199485E+03  0.00000000000E+00 0. -1.
         21   -1    0    0  501  502 -0.00000000000E+00 -0.00000000000E+00 -0.10427794455E+03  0.10427794455E+03  0.00000000000E+00 0. -1.
      99926    2    1    2    0    0  0.00000000000E+00  0.00000000000E+00  0.38265405030E+03  0.59120993941E+03  0.45067179881E+03 0.  0.
      99925    2    3    3    0    0  0.33025262376E+02 -0.83837243441E+02  0.16102406436E+03  0.32123455143E+03  0.26295158564E+03 0.  0.
         25    1    4    4    0    0  0.78507232286E+01 -0.61020022772E+02  0.42872762777E+02  0.14584463968E+03  0.12509000000E+03 0.  0.
         25    1    3    3    0    0 -0.33025262376E+02  0.83837243441E+02  0.22162998595E+03  0.26997538798E+03  0.12509000000E+03 0.  0.
         25    1    4    4    0    0  0.25174539147E+02 -0.22817220669E+02  0.11815130158E+03  0.17538991175E+03  0.12509000000E+03 0.  0.
<mgrwt>
<rscale>  2 0.45067180E+03</rscale>
<asrwt>0</asrwt>
<pdfrwt beam="1">  1       21 0.71607645E-01 0.45067180E+03</pdfrwt>
<pdfrwt beam="2">  1       21 0.15334992E-01 0.45067180E+03</pdfrwt>
<totfact> 0.61292437E+04</totfact>
</mgrwt>
</event>
<event>
 7    0  0.4691878E-002  0.4582490E+03  0.7546771E-02  0.1025290E+00
         21   -1    0    0  502  501  0.00000000000E+00  0.00000000000E+00  0.19951023315E+03  0.19951023315E+03  0.00000000000E+00 0.  1.
         21   -1    0    0  501  502 -0.00000000000E+00 -0.00000000000E+00 -0.26313458384E+03  0.26313458384E+03  0.00000000000E+00 0.  1.
      99926    2    1    2    0    0  0.00000000000E+00  0.00000000000E+00 -0.63624350695E+02  0.46264481699E+03  0.45824902475E+03 0.  0.
      99925    2    3    3    0    0 -0.73585861600E+02 -0.89824448369E+02 -0.44398669745E+02  0.29088787984E+03  0.26298518249E+03 0.  0.
         25    1    4    4    0    0 -0.29543603886E+02 -0.75696845205E+02 -0.50223259149E+02  0.15739352199E+03  0.12509000000E+03 0.  0.
         25    1    3    3    0    0  0.73585861600E+02  0.89824448369E+02 -0.19225680949E+02  0.17175693715E+03  0.12509000000E+03 0.  0.
         25    1    4    4    0    0 -0.44042257713E+02 -0.14127603164E+02  0.58245894038E+01  0.13349435785E+03  0.12509000000E+03 0.  0.
<mgrwt>
<rscale>  2 0.45824902E+03</rscale>
<asrwt>0</asrwt>
<pdfrwt beam="1">  1       21 0.29339740E-01 0.45824902E+03</pdfrwt>
<pdfrwt beam="2">  1       21 0.38696263E-01 0.45824902E+03</pdfrwt>
<totfact> 0.66254862E+04</totfact>
</mgrwt>
</event>
<event>
 7    0  0.4691878E-002  0.4574633E+03  0.7546771E-02  0.1025520E+00
         21   -1    0    0  502  501  0.00000000000E+00  0.00000000000E+00  0.75481771356E+03  0.75481771356E+03  0.00000000000E+00 0. -1.
         21   -1    0    0  501  502 -0.00000000000E+00 -0.00000000000E+00 -0.69312319499E+02  0.69312319499E+02  0.00000000000E+00 0. -1.
      99926    2    1    2    0    0  0.00000000000E+00  0.00000000000E+00  0.68550539406E+03  0.82413003306E+03  0.45746329481E+03 0.  0.
      99925    2    3    3    0    0  0.69807443796E+02  0.76354604042E+02  0.52276508469E+03  0.59427133481E+03  0.26300566692E+03 0.  0.
         25    1    4    4    0    0  0.55633035094E+02  0.43292378091E+02  0.34721100540E+03  0.37572896477E+03  0.12509000000E+03 0.  0.
         25    1    3    3    0    0 -0.69807443796E+02 -0.76354604042E+02  0.16274030937E+03  0.22985869825E+03  0.12509000000E+03 0.  0.
         25    1    4    4    0    0  0.14174408702E+02  0.33062225951E+02  0.17555407929E+03  0.21854237004E+03  0.12509000000E+03 0.  0.
<mgrwt>
<rscale>  2 0.45746329E+03</rscale>
<asrwt>0</asrwt>
<pdfrwt beam="1">  1       21 0.11100260E+00 0.45746329E+03</pdfrwt>
<pdfrwt beam="2">  1       21 0.10192989E-01 0.45746329E+03</pdfrwt>
<totfact> 0.45729431E+04</totfact>
</mgrwt>
</event>
<event>
 7    0  0.4691878E-002  0.4107257E+03  0.7546771E-02  0.1040128E+00
         21   -1    0    0  502  501  0.00000000000E+00  0.00000000000E+00  0.62547148827E+03  0.62547148827E+03  0.00000000000E+00 0. -1.
         21   -1    0    0  501  502 -0.00000000000E+00 -0.00000000000E+00 -0.67427364466E+02  0.67427364466E+02  0.00000000000E+00 0. -1.
      99926    2    1    2    0    0  0.00000000000E+00  0.00000000000E+00  0.55804412381E+03  0.69289885274E+03  0.41072567002E+03 0.  0.
      99925    2    3    3    0    0 -0.58307866552E+02 -0.22275353976E+02  0.38481055183E+03  0.47029297398E+03  0.26305954056E+03 0.  0.
         25    1    4    4    0    0 -0.32254536516E+01  0.56485704129E+01  0.23002525133E+03  0.26191875505E+03  0.12509000000E+03 0.  0.
         25    1    4    4    0    0 -0.55082412901E+02 -0.27923924389E+02  0.15478530050E+03  0.20837421893E+03  0.12509000000E+03 0.  0.
         25    1    3    3    0    0  0.58307866552E+02  0.22275353976E+02  0.17323357197E+03  0.22260587875E+03  0.12509000000E+03 0.  0.
<mgrwt>
<rscale>  2 0.41072567E+03</rscale>
<asrwt>0</asrwt>
<pdfrwt beam="1">  1       21 0.91981098E-01 0.41072567E+03</pdfrwt>
<pdfrwt beam="2">  1       21 0.99157892E-02 0.41072567E+03</pdfrwt>
<totfact> 0.76735904E+04</totfact>
</mgrwt>
</event>
<event>
 7    0  0.4691878E-002  0.4539987E+03  0.7546771E-02  0.1026536E+00
         21   -1    0    0  502  501  0.00000000000E+00  0.00000000000E+00  0.33440222182E+03  0.33440222182E+03  0.00000000000E+00 0.  1.
         21   -1    0    0  501  502 -0.00000000000E+00 -0.00000000000E+00 -0.15409199777E+03  0.15409199777E+03  0.00000000000E+00 0.  1.
      99926    2    1    2    0    0  0.00000000000E+00  0.14210854715E-13  0.18031022405E+03  0.48849421959E+03  0.45399870669E+03 0.  0.
      99925    2    3    3    0    0  0.72310057779E+02  0.76515308859E+02  0.15545989549E+03  0.32312075172E+03  0.26297510175E+03 0.  0.
         25    1    3    3    0    0 -0.72310057779E+02 -0.76515308859E+02  0.24850328561E+02  0.16537346787E+03  0.12509000000E+03 0.  0.
         25    1    4    4    0    0  0.32021325797E+02  0.54493024276E+02  0.12180796829E+03  0.18568668299E+03  0.12509000000E+03 0.  0.
         25    1    4    4    0    0  0.40288731981E+02  0.22022284583E+02  0.33651927201E+02  0.13743406873E+03  0.12509000000E+03 0.  0.
<mgrwt>
<rscale>  2 0.45399871E+03</rscale>
<asrwt>0</asrwt>
<pdfrwt beam="1">  1       21 0.49176798E-01 0.45399871E+03</pdfrwt>
<pdfrwt beam="2">  1       21 0.22660588E-01 0.45399871E+03</pdfrwt>
<totfact> 0.66614731E+04</totfact>
</mgrwt>
</event>
<event>
 7    0  0.4691878E-002  0.4518817E+03  0.7546771E-02  0.1027162E+00
         21   -1    0    0  502  501  0.00000000000E+00  0.00000000000E+00  0.39072650289E+03  0.39072650289E+03  0.00000000000E+00 0. -1.
         21   -1    0    0  501  502 -0.00000000000E+00 -0.00000000000E+00 -0.13065219759E+03  0.13065219759E+03  0.00000000000E+00 0. -1.
      99926    2    1    2    0    0 -0.14210854715E-13  0.00000000000E+00  0.26007430530E+03  0.52137870048E+03  0.45188173789E+03 0.  0.
      99925    2    3    3    0    0 -0.76940020899E+02  0.64439117013E+02  0.11154644716E+03  0.30279187709E+03  0.26299837326E+03 0.  0.
         25    1    4    4    0    0 -0.95293112541E+01  0.11866893836E+01  0.40866073755E+02  0.13194604992E+03  0.12509000000E+03 0.  0.
         25    1    4    4    0    0 -0.67410709645E+02  0.63252427629E+02  0.70680373407E+02  0.17084582717E+03  0.12509000000E+03 0.  0.
         25    1    3    3    0    0  0.76940020899E+02 -0.64439117013E+02  0.14852785814E+03  0.21858682339E+03  0.12509000000E+03 0.  0.
<mgrwt>
<rscale>  2 0.45188174E+03</rscale>
<asrwt>0</asrwt>
<pdfrwt beam="1">  1       21 0.57459779E-01 0.45188174E+03</pdfrwt>
<pdfrwt beam="2">  1       21 0.19213559E-01 0.45188174E+03</pdfrwt>
<totfact> 0.65395595E+04</totfact>
</mgrwt>
</event>
<event>
 7    0  0.4691878E-002  0.4523618E+03  0.7546771E-02  0.1027020E+00
         21   -1    0    0  502  501  0.00000000000E+00  0.00000000000E+00  0.45559977015E+03  0.45559977015E+03  0.00000000000E+00 0. -1.
         21   -1    0    0  501  502 -0.00000000000E+00 -0.00000000000E+00 -0.11228668999E+03  0.11228668999E+03  0.00000000000E+00 0. -1.
      99926    2    1    2    0    0  0.00000000000E+00  0.00000000000E+00  0.34331308016E+03  0.56788646014E+03  0.45236175856E+03 0.  0.
      99925    2    3    3    0    0  0.67888037091E+02 -0.67227112662E+02  0.14648027174E+03  0.31585683326E+03  0.26302243032E+03 0.  0.
         25    1    4    4    0    0  0.53445325932E+02 -0.70894995376E+02  0.71316798294E+02  0.16916293049E+03  0.12509000000E+03 0.  0.
         25    1    3    3    0    0 -0.67888037091E+02  0.67227112662E+02  0.19683280842E+03  0.25202962688E+03  0.12509000000E+03 0.  0.
         25    1    4    4    0    0  0.14442711159E+02  0.36678827148E+01  0.75163473446E+02  0.14669390277E+03  0.12509000000E+03 0.  0.
<mgrwt>
<rscale>  2 0.45236176E+03</rscale>
<asrwt>0</asrwt>
<pdfrwt beam="1">  1       21 0.66999965E-01 0.45236176E+03</pdfrwt>
<pdfrwt beam="2">  1       21 0.16512749E-01 0.45236176E+03</pdfrwt>
<totfact> 0.61982915E+04</totfact>
</mgrwt>
</event>
<event>
 7    0  0.4691878E-002  0.4486626E+03  0.7546771E-02  0.1028122E+00
         21   -1    0    0  502  501  0.00000000000E+00  0.00000000000E+00  0.36040623469E+02  0.36040623469E+02  0.00000000000E+00 0. -1.
         21   -1    0    0  501  502 -0.00000000000E+00 -0.00000000000E+00 -0.13963281391E+04  0.13963281391E+04  0.00000000000E+00 0. -1.
      99926    2    1    2    0    0  0.00000000000E+00  0.00000000000E+00 -0.13602875156E+04  0.14323687625E+04  0.44866262023E+03 0.  0.
      99925    2    3    3    0    0  0.29501944342E+02  0.10158516242E+03 -0.80819654987E+03  0.85648522181E+03  0.26305011311E+03 0.  0.
         25    1    4    4    0    0  0.37456145775E+02  0.59890937725E+02 -0.32063661778E+03  0.35134774233E+03  0.12509000000E+03 0.  0.
         25    1    3    3    0    0 -0.29501944342E+02 -0.10158516242E+03 -0.55209096572E+03  0.57588354073E+03  0.12509000000E+03 0.  0.
         25    1    4    4    0    0 -0.79542014322E+01  0.41694224696E+02 -0.48755993209E+03  0.50513747948E+03  0.12509000000E+03 0.  0.
<mgrwt>
<rscale>  2 0.44866262E+03</rscale>
<asrwt>0</asrwt>
<pdfrwt beam="1">  1       21 0.53000928E-02 0.44866262E+03</pdfrwt>
<pdfrwt beam="2">  1       21 0.20534233E+00 0.44866262E+03</pdfrwt>
<totfact> 0.26776559E+04</totfact>
</mgrwt>
</event>
<event>
 7    0  0.4691878E-002  0.4243504E+03  0.7546771E-02  0.1035660E+00
         21   -1    0    0  502  501  0.00000000000E+00  0.00000000000E+00  0.13696012536E+03  0.13696012536E+03  0.00000000000E+00 0.  1.
         21   -1    0    0  501  502 -0.00000000000E+00 -0.00000000000E+00 -0.32869647653E+03  0.32869647653E+03  0.00000000000E+00 0.  1.
      99926    2    1    2    0    0  0.14210854715E-13 -0.88817841970E-15 -0.19173635117E+03  0.46565660189E+03  0.42435037707E+03 0.  0.
      99925    2    3    3    0    0  0.81007534999E+02 -0.54532140950E+01 -0.12284957906E+03  0.30138592970E+03  0.26296292756E+03 0.  0.
         25    1    4    4    0    0  0.25280799517E+02  0.31149748375E+02 -0.40570629636E+02  0.13748785305E+03  0.12509000000E+03 0.  0.
         25    1    3    3    0    0 -0.81007534999E+02  0.54532140950E+01 -0.68886772110E+02  0.16427067219E+03  0.12509000000E+03 0.  0.
         25    1    4    4    0    0  0.55726735481E+02 -0.36602962470E+02 -0.82278949424E+02  0.16389807664E+03  0.12509000000E+03 0.  0.
<mgrwt>
<rscale>  2 0.42435038E+03</rscale>
<asrwt>0</asrwt>
<pdfrwt beam="1">  1       21 0.20141195E-01 0.42435038E+03</pdfrwt>
<pdfrwt beam="2">  1       21 0.48337717E-01 0.42435038E+03</pdfrwt>
<totfact> 0.87097214E+04</totfact>
</mgrwt>
</event>
<event>
 7    0  0.4691878E-002  0.4468319E+03  0.7546771E-02  0.1028671E+00
         21   -1    0    0  502  501  0.00000000000E+00  0.00000000000E+00  0.25472320687E+03  0.25472320687E+03  0.00000000000E+00 0.  1.
         21   -1    0    0  501  502 -0.00000000000E+00 -0.00000000000E+00 -0.19595656202E+03  0.19595656202E+03  0.00000000000E+00 0.  1.
      99926    2    1    2    0    0  0.71054273576E-14  0.00000000000E+00  0.58766644850E+02  0.45067976889E+03  0.44683188734E+03 0.  0.
      99925    2    3    3    0    0  0.54413991008E+02  0.19835969011E+02 -0.51495277362E+02  0.27415909680E+03  0.26297737295E+03 0.  0.
         25    1    4    4    0    0  0.39132169360E+02 -0.90066131806E+01 -0.60354485196E+02  0.14457737632E+03  0.12509000000E+03 0.  0.
         25    1    3    3    0    0 -0.54413991008E+02 -0.19835969011E+02  0.11026192221E+03  0.17652067209E+03  0.12509000000E+03 0.  0.
         25    1    4    4    0    0  0.15281821648E+02  0.28842582191E+02  0.88592078342E+01  0.12958172048E+03  0.12509000000E+03 0.  0.
<mgrwt>
<rscale>  2 0.44683189E+03</rscale>
<asrwt>0</asrwt>
<pdfrwt beam="1">  1       21 0.37459295E-01 0.44683189E+03</pdfrwt>
<pdfrwt beam="2">  1       21 0.28817141E-01 0.44683189E+03</pdfrwt>
<totfact> 0.73540056E+04</totfact>
</mgrwt>
</event>
<event>
 7    0  0.4691878E-002  0.4502808E+03  0.7546771E-02  0.1027638E+00
         21   -1    0    0  502  501  0.00000000000E+00  0.00000000000E+00  0.56285276655E+03  0.56285276655E+03  0.00000000000E+00 0.  1.
         21   -1    0    0  501  502 -0.00000000000E+00 -0.00000000000E+00 -0.90055895367E+02  0.90055895367E+02  0.00000000000E+00 0.  1.
      99926    2    1    2    0    0  0.35527136788E-14  0.00000000000E+00  0.47279687119E+03  0.65290866192E+03  0.45028084504E+03 0.  0.
      99925    2    3    3    0    0  0.30867024327E+02 -0.57567258299E+02  0.42467690717E+03  0.50381204407E+03  0.26307667674E+03 0.  0.
         25    1    3    3    0    0 -0.30867024327E+02  0.57567258299E+02  0.48119964017E+02  0.14909661786E+03  0.12509000000E+03 0.  0.
         25    1    4    4    0    0 -0.19332706999E+02 -0.48274136509E+02  0.19748830604E+03  0.23948545872E+03  0.12509000000E+03 0.  0.
         25    1    4    4    0    0  0.50199731325E+02 -0.92931217897E+01  0.22718860113E+03  0.26432658535E+03  0.12509000000E+03 0.  0.
<mgrwt>
<rscale>  2 0.45028085E+03</rscale>
<asrwt>0</asrwt>
<pdfrwt beam="1">  1       21 0.82772464E-01 0.45028085E+03</pdfrwt>
<pdfrwt beam="2">  1       21 0.13243514E-01 0.45028085E+03</pdfrwt>
<totfact> 0.57650436E+04</totfact>
</mgrwt>
</event>
<event>
 7    0  0.4691878E-002  0.4569272E+03  0.7546771E-02  0.1025676E+00
         21   -1    0    0  502  501  0.00000000000E+00  0.00000000000E+00  0.61605090196E+03  0.61605090196E+03  0.00000000000E+00 0. -1.
         21   -1    0    0  501  502 -0.00000000000E+00 -0.00000000000E+00 -0.84726149414E+02  0.84726149414E+02  0.00000000000E+00 0. -1.
      99926    2    1    2    0    0 -0.71054273576E-14 -0.71054273576E-14  0.53132475255E+03  0.70077705137E+03  0.45692721856E+03 0.  0.
      99925    2    3    3    0    0  0.33264987781E+02  0.28184131618E+02  0.49691608977E+03  0.56391080695E+03  0.26299979704E+03 0.  0.
         25    1    4    4    0    0 -0.48922367540E+01 -0.20011020246E+02  0.22062720154E+03  0.25445676464E+03  0.12509000000E+03 0.  0.
         25    1    4    4    0    0  0.38157224535E+02  0.48195151864E+02  0.27628888823E+03  0.30945404231E+03  0.12509000000E+03 0.  0.
         25    1    3    3    0    0 -0.33264987781E+02 -0.28184131618E+02  0.34408662780E+02  0.13686624442E+03  0.12509000000E+03 0.  0.
<mgrwt>
<rscale>  2 0.45692722E+03</rscale>
<asrwt>0</asrwt>
<pdfrwt beam="1">  1       21 0.90595719E-01 0.45692722E+03</pdfrwt>
<pdfrwt beam="2">  1       21 0.12459728E-01 0.45692722E+03</pdfrwt>
<totfact> 0.52066609E+04</totfact>
</mgrwt>
</event>
<event>
 7    0  0.4691878E-002  0.4582360E+03  0.7546771E-02  0.1025294E+00
         21   -1    0    0  502  501  0.00000000000E+00  0.00000000000E+00  0.31660608579E+03  0.31660608579E+03  0.00000000000E+00 0.  1.
         21   -1    0    0  501  502 -0.00000000000E+00 -0.00000000000E+00 -0.16580556114E+03  0.16580556114E+03  0.00000000000E+00 0.  1.
      99926    2    1    2    0    0  0.00000000000E+00  0.00000000000E+00  0.15080052465E+03  0.48241164693E+03  0.45823596417E+03 0.  0.
      99925    2    3    3    0    0  0.10225756572E+03 -0.47598249849E+02  0.65606163516E+02  0.29365839423E+03  0.26307580785E+03 0.  0.
         25    1    3    3    0    0 -0.10225756572E+03  0.47598249849E+02  0.85194361135E+02  0.18875325270E+03  0.12509000000E+03 0.  0.
         25    1    4    4    0    0  0.92895879794E+02 -0.24542269368E+02  0.24286373042E+02  0.15959105076E+03  0.12509000000E+03 0.  0.
         25    1    4    4    0    0  0.93616859289E+01 -0.23055980481E+02  0.41319790475E+02  0.13406734347E+03  0.12509000000E+03 0.  0.
<mgrwt>
<rscale>  2 0.45823596E+03</rscale>
<asrwt>0</asrwt>
<pdfrwt beam="1">  1       21 0.46559719E-01 0.45823596E+03</pdfrwt>
<pdfrwt beam="2">  1       21 0.24383171E-01 0.45823596E+03</pdfrwt>
<totfact> 0.64843344E+04</totfact>
</mgrwt>
</event>
<event>
 7    0  0.4691878E-002  0.4532166E+03  0.7546771E-02  0.1026767E+00
         21   -1    0    0  502  501  0.00000000000E+00  0.00000000000E+00  0.89533621872E+02  0.89533621872E+02  0.00000000000E+00 0. -1.
         21   -1    0    0  501  502 -0.00000000000E+00 -0.00000000000E+00 -0.57354236054E+03  0.57354236054E+03  0.00000000000E+00 0. -1.
      99926    2    1    2    0    0  0.71054273576E-14 -0.14210854715E-13 -0.48400873867E+03  0.66307598241E+03  0.45321661415E+03 0.  0.
      99925    2    3    3    0    0 -0.41566126646E+02  0.96679368583E+02 -0.35903763868E+03  0.45730930113E+03  0.26296221728E+03 0.  0.
         25    1    4    4    0    0 -0.39557313350E+01  0.52760256269E+02 -0.23736016219E+03  0.27347147410E+03  0.12509000000E+03 0.  0.
         25    1    4    4    0    0 -0.37610395311E+02  0.43919112314E+02 -0.12167747649E+03  0.18383782703E+03  0.12509000000E+03 0.  0.
         25    1    3    3    0    0  0.41566126646E+02 -0.96679368583E+02 -0.12497109999E+03  0.20576668128E+03  0.12509000000E+03 0.  0.
<mgrwt>
<rscale>  2 0.45321661E+03</rscale>
<asrwt>0</asrwt>
<pdfrwt beam="1">  1       21 0.13166709E-01 0.45321661E+03</pdfrwt>
<pdfrwt beam="2">  1       21 0.84344465E-01 0.45321661E+03</pdfrwt>
<totfact> 0.55733205E+04</totfact>
</mgrwt>
</event>
<event>
 7    0  0.4691878E-002  0.4303244E+03  0.7546771E-02  0.1033758E+00
         21   -1    0    0  502  501  0.00000000000E+00  0.00000000000E+00  0.31312678591E+03  0.31312678591E+03  0.00000000000E+00 0.  1.
         21   -1    0    0  501  502 -0.00000000000E+00 -0.00000000000E+00 -0.14784671190E+03  0.14784671190E+03  0.00000000000E+00 0.  1.
      99926    2    1    2    0    0  0.00000000000E+00  0.00000000000E+00  0.16528007402E+03  0.46097349781E+03  0.43032436930E+03 0.  0.
      99925    2    3    3    0    0  0.79556228780E+02 -0.27023196910E+02  0.78410871100E+02  0.28703898938E+03  0.26302788827E+03 0.  0.
         25    1    4    4    0    0  0.99146717345E+00 -0.22638762148E+02  0.49696058953E+02  0.13649433297E+03  0.12509000000E+03 0.  0.
         25    1    4    4    0    0  0.78564761607E+02 -0.43844347622E+01  0.28714812148E+02  0.15054465640E+03  0.12509000000E+03 0.  0.
         25    1    3    3    0    0 -0.79556228780E+02  0.27023196910E+02  0.86869202918E+02  0.17393450844E+03  0.12509000000E+03 0.  0.
<mgrwt>
<rscale>  2 0.43032437E+03</rscale>
<asrwt>0</asrwt>
<pdfrwt beam="1">  1       21 0.46048057E-01 0.43032437E+03</pdfrwt>
<pdfrwt beam="2">  1       21 0.21742163E-01 0.43032437E+03</pdfrwt>
<totfact> 0.83261229E+04</totfact>
</mgrwt>
</event>
<event>
 7    0  0.4691878E-002  0.4180985E+03  0.7546771E-02  0.1037687E+00
         21   -1    0    0  502  501  0.00000000000E+00  0.00000000000E+00  0.77376604366E+02  0.77376604366E+02  0.00000000000E+00 0.  1.
         21   -1    0    0  501  502 -0.00000000000E+00 -0.00000000000E+00 -0.56479059698E+03  0.56479059698E+03  0.00000000000E+00 0.  1.
      99926    2    1    2    0    0  0.71054273576E-14  0.00000000000E+00 -0.48741399262E+03  0.64216720135E+03  0.41809845047E+03 0.  0.
      99925    2    3    3    0    0 -0.42172618479E+02 -0.56408872638E+02 -0.34945849605E+03  0.44306994422E+03  0.26311450806E+03 0.  0.
         25    1    3    3    0    0  0.42172618479E+02  0.56408872638E+02 -0.13795549657E+03  0.19909725713E+03  0.12509000000E+03 0.  0.
         25    1    4    4    0    0 -0.28872276914E+02  0.58470752895E+00 -0.12281916896E+03  0.17766824877E+03  0.12509000000E+03 0.  0.
         25    1    4    4    0    0 -0.13300341565E+02 -0.56993580167E+02 -0.22663932709E+03  0.26540169545E+03  0.12509000000E+03 0.  0.
<mgrwt>
<rscale>  2 0.41809845E+03</rscale>
<asrwt>0</asrwt>
<pdfrwt beam="1">  1       21 0.11378912E-01 0.41809845E+03</pdfrwt>
<pdfrwt beam="2">  1       21 0.83057441E-01 0.41809845E+03</pdfrwt>
<totfact> 0.75960845E+04</totfact>
</mgrwt>
</event>
<event>
 7    0  0.4691878E-002  0.4737122E+03  0.7546771E-02  0.1020878E+00
         21   -1    0    0  502  501  0.00000000000E+00  0.00000000000E+00  0.10852274102E+03  0.10852274102E+03  0.00000000000E+00 0. -1.
         21   -1    0    0  501  502 -0.00000000000E+00 -0.00000000000E+00 -0.51694983161E+03  0.51694983161E+03  0.00000000000E+00 0. -1.
      99926    2    1    2    0    0 -0.14210854715E-13  0.00000000000E+00 -0.40842709060E+03  0.62547257263E+03  0.47371220248E+03 0.  0.
      99925    2    3    3    0    0 -0.99703152516E+02  0.69133957173E+02 -0.19142507864E+03  0.34716051046E+03  0.26297649445E+03 0.  0.
         25    1    4    4    0    0 -0.77550645769E+02  0.11757227981E+02 -0.12150065489E+03  0.19121258407E+03  0.12509000000E+03 0.  0.
         25    1    4    4    0    0 -0.22152506746E+02  0.57376729192E+02 -0.69924423745E+02  0.15594792639E+03  0.12509000000E+03 0.  0.
         25    1    3    3    0    0  0.99703152516E+02 -0.69133957173E+02 -0.21700201196E+03  0.27831206217E+03  0.12509000000E+03 0.  0.
<mgrwt>
<rscale>  2 0.47371220E+03</rscale>
<asrwt>0</asrwt>
<pdfrwt beam="1">  1       21 0.15959227E-01 0.47371220E+03</pdfrwt>
<pdfrwt beam="2">  1       21 0.76022033E-01 0.47371220E+03</pdfrwt>
<totfact> 0.49420134E+04</totfact>
</mgrwt>
</event>
<event>
 7    0  0.4691878E-002  0.4505910E+03  0.7546771E-02  0.1027546E+00
         21   -1    0    0  502  501  0.00000000000E+00  0.00000000000E+00  0.67890444308E+02  0.67890444308E+02  0.00000000000E+00 0.  1.
         21   -1    0    0  501  502 -0.00000000000E+00 -0.00000000000E+00 -0.74764678165E+03  0.74764678165E+03  0.00000000000E+00 0.  1.
      99926    2    1    2    0    0  0.16375789613E-14  0.00000000000E+00 -0.67975633734E+03  0.81553722596E+03  0.45059104382E+03 0.  0.
      99925    2    3    3    0    0 -0.20846231115E+00  0.10836141669E+03 -0.45177841157E+03  0.53382161967E+03  0.26290596872E+03 0.  0.
         25    1    4    4    0    0 -0.32045297183E+02  0.50547910192E+02 -0.26974106562E+03  0.30329810892E+03  0.12509000000E+03 0.  0.
         25    1    3    3    0    0  0.20846231115E+00 -0.10836141669E+03 -0.22797792577E+03  0.28171560628E+03  0.12509000000E+03 0.  0.
         25    1    4    4    0    0  0.31836834872E+02  0.57813506497E+02 -0.18203734595E+03  0.23052351075E+03  0.12509000000E+03 0.  0.
<mgrwt>
<rscale>  2 0.45059104E+03</rscale>
<asrwt>0</asrwt>
<pdfrwt beam="1">  1       21 0.99838890E-02 0.45059104E+03</pdfrwt>
<pdfrwt beam="2">  1       21 0.10994806E+00 0.45059104E+03</pdfrwt>
<totfact> 0.48685080E+04</totfact>
</mgrwt>
</event>
<event>
 7    0  0.4691878E-002  0.4534821E+03  0.7546771E-02  0.1026689E+00
         21   -1    0    0  502  501  0.00000000000E+00  0.00000000000E+00  0.24961871800E+03  0.24961871800E+03  0.00000000000E+00 0. -1.
         21   -1    0    0  501  502 -0.00000000000E+00 -0.00000000000E+00 -0.20596009941E+03  0.20596009941E+03  0.00000000000E+00 0. -1.
      99926    2    1    2    0    0  0.00000000000E+00  0.13322676296E-14  0.43658618589E+02  0.45557881741E+03  0.45348206568E+03 0.  0.
      99925    2    3    3    0    0 -0.11105802258E+03 -0.28938937922E+01  0.15542092343E+02  0.28593122341E+03  0.26300731717E+03 0.  0.
         25    1    3    3    0    0  0.11105802258E+03  0.28938937922E+01  0.28116526246E+02  0.16964759400E+03  0.12509000000E+03 0.  0.
         25    1    4    4    0    0 -0.29475731521E+02  0.76721336502E+01  0.38699061282E+02  0.13443513613E+03  0.12509000000E+03 0.  0.
         25    1    4    4    0    0 -0.81582291058E+02 -0.10566027442E+02 -0.23156968939E+02  0.15149608728E+03  0.12509000000E+03 0.  0.
<mgrwt>
<rscale>  2 0.45348207E+03</rscale>
<asrwt>0</asrwt>
<pdfrwt beam="1">  1       21 0.36708635E-01 0.45348207E+03</pdfrwt>
<pdfrwt beam="2">  1       21 0.30288250E-01 0.45348207E+03</pdfrwt>
<totfact> 0.69339382E+04</totfact>
</mgrwt>
</event>
<event>
 7    0  0.4691878E-002  0.4478405E+03  0.7546771E-02  0.1028368E+00
         21   -1    0    0  502  501  0.00000000000E+00  0.00000000000E+00  0.29833789848E+03  0.29833789848E+03  0.00000000000E+00 0.  1.
         21   -1    0    0  501  502 -0.00000000000E+00 -0.00000000000E+00 -0.16806538681E+03  0.16806538681E+03  0.00000000000E+00 0.  1.
      99926    2    1    2    0    0  0.00000000000E+00  0.00000000000E+00  0.13027251167E+03  0.46640328529E+03  0.44784048190E+03 0.  0.
      99925    2    3    3    0    0 -0.32889407968E+02  0.86339369387E+02  0.28308311793E+02  0.28044520932E+03  0.26327163738E+03 0.  0.
         25    1    4    4    0    0 -0.23414253696E+02  0.78260646328E+02 -0.79521341613E+01  0.14961183301E+03  0.12509000000E+03 0.  0.
         25    1    4    4    0    0 -0.94751542718E+01  0.80787230590E+01  0.36260445955E+02  0.13083337631E+03  0.12509000000E+03 0.  0.
         25    1    3    3    0    0  0.32889407968E+02 -0.86339369387E+02  0.10196419987E+03  0.18595807597E+03  0.12509000000E+03 0.  0.
<mgrwt>
<rscale>  2 0.44784048E+03</rscale>
<asrwt>0</asrwt>
<pdfrwt beam="1">  1       21 0.43873220E-01 0.44784048E+03</pdfrwt>
<pdfrwt beam="2">  1       21 0.24715498E-01 0.44784048E+03</pdfrwt>
<totfact> 0.71690526E+04</totfact>
</mgrwt>
</event>
<event>
 7    0  0.4691878E-002  0.4461155E+03  0.7546771E-02  0.1028887E+00
         21   -1    0    0  502  501  0.00000000000E+00  0.00000000000E+00  0.15240082423E+03  0.15240082423E+03  0.00000000000E+00 0. -1.
         21   -1    0    0  501  502 -0.00000000000E+00 -0.00000000000E+00 -0.32647308582E+03  0.32647308582E+03  0.00000000000E+00 0. -1.
      99926    2    1    2    0    0  0.00000000000E+00  0.00000000000E+00 -0.17407226159E+03  0.47887391006E+03  0.44611553378E+03 0.  0.
      99925    2    3    3    0    0  0.51859584077E+02 -0.19146438203E+02 -0.15075913694E+02  0.26915183373E+03  0.26298179380E+03 0.  0.
         25    1    4    4    0    0  0.33151201374E+02  0.30730753918E+01  0.30316004375E+02  0.13294741128E+03  0.12509000000E+03 0.  0.
         25    1    4    4    0    0  0.18708382703E+02 -0.22219513595E+02 -0.45391918069E+02  0.13620442245E+03  0.12509000000E+03 0.  0.
         25    1    3    3    0    0 -0.51859584077E+02  0.19146438203E+02 -0.15899634789E+03  0.20972207633E+03  0.12509000000E+03 0.  0.
<mgrwt>
<rscale>  2 0.44611553E+03</rscale>
<asrwt>0</asrwt>
<pdfrwt beam="1">  1       21 0.22411886E-01 0.44611553E+03</pdfrwt>
<pdfrwt beam="2">  1       21 0.48010748E-01 0.44611553E+03</pdfrwt>
<totfact> 0.71707557E+04</totfact>
</mgrwt>
</event>
<event>
 7    0  0.4691878E-002  0.4560006E+03  0.7546771E-02  0.1025948E+00
         21   -1    0    0  502  501  0.00000000000E+00  0.00000000000E+00  0.99719002553E+03  0.99719002553E+03  0.00000000000E+00 0.  1.
         21   -1    0    0  501  502 -0.00000000000E+00 -0.00000000000E+00 -0.52130616133E+02  0.52130616133E+02  0.00000000000E+00 0.  1.
      99926    2    1    2    0    0  0.00000000000E+00 -0.17763568394E-14  0.94505940940E+03  0.10493206417E+04  0.45600057207E+03 0.  0.
      99925    2    3    3    0    0 -0.76337717206E+02 -0.97376303441E+01  0.78803171726E+03  0.83431489125E+03  0.26299255092E+03 0.  0.
         25    1    3    3    0    0  0.76337717206E+02  0.97376303441E+01  0.15702769214E+03  0.21500575042E+03  0.12509000000E+03 0.  0.
         25    1    4    4    0    0 -0.67922840795E+02  0.21961209063E+02  0.38584057025E+03  0.41184494747E+03  0.12509000000E+03 0.  0.
         25    1    4    4    0    0 -0.84148764108E+01 -0.31698839407E+02  0.40219114701E+03  0.42246994378E+03  0.12509000000E+03 0.  0.
<mgrwt>
<rscale>  2 0.45600057E+03</rscale>
<asrwt>0</asrwt>
<pdfrwt beam="1">  1       21 0.14664558E+00 0.45600057E+03</pdfrwt>
<pdfrwt beam="2">  1       21 0.76662677E-02 0.45600057E+03</pdfrwt>
<totfact> 0.37012421E+04</totfact>
</mgrwt>
</event>
<event>
 7    0  0.4691878E-002  0.4572099E+03  0.7546771E-02  0.1025594E+00
         21   -1    0    0  502  501  0.00000000000E+00  0.00000000000E+00  0.54706578654E+03  0.54706578654E+03  0.00000000000E+00 0. -1.
         21   -1    0    0  501  502 -0.00000000000E+00 -0.00000000000E+00 -0.95528237708E+02  0.95528237708E+02  0.00000000000E+00 0. -1.
      99926    2    1    2    0    0  0.00000000000E+00  0.00000000000E+00  0.45153754883E+03  0.64259402425E+03  0.45720993208E+03 0.  0.
      99925    2    3    3    0    0  0.27543657404E+02 -0.10831822032E+03  0.32373329264E+03  0.43170797465E+03  0.26282511427E+03 0.  0.
         25    1    4    4    0    0  0.30238951449E+02 -0.18280888395E+02  0.17003246795E+03  0.21402601085E+03  0.12509000000E+03 0.  0.
         25    1    3    3    0    0 -0.27543657404E+02  0.10831822032E+03  0.12780425619E+03  0.21088604960E+03  0.12509000000E+03 0.  0.
         25    1    4    4    0    0 -0.26952940453E+01 -0.90037331923E+02  0.15370082469E+03  0.21768196379E+03  0.12509000000E+03 0.  0.
<mgrwt>
<rscale>  2 0.45720993E+03</rscale>
<asrwt>0</asrwt>
<pdfrwt beam="1">  1       21 0.80450849E-01 0.45720993E+03</pdfrwt>
<pdfrwt beam="2">  1       21 0.14048271E-01 0.45720993E+03</pdfrwt>
<totfact> 0.55161916E+04</totfact>
</mgrwt>
</event>
<event>
 7    0  0.4691878E-002  0.4554316E+03  0.7546771E-02  0.1026115E+00
         21   -1    0    0  502  501  0.00000000000E+00  0.00000000000E+00  0.61117771681E+03  0.61117771681E+03  0.00000000000E+00 0. -1.
         21   -1    0    0  501  502 -0.00000000000E+00 -0.00000000000E+00 -0.84843540479E+02  0.84843540479E+02  0.00000000000E+00 0. -1.
      99926    2    1    2    0    0 -0.14210854715E-13  0.35527136788E-14  0.52633417633E+03  0.69602125729E+03  0.45543158150E+03 0.  0.
      99925    2    3    3    0    0  0.11074938709E+03 -0.19044783432E+02  0.35600699815E+03  0.45667425764E+03  0.26302521616E+03 0.  0.
         25    1    4    4    0    0  0.19378663630E+02  0.12519009907E+02  0.17509919605E+03  0.21642433959E+03  0.12509000000E+03 0.  0.
         25    1    4    4    0    0  0.91370723459E+02 -0.31563793340E+02  0.18090780211E+03  0.24024991804E+03  0.12509000000E+03 0.  0.
         25    1    3    3    0    0 -0.11074938709E+03  0.19044783432E+02  0.17032717817E+03  0.23934699965E+03  0.12509000000E+03 0.  0.
<mgrwt>
<rscale>  2 0.45543158E+03</rscale>
<asrwt>0</asrwt>
<pdfrwt beam="1">  1       21 0.89879074E-01 0.45543158E+03</pdfrwt>
<pdfrwt beam="2">  1       21 0.12476992E-01 0.45543158E+03</pdfrwt>
<totfact> 0.52939476E+04</totfact>
</mgrwt>
</event>
<event>
 7    0  0.4691878E-002  0.4164157E+03  0.7546771E-02  0.1038239E+00
         21   -1    0    0  502  501  0.00000000000E+00  0.00000000000E+00  0.44420656232E+02  0.44420656232E+02  0.00000000000E+00 0. -1.
         21   -1    0    0  501  502 -0.00000000000E+00 -0.00000000000E+00 -0.97590859939E+03  0.97590859939E+03  0.00000000000E+00 0. -1.
      99926    2    1    2    0    0  0.00000000000E+00 -0.22204460493E-14 -0.93148794316E+03  0.10203292556E+04  0.41641565968E+03 0.  0.
      99925    2    3    3    0    0  0.22859594186E+02 -0.38343362945E+01 -0.77420786507E+03  0.81803789583E+03  0.26315569062E+03 0.  0.
         25    1    3    3    0    0 -0.22859594186E+02  0.38343362945E+01 -0.15728007809E+03  0.20229135979E+03  0.12509000000E+03 0.  0.
         25    1    4    4    0    0 -0.14858040035E+02 -0.26415409467E+02 -0.44165924387E+03  0.46003144567E+03  0.12509000000E+03 0.  0.
         25    1    4    4    0    0  0.37717634221E+02  0.22581073172E+02 -0.33254862120E+03  0.35800645016E+03  0.12509000000E+03 0.  0.
<mgrwt>
<rscale>  2 0.41641566E+03</rscale>
<asrwt>0</asrwt>
<pdfrwt beam="1">  1       21 0.65324496E-02 0.41641566E+03</pdfrwt>
<pdfrwt beam="2">  1       21 0.14351597E+00 0.41641566E+03</pdfrwt>
<totfact> 0.52508526E+04</totfact>
</mgrwt>
</event>
<event>
 7    0  0.4691878E-002  0.4667224E+03  0.7546771E-02  0.1022849E+00
         21   -1    0    0  502  501  0.00000000000E+00  0.00000000000E+00  0.10913940486E+04  0.10913940486E+04  0.00000000000E+00 0. -1.
         21   -1    0    0  501  502 -0.00000000000E+00 -0.00000000000E+00 -0.49897152962E+02  0.49897152962E+02  0.00000000000E+00 0. -1.
      99926    2    1    2    0    0  0.14210854715E-13  0.00000000000E+00  0.10414968957E+04  0.11412912016E+04  0.46672242623E+03 0.  0.
      99925    2    3    3    0    0  0.10228197878E+03 -0.61959723018E+02  0.58076409891E+03  0.64912981691E+03  0.26416277210E+03 0.  0.
         25    1    4    4    0    0  0.81348179089E+02 -0.28853312407E+01  0.27539727527E+03  0.31323636236E+03  0.12509000000E+03 0.  0.
         25    1    4    4    0    0  0.20933799692E+02 -0.59074391777E+02  0.30536682364E+03  0.33589345456E+03  0.12509000000E+03 0.  0.
         25    1    3    3    0    0 -0.10228197878E+03  0.61959723018E+02  0.46073279675E+03  0.49216138467E+03  0.12509000000E+03 0.  0.
<mgrwt>
<rscale>  2 0.46672243E+03</rscale>
<asrwt>0</asrwt>
<pdfrwt beam="1">  1       21 0.16049911E+00 0.46672243E+03</pdfrwt>
<pdfrwt beam="2">  1       21 0.73378173E-02 0.46672243E+03</pdfrwt>
<totfact> 0.31131261E+04</totfact>
</mgrwt>
</event>
<event>
 7    0  0.4691878E-002  0.4526014E+03  0.7546771E-02  0.1026949E+00
         21   -1    0    0  502  501  0.00000000000E+00  0.00000000000E+00  0.12393322238E+04  0.12393322238E+04  0.00000000000E+00 0.  1.
         21   -1    0    0  501  502 -0.00000000000E+00 -0.00000000000E+00 -0.41322254572E+02  0.41322254572E+02  0.00000000000E+00 0.  1.
      99926    2    1    2    0    0  0.00000000000E+00  0.00000000000E+00  0.11980099692E+04  0.12806544784E+04  0.45260137716E+03 0.  0.
      99925    2    3    3    0    0  0.99350755847E+02  0.17855367879E+02  0.62559963651E+03  0.68610382119E+03  0.26300981237E+03 0.  0.
         25    1    4    4    0    0  0.64993645142E+02  0.22276291700E+02  0.23980642628E+03  0.27906099202E+03  0.12509000000E+03 0.  0.
         25    1    4    4    0    0  0.34357110706E+02 -0.44209238211E+01  0.38579321022E+03  0.40704282917E+03  0.12509000000E+03 0.  0.
         25    1    3    3    0    0 -0.99350755847E+02 -0.17855367879E+02  0.57241033273E+03  0.59455065719E+03  0.12509000000E+03 0.  0.
<mgrwt>
<rscale>  2 0.45260138E+03</rscale>
<asrwt>0</asrwt>
<pdfrwt beam="1">  1       21 0.18225471E+00 0.45260138E+03</pdfrwt>
<pdfrwt beam="2">  1       21 0.60768030E-02 0.45260138E+03</pdfrwt>
<totfact> 0.30242182E+04</totfact>
</mgrwt>
</event>
<event>
 7    0  0.4691878E-002  0.4613253E+03  0.7546771E-02  0.1024398E+00
         21   -1    0    0  502  501  0.00000000000E+00  0.00000000000E+00  0.41333020721E+03  0.41333020721E+03  0.00000000000E+00 0.  1.
         21   -1    0    0  501  502 -0.00000000000E+00 -0.00000000000E+00 -0.12872339562E+03  0.12872339562E+03  0.00000000000E+00 0.  1.
      99926    2    1    2    0    0  0.00000000000E+00  0.00000000000E+00  0.28460681160E+03  0.54205360283E+03  0.46132534196E+03 0.  0.
      99925    2    3    3    0    0 -0.96559911335E+02  0.38527020198E+02  0.24645253637E+03  0.37498653671E+03  0.26280772871E+03 0.  0.
         25    1    4    4    0    0 -0.18616257370E+02  0.29566673616E+02  0.15095708252E+03  0.19913890150E+03  0.12509000000E+03 0.  0.
         25    1    3    3    0    0  0.96559911335E+02 -0.38527020198E+02  0.38154275223E+02  0.16706706611E+03  0.12509000000E+03 0.  0.
         25    1    4    4    0    0 -0.77943653965E+02  0.89603465823E+01  0.95495453853E+02  0.17584763522E+03  0.12509000000E+03 0.  0.
<mgrwt>
<rscale>  2 0.46132534E+03</rscale>
<asrwt>0</asrwt>
<pdfrwt beam="1">  1       21 0.60783854E-01 0.46132534E+03</pdfrwt>
<pdfrwt beam="2">  1       21 0.18929911E-01 0.46132534E+03</pdfrwt>
<totfact> 0.59365801E+04</totfact>
</mgrwt>
</event>
<event>
 7    0  0.4691878E-002  0.4645570E+03  0.7546771E-02  0.1023468E+00
         21   -1    0    0  502  501  0.00000000000E+00  0.00000000000E+00  0.13998658467E+03  0.13998658467E+03  0.00000000000E+00 0. -1.
         21   -1    0    0  501  502 -0.00000000000E+00 -0.00000000000E+00 -0.38541773015E+03  0.38541773015E+03  0.00000000000E+00 0. -1.
      99926    2    1    2    0    0  0.00000000000E+00  0.00000000000E+00 -0.24543114549E+03  0.52540431482E+03  0.46455704371E+03 0.  0.
      99925    2    3    3    0    0 -0.96472823871E+02  0.55271954844E+02 -0.20974000553E+03  0.35428049909E+03  0.26298632546E+03 0.  0.
         25    1    4    4    0    0 -0.24055633085E+02  0.30268291799E+02 -0.14058208788E+03  0.19210849670E+03  0.12509000000E+03 0.  0.
         25    1    4    4    0    0 -0.72417190786E+02  0.25003663045E+02 -0.69157917651E+02  0.16217200240E+03  0.12509000000E+03 0.  0.
         25    1    3    3    0    0  0.96472823871E+02 -0.55271954844E+02 -0.35691139955E+02  0.17112381573E+03  0.12509000000E+03 0.  0.
<mgrwt>
<rscale>  2 0.46455704E+03</rscale>
<asrwt>0</asrwt>
<pdfrwt beam="1">  1       21 0.20586263E-01 0.46455704E+03</pdfrwt>
<pdfrwt beam="2">  1       21 0.56679077E-01 0.46455704E+03</pdfrwt>
<totfact> 0.58924255E+04</totfact>
</mgrwt>
</event>
<event>
 7    0  0.4691878E-002  0.4603858E+03  0.7546771E-02  0.1024669E+00
         21   -1    0    0  502  501  0.00000000000E+00  0.00000000000E+00  0.55414742720E+03  0.55414742720E+03  0.00000000000E+00 0. -1.
         21   -1    0    0  501  502 -0.00000000000E+00 -0.00000000000E+00 -0.95622144896E+02  0.95622144896E+02  0.00000000000E+00 0. -1.
      99926    2    1    2    0    0  0.14210854715E-13  0.31086244690E-14  0.45852528230E+03  0.64976957209E+03  0.46038577553E+03 0.  0.
      99925    2    3    3    0    0 -0.96778904453E+02  0.59298538843E+00  0.19141181590E+03  0.33934466972E+03  0.26296352147E+03 0.  0.
         25    1    4    4    0    0 -0.71051040348E+02 -0.34143821728E+02  0.10024878036E+03  0.17863755753E+03  0.12509000000E+03 0.  0.
         25    1    4    4    0    0 -0.25727864105E+02  0.34736807117E+02  0.91163035543E+02  0.16070711219E+03  0.12509000000E+03 0.  0.
         25    1    3    3    0    0  0.96778904453E+02 -0.59298538843E+00  0.26711346640E+03  0.31042490237E+03  0.12509000000E+03 0.  0.
<mgrwt>
<rscale>  2 0.46038578E+03</rscale>
<asrwt>0</asrwt>
<pdfrwt beam="1">  1       21 0.81492267E-01 0.46038578E+03</pdfrwt>
<pdfrwt beam="2">  1       21 0.14062080E-01 0.46038578E+03</pdfrwt>
<totfact> 0.53408961E+04</totfact>
</mgrwt>
</event>
<event>
 7    0  0.4691878E-002  0.4234929E+03  0.7546771E-02  0.1035935E+00
         21   -1    0    0  502  501  0.00000000000E+00  0.00000000000E+00  0.10737173327E+04  0.10737173327E+04  0.00000000000E+00 0. -1.
         21   -1    0    0  501  502 -0.00000000000E+00 -0.00000000000E+00 -0.41758252373E+02  0.41758252373E+02  0.00000000000E+00 0. -1.
      99926    2    1    2    0    0  0.00000000000E+00  0.00000000000E+00  0.10319590804E+04  0.11154755851E+04  0.42349290128E+03 0.  0.
      99925    2    3    3    0    0  0.17435301286E+02  0.62935499624E+02  0.79218185079E+03  0.83725715515E+03  0.26302583960E+03 0.  0.
         25    1    4    4    0    0 -0.18291921678E+02  0.18924253809E+02  0.46893954501E+03  0.48604992208E+03  0.12509000000E+03 0.  0.
         25    1    4    4    0    0  0.35727222964E+02  0.44011245815E+02  0.32324230578E+03  0.35120723307E+03  0.12509000000E+03 0.  0.
         25    1    3    3    0    0 -0.17435301286E+02 -0.62935499624E+02  0.23977722958E+03  0.27821842996E+03  0.12509000000E+03 0.  0.
<mgrwt>
<rscale>  2 0.42349290E+03</rscale>
<asrwt>0</asrwt>
<pdfrwt beam="1">  1       21 0.15789959E+00 0.42349290E+03</pdfrwt>
<pdfrwt beam="2">  1       21 0.61409202E-02 0.42349290E+03</pdfrwt>
<totfact> 0.45045382E+04</totfact>
</mgrwt>
</event>
<event>
 7    0  0.4691878E-002  0.4622451E+03  0.7546771E-02  0.1024132E+00
         21   -1    0    0  502  501  0.00000000000E+00  0.00000000000E+00  0.14593545665E+03  0.14593545665E+03  0.00000000000E+00 0. -1.
         21   -1    0    0  501  502 -0.00000000000E+00 -0.00000000000E+00 -0.36603604118E+03  0.36603604118E+03  0.00000000000E+00 0. -1.
      99926    2    1    2    0    0  0.00000000000E+00  0.00000000000E+00 -0.22010058453E+03  0.51197149783E+03  0.46224511602E+03 0.  0.
      99925    2    3    3    0    0  0.53178563229E+01  0.11287669300E+03 -0.93282873395E+02  0.30102205513E+03  0.26295086193E+03 0.  0.
         25    1    3    3    0    0 -0.53178563229E+01 -0.11287669300E+03 -0.12681771113E+03  0.21094944270E+03  0.12509000000E+03 0.  0.
         25    1    4    4    0    0  0.25230904918E+02  0.71731498277E+02 -0.16556908358E+02  0.14732157249E+03  0.12509000000E+03 0.  0.
         25    1    4    4    0    0 -0.19913048595E+02  0.41145194718E+02 -0.76725965037E+02  0.15370048264E+03  0.12509000000E+03 0.  0.
<mgrwt>
<rscale>  2 0.46224512E+03</rscale>
<asrwt>0</asrwt>
<pdfrwt beam="1">  1       21 0.21461097E-01 0.46224512E+03</pdfrwt>
<pdfrwt beam="2">  1       21 0.53828829E-01 0.46224512E+03</pdfrwt>
<totfact> 0.60861816E+04</totfact>
</mgrwt>
</event>
<event>
 7    0  0.4691878E-002  0.4558644E+03  0.7546771E-02  0.1025988E+00
         21   -1    0    0  502  501  0.00000000000E+00  0.00000000000E+00  0.73428450770E+03  0.73428450770E+03  0.00000000000E+00 0.  1.
         21   -1    0    0  501  502 -0.00000000000E+00 -0.00000000000E+00 -0.70753359040E+02  0.70753359040E+02  0.00000000000E+00 0.  1.
      99926    2    1    2    0    0  0.00000000000E+00 -0.88817841970E-15  0.66353114866E+03  0.80503786674E+03  0.45586443341E+03 0.  0.
      99925    2    3    3    0    0 -0.50623845382E+02  0.47128818969E+01  0.59738413342E+03  0.65467856140E+03  0.26296621631E+03 0.  0.
         25    1    4    4    0    0 -0.33848440419E+02 -0.29332696483E+02  0.24298008385E+03  0.27693492602E+03  0.12509000000E+03 0.  0.
         25    1    4    4    0    0 -0.16775404964E+02  0.34045578380E+02  0.35440404957E+03  0.37774363538E+03  0.12509000000E+03 0.  0.
         25    1    3    3    0    0  0.50623845382E+02 -0.47128818969E+01  0.66147015239E+02  0.15035930534E+03  0.12509000000E+03 0.  0.
<mgrwt>
<rscale>  2 0.45586443E+03</rscale>
<asrwt>0</asrwt>
<pdfrwt beam="1">  1       21 0.10798301E+00 0.45586443E+03</pdfrwt>
<pdfrwt beam="2">  1       21 0.10404906E-01 0.45586443E+03</pdfrwt>
<totfact> 0.47201086E+04</totfact>
</mgrwt>
</event>
<event>
 7    0  0.4691878E-002  0.4515549E+03  0.7546771E-02  0.1027259E+00
         21   -1    0    0  502  501  0.00000000000E+00  0.00000000000E+00  0.19493914389E+02  0.19493914389E+02  0.00000000000E+00 0. -1.
         21   -1    0    0  501  502 -0.00000000000E+00 -0.00000000000E+00 -0.26149417018E+04  0.26149417018E+04  0.00000000000E+00 0. -1.
      99926    2    1    2    0    0  0.00000000000E+00  0.00000000000E+00 -0.25954477874E+04  0.26344356162E+04  0.45155486783E+03 0.  0.
      99925    2    3    3    0    0  0.72554393175E+02 -0.76259508770E+02 -0.14554257056E+04  0.14827509771E+04  0.26307189723E+03 0.  0.
         25    1    4    4    0    0  0.55381201948E+02 -0.10044303450E+02 -0.59612035925E+03  0.61169841947E+03  0.12509000000E+03 0.  0.
         25    1    3    3    0    0 -0.72554393175E+02  0.76259508770E+02 -0.11400220818E+04  0.11516846390E+04  0.12509000000E+03 0.  0.
         25    1    4    4    0    0  0.17173191227E+02 -0.66215205321E+02 -0.85930534632E+03  0.87105255767E+03  0.12509000000E+03 0.  0.
<mgrwt>
<rscale>  2 0.45155487E+03</rscale>
<asrwt>0</asrwt>
<pdfrwt beam="1">  1       21 0.28667532E-02 0.45155487E+03</pdfrwt>
<pdfrwt beam="2">  1       21 0.38455010E+00 0.45155487E+03</pdfrwt>
<totfact> 0.60112472E+03</totfact>
</mgrwt>
</event>
<event>
 7    0  0.4691878E-002  0.4624601E+03  0.7546771E-02  0.1024070E+00
         21   -1    0    0  502  501  0.00000000000E+00  0.00000000000E+00  0.83490834132E+03  0.83490834132E+03  0.00000000000E+00 0.  1.
         21   -1    0    0  501  502 -0.00000000000E+00 -0.00000000000E+00 -0.64039757087E+02  0.64039757087E+02  0.00000000000E+00 0.  1.
      99926    2    1    2    0    0  0.00000000000E+00  0.14210854715E-13  0.77086858423E+03  0.89894809840E+03  0.46246006257E+03 0.  0.
      99925    2    3    3    0    0  0.47575159910E+02 -0.93092195878E+02  0.36521544535E+03  0.46176217691E+03  0.26251177826E+03 0.  0.
         25    1    3    3    0    0 -0.47575159910E+02  0.93092195878E+02  0.40565313888E+03  0.43718592150E+03  0.12509000000E+03 0.  0.
         25    1    4    4    0    0  0.21672725147E+02 -0.87836251727E+02  0.21090224073E+03  0.26136598359E+03  0.12509000000E+03 0.  0.
         25    1    4    4    0    0  0.25902434763E+02 -0.52559441515E+01  0.15431320462E+03  0.20039619332E+03  0.12509000000E+03 0.  0.
<mgrwt>
<rscale>  2 0.46246006E+03</rscale>
<asrwt>0</asrwt>
<pdfrwt beam="1">  1       21 0.12278063E+00 0.46246006E+03</pdfrwt>
<pdfrwt beam="2">  1       21 0.94176118E-02 0.46246006E+03</pdfrwt>
<totfact> 0.40840913E+04</totfact>
</mgrwt>
</event>
<event>
 7    0  0.4691878E-002  0.4639993E+03  0.7546771E-02  0.1023628E+00
         21   -1    0    0  502  501  0.00000000000E+00  0.00000000000E+00  0.22264379415E+03  0.22264379415E+03  0.00000000000E+00 0.  1.
         21   -1    0    0  501  502 -0.00000000000E+00 -0.00000000000E+00 -0.24174861782E+03  0.24174861782E+03  0.00000000000E+00 0.  1.
      99926    2    1    2    0    0  0.17763568394E-14  0.00000000000E+00 -0.19104823666E+02  0.46439241197E+03  0.46399926509E+03 0.  0.
      99925    2    3    3    0    0  0.14903908852E+02 -0.12043307115E+03 -0.73524414493E+01  0.28971591752E+03  0.26297338904E+03 0.  0.
         25    1    4    4    0    0  0.21695637947E+02 -0.45740943850E+02 -0.39004297149E+02  0.14046984711E+03  0.12509000000E+03 0.  0.
         25    1    4    4    0    0 -0.67917290950E+01 -0.74692127298E+02  0.31651855700E+02  0.14924607041E+03  0.12509000000E+03 0.  0.
         25    1    3    3    0    0 -0.14903908852E+02  0.12043307115E+03 -0.11752382217E+02  0.17467649445E+03  0.12509000000E+03 0.  0.
<mgrwt>
<rscale>  2 0.46399927E+03</rscale>
<asrwt>0</asrwt>
<pdfrwt beam="1">  1       21 0.32741735E-01 0.46399927E+03</pdfrwt>
<pdfrwt beam="2">  1       21 0.35551267E-01 0.46399927E+03</pdfrwt>
<totfact> 0.63201618E+04</totfact>
</mgrwt>
</event>
<event>
 7    0  0.4691878E-002  0.4597818E+03  0.7546771E-02  0.1024845E+00
         21   -1    0    0  502  501  0.00000000000E+00  0.00000000000E+00  0.11335660109E+03  0.11335660109E+03  0.00000000000E+00 0. -1.
         21   -1    0    0  501  502 -0.00000000000E+00 -0.00000000000E+00 -0.46622620631E+03  0.46622620631E+03  0.00000000000E+00 0. -1.
      99926    2    1    2    0    0  0.00000000000E+00  0.00000000000E+00 -0.35286960521E+03  0.57958280740E+03  0.45978176601E+03 0.  0.
      99925    2    3    3    0    0 -0.49511904621E+02 -0.10564005062E+03 -0.20242723356E+03  0.35178538801E+03  0.26299225337E+03 0.  0.
         25    1    4    4    0    0 -0.58672467393E+01 -0.16166856970E+02 -0.71212122538E+02  0.14496367250E+03  0.12509000000E+03 0.  0.
         25    1    4    4    0    0 -0.43644657882E+02 -0.89473193653E+02 -0.13121511102E+03  0.20682171551E+03  0.12509000000E+03 0.  0.
         25    1    3    3    0    0  0.49511904621E+02  0.10564005062E+03 -0.15044237165E+03  0.22779741940E+03  0.12509000000E+03 0.  0.
<mgrwt>
<rscale>  2 0.45978177E+03</rscale>
<asrwt>0</asrwt>
<pdfrwt beam="1">  1       21 0.16670088E-01 0.45978177E+03</pdfrwt>
<pdfrwt beam="2">  1       21 0.68562679E-01 0.45978177E+03</pdfrwt>
<totfact> 0.57738996E+04</totfact>
</mgrwt>
</event>
<event>
 7    0  0.4691878E-002  0.4496405E+03  0.7546771E-02  0.1027829E+00
         21   -1    0    0  502  501  0.00000000000E+00  0.00000000000E+00  0.92271012221E+02  0.92271012221E+02  0.00000000000E+00 0.  1.
         21   -1    0    0  501  502 -0.00000000000E+00 -0.00000000000E+00 -0.54777924141E+03  0.54777924141E+03  0.00000000000E+00 0.  1.
      99926    2    1    2    0    0  0.00000000000E+00  0.00000000000E+00 -0.45550822919E+03  0.64005025363E+03  0.44964050119E+03 0.  0.
      99925    2    3    3    0    0 -0.44104677163E+02  0.72497419216E+02 -0.19273082135E+03  0.33689918154E+03  0.26297298470E+03 0.  0.
         25    1    4    4    0    0 -0.18394080228E+02  0.66770499827E+02 -0.68124099303E+02  0.15838258377E+03  0.12509000000E+03 0.  0.
         25    1    3    3    0    0  0.44104677163E+02 -0.72497419216E+02 -0.26277740784E+03  0.30315107209E+03  0.12509000000E+03 0.  0.
         25    1    4    4    0    0 -0.25710596936E+02  0.57269193888E+01 -0.12460672205E+03  0.17851659777E+03  0.12509000000E+03 0.  0.
<mgrwt>
<rscale>  2 0.44964050E+03</rscale>
<asrwt>0</asrwt>
<pdfrwt beam="1">  1       21 0.13569267E-01 0.44964050E+03</pdfrwt>
<pdfrwt beam="2">  1       21 0.80555770E-01 0.44964050E+03</pdfrwt>
<totfact> 0.58722785E+04</totfact>
</mgrwt>
</event>
<event>
 7    0  0.4691878E-002  0.4571109E+03  0.7546771E-02  0.1025622E+00
         21   -1    0    0  502  501  0.00000000000E+00  0.00000000000E+00  0.22845934344E+04  0.22845934344E+04  0.00000000000E+00 0.  1.
         21   -1    0    0  501  502 -0.00000000000E+00 -0.00000000000E+00 -0.22865157453E+02  0.22865157453E+02  0.00000000000E+00 0.  1.
      99926    2    1    2    0    0  0.00000000000E+00 -0.35527136788E-14  0.22617282769E+04  0.23074585918E+04  0.45711087755E+03 0.  0.
      99925    2    3    3    0    0 -0.44019209819E+02  0.58301538403E+01  0.19564416227E+04  0.19745635170E+04  0.26318354422E+03 0.  0.
         25    1    3    3    0    0  0.44019209819E+02 -0.58301538403E+01  0.30528665423E+03  0.33289507488E+03  0.12509000000E+03 0.  0.
         25    1    4    4    0    0 -0.35480316773E+02 -0.34518971626E+02  0.10579472913E+04  0.10664663106E+04  0.12509000000E+03 0.  0.
         25    1    4    4    0    0 -0.85388930467E+01  0.40349125466E+02  0.89849433136E+03  0.90809720637E+03  0.12509000000E+03 0.  0.
<mgrwt>
<rscale>  2 0.45711088E+03</rscale>
<asrwt>0</asrwt>
<pdfrwt beam="1">  1       21 0.33596947E+00 0.45711088E+03</pdfrwt>
<pdfrwt beam="2">  1       21 0.33625247E-02 0.45711088E+03</pdfrwt>
<totfact> 0.91570637E+03</totfact>
</mgrwt>
</event>
<event>
 7    0  0.4691878E-002  0.4550802E+03  0.7546771E-02  0.1026218E+00
         21   -1    0    0  502  501  0.00000000000E+00  0.00000000000E+00  0.66038888753E+02  0.66038888753E+02  0.00000000000E+00 0.  1.
         21   -1    0    0  501  502 -0.00000000000E+00 -0.00000000000E+00 -0.78400000921E+03  0.78400000921E+03  0.00000000000E+00 0.  1.
      99926    2    1    2    0    0  0.71054273576E-14  0.00000000000E+00 -0.71796112046E+03  0.85003889797E+03  0.45508016608E+03 0.  0.
      99925    2    3    3    0    0 -0.36708116007E+02  0.10474088659E+03 -0.49280449501E+03  0.56957294069E+03  0.26313290437E+03 0.  0.
         25    1    3    3    0    0  0.36708116007E+02 -0.10474088659E+03 -0.22515662545E+03  0.28046595727E+03  0.12509000000E+03 0.  0.
         25    1    4    4    0    0  0.59295661323E+01  0.34821710295E+02 -0.28825870154E+03  0.31620926358E+03  0.12509000000E+03 0.  0.
         25    1    4    4    0    0 -0.42637682139E+02  0.69919176297E+02 -0.20454579347E+03  0.25336367711E+03  0.12509000000E+03 0.  0.
<mgrwt>
<rscale>  2 0.45508017E+03</rscale>
<asrwt>0</asrwt>
<pdfrwt beam="1">  1       21 0.97116016E-02 0.45508017E+03</pdfrwt>
<pdfrwt beam="2">  1       21 0.11529412E+00 0.45508017E+03</pdfrwt>
<totfact> 0.45409074E+04</totfact>
</mgrwt>
</event>
<event>
 7    0  0.4691878E-002  0.4552584E+03  0.7546771E-02  0.1026165E+00
         21   -1    0    0  502  501  0.00000000000E+00  0.00000000000E+00  0.31756675820E+03  0.31756675820E+03  0.00000000000E+00 0.  1.
         21   -1    0    0  501  502 -0.00000000000E+00 -0.00000000000E+00 -0.16316272735E+03  0.16316272735E+03  0.00000000000E+00 0.  1.
      99926    2    1    2    0    0  0.00000000000E+00  0.00000000000E+00  0.15440403085E+03  0.48072948555E+03  0.45525842500E+03 0.  0.
      99925    2    3    3    0    0  0.10735924337E+03 -0.35656795683E+02  0.96538628911E+02  0.30242265153E+03  0.26332933576E+03 0.  0.
         25    1    4    4    0    0  0.72833400867E+02 -0.52848283739E+02  0.68080014638E+02  0.16846377020E+03  0.12509000000E+03 0.  0.
         25    1    3    3    0    0 -0.10735924337E+03  0.35656795683E+02  0.57865401940E+02  0.17830683402E+03  0.12509000000E+03 0.  0.
         25    1    4    4    0    0  0.34525842506E+02  0.17191488056E+02  0.28458614273E+02  0.13395888134E+03  0.12509000000E+03 0.  0.
<mgrwt>
<rscale>  2 0.45525843E+03</rscale>
<asrwt>0</asrwt>
<pdfrwt beam="1">  1       21 0.46700994E-01 0.45525843E+03</pdfrwt>
<pdfrwt beam="2">  1       21 0.23994519E-01 0.45525843E+03</pdfrwt>
<totfact> 0.66510500E+04</totfact>
</mgrwt>
</event>
<event>
 7    0  0.4691878E-002  0.4543632E+03  0.7546771E-02  0.1026429E+00
         21   -1    0    0  502  501  0.00000000000E+00  0.00000000000E+00  0.38425286398E+03  0.38425286398E+03  0.00000000000E+00 0.  1.
         21   -1    0    0  501  502 -0.00000000000E+00 -0.00000000000E+00 -0.13431644898E+03  0.13431644898E+03  0.00000000000E+00 0.  1.
      99926    2    1    2    0    0 -0.17763568394E-14  0.00000000000E+00  0.24993641499E+03  0.51856931296E+03  0.45436320362E+03 0.  0.
      99925    2    3    3    0    0  0.91168372512E+01  0.10545034212E+03  0.11375082972E+03  0.30550379929E+03  0.26304073591E+03 0.  0.
         25    1    3    3    0    0 -0.91168372512E+01 -0.10545034212E+03  0.13618558528E+03  0.21306551366E+03  0.12509000000E+03 0.  0.
         25    1    4    4    0    0 -0.19551356753E+02  0.85216181816E+02  0.74208073276E+02  0.16970091171E+03  0.12509000000E+03 0.  0.
         25    1    4    4    0    0  0.28668194005E+02  0.20234160304E+02  0.39542756440E+02  0.13580288759E+03  0.12509000000E+03 0.  0.
<mgrwt>
<rscale>  2 0.45436320E+03</rscale>
<asrwt>0</asrwt>
<pdfrwt beam="1">  1       21 0.56507774E-01 0.45436320E+03</pdfrwt>
<pdfrwt beam="2">  1       21 0.19752419E-01 0.45436320E+03</pdfrwt>
<totfact> 0.64309151E+04</totfact>
</mgrwt>
</event>
<event>
 7    0  0.4691878E-002  0.4520853E+03  0.7546771E-02  0.1027102E+00
         21   -1    0    0  502  501  0.00000000000E+00  0.00000000000E+00  0.61326294987E+03  0.61326294987E+03  0.00000000000E+00 0.  1.
         21   -1    0    0  501  502 -0.00000000000E+00 -0.00000000000E+00 -0.83317067007E+02  0.83317067007E+02  0.00000000000E+00 0.  1.
      99926    2    1    2    0    0  0.00000000000E+00 -0.35527136788E-14  0.52994588286E+03  0.69658001688E+03  0.45208525872E+03 0.  0.
      99925    2    3    3    0    0 -0.51608625041E+02  0.23272668849E+02  0.48054143909E+03  0.55065752218E+03  0.26286605858E+03 0.  0.
         25    1    4    4    0    0 -0.14200969582E+02 -0.77341390452E+01  0.16437804382E+03  0.20719346958E+03  0.12509000000E+03 0.  0.
         25    1    3    3    0    0  0.51608625041E+02 -0.23272668849E+02  0.49404443768E+02  0.14592249469E+03  0.12509000000E+03 0.  0.
         25    1    4    4    0    0 -0.37407655459E+02  0.31006807894E+02  0.31616339527E+03  0.34346405260E+03  0.12509000000E+03 0.  0.
<mgrwt>
<rscale>  2 0.45208526E+03</rscale>
<asrwt>0</asrwt>
<pdfrwt beam="1">  1       21 0.90185726E-01 0.45208526E+03</pdfrwt>
<pdfrwt beam="2">  1       21 0.12252510E-01 0.45208526E+03</pdfrwt>
<totfact> 0.54324592E+04</totfact>
</mgrwt>
</event>
<event>
 7    0  0.4691878E-002  0.4484620E+03  0.7546771E-02  0.1028182E+00
         21   -1    0    0  502  501  0.00000000000E+00  0.00000000000E+00  0.37729898934E+03  0.37729898934E+03  0.00000000000E+00 0. -1.
         21   -1    0    0  501  502 -0.00000000000E+00 -0.00000000000E+00 -0.13326182305E+03  0.13326182305E+03  0.00000000000E+00 0. -1.
      99926    2    1    2    0    0  0.88817841970E-15 -0.22204460493E-15  0.24403716629E+03  0.51056081239E+03  0.44846204368E+03 0.  0.
      99925    2    3    3    0    0  0.42623131849E+01 -0.31712135049E+00  0.27623594171E+03  0.38132251652E+03  0.26283511606E+03 0.  0.
         25    1    4    4    0    0 -0.25953500829E+01 -0.37836623984E+01  0.80242956710E+02  0.14868588415E+03  0.12509000000E+03 0.  0.
         25    1    3    3    0    0 -0.42623131849E+01  0.31712135049E+00 -0.32198775427E+02  0.12923829587E+03  0.12509000000E+03 0.  0.
         25    1    4    4    0    0  0.68576632679E+01  0.34665410479E+01  0.19599298500E+03  0.23263663237E+03  0.12509000000E+03 0.  0.
<mgrwt>
<rscale>  2 0.44846204E+03</rscale>
<asrwt>0</asrwt>
<pdfrwt beam="1">  1       21 0.55485145E-01 0.44846204E+03</pdfrwt>
<pdfrwt beam="2">  1       21 0.19597327E-01 0.44846204E+03</pdfrwt>
<totfact> 0.67994612E+04</totfact>
</mgrwt>
</event>
<event>
 7    0  0.4691878E-002  0.4542676E+03  0.7546771E-02  0.1026457E+00
         21   -1    0    0  502  501  0.00000000000E+00  0.00000000000E+00  0.34015223577E+03  0.34015223577E+03  0.00000000000E+00 0.  1.
         21   -1    0    0  501  502 -0.00000000000E+00 -0.00000000000E+00 -0.15166667060E+03  0.15166667060E+03  0.00000000000E+00 0.  1.
      99926    2    1    2    0    0  0.88817841970E-15 -0.71054273576E-14  0.18848556517E+03  0.49181890636E+03  0.45426757355E+03 0.  0.
      99925    2    3    3    0    0 -0.79634899091E+01  0.48056231749E+02  0.22786983562E+03  0.35192091695E+03  0.26372495373E+03 0.  0.
         25    1    4    4    0    0  0.23711232359E+02  0.15950636813E+02  0.15166108123E+03  0.19865859411E+03  0.12509000000E+03 0.  0.
         25    1    4    4    0    0 -0.31674722268E+02  0.32105594936E+02  0.76208754393E+02  0.15326232284E+03  0.12509000000E+03 0.  0.
         25    1    3    3    0    0  0.79634899091E+01 -0.48056231749E+02 -0.39384270454E+02  0.13989798941E+03  0.12509000000E+03 0.  0.
<mgrwt>
<rscale>  2 0.45426757E+03</rscale>
<asrwt>0</asrwt>
<pdfrwt beam="1">  1       21 0.50022388E-01 0.45426757E+03</pdfrwt>
<pdfrwt beam="2">  1       21 0.22303922E-01 0.45426757E+03</pdfrwt>
<totfact> 0.66233588E+04</totfact>
</mgrwt>
</event>
<event>
 7    0  0.4691878E-002  0.4582004E+03  0.7546771E-02  0.1025304E+00
         21   -1    0    0  502  501  0.00000000000E+00  0.00000000000E+00  0.34877148862E+03  0.34877148862E+03  0.00000000000E+00 0.  1.
         21   -1    0    0  501  502 -0.00000000000E+00 -0.00000000000E+00 -0.15049082040E+03  0.15049082040E+03  0.00000000000E+00 0.  1.
      99926    2    1    2    0    0  0.00000000000E+00  0.00000000000E+00  0.19828066822E+03  0.49926230902E+03  0.45820042538E+03 0.  0.
      99925    2    3    3    0    0  0.80112280932E+02 -0.80136447210E+02  0.15202313509E+03  0.32425632284E+03  0.26304239501E+03 0.  0.
         25    1    4    4    0    0  0.76801348952E+02 -0.57871702128E+02  0.67472415162E+02  0.17160307694E+03  0.12509000000E+03 0.  0.
         25    1    3    3    0    0 -0.80112280932E+02  0.80136447210E+02  0.46257533127E+02  0.17500598618E+03  0.12509000000E+03 0.  0.
         25    1    4    4    0    0  0.33109319791E+01 -0.22264745082E+02  0.84550719929E+02  0.15265324590E+03  0.12509000000E+03 0.  0.
<mgrwt>
<rscale>  2 0.45820043E+03</rscale>
<asrwt>0</asrwt>
<pdfrwt beam="1">  1       21 0.51289925E-01 0.45820043E+03</pdfrwt>
<pdfrwt beam="2">  1       21 0.22131003E-01 0.45820043E+03</pdfrwt>
<totfact> 0.63688986E+04</totfact>
</mgrwt>
</event>
<event>
 7    0  0.4691878E-002  0.4424343E+03  0.7546771E-02  0.1030003E+00
         21   -1    0    0  502  501  0.00000000000E+00  0.00000000000E+00  0.35337994442E+03  0.35337994442E+03  0.00000000000E+00 0. -1.
         21   -1    0    0  501  502 -0.00000000000E+00 -0.00000000000E+00 -0.13848276071E+03  0.13848276071E+03  0.00000000000E+00 0. -1.
      99926    2    1    2    0    0  0.00000000000E+00  0.00000000000E+00  0.21489718371E+03  0.49186270513E+03  0.44243431278E+03 0.  0.
      99925    2    3    3    0    0  0.58482580146E+02 -0.34492587263E+02  0.21972702602E+03  0.34945207970E+03  0.26310993765E+03 0.  0.
         25    1    4    4    0    0  0.33225281113E+02 -0.57150124855E+02  0.12658535670E+03  0.18984577084E+03  0.12509000000E+03 0.  0.
         25    1    4    4    0    0  0.25257299033E+02  0.22657537592E+02  0.93141669321E+02  0.15960630886E+03  0.12509000000E+03 0.  0.
         25    1    3    3    0    0 -0.58482580146E+02  0.34492587263E+02 -0.48298423057E+01  0.14241062542E+03  0.12509000000E+03 0.  0.
<mgrwt>
<rscale>  2 0.44243431E+03</rscale>
<asrwt>0</asrwt>
<pdfrwt beam="1">  1       21 0.51967639E-01 0.44243431E+03</pdfrwt>
<pdfrwt beam="2">  1       21 0.20365112E-01 0.44243431E+03</pdfrwt>
<totfact> 0.72845700E+04</totfact>
</mgrwt>
</event>
<event>
 7    0  0.4691878E-002  0.4463751E+03  0.7546771E-02  0.1028809E+00
         21   -1    0    0  502  501  0.00000000000E+00  0.00000000000E+00  0.70747150395E+02  0.70747150395E+02  0.00000000000E+00 0. -1.
         21   -1    0    0  501  502 -0.00000000000E+00 -0.00000000000E+00 -0.70409458505E+03  0.70409458505E+03  0.00000000000E+00 0. -1.
      99926    2    1    2    0    0  0.00000000000E+00  0.00000000000E+00 -0.63334743465E+03  0.77484173544E+03  0.44637511356E+03 0.  0.
      99925    2    3    3    0    0 -0.38299714388E+02 -0.58113028754E+02 -0.26254023199E+03  0.37736282798E+03  0.26197583532E+03 0.  0.
         25    1    3    3    0    0  0.38299714388E+02  0.58113028754E+02 -0.37080720266E+03  0.39747890746E+03  0.12509000000E+03 0.  0.
         25    1    4    4    0    0 -0.49653545669E+02 -0.89751519775E+01 -0.14977474410E+03  0.20155894924E+03  0.12509000000E+03 0.  0.
         25    1    4    4    0    0  0.11353831282E+02 -0.49137876777E+02 -0.11276548789E+03  0.17580387874E+03  0.12509000000E+03 0.  0.
<mgrwt>
<rscale>  2 0.44637511E+03</rscale>
<asrwt>0</asrwt>
<pdfrwt beam="1">  1       21 0.10403993E-01 0.44637511E+03</pdfrwt>
<pdfrwt beam="2">  1       21 0.10354332E+00 0.44637511E+03</pdfrwt>
<totfact> 0.52468931E+04</totfact>
</mgrwt>
</event>
<event>
 7    0  0.4691878E-002  0.4590144E+03  0.7546771E-02  0.1025067E+00
         21   -1    0    0  502  501  0.00000000000E+00  0.00000000000E+00  0.36589018340E+02  0.36589018340E+02  0.00000000000E+00 0.  1.
         21   -1    0    0  501  502 -0.00000000000E+00 -0.00000000000E+00 -0.14395999070E+04  0.14395999070E+04  0.00000000000E+00 0.  1.
      99926    2    1    2    0    0  0.00000000000E+00  0.00000000000E+00 -0.14030108886E+04  0.14761889253E+04  0.45901436752E+03 0.  0.
      99925    2    3    3    0    0  0.52630517597E+02  0.10124440785E+03 -0.96079656018E+03  0.10026686809E+04  0.26304762316E+03 0.  0.
         25    1    3    3    0    0 -0.52630517597E+02 -0.10124440785E+03 -0.44221432843E+03  0.47352024442E+03  0.12509000000E+03 0.  0.
         25    1    4    4    0    0  0.94756684197E+01  0.98640707014E+01 -0.43385417877E+03  0.45173448476E+03  0.12509000000E+03 0.  0.
         25    1    4    4    0    0  0.43154849177E+02  0.91380337146E+02 -0.52694238141E+03  0.55093419611E+03  0.12509000000E+03 0.  0.
<mgrwt>
<rscale>  2 0.45901437E+03</rscale>
<asrwt>0</asrwt>
<pdfrwt beam="1">  1       21 0.53807379E-02 0.45901437E+03</pdfrwt>
<pdfrwt beam="2">  1       21 0.21170587E+00 0.45901437E+03</pdfrwt>
<totfact> 0.23623483E+04</totfact>
</mgrwt>
</event>
<event>
 7    0  0.4691878E-002  0.4446775E+03  0.7546771E-02  0.1029321E+00
         21   -1    0    0  502  501  0.00000000000E+00  0.00000000000E+00  0.86506414396E+02  0.86506414396E+02  0.00000000000E+00 0.  1.
         21   -1    0    0  501  502 -0.00000000000E+00 -0.00000000000E+00 -0.57145501907E+03  0.57145501907E+03  0.00000000000E+00 0.  1.
      99926    2    1    2    0    0  0.00000000000E+00 -0.18318679906E-14 -0.48494860468E+03  0.65796143347E+03  0.44467752221E+03 0.  0.
      99925    2    3    3    0    0 -0.59439692627E+02 -0.10772134464E+00 -0.43246772392E+03  0.50985728225E+03  0.26342556324E+03 0.  0.
         25    1    3    3    0    0  0.59439692627E+02  0.10772134464E+00 -0.52480880758E+02  0.14810415122E+03  0.12509000000E+03 0.  0.
         25    1    4    4    0    0  0.79907715525E+01  0.18175679711E+02 -0.21032890094E+03  0.24551978012E+03  0.12509000000E+03 0.  0.
         25    1    4    4    0    0 -0.67430464180E+02 -0.18283401056E+02 -0.22213882298E+03  0.26433750213E+03  0.12509000000E+03 0.  0.
<mgrwt>
<rscale>  2 0.44467752E+03</rscale>
<asrwt>0</asrwt>
<pdfrwt beam="1">  1       21 0.12721532E-01 0.44467752E+03</pdfrwt>
<pdfrwt beam="2">  1       21 0.84037502E-01 0.44467752E+03</pdfrwt>
<totfact> 0.59978945E+04</totfact>
</mgrwt>
</event>
<event>
 7    0  0.4691878E-002  0.4505974E+03  0.7546771E-02  0.1027544E+00
         21   -1    0    0  502  501  0.00000000000E+00  0.00000000000E+00  0.42322576719E+03  0.42322576719E+03  0.00000000000E+00 0. -1.
         21   -1    0    0  501  502 -0.00000000000E+00 -0.00000000000E+00 -0.11993484160E+03  0.11993484160E+03  0.00000000000E+00 0. -1.
      99926    2    1    2    0    0  0.22204460493E-15  0.00000000000E+00  0.30329092559E+03  0.54316060878E+03  0.45059744938E+03 0.  0.
      99925    2    3    3    0    0 -0.19706221808E+01  0.99749623500E+02  0.24428117471E+03  0.37262167030E+03  0.26309645782E+03 0.  0.
         25    1    4    4    0    0 -0.26630303634E+02  0.49799415737E+02  0.16414593323E+03  0.21396389970E+03  0.12509000000E+03 0.  0.
         25    1    3    3    0    0  0.19706221808E+01 -0.99749623500E+02  0.59009750874E+02  0.17053893848E+03  0.12509000000E+03 0.  0.
         25    1    4    4    0    0  0.24659681453E+02  0.49950207763E+02  0.80135241488E+02  0.15865777060E+03  0.12509000000E+03 0.  0.
<mgrwt>
<rscale>  2 0.45059745E+03</rscale>
<asrwt>0</asrwt>
<pdfrwt beam="1">  1       21 0.62239083E-01 0.45059745E+03</pdfrwt>
<pdfrwt beam="2">  1       21 0.17637477E-01 0.45059745E+03</pdfrwt>
<totfact> 0.64539988E+04</totfact>
</mgrwt>
</event>
<event>
 7    0  0.4691878E-002  0.4588074E+03  0.7546771E-02  0.1025128E+00
         21   -1    0    0  502  501  0.00000000000E+00  0.00000000000E+00  0.29000668267E+03  0.29000668267E+03  0.00000000000E+00 0. -1.
         21   -1    0    0  501  502 -0.00000000000E+00 -0.00000000000E+00 -0.18146495724E+03  0.18146495724E+03  0.00000000000E+00 0. -1.
      99926    2    1    2    0    0  0.17763568394E-14  0.14210854715E-13  0.10854172543E+03  0.47147163990E+03  0.45880736816E+03 0.  0.
      99925    2    3    3    0    0 -0.15142630119E+02 -0.10519343615E+03  0.11765059590E+03  0.30707748588E+03  0.26298281572E+03 0.  0.
         25    1    4    4    0    0  0.49315834541E+01 -0.12470709679E+02  0.64127430008E+02  0.14120791229E+03  0.12509000000E+03 0.  0.
         25    1    4    4    0    0 -0.20074213573E+02 -0.92722726470E+02  0.53523165893E+02  0.16586957359E+03  0.12509000000E+03 0.  0.
         25    1    3    3    0    0  0.15142630119E+02  0.10519343615E+03 -0.91088704721E+01  0.16439415402E+03  0.12509000000E+03 0.  0.
<mgrwt>
<rscale>  2 0.45880737E+03</rscale>
<asrwt>0</asrwt>
<pdfrwt beam="1">  1       21 0.42648042E-01 0.45880737E+03</pdfrwt>
<pdfrwt beam="2">  1       21 0.26686023E-01 0.45880737E+03</pdfrwt>
<totfact> 0.65330960E+04</totfact>
</mgrwt>
</event>
<event>
 7    0  0.4691878E-002  0.4399564E+03  0.7546771E-02  0.1030760E+00
         21   -1    0    0  502  501  0.00000000000E+00  0.00000000000E+00  0.29296150947E+03  0.29296150947E+03  0.00000000000E+00 0. -1.
         21   -1    0    0  501  502 -0.00000000000E+00 -0.00000000000E+00 -0.16517670935E+03  0.16517670935E+03  0.00000000000E+00 0. -1.
      99926    2    1    2    0    0  0.00000000000E+00  0.00000000000E+00  0.12778480013E+03  0.45813821882E+03  0.43995644375E+03 0.  0.
      99925    2    3    3    0    0 -0.38925275259E+02 -0.86873988877E+02  0.10732313713E+03  0.29961864668E+03  0.26304146191E+03 0.  0.
         25    1    4    4    0    0 -0.34614432340E+02 -0.54281631010E+02  0.94867646847E+02  0.16968215260E+03  0.12509000000E+03 0.  0.
         25    1    3    3    0    0  0.38925275259E+02  0.86873988877E+02  0.20461663003E+02  0.15851957214E+03  0.12509000000E+03 0.  0.
         25    1    4    4    0    0 -0.43108429191E+01 -0.32592357867E+02  0.12455490278E+02  0.12993649409E+03  0.12509000000E+03 0.  0.
<mgrwt>
<rscale>  2 0.43995644E+03</rscale>
<asrwt>0</asrwt>
<pdfrwt beam="1">  1       21 0.43082575E-01 0.43995644E+03</pdfrwt>
<pdfrwt beam="2">  1       21 0.24290693E-01 0.43995644E+03</pdfrwt>
<totfact> 0.77130068E+04</totfact>
</mgrwt>
</event>
<event>
 7    0  0.4691878E-002  0.4539727E+03  0.7546771E-02  0.1026544E+00
         21   -1    0    0  502  501  0.00000000000E+00  0.00000000000E+00  0.17473973353E+04  0.17473973353E+04  0.00000000000E+00 0.  1.
         21   -1    0    0  501  502 -0.00000000000E+00 -0.00000000000E+00 -0.29485452429E+02  0.29485452429E+02  0.00000000000E+00 0.  1.
      99926    2    1    2    0    0  0.71054273576E-14  0.00000000000E+00  0.17179118829E+04  0.17768827878E+04  0.45397269084E+03 0.  0.
      99925    2    3    3    0    0  0.43901405019E+02 -0.10203294983E+03  0.10230106252E+04  0.10621287586E+04  0.26311348172E+03 0.  0.
         25    1    3    3    0    0 -0.43901405019E+02  0.10203294983E+03  0.69490125767E+03  0.71475402917E+03  0.12509000000E+03 0.  0.
         25    1    4    4    0    0  0.56810017111E+01 -0.14570773651E+02  0.39068337303E+03  0.41051868080E+03  0.12509000000E+03 0.  0.
         25    1    4    4    0    0  0.38220403308E+02 -0.87462176175E+02  0.63232725220E+03  0.65161007778E+03  0.12509000000E+03 0.  0.
<mgrwt>
<rscale>  2 0.45397269E+03</rscale>
<asrwt>0</asrwt>
<pdfrwt beam="1">  1       21 0.25697013E+00 0.45397269E+03</pdfrwt>
<pdfrwt beam="2">  1       21 0.43360971E-02 0.45397269E+03</pdfrwt>
<totfact> 0.17849838E+04</totfact>
</mgrwt>
</event>
<event>
 7    0  0.4691878E-002  0.4602807E+03  0.7546771E-02  0.1024700E+00
         21   -1    0    0  502  501  0.00000000000E+00  0.00000000000E+00  0.10230734155E+03  0.10230734155E+03  0.00000000000E+00 0.  1.
         21   -1    0    0  501  502 -0.00000000000E+00 -0.00000000000E+00 -0.51770062211E+03  0.51770062211E+03  0.00000000000E+00 0.  1.
      99926    2    1    2    0    0 -0.26645352591E-14  0.14210854715E-13 -0.41539328056E+03  0.62000796365E+03  0.46028067248E+03 0.  0.
      99925    2    3    3    0    0  0.54161945304E+01 -0.97049001569E+02 -0.35129485068E+03  0.44911630007E+03  0.26239194921E+03 0.  0.
         25    1    4    4    0    0 -0.24551721113E+02 -0.27746989022E+02 -0.19998159389E+03  0.23877359235E+03  0.12509000000E+03 0.  0.
         25    1    3    3    0    0 -0.54161945304E+01  0.97049001569E+02 -0.64098429887E+02  0.17089166358E+03  0.12509000000E+03 0.  0.
         25    1    4    4    0    0  0.29967915643E+02 -0.69302012547E+02 -0.15131325679E+03  0.21034270772E+03  0.12509000000E+03 0.  0.
<mgrwt>
<rscale>  2 0.46028067E+03</rscale>
<asrwt>0</asrwt>
<pdfrwt beam="1">  1       21 0.15045197E-01 0.46028067E+03</pdfrwt>
<pdfrwt beam="2">  1       21 0.76132444E-01 0.46028067E+03</pdfrwt>
<totfact> 0.55128237E+04</totfact>
</mgrwt>
</event>
<event>
 7    0  0.4691878E-002  0.4581497E+03  0.7546771E-02  0.1025319E+00
         21   -1    0    0  502  501  0.00000000000E+00  0.00000000000E+00  0.72512199095E+02  0.72512199095E+02  0.00000000000E+00 0. -1.
         21   -1    0    0  501  502 -0.00000000000E+00 -0.00000000000E+00 -0.72367524082E+03  0.72367524082E+03  0.00000000000E+00 0. -1.
      99926    2    1    2    0    0  0.00000000000E+00 -0.71054273576E-14 -0.65116304172E+03  0.79618743991E+03  0.45814968358E+03 0.  0.
      99925    2    3    3    0    0  0.67696678186E+02  0.61465074006E+02 -0.53345163730E+03  0.60159998299E+03  0.26266155912E+03 0.  0.
         25    1    4    4    0    0 -0.54572493161E+01  0.28478389849E+02 -0.22078965633E+03  0.25541413567E+03  0.12509000000E+03 0.  0.
         25    1    3    3    0    0 -0.67696678186E+02 -0.61465074006E+02 -0.11771140443E+03  0.19458745692E+03  0.12509000000E+03 0.  0.
         25    1    4    4    0    0  0.73153927502E+02  0.32986684157E+02 -0.31266198097E+03  0.34618584732E+03  0.12509000000E+03 0.  0.
<mgrwt>
<rscale>  2 0.45814968E+03</rscale>
<asrwt>0</asrwt>
<pdfrwt beam="1">  1       21 0.10663559E-01 0.45814968E+03</pdfrwt>
<pdfrwt beam="2">  1       21 0.10642283E+00 0.45814968E+03</pdfrwt>
<totfact> 0.46782604E+04</totfact>
</mgrwt>
</event>
<event>
 7    0  0.4691878E-002  0.4471625E+03  0.7546771E-02  0.1028572E+00
         21   -1    0    0  502  501  0.00000000000E+00  0.00000000000E+00  0.59153701811E+02  0.59153701811E+02  0.00000000000E+00 0. -1.
         21   -1    0    0  501  502 -0.00000000000E+00 -0.00000000000E+00 -0.84506232356E+03  0.84506232356E+03  0.00000000000E+00 0. -1.
      99926    2    1    2    0    0  0.71054273576E-14  0.00000000000E+00 -0.78590862175E+03  0.90421602537E+03  0.44716245236E+03 0.  0.
      99925    2    3    3    0    0 -0.56044503977E+02  0.83306491376E+02 -0.43176304078E+03  0.51543902174E+03  0.26301540605E+03 0.  0.
         25    1    3    3    0    0  0.56044503977E+02 -0.83306491376E+02 -0.35414558097E+03  0.38877700363E+03  0.12509000000E+03 0.  0.
         25    1    4    4    0    0 -0.61436900946E+02  0.60609587110E+02 -0.26750000467E+03  0.30765528671E+03  0.12509000000E+03 0.  0.
         25    1    4    4    0    0  0.53923969695E+01  0.22696904266E+02 -0.16426303611E+03  0.20778373503E+03  0.12509000000E+03 0.  0.
<mgrwt>
<rscale>  2 0.44716245E+03</rscale>
<asrwt>0</asrwt>
<pdfrwt beam="1">  1       21 0.86990734E-02 0.44716245E+03</pdfrwt>
<pdfrwt beam="2">  1       21 0.12427388E+00 0.44716245E+03</pdfrwt>
<totfact> 0.45796967E+04</totfact>
</mgrwt>
</event>
<event>
 7    0  0.4691878E-002  0.4526595E+03  0.7546771E-02  0.1026932E+00
         21   -1    0    0  502  501  0.00000000000E+00  0.00000000000E+00  0.52178095656E+03  0.52178095656E+03  0.00000000000E+00 0. -1.
         21   -1    0    0  501  502 -0.00000000000E+00 -0.00000000000E+00 -0.98173673976E+02  0.98173673976E+02  0.00000000000E+00 0. -1.
      99926    2    1    2    0    0  0.00000000000E+00  0.88817841970E-15  0.42360728258E+03  0.61995463053E+03  0.45265949020E+03 0.  0.
      99925    2    3    3    0    0 -0.79418835122E+02 -0.19150169358E+01  0.16100201446E+03  0.31842510693E+03  0.26298646619E+03 0.  0.
         25    1    4    4    0    0 -0.15604221860E+02  0.78406169124E+01  0.11365069220E+03  0.16990866650E+03  0.12509000000E+03 0.  0.
         25    1    3    3    0    0  0.79418835122E+02  0.19150169358E+01  0.26260526812E+03  0.30152952361E+03  0.12509000000E+03 0.  0.
         25    1    4    4    0    0 -0.63814613263E+02 -0.97556338482E+01  0.47351322258E+02  0.14851644043E+03  0.12509000000E+03 0.  0.
<mgrwt>
<rscale>  2 0.45265949E+03</rscale>
<asrwt>0</asrwt>
<pdfrwt beam="1">  1       21 0.76732492E-01 0.45265949E+03</pdfrwt>
<pdfrwt beam="2">  1       21 0.14437305E-01 0.45265949E+03</pdfrwt>
<totfact> 0.58540974E+04</totfact>
</mgrwt>
</event>
<event>
 7    0  0.4691878E-002  0.4552851E+03  0.7546771E-02  0.1026158E+00
         21   -1    0    0  502  501  0.00000000000E+00  0.00000000000E+00  0.41283025400E+03  0.41283025400E+03  0.00000000000E+00 0.  1.
         21   -1    0    0  501  502 -0.00000000000E+00 -0.00000000000E+00 -0.12552648597E+03  0.12552648597E+03  0.00000000000E+00 0.  1.
      99926    2    1    2    0    0 -0.14210854715E-13 -0.71054273576E-14  0.28730376803E+03  0.53835673998E+03  0.45528510228E+03 0.  0.
      99925    2    3    3    0    0  0.10132943672E+03  0.49447408703E+02  0.16596105192E+03  0.33078924776E+03  0.26299383016E+03 0.  0.
         25    1    3    3    0    0 -0.10132943672E+03 -0.49447408703E+02  0.12134271611E+03  0.20756749222E+03  0.12509000000E+03 0.  0.
         25    1    4    4    0    0  0.11631672484E+02  0.29931817844E+02  0.56837596361E+02  0.14110007082E+03  0.12509000000E+03 0.  0.
         25    1    4    4    0    0  0.89697764238E+02  0.19515590859E+02  0.10912345556E+03  0.18968917694E+03  0.12509000000E+03 0.  0.
<mgrwt>
<rscale>  2 0.45528510E+03</rscale>
<asrwt>0</asrwt>
<pdfrwt beam="1">  1       21 0.60710331E-01 0.45528510E+03</pdfrwt>
<pdfrwt beam="2">  1       21 0.18459777E-01 0.45528510E+03</pdfrwt>
<totfact> 0.62501381E+04</totfact>
</mgrwt>
</event>
<event>
 7    0  0.4691878E-002  0.4594373E+03  0.7546771E-02  0.1024945E+00
         21   -1    0    0  502  501  0.00000000000E+00  0.00000000000E+00  0.32429055792E+03  0.32429055792E+03  0.00000000000E+00 0.  1.
         21   -1    0    0  501  502 -0.00000000000E+00 -0.00000000000E+00 -0.16272644594E+03  0.16272644594E+03  0.00000000000E+00 0.  1.
      99926    2    1    2    0    0  0.00000000000E+00  0.00000000000E+00  0.16156411199E+03  0.48701700386E+03  0.45943726423E+03 0.  0.
      99925    2    3    3    0    0  0.11522601415E+03 -0.20581299052E+02  0.10913199399E+03  0.30785992389E+03  0.26299679925E+03 0.  0.
         25    1    4    4    0    0  0.43621342474E+02 -0.11056348241E+02  0.93588335744E+02  0.16257720948E+03  0.12509000000E+03 0.  0.
         25    1    3    3    0    0 -0.11522601415E+03  0.20581299052E+02  0.52432117992E+02  0.17915707997E+03  0.12509000000E+03 0.  0.
         25    1    4    4    0    0  0.71604671673E+02 -0.95249508112E+01  0.15543658249E+02  0.14528271441E+03  0.12509000000E+03 0.  0.
<mgrwt>
<rscale>  2 0.45943726E+03</rscale>
<asrwt>0</asrwt>
<pdfrwt beam="1">  1       21 0.47689788E-01 0.45943726E+03</pdfrwt>
<pdfrwt beam="2">  1       21 0.23930360E-01 0.45943726E+03</pdfrwt>
<totfact> 0.63911675E+04</totfact>
</mgrwt>
</event>
<event>
 6    0  0.4691878E-002  0.4507934E+03  0.7546771E-02  0.1027486E+00
         21   -1    0    0  502  501  0.00000000000E+00  0.00000000000E+00  0.26263980321E+03  0.26263980321E+03  0.00000000000E+00 0. -1.
         21   -1    0    0  501  502 -0.00000000000E+00 -0.00000000000E+00 -0.19343474556E+03  0.19343474556E+03  0.00000000000E+00 0. -1.
      99926    2    1    2    0    0  0.14210854715E-13  0.00000000000E+00  0.69205057642E+02  0.45607454877E+03  0.45079336068E+03 0.  0.
         25    1    3    3    0    0 -0.86251042727E+02 -0.18642688119E+02 -0.42135854934E+02  0.15877572410E+03  0.12509000000E+03 0.  0.
         25    1    3    3    0    0  0.10471040266E+02 -0.39470075397E+01  0.32993194731E+02  0.12985099365E+03  0.12509000000E+03 0.  0.
         25    1    3    3    0    0  0.75780002461E+02  0.22589695658E+02  0.78347717846E+02  0.16744783102E+03  0.12509000000E+03 0.  0.
<mgrwt>
<rscale>  2 0.45079336E+03</rscale>
<asrwt>0</asrwt>
<pdfrwt beam="1">  1       21 0.38623500E-01 0.45079336E+03</pdfrwt>
<pdfrwt beam="2">  1       21 0.28446286E-01 0.45079336E+03</pdfrwt>
<totfact> 0.70813466E+04</totfact>
</mgrwt>
</event>
<event>
 7    0  0.4691878E-002  0.4569215E+03  0.7546771E-02  0.1025678E+00
         21   -1    0    0  502  501  0.00000000000E+00  0.00000000000E+00  0.18190071603E+03  0.18190071603E+03  0.00000000000E+00 0.  1.
         21   -1    0    0  501  502 -0.00000000000E+00 -0.00000000000E+00 -0.28693843031E+03  0.28693843031E+03  0.00000000000E+00 0.  1.
      99926    2    1    2    0    0  0.00000000000E+00  0.00000000000E+00 -0.10503771427E+03  0.46883914634E+03  0.45692146340E+03 0.  0.
      99925    2    3    3    0    0  0.10940795354E+03 -0.31694533022E+02 -0.82091169034E+02  0.29810925511E+03  0.26297437941E+03 0.  0.
         25    1    4    4    0    0  0.85458469989E+02 -0.46110287219E+02 -0.42551239777E+02  0.16397385397E+03  0.12509000000E+03 0.  0.
         25    1    3    3    0    0 -0.10940795354E+03  0.31694533022E+02 -0.22946545239E+02  0.17072989123E+03  0.12509000000E+03 0.  0.
         25    1    4    4    0    0  0.23949483552E+02  0.14415754196E+02 -0.39539929257E+02  0.13413540113E+03  0.12509000000E+03 0.  0.
<mgrwt>
<rscale>  2 0.45692146E+03</rscale>
<asrwt>0</asrwt>
<pdfrwt beam="1">  1       21 0.26750105E-01 0.45692146E+03</pdfrwt>
<pdfrwt beam="2">  1       21 0.42196828E-01 0.45692146E+03</pdfrwt>
<totfact> 0.66502977E+04</totfact>
</mgrwt>
</event>
<event>
 7    0  0.4691878E-002  0.4545927E+03  0.7546771E-02  0.1026361E+00
         21   -1    0    0  502  501  0.00000000000E+00  0.00000000000E+00  0.12651901928E+04  0.12651901928E+04  0.00000000000E+00 0. -1.
         21   -1    0    0  501  502 -0.00000000000E+00 -0.00000000000E+00 -0.40834676220E+02  0.40834676220E+02  0.00000000000E+00 0. -1.
      99926    2    1    2    0    0  0.00000000000E+00  0.00000000000E+00  0.12243555166E+04  0.13060248691E+04  0.45459270509E+03 0.  0.
      99925    2    3    3    0    0 -0.46716781979E+02 -0.43380100789E+02  0.10391458418E+04  0.10736148379E+04  0.26222213605E+03 0.  0.
         25    1    3    3    0    0  0.46716781979E+02  0.43380100789E+02  0.18520967479E+03  0.23241003119E+03  0.12509000000E+03 0.  0.
         25    1    4    4    0    0 -0.48767011619E+02 -0.52924431153E+02  0.54317150276E+03  0.56201601966E+03  0.12509000000E+03 0.  0.
         25    1    4    4    0    0  0.20502296393E+01  0.95443303645E+01  0.49597433907E+03  0.51159881822E+03  0.12509000000E+03 0.  0.
<mgrwt>
<rscale>  2 0.45459271E+03</rscale>
<asrwt>0</asrwt>
<pdfrwt beam="1">  1       21 0.18605736E+00 0.45459271E+03</pdfrwt>
<pdfrwt beam="2">  1       21 0.60051003E-02 0.45459271E+03</pdfrwt>
<totfact> 0.29032059E+04</totfact>
</mgrwt>
</event>
<event>
 7    0  0.4691878E-002  0.4132219E+03  0.7546771E-02  0.1039295E+00
         21   -1    0    0  502  501  0.00000000000E+00  0.00000000000E+00  0.17114276472E+03  0.17114276472E+03  0.00000000000E+00 0. -1.
         21   -1    0    0  501  502 -0.00000000000E+00 -0.00000000000E+00 -0.24942968747E+03  0.24942968747E+03  0.00000000000E+00 0. -1.
      99926    2    1    2    0    0  0.00000000000E+00  0.00000000000E+00 -0.78286922745E+02  0.42057245219E+03  0.41322190802E+03 0.  0.
      99925    2    3    3    0    0 -0.23955010852E+02 -0.50237233967E+02 -0.89219222684E+02  0.28322382459E+03  0.26297916818E+03 0.  0.
         25    1    4    4    0    0  0.20965897823E+02 -0.10241835742E+02 -0.22497466974E+02  0.12922116000E+03  0.12509000000E+03 0.  0.
         25    1    3    3    0    0  0.23955010852E+02  0.50237233967E+02  0.10932299939E+02  0.13734862760E+03  0.12509000000E+03 0.  0.
         25    1    4    4    0    0 -0.44920908674E+02 -0.39995398225E+02 -0.66721755710E+02  0.15400266459E+03  0.12509000000E+03 0.  0.
<mgrwt>
<rscale>  2 0.41322191E+03</rscale>
<asrwt>0</asrwt>
<pdfrwt beam="1">  1       21 0.25168054E-01 0.41322191E+03</pdfrwt>
<pdfrwt beam="2">  1       21 0.36680836E-01 0.41322191E+03</pdfrwt>
<totfact> 0.10075590E+05</totfact>
</mgrwt>
</event>
<event>
 7    0  0.4691878E-002  0.4574865E+03  0.7546771E-02  0.1025513E+00
         21   -1    0    0  502  501  0.00000000000E+00  0.00000000000E+00  0.14819490391E+04  0.14819490391E+04  0.00000000000E+00 0.  1.
         21   -1    0    0  501  502 -0.00000000000E+00 -0.00000000000E+00 -0.35307195616E+02  0.35307195616E+02  0.00000000000E+00 0.  1.
      99926    2    1    2    0    0  0.00000000000E+00  0.00000000000E+00  0.14466418434E+04  0.15172562347E+04  0.45748645713E+03 0.  0.
      99925    2    3    3    0    0 -0.54375005720E+02  0.90878697556E+02  0.75526795748E+03  0.80672056547E+03  0.26296920779E+03 0.  0.
         25    1    4    4    0    0 -0.45206539470E+02  0.45725418499E+02  0.49080609577E+03  0.51056104126E+03  0.12509000000E+03 0.  0.
         25    1    4    4    0    0 -0.91684662508E+01  0.45153279056E+02  0.26446186171E+03  0.29615952421E+03  0.12509000000E+03 0.  0.
         25    1    3    3    0    0  0.54375005720E+02 -0.90878697556E+02  0.69137388596E+03  0.71053566920E+03  0.12509000000E+03 0.  0.
<mgrwt>
<rscale>  2 0.45748646E+03</rscale>
<asrwt>0</asrwt>
<pdfrwt beam="1">  1       21 0.21793364E+00 0.45748646E+03</pdfrwt>
<pdfrwt beam="2">  1       21 0.51922356E-02 0.45748646E+03</pdfrwt>
<totfact> 0.22913637E+04</totfact>
</mgrwt>
</event>
<event>
 6    0  0.4691878E-002  0.4537123E+03  0.7546771E-02  0.1026621E+00
         21   -1    0    0  502  501  0.00000000000E+00  0.00000000000E+00  0.14353364571E+02  0.14353364571E+02  0.00000000000E+00 0. -1.
         21   -1    0    0  501  502 -0.00000000000E+00 -0.00000000000E+00 -0.35854803669E+04  0.35854803669E+04  0.00000000000E+00 0. -1.
      99926    2    1    2    0    0  0.00000000000E+00  0.17763568394E-14 -0.35711270024E+04  0.35998337315E+04  0.45371227388E+03 0.  0.
         25    1    3    3    0    0  0.50711804599E+02  0.44931752966E+02 -0.10909610231E+04  0.11001972603E+04  0.12509000000E+03 0.  0.
         25    1    3    3    0    0 -0.84482546985E+02  0.63296911329E+01 -0.17341924206E+04  0.17407608180E+04  0.12509000000E+03 0.  0.
         25    1    3    3    0    0  0.33770742386E+02 -0.51261444099E+02 -0.74597355863E+03  0.75887565317E+03  0.12509000000E+03 0.  0.
<mgrwt>
<rscale>  2 0.45371227E+03</rscale>
<asrwt>0</asrwt>
<pdfrwt beam="1">  1       21 0.21107913E-02 0.45371227E+03</pdfrwt>
<pdfrwt beam="2">  1       21 0.52727593E+00 0.45371227E+03</pdfrwt>
<totfact> 0.10652853E+03</totfact>
</mgrwt>
</event>
<event>
 7    0  0.4691878E-002  0.4527396E+03  0.7546771E-02  0.1026908E+00
         21   -1    0    0  502  501  0.00000000000E+00  0.00000000000E+00  0.11873404909E+03  0.11873404909E+03  0.00000000000E+00 0.  1.
         21   -1    0    0  501  502 -0.00000000000E+00 -0.00000000000E+00 -0.43158046106E+03  0.43158046106E+03  0.00000000000E+00 0.  1.
      99926    2    1    2    0    0  0.35527136788E-14  0.00000000000E+00 -0.31284641197E+03  0.55031451014E+03  0.45273964107E+03 0.  0.
      99925    2    3    3    0    0  0.21769332222E+02  0.99857095368E+02 -0.14473740573E+03  0.31717616195E+03  0.26307120285E+03 0.  0.
         25    1    4    4    0    0 -0.42648740849E+01  0.83139386508E+02 -0.10119782098E+03  0.18115974666E+03  0.12509000000E+03 0.  0.
         25    1    4    4    0    0  0.26034206307E+02  0.16717708860E+02 -0.43539584755E+02  0.13601641529E+03  0.12509000000E+03 0.  0.
         25    1    3    3    0    0 -0.21769332222E+02 -0.99857095368E+02 -0.16810900624E+03  0.23313834819E+03  0.12509000000E+03 0.  0.
<mgrwt>
<rscale>  2 0.45273964E+03</rscale>
<asrwt>0</asrwt>
<pdfrwt beam="1">  1       21 0.17460889E-01 0.45273964E+03</pdfrwt>
<pdfrwt beam="2">  1       21 0.63467716E-01 0.45273964E+03</pdfrwt>
<totfact> 0.62964223E+04</totfact>
</mgrwt>
</event>
<event>
 7    0  0.4691878E-002  0.4390109E+03  0.7546771E-02  0.1031051E+00
         21   -1    0    0  502  501  0.00000000000E+00  0.00000000000E+00  0.14473699809E+03  0.14473699809E+03  0.00000000000E+00 0.  1.
         21   -1    0    0  501  502 -0.00000000000E+00 -0.00000000000E+00 -0.33289784885E+03  0.33289784885E+03  0.00000000000E+00 0.  1.
      99926    2    1    2    0    0  0.00000000000E+00  0.00000000000E+00 -0.18816085076E+03  0.47763484694E+03  0.43901086690E+03 0.  0.
      99925    2    3    3    0    0  0.68086294923E+02 -0.66419390096E+02 -0.14278141371E+03  0.31406810110E+03  0.26306835821E+03 0.  0.
         25    1    4    4    0    0  0.42755012585E+02 -0.12609417281E+02 -0.31718809894E+02  0.13653050760E+03  0.12509000000E+03 0.  0.
         25    1    3    3    0    0 -0.68086294923E+02  0.66419390096E+02 -0.45379437047E+02  0.16356674584E+03  0.12509000000E+03 0.  0.
         25    1    4    4    0    0  0.25331282339E+02 -0.53809972815E+02 -0.11106260381E+03  0.17753759350E+03  0.12509000000E+03 0.  0.
<mgrwt>
<rscale>  2 0.43901087E+03</rscale>
<asrwt>0</asrwt>
<pdfrwt beam="1">  1       21 0.21284853E-01 0.43901087E+03</pdfrwt>
<pdfrwt beam="2">  1       21 0.48955566E-01 0.43901087E+03</pdfrwt>
<totfact> 0.76080424E+04</totfact>
</mgrwt>
</event>
<event>
 7    0  0.4691878E-002  0.4497259E+03  0.7546771E-02  0.1027804E+00
         21   -1    0    0  502  501  0.00000000000E+00  0.00000000000E+00  0.45018756865E+02  0.45018756865E+02  0.00000000000E+00 0. -1.
         21   -1    0    0  501  502 -0.00000000000E+00 -0.00000000000E+00 -0.11231615580E+04  0.11231615580E+04  0.00000000000E+00 0. -1.
      99926    2    1    2    0    0 -0.35527136788E-14  0.00000000000E+00 -0.10781428011E+04  0.11681803148E+04  0.44972585916E+03 0.  0.
      99925    2    3    3    0    0  0.27552130886E+02  0.10059663177E+03 -0.60922704438E+03  0.67178501143E+03  0.26317049176E+03 0.  0.
         25    1    4    4    0    0 -0.15921986204E+02  0.51020747475E+02 -0.36571340628E+03  0.39019281125E+03  0.12509000000E+03 0.  0.
         25    1    3    3    0    0 -0.27552130886E+02 -0.10059663177E+03 -0.46891575672E+03  0.49639530340E+03  0.12509000000E+03 0.  0.
         25    1    4    4    0    0  0.43474117089E+02  0.49575884300E+02 -0.24351363810E+03  0.28159220018E+03  0.12509000000E+03 0.  0.
<mgrwt>
<rscale>  2 0.44972586E+03</rscale>
<asrwt>0</asrwt>
<pdfrwt beam="1">  1       21 0.66204055E-02 0.44972586E+03</pdfrwt>
<pdfrwt beam="2">  1       21 0.16517082E+00 0.44972586E+03</pdfrwt>
<totfact> 0.34580599E+04</totfact>
</mgrwt>
</event>
<event>
 7    0  0.4691878E-002  0.4602093E+03  0.7546771E-02  0.1024721E+00
         21   -1    0    0  502  501  0.00000000000E+00  0.00000000000E+00  0.12805185673E+03  0.12805185673E+03  0.00000000000E+00 0.  1.
         21   -1    0    0  501  502 -0.00000000000E+00 -0.00000000000E+00 -0.41348988403E+03  0.41348988403E+03  0.00000000000E+00 0.  1.
      99926    2    1    2    0    0  0.00000000000E+00  0.35527136788E-14 -0.28543802731E+03  0.54154174076E+03  0.46020928886E+03 0.  0.
      99925    2    3    3    0    0 -0.61391481539E+02 -0.28994062695E+02 -0.29244986770E+03  0.39904176293E+03  0.26286466815E+03 0.  0.
         25    1    4    4    0    0 -0.13584435445E+02 -0.39397462493E+02 -0.10560322790E+03  0.16892674974E+03  0.12509000000E+03 0.  0.
         25    1    3    3    0    0  0.61391481539E+02  0.28994062695E+02  0.70118403972E+01  0.14249997783E+03  0.12509000000E+03 0.  0.
         25    1    4    4    0    0 -0.47807046094E+02  0.10403399797E+02 -0.18684663981E+03  0.23011501318E+03  0.12509000000E+03 0.  0.
<mgrwt>
<rscale>  2 0.46020929E+03</rscale>
<asrwt>0</asrwt>
<pdfrwt beam="1">  1       21 0.18831156E-01 0.46020929E+03</pdfrwt>
<pdfrwt beam="2">  1       21 0.60807335E-01 0.46020929E+03</pdfrwt>
<totfact> 0.59919800E+04</totfact>
</mgrwt>
</event>
<event>
 7    0  0.4691878E-002  0.4493366E+03  0.7546771E-02  0.1027920E+00
         21   -1    0    0  502  501  0.00000000000E+00  0.00000000000E+00  0.26658661761E+03  0.26658661761E+03  0.00000000000E+00 0. -1.
         21   -1    0    0  501  502 -0.00000000000E+00 -0.00000000000E+00 -0.18934129559E+03  0.18934129559E+03  0.00000000000E+00 0. -1.
      99926    2    1    2    0    0  0.00000000000E+00  0.00000000000E+00  0.77245322017E+02  0.45592791319E+03  0.44933664691E+03 0.  0.
      99925    2    3    3    0    0  0.97855594506E+02  0.10453544350E+02  0.43610775515E+01  0.28087187886E+03  0.26303041530E+03 0.  0.
         25    1    4    4    0    0  0.64705417640E+02  0.29379904321E+02  0.31563964340E+02  0.14728802326E+03  0.12509000000E+03 0.  0.
         25    1    3    3    0    0 -0.97855594506E+02 -0.10453544350E+02  0.72884244465E+02  0.17505603433E+03  0.12509000000E+03 0.  0.
         25    1    4    4    0    0  0.33150176866E+02 -0.18926359972E+02 -0.27202886789E+02  0.13358385560E+03  0.12509000000E+03 0.  0.
<mgrwt>
<rscale>  2 0.44933665E+03</rscale>
<asrwt>0</asrwt>
<pdfrwt beam="1">  1       21 0.39203915E-01 0.44933665E+03</pdfrwt>
<pdfrwt beam="2">  1       21 0.27844308E-01 0.44933665E+03</pdfrwt>
<totfact> 0.71660257E+04</totfact>
</mgrwt>
</event>
<event>
 7    0  0.4691878E-002  0.4438097E+03  0.7546771E-02  0.1029584E+00
         21   -1    0    0  502  501  0.00000000000E+00  0.00000000000E+00  0.24390949107E+02  0.24390949107E+02  0.00000000000E+00 0.  1.
         21   -1    0    0  501  502 -0.00000000000E+00 -0.00000000000E+00 -0.20188540603E+04  0.20188540603E+04  0.00000000000E+00 0.  1.
      99926    2    1    2    0    0  0.00000000000E+00  0.00000000000E+00 -0.19944631112E+04  0.20432450094E+04  0.44380971886E+03 0.  0.
      99925    2    3    3    0    0 -0.67736722225E+02  0.74235077957E+02 -0.11755258496E+04  0.12087362576E+04  0.26283684481E+03 0.  0.
         25    1    4    4    0    0 -0.55105744567E+02  0.35481367187E+02 -0.45904248736E+03  0.48027396744E+03  0.12509000000E+03 0.  0.
         25    1    3    3    0    0  0.67736722225E+02 -0.74235077957E+02 -0.81893726155E+03  0.83450875177E+03  0.12509000000E+03 0.  0.
         25    1    4    4    0    0 -0.12630977658E+02  0.38753710769E+02 -0.71648336227E+03  0.72846229017E+03  0.12509000000E+03 0.  0.
<mgrwt>
<rscale>  2 0.44380972E+03</rscale>
<asrwt>0</asrwt>
<pdfrwt beam="1">  1       21 0.35869050E-02 0.44380972E+03</pdfrwt>
<pdfrwt beam="2">  1       21 0.29689025E+00 0.44380972E+03</pdfrwt>
<totfact> 0.14211597E+04</totfact>
</mgrwt>
</event>
<event>
 7    0  0.4691878E-002  0.4546627E+03  0.7546771E-02  0.1026341E+00
         21   -1    0    0  502  501  0.00000000000E+00  0.00000000000E+00  0.44376280982E+03  0.44376280982E+03  0.00000000000E+00 0. -1.
         21   -1    0    0  501  502 -0.00000000000E+00 -0.00000000000E+00 -0.11645755657E+03  0.11645755657E+03  0.00000000000E+00 0. -1.
      99926    2    1    2    0    0  0.00000000000E+00  0.17763568394E-14  0.32730525325E+03  0.56022036640E+03  0.45466265530E+03 0.  0.
      99925    2    3    3    0    0  0.22315423497E+02 -0.13382572370E+02  0.34135550218E+03  0.43168247718E+03  0.26296218524E+03 0.  0.
         25    1    4    4    0    0 -0.14550415136E+02 -0.37751402417E+02  0.17612349128E+03  0.21978142607E+03  0.12509000000E+03 0.  0.
         25    1    4    4    0    0  0.36865838633E+02  0.24368830047E+02  0.16523201089E+03  0.21190105111E+03  0.12509000000E+03 0.  0.
         25    1    3    3    0    0 -0.22315423497E+02  0.13382572370E+02 -0.14050248929E+02  0.12853788922E+03  0.12509000000E+03 0.  0.
<mgrwt>
<rscale>  2 0.45466266E+03</rscale>
<asrwt>0</asrwt>
<pdfrwt beam="1">  1       21 0.65259236E-01 0.45466266E+03</pdfrwt>
<pdfrwt beam="2">  1       21 0.17126111E-01 0.45466266E+03</pdfrwt>
<totfact> 0.61359717E+04</totfact>
</mgrwt>
</event>
<event>
 7    0  0.4691878E-002  0.4603817E+03  0.7546771E-02  0.1024671E+00
         21   -1    0    0  502  501  0.00000000000E+00  0.00000000000E+00  0.34081655641E+03  0.34081655641E+03  0.00000000000E+00 0.  1.
         21   -1    0    0  501  502 -0.00000000000E+00 -0.00000000000E+00 -0.15547316710E+03  0.15547316710E+03  0.00000000000E+00 0.  1.
      99926    2    1    2    0    0  0.00000000000E+00 -0.35527136788E-14  0.18534338932E+03  0.49628972351E+03  0.46038170869E+03 0.  0.
      99925    2    3    3    0    0 -0.11356029659E+03 -0.29543335403E+02  0.13089378072E+03  0.31634246011E+03  0.26300308099E+03 0.  0.
         25    1    4    4    0    0 -0.37717103431E+02 -0.48340964890E+02  0.49213094151E+02  0.14774594923E+03  0.12509000000E+03 0.  0.
         25    1    3    3    0    0  0.11356029659E+03  0.29543335403E+02  0.54449608599E+02  0.17994726340E+03  0.12509000000E+03 0.  0.
         25    1    4    4    0    0 -0.75843193160E+02  0.18797629487E+02  0.81680686566E+02  0.16859651088E+03  0.12509000000E+03 0.  0.
<mgrwt>
<rscale>  2 0.46038171E+03</rscale>
<asrwt>0</asrwt>
<pdfrwt beam="1">  1       21 0.50120082E-01 0.46038171E+03</pdfrwt>
<pdfrwt beam="2">  1       21 0.22863701E-01 0.46038171E+03</pdfrwt>
<totfact> 0.62805652E+04</totfact>
</mgrwt>
</event>
<event>
 7    0  0.4691878E-002  0.4565070E+03  0.7546771E-02  0.1025799E+00
         21   -1    0    0  502  501  0.00000000000E+00  0.00000000000E+00  0.12316904568E+03  0.12316904568E+03  0.00000000000E+00 0. -1.
         21   -1    0    0  501  502 -0.00000000000E+00 -0.00000000000E+00 -0.42299316882E+03  0.42299316882E+03  0.00000000000E+00 0. -1.
      99926    2    1    2    0    0  0.00000000000E+00 -0.88817841970E-15 -0.29982412314E+03  0.54616221450E+03  0.45650702047E+03 0.  0.
      99925    2    3    3    0    0 -0.87756404184E+02  0.47011138673E+01 -0.10063777686E+03  0.29507259785E+03  0.26309045768E+03 0.  0.
         25    1    4    4    0    0 -0.10116375427E+02 -0.10552897895E+02 -0.69404133985E+02  0.14379897990E+03  0.12509000000E+03 0.  0.
         25    1    3    3    0    0  0.87756404184E+02 -0.47011138673E+01 -0.19918634628E+03  0.25108961665E+03  0.12509000000E+03 0.  0.
         25    1    4    4    0    0 -0.77640028757E+02  0.15254011763E+02 -0.31233642873E+02  0.15127361795E+03  0.12509000000E+03 0.  0.
<mgrwt>
<rscale>  2 0.45650702E+03</rscale>
<asrwt>0</asrwt>
<pdfrwt beam="1">  1       21 0.18113095E-01 0.45650702E+03</pdfrwt>
<pdfrwt beam="2">  1       21 0.62204878E-01 0.45650702E+03</pdfrwt>
<totfact> 0.61385551E+04</totfact>
</mgrwt>
</event>
<event>
 7    0  0.4691878E-002  0.4154353E+03  0.7546771E-02  0.1038562E+00
         21   -1    0    0  502  501  0.00000000000E+00  0.00000000000E+00  0.47885902463E+03  0.47885902463E+03  0.00000000000E+00 0. -1.
         21   -1    0    0  501  502 -0.00000000000E+00 -0.00000000000E+00 -0.90102981422E+02  0.90102981422E+02  0.00000000000E+00 0. -1.
      99926    2    1    2    0    0 -0.71054273576E-14  0.71054273576E-14  0.38875604321E+03  0.56896200605E+03  0.41543531771E+03 0.  0.
      99925    2    3    3    0    0  0.61098478502E+02 -0.34095515660E+02  0.25702104251E+03  0.37429011087E+03  0.26294056846E+03 0.  0.
         25    1    4    4    0    0  0.32938608915E+02  0.16761091503E+02  0.94198392281E+02  0.16089354044E+03  0.12509000000E+03 0.  0.
         25    1    3    3    0    0 -0.61098478502E+02  0.34095515660E+02  0.13173500070E+03  0.19467189518E+03  0.12509000000E+03 0.  0.
         25    1    4    4    0    0  0.28159869587E+02 -0.50856607164E+02  0.16282265023E+03  0.21339657044E+03  0.12509000000E+03 0.  0.
<mgrwt>
<rscale>  2 0.41543532E+03</rscale>
<asrwt>0</asrwt>
<pdfrwt beam="1">  1       21 0.70420444E-01 0.41543532E+03</pdfrwt>
<pdfrwt beam="2">  1       21 0.13250439E-01 0.41543532E+03</pdfrwt>
<totfact> 0.83977975E+04</totfact>
</mgrwt>
</event>
<event>
 7    0  0.4691878E-002  0.4511787E+03  0.7546771E-02  0.1027371E+00
         21   -1    0    0  502  501  0.00000000000E+00  0.00000000000E+00  0.42344583841E+03  0.42344583841E+03  0.00000000000E+00 0. -1.
         21   -1    0    0  501  502 -0.00000000000E+00 -0.00000000000E+00 -0.12018195279E+03  0.12018195279E+03  0.00000000000E+00 0. -1.
      99926    2    1    2    0    0  0.00000000000E+00  0.00000000000E+00  0.30326388562E+03  0.54362779121E+03  0.45117866866E+03 0.  0.
      99925    2    3    3    0    0 -0.23120554276E+02  0.10707554043E+03  0.18770802208E+03  0.34114224336E+03  0.26295246198E+03 0.  0.
         25    1    4    4    0    0  0.14194424908E+02  0.62910180129E+02  0.59082618543E+02  0.15263497756E+03  0.12509000000E+03 0.  0.
         25    1    3    3    0    0  0.23120554276E+02 -0.10707554043E+03  0.11555586355E+03  0.20248554785E+03  0.12509000000E+03 0.  0.
         25    1    4    4    0    0 -0.37314979184E+02  0.44165360304E+02  0.12862540353E+03  0.18850726579E+03  0.12509000000E+03 0.  0.
<mgrwt>
<rscale>  2 0.45117867E+03</rscale>
<asrwt>0</asrwt>
<pdfrwt beam="1">  1       21 0.62271446E-01 0.45117867E+03</pdfrwt>
<pdfrwt beam="2">  1       21 0.17673817E-01 0.45117867E+03</pdfrwt>
<totfact> 0.64209255E+04</totfact>
</mgrwt>
</event>
<event>
 7    0  0.4691878E-002  0.4521727E+03  0.7546771E-02  0.1027076E+00
         21   -1    0    0  502  501  0.00000000000E+00  0.00000000000E+00  0.22631631312E+02  0.22631631312E+02  0.00000000000E+00 0.  1.
         21   -1    0    0  501  502 -0.00000000000E+00 -0.00000000000E+00 -0.22585662774E+04  0.22585662774E+04  0.00000000000E+00 0.  1.
      99926    2    1    2    0    0  0.00000000000E+00  0.00000000000E+00 -0.22359346460E+04  0.22811979087E+04  0.45217270720E+03 0.  0.
      99925    2    3    3    0    0 -0.19928716209E+02  0.10823252797E+03 -0.14672351461E+04  0.14946498408E+04  0.26284546533E+03 0.  0.
         25    1    4    4    0    0 -0.50365587899E+02  0.56004158502E+02 -0.74622629016E+03  0.76037776298E+03  0.12509000000E+03 0.  0.
         25    1    3    3    0    0  0.19928716209E+02 -0.10823252797E+03 -0.76869949994E+03  0.78654806792E+03  0.12509000000E+03 0.  0.
         25    1    4    4    0    0  0.30436871689E+02  0.52228369470E+02 -0.72100885595E+03  0.73427207777E+03  0.12509000000E+03 0.  0.
<mgrwt>
<rscale>  2 0.45217271E+03</rscale>
<asrwt>0</asrwt>
<pdfrwt beam="1">  1       21 0.33281782E-02 0.45217271E+03</pdfrwt>
<pdfrwt beam="2">  1       21 0.33214239E+00 0.45217271E+03</pdfrwt>
<totfact> 0.98525662E+03</totfact>
</mgrwt>
</event>
<event>
 7    0  0.4691878E-002  0.4542962E+03  0.7546771E-02  0.1026449E+00
         21   -1    0    0  502  501  0.00000000000E+00  0.00000000000E+00  0.21645654047E+03  0.21645654047E+03  0.00000000000E+00 0.  1.
         21   -1    0    0  501  502 -0.00000000000E+00 -0.00000000000E+00 -0.23836774702E+03  0.23836774702E+03  0.00000000000E+00 0.  1.
      99926    2    1    2    0    0  0.00000000000E+00  0.71054273576E-14 -0.21911206548E+02  0.45482428749E+03  0.45429619359E+03 0.  0.
      99925    2    3    3    0    0  0.42742840186E+02  0.32303058215E+02  0.85105973574E+02  0.28170403189E+03  0.26314197097E+03 0.  0.
         25    1    4    4    0    0  0.22906156924E+02  0.39939492608E+02  0.86688332464E+01  0.13357586558E+03  0.12509000000E+03 0.  0.
         25    1    4    4    0    0  0.19836683262E+02 -0.76364343932E+01  0.76437140327E+02  0.14812816631E+03  0.12509000000E+03 0.  0.
         25    1    3    3    0    0 -0.42742840186E+02 -0.32303058215E+02 -0.10701718012E+03  0.17312025560E+03  0.12509000000E+03 0.  0.
<mgrwt>
<rscale>  2 0.45429619E+03</rscale>
<asrwt>0</asrwt>
<pdfrwt beam="1">  1       21 0.31831844E-01 0.45429619E+03</pdfrwt>
<pdfrwt beam="2">  1       21 0.35054080E-01 0.45429619E+03</pdfrwt>
<totfact> 0.68945046E+04</totfact>
</mgrwt>
</event>
<event>
 7    0  0.4691878E-002  0.4588662E+03  0.7546771E-02  0.1025111E+00
         21   -1    0    0  502  501  0.00000000000E+00  0.00000000000E+00  0.92635360692E+03  0.92635360692E+03  0.00000000000E+00 0.  1.
         21   -1    0    0  501  502 -0.00000000000E+00 -0.00000000000E+00 -0.56824469472E+02  0.56824469472E+02  0.00000000000E+00 0.  1.
      99926    2    1    2    0    0 -0.71054273576E-14  0.00000000000E+00  0.86952913745E+03  0.98317807639E+03  0.45886622128E+03 0.  0.
      99925    2    3    3    0    0 -0.51089846570E+02  0.65866848502E+02  0.72030713969E+03  0.77136842867E+03  0.26309363942E+03 0.  0.
         25    1    3    3    0    0  0.51089846570E+02 -0.65866848502E+02  0.14922199776E+03  0.21180964772E+03  0.12509000000E+03 0.  0.
         25    1    4    4    0    0 -0.16633442582E+00  0.11478837565E+02  0.40573600701E+03  0.42473639691E+03  0.12509000000E+03 0.  0.
         25    1    4    4    0    0 -0.50923512144E+02  0.54388010937E+02  0.31457113269E+03  0.34663203176E+03  0.12509000000E+03 0.  0.
<mgrwt>
<rscale>  2 0.45886622E+03</rscale>
<asrwt>0</asrwt>
<pdfrwt beam="1">  1       21 0.13622846E+00 0.45886622E+03</pdfrwt>
<pdfrwt beam="2">  1       21 0.83565402E-02 0.45886622E+03</pdfrwt>
<totfact> 0.38644355E+04</totfact>
</mgrwt>
</event>
<event>
 7    0  0.4691878E-002  0.4369307E+03  0.7546771E-02  0.1031693E+00
         21   -1    0    0  502  501  0.00000000000E+00  0.00000000000E+00  0.93045181388E+03  0.93045181388E+03  0.00000000000E+00 0.  1.
         21   -1    0    0  501  502 -0.00000000000E+00 -0.00000000000E+00 -0.51294554219E+02  0.51294554219E+02  0.00000000000E+00 0.  1.
      99926    2    1    2    0    0  0.00000000000E+00  0.00000000000E+00  0.87915725966E+03  0.98174636810E+03  0.43693070853E+03 0.  0.
      99925    2    3    3    0    0  0.49901884968E+01 -0.73580541220E+02  0.69811678993E+03  0.74966414601E+03  0.26304045584E+03 0.  0.
         25    1    4    4    0    0 -0.18132876001E+02 -0.27567263241E+02  0.43471247947E+03  0.45355396934E+03  0.12509000000E+03 0.  0.
         25    1    3    3    0    0 -0.49901884968E+01  0.73580541220E+02  0.18104046973E+03  0.23208222208E+03  0.12509000000E+03 0.  0.
         25    1    4    4    0    0  0.23123064497E+02 -0.46013277979E+02  0.26340431046E+03  0.29611017668E+03  0.12509000000E+03 0.  0.
<mgrwt>
<rscale>  2 0.43693071E+03</rscale>
<asrwt>0</asrwt>
<pdfrwt beam="1">  1       21 0.13683114E+00 0.43693071E+03</pdfrwt>
<pdfrwt beam="2">  1       21 0.75433174E-02 0.43693071E+03</pdfrwt>
<totfact> 0.46048613E+04</totfact>
</mgrwt>
</event>
<event>
 7    0  0.4691878E-002  0.4649954E+03  0.7546771E-02  0.1023342E+00
         21   -1    0    0  502  501  0.00000000000E+00  0.00000000000E+00  0.14177602106E+04  0.14177602106E+04  0.00000000000E+00 0. -1.
         21   -1    0    0  501  502 -0.00000000000E+00 -0.00000000000E+00 -0.38127160750E+02  0.38127160750E+02  0.00000000000E+00 0. -1.
      99926    2    1    2    0    0  0.00000000000E+00  0.00000000000E+00  0.13796330498E+04  0.14558873713E+04  0.46499536107E+03 0.  0.
      99925    2    3    3    0    0  0.11157178397E+03 -0.48313465710E+01  0.10166470276E+04  0.10560399438E+04  0.26301630982E+03 0.  0.
         25    1    3    3    0    0 -0.11157178397E+03  0.48313465710E+01  0.36298602223E+03  0.39984742756E+03  0.12509000000E+03 0.  0.
         25    1    4    4    0    0  0.59964076854E+02 -0.30411945740E+02  0.40805864015E+03  0.43206473920E+03  0.12509000000E+03 0.  0.
         25    1    4    4    0    0  0.51607707120E+02  0.25580599169E+02  0.60858838747E+03  0.62397520459E+03  0.12509000000E+03 0.  0.
<mgrwt>
<rscale>  2 0.46499536E+03</rscale>
<asrwt>0</asrwt>
<pdfrwt beam="1">  1       21 0.20849411E+00 0.46499536E+03</pdfrwt>
<pdfrwt beam="2">  1       21 0.56069363E-02 0.46499536E+03</pdfrwt>
<totfact> 0.23038264E+04</totfact>
</mgrwt>
</event>
<event>
 7    0  0.4691878E-002  0.4708566E+03  0.7546771E-02  0.1021679E+00
         21   -1    0    0  502  501  0.00000000000E+00  0.00000000000E+00  0.24576266403E+03  0.24576266403E+03  0.00000000000E+00 0. -1.
         21   -1    0    0  501  502 -0.00000000000E+00 -0.00000000000E+00 -0.22552850732E+03  0.22552850732E+03  0.00000000000E+00 0. -1.
      99926    2    1    2    0    0  0.35527136788E-14  0.00000000000E+00  0.20234156713E+02  0.47129117135E+03  0.47085660991E+03 0.  0.
      99925    2    3    3    0    0 -0.29637966478E+02 -0.29751204843E+02  0.13297089593E+03  0.29773822923E+03  0.26306510741E+03 0.  0.
         25    1    4    4    0    0 -0.54469879277E+02 -0.53008978007E+01  0.67283966850E+02  0.15221598983E+03  0.12509000000E+03 0.  0.
         25    1    3    3    0    0  0.29637966478E+02  0.29751204843E+02 -0.11273673922E+03  0.17355294212E+03  0.12509000000E+03 0.  0.
         25    1    4    4    0    0  0.24831912799E+02 -0.24450307042E+02  0.65686929085E+02  0.14552223940E+03  0.12509000000E+03 0.  0.
<mgrwt>
<rscale>  2 0.47085661E+03</rscale>
<asrwt>0</asrwt>
<pdfrwt beam="1">  1       21 0.36141569E-01 0.47085661E+03</pdfrwt>
<pdfrwt beam="2">  1       21 0.33165957E-01 0.47085661E+03</pdfrwt>
<totfact> 0.59479438E+04</totfact>
</mgrwt>
</event>
<event>
 7    0  0.4691878E-002  0.4558391E+03  0.7546771E-02  0.1025995E+00
         21   -1    0    0  502  501  0.00000000000E+00  0.00000000000E+00  0.14084907810E+03  0.14084907810E+03  0.00000000000E+00 0. -1.
         21   -1    0    0  501  502 -0.00000000000E+00 -0.00000000000E+00 -0.36881541707E+03  0.36881541707E+03  0.00000000000E+00 0. -1.
      99926    2    1    2    0    0  0.00000000000E+00  0.00000000000E+00 -0.22796633897E+03  0.50966449517E+03  0.45583905704E+03 0.  0.
      99925    2    3    3    0    0  0.49851162046E+02  0.99561816036E+02 -0.11493688881E+03  0.30762277107E+03  0.26272340456E+03 0.  0.
         25    1    4    4    0    0 -0.15072019216E+02  0.53374646303E+02 -0.60918534184E+02  0.14978182312E+03  0.12509000000E+03 0.  0.
         25    1    4    4    0    0  0.64923181262E+02  0.46187169734E+02 -0.54018354628E+02  0.15784094795E+03  0.12509000000E+03 0.  0.
         25    1    3    3    0    0 -0.49851162046E+02 -0.99561816036E+02 -0.11302945016E+03  0.20204172409E+03  0.12509000000E+03 0.  0.
<mgrwt>
<rscale>  2 0.45583906E+03</rscale>
<asrwt>0</asrwt>
<pdfrwt beam="1">  1       21 0.20713100E-01 0.45583906E+03</pdfrwt>
<pdfrwt beam="2">  1       21 0.54237560E-01 0.45583906E+03</pdfrwt>
<totfact> 0.64168522E+04</totfact>
</mgrwt>
</event>
<event>
 7    0  0.4691878E-002  0.4576917E+03  0.7546771E-02  0.1025453E+00
         21   -1    0    0  502  501  0.00000000000E+00  0.00000000000E+00  0.20372316724E+03  0.20372316724E+03  0.00000000000E+00 0.  1.
         21   -1    0    0  501  502 -0.00000000000E+00 -0.00000000000E+00 -0.25706660406E+03  0.25706660406E+03  0.00000000000E+00 0.  1.
      99926    2    1    2    0    0  0.00000000000E+00  0.00000000000E+00 -0.53343436815E+02  0.46078977130E+03  0.45769169872E+03 0.  0.
      99925    2    3    3    0    0  0.91140069867E+02 -0.60298986854E+02  0.47958277335E+01  0.28480635636E+03  0.26296231766E+03 0.  0.
         25    1    3    3    0    0 -0.91140069867E+02  0.60298986854E+02 -0.58139264548E+02  0.17598341494E+03  0.12509000000E+03 0.  0.
         25    1    4    4    0    0  0.39614170037E+02 -0.58131543831E+02  0.31408808068E+02  0.14691010918E+03  0.12509000000E+03 0.  0.
         25    1    4    4    0    0  0.51525899830E+02 -0.21674430236E+01 -0.26612980335E+02  0.13789624717E+03  0.12509000000E+03 0.  0.
<mgrwt>
<rscale>  2 0.45769170E+03</rscale>
<asrwt>0</asrwt>
<pdfrwt beam="1">  1       21 0.29959289E-01 0.45769170E+03</pdfrwt>
<pdfrwt beam="2">  1       21 0.37803913E-01 0.45769170E+03</pdfrwt>
<totfact> 0.66680072E+04</totfact>
</mgrwt>
</event>
<event>
 7    0  0.4691878E-002  0.4551420E+03  0.7546771E-02  0.1026200E+00
         21   -1    0    0  502  501  0.00000000000E+00  0.00000000000E+00  0.33653282478E+03  0.33653282478E+03  0.00000000000E+00 0.  1.
         21   -1    0    0  501  502 -0.00000000000E+00 -0.00000000000E+00 -0.15388860955E+03  0.15388860955E+03  0.00000000000E+00 0.  1.
      99926    2    1    2    0    0 -0.17763568394E-14  0.00000000000E+00  0.18264421523E+03  0.49042143433E+03  0.45514203705E+03 0.  0.
      99925    2    3    3    0    0 -0.11218657411E+02  0.55774059047E+02  0.22044541215E+03  0.34789760290E+03  0.26305884974E+03 0.  0.
         25    1    3    3    0    0  0.11218657411E+02 -0.55774059047E+02 -0.37801196917E+02  0.14252383143E+03  0.12509000000E+03 0.  0.
         25    1    4    4    0    0  0.11794260681E+01  0.61485685300E+02  0.86156794690E+02  0.16386696407E+03  0.12509000000E+03 0.  0.
         25    1    4    4    0    0 -0.12398083479E+02 -0.57116262537E+01  0.13428861746E+03  0.18403063883E+03  0.12509000000E+03 0.  0.
<mgrwt>
<rscale>  2 0.45514204E+03</rscale>
<asrwt>0</asrwt>
<pdfrwt beam="1">  1       21 0.49490121E-01 0.45514204E+03</pdfrwt>
<pdfrwt beam="2">  1       21 0.22630678E-01 0.45514204E+03</pdfrwt>
<totfact> 0.65874651E+04</totfact>
</mgrwt>
</event>
<event>
 7    0  0.4691878E-002  0.4487601E+03  0.7546771E-02  0.1028092E+00
         21   -1    0    0  502  501  0.00000000000E+00  0.00000000000E+00  0.11275696504E+04  0.11275696504E+04  0.00000000000E+00 0. -1.
         21   -1    0    0  501  502 -0.00000000000E+00 -0.00000000000E+00 -0.44650378877E+02  0.44650378877E+02  0.00000000000E+00 0. -1.
      99926    2    1    2    0    0  0.71054273576E-14 -0.17763568394E-14  0.10829192715E+04  0.11722200292E+04  0.44876012344E+03 0.  0.
      99925    2    3    3    0    0 -0.52415286420E+02  0.12412136727E+02  0.92754762400E+03  0.96560618573E+03  0.26296252154E+03 0.  0.
         25    1    3    3    0    0  0.52415286420E+02 -0.12412136727E+02  0.15537164748E+03  0.20661384351E+03  0.12509000000E+03 0.  0.
         25    1    4    4    0    0 -0.60006146604E+02  0.24234952533E+02  0.54374272024E+03  0.56168650016E+03  0.12509000000E+03 0.  0.
         25    1    4    4    0    0  0.75908601835E+01 -0.11822815806E+02  0.38380490377E+03  0.40391968556E+03  0.12509000000E+03 0.  0.
<mgrwt>
<rscale>  2 0.44876012E+03</rscale>
<asrwt>0</asrwt>
<pdfrwt beam="1">  1       21 0.16581905E+00 0.44876012E+03</pdfrwt>
<pdfrwt beam="2">  1       21 0.65662329E-02 0.44876012E+03</pdfrwt>
<totfact> 0.34706076E+04</totfact>
</mgrwt>
</event>
<event>
 7    0  0.4691878E-002  0.4565731E+03  0.7546771E-02  0.1025780E+00
         21   -1    0    0  502  501  0.00000000000E+00  0.00000000000E+00  0.11917672718E+03  0.11917672718E+03  0.00000000000E+00 0.  1.
         21   -1    0    0  501  502 -0.00000000000E+00 -0.00000000000E+00 -0.43728962088E+03  0.43728962088E+03  0.00000000000E+00 0.  1.
      99926    2    1    2    0    0  0.00000000000E+00  0.00000000000E+00 -0.31811289369E+03  0.55646634806E+03  0.45657308658E+03 0.  0.
      99925    2    3    3    0    0  0.89864072646E+02 -0.70780418147E+02 -0.19110377524E+03  0.34465453673E+03  0.26302219989E+03 0.  0.
         25    1    4    4    0    0  0.53266929647E+02 -0.40860887258E+02 -0.14571235257E+03  0.20343690839E+03  0.12509000000E+03 0.  0.
         25    1    3    3    0    0 -0.89864072646E+02  0.70780418147E+02 -0.12700911846E+03  0.21181181133E+03  0.12509000000E+03 0.  0.
         25    1    4    4    0    0  0.36597142998E+02 -0.29919530889E+02 -0.45391422663E+02  0.14121762835E+03  0.12509000000E+03 0.  0.
<mgrwt>
<rscale>  2 0.45657309E+03</rscale>
<asrwt>0</asrwt>
<pdfrwt beam="1">  1       21 0.17525989E-01 0.45657309E+03</pdfrwt>
<pdfrwt beam="2">  1       21 0.64307297E-01 0.45657309E+03</pdfrwt>
<totfact> 0.60682550E+04</totfact>
</mgrwt>
</event>
<event>
 7    0  0.4691878E-002  0.4500220E+03  0.7546771E-02  0.1027715E+00
         21   -1    0    0  502  501  0.00000000000E+00  0.00000000000E+00  0.95985617447E+02  0.95985617447E+02  0.00000000000E+00 0.  1.
         21   -1    0    0  501  502 -0.00000000000E+00 -0.00000000000E+00 -0.52747424530E+03  0.52747424530E+03  0.00000000000E+00 0.  1.
      99926    2    1    2    0    0  0.00000000000E+00  0.00000000000E+00 -0.43148862785E+03  0.62345986275E+03  0.45002196001E+03 0.  0.
      99925    2    3    3    0    0  0.90257046771E+02 -0.59644158730E+02 -0.25912608568E+03  0.38458727284E+03  0.26278752252E+03 0.  0.
         25    1    3    3    0    0 -0.90257046771E+02  0.59644158730E+02 -0.17236254218E+03  0.23887258990E+03  0.12509000000E+03 0.  0.
         25    1    4    4    0    0  0.24511709592E+02 -0.45041356181E+02 -0.84326807104E+02  0.15933633035E+03  0.12509000000E+03 0.  0.
         25    1    4    4    0    0  0.65745337179E+02 -0.14602802549E+02 -0.17479927857E+03  0.22525094249E+03  0.12509000000E+03 0.  0.
<mgrwt>
<rscale>  2 0.45002196E+03</rscale>
<asrwt>0</asrwt>
<pdfrwt beam="1">  1       21 0.14115532E-01 0.45002196E+03</pdfrwt>
<pdfrwt beam="2">  1       21 0.77569744E-01 0.45002196E+03</pdfrwt>
<totfact> 0.59563780E+04</totfact>
</mgrwt>
</event>
<event>
 7    0  0.4691878E-002  0.4517814E+03  0.7546771E-02  0.1027192E+00
         21   -1    0    0  502  501  0.00000000000E+00  0.00000000000E+00  0.29805060139E+03  0.29805060139E+03  0.00000000000E+00 0. -1.
         21   -1    0    0  501  502 -0.00000000000E+00 -0.00000000000E+00 -0.17120112239E+03  0.17120112239E+03  0.00000000000E+00 0. -1.
      99926    2    1    2    0    0  0.00000000000E+00  0.00000000000E+00  0.12684947900E+03  0.46925172378E+03  0.45178135193E+03 0.  0.
      99925    2    3    3    0    0  0.57957932527E+02 -0.89308984823E+02  0.51090030480E+02  0.28835888574E+03  0.26306926666E+03 0.  0.
         25    1    3    3    0    0 -0.57957932527E+02  0.89308984823E+02  0.75759448525E+02  0.18089283804E+03  0.12509000000E+03 0.  0.
         25    1    4    4    0    0  0.68976267254E+02 -0.35799243193E+02  0.28696576327E+02  0.15003437223E+03  0.12509000000E+03 0.  0.
         25    1    4    4    0    0 -0.11018334726E+02 -0.53509741630E+02  0.22393454153E+02  0.13832451351E+03  0.12509000000E+03 0.  0.
<mgrwt>
<rscale>  2 0.45178135E+03</rscale>
<asrwt>0</asrwt>
<pdfrwt beam="1">  1       21 0.43830971E-01 0.45178135E+03</pdfrwt>
<pdfrwt beam="2">  1       21 0.25176636E-01 0.45178135E+03</pdfrwt>
<totfact> 0.69242736E+04</totfact>
</mgrwt>
</event>
<event>
 7    0  0.4691878E-002  0.4543042E+03  0.7546771E-02  0.1026446E+00
         21   -1    0    0  502  501  0.00000000000E+00  0.00000000000E+00  0.29855860968E+04  0.29855860968E+04  0.00000000000E+00 0.  1.
         21   -1    0    0  501  502 -0.00000000000E+00 -0.00000000000E+00 -0.17282394257E+02  0.17282394257E+02  0.00000000000E+00 0.  1.
      99926    2    1    2    0    0  0.71054273576E-14  0.00000000000E+00  0.29683037025E+04  0.30028684910E+04  0.45430419770E+03 0.  0.
      99925    2    3    3    0    0 -0.54132093821E+02 -0.86530641100E+01  0.12160305568E+04  0.12452809841E+04  0.26265805770E+03 0.  0.
         25    1    4    4    0    0 -0.33847770191E+02  0.27543220543E+02  0.71723168499E+03  0.72936485972E+03  0.12509000000E+03 0.  0.
         25    1    3    3    0    0  0.54132093821E+02  0.86530641100E+01  0.17522731457E+04  0.17575875069E+04  0.12509000000E+03 0.  0.
         25    1    4    4    0    0 -0.20284323630E+02 -0.36196284653E+02  0.49879887179E+03  0.51591612439E+03  0.12509000000E+03 0.  0.
<mgrwt>
<rscale>  2 0.45430420E+03</rscale>
<asrwt>0</asrwt>
<pdfrwt beam="1">  1       21 0.43905642E+00 0.45430420E+03</pdfrwt>
<pdfrwt beam="2">  1       21 0.25415306E-02 0.45430420E+03</pdfrwt>
<totfact> 0.32489522E+03</totfact>
</mgrwt>
</event>
<event>
 7    0  0.4691878E-002  0.4464547E+03  0.7546771E-02  0.1028785E+00
         21   -1    0    0  502  501  0.00000000000E+00  0.00000000000E+00  0.83052247483E+03  0.83052247483E+03  0.00000000000E+00 0. -1.
         21   -1    0    0  501  502 -0.00000000000E+00 -0.00000000000E+00 -0.59998912747E+02  0.59998912747E+02  0.00000000000E+00 0. -1.
      99926    2    1    2    0    0  0.00000000000E+00 -0.17763568394E-14  0.77052356208E+03  0.89052138757E+03  0.44645468080E+03 0.  0.
      99925    2    3    3    0    0  0.69354942112E+02 -0.14059657016E+02  0.64313977398E+03  0.69847472782E+03  0.26311669384E+03 0.  0.
         25    1    4    4    0    0  0.19617684317E+02 -0.24313652563E+02  0.40130307132E+03  0.42150642984E+03  0.12509000000E+03 0.  0.
         25    1    3    3    0    0 -0.69354942112E+02  0.14059657016E+02  0.12738378810E+03  0.19204665975E+03  0.12509000000E+03 0.  0.
         25    1    4    4    0    0  0.49737257795E+02  0.10253995547E+02  0.24183670266E+03  0.27696829799E+03  0.12509000000E+03 0.  0.
<mgrwt>
<rscale>  2 0.44645468E+03</rscale>
<asrwt>0</asrwt>
<pdfrwt beam="1">  1       21 0.12213565E+00 0.44645468E+03</pdfrwt>
<pdfrwt beam="2">  1       21 0.88233700E-02 0.44645468E+03</pdfrwt>
<totfact> 0.46692502E+04</totfact>
</mgrwt>
</event>
<event>
 7    0  0.4691878E-002  0.4602465E+03  0.7546771E-02  0.1024710E+00
         21   -1    0    0  502  501  0.00000000000E+00  0.00000000000E+00  0.94491874941E+02  0.94491874941E+02  0.00000000000E+00 0. -1.
         21   -1    0    0  501  502 -0.00000000000E+00 -0.00000000000E+00 -0.56043664136E+03  0.56043664136E+03  0.00000000000E+00 0. -1.
      99926    2    1    2    0    0  0.00000000000E+00  0.00000000000E+00 -0.46594476642E+03  0.65492851630E+03  0.46024649495E+03 0.  0.
      99925    2    3    3    0    0 -0.39802843987E+02 -0.25332511286E+02 -0.13774952726E+03  0.30054789377E+03  0.26292223503E+03 0.  0.
         25    1    3    3    0    0  0.39802843987E+02  0.25332511286E+02 -0.32819523916E+03  0.35438062253E+03  0.12509000000E+03 0.  0.
         25    1    4    4    0    0 -0.22974049276E+02 -0.32405088548E+02 -0.10971033299E+03  0.17106069674E+03  0.12509000000E+03 0.  0.
         25    1    4    4    0    0 -0.16828794712E+02  0.70725772623E+01 -0.28039194271E+02  0.12948719703E+03  0.12509000000E+03 0.  0.
<mgrwt>
<rscale>  2 0.46024649E+03</rscale>
<asrwt>0</asrwt>
<pdfrwt beam="1">  1       21 0.13895864E-01 0.46024649E+03</pdfrwt>
<pdfrwt beam="2">  1       21 0.82417156E-01 0.46024649E+03</pdfrwt>
<totfact> 0.53183082E+04</totfact>
</mgrwt>
</event>
<event>
 7    0  0.4691878E-002  0.4585799E+03  0.7546771E-02  0.1025194E+00
         21   -1    0    0  502  501  0.00000000000E+00  0.00000000000E+00  0.13187740222E+03  0.13187740222E+03  0.00000000000E+00 0.  1.
         21   -1    0    0  501  502 -0.00000000000E+00 -0.00000000000E+00 -0.39865726378E+03  0.39865726378E+03  0.00000000000E+00 0.  1.
      99926    2    1    2    0    0  0.00000000000E+00  0.00000000000E+00 -0.26677986156E+03  0.53053466600E+03  0.45857991375E+03 0.  0.
      99925    2    3    3    0    0  0.67697860973E+01  0.92423119705E+02 -0.85574678344E+02  0.29163994110E+03  0.26295050221E+03 0.  0.
         25    1    4    4    0    0  0.23385866046E+02  0.77237359246E+02 -0.66793405152E+02  0.16316058184E+03  0.12509000000E+03 0.  0.
         25    1    3    3    0    0 -0.67697860973E+01 -0.92423119705E+02 -0.18120518321E+03  0.23889472490E+03  0.12509000000E+03 0.  0.
         25    1    4    4    0    0 -0.16616079949E+02  0.15185760459E+02 -0.18781273192E+02  0.12847935926E+03  0.12509000000E+03 0.  0.
<mgrwt>
<rscale>  2 0.45857991E+03</rscale>
<asrwt>0</asrwt>
<pdfrwt beam="1">  1       21 0.19393736E-01 0.45857991E+03</pdfrwt>
<pdfrwt beam="2">  1       21 0.58626067E-01 0.45857991E+03</pdfrwt>
<totfact> 0.61409234E+04</totfact>
</mgrwt>
</event>
<event>
 7    0  0.4691878E-002  0.4043142E+03  0.7546771E-02  0.1042296E+00
         21   -1    0    0  502  501  0.00000000000E+00  0.00000000000E+00  0.23650725832E+03  0.23650725832E+03  0.00000000000E+00 0.  1.
         21   -1    0    0  501  502 -0.00000000000E+00 -0.00000000000E+00 -0.17279592694E+03  0.17279592694E+03  0.00000000000E+00 0.  1.
      99926    2    1    2    0    0  0.00000000000E+00  0.00000000000E+00  0.63711331378E+02  0.40930318526E+03  0.40431418936E+03 0.  0.
      99925    2    3    3    0    0 -0.42557289432E+02  0.18288607562E+02  0.15177555210E+02  0.26735730973E+03  0.26287635274E+03 0.  0.
         25    1    3    3    0    0  0.42557289432E+02 -0.18288607562E+02  0.48533776168E+02  0.14194587553E+03  0.12509000000E+03 0.  0.
         25    1    4    4    0    0  0.13706204730E+02 -0.10990067391E+02  0.28582705367E+00  0.12631797745E+03  0.12509000000E+03 0.  0.
         25    1    4    4    0    0 -0.56263494162E+02  0.29278674953E+02  0.14891728156E+02  0.14103933228E+03  0.12509000000E+03 0.  0.
<mgrwt>
<rscale>  2 0.40431419E+03</rscale>
<asrwt>0</asrwt>
<pdfrwt beam="1">  1       21 0.34780479E-01 0.40431419E+03</pdfrwt>
<pdfrwt beam="2">  1       21 0.25411166E-01 0.40431419E+03</pdfrwt>
<totfact> 0.11033241E+05</totfact>
</mgrwt>
</event>
<event>
 7    0  0.4691878E-002  0.4587993E+03  0.7546771E-02  0.1025130E+00
         21   -1    0    0  502  501  0.00000000000E+00  0.00000000000E+00  0.64904803526E+02  0.64904803526E+02  0.00000000000E+00 0. -1.
         21   -1    0    0  501  502 -0.00000000000E+00 -0.00000000000E+00 -0.81079068179E+03  0.81079068179E+03  0.00000000000E+00 0. -1.
      99926    2    1    2    0    0  0.00000000000E+00  0.00000000000E+00 -0.74588587826E+03  0.87569548531E+03  0.45879934569E+03 0.  0.
      99925    2    3    3    0    0  0.10722631807E+03 -0.38960732446E+02 -0.41790912641E+03  0.50659972563E+03  0.26264009998E+03 0.  0.
         25    1    4    4    0    0  0.64774806550E+02 -0.40668924448E+02 -0.27723553180E+03  0.31361885334E+03  0.12509000000E+03 0.  0.
         25    1    4    4    0    0  0.42451511516E+02  0.17081920026E+01 -0.14067359461E+03  0.19298087229E+03  0.12509000000E+03 0.  0.
         25    1    3    3    0    0 -0.10722631807E+03  0.38960732446E+02 -0.32797675185E+03  0.36909575968E+03  0.12509000000E+03 0.  0.
<mgrwt>
<rscale>  2 0.45879935E+03</rscale>
<asrwt>0</asrwt>
<pdfrwt beam="1">  1       21 0.95448240E-02 0.45879935E+03</pdfrwt>
<pdfrwt beam="2">  1       21 0.11923392E+00 0.45879935E+03</pdfrwt>
<totfact> 0.43007070E+04</totfact>
</mgrwt>
</event>
<event>
 7    0  0.4691878E-002  0.4554483E+03  0.7546771E-02  0.1026110E+00
         21   -1    0    0  502  501  0.00000000000E+00  0.00000000000E+00  0.10214905794E+04  0.10214905794E+04  0.00000000000E+00 0. -1.
         21   -1    0    0  501  502 -0.00000000000E+00 -0.00000000000E+00 -0.50767267859E+02  0.50767267859E+02  0.00000000000E+00 0. -1.
      99926    2    1    2    0    0  0.71054273576E-14  0.00000000000E+00  0.97072331154E+03  0.10722578473E+04  0.45544828844E+03 0.  0.
      99925    2    3    3    0    0  0.61245688967E+02 -0.72239533068E+02  0.75829109693E+03  0.80816593436E+03  0.26297757551E+03 0.  0.
         25    1    4    4    0    0  0.47491755090E+02 -0.15746750418E+02  0.28602325168E+03  0.31616488665E+03  0.12509000000E+03 0.  0.
         25    1    4    4    0    0  0.13753933877E+02 -0.56492782649E+02  0.47226784524E+03  0.49200104770E+03  0.12509000000E+03 0.  0.
         25    1    3    3    0    0 -0.61245688967E+02  0.72239533068E+02  0.21243221462E+03  0.26409191291E+03  0.12509000000E+03 0.  0.
<mgrwt>
<rscale>  2 0.45544829E+03</rscale>
<asrwt>0</asrwt>
<pdfrwt beam="1">  1       21 0.15021919E+00 0.45544829E+03</pdfrwt>
<pdfrwt beam="2">  1       21 0.74657753E-02 0.45544829E+03</pdfrwt>
<totfact> 0.36343838E+04</totfact>
</mgrwt>
</event>
<event>
 7    0  0.4691878E-002  0.4502092E+03  0.7546771E-02  0.1027660E+00
         21   -1    0    0  502  501  0.00000000000E+00  0.00000000000E+00  0.20411006942E+02  0.20411006942E+02  0.00000000000E+00 0.  1.
         21   -1    0    0  501  502 -0.00000000000E+00 -0.00000000000E+00 -0.24825855830E+04  0.24825855830E+04  0.00000000000E+00 0.  1.
      99926    2    1    2    0    0  0.00000000000E+00  0.00000000000E+00 -0.24621745760E+04  0.25029965899E+04  0.45020915837E+03 0.  0.
      99925    2    3    3    0    0 -0.58583259444E+02  0.81668287054E+02 -0.13063162550E+04  0.13360528579E+04  0.26167417433E+03 0.  0.
         25    1    4    4    0    0 -0.37895461114E+02  0.16692221234E+02 -0.49050483343E+03  0.50789486702E+03  0.12509000000E+03 0.  0.
         25    1    3    3    0    0  0.58583259444E+02 -0.81668287054E+02 -0.11558583210E+04  0.11669437320E+04  0.12509000000E+03 0.  0.
         25    1    4    4    0    0 -0.20687798330E+02  0.64976065820E+02 -0.81581142161E+03  0.82815799088E+03  0.12509000000E+03 0.  0.
<mgrwt>
<rscale>  2 0.45020916E+03</rscale>
<asrwt>0</asrwt>
<pdfrwt beam="1">  1       21 0.30016184E-02 0.45020916E+03</pdfrwt>
<pdfrwt beam="2">  1       21 0.36508615E+00 0.45020916E+03</pdfrwt>
<totfact> 0.73719376E+03</totfact>
</mgrwt>
</event>
<event>
 7    0  0.4691878E-002  0.4513397E+03  0.7546771E-02  0.1027323E+00
         21   -1    0    0  502  501  0.00000000000E+00  0.00000000000E+00  0.83438650982E+02  0.83438650982E+02  0.00000000000E+00 0. -1.
         21   -1    0    0  501  502 -0.00000000000E+00 -0.00000000000E+00 -0.61035126883E+03  0.61035126883E+03  0.00000000000E+00 0. -1.
      99926    2    1    2    0    0 -0.35527136788E-14  0.00000000000E+00 -0.52691261784E+03  0.69378991981E+03  0.45133972347E+03 0.  0.
      99925    2    3    3    0    0 -0.41071354558E+01  0.10483667128E+03 -0.38351212457E+03  0.47649103399E+03  0.26259200212E+03 0.  0.
         25    1    4    4    0    0  0.31924012591E+02  0.61381476092E+02 -0.16343056280E+03  0.21712642664E+03  0.12509000000E+03 0.  0.
         25    1    3    3    0    0  0.41071354558E+01 -0.10483667128E+03 -0.14340049328E+03  0.21729888582E+03  0.12509000000E+03 0.  0.
         25    1    4    4    0    0 -0.36031148047E+02  0.43455195184E+02 -0.22008156176E+03  0.25936460735E+03  0.12509000000E+03 0.  0.
<mgrwt>
<rscale>  2 0.45133972E+03</rscale>
<asrwt>0</asrwt>
<pdfrwt beam="1">  1       21 0.12270390E-01 0.45133972E+03</pdfrwt>
<pdfrwt beam="2">  1       21 0.89757539E-01 0.45133972E+03</pdfrwt>
<totfact> 0.54803380E+04</totfact>
</mgrwt>
</event>
<event>
 7    0  0.4691878E-002  0.4704331E+03  0.7546771E-02  0.1021798E+00
         21   -1    0    0  502  501  0.00000000000E+00  0.00000000000E+00  0.10425262931E+04  0.10425262931E+04  0.00000000000E+00 0. -1.
         21   -1    0    0  501  502 -0.00000000000E+00 -0.00000000000E+00 -0.53069960535E+02  0.53069960535E+02  0.00000000000E+00 0. -1.
      99926    2    1    2    0    0  0.00000000000E+00  0.14210854715E-13  0.98945633258E+03  0.10955962537E+04  0.47043311632E+03 0.  0.
      99925    2    3    3    0    0 -0.32894020215E+02 -0.12105377545E+03  0.66293364961E+03  0.72411192867E+03  0.26290878329E+03 0.  0.
         25    1    3    3    0    0  0.32894020215E+02  0.12105377545E+03  0.32652268297E+03  0.37148432498E+03  0.12509000000E+03 0.  0.
         25    1    4    4    0    0 -0.64494193057E+01 -0.37595066994E+02  0.22400098483E+03  0.25938182931E+03  0.12509000000E+03 0.  0.
         25    1    4    4    0    0 -0.26444600909E+02 -0.83458708455E+02  0.43893266479E+03  0.46473009936E+03  0.12509000000E+03 0.  0.
<mgrwt>
<rscale>  2 0.47043312E+03</rscale>
<asrwt>0</asrwt>
<pdfrwt beam="1">  1       21 0.15331268E+00 0.47043312E+03</pdfrwt>
<pdfrwt beam="2">  1       21 0.78044066E-02 0.47043312E+03</pdfrwt>
<totfact> 0.31660091E+04</totfact>
</mgrwt>
</event>
<event>
 7    0  0.4691878E-002  0.4550675E+03  0.7546771E-02  0.1026222E+00
         21   -1    0    0  502  501  0.00000000000E+00  0.00000000000E+00  0.14926814072E+03  0.14926814072E+03  0.00000000000E+00 0. -1.
         21   -1    0    0  501  502 -0.00000000000E+00 -0.00000000000E+00 -0.34683632852E+03  0.34683632852E+03  0.00000000000E+00 0. -1.
      99926    2    1    2    0    0 -0.14210854715E-13  0.00000000000E+00 -0.19756818780E+03  0.49610446924E+03  0.45506752859E+03 0.  0.
      99925    2    3    3    0    0  0.74684015955E+02  0.77101723382E+02 -0.16370118212E+03  0.32782832667E+03  0.26296569500E+03 0.  0.
         25    1    3    3    0    0 -0.74684015955E+02 -0.77101723382E+02 -0.33867005674E+02  0.16827614258E+03  0.12509000000E+03 0.  0.
         25    1    4    4    0    0 -0.26871110003E+01  0.23106221226E+02 -0.68753759305E+02  0.14462263150E+03  0.12509000000E+03 0.  0.
         25    1    4    4    0    0  0.77371126955E+02  0.53995502156E+02 -0.94947422819E+02  0.18320569516E+03  0.12509000000E+03 0.  0.
<mgrwt>
<rscale>  2 0.45506753E+03</rscale>
<asrwt>0</asrwt>
<pdfrwt beam="1">  1       21 0.21951197E-01 0.45506753E+03</pdfrwt>
<pdfrwt beam="2">  1       21 0.51005342E-01 0.45506753E+03</pdfrwt>
<totfact> 0.65510080E+04</totfact>
</mgrwt>
</event>
<event>
 7    0  0.4691878E-002  0.4512718E+03  0.7546771E-02  0.1027343E+00
         21   -1    0    0  502  501  0.00000000000E+00  0.00000000000E+00  0.55539570315E+03  0.55539570315E+03  0.00000000000E+00 0.  1.
         21   -1    0    0  501  502 -0.00000000000E+00 -0.00000000000E+00 -0.91667178480E+02  0.91667178480E+02  0.00000000000E+00 0.  1.
      99926    2    1    2    0    0 -0.14210854715E-13 -0.14210854715E-13  0.46372852467E+03  0.64706288163E+03  0.45127178971E+03 0.  0.
      99925    2    3    3    0    0 -0.70885456309E+02 -0.76463742384E+02  0.24495715486E+03  0.37433614630E+03  0.26315792007E+03 0.  0.
         25    1    4    4    0    0 -0.30081596744E+02 -0.46220138723E+02  0.17564463880E+03  0.22257527024E+03  0.12509000000E+03 0.  0.
         25    1    3    3    0    0  0.70885456309E+02  0.76463742384E+02  0.21877136982E+03  0.27272673534E+03  0.12509000000E+03 0.  0.
         25    1    4    4    0    0 -0.40803859565E+02 -0.30243603661E+02  0.69312516060E+02  0.15176087605E+03  0.12509000000E+03 0.  0.
<mgrwt>
<rscale>  2 0.45127179E+03</rscale>
<asrwt>0</asrwt>
<pdfrwt beam="1">  1       21 0.81675837E-01 0.45127179E+03</pdfrwt>
<pdfrwt beam="2">  1       21 0.13480468E-01 0.45127179E+03</pdfrwt>
<totfact> 0.57545034E+04</totfact>
</mgrwt>
</event>
<event>
 7    0  0.4691878E-002  0.4551137E+03  0.7546771E-02  0.1026208E+00
         21   -1    0    0  502  501  0.00000000000E+00  0.00000000000E+00  0.10171393037E+03  0.10171393037E+03  0.00000000000E+00 0.  1.
         21   -1    0    0  501  502 -0.00000000000E+00 -0.00000000000E+00 -0.50909570626E+03  0.50909570626E+03  0.00000000000E+00 0.  1.
      99926    2    1    2    0    0  0.71054273576E-14  0.00000000000E+00 -0.40738177589E+03  0.61080963663E+03  0.45511372302E+03 0.  0.
      99925    2    3    3    0    0  0.55499272884E+02 -0.97041645798E+02 -0.28049241951E+03  0.40046309596E+03  0.26305406957E+03 0.  0.
         25    1    4    4    0    0  0.14688923741E+02 -0.57421721565E+02 -0.88256488195E+02  0.16416374264E+03  0.12509000000E+03 0.  0.
         25    1    4    4    0    0  0.40810349143E+02 -0.39619924234E+02 -0.19223593132E+03  0.23629935333E+03  0.12509000000E+03 0.  0.
         25    1    3    3    0    0 -0.55499272884E+02  0.97041645798E+02 -0.12688935637E+03  0.21034654067E+03  0.12509000000E+03 0.  0.
<mgrwt>
<rscale>  2 0.45511372E+03</rscale>
<asrwt>0</asrwt>
<pdfrwt beam="1">  1       21 0.14957931E-01 0.45511372E+03</pdfrwt>
<pdfrwt beam="2">  1       21 0.74867016E-01 0.45511372E+03</pdfrwt>
<totfact> 0.57965707E+04</totfact>
</mgrwt>
</event>
<event>
 7    0  0.4691878E-002  0.4550235E+03  0.7546771E-02  0.1026234E+00
         21   -1    0    0  502  501  0.00000000000E+00  0.00000000000E+00  0.36265826705E+02  0.36265826705E+02  0.00000000000E+00 0.  1.
         21   -1    0    0  501  502 -0.00000000000E+00 -0.00000000000E+00 -0.14272832546E+04  0.14272832546E+04  0.00000000000E+00 0.  1.
      99926    2    1    2    0    0 -0.71054273576E-14  0.00000000000E+00 -0.13910174279E+04  0.14635490813E+04  0.45502354738E+03 0.  0.
      99925    2    3    3    0    0  0.44058313494E+02 -0.93853147364E+02 -0.72892493952E+03  0.78181341440E+03  0.26296596592E+03 0.  0.
         25    1    3    3    0    0 -0.44058313494E+02  0.93853147364E+02 -0.66209248834E+03  0.68173566687E+03  0.12509000000E+03 0.  0.
         25    1    4    4    0    0 -0.11828230641E+02 -0.22405630525E+02 -0.30627059360E+03  0.33179979494E+03  0.12509000000E+03 0.  0.
         25    1    4    4    0    0  0.55886544135E+02 -0.71447516839E+02 -0.42265434592E+03  0.45001361946E+03  0.12509000000E+03 0.  0.
<mgrwt>
<rscale>  2 0.45502355E+03</rscale>
<asrwt>0</asrwt>
<pdfrwt beam="1">  1       21 0.53332091E-02 0.45502355E+03</pdfrwt>
<pdfrwt beam="2">  1       21 0.20989462E+00 0.45502355E+03</pdfrwt>
<totfact> 0.24681959E+04</totfact>
</mgrwt>
</event>
<event>
 7    0  0.4691878E-002  0.4584854E+03  0.7546771E-02  0.1025221E+00
         21   -1    0    0  502  501  0.00000000000E+00  0.00000000000E+00  0.37812876752E+03  0.37812876752E+03  0.00000000000E+00 0. -1.
         21   -1    0    0  501  502 -0.00000000000E+00 -0.00000000000E+00 -0.13897970432E+03  0.13897970432E+03  0.00000000000E+00 0. -1.
      99926    2    1    2    0    0  0.00000000000E+00  0.00000000000E+00  0.23914906319E+03  0.51710847184E+03  0.45848543840E+03 0.  0.
      99925    2    3    3    0    0 -0.79852554511E+02 -0.37127895594E+02  0.61554617824E+02  0.28271093299E+03  0.26149873721E+03 0.  0.
         25    1    3    3    0    0  0.79852554511E+02  0.37127895594E+02  0.17759444537E+03  0.23439753885E+03  0.12509000000E+03 0.  0.
         25    1    4    4    0    0 -0.31961751885E+02 -0.23577116867E+02  0.68225795177E+02  0.14791788685E+03  0.12509000000E+03 0.  0.
         25    1    4    4    0    0 -0.47890802626E+02 -0.13550778727E+02 -0.66711773528E+01  0.13479304614E+03  0.12509000000E+03 0.  0.
<mgrwt>
<rscale>  2 0.45848544E+03</rscale>
<asrwt>0</asrwt>
<pdfrwt beam="1">  1       21 0.55607172E-01 0.45848544E+03</pdfrwt>
<pdfrwt beam="2">  1       21 0.20438192E-01 0.45848544E+03</pdfrwt>
<totfact> 0.62342559E+04</totfact>
</mgrwt>
</event>
<event>
 7    0  0.4691878E-002  0.5066320E+03  0.7546771E-02  0.1012062E+00
         21   -1    0    0  502  501  0.00000000000E+00  0.00000000000E+00  0.15515916010E+03  0.15515916010E+03  0.00000000000E+00 0. -1.
         21   -1    0    0  501  502 -0.00000000000E+00 -0.00000000000E+00 -0.41356886297E+03  0.41356886297E+03  0.00000000000E+00 0. -1.
      99926    2    1    2    0    0  0.00000000000E+00  0.00000000000E+00 -0.25840970287E+03  0.56872802307E+03  0.50663200619E+03 0.  0.
      99925    2    3    3    0    0 -0.86942152403E+02 -0.63654525181E+02 -0.28536536331E+02  0.28570855866E+03  0.26306693093E+03 0.  0.
         25    1    4    4    0    0 -0.46864266105E+02  0.61891441157E+01 -0.29492939115E+02  0.13693760075E+03  0.12509000000E+03 0.  0.
         25    1    3    3    0    0  0.86942152403E+02  0.63654525181E+02 -0.22987316654E+03  0.28301946441E+03  0.12509000000E+03 0.  0.
         25    1    4    4    0    0 -0.40077886299E+02 -0.69843669297E+02  0.95640278421E+00  0.14877095791E+03  0.12509000000E+03 0.  0.
<mgrwt>
<rscale>  2 0.50663201E+03</rscale>
<asrwt>0</asrwt>
<pdfrwt beam="1">  1       21 0.22817524E-01 0.50663201E+03</pdfrwt>
<pdfrwt beam="2">  1       21 0.60818950E-01 0.50663201E+03</pdfrwt>
<totfact> 0.41092642E+04</totfact>
</mgrwt>
</event>
<event>
 7    0  0.4691878E-002  0.4667205E+03  0.7546771E-02  0.1022850E+00
         21   -1    0    0  502  501  0.00000000000E+00  0.00000000000E+00  0.26048452189E+04  0.26048452189E+04  0.00000000000E+00 0. -1.
         21   -1    0    0  501  502 -0.00000000000E+00 -0.00000000000E+00 -0.20906039764E+02  0.20906039764E+02  0.00000000000E+00 0. -1.
      99926    2    1    2    0    0 -0.17763568394E-14 -0.14210854715E-13  0.25839391791E+04  0.26257512586E+04  0.46672046334E+03 0.  0.
      99925    2    3    3    0    0  0.12940676991E+02  0.12258059017E+03  0.16503767615E+04  0.16758145461E+04  0.26347196382E+03 0.  0.
         25    1    3    3    0    0 -0.12940676991E+02 -0.12258059017E+03  0.93356241756E+03  0.94993671252E+03  0.12509000000E+03 0.  0.
         25    1    4    4    0    0  0.45849285582E+01  0.23166437450E+02  0.86375312583E+03  0.87308343008E+03  0.12509000000E+03 0.  0.
         25    1    4    4    0    0  0.83557484332E+01  0.99414152716E+02  0.78662363569E+03  0.80273111602E+03  0.12509000000E+03 0.  0.
<mgrwt>
<rscale>  2 0.46672046E+03</rscale>
<asrwt>0</asrwt>
<pdfrwt beam="1">  1       21 0.38306525E+00 0.46672046E+03</pdfrwt>
<pdfrwt beam="2">  1       21 0.30744194E-02 0.46672046E+03</pdfrwt>
<totfact> 0.54179986E+03</totfact>
</mgrwt>
</event>
<event>
 7    0  0.4691878E-002  0.4531601E+03  0.7546771E-02  0.1026784E+00
         21   -1    0    0  502  501  0.00000000000E+00  0.00000000000E+00  0.65160966937E+03  0.65160966937E+03  0.00000000000E+00 0.  1.
         21   -1    0    0  501  502 -0.00000000000E+00 -0.00000000000E+00 -0.78787242530E+02  0.78787242530E+02  0.00000000000E+00 0.  1.
      99926    2    1    2    0    0  0.71054273576E-14 -0.14210854715E-13  0.57282242684E+03  0.73039691190E+03  0.45316014412E+03 0.  0.
      99925    2    3    3    0    0 -0.29484369005E+02  0.10762865250E+03  0.35476982956E+03  0.45535564566E+03  0.26274298699E+03 0.  0.
         25    1    4    4    0    0  0.47235084882E+01  0.58146474401E+02  0.23248255313E+03  0.27036821120E+03  0.12509000000E+03 0.  0.
         25    1    4    4    0    0 -0.34207877493E+02  0.49482178096E+02  0.12228727643E+03  0.18498743446E+03  0.12509000000E+03 0.  0.
         25    1    3    3    0    0  0.29484369005E+02 -0.10762865250E+03  0.21805259728E+03  0.27504126624E+03  0.12509000000E+03 0.  0.
<mgrwt>
<rscale>  2 0.45316014E+03</rscale>
<asrwt>0</asrwt>
<pdfrwt beam="1">  1       21 0.95824949E-01 0.45316014E+03</pdfrwt>
<pdfrwt beam="2">  1       21 0.11586360E-01 0.45316014E+03</pdfrwt>
<totfact> 0.52032219E+04</totfact>
</mgrwt>
</event>
<event>
 7    0  0.4691878E-002  0.4137862E+03  0.7546771E-02  0.1039108E+00
         21   -1    0    0  502  501  0.00000000000E+00  0.00000000000E+00  0.37440681167E+03  0.37440681167E+03  0.00000000000E+00 0. -1.
         21   -1    0    0  501  502 -0.00000000000E+00 -0.00000000000E+00 -0.11432685932E+03  0.11432685932E+03  0.00000000000E+00 0. -1.
      99926    2    1    2    0    0  0.13877787808E-14  0.00000000000E+00  0.26007995235E+03  0.48873367099E+03  0.41378620028E+03 0.  0.
      99925    2    3    3    0    0  0.18680087359E+00 -0.66586534431E+02  0.15642637152E+03  0.31316210615E+03  0.26299713602E+03 0.  0.
         25    1    4    4    0    0  0.31163681790E+02 -0.60145946673E+02  0.80540096565E+02  0.16347148136E+03  0.12509000000E+03 0.  0.
         25    1    4    4    0    0 -0.30976880916E+02 -0.64405877581E+01  0.75886274960E+02  0.14969062479E+03  0.12509000000E+03 0.  0.
         25    1    3    3    0    0 -0.18680087359E+00  0.66586534431E+02  0.10365358082E+03  0.17557156484E+03  0.12509000000E+03 0.  0.
<mgrwt>
<rscale>  2 0.41378620E+03</rscale>
<asrwt>0</asrwt>
<pdfrwt beam="1">  1       21 0.55059825E-01 0.41378620E+03</pdfrwt>
<pdfrwt beam="2">  1       21 0.16812774E-01 0.41378620E+03</pdfrwt>
<totfact> 0.92932707E+04</totfact>
</mgrwt>
</event>
<event>
 7    0  0.4691878E-002  0.4512210E+03  0.7546771E-02  0.1027359E+00
         21   -1    0    0  502  501  0.00000000000E+00  0.00000000000E+00  0.74576861025E+03  0.74576861025E+03  0.00000000000E+00 0. -1.
         21   -1    0    0  501  502 -0.00000000000E+00 -0.00000000000E+00 -0.68251862165E+02  0.68251862165E+02  0.00000000000E+00 0. -1.
      99926    2    1    2    0    0 -0.71054273576E-14  0.00000000000E+00  0.67751674809E+03  0.81402047241E+03  0.45122099416E+03 0.  0.
      99925    2    3    3    0    0 -0.43690557187E+02 -0.37906849324E+02  0.59570053113E+03  0.65374821821E+03  0.26302436389E+03 0.  0.
         25    1    3    3    0    0  0.43690557187E+02  0.37906849324E+02  0.81816216950E+02  0.16027225421E+03  0.12509000000E+03 0.  0.
         25    1    4    4    0    0 -0.55466658295E+02 -0.28877365427E+02  0.26060231991E+03  0.29575586158E+03  0.12509000000E+03 0.  0.
         25    1    4    4    0    0  0.11776101108E+02 -0.90294838967E+01  0.33509821122E+03  0.35799235662E+03  0.12509000000E+03 0.  0.
<mgrwt>
<rscale>  2 0.45122099E+03</rscale>
<asrwt>0</asrwt>
<pdfrwt beam="1">  1       21 0.10967185E+00 0.45122099E+03</pdfrwt>
<pdfrwt beam="2">  1       21 0.10037039E-01 0.45122099E+03</pdfrwt>
<totfact> 0.48516921E+04</totfact>
</mgrwt>
</event>
<event>
 7    0  0.4691878E-002  0.4568612E+03  0.7546771E-02  0.1025695E+00
         21   -1    0    0  502  501  0.00000000000E+00  0.00000000000E+00  0.12763871372E+03  0.12763871372E+03  0.00000000000E+00 0. -1.
         21   -1    0    0  501  502 -0.00000000000E+00 -0.00000000000E+00 -0.40881444585E+03  0.40881444585E+03  0.00000000000E+00 0. -1.
      99926    2    1    2    0    0  0.00000000000E+00  0.00000000000E+00 -0.28117573213E+03  0.53645315957E+03  0.45686124816E+03 0.  0.
      99925    2    3    3    0    0 -0.41787672960E+02 -0.10703158852E+03 -0.17109698743E+03  0.33405056895E+03  0.26289471839E+03 0.  0.
         25    1    4    4    0    0 -0.24006303698E+02 -0.71573258934E+02 -0.13256560219E+03  0.19728198346E+03  0.12509000000E+03 0.  0.
         25    1    3    3    0    0  0.41787672960E+02  0.10703158852E+03 -0.11007874470E+03  0.20240259062E+03  0.12509000000E+03 0.  0.
         25    1    4    4    0    0 -0.17781369262E+02 -0.35458329587E+02 -0.38531385235E+02  0.13676858549E+03  0.12509000000E+03 0.  0.
<mgrwt>
<rscale>  2 0.45686125E+03</rscale>
<asrwt>0</asrwt>
<pdfrwt beam="1">  1       21 0.18770399E-01 0.45686125E+03</pdfrwt>
<pdfrwt beam="2">  1       21 0.60119771E-01 0.45686125E+03</pdfrwt>
<totfact> 0.61854273E+04</totfact>
</mgrwt>
</event>
<event>
 7    0  0.4691878E-002  0.4577270E+03  0.7546771E-02  0.1025443E+00
         21   -1    0    0  502  501  0.00000000000E+00  0.00000000000E+00  0.89875402500E+02  0.89875402500E+02  0.00000000000E+00 0.  1.
         21   -1    0    0  501  502 -0.00000000000E+00 -0.00000000000E+00 -0.58279007809E+03  0.58279007809E+03  0.00000000000E+00 0.  1.
      99926    2    1    2    0    0  0.71054273576E-14  0.00000000000E+00 -0.49291467559E+03  0.67266548059E+03  0.45772696159E+03 0.  0.
      99925    2    3    3    0    0  0.33501360792E+02 -0.95532259636E+02 -0.39179445887E+03  0.48260875186E+03  0.26298204419E+03 0.  0.
         25    1    4    4    0    0 -0.77026382647E+01 -0.23568520588E+02 -0.22177812801E+03  0.25582777793E+03  0.12509000000E+03 0.  0.
         25    1    4    4    0    0  0.41203999056E+02 -0.71963739048E+02 -0.17001633086E+03  0.22678097392E+03  0.12509000000E+03 0.  0.
         25    1    3    3    0    0 -0.33501360792E+02  0.95532259636E+02 -0.10112021672E+03  0.19005672873E+03  0.12509000000E+03 0.  0.
<mgrwt>
<rscale>  2 0.45772696E+03</rscale>
<asrwt>0</asrwt>
<pdfrwt beam="1">  1       21 0.13216971E-01 0.45772696E+03</pdfrwt>
<pdfrwt beam="2">  1       21 0.85704423E-01 0.45772696E+03</pdfrwt>
<totfact> 0.53258485E+04</totfact>
</mgrwt>
</event>
<event>
 7    0  0.4691878E-002  0.4591568E+03  0.7546771E-02  0.1025026E+00
         21   -1    0    0  502  501  0.00000000000E+00  0.00000000000E+00  0.79272968079E+02  0.79272968079E+02  0.00000000000E+00 0. -1.
         21   -1    0    0  501  502 -0.00000000000E+00 -0.00000000000E+00 -0.66487017715E+03  0.66487017715E+03  0.00000000000E+00 0. -1.
      99926    2    1    2    0    0  0.00000000000E+00  0.00000000000E+00 -0.58559720907E+03  0.74414314523E+03  0.45915675898E+03 0.  0.
      99925    2    3    3    0    0  0.50358113256E+02  0.65537529261E+02 -0.23323856924E+03  0.36121335209E+03  0.26314206853E+03 0.  0.
         25    1    4    4    0    0  0.64615813188E+02  0.22207975578E+02 -0.11493107233E+03  0.18309848983E+03  0.12509000000E+03 0.  0.
         25    1    3    3    0    0 -0.50358113256E+02 -0.65537529261E+02 -0.35235863983E+03  0.38292979314E+03  0.12509000000E+03 0.  0.
         25    1    4    4    0    0 -0.14257699932E+02  0.43329553683E+02 -0.11830749692E+03  0.17811486225E+03  0.12509000000E+03 0.  0.
<mgrwt>
<rscale>  2 0.45915676E+03</rscale>
<asrwt>0</asrwt>
<pdfrwt beam="1">  1       21 0.11657789E-01 0.45915676E+03</pdfrwt>
<pdfrwt beam="2">  1       21 0.97775029E-01 0.45915676E+03</pdfrwt>
<totfact> 0.48951710E+04</totfact>
</mgrwt>
</event>
<event>
 7    0  0.4691878E-002  0.4589704E+03  0.7546771E-02  0.1025080E+00
         21   -1    0    0  502  501  0.00000000000E+00  0.00000000000E+00  0.16470239566E+04  0.16470239566E+04  0.00000000000E+00 0.  1.
         21   -1    0    0  501  502 -0.00000000000E+00 -0.00000000000E+00 -0.31974913355E+02  0.31974913355E+02  0.00000000000E+00 0.  1.
      99926    2    1    2    0    0  0.00000000000E+00  0.00000000000E+00  0.16150490432E+04  0.16789988699E+04  0.45897036203E+03 0.  0.
      99925    2    3    3    0    0  0.52609534500E+02 -0.65360714373E+02  0.13109798609E+04  0.13396681141E+04  0.26268360092E+03 0.  0.
         25    1    4    4    0    0  0.64610626535E+02 -0.44519507782E+02  0.65549227287E+03  0.67191825956E+03  0.12509000000E+03 0.  0.
         25    1    3    3    0    0 -0.52609534500E+02  0.65360714373E+02  0.30406918232E+03  0.33933075581E+03  0.12509000000E+03 0.  0.
         25    1    4    4    0    0 -0.12001092035E+02 -0.20841206591E+02  0.65548758803E+03  0.66774985456E+03  0.12509000000E+03 0.  0.
<mgrwt>
<rscale>  2 0.45897036E+03</rscale>
<asrwt>0</asrwt>
<pdfrwt beam="1">  1       21 0.24220935E+00 0.45897036E+03</pdfrwt>
<pdfrwt beam="2">  1       21 0.47021942E-02 0.45897036E+03</pdfrwt>
<totfact> 0.19106335E+04</totfact>
</mgrwt>
</event>
<event>
 7    0  0.4691878E-002  0.4405604E+03  0.7546771E-02  0.1030575E+00
         21   -1    0    0  502  501  0.00000000000E+00  0.00000000000E+00  0.25366520941E+03  0.25366520941E+03  0.00000000000E+00 0.  1.
         21   -1    0    0  501  502 -0.00000000000E+00 -0.00000000000E+00 -0.19128896959E+03  0.19128896959E+03  0.00000000000E+00 0.  1.
      99926    2    1    2    0    0  0.00000000000E+00  0.00000000000E+00  0.62376239822E+02  0.44495417900E+03  0.44056035468E+03 0.  0.
      99925    2    3    3    0    0  0.54007198180E+02  0.62813485135E+02  0.95050499279E+02  0.29140475145E+03  0.26271623548E+03 0.  0.
         25    1    4    4    0    0  0.23534083292E+02 -0.97156530844E+01  0.46536959304E+02  0.13587289528E+03  0.12509000000E+03 0.  0.
         25    1    3    3    0    0 -0.54007198180E+02 -0.62813485135E+02 -0.32674259457E+02  0.15354942755E+03  0.12509000000E+03 0.  0.
         25    1    4    4    0    0  0.30473114888E+02  0.72529138219E+02  0.48513539975E+02  0.15553185617E+03  0.12509000000E+03 0.  0.
<mgrwt>
<rscale>  2 0.44056035E+03</rscale>
<asrwt>0</asrwt>
<pdfrwt beam="1">  1       21 0.37303708E-01 0.44056035E+03</pdfrwt>
<pdfrwt beam="2">  1       21 0.28130731E-01 0.44056035E+03</pdfrwt>
<totfact> 0.77880344E+04</totfact>
</mgrwt>
</event>
<event>
 7    0  0.4691878E-002  0.4288678E+03  0.7546771E-02  0.1034218E+00
         21   -1    0    0  502  501  0.00000000000E+00  0.00000000000E+00  0.59370796848E+02  0.59370796848E+02  0.00000000000E+00 0. -1.
         21   -1    0    0  501  502 -0.00000000000E+00 -0.00000000000E+00 -0.77448668223E+03  0.77448668223E+03  0.00000000000E+00 0. -1.
      99926    2    1    2    0    0  0.00000000000E+00 -0.17763568394E-14 -0.71511588538E+03  0.83385747908E+03  0.42886777203E+03 0.  0.
      99925    2    3    3    0    0  0.59107639860E+02 -0.92872178575E+01 -0.34047979494E+03  0.43438323226E+03  0.26302535278E+03 0.  0.
         25    1    4    4    0    0 -0.42661537448E+01 -0.27621156796E+02 -0.15465793054E+03  0.20086739892E+03  0.12509000000E+03 0.  0.
         25    1    3    3    0    0 -0.59107639860E+02  0.92872178575E+01 -0.37463609045E+03  0.39947424682E+03  0.12509000000E+03 0.  0.
         25    1    4    4    0    0  0.63373793605E+02  0.18333938939E+02 -0.18582186440E+03  0.23351583334E+03  0.12509000000E+03 0.  0.
<mgrwt>
<rscale>  2 0.42886777E+03</rscale>
<asrwt>0</asrwt>
<pdfrwt beam="1">  1       21 0.87310002E-02 0.42886777E+03</pdfrwt>
<pdfrwt beam="2">  1       21 0.11389509E+00 0.42886777E+03</pdfrwt>
<totfact> 0.56984717E+04</totfact>
</mgrwt>
</event>
<event>
 7    0  0.4691878E-002  0.4617689E+03  0.7546771E-02  0.1024269E+00
         21   -1    0    0  502  501  0.00000000000E+00  0.00000000000E+00  0.85797158030E+03  0.85797158030E+03  0.00000000000E+00 0.  1.
         21   -1    0    0  501  502 -0.00000000000E+00 -0.00000000000E+00 -0.62132156185E+02  0.62132156185E+02  0.00000000000E+00 0.  1.
      99926    2    1    2    0    0  0.00000000000E+00  0.00000000000E+00  0.79583942411E+03  0.92010373648E+03  0.46176887825E+03 0.  0.
      99925    2    3    3    0    0  0.23499382149E+02  0.77650463335E+02  0.67246840312E+03  0.72658440324E+03  0.26292456413E+03 0.  0.
         25    1    3    3    0    0 -0.23499382149E+02 -0.77650463335E+02  0.12337102100E+03  0.19351933325E+03  0.12509000000E+03 0.  0.
         25    1    4    4    0    0  0.92480886341E+01  0.38901151314E+02  0.44232901958E+03  0.46141228460E+03  0.12509000000E+03 0.  0.
         25    1    4    4    0    0  0.14251293515E+02  0.38749312021E+02  0.23013938354E+03  0.26517211864E+03  0.12509000000E+03 0.  0.
<mgrwt>
<rscale>  2 0.46176888E+03</rscale>
<asrwt>0</asrwt>
<pdfrwt beam="1">  1       21 0.12617228E+00 0.46176888E+03</pdfrwt>
<pdfrwt beam="2">  1       21 0.91370823E-02 0.46176888E+03</pdfrwt>
<totfact> 0.40203249E+04</totfact>
</mgrwt>
</event>
<event>
 7    0  0.4691878E-002  0.4627065E+03  0.7546771E-02  0.1023999E+00
         21   -1    0    0  502  501  0.00000000000E+00  0.00000000000E+00  0.18158797186E+03  0.18158797186E+03  0.00000000000E+00 0. -1.
         21   -1    0    0  501  502 -0.00000000000E+00 -0.00000000000E+00 -0.29475699132E+03  0.29475699132E+03  0.00000000000E+00 0. -1.
      99926    2    1    2    0    0  0.35527136788E-14 -0.14210854715E-13 -0.11316901947E+03  0.47634496318E+03  0.46270649118E+03 0.  0.
      99925    2    3    3    0    0 -0.16356608035E+02 -0.10299212315E+03 -0.11352721377E+02  0.28427991505E+03  0.26421822375E+03 0.  0.
         25    1    4    4    0    0  0.54443931654E+01 -0.83478529737E+01 -0.10304102416E+02  0.12590873954E+03  0.12509000000E+03 0.  0.
         25    1    4    4    0    0 -0.21801001200E+02 -0.94644270178E+02 -0.10486189605E+01  0.15837117551E+03  0.12509000000E+03 0.  0.
         25    1    3    3    0    0  0.16356608035E+02  0.10299212315E+03 -0.10181629809E+03  0.19206504813E+03  0.12509000000E+03 0.  0.
<mgrwt>
<rscale>  2 0.46270649E+03</rscale>
<asrwt>0</asrwt>
<pdfrwt beam="1">  1       21 0.26704114E-01 0.46270649E+03</pdfrwt>
<pdfrwt beam="2">  1       21 0.43346616E-01 0.46270649E+03</pdfrwt>
<totfact> 0.63024516E+04</totfact>
</mgrwt>
</event>
<event>
 7    0  0.4691878E-002  0.4593537E+03  0.7546771E-02  0.1024969E+00
         21   -1    0    0  502  501  0.00000000000E+00  0.00000000000E+00  0.37028244790E+04  0.37028244790E+04  0.00000000000E+00 0. -1.
         21   -1    0    0  501  502 -0.00000000000E+00 -0.00000000000E+00 -0.14246275887E+02  0.14246275887E+02  0.00000000000E+00 0. -1.
      99926    2    1    2    0    0  0.00000000000E+00  0.00000000000E+00  0.36885782031E+04  0.37170707549E+04  0.45935371595E+03 0.  0.
      99925    2    3    3    0    0  0.39013888956E+02 -0.30008698518E+02  0.14515989358E+04  0.14760561730E+04  0.26302043659E+03 0.  0.
         25    1    3    3    0    0 -0.39013888956E+02  0.30008698518E+02  0.22369792674E+04  0.22410145819E+04  0.12509000000E+03 0.  0.
         25    1    4    4    0    0  0.64412858282E+01  0.19705606203E+02  0.79077170533E+03  0.80087277337E+03  0.12509000000E+03 0.  0.
         25    1    4    4    0    0  0.32572603128E+02 -0.49714304720E+02  0.66082723043E+03  0.67518339963E+03  0.12509000000E+03 0.  0.
<mgrwt>
<rscale>  2 0.45935372E+03</rscale>
<asrwt>0</asrwt>
<pdfrwt beam="1">  1       21 0.54453234E+00 0.45935372E+03</pdfrwt>
<pdfrwt beam="2">  1       21 0.20950431E-02 0.45935372E+03</pdfrwt>
<totfact> 0.80130515E+02</totfact>
</mgrwt>
</event>
<event>
 7    0  0.4691878E-002  0.4542132E+03  0.7546771E-02  0.1026473E+00
         21   -1    0    0  502  501  0.00000000000E+00  0.00000000000E+00  0.39269471679E+03  0.39269471679E+03  0.00000000000E+00 0.  1.
         21   -1    0    0  501  502 -0.00000000000E+00 -0.00000000000E+00 -0.13134227228E+03  0.13134227228E+03  0.00000000000E+00 0.  1.
      99926    2    1    2    0    0  0.00000000000E+00  0.00000000000E+00  0.26135244451E+03  0.52403698907E+03  0.45421323810E+03 0.  0.
      99925    2    3    3    0    0 -0.44675695613E+02  0.41470940423E+02  0.27366077118E+03  0.38434175048E+03  0.26289276673E+03 0.  0.
         25    1    3    3    0    0  0.44675695613E+02 -0.41470940423E+02 -0.12308326679E+02  0.13969523859E+03  0.12509000000E+03 0.  0.
         25    1    4    4    0    0 -0.14269914352E+02 -0.36540987343E+01  0.17663420609E+03  0.21694269694E+03  0.12509000000E+03 0.  0.
         25    1    4    4    0    0 -0.30405781261E+02  0.45125039157E+02  0.97026565096E+02  0.16739905354E+03  0.12509000000E+03 0.  0.
<mgrwt>
<rscale>  2 0.45421324E+03</rscale>
<asrwt>0</asrwt>
<pdfrwt beam="1">  1       21 0.57749223E-01 0.45421324E+03</pdfrwt>
<pdfrwt beam="2">  1       21 0.19315040E-01 0.45421324E+03</pdfrwt>
<totfact> 0.64010272E+04</totfact>
</mgrwt>
</event>
<event>
 7    0  0.4691878E-002  0.4564850E+03  0.7546771E-02  0.1025806E+00
         21   -1    0    0  502  501  0.00000000000E+00  0.00000000000E+00  0.10096703104E+03  0.10096703104E+03  0.00000000000E+00 0.  1.
         21   -1    0    0  501  502 -0.00000000000E+00 -0.00000000000E+00 -0.51595693680E+03  0.51595693680E+03  0.00000000000E+00 0.  1.
      99926    2    1    2    0    0 -0.13322676296E-14  0.14210854715E-13 -0.41498990576E+03  0.61692396784E+03  0.45648500546E+03 0.  0.
      99925    2    3    3    0    0 -0.30369247146E+01 -0.10958953280E+03 -0.21594219749E+03  0.35752738560E+03  0.26301275670E+03 0.  0.
         25    1    4    4    0    0  0.37627307190E+02 -0.65842917959E+02 -0.11411055497E+03  0.18552582286E+03  0.12509000000E+03 0.  0.
         25    1    3    3    0    0  0.30369247146E+01  0.10958953280E+03 -0.19904770828E+03  0.25939658225E+03  0.12509000000E+03 0.  0.
         25    1    4    4    0    0 -0.40664231904E+02 -0.43746614842E+02 -0.10183164252E+03  0.17200156274E+03  0.12509000000E+03 0.  0.
<mgrwt>
<rscale>  2 0.45648501E+03</rscale>
<asrwt>0</asrwt>
<pdfrwt beam="1">  1       21 0.14848093E-01 0.45648501E+03</pdfrwt>
<pdfrwt beam="2">  1       21 0.75876020E-01 0.45648501E+03</pdfrwt>
<totfact> 0.56977310E+04</totfact>
</mgrwt>
</event>
<event>
 7    0  0.4691878E-002  0.4550395E+03  0.7546771E-02  0.1026230E+00
         21   -1    0    0  502  501  0.00000000000E+00  0.00000000000E+00  0.40135441423E+03  0.40135441423E+03  0.00000000000E+00 0.  1.
         21   -1    0    0  501  502 -0.00000000000E+00 -0.00000000000E+00 -0.12897635150E+03  0.12897635150E+03  0.00000000000E+00 0.  1.
      99926    2    1    2    0    0  0.35527136788E-14  0.00000000000E+00  0.27237806273E+03  0.53033076573E+03  0.45503946205E+03 0.  0.
      99925    2    3    3    0    0 -0.30820834051E+02  0.76293843463E+02  0.80737792692E+02  0.28713501009E+03  0.26297765778E+03 0.  0.
         25    1    4    4    0    0 -0.31141413216E+02  0.47226024151E+02  0.36161501012E+01  0.13733415313E+03  0.12509000000E+03 0.  0.
         25    1    4    4    0    0  0.32057916550E+00  0.29067819312E+02  0.77121642591E+02  0.14980085696E+03  0.12509000000E+03 0.  0.
         25    1    3    3    0    0  0.30820834051E+02 -0.76293843463E+02  0.19164027003E+03  0.24319575564E+03  0.12509000000E+03 0.  0.
<mgrwt>
<rscale>  2 0.45503946E+03</rscale>
<asrwt>0</asrwt>
<pdfrwt beam="1">  1       21 0.59022708E-01 0.45503946E+03</pdfrwt>
<pdfrwt beam="2">  1       21 0.18967111E-01 0.45503946E+03</pdfrwt>
<totfact> 0.63164383E+04</totfact>
</mgrwt>
</event>
<event>
 7    0  0.4691878E-002  0.4613408E+03  0.7546771E-02  0.1024393E+00
         21   -1    0    0  502  501  0.00000000000E+00  0.00000000000E+00  0.15418203335E+03  0.15418203335E+03  0.00000000000E+00 0. -1.
         21   -1    0    0  501  502 -0.00000000000E+00 -0.00000000000E+00 -0.34510400566E+03  0.34510400566E+03  0.00000000000E+00 0. -1.
      99926    2    1    2    0    0  0.35527136788E-14  0.00000000000E+00 -0.19092197231E+03  0.49928603900E+03  0.46134081679E+03 0.  0.
      99925    2    3    3    0    0  0.29466947933E+02  0.10903622386E+03 -0.78872631222E+02  0.29690085656E+03  0.26300575572E+03 0.  0.
         25    1    4    4    0    0  0.40037255557E+02  0.89221872544E+02 -0.51225715715E+02  0.16683856396E+03  0.12509000000E+03 0.  0.
         25    1    3    3    0    0 -0.29466947933E+02 -0.10903622386E+03 -0.11204934108E+03  0.20238518244E+03  0.12509000000E+03 0.  0.
         25    1    4    4    0    0 -0.10570307624E+02  0.19814351314E+02 -0.27646915507E+02  0.13006229261E+03  0.12509000000E+03 0.  0.
<mgrwt>
<rscale>  2 0.46134082E+03</rscale>
<asrwt>0</asrwt>
<pdfrwt beam="1">  1       21 0.22673829E-01 0.46134082E+03</pdfrwt>
<pdfrwt beam="2">  1       21 0.50750589E-01 0.46134082E+03</pdfrwt>
<totfact> 0.62133861E+04</totfact>
</mgrwt>
</event>
<event>
 7    0  0.4691878E-002  0.4511613E+03  0.7546771E-02  0.1027376E+00
         21   -1    0    0  502  501  0.00000000000E+00  0.00000000000E+00  0.15194370613E+04  0.15194370613E+04  0.00000000000E+00 0.  1.
         21   -1    0    0  501  502 -0.00000000000E+00 -0.00000000000E+00 -0.33490442607E+02  0.33490442607E+02  0.00000000000E+00 0.  1.
      99926    2    1    2    0    0  0.00000000000E+00  0.00000000000E+00  0.14859466187E+04  0.15529275039E+04  0.45116125586E+03 0.  0.
      99925    2    3    3    0    0 -0.89784637950E+02 -0.49838219879E+02  0.10695941114E+04  0.11062262079E+04  0.26298237710E+03 0.  0.
         25    1    4    4    0    0 -0.67482927739E+02 -0.13010207718E+02  0.67895263567E+03  0.69379204422E+03  0.12509000000E+03 0.  0.
         25    1    3    3    0    0  0.89784637950E+02  0.49838219879E+02  0.41635250732E+03  0.44670129597E+03  0.12509000000E+03 0.  0.
         25    1    4    4    0    0 -0.22301710211E+02 -0.36828012160E+02  0.39064147569E+03  0.41243416370E+03  0.12509000000E+03 0.  0.
<mgrwt>
<rscale>  2 0.45116126E+03</rscale>
<asrwt>0</asrwt>
<pdfrwt beam="1">  1       21 0.22344658E+00 0.45116126E+03</pdfrwt>
<pdfrwt beam="2">  1       21 0.49250661E-02 0.45116126E+03</pdfrwt>
<totfact> 0.23195141E+04</totfact>
</mgrwt>
</event>
<event>
 7    0  0.4691878E-002  0.4309097E+03  0.7546771E-02  0.1033573E+00
         21   -1    0    0  502  501  0.00000000000E+00  0.00000000000E+00  0.83184870329E+02  0.83184870329E+02  0.00000000000E+00 0.  1.
         21   -1    0    0  501  502 -0.00000000000E+00 -0.00000000000E+00 -0.55804366539E+03  0.55804366539E+03  0.00000000000E+00 0.  1.
      99926    2    1    2    0    0  0.00000000000E+00  0.00000000000E+00 -0.47485879506E+03  0.64122853572E+03  0.43090968865E+03 0.  0.
      99925    2    3    3    0    0  0.41820859371E+02 -0.67288508592E+02 -0.36491668915E+03  0.45680645890E+03  0.26311826847E+03 0.  0.
         25    1    4    4    0    0  0.48923681871E+02 -0.10901982806E+02 -0.14918054737E+03  0.20103413563E+03  0.12509000000E+03 0.  0.
         25    1    3    3    0    0 -0.41820859371E+02  0.67288508592E+02 -0.10994210591E+03  0.18442207682E+03  0.12509000000E+03 0.  0.
         25    1    4    4    0    0 -0.71028225007E+01 -0.56386525786E+02 -0.21573614178E+03  0.25577232326E+03  0.12509000000E+03 0.  0.
<mgrwt>
<rscale>  2 0.43090969E+03</rscale>
<asrwt>0</asrwt>
<pdfrwt beam="1">  1       21 0.12233069E-01 0.43090969E+03</pdfrwt>
<pdfrwt beam="2">  1       21 0.82065247E-01 0.43090969E+03</pdfrwt>
<totfact> 0.68289076E+04</totfact>
</mgrwt>
</event>
<event>
 7    0  0.4691878E-002  0.4742182E+03  0.7546771E-02  0.1020736E+00
         21   -1    0    0  502  501  0.00000000000E+00  0.00000000000E+00  0.69288070004E+02  0.69288070004E+02  0.00000000000E+00 0. -1.
         21   -1    0    0  501  502 -0.00000000000E+00 -0.00000000000E+00 -0.81140563749E+03  0.81140563749E+03  0.00000000000E+00 0. -1.
      99926    2    1    2    0    0  0.00000000000E+00  0.00000000000E+00 -0.74211756749E+03  0.88069370749E+03  0.47421822239E+03 0.  0.
      99925    2    3    3    0    0  0.17228368204E+02  0.12770597555E+03 -0.42224812175E+03  0.51385640939E+03  0.26296254542E+03 0.  0.
         25    1    3    3    0    0 -0.17228368204E+02 -0.12770597555E+03 -0.31986944574E+03  0.36683729810E+03  0.12509000000E+03 0.  0.
         25    1    4    4    0    0 -0.50484255289E+01  0.43499257404E+02 -0.25621998832E+03  0.28846813084E+03  0.12509000000E+03 0.  0.
         25    1    4    4    0    0  0.22276793733E+02  0.84206718145E+02 -0.16602813343E+03  0.22538827856E+03  0.12509000000E+03 0.  0.
<mgrwt>
<rscale>  2 0.47421822E+03</rscale>
<asrwt>0</asrwt>
<pdfrwt beam="1">  1       21 0.10189422E-01 0.47421822E+03</pdfrwt>
<pdfrwt beam="2">  1       21 0.11932436E+00 0.47421822E+03</pdfrwt>
<totfact> 0.38024352E+04</totfact>
</mgrwt>
</event>
<event>
 7    0  0.4691878E-002  0.4617841E+03  0.7546771E-02  0.1024265E+00
         21   -1    0    0  502  501  0.00000000000E+00  0.00000000000E+00  0.16363237183E+02  0.16363237183E+02  0.00000000000E+00 0.  1.
         21   -1    0    0  501  502 -0.00000000000E+00 -0.00000000000E+00 -0.32579820073E+04  0.32579820073E+04  0.00000000000E+00 0.  1.
      99926    2    1    2    0    0  0.00000000000E+00  0.14210854715E-13 -0.32416187701E+04  0.32743452445E+04  0.46178407215E+03 0.  0.
      99925    2    3    3    0    0  0.92769555851E+02 -0.66851697852E+02 -0.17797439202E+04  0.18026792073E+04  0.26284703354E+03 0.  0.
         25    1    4    4    0    0  0.39628066950E+02  0.79812506733E+01 -0.82998073893E+03  0.84032709057E+03  0.12509000000E+03 0.  0.
         25    1    4    4    0    0  0.53141488901E+02 -0.74832948525E+02 -0.94976318126E+03  0.96235211674E+03  0.12509000000E+03 0.  0.
         25    1    3    3    0    0 -0.92769555851E+02  0.66851697852E+02 -0.14618748499E+04  0.14716660372E+04  0.12509000000E+03 0.  0.
<mgrwt>
<rscale>  2 0.46178407E+03</rscale>
<asrwt>0</asrwt>
<pdfrwt beam="1">  1       21 0.24063549E-02 0.46178407E+03</pdfrwt>
<pdfrwt beam="2">  1       21 0.47911570E+00 0.46178407E+03</pdfrwt>
<totfact> 0.18861755E+03</totfact>
</mgrwt>
</event>
<event>
 7    0  0.4691878E-002  0.4504550E+03  0.7546771E-02  0.1027586E+00
         21   -1    0    0  502  501  0.00000000000E+00  0.00000000000E+00  0.17104949304E+03  0.17104949304E+03  0.00000000000E+00 0. -1.
         21   -1    0    0  501  502 -0.00000000000E+00 -0.00000000000E+00 -0.29656582168E+03  0.29656582168E+03  0.00000000000E+00 0. -1.
      99926    2    1    2    0    0  0.00000000000E+00  0.00000000000E+00 -0.12551632864E+03  0.46761531472E+03  0.45045502973E+03 0.  0.
      99925    2    3    3    0    0  0.17147672154E+02 -0.79357649896E+02 -0.15448257708E+03  0.31570010513E+03  0.26307795518E+03 0.  0.
         25    1    4    4    0    0  0.48469809580E+02 -0.31765050822E+02 -0.78328284293E+02  0.15855967052E+03  0.12509000000E+03 0.  0.
         25    1    3    3    0    0 -0.17147672154E+02  0.79357649896E+02  0.28966248443E+02  0.15191520959E+03  0.12509000000E+03 0.  0.
         25    1    4    4    0    0 -0.31322137426E+02 -0.47592599074E+02 -0.76154292786E+02  0.15714043461E+03  0.12509000000E+03 0.  0.
<mgrwt>
<rscale>  2 0.45045503E+03</rscale>
<asrwt>0</asrwt>
<pdfrwt beam="1">  1       21 0.25154337E-01 0.45045503E+03</pdfrwt>
<pdfrwt beam="2">  1       21 0.43612621E-01 0.45045503E+03</pdfrwt>
<totfact> 0.70107442E+04</totfact>
</mgrwt>
</event>
<event>
 7    0  0.4691878E-002  0.4633481E+03  0.7546771E-02  0.1023815E+00
         21   -1    0    0  502  501  0.00000000000E+00  0.00000000000E+00  0.44975511809E+02  0.44975511809E+02  0.00000000000E+00 0. -1.
         21   -1    0    0  501  502 -0.00000000000E+00 -0.00000000000E+00 -0.11933799697E+04  0.11933799697E+04  0.00000000000E+00 0. -1.
      99926    2    1    2    0    0  0.00000000000E+00 -0.71054273576E-14 -0.11484044579E+04  0.12383554816E+04  0.46334814091E+03 0.  0.
      99925    2    3    3    0    0 -0.96429564426E+02  0.51607861547E+02 -0.58013729050E+03  0.64629373312E+03  0.26301004045E+03 0.  0.
         25    1    4    4    0    0 -0.62162957414E+02  0.35422565760E+02 -0.38815462998E+03  0.41404168427E+03  0.12509000000E+03 0.  0.
         25    1    4    4    0    0 -0.34266607012E+02  0.16185295787E+02 -0.19198266052E+03  0.23225204885E+03  0.12509000000E+03 0.  0.
         25    1    3    3    0    0  0.96429564426E+02 -0.51607861547E+02 -0.56826716743E+03  0.59206174843E+03  0.12509000000E+03 0.  0.
<mgrwt>
<rscale>  2 0.46334814E+03</rscale>
<asrwt>0</asrwt>
<pdfrwt beam="1">  1       21 0.66140456E-02 0.46334814E+03</pdfrwt>
<pdfrwt beam="2">  1       21 0.17549706E+00 0.46334814E+03</pdfrwt>
<totfact> 0.29025988E+04</totfact>
</mgrwt>
</event>
<event>
 7    0  0.4691878E-002  0.4521331E+03  0.7546771E-02  0.1027088E+00
         21   -1    0    0  502  501  0.00000000000E+00  0.00000000000E+00  0.95419713469E+03  0.95419713469E+03  0.00000000000E+00 0. -1.
         21   -1    0    0  501  502 -0.00000000000E+00 -0.00000000000E+00 -0.53559262597E+02  0.53559262597E+02  0.00000000000E+00 0. -1.
      99926    2    1    2    0    0  0.00000000000E+00  0.00000000000E+00  0.90063787209E+03  0.10077563973E+04  0.45213314369E+03 0.  0.
      99925    2    3    3    0    0  0.93498865269E+01 -0.80421560625E+02  0.40095695449E+03  0.48633183390E+03  0.26305346513E+03 0.  0.
         25    1    4    4    0    0  0.10357676483E+02 -0.71355444439E+02  0.26194982578E+03  0.29910550018E+03  0.12509000000E+03 0.  0.
         25    1    4    4    0    0 -0.10077899564E+01 -0.90661161860E+01  0.13900712871E+03  0.18722633371E+03  0.12509000000E+03 0.  0.
         25    1    3    3    0    0 -0.93498865269E+01  0.80421560625E+02  0.49968091760E+03  0.52142456339E+03  0.12509000000E+03 0.  0.
<mgrwt>
<rscale>  2 0.45213314E+03</rscale>
<asrwt>0</asrwt>
<pdfrwt beam="1">  1       21 0.14032310E+00 0.45213314E+03</pdfrwt>
<pdfrwt beam="2">  1       21 0.78763627E-02 0.45213314E+03</pdfrwt>
<totfact> 0.39748886E+04</totfact>
</mgrwt>
</event>
<event>
 7    0  0.4691878E-002  0.4542694E+03  0.7546771E-02  0.1026456E+00
         21   -1    0    0  502  501  0.00000000000E+00  0.00000000000E+00  0.28277062500E+03  0.28277062500E+03  0.00000000000E+00 0.  1.
         21   -1    0    0  501  502 -0.00000000000E+00 -0.00000000000E+00 -0.18244533446E+03  0.18244533446E+03  0.00000000000E+00 0.  1.
      99926    2    1    2    0    0  0.00000000000E+00 -0.13322676296E-14  0.10032529054E+03  0.46521595946E+03  0.45426944099E+03 0.  0.
      99925    2    3    3    0    0  0.89978634959E+02 -0.26451839027E+01 -0.53762646164E+01  0.27833771405E+03  0.26332456607E+03 0.  0.
         25    1    4    4    0    0  0.77794504654E+02  0.21208124175E+02 -0.17439667360E+02  0.14984465150E+03  0.12509000000E+03 0.  0.
         25    1    3    3    0    0 -0.89978634959E+02  0.26451839027E+01  0.10570155515E+03  0.18687824541E+03  0.12509000000E+03 0.  0.
         25    1    4    4    0    0  0.12184130305E+02 -0.23853308078E+02  0.12063402743E+02  0.12849306255E+03  0.12509000000E+03 0.  0.
<mgrwt>
<rscale>  2 0.45426944E+03</rscale>
<asrwt>0</asrwt>
<pdfrwt beam="1">  1       21 0.41583916E-01 0.45426944E+03</pdfrwt>
<pdfrwt beam="2">  1       21 0.26830196E-01 0.45426944E+03</pdfrwt>
<totfact> 0.68187931E+04</totfact>
</mgrwt>
</event>
<event>
 7    0  0.4691878E-002  0.4554832E+03  0.7546771E-02  0.1026099E+00
         21   -1    0    0  502  501  0.00000000000E+00  0.00000000000E+00  0.21320744384E+03  0.21320744384E+03  0.00000000000E+00 0. -1.
         21   -1    0    0  501  502 -0.00000000000E+00 -0.00000000000E+00 -0.24326655999E+03  0.24326655999E+03  0.00000000000E+00 0. -1.
      99926    2    1    2    0    0  0.00000000000E+00  0.00000000000E+00 -0.30059116151E+02  0.45647400383E+03  0.45548322221E+03 0.  0.
      99925    2    3    3    0    0 -0.43163582628E+02  0.71788284830E+02 -0.95098381416E+02  0.29247928797E+03  0.26359775993E+03 0.  0.
         25    1    4    4    0    0 -0.88000417972E+01  0.48957826985E+01 -0.16119865002E+02  0.12652575853E+03  0.12509000000E+03 0.  0.
         25    1    4    4    0    0 -0.34363540831E+02  0.66892502131E+02 -0.78978516414E+02  0.16595352944E+03  0.12509000000E+03 0.  0.
         25    1    3    3    0    0  0.43163582628E+02 -0.71788284830E+02  0.65039265265E+02  0.16399471586E+03  0.12509000000E+03 0.  0.
<mgrwt>
<rscale>  2 0.45548322E+03</rscale>
<asrwt>0</asrwt>
<pdfrwt beam="1">  1       21 0.31354036E-01 0.45548322E+03</pdfrwt>
<pdfrwt beam="2">  1       21 0.35774494E-01 0.45548322E+03</pdfrwt>
<totfact> 0.68174750E+04</totfact>
</mgrwt>
</event>
<event>
 7    0  0.4691878E-002  0.4594163E+03  0.7546771E-02  0.1024951E+00
         21   -1    0    0  502  501  0.00000000000E+00  0.00000000000E+00  0.87573431459E+02  0.87573431459E+02  0.00000000000E+00 0.  1.
         21   -1    0    0  501  502 -0.00000000000E+00 -0.00000000000E+00 -0.60253252397E+03  0.60253252397E+03  0.00000000000E+00 0.  1.
      99926    2    1    2    0    0  0.00000000000E+00  0.00000000000E+00 -0.51495909251E+03  0.69010595542E+03  0.45941632835E+03 0.  0.
      99925    2    3    3    0    0 -0.98339496205E+02 -0.23290296603E+02 -0.22948307543E+03  0.36245193232E+03  0.26171707416E+03 0.  0.
         25    1    4    4    0    0 -0.50900014782E+02  0.13782915924E+00 -0.16163719995E+03  0.21062982460E+03  0.12509000000E+03 0.  0.
         25    1    3    3    0    0  0.98339496205E+02  0.23290296603E+02 -0.28547601707E+03  0.32765402310E+03  0.12509000000E+03 0.  0.
         25    1    4    4    0    0 -0.47439481423E+02 -0.23428125762E+02 -0.67845875480E+02  0.15182210773E+03  0.12509000000E+03 0.  0.
<mgrwt>
<rscale>  2 0.45941633E+03</rscale>
<asrwt>0</asrwt>
<pdfrwt beam="1">  1       21 0.12878446E-01 0.45941633E+03</pdfrwt>
<pdfrwt beam="2">  1       21 0.88607722E-01 0.45941633E+03</pdfrwt>
<totfact> 0.51625207E+04</totfact>
</mgrwt>
</event>
<event>
 7    0  0.4691878E-002  0.4540818E+03  0.7546771E-02  0.1026512E+00
         21   -1    0    0  502  501  0.00000000000E+00  0.00000000000E+00  0.34099082625E+02  0.34099082625E+02  0.00000000000E+00 0.  1.
         21   -1    0    0  501  502 -0.00000000000E+00 -0.00000000000E+00 -0.15116994286E+04  0.15116994286E+04  0.00000000000E+00 0.  1.
      99926    2    1    2    0    0  0.00000000000E+00  0.00000000000E+00 -0.14776003460E+04  0.15457985112E+04  0.45408177114E+03 0.  0.
      99925    2    3    3    0    0  0.82575016164E+02 -0.46702497161E+02 -0.72616000744E+03  0.77813331923E+03  0.26302727908E+03 0.  0.
         25    1    4    4    0    0  0.43652805102E+02 -0.25263043261E+01 -0.25878654758E+03  0.29074032214E+03  0.12509000000E+03 0.  0.
         25    1    4    4    0    0  0.38922211062E+02 -0.44176192835E+02 -0.46737345986E+03  0.48739299709E+03  0.12509000000E+03 0.  0.
         25    1    3    3    0    0 -0.82575016164E+02  0.46702497161E+02 -0.75144033854E+03  0.76766519201E+03  0.12509000000E+03 0.  0.
<mgrwt>
<rscale>  2 0.45408177E+03</rscale>
<asrwt>0</asrwt>
<pdfrwt beam="1">  1       21 0.50145718E-02 0.45408177E+03</pdfrwt>
<pdfrwt beam="2">  1       21 0.22230870E+00 0.45408177E+03</pdfrwt>
<totfact> 0.22841148E+04</totfact>
</mgrwt>
</event>
<event>
 7    0  0.4691878E-002  0.4535388E+03  0.7546771E-02  0.1026672E+00
         21   -1    0    0  502  501  0.00000000000E+00  0.00000000000E+00  0.12453921872E+03  0.12453921872E+03  0.00000000000E+00 0.  1.
         21   -1    0    0  501  502 -0.00000000000E+00 -0.00000000000E+00 -0.41291695972E+03  0.41291695972E+03  0.00000000000E+00 0.  1.
      99926    2    1    2    0    0 -0.17763568394E-14  0.00000000000E+00 -0.28837774100E+03  0.53745617844E+03  0.45353877700E+03 0.  0.
      99925    2    3    3    0    0 -0.12095894909E+02 -0.10981446848E+03 -0.20099922904E+03  0.34907348122E+03  0.26314649353E+03 0.  0.
         25    1    4    4    0    0 -0.24558175182E+02 -0.16438162766E+02 -0.98167563162E+02  0.16173340941E+03  0.12509000000E+03 0.  0.
         25    1    3    3    0    0  0.12095894909E+02  0.10981446848E+03 -0.87378511958E+02  0.18838269722E+03  0.12509000000E+03 0.  0.
         25    1    4    4    0    0  0.12462280273E+02 -0.93376305713E+02 -0.10283166588E+03  0.18734007181E+03  0.12509000000E+03 0.  0.
<mgrwt>
<rscale>  2 0.45353878E+03</rscale>
<asrwt>0</asrwt>
<pdfrwt beam="1">  1       21 0.18314591E-01 0.45353878E+03</pdfrwt>
<pdfrwt beam="2">  1       21 0.60723082E-01 0.45353878E+03</pdfrwt>
<totfact> 0.63433521E+04</totfact>
</mgrwt>
</event>
<event>
 7    0  0.4691878E-002  0.4620822E+03  0.7546771E-02  0.1024179E+00
         21   -1    0    0  502  501  0.00000000000E+00  0.00000000000E+00  0.14301369881E+03  0.14301369881E+03  0.00000000000E+00 0. -1.
         21   -1    0    0  501  502 -0.00000000000E+00 -0.00000000000E+00 -0.37325091956E+03  0.37325091956E+03  0.00000000000E+00 0. -1.
      99926    2    1    2    0    0  0.00000000000E+00  0.71054273576E-14 -0.23023722076E+03  0.51626461837E+03  0.46208222035E+03 0.  0.
      99925    2    3    3    0    0 -0.93101446130E+01 -0.51064528849E+02 -0.26455428459E+03  0.37655265085E+03  0.26288526864E+03 0.  0.
         25    1    3    3    0    0  0.93101446130E+01  0.51064528849E+02  0.34317063832E+02  0.13971196752E+03  0.12509000000E+03 0.  0.
         25    1    4    4    0    0  0.18915657103E+00 -0.46995659009E+02 -0.18402887107E+03  0.22742638641E+03  0.12509000000E+03 0.  0.
         25    1    4    4    0    0 -0.94993011840E+01 -0.40688698404E+01 -0.80525413516E+02  0.14912626444E+03  0.12509000000E+03 0.  0.
<mgrwt>
<rscale>  2 0.46208222E+03</rscale>
<asrwt>0</asrwt>
<pdfrwt beam="1">  1       21 0.21031426E-01 0.46208222E+03</pdfrwt>
<pdfrwt beam="2">  1       21 0.54889841E-01 0.46208222E+03</pdfrwt>
<totfact> 0.60660799E+04</totfact>
</mgrwt>
</event>
<event>
 7    0  0.4691878E-002  0.4570475E+03  0.7546771E-02  0.1025641E+00
         21   -1    0    0  502  501  0.00000000000E+00  0.00000000000E+00  0.22260191424E+03  0.22260191424E+03  0.00000000000E+00 0.  1.
         21   -1    0    0  501  502 -0.00000000000E+00 -0.00000000000E+00 -0.23460312700E+03  0.23460312700E+03  0.00000000000E+00 0.  1.
      99926    2    1    2    0    0  0.00000000000E+00  0.00000000000E+00 -0.12001212752E+02  0.45720504124E+03  0.45704750369E+03 0.  0.
      99925    2    3    3    0    0 -0.89800674115E+02  0.70653504265E+02  0.37053283691E+01  0.28705721648E+03  0.26330977448E+03 0.  0.
         25    1    4    4    0    0 -0.36630935566E+02  0.14196367065E+02 -0.33340463041E+02  0.13528657307E+03  0.12509000000E+03 0.  0.
         25    1    3    3    0    0  0.89800674115E+02 -0.70653504265E+02 -0.15706541121E+02  0.17014782476E+03  0.12509000000E+03 0.  0.
         25    1    4    4    0    0 -0.53169738549E+02  0.56457137200E+02  0.37045791410E+02  0.15177064340E+03  0.12509000000E+03 0.  0.
<mgrwt>
<rscale>  2 0.45704750E+03</rscale>
<asrwt>0</asrwt>
<pdfrwt beam="1">  1       21 0.32735576E-01 0.45704750E+03</pdfrwt>
<pdfrwt beam="2">  1       21 0.34500460E-01 0.45704750E+03</pdfrwt>
<totfact> 0.67278700E+04</totfact>
</mgrwt>
</event>
<event>
 7    0  0.4691878E-002  0.4744714E+03  0.7546771E-02  0.1020666E+00
         21   -1    0    0  502  501  0.00000000000E+00  0.00000000000E+00  0.27952484307E+03  0.27952484307E+03  0.00000000000E+00 0. -1.
         21   -1    0    0  501  502 -0.00000000000E+00 -0.00000000000E+00 -0.20134444298E+03  0.20134444298E+03  0.00000000000E+00 0. -1.
      99926    2    1    2    0    0  0.00000000000E+00  0.00000000000E+00  0.78180400091E+02  0.48086928605E+03  0.47447138513E+03 0.  0.
      99925    2    3    3    0    0 -0.81901033743E+02  0.79076440373E+02  0.11329493495E+03  0.30812264669E+03  0.26295049034E+03 0.  0.
         25    1    4    4    0    0 -0.28159726681E+02 -0.15595611526E+01  0.54207732680E+02  0.13921705650E+03  0.12509000000E+03 0.  0.
         25    1    4    4    0    0 -0.53741307062E+02  0.80636001526E+02  0.59087202271E+02  0.16890559019E+03  0.12509000000E+03 0.  0.
         25    1    3    3    0    0  0.81901033743E+02 -0.79076440373E+02 -0.35114534860E+02  0.17274663936E+03  0.12509000000E+03 0.  0.
<mgrwt>
<rscale>  2 0.47447139E+03</rscale>
<asrwt>0</asrwt>
<pdfrwt beam="1">  1       21 0.41106595E-01 0.47447139E+03</pdfrwt>
<pdfrwt beam="2">  1       21 0.29609477E-01 0.47447139E+03</pdfrwt>
<totfact> 0.57258708E+04</totfact>
</mgrwt>
</event>
<event>
 7    0  0.4691878E-002  0.4475303E+03  0.7546771E-02  0.1028461E+00
         21   -1    0    0  502  501  0.00000000000E+00  0.00000000000E+00  0.15915113748E+02  0.15915113748E+02  0.00000000000E+00 0.  1.
         21   -1    0    0  501  502 -0.00000000000E+00 -0.00000000000E+00 -0.31461186671E+04  0.31461186671E+04  0.00000000000E+00 0.  1.
      99926    2    1    2    0    0 -0.71054273576E-14  0.00000000000E+00 -0.31302035533E+04  0.31620337808E+04  0.44753027362E+03 0.  0.
      99925    2    3    3    0    0  0.53314466989E+02 -0.59255992733E+02 -0.14920118949E+04  0.15171407378E+04  0.26317830226E+03 0.  0.
         25    1    3    3    0    0 -0.53314466989E+02  0.59255992733E+02 -0.16381916584E+04  0.16448930430E+04  0.12509000000E+03 0.  0.
         25    1    4    4    0    0  0.17220764031E+02 -0.12789197141E+02 -0.91724977485E+03  0.92598853980E+03  0.12509000000E+03 0.  0.
         25    1    4    4    0    0  0.36093702958E+02 -0.46466795593E+02 -0.57476212004E+03  0.59115219802E+03  0.12509000000E+03 0.  0.
<mgrwt>
<rscale>  2 0.44753027E+03</rscale>
<asrwt>0</asrwt>
<pdfrwt beam="1">  1       21 0.23404575E-02 0.44753027E+03</pdfrwt>
<pdfrwt beam="2">  1       21 0.46266458E+00 0.44753027E+03</pdfrwt>
<totfact> 0.25892308E+03</totfact>
</mgrwt>
</event>
<event>
 7    0  0.4691878E-002  0.4548611E+03  0.7546771E-02  0.1026282E+00
         21   -1    0    0  502  501  0.00000000000E+00  0.00000000000E+00  0.30239893377E+03  0.30239893377E+03  0.00000000000E+00 0. -1.
         21   -1    0    0  501  502 -0.00000000000E+00 -0.00000000000E+00 -0.17104777767E+03  0.17104777767E+03  0.00000000000E+00 0. -1.
      99926    2    1    2    0    0  0.00000000000E+00  0.71054273576E-14  0.13135115610E+03  0.47344671144E+03  0.45486114625E+03 0.  0.
      99925    2    3    3    0    0 -0.44374922843E+02  0.61145186169E+02 -0.43591803020E+01  0.27401584353E+03  0.26335871447E+03 0.  0.
         25    1    4    4    0    0 -0.62403425648E+02  0.43101758105E+02 -0.44043915470E+01  0.14635182216E+03  0.12509000000E+03 0.  0.
         25    1    4    4    0    0  0.18028502806E+02  0.18043428065E+02  0.45211244975E-01  0.12766402138E+03  0.12509000000E+03 0.  0.
         25    1    3    3    0    0  0.44374922843E+02 -0.61145186169E+02  0.13571033640E+03  0.19943086791E+03  0.12509000000E+03 0.  0.
<mgrwt>
<rscale>  2 0.45486115E+03</rscale>
<asrwt>0</asrwt>
<pdfrwt beam="1">  1       21 0.44470431E-01 0.45486115E+03</pdfrwt>
<pdfrwt beam="2">  1       21 0.25154085E-01 0.45486115E+03</pdfrwt>
<totfact> 0.67254414E+04</totfact>
</mgrwt>
</event>
<event>
 7    0  0.4691878E-002  0.4546883E+03  0.7546771E-02  0.1026333E+00
         21   -1    0    0  502  501  0.00000000000E+00  0.00000000000E+00  0.38926704743E+03  0.38926704743E+03  0.00000000000E+00 0. -1.
         21   -1    0    0  501  502 -0.00000000000E+00 -0.00000000000E+00 -0.13277607665E+03  0.13277607665E+03  0.00000000000E+00 0. -1.
      99926    2    1    2    0    0 -0.17763568394E-14  0.00000000000E+00  0.25649097078E+03  0.52204312408E+03  0.45468825068E+03 0.  0.
      99925    2    3    3    0    0  0.93722389333E+01  0.49658394520E+02  0.27737762404E+03  0.38552369178E+03  0.26293796911E+03 0.  0.
         25    1    3    3    0    0 -0.93722389333E+01 -0.49658394520E+02 -0.20886653259E+02  0.13651943229E+03  0.12509000000E+03 0.  0.
         25    1    4    4    0    0 -0.12613223467E+02 -0.12119823868E+02  0.12338220829E+03  0.17656913932E+03  0.12509000000E+03 0.  0.
         25    1    4    4    0    0  0.21985462400E+02  0.61778218388E+02  0.15399541575E+03  0.20895455246E+03  0.12509000000E+03 0.  0.
<mgrwt>
<rscale>  2 0.45468825E+03</rscale>
<asrwt>0</asrwt>
<pdfrwt beam="1">  1       21 0.57245154E-01 0.45468825E+03</pdfrwt>
<pdfrwt beam="2">  1       21 0.19525894E-01 0.45468825E+03</pdfrwt>
<totfact> 0.63906107E+04</totfact>
</mgrwt>
</event>
<event>
 7    0  0.4691878E-002  0.4519124E+03  0.7546771E-02  0.1027153E+00
         21   -1    0    0  502  501  0.00000000000E+00  0.00000000000E+00  0.11623962234E+03  0.11623962234E+03  0.00000000000E+00 0.  1.
         21   -1    0    0  501  502 -0.00000000000E+00 -0.00000000000E+00 -0.43923242097E+03  0.43923242097E+03  0.00000000000E+00 0.  1.
      99926    2    1    2    0    0  0.00000000000E+00  0.00000000000E+00 -0.32299279863E+03  0.55547204332E+03  0.45191242840E+03 0.  0.
      99925    2    3    3    0    0 -0.66097627146E+02 -0.88111644373E+02 -0.19954331617E+03  0.34805979438E+03  0.26305042720E+03 0.  0.
         25    1    4    4    0    0 -0.45114184744E+02 -0.48117248677E+01 -0.84381972615E+02  0.15756353564E+03  0.12509000000E+03 0.  0.
         25    1    4    4    0    0 -0.20983442401E+02 -0.83299919506E+02 -0.11516134356E+03  0.19049625874E+03  0.12509000000E+03 0.  0.
         25    1    3    3    0    0  0.66097627146E+02  0.88111644373E+02 -0.12344948246E+03  0.20741224893E+03  0.12509000000E+03 0.  0.
<mgrwt>
<rscale>  2 0.45191243E+03</rscale>
<asrwt>0</asrwt>
<pdfrwt beam="1">  1       21 0.17094062E-01 0.45191243E+03</pdfrwt>
<pdfrwt beam="2">  1       21 0.64593002E-01 0.45191243E+03</pdfrwt>
<totfact> 0.63031861E+04</totfact>
</mgrwt>
</event>
<event>
 7    0  0.4691878E-002  0.4400605E+03  0.7546771E-02  0.1030728E+00
         21   -1    0    0  502  501  0.00000000000E+00  0.00000000000E+00  0.94877603361E+02  0.94877603361E+02  0.00000000000E+00 0.  1.
         21   -1    0    0  501  502 -0.00000000000E+00 -0.00000000000E+00 -0.51027118579E+03  0.51027118579E+03  0.00000000000E+00 0.  1.
      99926    2    1    2    0    0  0.71054273576E-14  0.00000000000E+00 -0.41539358243E+03  0.60514878915E+03  0.44006048299E+03 0.  0.
      99925    2    3    3    0    0 -0.44443590695E+02 -0.10097050057E+02 -0.38520596453E+03  0.46863511383E+03  0.26297918479E+03 0.  0.
         25    1    4    4    0    0 -0.32188882868E+02 -0.27757332472E+02 -0.13979605397E+03  0.19234614239E+03  0.12509000000E+03 0.  0.
         25    1    4    4    0    0 -0.12254707828E+02  0.17660282415E+02 -0.24540991056E+03  0.27628897144E+03  0.12509000000E+03 0.  0.
         25    1    3    3    0    0  0.44443590695E+02  0.10097050057E+02 -0.30187617892E+02  0.13651367531E+03  0.12509000000E+03 0.  0.
<mgrwt>
<rscale>  2 0.44006048E+03</rscale>
<asrwt>0</asrwt>
<pdfrwt beam="1">  1       21 0.13952588E-01 0.44006048E+03</pdfrwt>
<pdfrwt beam="2">  1       21 0.75039883E-01 0.44006048E+03</pdfrwt>
<totfact> 0.65789519E+04</totfact>
</mgrwt>
</event>
<event>
 7    0  0.4691878E-002  0.4571948E+03  0.7546771E-02  0.1025598E+00
         21   -1    0    0  502  501  0.00000000000E+00  0.00000000000E+00  0.19136682112E+03  0.19136682112E+03  0.00000000000E+00 0.  1.
         21   -1    0    0  501  502 -0.00000000000E+00 -0.00000000000E+00 -0.27307119181E+03  0.27307119181E+03  0.00000000000E+00 0.  1.
      99926    2    1    2    0    0  0.00000000000E+00  0.71054273576E-14 -0.81704370692E+02  0.46443801294E+03  0.45719477651E+03 0.  0.
      99925    2    3    3    0    0  0.30903177894E+02  0.57271833675E+02 -0.14788921129E+03  0.30867212912E+03  0.26300607434E+03 0.  0.
         25    1    3    3    0    0 -0.30903177894E+02 -0.57271833675E+02  0.66184840598E+02  0.15576588382E+03  0.12509000000E+03 0.  0.
         25    1    4    4    0    0 -0.14721666668E+02  0.54496402839E+02 -0.65487399185E+02  0.15206147751E+03  0.12509000000E+03 0.  0.
         25    1    4    4    0    0  0.45624844561E+02  0.27754308354E+01 -0.82401812105E+02  0.15661065160E+03  0.12509000000E+03 0.  0.
<mgrwt>
<rscale>  2 0.45719478E+03</rscale>
<asrwt>0</asrwt>
<pdfrwt beam="1">  1       21 0.28142180E-01 0.45719478E+03</pdfrwt>
<pdfrwt beam="2">  1       21 0.40157528E-01 0.45719478E+03</pdfrwt>
<totfact> 0.66680862E+04</totfact>
</mgrwt>
</event>
<event>
 7    0  0.4691878E-002  0.4608654E+03  0.7546771E-02  0.1024531E+00
         21   -1    0    0  502  501  0.00000000000E+00  0.00000000000E+00  0.18776939790E+04  0.18776939790E+04  0.00000000000E+00 0. -1.
         21   -1    0    0  501  502 -0.00000000000E+00 -0.00000000000E+00 -0.28278952953E+02  0.28278952953E+02  0.00000000000E+00 0. -1.
      99926    2    1    2    0    0  0.00000000000E+00  0.00000000000E+00  0.18494150260E+04  0.19059729319E+04  0.46086535861E+03 0.  0.
      99925    2    3    3    0    0  0.98671159979E+02 -0.55598397007E+02  0.13022534697E+04  0.13333819292E+04  0.26308951000E+03 0.  0.
         25    1    4    4    0    0  0.68183674801E+02 -0.90241530394E+00  0.54485286357E+03  0.56317135838E+03  0.12509000000E+03 0.  0.
         25    1    3    3    0    0 -0.98671159979E+02  0.55598397007E+02  0.54716155630E+03  0.57259100268E+03  0.12509000000E+03 0.  0.
         25    1    4    4    0    0  0.30487485178E+02 -0.54695981703E+02  0.75740060614E+03  0.77021057085E+03  0.12509000000E+03 0.  0.
<mgrwt>
<rscale>  2 0.46086536E+03</rscale>
<asrwt>0</asrwt>
<pdfrwt beam="1">  1       21 0.27613138E+00 0.46086536E+03</pdfrwt>
<pdfrwt beam="2">  1       21 0.41586708E-02 0.46086536E+03</pdfrwt>
<totfact> 0.14628935E+04</totfact>
</mgrwt>
</event>
<event>
 7    0  0.4691878E-002  0.4387859E+03  0.7546771E-02  0.1031120E+00
         21   -1    0    0  502  501  0.00000000000E+00  0.00000000000E+00  0.43926610935E+02  0.43926610935E+02  0.00000000000E+00 0. -1.
         21   -1    0    0  501  502 -0.00000000000E+00 -0.00000000000E+00 -0.10957657380E+04  0.10957657380E+04  0.00000000000E+00 0. -1.
      99926    2    1    2    0    0  0.14210854715E-13  0.00000000000E+00 -0.10518391271E+04  0.11396923490E+04  0.43878593984E+03 0.  0.
      99925    2    3    3    0    0  0.80495043012E+02  0.25722333554E+02 -0.79686447975E+03  0.84338057180E+03  0.26297661384E+03 0.  0.
         25    1    4    4    0    0  0.81321099775E+02  0.11562745830E+02 -0.40311686460E+03  0.42999713137E+03  0.12509000000E+03 0.  0.
         25    1    4    4    0    0 -0.82605676314E+00  0.14159587723E+02 -0.39374761515E+03  0.41338344044E+03  0.12509000000E+03 0.  0.
         25    1    3    3    0    0 -0.80495043012E+02 -0.25722333554E+02 -0.25497464734E+03  0.29631177716E+03  0.12509000000E+03 0.  0.
<mgrwt>
<rscale>  2 0.43878594E+03</rscale>
<asrwt>0</asrwt>
<pdfrwt beam="1">  1       21 0.64597964E-02 0.43878594E+03</pdfrwt>
<pdfrwt beam="2">  1       21 0.16114200E+00 0.43878594E+03</pdfrwt>
<totfact> 0.38805549E+04</totfact>
</mgrwt>
</event>
<event>
 7    0  0.4691878E-002  0.4473065E+03  0.7546771E-02  0.1028528E+00
         21   -1    0    0  502  501  0.00000000000E+00  0.00000000000E+00  0.61435168915E+02  0.61435168915E+02  0.00000000000E+00 0. -1.
         21   -1    0    0  501  502 -0.00000000000E+00 -0.00000000000E+00 -0.81420439065E+03  0.81420439065E+03  0.00000000000E+00 0. -1.
      99926    2    1    2    0    0  0.00000000000E+00  0.00000000000E+00 -0.75276922173E+03  0.87563955956E+03  0.44730653593E+03 0.  0.
      99925    2    3    3    0    0  0.29126233360E+02  0.95184135915E+02 -0.54435247995E+03  0.61297360525E+03  0.26364495274E+03 0.  0.
         25    1    4    4    0    0  0.38681970519E+02  0.17802833528E+02 -0.21877856921E+03  0.25558717920E+03  0.12509000000E+03 0.  0.
         25    1    3    3    0    0 -0.29126233360E+02 -0.95184135915E+02 -0.20841674178E+03  0.26266595431E+03  0.12509000000E+03 0.  0.
         25    1    4    4    0    0 -0.95557371593E+01  0.77381302386E+02 -0.32557391074E+03  0.35738642605E+03  0.12509000000E+03 0.  0.
<mgrwt>
<rscale>  2 0.44730654E+03</rscale>
<asrwt>0</asrwt>
<pdfrwt beam="1">  1       21 0.90345834E-02 0.44730654E+03</pdfrwt>
<pdfrwt beam="2">  1       21 0.11973594E+00 0.44730654E+03</pdfrwt>
<totfact> 0.47077073E+04</totfact>
</mgrwt>
</event>
<event>
 7    0  0.4691878E-002  0.4456207E+03  0.7546771E-02  0.1029036E+00
         21   -1    0    0  502  501  0.00000000000E+00  0.00000000000E+00  0.46788689896E+03  0.46788689896E+03  0.00000000000E+00 0.  1.
         21   -1    0    0  501  502 -0.00000000000E+00 -0.00000000000E+00 -0.10610355349E+03  0.10610355349E+03  0.00000000000E+00 0.  1.
      99926    2    1    2    0    0  0.00000000000E+00  0.00000000000E+00  0.36178334546E+03  0.57399045245E+03  0.44562074732E+03 0.  0.
      99925    2    3    3    0    0 -0.37899804506E+02 -0.97048504698E+02  0.22815792146E+03  0.36337689760E+03  0.26292950602E+03 0.  0.
         25    1    4    4    0    0  0.17206821572E+02 -0.58069784325E+02  0.92928255840E+02  0.16718655267E+03  0.12509000000E+03 0.  0.
         25    1    3    3    0    0  0.37899804506E+02  0.97048504698E+02  0.13362542400E+03  0.21061355485E+03  0.12509000000E+03 0.  0.
         25    1    4    4    0    0 -0.55106626078E+02 -0.38978720373E+02  0.13522966562E+03  0.19619034493E+03  0.12509000000E+03 0.  0.
<mgrwt>
<rscale>  2 0.44562075E+03</rscale>
<asrwt>0</asrwt>
<pdfrwt beam="1">  1       21 0.68806896E-01 0.44562075E+03</pdfrwt>
<pdfrwt beam="2">  1       21 0.15603464E-01 0.44562075E+03</pdfrwt>
<totfact> 0.64996128E+04</totfact>
</mgrwt>
</event>
<event>
 7    0  0.4691878E-002  0.4452030E+03  0.7546771E-02  0.1029162E+00
         21   -1    0    0  502  501  0.00000000000E+00  0.00000000000E+00  0.16664719302E+03  0.16664719302E+03  0.00000000000E+00 0.  1.
         21   -1    0    0  501  502 -0.00000000000E+00 -0.00000000000E+00 -0.29734327200E+03  0.29734327200E+03  0.00000000000E+00 0.  1.
      99926    2    1    2    0    0  0.00000000000E+00 -0.71054273576E-14 -0.13069607898E+03  0.46399046502E+03  0.44520297232E+03 0.  0.
      99925    2    3    3    0    0 -0.58304386839E+02  0.62114440072E+02 -0.14489008919E+03  0.31198196784E+03  0.26283455846E+03 0.  0.
         25    1    4    4    0    0 -0.27230792578E+02  0.18798795156E+01 -0.10105760882E+03  0.16311100028E+03  0.12509000000E+03 0.  0.
         25    1    4    4    0    0 -0.31073594261E+02  0.60234560557E+02 -0.43832480364E+02  0.14887096755E+03  0.12509000000E+03 0.  0.
         25    1    3    3    0    0  0.58304386839E+02 -0.62114440072E+02  0.14194010207E+02  0.15200849718E+03  0.12509000000E+03 0.  0.
<mgrwt>
<rscale>  2 0.44520297E+03</rscale>
<asrwt>0</asrwt>
<pdfrwt beam="1">  1       21 0.24506940E-01 0.44520297E+03</pdfrwt>
<pdfrwt beam="2">  1       21 0.43726952E-01 0.44520297E+03</pdfrwt>
<totfact> 0.73428685E+04</totfact>
</mgrwt>
</event>
<event>
 7    0  0.4691878E-002  0.4556526E+03  0.7546771E-02  0.1026050E+00
         21   -1    0    0  502  501  0.00000000000E+00  0.00000000000E+00  0.32359377321E+03  0.32359377321E+03  0.00000000000E+00 0. -1.
         21   -1    0    0  501  502 -0.00000000000E+00 -0.00000000000E+00 -0.16040119975E+03  0.16040119975E+03  0.00000000000E+00 0. -1.
      99926    2    1    2    0    0  0.00000000000E+00  0.00000000000E+00  0.16319257346E+03  0.48399497295E+03  0.45565262845E+03 0.  0.
      99925    2    3    3    0    0 -0.36290106784E+02 -0.11092813964E+02  0.21653350965E+03  0.34281145428E+03  0.26304545237E+03 0.  0.
         25    1    4    4    0    0 -0.23478364347E+02 -0.15816810152E+02  0.58951197359E+02  0.14115295550E+03  0.12509000000E+03 0.  0.
         25    1    4    4    0    0 -0.12811742438E+02  0.47239961883E+01  0.15758231229E+03  0.20165849878E+03  0.12509000000E+03 0.  0.
         25    1    3    3    0    0  0.36290106784E+02  0.11092813964E+02 -0.53340936186E+02  0.14118351867E+03  0.12509000000E+03 0.  0.
<mgrwt>
<rscale>  2 0.45565263E+03</rscale>
<asrwt>0</asrwt>
<pdfrwt beam="1">  1       21 0.47587320E-01 0.45565263E+03</pdfrwt>
<pdfrwt beam="2">  1       21 0.23588412E-01 0.45565263E+03</pdfrwt>
<totfact> 0.66067491E+04</totfact>
</mgrwt>
</event>
<event>
 6    0  0.4691878E-002  0.4527774E+03  0.7546771E-02  0.1026897E+00
         21   -1    0    0  502  501  0.00000000000E+00  0.00000000000E+00  0.42622283653E+02  0.42622283653E+02  0.00000000000E+00 0.  1.
         21   -1    0    0  501  502 -0.00000000000E+00 -0.00000000000E+00 -0.12024656690E+04  0.12024656690E+04  0.00000000000E+00 0.  1.
      99926    2    1    2    0    0  0.00000000000E+00  0.00000000000E+00 -0.11598433853E+04  0.12450879526E+04  0.45277735291E+03 0.  0.
         25    1    3    3    0    0  0.41447579599E+02 -0.60788331960E+02 -0.26789235117E+03  0.30467514351E+03  0.12509000000E+03 0.  0.
         25    1    3    3    0    0 -0.86453946095E+02  0.57242970926E+02 -0.42890555882E+03  0.45864858988E+03  0.12509000000E+03 0.  0.
         25    1    3    3    0    0  0.45006366496E+02  0.35453610338E+01 -0.46304547535E+03  0.48176421925E+03  0.12509000000E+03 0.  0.
<mgrwt>
<rscale>  2 0.45277735E+03</rscale>
<asrwt>0</asrwt>
<pdfrwt beam="1">  1       21 0.62679849E-02 0.45277735E+03</pdfrwt>
<pdfrwt beam="2">  1       21 0.17683313E+00 0.45277735E+03</pdfrwt>
<totfact> 0.31289990E+04</totfact>
</mgrwt>
</event>
<event>
 7    0  0.4691878E-002  0.4561563E+03  0.7546771E-02  0.1025902E+00
         21   -1    0    0  502  501  0.00000000000E+00  0.00000000000E+00  0.24203993284E+04  0.24203993284E+04  0.00000000000E+00 0.  1.
         21   -1    0    0  501  502 -0.00000000000E+00 -0.00000000000E+00 -0.21492171975E+02  0.21492171975E+02  0.00000000000E+00 0.  1.
      99926    2    1    2    0    0  0.00000000000E+00  0.00000000000E+00  0.23989071564E+04  0.24418915003E+04  0.45615628293E+03 0.  0.
      99925    2    3    3    0    0  0.71517181836E+02 -0.37581141890E+02  0.19403106104E+04  0.19597241543E+04  0.26303316610E+03 0.  0.
         25    1    4    4    0    0  0.41311066130E+02 -0.74726718837E+01  0.12443658938E+04  0.12513418521E+04  0.12509000000E+03 0.  0.
         25    1    3    3    0    0 -0.71517181836E+02  0.37581141890E+02  0.45859654597E+03  0.48216734605E+03  0.12509000000E+03 0.  0.
         25    1    4    4    0    0  0.30206115706E+02 -0.30108470006E+02  0.69594471662E+03  0.70838230221E+03  0.12509000000E+03 0.  0.
<mgrwt>
<rscale>  2 0.45615628E+03</rscale>
<asrwt>0</asrwt>
<pdfrwt beam="1">  1       21 0.35594089E+00 0.45615628E+03</pdfrwt>
<pdfrwt beam="2">  1       21 0.31606152E-02 0.45615628E+03</pdfrwt>
<totfact> 0.76756030E+03</totfact>
</mgrwt>
</event>
<event>
 7    0  0.4691878E-002  0.4431371E+03  0.7546771E-02  0.1029789E+00
         21   -1    0    0  502  501  0.00000000000E+00  0.00000000000E+00  0.15155224068E+03  0.15155224068E+03  0.00000000000E+00 0.  1.
         21   -1    0    0  501  502 -0.00000000000E+00 -0.00000000000E+00 -0.32393206119E+03  0.32393206119E+03  0.00000000000E+00 0.  1.
      99926    2    1    2    0    0 -0.17763568394E-14  0.00000000000E+00 -0.17237982051E+03  0.47548430187E+03  0.44313713318E+03 0.  0.
      99925    2    3    3    0    0 -0.10610750194E+02  0.64627934223E+02 -0.26138024920E+02  0.27220240700E+03  0.26290986313E+03 0.  0.
         25    1    4    4    0    0  0.31453019434E+02  0.44404120110E+02 -0.24994200766E+02  0.13868394459E+03  0.12509000000E+03 0.  0.
         25    1    4    4    0    0 -0.42063769628E+02  0.20223814112E+02 -0.11438241535E+01  0.13351846242E+03  0.12509000000E+03 0.  0.
         25    1    3    3    0    0  0.10610750194E+02 -0.64627934223E+02 -0.14624179559E+03  0.20328189486E+03  0.12509000000E+03 0.  0.
<mgrwt>
<rscale>  2 0.44313713E+03</rscale>
<asrwt>0</asrwt>
<pdfrwt beam="1">  1       21 0.22287094E-01 0.44313713E+03</pdfrwt>
<pdfrwt beam="2">  1       21 0.47637068E-01 0.44313713E+03</pdfrwt>
<totfact> 0.73732580E+04</totfact>
</mgrwt>
</event>
<event>
 7    0  0.4691878E-002  0.4576340E+03  0.7546771E-02  0.1025470E+00
         21   -1    0    0  502  501  0.00000000000E+00  0.00000000000E+00  0.54666739895E+03  0.54666739895E+03  0.00000000000E+00 0. -1.
         21   -1    0    0  501  502 -0.00000000000E+00 -0.00000000000E+00 -0.95775274883E+02  0.95775274883E+02  0.00000000000E+00 0. -1.
      99926    2    1    2    0    0  0.00000000000E+00  0.31086244690E-14  0.45089212407E+03  0.64244267384E+03  0.45763400400E+03 0.  0.
      99925    2    3    3    0    0  0.77406762842E+02  0.28731801975E+01  0.40368273671E+03  0.48792310727E+03  0.26288618181E+03 0.  0.
         25    1    4    4    0    0  0.31772647177E+02 -0.36772600846E+02  0.21845995869E+03  0.25638640162E+03  0.12509000000E+03 0.  0.
         25    1    4    4    0    0  0.45634115665E+02  0.39645781044E+02  0.18522277802E+03  0.23153670565E+03  0.12509000000E+03 0.  0.
         25    1    3    3    0    0 -0.77406762842E+02 -0.28731801975E+01  0.47209387363E+02  0.15451956657E+03  0.12509000000E+03 0.  0.
<mgrwt>
<rscale>  2 0.45763400E+03</rscale>
<asrwt>0</asrwt>
<pdfrwt beam="1">  1       21 0.80392263E-01 0.45763400E+03</pdfrwt>
<pdfrwt beam="2">  1       21 0.14084599E-01 0.45763400E+03</pdfrwt>
<totfact> 0.54987119E+04</totfact>
</mgrwt>
</event>
<event>
 7    0  0.4691878E-002  0.4548588E+03  0.7546771E-02  0.1026283E+00
         21   -1    0    0  502  501  0.00000000000E+00  0.00000000000E+00  0.12772242497E+03  0.12772242497E+03  0.00000000000E+00 0.  1.
         21   -1    0    0  501  502 -0.00000000000E+00 -0.00000000000E+00 -0.40497307539E+03  0.40497307539E+03  0.00000000000E+00 0.  1.
      99926    2    1    2    0    0  0.00000000000E+00  0.00000000000E+00 -0.27725065042E+03  0.53269550036E+03  0.45485884947E+03 0.  0.
      99925    2    3    3    0    0 -0.72218477809E+02  0.34005593023E+02 -0.26821831945E+03  0.38403151684E+03  0.26299667325E+03 0.  0.
         25    1    4    4    0    0 -0.38260673471E+02 -0.11367991017E+02 -0.90655456087E+02  0.15955886115E+03  0.12509000000E+03 0.  0.
         25    1    3    3    0    0  0.72218477809E+02 -0.34005593023E+02 -0.90323309707E+01  0.14866398352E+03  0.12509000000E+03 0.  0.
         25    1    4    4    0    0 -0.33957804338E+02  0.45373584040E+02 -0.17756286337E+03  0.22447265569E+03  0.12509000000E+03 0.  0.
<mgrwt>
<rscale>  2 0.45485885E+03</rscale>
<asrwt>0</asrwt>
<pdfrwt beam="1">  1       21 0.18782710E-01 0.45485885E+03</pdfrwt>
<pdfrwt beam="2">  1       21 0.59554864E-01 0.45485885E+03</pdfrwt>
<totfact> 0.63094931E+04</totfact>
</mgrwt>
</event>
<event>
 7    0  0.4691878E-002  0.4192670E+03  0.7546771E-02  0.1037305E+00
         21   -1    0    0  502  501  0.00000000000E+00  0.00000000000E+00  0.25960532544E+03  0.25960532544E+03  0.00000000000E+00 0. -1.
         21   -1    0    0  501  502 -0.00000000000E+00 -0.00000000000E+00 -0.16928085748E+03  0.16928085748E+03  0.00000000000E+00 0. -1.
      99926    2    1    2    0    0  0.00000000000E+00 -0.22204460493E-15  0.90324467961E+02  0.42888618293E+03  0.41926703710E+03 0.  0.
      99925    2    3    3    0    0 -0.46343731631E+02 -0.11866805891E+01  0.11910773335E+03  0.29241225084E+03  0.26300023314E+03 0.  0.
         25    1    3    3    0    0  0.46343731631E+02  0.11866805891E+01 -0.28783265385E+02  0.13647393208E+03  0.12509000000E+03 0.  0.
         25    1    4    4    0    0  0.59791508886E+01  0.41276431419E+01  0.26347268016E+02  0.12804090876E+03  0.12509000000E+03 0.  0.
         25    1    4    4    0    0 -0.52322882519E+02 -0.53143237310E+01  0.92760465329E+02  0.16437134209E+03  0.12509000000E+03 0.  0.
<mgrwt>
<rscale>  2 0.41926704E+03</rscale>
<asrwt>0</asrwt>
<pdfrwt beam="1">  1       21 0.38177254E-01 0.41926704E+03</pdfrwt>
<pdfrwt beam="2">  1       21 0.24894244E-01 0.41926704E+03</pdfrwt>
<totfact> 0.94753524E+04</totfact>
</mgrwt>
</event>
<event>
 7    0  0.4691878E-002  0.4487478E+03  0.7546771E-02  0.1028096E+00
         21   -1    0    0  502  501  0.00000000000E+00  0.00000000000E+00  0.52913924118E+02  0.52913924118E+02  0.00000000000E+00 0. -1.
         21   -1    0    0  501  502 -0.00000000000E+00 -0.00000000000E+00 -0.95142543229E+03  0.95142543229E+03  0.00000000000E+00 0. -1.
      99926    2    1    2    0    0  0.00000000000E+00  0.71054273576E-14 -0.89851150817E+03  0.10043393564E+04  0.44874782731E+03 0.  0.
      99925    2    3    3    0    0 -0.65122758982E+02  0.53997883805E+02 -0.42164336428E+03  0.50413191949E+03  0.26307626349E+03 0.  0.
         25    1    4    4    0    0 -0.24565257030E+02 -0.86594893528E+01 -0.16093588412E+03  0.20549040247E+03  0.12509000000E+03 0.  0.
         25    1    3    3    0    0  0.65122758982E+02 -0.53997883805E+02 -0.47686814390E+03  0.50020743692E+03  0.12509000000E+03 0.  0.
         25    1    4    4    0    0 -0.40557501952E+02  0.62657373157E+02 -0.26070748016E+03  0.29864151702E+03  0.12509000000E+03 0.  0.
<mgrwt>
<rscale>  2 0.44874783E+03</rscale>
<asrwt>0</asrwt>
<pdfrwt beam="1">  1       21 0.77814586E-02 0.44874783E+03</pdfrwt>
<pdfrwt beam="2">  1       21 0.13991552E+00 0.44874783E+03</pdfrwt>
<totfact> 0.40962156E+04</totfact>
</mgrwt>
</event>
<event>
 7    0  0.4691878E-002  0.4444388E+03  0.7546771E-02  0.1029394E+00
         21   -1    0    0  502  501  0.00000000000E+00  0.00000000000E+00  0.11249806438E+03  0.11249806438E+03  0.00000000000E+00 0.  1.
         21   -1    0    0  501  502 -0.00000000000E+00 -0.00000000000E+00 -0.43895387315E+03  0.43895387315E+03  0.00000000000E+00 0.  1.
      99926    2    1    2    0    0  0.71054273576E-14  0.00000000000E+00 -0.32645580877E+03  0.55145193752E+03  0.44443879705E+03 0.  0.
      99925    2    3    3    0    0 -0.58339321624E+02  0.82112608494E+02 -0.18051913210E+03  0.33444737855E+03  0.26291050767E+03 0.  0.
         25    1    4    4    0    0 -0.88315866126E+01  0.65612385186E+02 -0.62451374421E+02  0.15469539191E+03  0.12509000000E+03 0.  0.
         25    1    4    4    0    0 -0.49507735011E+02  0.16500223308E+02 -0.11806775768E+03  0.17975198664E+03  0.12509000000E+03 0.  0.
         25    1    3    3    0    0  0.58339321624E+02 -0.82112608494E+02 -0.14593667666E+03  0.21700455898E+03  0.12509000000E+03 0.  0.
<mgrwt>
<rscale>  2 0.44443880E+03</rscale>
<asrwt>0</asrwt>
<pdfrwt beam="1">  1       21 0.16543833E-01 0.44443880E+03</pdfrwt>
<pdfrwt beam="2">  1       21 0.64552038E-01 0.44443880E+03</pdfrwt>
<totfact> 0.67213048E+04</totfact>
</mgrwt>
</event>
<event>
 7    0  0.4691878E-002  0.4555732E+03  0.7546771E-02  0.1026073E+00
         21   -1    0    0  502  501  0.00000000000E+00  0.00000000000E+00  0.10336138627E+03  0.10336138627E+03  0.00000000000E+00 0. -1.
         21   -1    0    0  501  502 -0.00000000000E+00 -0.00000000000E+00 -0.50199338261E+03  0.50199338261E+03  0.00000000000E+00 0. -1.
      99926    2    1    2    0    0 -0.17763568394E-14  0.14210854715E-13 -0.39863199634E+03  0.60535476889E+03  0.45557318590E+03 0.  0.
      99925    2    3    3    0    0  0.45722145016E+01  0.63422563168E+02 -0.12548845412E+03  0.29827460115E+03  0.26301532067E+03 0.  0.
         25    1    4    4    0    0  0.22731521150E+02  0.67296648804E+02 -0.59988881411E+02  0.15585806039E+03  0.12509000000E+03 0.  0.
         25    1    4    4    0    0 -0.18159306648E+02 -0.38740856360E+01 -0.65499572714E+02  0.14241654076E+03  0.12509000000E+03 0.  0.
         25    1    3    3    0    0 -0.45722145016E+01 -0.63422563168E+02 -0.27314354221E+03  0.30708016774E+03  0.12509000000E+03 0.  0.
<mgrwt>
<rscale>  2 0.45557319E+03</rscale>
<asrwt>0</asrwt>
<pdfrwt beam="1">  1       21 0.15200204E-01 0.45557319E+03</pdfrwt>
<pdfrwt beam="2">  1       21 0.73822556E-01 0.45557319E+03</pdfrwt>
<totfact> 0.58086400E+04</totfact>
</mgrwt>
</event>
<event>
 7    0  0.4691878E-002  0.4550324E+03  0.7546771E-02  0.1026232E+00
         21   -1    0    0  502  501  0.00000000000E+00  0.00000000000E+00  0.48998001113E+03  0.48998001113E+03  0.00000000000E+00 0.  1.
         21   -1    0    0  501  502 -0.00000000000E+00 -0.00000000000E+00 -0.10564434058E+03  0.10564434058E+03  0.00000000000E+00 0.  1.
      99926    2    1    2    0    0  0.00000000000E+00  0.00000000000E+00  0.38433567055E+03  0.59562435171E+03  0.45503237324E+03 0.  0.
      99925    2    3    3    0    0 -0.79133239588E+02 -0.77479569382E+02  0.21126460325E+03  0.35507029185E+03  0.26301525866E+03 0.  0.
         25    1    4    4    0    0 -0.42424949485E+02 -0.31710749367E+02  0.55187654020E+02  0.14662412223E+03  0.12509000000E+03 0.  0.
         25    1    3    3    0    0  0.79133239588E+02  0.77479569382E+02  0.17307106729E+03  0.24055405986E+03  0.12509000000E+03 0.  0.
         25    1    4    4    0    0 -0.36708290103E+02 -0.45768820014E+02  0.15607694923E+03  0.20844616962E+03  0.12509000000E+03 0.  0.
<mgrwt>
<rscale>  2 0.45503237E+03</rscale>
<asrwt>0</asrwt>
<pdfrwt beam="1">  1       21 0.72055883E-01 0.45503237E+03</pdfrwt>
<pdfrwt beam="2">  1       21 0.15535933E-01 0.45503237E+03</pdfrwt>
<totfact> 0.58933332E+04</totfact>
</mgrwt>
</event>
<event>
 7    0  0.4691878E-002  0.4571029E+03  0.7546771E-02  0.1025625E+00
         21   -1    0    0  502  501  0.00000000000E+00  0.00000000000E+00  0.74359290784E+02  0.74359290784E+02  0.00000000000E+00 0. -1.
         21   -1    0    0  501  502 -0.00000000000E+00 -0.00000000000E+00 -0.70247808833E+03  0.70247808833E+03  0.00000000000E+00 0. -1.
      99926    2    1    2    0    0 -0.14210854715E-13  0.00000000000E+00 -0.62811879754E+03  0.77683737911E+03  0.45710293125E+03 0.  0.
      99925    2    3    3    0    0 -0.10103662612E+03  0.35657102553E+02 -0.46637259154E+03  0.54599290325E+03  0.26291638876E+03 0.  0.
         25    1    3    3    0    0  0.10103662612E+03 -0.35657102553E+02 -0.16174620601E+03  0.23084447587E+03  0.12509000000E+03 0.  0.
         25    1    4    4    0    0 -0.11919653594E+02  0.30548524003E+02 -0.23512623771E+03  0.26834147316E+03  0.12509000000E+03 0.  0.
         25    1    4    4    0    0 -0.89116972529E+02  0.51085785498E+01 -0.23124635383E+03  0.27765143008E+03  0.12509000000E+03 0.  0.
<mgrwt>
<rscale>  2 0.45710293E+03</rscale>
<asrwt>0</asrwt>
<pdfrwt beam="1">  1       21 0.10935190E-01 0.45710293E+03</pdfrwt>
<pdfrwt beam="2">  1       21 0.10330559E+00 0.45710293E+03</pdfrwt>
<totfact> 0.48106577E+04</totfact>
</mgrwt>
</event>
<event>
 7    0  0.4691878E-002  0.4677269E+03  0.7546771E-02  0.1022564E+00
         21   -1    0    0  502  501  0.00000000000E+00  0.00000000000E+00  0.15576234926E+04  0.15576234926E+04  0.00000000000E+00 0. -1.
         21   -1    0    0  501  502 -0.00000000000E+00 -0.00000000000E+00 -0.35112532468E+02  0.35112532468E+02  0.00000000000E+00 0. -1.
      99926    2    1    2    0    0 -0.14210854715E-13  0.17763568394E-14  0.15225109601E+04  0.15927360250E+04  0.46772686669E+03 0.  0.
      99925    2    3    3    0    0  0.12340471784E+03 -0.25669875030E+01  0.86965236987E+03  0.91663901961E+03  0.26210023663E+03 0.  0.
         25    1    3    3    0    0 -0.12340471784E+03  0.25669875030E+01  0.65285859023E+03  0.67609700543E+03  0.12509000000E+03 0.  0.
         25    1    4    4    0    0  0.88553165580E+02 -0.31017133949E+02  0.44575415626E+03  0.47238543760E+03  0.12509000000E+03 0.  0.
         25    1    4    4    0    0  0.34851552259E+02  0.28450146446E+02  0.42389821360E+03  0.44425358201E+03  0.12509000000E+03 0.  0.
<mgrwt>
<rscale>  2 0.46772687E+03</rscale>
<asrwt>0</asrwt>
<pdfrwt beam="1">  1       21 0.22906223E+00 0.46772687E+03</pdfrwt>
<pdfrwt beam="2">  1       21 0.51636087E-02 0.46772687E+03</pdfrwt>
<totfact> 0.19586198E+04</totfact>
</mgrwt>
</event>
<event>
 7    0  0.4691878E-002  0.4528606E+03  0.7546771E-02  0.1026872E+00
         21   -1    0    0  502  501  0.00000000000E+00  0.00000000000E+00  0.17500528069E+03  0.17500528069E+03  0.00000000000E+00 0.  1.
         21   -1    0    0  501  502 -0.00000000000E+00 -0.00000000000E+00 -0.29296645004E+03  0.29296645004E+03  0.00000000000E+00 0.  1.
      99926    2    1    2    0    0  0.00000000000E+00  0.00000000000E+00 -0.11796116935E+03  0.46797173072E+03  0.45286057819E+03 0.  0.
      99925    2    3    3    0    0 -0.76003340880E+01 -0.69827344567E+02  0.14471451881E+02  0.27272949556E+03  0.26313177630E+03 0.  0.
         25    1    3    3    0    0  0.76003340880E+01  0.69827344567E+02 -0.13243262123E+03  0.19524223517E+03  0.12509000000E+03 0.  0.
         25    1    4    4    0    0  0.72929962090E+01 -0.75407763703E+02  0.69291335784E+01  0.14640710233E+03  0.12509000000E+03 0.  0.
         25    1    4    4    0    0 -0.14893330297E+02  0.55804191358E+01  0.75423183023E+01  0.12632239323E+03  0.12509000000E+03 0.  0.
<mgrwt>
<rscale>  2 0.45286058E+03</rscale>
<asrwt>0</asrwt>
<pdfrwt beam="1">  1       21 0.25736071E-01 0.45286058E+03</pdfrwt>
<pdfrwt beam="2">  1       21 0.43083301E-01 0.45286058E+03</pdfrwt>
<totfact> 0.68746232E+04</totfact>
</mgrwt>
</event>
<event>
 7    0  0.4691878E-002  0.4713811E+03  0.7546771E-02  0.1021531E+00
         21   -1    0    0  502  501  0.00000000000E+00  0.00000000000E+00  0.71107985138E+03  0.71107985138E+03  0.00000000000E+00 0. -1.
         21   -1    0    0  501  502 -0.00000000000E+00 -0.00000000000E+00 -0.78120675723E+02  0.78120675723E+02  0.00000000000E+00 0. -1.
      99926    2    1    2    0    0  0.00000000000E+00  0.71054273576E-14  0.63295917565E+03  0.78920052710E+03  0.47138111325E+03 0.  0.
      99925    2    3    3    0    0 -0.11553410079E+03  0.43120167255E+02  0.33575434685E+03  0.44396771343E+03  0.26299975641E+03 0.  0.
         25    1    4    4    0    0 -0.27252117325E+02  0.42517473066E+02  0.18627441629E+03  0.22999147740E+03  0.12509000000E+03 0.  0.
         25    1    3    3    0    0  0.11553410079E+03 -0.43120167255E+02  0.29720482880E+03  0.34523281367E+03  0.12509000000E+03 0.  0.
         25    1    4    4    0    0 -0.88281983463E+02  0.60269418886E+00  0.14947993056E+03  0.21397623603E+03  0.12509000000E+03 0.  0.
<mgrwt>
<rscale>  2 0.47138111E+03</rscale>
<asrwt>0</asrwt>
<pdfrwt beam="1">  1       21 0.10457056E+00 0.47138111E+03</pdfrwt>
<pdfrwt beam="2">  1       21 0.11488335E-01 0.47138111E+03</pdfrwt>
<totfact> 0.42551497E+04</totfact>
</mgrwt>
</event>
<event>
 7    0  0.4691878E-002  0.4496503E+03  0.7546771E-02  0.1027826E+00
         21   -1    0    0  502  501  0.00000000000E+00  0.00000000000E+00  0.30025710161E+03  0.30025710161E+03  0.00000000000E+00 0. -1.
         21   -1    0    0  501  502 -0.00000000000E+00 -0.00000000000E+00 -0.16834355792E+03  0.16834355792E+03  0.00000000000E+00 0. -1.
      99926    2    1    2    0    0  0.00000000000E+00 -0.35527136788E-14  0.13191354369E+03  0.46860065953E+03  0.44965030312E+03 0.  0.
      99925    2    3    3    0    0  0.67677925763E+02  0.14051923295E+02 -0.26613616279E+01  0.27229561266E+03  0.26336298078E+03 0.  0.
         25    1    4    4    0    0  0.10885891691E+02  0.39269714887E+02 -0.13222151670E+02  0.13222309382E+03  0.12509000000E+03 0.  0.
         25    1    3    3    0    0 -0.67677925763E+02 -0.14051923295E+02  0.13457490532E+03  0.19630504687E+03  0.12509000000E+03 0.  0.
         25    1    4    4    0    0  0.56792034072E+02 -0.25217791592E+02  0.10560790042E+02  0.14007251884E+03  0.12509000000E+03 0.  0.
<mgrwt>
<rscale>  2 0.44965030E+03</rscale>
<asrwt>0</asrwt>
<pdfrwt beam="1">  1       21 0.44155456E-01 0.44965030E+03</pdfrwt>
<pdfrwt beam="2">  1       21 0.24756405E-01 0.44965030E+03</pdfrwt>
<totfact> 0.70484432E+04</totfact>
</mgrwt>
</event>
<event>
 6    0  0.4691878E-002  0.4587993E+03  0.7546771E-02  0.1025130E+00
         21   -1    0    0  502  501  0.00000000000E+00  0.00000000000E+00  0.83443994075E+02  0.83443994075E+02  0.00000000000E+00 0.  1.
         21   -1    0    0  501  502 -0.00000000000E+00 -0.00000000000E+00 -0.63065287264E+03  0.63065287264E+03  0.00000000000E+00 0.  1.
      99926    2    1    2    0    0  0.88817841970E-15  0.00000000000E+00 -0.54720887857E+03  0.71409686672E+03  0.45879927885E+03 0.  0.
         25    1    3    3    0    0  0.25682119422E+02  0.52946595680E+02 -0.12729469615E+03  0.18792115639E+03  0.12509000000E+03 0.  0.
         25    1    3    3    0    0  0.47119241651E+01 -0.11838134292E+03 -0.21568183132E+03  0.27604801220E+03  0.12509000000E+03 0.  0.
         25    1    3    3    0    0 -0.30394043587E+02  0.65434747241E+02 -0.20423235110E+03  0.25012769813E+03  0.12509000000E+03 0.  0.
<mgrwt>
<rscale>  2 0.45879928E+03</rscale>
<asrwt>0</asrwt>
<pdfrwt beam="1">  1       21 0.12271175E-01 0.45879928E+03</pdfrwt>
<pdfrwt beam="2">  1       21 0.92743072E-01 0.45879928E+03</pdfrwt>
<totfact> 0.50614448E+04</totfact>
</mgrwt>
</event>
<event>
 7    0  0.4691878E-002  0.4632652E+03  0.7546771E-02  0.1023838E+00
         21   -1    0    0  502  501  0.00000000000E+00  0.00000000000E+00  0.26801037747E+03  0.26801037747E+03  0.00000000000E+00 0. -1.
         21   -1    0    0  501  502 -0.00000000000E+00 -0.00000000000E+00 -0.20019248270E+03  0.20019248270E+03  0.00000000000E+00 0. -1.
      99926    2    1    2    0    0  0.71054273576E-14  0.14210854715E-13  0.67817894769E+02  0.46820286016E+03  0.46326520635E+03 0.  0.
      99925    2    3    3    0    0  0.48473390263E+02  0.11060931670E+03  0.40650556758E+02  0.29222086433E+03  0.26297618767E+03 0.  0.
         25    1    4    4    0    0  0.48404824434E+02  0.69894905393E+02 -0.92382606648E+01  0.15152946376E+03  0.12509000000E+03 0.  0.
         25    1    3    3    0    0 -0.48473390263E+02 -0.11060931670E+03  0.27167338011E+02  0.17598199584E+03  0.12509000000E+03 0.  0.
         25    1    4    4    0    0  0.68565828380E-01  0.40714411305E+02  0.49888817423E+02  0.14069140057E+03  0.12509000000E+03 0.  0.
<mgrwt>
<rscale>  2 0.46326521E+03</rscale>
<asrwt>0</asrwt>
<pdfrwt beam="1">  1       21 0.39413291E-01 0.46326521E+03</pdfrwt>
<pdfrwt beam="2">  1       21 0.29440071E-01 0.46326521E+03</pdfrwt>
<totfact> 0.63309890E+04</totfact>
</mgrwt>
</event>
<event>
 7    0  0.4691878E-002  0.4584868E+03  0.7546771E-02  0.1025221E+00
         21   -1    0    0  502  501  0.00000000000E+00  0.00000000000E+00  0.51778228634E+02  0.51778228634E+02  0.00000000000E+00 0.  1.
         21   -1    0    0  501  502 -0.00000000000E+00 -0.00000000000E+00 -0.10149543597E+04  0.10149543597E+04  0.00000000000E+00 0.  1.
      99926    2    1    2    0    0 -0.35527136788E-14  0.00000000000E+00 -0.96317613112E+03  0.10667325884E+04  0.45848681068E+03 0.  0.
      99925    2    3    3    0    0 -0.11600948128E+02 -0.11576389086E+03 -0.61032696039E+03  0.67470464830E+03  0.26304277872E+03 0.  0.
         25    1    3    3    0    0  0.11600948128E+02  0.11576389086E+03 -0.35284917073E+03  0.39202794009E+03  0.12509000000E+03 0.  0.
         25    1    4    4    0    0 -0.20279059648E+02 -0.91336271174E+02 -0.28153811385E+03  0.32197014201E+03  0.12509000000E+03 0.  0.
         25    1    4    4    0    0  0.86781115204E+01 -0.24427619684E+02 -0.32878884653E+03  0.35273450629E+03  0.12509000000E+03 0.  0.
<mgrwt>
<rscale>  2 0.45848681E+03</rscale>
<asrwt>0</asrwt>
<pdfrwt beam="1">  1       21 0.76144460E-02 0.45848681E+03</pdfrwt>
<pdfrwt beam="2">  1       21 0.14925798E+00 0.45848681E+03</pdfrwt>
<totfact> 0.35688315E+04</totfact>
</mgrwt>
</event>
<event>
 7    0  0.4691878E-002  0.4337004E+03  0.7546771E-02  0.1032697E+00
         21   -1    0    0  502  501  0.00000000000E+00  0.00000000000E+00  0.41443040527E+03  0.41443040527E+03  0.00000000000E+00 0. -1.
         21   -1    0    0  501  502 -0.00000000000E+00 -0.00000000000E+00 -0.11346657711E+03  0.11346657711E+03  0.00000000000E+00 0. -1.
      99926    2    1    2    0    0  0.00000000000E+00 -0.19984014443E-14  0.30096382817E+03  0.52789698238E+03  0.43370035525E+03 0.  0.
      99925    2    3    3    0    0 -0.86138242425E+02 -0.18900750143E+01  0.15485054187E+03  0.31713652660E+03  0.26300858730E+03 0.  0.
         25    1    3    3    0    0  0.86138242425E+02  0.18900750143E+01  0.14611328629E+03  0.21076045578E+03  0.12509000000E+03 0.  0.
         25    1    4    4    0    0 -0.68612015765E+01 -0.22137012442E+02  0.67666860565E+02  0.14409523075E+03  0.12509000000E+03 0.  0.
         25    1    4    4    0    0 -0.79277040848E+02  0.20246937428E+02  0.87183681309E+02  0.17304129584E+03  0.12509000000E+03 0.  0.
<mgrwt>
<rscale>  2 0.43370036E+03</rscale>
<asrwt>0</asrwt>
<pdfrwt beam="1">  1       21 0.60945647E-01 0.43370036E+03</pdfrwt>
<pdfrwt beam="2">  1       21 0.16686261E-01 0.43370036E+03</pdfrwt>
<totfact> 0.75260800E+04</totfact>
</mgrwt>
</event>
<event>
 7    0  0.4691878E-002  0.4633757E+03  0.7546771E-02  0.1023807E+00
         21   -1    0    0  502  501  0.00000000000E+00  0.00000000000E+00  0.57632952799E+02  0.57632952799E+02  0.00000000000E+00 0.  1.
         21   -1    0    0  501  502 -0.00000000000E+00 -0.00000000000E+00 -0.93139887466E+03  0.93139887466E+03  0.00000000000E+00 0.  1.
      99926    2    1    2    0    0  0.00000000000E+00  0.88817841970E-15 -0.87376592186E+03  0.98903182745E+03  0.46337573255E+03 0.  0.
      99925    2    3    3    0    0 -0.12055527402E+03 -0.31404318366E+01 -0.53040443379E+03  0.60420971791E+03  0.26305338513E+03 0.  0.
         25    1    3    3    0    0  0.12055527402E+03  0.31404318366E+01 -0.34336148807E+03  0.38482210955E+03  0.12509000000E+03 0.  0.
         25    1    4    4    0    0 -0.84661458249E+02  0.24432905432E+02 -0.23762779301E+03  0.28262874145E+03  0.12509000000E+03 0.  0.
         25    1    4    4    0    0 -0.35893815767E+02 -0.27573337269E+02 -0.29277664077E+03  0.32158097646E+03  0.12509000000E+03 0.  0.
<mgrwt>
<rscale>  2 0.46337573E+03</rscale>
<asrwt>0</asrwt>
<pdfrwt beam="1">  1       21 0.84754344E-02 0.46337573E+03</pdfrwt>
<pdfrwt beam="2">  1       21 0.13697042E+00 0.46337573E+03</pdfrwt>
<totfact> 0.37108194E+04</totfact>
</mgrwt>
</event>
<event>
 7    0  0.4691878E-002  0.4594517E+03  0.7546771E-02  0.1024940E+00
         21   -1    0    0  502  501  0.00000000000E+00  0.00000000000E+00  0.86875145199E+03  0.86875145199E+03  0.00000000000E+00 0.  1.
         21   -1    0    0  501  502 -0.00000000000E+00 -0.00000000000E+00 -0.60746905685E+02  0.60746905685E+02  0.00000000000E+00 0.  1.
      99926    2    1    2    0    0  0.00000000000E+00  0.00000000000E+00  0.80800454631E+03  0.92949835768E+03  0.45945168415E+03 0.  0.
      99925    2    3    3    0    0 -0.37629297700E+02  0.83662284849E+02  0.35203799571E+03  0.44786743538E+03  0.26122623777E+03 0.  0.
         25    1    3    3    0    0  0.37629297700E+02 -0.83662284849E+02  0.45596655059E+03  0.48163092230E+03  0.12509000000E+03 0.  0.
         25    1    4    4    0    0 -0.42012055864E+02  0.47256553278E+02  0.13446239200E+03  0.19423140227E+03  0.12509000000E+03 0.  0.
         25    1    4    4    0    0  0.43827581642E+01  0.36405731571E+02  0.21757560372E+03  0.25363603311E+03  0.12509000000E+03 0.  0.
<mgrwt>
<rscale>  2 0.45945168E+03</rscale>
<asrwt>0</asrwt>
<pdfrwt beam="1">  1       21 0.12775756E+00 0.45945168E+03</pdfrwt>
<pdfrwt beam="2">  1       21 0.89333690E-02 0.45945168E+03</pdfrwt>
<totfact> 0.40551685E+04</totfact>
</mgrwt>
</event>
<event>
 7    0  0.4691878E-002  0.4526467E+03  0.7546771E-02  0.1026936E+00
         21   -1    0    0  502  501  0.00000000000E+00  0.00000000000E+00  0.34013110108E+02  0.34013110108E+02  0.00000000000E+00 0.  1.
         21   -1    0    0  501  502 -0.00000000000E+00 -0.00000000000E+00 -0.15059564864E+04  0.15059564864E+04  0.00000000000E+00 0.  1.
      99926    2    1    2    0    0  0.00000000000E+00  0.00000000000E+00 -0.14719433763E+04  0.15399695965E+04  0.45264672224E+03 0.  0.
      99925    2    3    3    0    0  0.66285244306E+02  0.88995108563E+02 -0.91934797284E+03  0.96262823217E+03  0.26294211386E+03 0.  0.
         25    1    3    3    0    0 -0.66285244306E+02 -0.88995108563E+02 -0.55259540341E+03  0.57734136430E+03  0.12509000000E+03 0.  0.
         25    1    4    4    0    0  0.57757641119E+02  0.78483940452E+02 -0.55246846879E+03  0.57477351289E+03  0.12509000000E+03 0.  0.
         25    1    4    4    0    0  0.85276031874E+01  0.10511168111E+02 -0.36687950405E+03  0.38785471928E+03  0.12509000000E+03 0.  0.
<mgrwt>
<rscale>  2 0.45264672E+03</rscale>
<asrwt>0</asrwt>
<pdfrwt beam="1">  1       21 0.50019273E-02 0.45264672E+03</pdfrwt>
<pdfrwt beam="2">  1       21 0.22146422E+00 0.45264672E+03</pdfrwt>
<totfact> 0.23238151E+04</totfact>
</mgrwt>
</event>
<event>
 7    0  0.4691878E-002  0.4573266E+03  0.7546771E-02  0.1025559E+00
         21   -1    0    0  502  501  0.00000000000E+00  0.00000000000E+00  0.14722230531E+04  0.14722230531E+04  0.00000000000E+00 0.  1.
         21   -1    0    0  501  502 -0.00000000000E+00 -0.00000000000E+00 -0.35515616085E+02  0.35515616085E+02  0.00000000000E+00 0.  1.
      99926    2    1    2    0    0  0.00000000000E+00  0.00000000000E+00  0.14367074370E+04  0.15077386692E+04  0.45732661740E+03 0.  0.
      99925    2    3    3    0    0  0.26513057372E+02  0.86149302610E+02  0.11392706312E+04  0.11727150788E+04  0.26305596442E+03 0.  0.
         25    1    4    4    0    0  0.43010121880E+01  0.12727453696E+01  0.49670660612E+03  0.51223537485E+03  0.12509000000E+03 0.  0.
         25    1    4    4    0    0  0.22212045184E+02  0.84876557240E+02  0.64256402507E+03  0.66047970396E+03  0.12509000000E+03 0.  0.
         25    1    3    3    0    0 -0.26513057372E+02 -0.86149302610E+02  0.29743680582E+03  0.33502359038E+03  0.12509000000E+03 0.  0.
<mgrwt>
<rscale>  2 0.45732662E+03</rscale>
<asrwt>0</asrwt>
<pdfrwt beam="1">  1       21 0.21650335E+00 0.45732662E+03</pdfrwt>
<pdfrwt beam="2">  1       21 0.52228857E-02 0.45732662E+03</pdfrwt>
<totfact> 0.23168578E+04</totfact>
</mgrwt>
</event>
<event>
 7    0  0.4691878E-002  0.4584582E+03  0.7546771E-02  0.1025229E+00
         21   -1    0    0  502  501  0.00000000000E+00  0.00000000000E+00  0.10652788158E+03  0.10652788158E+03  0.00000000000E+00 0.  1.
         21   -1    0    0  501  502 -0.00000000000E+00 -0.00000000000E+00 -0.49326041541E+03  0.49326041541E+03  0.00000000000E+00 0.  1.
      99926    2    1    2    0    0  0.00000000000E+00 -0.14210854715E-13 -0.38673253383E+03  0.59978829699E+03  0.45845822981E+03 0.  0.
      99925    2    3    3    0    0  0.20010746901E+02  0.10602319056E+03 -0.29999463217E+03  0.41320770150E+03  0.26287350251E+03 0.  0.
         25    1    4    4    0    0 -0.11888980011E+02  0.78198172254E+02 -0.19319386631E+03  0.24336737675E+03  0.12509000000E+03 0.  0.
         25    1    4    4    0    0  0.31899726912E+02  0.27825018301E+02 -0.10680076587E+03  0.16984032475E+03  0.12509000000E+03 0.  0.
         25    1    3    3    0    0 -0.20010746901E+02 -0.10602319056E+03 -0.86737901660E+02  0.18658059548E+03  0.12509000000E+03 0.  0.
<mgrwt>
<rscale>  2 0.45845823E+03</rscale>
<asrwt>0</asrwt>
<pdfrwt beam="1">  1       21 0.15665865E-01 0.45845823E+03</pdfrwt>
<pdfrwt beam="2">  1       21 0.72538295E-01 0.45845823E+03</pdfrwt>
<totfact> 0.57114572E+04</totfact>
</mgrwt>
</event>
<event>
 7    0  0.4691878E-002  0.4476768E+03  0.7546771E-02  0.1028417E+00
         21   -1    0    0  502  501  0.00000000000E+00  0.00000000000E+00  0.46574817520E+03  0.46574817520E+03  0.00000000000E+00 0.  1.
         21   -1    0    0  501  502 -0.00000000000E+00 -0.00000000000E+00 -0.10757663263E+03  0.10757663263E+03  0.00000000000E+00 0.  1.
      99926    2    1    2    0    0  0.00000000000E+00  0.55511151231E-15  0.35817154257E+03  0.57332480782E+03  0.44767675991E+03 0.  0.
      99925    2    3    3    0    0 -0.12285800035E+02 -0.66172474435E+00  0.91565111182E+02  0.27857427581E+03  0.26280806456E+03 0.  0.
         25    1    4    4    0    0 -0.25358139501E+02 -0.21337218574E+02  0.76246652857E+02  0.15019777730E+03  0.12509000000E+03 0.  0.
         25    1    3    3    0    0  0.12285800035E+02  0.66172474435E+00  0.26660643139E+03  0.29475053201E+03  0.12509000000E+03 0.  0.
         25    1    4    4    0    0  0.13072339465E+02  0.20675493830E+02  0.15318458326E+02  0.12837649851E+03  0.12509000000E+03 0.  0.
<mgrwt>
<rscale>  2 0.44767676E+03</rscale>
<asrwt>0</asrwt>
<pdfrwt beam="1">  1       21 0.68492378E-01 0.44767676E+03</pdfrwt>
<pdfrwt beam="2">  1       21 0.15820093E-01 0.44767676E+03</pdfrwt>
<totfact> 0.63975787E+04</totfact>
</mgrwt>
</event>
<event>
 7    0  0.4691878E-002  0.4461339E+03  0.7546771E-02  0.1028881E+00
         21   -1    0    0  502  501  0.00000000000E+00  0.00000000000E+00  0.51065884135E+03  0.51065884135E+03  0.00000000000E+00 0. -1.
         21   -1    0    0  501  502 -0.00000000000E+00 -0.00000000000E+00 -0.97440506473E+02  0.97440506473E+02  0.00000000000E+00 0. -1.
      99926    2    1    2    0    0  0.00000000000E+00  0.00000000000E+00  0.41321833488E+03  0.60809934782E+03  0.44613386393E+03 0.  0.
      99925    2    3    3    0    0 -0.72489620124E+02 -0.62741056728E+02  0.31930923133E+03  0.42463923484E+03  0.26299982763E+03 0.  0.
         25    1    3    3    0    0  0.72489620124E+02  0.62741056728E+02  0.93909103548E+02  0.18346011298E+03  0.12509000000E+03 0.  0.
         25    1    4    4    0    0 -0.33647926967E+02 -0.40966341255E+02  0.10165523603E+03  0.16968122824E+03  0.12509000000E+03 0.  0.
         25    1    4    4    0    0 -0.38841693157E+02 -0.21774715473E+02  0.21765399530E+03  0.25495800660E+03  0.12509000000E+03 0.  0.
<mgrwt>
<rscale>  2 0.44613386E+03</rscale>
<asrwt>0</asrwt>
<pdfrwt beam="1">  1       21 0.75096888E-01 0.44613386E+03</pdfrwt>
<pdfrwt beam="2">  1       21 0.14329486E-01 0.44613386E+03</pdfrwt>
<totfact> 0.62441953E+04</totfact>
</mgrwt>
</event>
<event>
 7    0  0.4691878E-002  0.4541703E+03  0.7546771E-02  0.1026486E+00
         21   -1    0    0  502  501  0.00000000000E+00  0.00000000000E+00  0.31962751426E+03  0.31962751426E+03  0.00000000000E+00 0. -1.
         21   -1    0    0  501  502 -0.00000000000E+00 -0.00000000000E+00 -0.16133674349E+03  0.16133674349E+03  0.00000000000E+00 0. -1.
      99926    2    1    2    0    0 -0.71054273576E-14  0.00000000000E+00  0.15829077078E+03  0.48096425775E+03  0.45417028648E+03 0.  0.
      99925    2    3    3    0    0 -0.51426464398E+02  0.37864151057E+02  0.17278973374E+01  0.27063637891E+03  0.26298800122E+03 0.  0.
         25    1    4    4    0    0  0.12300875671E+02  0.34509698374E+01  0.76299183238E+01  0.12597199883E+03  0.12509000000E+03 0.  0.
         25    1    3    3    0    0  0.51426464398E+02 -0.37864151057E+02  0.15656287344E+03  0.21032787884E+03  0.12509000000E+03 0.  0.
         25    1    4    4    0    0 -0.63727340069E+02  0.34413181220E+02 -0.59020209864E+01  0.14466438009E+03  0.12509000000E+03 0.  0.
<mgrwt>
<rscale>  2 0.45417029E+03</rscale>
<asrwt>0</asrwt>
<pdfrwt beam="1">  1       21 0.47004046E-01 0.45417029E+03</pdfrwt>
<pdfrwt beam="2">  1       21 0.23725992E-01 0.45417029E+03</pdfrwt>
<totfact> 0.67070621E+04</totfact>
</mgrwt>
</event>
<event>
 7    0  0.4691878E-002  0.4496954E+03  0.7546771E-02  0.1027813E+00
         21   -1    0    0  502  501  0.00000000000E+00  0.00000000000E+00  0.19212203211E+03  0.19212203211E+03  0.00000000000E+00 0. -1.
         21   -1    0    0  501  502 -0.00000000000E+00 -0.00000000000E+00 -0.26314774654E+03  0.26314774654E+03  0.00000000000E+00 0. -1.
      99926    2    1    2    0    0  0.00000000000E+00  0.00000000000E+00 -0.71025714436E+02  0.45526977865E+03  0.44969536271E+03 0.  0.
      99925    2    3    3    0    0 -0.52557438892E+02  0.89799005649E+02 -0.74026645941E+02  0.29253484236E+03  0.26319297842E+03 0.  0.
         25    1    4    4    0    0 -0.56388072799E+02  0.17880952513E+02 -0.29499635768E+02  0.14148172966E+03  0.12509000000E+03 0.  0.
         25    1    3    3    0    0  0.52557438892E+02 -0.89799005649E+02  0.30009315043E+01  0.16273493629E+03  0.12509000000E+03 0.  0.
         25    1    4    4    0    0  0.38306339064E+01  0.71918053136E+02 -0.44527010173E+02  0.15105311271E+03  0.12509000000E+03 0.  0.
<mgrwt>
<rscale>  2 0.44969536E+03</rscale>
<asrwt>0</asrwt>
<pdfrwt beam="1">  1       21 0.28253240E-01 0.44969536E+03</pdfrwt>
<pdfrwt beam="2">  1       21 0.38698198E-01 0.44969536E+03</pdfrwt>
<totfact> 0.71503879E+04</totfact>
</mgrwt>
</event>
<event>
 6    0  0.4691878E-002  0.4582824E+03  0.7546771E-02  0.1025281E+00
         21   -1    0    0  502  501  0.00000000000E+00  0.00000000000E+00  0.11079031523E+03  0.11079031523E+03  0.00000000000E+00 0.  1.
         21   -1    0    0  501  502 -0.00000000000E+00 -0.00000000000E+00 -0.47391940676E+03  0.47391940676E+03  0.00000000000E+00 0.  1.
      99926    2    1    2    0    0  0.00000000000E+00  0.00000000000E+00 -0.36312909154E+03  0.58470972199E+03  0.45828236042E+03 0.  0.
         25    1    3    3    0    0 -0.75695754327E+02  0.66557508182E+02 -0.16719456719E+03  0.23186478930E+03  0.12509000000E+03 0.  0.
         25    1    3    3    0    0  0.80212283058E+02  0.38015300139E+01 -0.83673504769E+02  0.17057908865E+03  0.12509000000E+03 0.  0.
         25    1    3    3    0    0 -0.45165287313E+01 -0.70359038196E+02 -0.11226101957E+03  0.18226584404E+03  0.12509000000E+03 0.  0.
<mgrwt>
<rscale>  2 0.45828236E+03</rscale>
<asrwt>0</asrwt>
<pdfrwt beam="1">  1       21 0.16292694E-01 0.45828236E+03</pdfrwt>
<pdfrwt beam="2">  1       21 0.69694028E-01 0.45828236E+03</pdfrwt>
<totfact> 0.58107028E+04</totfact>
</mgrwt>
</event>
<event>
 7    0  0.4691878E-002  0.4569793E+03  0.7546771E-02  0.1025661E+00
         21   -1    0    0  502  501  0.00000000000E+00  0.00000000000E+00  0.31456047071E+03  0.31456047071E+03  0.00000000000E+00 0. -1.
         21   -1    0    0  501  502 -0.00000000000E+00 -0.00000000000E+00 -0.16596976924E+03  0.16596976924E+03  0.00000000000E+00 0. -1.
      99926    2    1    2    0    0  0.00000000000E+00  0.00000000000E+00  0.14859070147E+03  0.48053023995E+03  0.45697933755E+03 0.  0.
      99925    2    3    3    0    0  0.20147370967E+02 -0.32715770136E+02 -0.20707965755E+02  0.26655410811E+03  0.26295633579E+03 0.  0.
         25    1    4    4    0    0 -0.24541824357E+02  0.12189678157E+01  0.24966093183E+01  0.12750501239E+03  0.12509000000E+03 0.  0.
         25    1    3    3    0    0 -0.20147370967E+02  0.32715770136E+02  0.16929866723E+03  0.21397613184E+03  0.12509000000E+03 0.  0.
         25    1    4    4    0    0  0.44689195324E+02 -0.33934737952E+02 -0.23204575074E+02  0.13904909573E+03  0.12509000000E+03 0.  0.
<mgrwt>
<rscale>  2 0.45697934E+03</rscale>
<asrwt>0</asrwt>
<pdfrwt beam="1">  1       21 0.46258893E-01 0.45697934E+03</pdfrwt>
<pdfrwt beam="2">  1       21 0.24407319E-01 0.45697934E+03</pdfrwt>
<totfact> 0.65624446E+04</totfact>
</mgrwt>
</event>
<event>
 7    0  0.4691878E-002  0.4571296E+03  0.7546771E-02  0.1025617E+00
         21   -1    0    0  502  501  0.00000000000E+00  0.00000000000E+00  0.17279145450E+04  0.17279145450E+04  0.00000000000E+00 0.  1.
         21   -1    0    0  501  502 -0.00000000000E+00 -0.00000000000E+00 -0.30234056130E+02  0.30234056130E+02  0.00000000000E+00 0.  1.
      99926    2    1    2    0    0  0.00000000000E+00 -0.14210854715E-13  0.16976804889E+04  0.17581486011E+04  0.45712958925E+03 0.  0.
      99925    2    3    3    0    0 -0.32771786357E+02 -0.99912795213E+02  0.12470793397E+04  0.12788308981E+04  0.26295442573E+03 0.  0.
         25    1    4    4    0    0 -0.37816831950E+02 -0.85693155306E+02  0.74146557663E+03  0.75775466945E+03  0.12509000000E+03 0.  0.
         25    1    3    3    0    0  0.32771786357E+02  0.99912795213E+02  0.45060114921E+03  0.47931770299E+03  0.12509000000E+03 0.  0.
         25    1    4    4    0    0  0.50450455932E+01 -0.14219639907E+02  0.50561376303E+03  0.52107622869E+03  0.12509000000E+03 0.  0.
<mgrwt>
<rscale>  2 0.45712959E+03</rscale>
<asrwt>0</asrwt>
<pdfrwt beam="1">  1       21 0.25410501E+00 0.45712959E+03</pdfrwt>
<pdfrwt beam="2">  1       21 0.44461859E-02 0.45712959E+03</pdfrwt>
<totfact> 0.17781859E+04</totfact>
</mgrwt>
</event>
<event>
 7    0  0.4691878E-002  0.4376249E+03  0.7546771E-02  0.1031478E+00
         21   -1    0    0  502  501  0.00000000000E+00  0.00000000000E+00  0.44593536341E+03  0.44593536341E+03  0.00000000000E+00 0. -1.
         21   -1    0    0  501  502 -0.00000000000E+00 -0.00000000000E+00 -0.10736733193E+03  0.10736733193E+03  0.00000000000E+00 0. -1.
      99926    2    1    2    0    0  0.00000000000E+00  0.00000000000E+00  0.33856803148E+03  0.55330269534E+03  0.43762490871E+03 0.  0.
      99925    2    3    3    0    0  0.13749195866E+02 -0.53775041413E+02  0.31557152338E+03  0.41453258706E+03  0.26300396176E+03 0.  0.
         25    1    3    3    0    0 -0.13749195866E+02  0.53775041413E+02  0.22996508104E+02  0.13877010828E+03  0.12509000000E+03 0.  0.
         25    1    4    4    0    0  0.12966165119E+00 -0.58238499967E+02  0.20412296737E+03  0.24638472680E+03  0.12509000000E+03 0.  0.
         25    1    4    4    0    0  0.13619534215E+02  0.44634585544E+01  0.11144855601E+03  0.16814786026E+03  0.12509000000E+03 0.  0.
<mgrwt>
<rscale>  2 0.43762491E+03</rscale>
<asrwt>0</asrwt>
<pdfrwt beam="1">  1       21 0.65578729E-01 0.43762491E+03</pdfrwt>
<pdfrwt beam="2">  1       21 0.15789314E-01 0.43762491E+03</pdfrwt>
<totfact> 0.70903778E+04</totfact>
</mgrwt>
</event>
<event>
 7    0  0.4691878E-002  0.4688043E+03  0.7546771E-02  0.1022258E+00
         21   -1    0    0  502  501  0.00000000000E+00  0.00000000000E+00  0.16673431320E+02  0.16673431320E+02  0.00000000000E+00 0. -1.
         21   -1    0    0  501  502 -0.00000000000E+00 -0.00000000000E+00 -0.32953250882E+04  0.32953250882E+04  0.00000000000E+00 0. -1.
      99926    2    1    2    0    0  0.00000000000E+00  0.00000000000E+00 -0.32786516569E+04  0.33119985196E+04  0.46880433674E+03 0.  0.
      99925    2    3    3    0    0  0.10291477242E+03 -0.65398267373E+02 -0.18243496491E+04  0.18472424915E+04  0.26303002944E+03 0.  0.
         25    1    4    4    0    0  0.49643750251E+02 -0.21556577604E+02 -0.64298297812E+03  0.65726996450E+03  0.12509000000E+03 0.  0.
         25    1    3    3    0    0 -0.10291477242E+03  0.65398267373E+02 -0.14543020078E+04  0.14647560280E+04  0.12509000000E+03 0.  0.
         25    1    4    4    0    0  0.53271022170E+02 -0.43841689769E+02 -0.11813666710E+04  0.11899725270E+04  0.12509000000E+03 0.  0.
<mgrwt>
<rscale>  2 0.46880434E+03</rscale>
<asrwt>0</asrwt>
<pdfrwt beam="1">  1       21 0.24519732E-02 0.46880434E+03</pdfrwt>
<pdfrwt beam="2">  1       21 0.48460703E+00 0.46880434E+03</pdfrwt>
<totfact> 0.16662656E+03</totfact>
</mgrwt>
</event>
<event>
 7    0  0.4691878E-002  0.4520527E+03  0.7546771E-02  0.1027112E+00
         21   -1    0    0  502  501  0.00000000000E+00  0.00000000000E+00  0.65114870885E+02  0.65114870885E+02  0.00000000000E+00 0.  1.
         21   -1    0    0  501  502 -0.00000000000E+00 -0.00000000000E+00 -0.78458146518E+03  0.78458146518E+03  0.00000000000E+00 0.  1.
      99926    2    1    2    0    0  0.00000000000E+00  0.00000000000E+00 -0.71946659430E+03  0.84969633607E+03  0.45205274384E+03 0.  0.
      99925    2    3    3    0    0  0.85431713007E+02 -0.16662972706E+02 -0.58123254536E+03  0.64394796394E+03  0.26317575161E+03 0.  0.
         25    1    4    4    0    0  0.67037615572E+02 -0.65140861961E+01 -0.38411235423E+03  0.40954399518E+03  0.12509000000E+03 0.  0.
         25    1    3    3    0    0 -0.85431713007E+02  0.16662972706E+02 -0.13823404894E+03  0.20574837213E+03  0.12509000000E+03 0.  0.
         25    1    4    4    0    0  0.18394097435E+02 -0.10148886510E+02 -0.19712019113E+03  0.23440396876E+03  0.12509000000E+03 0.  0.
<mgrwt>
<rscale>  2 0.45205274E+03</rscale>
<asrwt>0</asrwt>
<pdfrwt beam="1">  1       21 0.95757169E-02 0.45205274E+03</pdfrwt>
<pdfrwt beam="2">  1       21 0.11537962E+00 0.45205274E+03</pdfrwt>
<totfact> 0.46519189E+04</totfact>
</mgrwt>
</event>
<event>
 7    0  0.4691878E-002  0.4419098E+03  0.7546771E-02  0.1030162E+00
         21   -1    0    0  502  501  0.00000000000E+00  0.00000000000E+00  0.43974231575E+02  0.43974231575E+02  0.00000000000E+00 0. -1.
         21   -1    0    0  501  502 -0.00000000000E+00 -0.00000000000E+00 -0.11102198324E+04  0.11102198324E+04  0.00000000000E+00 0. -1.
      99926    2    1    2    0    0  0.00000000000E+00 -0.71054273576E-14 -0.10662456008E+04  0.11541940640E+04  0.44190978269E+03 0.  0.
      99925    2    3    3    0    0  0.77122826827E+02  0.63800900940E+02 -0.69998539141E+03  0.75442846455E+03  0.26299101613E+03 0.  0.
         25    1    4    4    0    0  0.19771450338E+02  0.48091866747E+02 -0.43238022360E+03  0.45310473818E+03  0.12509000000E+03 0.  0.
         25    1    3    3    0    0 -0.77122826827E+02 -0.63800900940E+02 -0.36626020939E+03  0.39976559940E+03  0.12509000000E+03 0.  0.
         25    1    4    4    0    0  0.57351376489E+02  0.15709034193E+02 -0.26760516781E+03  0.30132372638E+03  0.12509000000E+03 0.  0.
<mgrwt>
<rscale>  2 0.44190978E+03</rscale>
<asrwt>0</asrwt>
<pdfrwt beam="1">  1       21 0.64667996E-02 0.44190978E+03</pdfrwt>
<pdfrwt beam="2">  1       21 0.16326760E+00 0.44190978E+03</pdfrwt>
<totfact> 0.37305584E+04</totfact>
</mgrwt>
</event>
<event>
 7    0  0.4691878E-002  0.4606406E+03  0.7546771E-02  0.1024596E+00
         21   -1    0    0  502  501  0.00000000000E+00  0.00000000000E+00  0.23851927834E+03  0.23851927834E+03  0.00000000000E+00 0. -1.
         21   -1    0    0  501  502 -0.00000000000E+00 -0.00000000000E+00 -0.22240313144E+03  0.22240313144E+03  0.00000000000E+00 0. -1.
      99926    2    1    2    0    0 -0.35527136788E-14  0.00000000000E+00  0.16116146898E+02  0.46092240978E+03  0.46064057317E+03 0.  0.
      99925    2    3    3    0    0  0.20264692413E+02 -0.17564049691E+02 -0.10523457294E+03  0.28459130389E+03  0.26305653634E+03 0.  0.
         25    1    4    4    0    0  0.38124748125E+02 -0.72516282107E+01 -0.85184447929E+02  0.15623693801E+03  0.12509000000E+03 0.  0.
         25    1    3    3    0    0 -0.20264692413E+02  0.17564049691E+02  0.12135071984E+03  0.17633110589E+03  0.12509000000E+03 0.  0.
         25    1    4    4    0    0 -0.17860055712E+02 -0.10312421480E+02 -0.20050125010E+02  0.12835436588E+03  0.12509000000E+03 0.  0.
<mgrwt>
<rscale>  2 0.46064057E+03</rscale>
<asrwt>0</asrwt>
<pdfrwt beam="1">  1       21 0.35076364E-01 0.46064057E+03</pdfrwt>
<pdfrwt beam="2">  1       21 0.32706343E-01 0.46064057E+03</pdfrwt>
<totfact> 0.65133014E+04</totfact>
</mgrwt>
</event>
<event>
 7    0  0.4691878E-002  0.4376923E+03  0.7546771E-02  0.1031457E+00
         21   -1    0    0  502  501  0.00000000000E+00  0.00000000000E+00  0.26162492647E+04  0.26162492647E+04  0.00000000000E+00 0.  1.
         21   -1    0    0  501  502 -0.00000000000E+00 -0.00000000000E+00 -0.18306222626E+02  0.18306222626E+02  0.00000000000E+00 0.  1.
      99926    2    1    2    0    0  0.00000000000E+00  0.00000000000E+00  0.25979430421E+04  0.26345554874E+04  0.43769231881E+03 0.  0.
      99925    2    3    3    0    0 -0.59883606116E+02  0.61143211732E+02  0.14013350137E+04  0.14283868340E+04  0.26310565990E+03 0.  0.
         25    1    4    4    0    0  0.30459406853E+01  0.54318650244E+02  0.70749636126E+03  0.72052647613E+03  0.12509000000E+03 0.  0.
         25    1    4    4    0    0 -0.62929546801E+02  0.68245614886E+01  0.69383865244E+03  0.70786035786E+03  0.12509000000E+03 0.  0.
         25    1    3    3    0    0  0.59883606116E+02 -0.61143211732E+02  0.11966080284E+04  0.12061686534E+04  0.12509000000E+03 0.  0.
<mgrwt>
<rscale>  2 0.43769232E+03</rscale>
<asrwt>0</asrwt>
<pdfrwt beam="1">  1       21 0.38474228E+00 0.43769232E+03</pdfrwt>
<pdfrwt beam="2">  1       21 0.26920934E-02 0.43769232E+03</pdfrwt>
<totfact> 0.67091574E+03</totfact>
</mgrwt>
</event>
<event>
 7    0  0.4691878E-002  0.4346292E+03  0.7546771E-02  0.1032408E+00
         21   -1    0    0  502  501  0.00000000000E+00  0.00000000000E+00  0.37784778017E+03  0.37784778017E+03  0.00000000000E+00 0. -1.
         21   -1    0    0  501  502 -0.00000000000E+00 -0.00000000000E+00 -0.12498586871E+03  0.12498586871E+03  0.00000000000E+00 0. -1.
      99926    2    1    2    0    0  0.14210854715E-13 -0.17763568394E-14  0.25286191145E+03  0.50283364888E+03  0.43462918929E+03 0.  0.
      99925    2    3    3    0    0 -0.86550535019E+02 -0.10755891186E+02  0.19855423194E+03  0.34095864630E+03  0.26310137050E+03 0.  0.
         25    1    3    3    0    0  0.86550535019E+02  0.10755891186E+02  0.54307679512E+02  0.16187500258E+03  0.12509000000E+03 0.  0.
         25    1    4    4    0    0 -0.24132722414E+01  0.73314154690E+01  0.87849731991E+02  0.15305115827E+03  0.12509000000E+03 0.  0.
         25    1    4    4    0    0 -0.84137262777E+02 -0.18087306655E+02  0.11070449995E+03  0.18790748803E+03  0.12509000000E+03 0.  0.
<mgrwt>
<rscale>  2 0.43462919E+03</rscale>
<asrwt>0</asrwt>
<pdfrwt beam="1">  1       21 0.55565850E-01 0.43462919E+03</pdfrwt>
<pdfrwt beam="2">  1       21 0.18380275E-01 0.43462919E+03</pdfrwt>
<totfact> 0.76745306E+04</totfact>
</mgrwt>
</event>
<event>
 7    0  0.4691878E-002  0.4549719E+03  0.7546771E-02  0.1026250E+00
         21   -1    0    0  502  501  0.00000000000E+00  0.00000000000E+00  0.70925881404E+03  0.70925881404E+03  0.00000000000E+00 0.  1.
         21   -1    0    0  501  502 -0.00000000000E+00 -0.00000000000E+00 -0.72963300645E+02  0.72963300645E+02  0.00000000000E+00 0.  1.
      99926    2    1    2    0    0  0.00000000000E+00  0.00000000000E+00  0.63629551340E+03  0.78222211469E+03  0.45497192917E+03 0.  0.
      99925    2    3    3    0    0  0.83554331790E+02 -0.47347818756E+02  0.50346737146E+03  0.57603296441E+03  0.26289054692E+03 0.  0.
         25    1    3    3    0    0 -0.83554331790E+02  0.47347818756E+02  0.13282814194E+03  0.20618915028E+03  0.12509000000E+03 0.  0.
         25    1    4    4    0    0  0.31665262270E+02 -0.44673734373E+02  0.18482609032E+03  0.22979691717E+03  0.12509000000E+03 0.  0.
         25    1    4    4    0    0  0.51889069520E+02 -0.26740843828E+01  0.31864128114E+03  0.34623604724E+03  0.12509000000E+03 0.  0.
<mgrwt>
<rscale>  2 0.45497193E+03</rscale>
<asrwt>0</asrwt>
<pdfrwt beam="1">  1       21 0.10430276E+00 0.45497193E+03</pdfrwt>
<pdfrwt beam="2">  1       21 0.10729898E-01 0.45497193E+03</pdfrwt>
<totfact> 0.48647483E+04</totfact>
</mgrwt>
</event>
<event>
 7    0  0.4691878E-002  0.4534185E+03  0.7546771E-02  0.1026707E+00
         21   -1    0    0  502  501  0.00000000000E+00  0.00000000000E+00  0.72559638269E+03  0.72559638269E+03  0.00000000000E+00 0.  1.
         21   -1    0    0  501  502 -0.00000000000E+00 -0.00000000000E+00 -0.70834261364E+02  0.70834261364E+02  0.00000000000E+00 0.  1.
      99926    2    1    2    0    0  0.00000000000E+00 -0.66613381478E-15  0.65476212133E+03  0.79643064406E+03  0.45341849903E+03 0.  0.
      99925    2    3    3    0    0  0.11153082705E+03 -0.14716901766E+01  0.42010675586E+03  0.50806986327E+03  0.26306654745E+03 0.  0.
         25    1    4    4    0    0  0.41774829830E+02 -0.13457249519E+02  0.13739586654E+03  0.19092240889E+03  0.12509000000E+03 0.  0.
         25    1    4    4    0    0  0.69755997221E+02  0.11985559342E+02  0.28271088932E+03  0.31714745438E+03  0.12509000000E+03 0.  0.
         25    1    3    3    0    0 -0.11153082705E+03  0.14716901766E+01  0.23465536547E+03  0.28836078079E+03  0.12509000000E+03 0.  0.
<mgrwt>
<rscale>  2 0.45341850E+03</rscale>
<asrwt>0</asrwt>
<pdfrwt beam="1">  1       21 0.10670535E+00 0.45341850E+03</pdfrwt>
<pdfrwt beam="2">  1       21 0.10416804E-01 0.45341850E+03</pdfrwt>
<totfact> 0.48537578E+04</totfact>
</mgrwt>
</event>
<event>
 7    0  0.4691878E-002  0.4284157E+03  0.7546771E-02  0.1034362E+00
         21   -1    0    0  502  501  0.00000000000E+00  0.00000000000E+00  0.10262024026E+04  0.10262024026E+04  0.00000000000E+00 0.  1.
         21   -1    0    0  501  502 -0.00000000000E+00 -0.00000000000E+00 -0.44713403610E+02  0.44713403610E+02  0.00000000000E+00 0.  1.
      99926    2    1    2    0    0  0.00000000000E+00  0.00000000000E+00  0.98148899902E+03  0.10709158062E+04  0.42841569632E+03 0.  0.
      99925    2    3    3    0    0 -0.56561064077E+02 -0.50130026795E+02  0.53106173382E+03  0.59737129630E+03  0.26289489718E+03 0.  0.
         25    1    3    3    0    0  0.56561064077E+02  0.50130026795E+02  0.45042726520E+03  0.47354450994E+03  0.12509000000E+03 0.  0.
         25    1    4    4    0    0 -0.41447306169E+02  0.97271480934E+01  0.29367895492E+03  0.32203622973E+03  0.12509000000E+03 0.  0.
         25    1    4    4    0    0 -0.15113757909E+02 -0.59857174889E+02  0.23738277890E+03  0.27533506657E+03  0.12509000000E+03 0.  0.
<mgrwt>
<rscale>  2 0.42841570E+03</rscale>
<asrwt>0</asrwt>
<pdfrwt beam="1">  1       21 0.15091210E+00 0.42841570E+03</pdfrwt>
<pdfrwt beam="2">  1       21 0.65755012E-02 0.42841570E+03</pdfrwt>
<totfact> 0.45191025E+04</totfact>
</mgrwt>
</event>
<event>
 7    0  0.4691878E-002  0.4592186E+03  0.7546771E-02  0.1025008E+00
         21   -1    0    0  502  501  0.00000000000E+00  0.00000000000E+00  0.13557919207E+03  0.13557919207E+03  0.00000000000E+00 0.  1.
         21   -1    0    0  501  502 -0.00000000000E+00 -0.00000000000E+00 -0.38885338957E+03  0.38885338957E+03  0.00000000000E+00 0.  1.
      99926    2    1    2    0    0  0.00000000000E+00  0.14210854715E-13 -0.25327419750E+03  0.52443258164E+03  0.45921859018E+03 0.  0.
      99925    2    3    3    0    0  0.68406311478E+02  0.76363779326E+02 -0.94119349059E+02  0.29752153271E+03  0.26296342011E+03 0.  0.
         25    1    4    4    0    0  0.68627663515E+01  0.18911698821E+02 -0.16003735164E+02  0.12770425817E+03  0.12509000000E+03 0.  0.
         25    1    3    3    0    0 -0.68406311478E+02 -0.76363779326E+02 -0.15915484844E+03  0.22691104893E+03  0.12509000000E+03 0.  0.
         25    1    4    4    0    0  0.61543545126E+02  0.57452080505E+02 -0.78115613896E+02  0.16981727455E+03  0.12509000000E+03 0.  0.
<mgrwt>
<rscale>  2 0.45921859E+03</rscale>
<asrwt>0</asrwt>
<pdfrwt beam="1">  1       21 0.19938116E-01 0.45921859E+03</pdfrwt>
<pdfrwt beam="2">  1       21 0.57184322E-01 0.45921859E+03</pdfrwt>
<totfact> 0.61502009E+04</totfact>
</mgrwt>
</event>
<event>
 7    0  0.4691878E-002  0.4600739E+03  0.7546771E-02  0.1024760E+00
         21   -1    0    0  502  501  0.00000000000E+00  0.00000000000E+00  0.29990593167E+03  0.29990593167E+03  0.00000000000E+00 0.  1.
         21   -1    0    0  501  502 -0.00000000000E+00 -0.00000000000E+00 -0.17644533228E+03  0.17644533228E+03  0.00000000000E+00 0.  1.
      99926    2    1    2    0    0  0.00000000000E+00  0.00000000000E+00  0.12346059939E+03  0.47635126395E+03  0.46007391479E+03 0.  0.
      99925    2    3    3    0    0  0.11420821315E+03 -0.24099432435E+01  0.10796698401E+03  0.30624281621E+03  0.26282783160E+03 0.  0.
         25    1    4    4    0    0  0.82758292518E+02 -0.39249266356E+01  0.23026585533E+02  0.15179615203E+03  0.12509000000E+03 0.  0.
         25    1    4    4    0    0  0.31449920634E+02  0.15149833921E+01  0.84940398473E+02  0.15444666418E+03  0.12509000000E+03 0.  0.
         25    1    3    3    0    0 -0.11420821315E+03  0.24099432435E+01  0.15493615379E+02  0.17010844775E+03  0.12509000000E+03 0.  0.
<mgrwt>
<rscale>  2 0.46007391E+03</rscale>
<asrwt>0</asrwt>
<pdfrwt beam="1">  1       21 0.44103814E-01 0.46007391E+03</pdfrwt>
<pdfrwt beam="2">  1       21 0.25947843E-01 0.46007391E+03</pdfrwt>
<totfact> 0.64337093E+04</totfact>
</mgrwt>
</event>
<event>
 7    0  0.4691878E-002  0.4669118E+03  0.7546771E-02  0.1022795E+00
         21   -1    0    0  502  501  0.00000000000E+00  0.00000000000E+00  0.36292091144E+02  0.36292091144E+02  0.00000000000E+00 0. -1.
         21   -1    0    0  501  502 -0.00000000000E+00 -0.00000000000E+00 -0.15017503835E+04  0.15017503835E+04  0.00000000000E+00 0. -1.
      99926    2    1    2    0    0  0.00000000000E+00  0.35527136788E-14 -0.14654582924E+04  0.15380424747E+04  0.46691181949E+03 0.  0.
      99925    2    3    3    0    0  0.68163449421E+02  0.26504094517E+02 -0.59155093355E+03  0.65220371802E+03  0.26474225192E+03 0.  0.
         25    1    4    4    0    0  0.69466681814E+02  0.99847627482E+01 -0.25192823016E+03  0.28989766578E+03  0.12509000000E+03 0.  0.
         25    1    4    4    0    0 -0.13032323926E+01  0.16519331769E+02 -0.33962270338E+03  0.36230605224E+03  0.12509000000E+03 0.  0.
         25    1    3    3    0    0 -0.68163449421E+02 -0.26504094517E+02 -0.87390735883E+03  0.88583875665E+03  0.12509000000E+03 0.  0.
<mgrwt>
<rscale>  2 0.46691182E+03</rscale>
<asrwt>0</asrwt>
<pdfrwt beam="1">  1       21 0.53370719E-02 0.46691182E+03</pdfrwt>
<pdfrwt beam="2">  1       21 0.22084566E+00 0.46691182E+03</pdfrwt>
<totfact> 0.20864031E+04</totfact>
</mgrwt>
</event>
<event>
 7    0  0.4691878E-002  0.4515323E+03  0.7546771E-02  0.1027266E+00
         21   -1    0    0  502  501  0.00000000000E+00  0.00000000000E+00  0.34655426392E+03  0.34655426392E+03  0.00000000000E+00 0. -1.
         21   -1    0    0  501  502 -0.00000000000E+00 -0.00000000000E+00 -0.14707756455E+03  0.14707756455E+03  0.00000000000E+00 0. -1.
      99926    2    1    2    0    0  0.14210854715E-13 -0.17763568394E-14  0.19947669937E+03  0.49363182847E+03  0.45153231168E+03 0.  0.
      99925    2    3    3    0    0  0.97474893608E+02  0.66427546882E+01  0.18091555053E+03  0.33382724337E+03  0.26299184572E+03 0.  0.
         25    1    3    3    0    0 -0.97474893608E+02 -0.66427546882E+01  0.18561148833E+02  0.15980458510E+03  0.12509000000E+03 0.  0.
         25    1    4    4    0    0  0.80924278004E+02 -0.21641647773E+02  0.85586299618E+02  0.17317512082E+03  0.12509000000E+03 0.  0.
         25    1    4    4    0    0  0.16550615604E+02  0.28284402461E+02  0.95329250914E+02  0.16065212255E+03  0.12509000000E+03 0.  0.
<mgrwt>
<rscale>  2 0.45153231E+03</rscale>
<asrwt>0</asrwt>
<pdfrwt beam="1">  1       21 0.50963862E-01 0.45153231E+03</pdfrwt>
<pdfrwt beam="2">  1       21 0.21629054E-01 0.45153231E+03</pdfrwt>
<totfact> 0.67561167E+04</totfact>
</mgrwt>
</event>
<event>
 7    0  0.4691878E-002  0.4430440E+03  0.7546771E-02  0.1029817E+00
         21   -1    0    0  502  501  0.00000000000E+00  0.00000000000E+00  0.40636672575E+02  0.40636672575E+02  0.00000000000E+00 0. -1.
         21   -1    0    0  501  502 -0.00000000000E+00 -0.00000000000E+00 -0.12075790269E+04  0.12075790269E+04  0.00000000000E+00 0. -1.
      99926    2    1    2    0    0  0.00000000000E+00  0.00000000000E+00 -0.11669423543E+04  0.12482156995E+04  0.44304398664E+03 0.  0.
      99925    2    3    3    0    0 -0.84672943856E+02  0.49926444918E+02 -0.67014791462E+03  0.72656986106E+03  0.26295128483E+03 0.  0.
         25    1    3    3    0    0  0.84672943856E+02 -0.49926444918E+02 -0.49679443973E+03  0.52164583844E+03  0.12509000000E+03 0.  0.
         25    1    4    4    0    0 -0.30597531518E+02  0.30119371960E+02 -0.22921224403E+03  0.26463020692E+03  0.12509000000E+03 0.  0.
         25    1    4    4    0    0 -0.54075412339E+02  0.19807072958E+02 -0.44093567059E+03  0.46193965413E+03  0.12509000000E+03 0.  0.
<mgrwt>
<rscale>  2 0.44304399E+03</rscale>
<asrwt>0</asrwt>
<pdfrwt beam="1">  1       21 0.59759816E-02 0.44304399E+03</pdfrwt>
<pdfrwt beam="2">  1       21 0.17758514E+00 0.44304399E+03</pdfrwt>
<totfact> 0.33683176E+04</totfact>
</mgrwt>
</event>
<event>
 7    0  0.4691878E-002  0.4496896E+03  0.7546771E-02  0.1027815E+00
         21   -1    0    0  502  501  0.00000000000E+00  0.00000000000E+00  0.20714974278E+03  0.20714974278E+03  0.00000000000E+00 0. -1.
         21   -1    0    0  501  502 -0.00000000000E+00 -0.00000000000E+00 -0.24405140600E+03  0.24405140600E+03  0.00000000000E+00 0. -1.
      99926    2    1    2    0    0  0.00000000000E+00 -0.71054273576E-14 -0.36901663223E+02  0.45120114877E+03  0.44968960840E+03 0.  0.
      99925    2    3    3    0    0  0.79184085160E+02 -0.51598092934E+02  0.29466658431E+02  0.28095208194E+03  0.26293213165E+03 0.  0.
         25    1    3    3    0    0 -0.79184085160E+02  0.51598092934E+02 -0.66368321655E+02  0.17024906683E+03  0.12509000000E+03 0.  0.
         25    1    4    4    0    0  0.38390191623E+02 -0.65215001059E+02  0.40487668783E+01  0.14625561114E+03  0.12509000000E+03 0.  0.
         25    1    4    4    0    0  0.40793893538E+02  0.13616908125E+02  0.25417891553E+02  0.13469647081E+03  0.12509000000E+03 0.  0.
<mgrwt>
<rscale>  2 0.44968961E+03</rscale>
<asrwt>0</asrwt>
<pdfrwt beam="1">  1       21 0.30463198E-01 0.44968961E+03</pdfrwt>
<pdfrwt beam="2">  1       21 0.35889912E-01 0.44968961E+03</pdfrwt>
<totfact> 0.71820141E+04</totfact>
</mgrwt>
</event>
<event>
 7    0  0.4691878E-002  0.4529088E+03  0.7546771E-02  0.1026858E+00
         21   -1    0    0  502  501  0.00000000000E+00  0.00000000000E+00  0.13418210398E+03  0.13418210398E+03  0.00000000000E+00 0. -1.
         21   -1    0    0  501  502 -0.00000000000E+00 -0.00000000000E+00 -0.38217909219E+03  0.38217909219E+03  0.00000000000E+00 0. -1.
      99926    2    1    2    0    0  0.00000000000E+00  0.00000000000E+00 -0.24799698821E+03  0.51636119617E+03  0.45290879739E+03 0.  0.
      99925    2    3    3    0    0 -0.96426516262E+02  0.36146891362E+02 -0.20375343434E+03  0.34840384756E+03  0.26318265178E+03 0.  0.
         25    1    4    4    0    0 -0.17071652007E+02  0.24460927957E+02 -0.12866505306E+03  0.18191201796E+03  0.12509000000E+03 0.  0.
         25    1    4    4    0    0 -0.79354864254E+02  0.11685963405E+02 -0.75088381285E+02  0.16649182961E+03  0.12509000000E+03 0.  0.
         25    1    3    3    0    0  0.96426516262E+02 -0.36146891362E+02 -0.44243553864E+02  0.16795734861E+03  0.12509000000E+03 0.  0.
<mgrwt>
<rscale>  2 0.45290880E+03</rscale>
<asrwt>0</asrwt>
<pdfrwt beam="1">  1       21 0.19732662E-01 0.45290880E+03</pdfrwt>
<pdfrwt beam="2">  1       21 0.56202808E-01 0.45290880E+03</pdfrwt>
<totfact> 0.65211180E+04</totfact>
</mgrwt>
</event>
<event>
 7    0  0.4691878E-002  0.4607463E+03  0.7546771E-02  0.1024565E+00
         21   -1    0    0  502  501  0.00000000000E+00  0.00000000000E+00  0.10510261431E+04  0.10510261431E+04  0.00000000000E+00 0.  1.
         21   -1    0    0  501  502 -0.00000000000E+00 -0.00000000000E+00 -0.50495209429E+02  0.50495209429E+02  0.00000000000E+00 0.  1.
      99926    2    1    2    0    0  0.71054273576E-14 -0.14210854715E-13  0.10005309337E+04  0.11015213526E+04  0.46074628685E+03 0.  0.
      99925    2    3    3    0    0  0.54119428520E+02 -0.97393253366E+02  0.52981948472E+03  0.60189035408E+03  0.26296188620E+03 0.  0.
         25    1    3    3    0    0 -0.54119428520E+02  0.97393253366E+02  0.47071144897E+03  0.49963099848E+03  0.12509000000E+03 0.  0.
         25    1    4    4    0    0  0.62684670505E+02 -0.32810199774E+02  0.29046900627E+03  0.32407657865E+03  0.12509000000E+03 0.  0.
         25    1    4    4    0    0 -0.85652419850E+01 -0.64583053592E+02  0.23935047846E+03  0.27781377543E+03  0.12509000000E+03 0.  0.
<mgrwt>
<rscale>  2 0.46074629E+03</rscale>
<asrwt>0</asrwt>
<pdfrwt beam="1">  1       21 0.15456265E+00 0.46074629E+03</pdfrwt>
<pdfrwt beam="2">  1       21 0.74257668E-02 0.46074629E+03</pdfrwt>
<totfact> 0.33896378E+04</totfact>
</mgrwt>
</event>
<event>
 7    0  0.4691878E-002  0.4538036E+03  0.7546771E-02  0.1026594E+00
         21   -1    0    0  502  501  0.00000000000E+00  0.00000000000E+00  0.12818183705E+03  0.12818183705E+03  0.00000000000E+00 0.  1.
         21   -1    0    0  501  502 -0.00000000000E+00 -0.00000000000E+00 -0.40165156405E+03  0.40165156405E+03  0.00000000000E+00 0.  1.
      99926    2    1    2    0    0  0.71054273576E-14  0.14210854715E-13 -0.27346972701E+03  0.52983340110E+03  0.45380363742E+03 0.  0.
      99925    2    3    3    0    0  0.60299570865E+02  0.92726509514E+02 -0.15116913306E+03  0.32285710489E+03  0.26296455954E+03 0.  0.
         25    1    3    3    0    0 -0.60299570865E+02 -0.92726509514E+02 -0.12230059395E+03  0.20697629621E+03  0.12509000000E+03 0.  0.
         25    1    4    4    0    0  0.47376432824E+02  0.11860206786E+02 -0.87980246954E+02  0.16054040876E+03  0.12509000000E+03 0.  0.
         25    1    4    4    0    0  0.12923138041E+02  0.80866302728E+02 -0.63188886103E+02  0.16231669612E+03  0.12509000000E+03 0.  0.
<mgrwt>
<rscale>  2 0.45380364E+03</rscale>
<asrwt>0</asrwt>
<pdfrwt beam="1">  1       21 0.18850270E-01 0.45380364E+03</pdfrwt>
<pdfrwt beam="2">  1       21 0.59066406E-01 0.45380364E+03</pdfrwt>
<totfact> 0.63820820E+04</totfact>
</mgrwt>
</event>
<event>
 7    0  0.4691878E-002  0.4483643E+03  0.7546771E-02  0.1028211E+00
         21   -1    0    0  502  501  0.00000000000E+00  0.00000000000E+00  0.30160487381E+03  0.30160487381E+03  0.00000000000E+00 0.  1.
         21   -1    0    0  501  502 -0.00000000000E+00 -0.00000000000E+00 -0.16663406691E+03  0.16663406691E+03  0.00000000000E+00 0.  1.
      99926    2    1    2    0    0  0.00000000000E+00  0.35527136788E-14  0.13497080690E+03  0.46823894072E+03  0.44836434614E+03 0.  0.
      99925    2    3    3    0    0  0.19774254174E+02 -0.13919479512E+02 -0.23230420916E+02  0.26511358626E+03  0.26298438761E+03 0.  0.
         25    1    4    4    0    0  0.81636403155E+01  0.25813768863E+02 -0.35399044668E+02  0.13279155150E+03  0.12509000000E+03 0.  0.
         25    1    4    4    0    0  0.11610613858E+02 -0.39733248375E+02  0.12168623752E+02  0.13232203477E+03  0.12509000000E+03 0.  0.
         25    1    3    3    0    0 -0.19774254174E+02  0.13919479512E+02  0.15820122782E+03  0.20312535445E+03  0.12509000000E+03 0.  0.
<mgrwt>
<rscale>  2 0.44836435E+03</rscale>
<asrwt>0</asrwt>
<pdfrwt beam="1">  1       21 0.44353658E-01 0.44836435E+03</pdfrwt>
<pdfrwt beam="2">  1       21 0.24505010E-01 0.44836435E+03</pdfrwt>
<totfact> 0.71244616E+04</totfact>
</mgrwt>
</event>
<event>
 7    0  0.4691878E-002  0.4539837E+03  0.7546771E-02  0.1026541E+00
         21   -1    0    0  502  501  0.00000000000E+00  0.00000000000E+00  0.30800688739E+02  0.30800688739E+02  0.00000000000E+00 0. -1.
         21   -1    0    0  501  502 -0.00000000000E+00 -0.00000000000E+00 -0.16728619458E+04  0.16728619458E+04  0.00000000000E+00 0. -1.
      99926    2    1    2    0    0  0.00000000000E+00  0.00000000000E+00 -0.16420612571E+04  0.17036626345E+04  0.45398370057E+03 0.  0.
      99925    2    3    3    0    0 -0.27944870368E+02 -0.87651401712E+02 -0.79322066397E+03  0.84073648209E+03  0.26301164720E+03 0.  0.
         25    1    4    4    0    0 -0.28014896670E+02 -0.18261026156E+02 -0.46515177920E+03  0.48283743155E+03  0.12509000000E+03 0.  0.
         25    1    3    3    0    0  0.27944870368E+02  0.87651401712E+02 -0.84884059310E+03  0.86292615246E+03  0.12509000000E+03 0.  0.
         25    1    4    4    0    0  0.70026301479E-01 -0.69390375556E+02 -0.32806888477E+03  0.35789905054E+03  0.12509000000E+03 0.  0.
<mgrwt>
<rscale>  2 0.45398370E+03</rscale>
<asrwt>0</asrwt>
<pdfrwt beam="1">  1       21 0.45295130E-02 0.45398370E+03</pdfrwt>
<pdfrwt beam="2">  1       21 0.24600911E+00 0.45398370E+03</pdfrwt>
<totfact> 0.19337739E+04</totfact>
</mgrwt>
</event>
<event>
 7    0  0.4691878E-002  0.4586952E+03  0.7546771E-02  0.1025160E+00
         21   -1    0    0  502  501  0.00000000000E+00  0.00000000000E+00  0.65624848203E+03  0.65624848203E+03  0.00000000000E+00 0. -1.
         21   -1    0    0  501  502 -0.00000000000E+00 -0.00000000000E+00 -0.80153040555E+02  0.80153040555E+02  0.00000000000E+00 0. -1.
      99926    2    1    2    0    0  0.00000000000E+00  0.00000000000E+00  0.57609544147E+03  0.73640152258E+03  0.45869515452E+03 0.  0.
      99925    2    3    3    0    0 -0.10220691683E+03  0.94249585262E+01  0.27264258856E+03  0.39250295363E+03  0.26303897775E+03 0.  0.
         25    1    4    4    0    0 -0.29923867596E+02  0.16041324439E+02  0.17593122914E+03  0.21852246436E+03  0.12509000000E+03 0.  0.
         25    1    4    4    0    0 -0.72283049236E+02 -0.66163659125E+01  0.96711359419E+02  0.17398048927E+03  0.12509000000E+03 0.  0.
         25    1    3    3    0    0  0.10220691683E+03 -0.94249585262E+01  0.30345285291E+03  0.34389856896E+03  0.12509000000E+03 0.  0.
<mgrwt>
<rscale>  2 0.45869515E+03</rscale>
<asrwt>0</asrwt>
<pdfrwt beam="1">  1       21 0.96507127E-01 0.45869515E+03</pdfrwt>
<pdfrwt beam="2">  1       21 0.11787212E-01 0.45869515E+03</pdfrwt>
<totfact> 0.49516444E+04</totfact>
</mgrwt>
</event>
<event>
 7    0  0.4691878E-002  0.4494628E+03  0.7546771E-02  0.1027882E+00
         21   -1    0    0  502  501  0.00000000000E+00  0.00000000000E+00  0.10478430664E+04  0.10478430664E+04  0.00000000000E+00 0. -1.
         21   -1    0    0  501  502 -0.00000000000E+00 -0.00000000000E+00 -0.48198253609E+02  0.48198253609E+02  0.00000000000E+00 0. -1.
      99926    2    1    2    0    0 -0.71054273576E-14  0.00000000000E+00  0.99964481281E+03  0.10960413200E+04  0.44946281652E+03 0.  0.
      99925    2    3    3    0    0 -0.46918013207E+02  0.18261584156E+02  0.39942195403E+03  0.48085860431E+03  0.26296827671E+03 0.  0.
         25    1    4    4    0    0 -0.25687493041E+02 -0.21633134025E+02  0.24441116998E+03  0.27660832941E+03  0.12509000000E+03 0.  0.
         25    1    4    4    0    0 -0.21230520166E+02  0.39894718181E+02  0.15501078405E+03  0.20425027490E+03  0.12509000000E+03 0.  0.
         25    1    3    3    0    0  0.46918013207E+02 -0.18261584156E+02  0.60022285877E+03  0.61518271571E+03  0.12509000000E+03 0.  0.
<mgrwt>
<rscale>  2 0.44946282E+03</rscale>
<asrwt>0</asrwt>
<pdfrwt beam="1">  1       21 0.15409455E+00 0.44946282E+03</pdfrwt>
<pdfrwt beam="2">  1       21 0.70879792E-02 0.44946282E+03</pdfrwt>
<totfact> 0.37213551E+04</totfact>
</mgrwt>
</event>
<event>
 7    0  0.4691878E-002  0.4350433E+03  0.7546771E-02  0.1032279E+00
         21   -1    0    0  502  501  0.00000000000E+00  0.00000000000E+00  0.29000228885E+03  0.29000228885E+03  0.00000000000E+00 0.  1.
         21   -1    0    0  501  502 -0.00000000000E+00 -0.00000000000E+00 -0.16315619182E+03  0.16315619182E+03  0.00000000000E+00 0.  1.
      99926    2    1    2    0    0  0.00000000000E+00 -0.88817841970E-15  0.12684609703E+03  0.45315848067E+03  0.43504330390E+03 0.  0.
      99925    2    3    3    0    0  0.67901134181E+02 -0.71159555416E+01  0.14721869843E+03  0.30920101530E+03  0.26319331650E+03 0.  0.
         25    1    4    4    0    0  0.44497162362E+02 -0.31920013979E+01  0.12002662645E+03  0.17900861848E+03  0.12509000000E+03 0.  0.
         25    1    4    4    0    0  0.23403971819E+02 -0.39239541437E+01  0.27192071978E+02  0.13019239683E+03  0.12509000000E+03 0.  0.
         25    1    3    3    0    0 -0.67901134181E+02  0.71159555416E+01 -0.20372601400E+02  0.14395746536E+03  0.12509000000E+03 0.  0.
<mgrwt>
<rscale>  2 0.43504330E+03</rscale>
<asrwt>0</asrwt>
<pdfrwt beam="1">  1       21 0.42647396E-01 0.43504330E+03</pdfrwt>
<pdfrwt beam="2">  1       21 0.23993558E-01 0.43504330E+03</pdfrwt>
<totfact> 0.80756322E+04</totfact>
</mgrwt>
</event>
<event>
 7    0  0.4691878E-002  0.4469463E+03  0.7546771E-02  0.1028637E+00
         21   -1    0    0  502  501  0.00000000000E+00  0.00000000000E+00  0.31594406759E+03  0.31594406759E+03  0.00000000000E+00 0. -1.
         21   -1    0    0  501  502 -0.00000000000E+00 -0.00000000000E+00 -0.15806673448E+03  0.15806673448E+03  0.00000000000E+00 0. -1.
      99926    2    1    2    0    0  0.14210854715E-13  0.00000000000E+00  0.15787733311E+03  0.47401080207E+03  0.44694629227E+03 0.  0.
      99925    2    3    3    0    0  0.98559555101E+02 -0.37681574753E+02  0.91767059534E+02  0.29751161411E+03  0.26259870590E+03 0.  0.
         25    1    4    4    0    0  0.25604675520E+02 -0.88714508337E+01  0.76415662056E+02  0.14906764758E+03  0.12509000000E+03 0.  0.
         25    1    4    4    0    0  0.72954879580E+02 -0.28810123920E+02  0.15351397477E+02  0.14844396653E+03  0.12509000000E+03 0.  0.
         25    1    3    3    0    0 -0.98559555101E+02  0.37681574753E+02  0.66110273577E+02  0.17649918796E+03  0.12509000000E+03 0.  0.
<mgrwt>
<rscale>  2 0.44694629E+03</rscale>
<asrwt>0</asrwt>
<pdfrwt beam="1">  1       21 0.46462363E-01 0.44694629E+03</pdfrwt>
<pdfrwt beam="2">  1       21 0.23245108E-01 0.44694629E+03</pdfrwt>
<totfact> 0.71607760E+04</totfact>
</mgrwt>
</event>
<event>
 7    0  0.4691878E-002  0.4560291E+03  0.7546771E-02  0.1025939E+00
         21   -1    0    0  502  501  0.00000000000E+00  0.00000000000E+00  0.10381871375E+04  0.10381871375E+04  0.00000000000E+00 0. -1.
         21   -1    0    0  501  502 -0.00000000000E+00 -0.00000000000E+00 -0.50078282104E+02  0.50078282104E+02  0.00000000000E+00 0. -1.
      99926    2    1    2    0    0  0.00000000000E+00 -0.35527136788E-14  0.98810885543E+03  0.10882654196E+04  0.45602907078E+03 0.  0.
      99925    2    3    3    0    0  0.85848186001E+02  0.16158391270E+02  0.79652352316E+03  0.84335022556E+03  0.26298075093E+03 0.  0.
         25    1    4    4    0    0  0.24203917747E+02  0.44134997048E+02  0.39471575056E+03  0.41711120752E+03  0.12509000000E+03 0.  0.
         25    1    3    3    0    0 -0.85848186001E+02 -0.16158391270E+02  0.19158533227E+03  0.24491519407E+03  0.12509000000E+03 0.  0.
         25    1    4    4    0    0  0.61644268254E+02 -0.27976605779E+02  0.40180777260E+03  0.42623901804E+03  0.12509000000E+03 0.  0.
<mgrwt>
<rscale>  2 0.45602907E+03</rscale>
<asrwt>0</asrwt>
<pdfrwt beam="1">  1       21 0.15267456E+00 0.45602907E+03</pdfrwt>
<pdfrwt beam="2">  1       21 0.73644539E-02 0.45602907E+03</pdfrwt>
<totfact> 0.35616996E+04</totfact>
</mgrwt>
</event>
<event>
 7    0  0.4691878E-002  0.4667064E+03  0.7546771E-02  0.1022854E+00
         21   -1    0    0  502  501  0.00000000000E+00  0.00000000000E+00  0.18132373872E+02  0.18132373872E+02  0.00000000000E+00 0. -1.
         21   -1    0    0  501  502 -0.00000000000E+00 -0.00000000000E+00 -0.30031209269E+04  0.30031209269E+04  0.00000000000E+00 0. -1.
      99926    2    1    2    0    0  0.35527136788E-14  0.88817841970E-15 -0.29849885530E+04  0.30212533007E+04  0.46670638062E+03 0.  0.
      99925    2    3    3    0    0  0.26951250490E+02  0.70986557255E+01 -0.26402344030E+04  0.26534494225E+04  0.26301972192E+03 0.  0.
         25    1    4    4    0    0 -0.12683122200E+02 -0.22651617230E+01 -0.15990769916E+04  0.16040139418E+04  0.12509000000E+03 0.  0.
         25    1    3    3    0    0 -0.26951250490E+02 -0.70986557255E+01 -0.34475415002E+03  0.36780387828E+03  0.12509000000E+03 0.  0.
         25    1    4    4    0    0  0.39634372690E+02  0.93638174484E+01 -0.10411574114E+04  0.10494354806E+04  0.12509000000E+03 0.  0.
<mgrwt>
<rscale>  2 0.46670638E+03</rscale>
<asrwt>0</asrwt>
<pdfrwt beam="1">  1       21 0.26665259E-02 0.46670638E+03</pdfrwt>
<pdfrwt beam="2">  1       21 0.44163537E+00 0.46670638E+03</pdfrwt>
<totfact> 0.28612998E+03</totfact>
</mgrwt>
</event>
<event>
 7    0  0.4691878E-002  0.4502117E+03  0.7546771E-02  0.1027659E+00
         21   -1    0    0  502  501  0.00000000000E+00  0.00000000000E+00  0.41126169367E+03  0.41126169367E+03  0.00000000000E+00 0.  1.
         21   -1    0    0  501  502 -0.00000000000E+00 -0.00000000000E+00 -0.12321267697E+03  0.12321267697E+03  0.00000000000E+00 0.  1.
      99926    2    1    2    0    0  0.00000000000E+00 -0.14210854715E-13  0.28804901670E+03  0.53447437064E+03  0.45021174668E+03 0.  0.
      99925    2    3    3    0    0 -0.47652322878E+02  0.96930446885E+02  0.19512289279E+03  0.34487208159E+03  0.26305427950E+03 0.  0.
         25    1    4    4    0    0  0.61453858934E+01  0.71817600168E+02  0.11743759652E+03  0.18610381683E+03  0.12509000000E+03 0.  0.
         25    1    4    4    0    0 -0.53797708772E+02  0.25112846717E+02  0.77685296275E+02  0.15876826477E+03  0.12509000000E+03 0.  0.
         25    1    3    3    0    0  0.47652322878E+02 -0.96930446885E+02  0.92926123907E+02  0.18960228905E+03  0.12509000000E+03 0.  0.
<mgrwt>
<rscale>  2 0.45021175E+03</rscale>
<asrwt>0</asrwt>
<pdfrwt beam="1">  1       21 0.60479660E-01 0.45021175E+03</pdfrwt>
<pdfrwt beam="2">  1       21 0.18119511E-01 0.45021175E+03</pdfrwt>
<totfact> 0.65345805E+04</totfact>
</mgrwt>
</event>
<event>
 7    0  0.4691878E-002  0.4573239E+03  0.7546771E-02  0.1025560E+00
         21   -1    0    0  502  501  0.00000000000E+00  0.00000000000E+00  0.57978119846E+02  0.57978119846E+02  0.00000000000E+00 0.  1.
         21   -1    0    0  501  502 -0.00000000000E+00 -0.00000000000E+00 -0.90182779519E+03  0.90182779519E+03  0.00000000000E+00 0.  1.
      99926    2    1    2    0    0  0.00000000000E+00  0.71054273576E-14 -0.84384967534E+03  0.95980591504E+03  0.45732386769E+03 0.  0.
      99925    2    3    3    0    0  0.73306170556E+02  0.60948612495E+02 -0.66609790369E+03  0.72246285440E+03  0.26301640762E+03 0.  0.
         25    1    4    4    0    0  0.43053937694E+01  0.27980144256E+02 -0.37870008159E+03  0.39982831914E+03  0.12509000000E+03 0.  0.
         25    1    3    3    0    0 -0.73306170556E+02 -0.60948612495E+02 -0.17775177165E+03  0.23734306063E+03  0.12509000000E+03 0.  0.
         25    1    4    4    0    0  0.69000776786E+02  0.32968468239E+02 -0.28739782210E+03  0.32263453526E+03  0.12509000000E+03 0.  0.
<mgrwt>
<rscale>  2 0.45732387E+03</rscale>
<asrwt>0</asrwt>
<pdfrwt beam="1">  1       21 0.85261946E-02 0.45732387E+03</pdfrwt>
<pdfrwt beam="2">  1       21 0.13262173E+00 0.45732387E+03</pdfrwt>
<totfact> 0.40014265E+04</totfact>
</mgrwt>
</event>
<event>
 7    0  0.4691878E-002  0.4530059E+03  0.7546771E-02  0.1026829E+00
         21   -1    0    0  502  501  0.00000000000E+00  0.00000000000E+00  0.17644240163E+03  0.17644240163E+03  0.00000000000E+00 0. -1.
         21   -1    0    0  501  502 -0.00000000000E+00 -0.00000000000E+00 -0.29076673087E+03  0.29076673087E+03  0.00000000000E+00 0. -1.
      99926    2    1    2    0    0  0.00000000000E+00 -0.71054273576E-14 -0.11432432923E+03  0.46720913250E+03  0.45300587329E+03 0.  0.
      99925    2    3    3    0    0  0.50792157262E+02 -0.62313016069E+02 -0.15205866551E+03  0.31380071212E+03  0.26246198574E+03 0.  0.
         25    1    4    4    0    0 -0.22520608263E+01 -0.23932124433E+02 -0.39890325899E+02  0.13347870451E+03  0.12509000000E+03 0.  0.
         25    1    4    4    0    0  0.53044218088E+02 -0.38380891636E+02 -0.11216833961E+03  0.18032200760E+03  0.12509000000E+03 0.  0.
         25    1    3    3    0    0 -0.50792157262E+02  0.62313016069E+02  0.37734336278E+02  0.15340842039E+03  0.12509000000E+03 0.  0.
<mgrwt>
<rscale>  2 0.45300587E+03</rscale>
<asrwt>0</asrwt>
<pdfrwt beam="1">  1       21 0.25947412E-01 0.45300587E+03</pdfrwt>
<pdfrwt beam="2">  1       21 0.42759813E-01 0.45300587E+03</pdfrwt>
<totfact> 0.68724611E+04</totfact>
</mgrwt>
</event>
<event>
 7    0  0.4691878E-002  0.4585776E+03  0.7546771E-02  0.1025195E+00
         21   -1    0    0  502  501  0.00000000000E+00  0.00000000000E+00  0.98685477447E+03  0.98685477447E+03  0.00000000000E+00 0.  1.
         21   -1    0    0  501  502 -0.00000000000E+00 -0.00000000000E+00 -0.53273641074E+02  0.53273641074E+02  0.00000000000E+00 0.  1.
      99926    2    1    2    0    0  0.00000000000E+00  0.00000000000E+00  0.93358113339E+03  0.10401284155E+04  0.45857757053E+03 0.  0.
      99925    2    3    3    0    0  0.86043201047E+02 -0.18136564986E+02  0.75881801516E+03  0.80791725511E+03  0.26304589624E+03 0.  0.
         25    1    4    4    0    0  0.22858066077E+02 -0.15667909383E+02  0.26112533196E+03  0.29086409483E+03  0.12509000000E+03 0.  0.
         25    1    3    3    0    0 -0.86043201047E+02  0.18136564986E+02  0.17476311823E+03  0.23221116043E+03  0.12509000000E+03 0.  0.
         25    1    4    4    0    0  0.63185134969E+02 -0.24686556033E+01  0.49769268321E+03  0.51705316028E+03  0.12509000000E+03 0.  0.
<mgrwt>
<rscale>  2 0.45857757E+03</rscale>
<asrwt>0</asrwt>
<pdfrwt beam="1">  1       21 0.14512569E+00 0.45857757E+03</pdfrwt>
<pdfrwt beam="2">  1       21 0.78343596E-02 0.45857757E+03</pdfrwt>
<totfact> 0.36608612E+04</totfact>
</mgrwt>
</event>
<event>
 7    0  0.4691878E-002  0.4546465E+03  0.7546771E-02  0.1026345E+00
         21   -1    0    0  502  501  0.00000000000E+00  0.00000000000E+00  0.40281044768E+03  0.40281044768E+03  0.00000000000E+00 0. -1.
         21   -1    0    0  501  502 -0.00000000000E+00 -0.00000000000E+00 -0.12828827186E+03  0.12828827186E+03  0.00000000000E+00 0. -1.
      99926    2    1    2    0    0  0.35527136788E-14  0.00000000000E+00  0.27452217581E+03  0.53109871954E+03  0.45464648342E+03 0.  0.
      99925    2    3    3    0    0 -0.26834833176E+02  0.49317322384E+02  0.58419492002E+02  0.27516868104E+03  0.26296893242E+03 0.  0.
         25    1    3    3    0    0  0.26834833176E+02 -0.49317322384E+02  0.21610268381E+03  0.25593003851E+03  0.12509000000E+03 0.  0.
         25    1    4    4    0    0  0.25892266367E+02  0.22600747350E+02  0.17559101402E+02  0.13090849239E+03  0.12509000000E+03 0.  0.
         25    1    4    4    0    0 -0.52727099542E+02  0.26716575034E+02  0.40860390600E+02  0.14426018864E+03  0.12509000000E+03 0.  0.
<mgrwt>
<rscale>  2 0.45464648E+03</rscale>
<asrwt>0</asrwt>
<pdfrwt beam="1">  1       21 0.59236830E-01 0.45464648E+03</pdfrwt>
<pdfrwt beam="2">  1       21 0.18865922E-01 0.45464648E+03</pdfrwt>
<totfact> 0.63309394E+04</totfact>
</mgrwt>
</event>
<event>
 7    0  0.4691878E-002  0.4545313E+03  0.7546771E-02  0.1026379E+00
         21   -1    0    0  502  501  0.00000000000E+00  0.00000000000E+00  0.71507516877E+03  0.71507516877E+03  0.00000000000E+00 0. -1.
         21   -1    0    0  501  502 -0.00000000000E+00 -0.00000000000E+00 -0.72229702673E+02  0.72229702673E+02  0.00000000000E+00 0. -1.
      99926    2    1    2    0    0  0.00000000000E+00  0.00000000000E+00  0.64284546610E+03  0.78730487145E+03  0.45453126110E+03 0.  0.
      99925    2    3    3    0    0  0.47370066343E+02  0.10172871057E+03  0.42317076403E+03  0.51072371415E+03  0.26300677355E+03 0.  0.
         25    1    4    4    0    0  0.24365936272E+02  0.53845777992E+02  0.14104282277E+03  0.19756936152E+03  0.12509000000E+03 0.  0.
         25    1    3    3    0    0 -0.47370066343E+02 -0.10172871057E+03  0.21967470207E+03  0.27658115729E+03  0.12509000000E+03 0.  0.
         25    1    4    4    0    0  0.23004130071E+02  0.47882932575E+02  0.28212794126E+03  0.31315435263E+03  0.12509000000E+03 0.  0.
<mgrwt>
<rscale>  2 0.45453126E+03</rscale>
<asrwt>0</asrwt>
<pdfrwt beam="1">  1       21 0.10515811E+00 0.45453126E+03</pdfrwt>
<pdfrwt beam="2">  1       21 0.10622015E-01 0.45453126E+03</pdfrwt>
<totfact> 0.48563433E+04</totfact>
</mgrwt>
</event>
<event>
 7    0  0.4691878E-002  0.4298179E+03  0.7546771E-02  0.1033917E+00
         21   -1    0    0  502  501  0.00000000000E+00  0.00000000000E+00  0.30017826182E+03  0.30017826182E+03  0.00000000000E+00 0.  1.
         21   -1    0    0  501  502 -0.00000000000E+00 -0.00000000000E+00 -0.15386146146E+03  0.15386146146E+03  0.00000000000E+00 0.  1.
      99926    2    1    2    0    0  0.00000000000E+00  0.00000000000E+00  0.14631680036E+03  0.45403972327E+03  0.42981794314E+03 0.  0.
      99925    2    3    3    0    0 -0.52229812669E+02 -0.52853768502E+02  0.14309038577E+03  0.30850831076E+03  0.26302289849E+03 0.  0.
         25    1    3    3    0    0  0.52229812669E+02  0.52853768502E+02  0.32264145833E+01  0.14553141251E+03  0.12509000000E+03 0.  0.
         25    1    4    4    0    0 -0.36061504135E+02 -0.56224420430E+02  0.10583719195E+03  0.17694811904E+03  0.12509000000E+03 0.  0.
         25    1    4    4    0    0 -0.16168308534E+02  0.33706519278E+01  0.37253193829E+02  0.13156019172E+03  0.12509000000E+03 0.  0.
<mgrwt>
<rscale>  2 0.42981794E+03</rscale>
<asrwt>0</asrwt>
<pdfrwt beam="1">  1       21 0.44143862E-01 0.42981794E+03</pdfrwt>
<pdfrwt beam="2">  1       21 0.22626685E-01 0.42981794E+03</pdfrwt>
<totfact> 0.84259117E+04</totfact>
</mgrwt>
</event>
<event>
 7    0  0.4691878E-002  0.4520615E+03  0.7546771E-02  0.1027109E+00
         21   -1    0    0  502  501  0.00000000000E+00  0.00000000000E+00  0.12465683804E+03  0.12465683804E+03  0.00000000000E+00 0.  1.
         21   -1    0    0  501  502 -0.00000000000E+00 -0.00000000000E+00 -0.40984425372E+03  0.40984425372E+03  0.00000000000E+00 0.  1.
      99926    2    1    2    0    0  0.00000000000E+00  0.14210854715E-13 -0.28518741568E+03  0.53450109176E+03  0.45206145050E+03 0.  0.
      99925    2    3    3    0    0  0.65892793052E+02 -0.81843480152E+02 -0.14118616041E+03  0.31673037509E+03  0.26333321703E+03 0.  0.
         25    1    3    3    0    0 -0.65892793052E+02  0.81843480152E+02 -0.14400125527E+03  0.21777071667E+03  0.12509000000E+03 0.  0.
         25    1    4    4    0    0  0.14308368912E+02 -0.11526867470E+01 -0.59250342679E+02  0.13915519866E+03  0.12509000000E+03 0.  0.
         25    1    4    4    0    0  0.51584424139E+02 -0.80690793405E+02 -0.81935817735E+02  0.17757517642E+03  0.12509000000E+03 0.  0.
<mgrwt>
<rscale>  2 0.45206145E+03</rscale>
<asrwt>0</asrwt>
<pdfrwt beam="1">  1       21 0.18331888E-01 0.45206145E+03</pdfrwt>
<pdfrwt beam="2">  1       21 0.60271213E-01 0.45206145E+03</pdfrwt>
<totfact> 0.64386990E+04</totfact>
</mgrwt>
</event>
<event>
 7    0  0.4691878E-002  0.4457924E+03  0.7546771E-02  0.1028984E+00
         21   -1    0    0  502  501  0.00000000000E+00  0.00000000000E+00  0.11743780707E+03  0.11743780707E+03  0.00000000000E+00 0. -1.
         21   -1    0    0  501  502 -0.00000000000E+00 -0.00000000000E+00 -0.42305549705E+03  0.42305549705E+03  0.00000000000E+00 0. -1.
      99926    2    1    2    0    0  0.88817841970E-15  0.00000000000E+00 -0.30561768998E+03  0.54049330411E+03  0.44579237249E+03 0.  0.
      99925    2    3    3    0    0  0.61219524219E+01 -0.37685847238E+02 -0.31162274222E+03  0.40956863060E+03  0.26302096554E+03 0.  0.
         25    1    4    4    0    0  0.14547433903E+02 -0.17863725579E+02 -0.95985243412E+02  0.15934684050E+03  0.12509000000E+03 0.  0.
         25    1    4    4    0    0 -0.84254814807E+01 -0.19822121659E+02 -0.21563749881E+03  0.25022179010E+03  0.12509000000E+03 0.  0.
         25    1    3    3    0    0 -0.61219524219E+01  0.37685847238E+02  0.60050522468E+01  0.13092467352E+03  0.12509000000E+03 0.  0.
<mgrwt>
<rscale>  2 0.44579237E+03</rscale>
<asrwt>0</asrwt>
<pdfrwt beam="1">  1       21 0.17270266E-01 0.44579237E+03</pdfrwt>
<pdfrwt beam="2">  1       21 0.62214044E-01 0.44579237E+03</pdfrwt>
<totfact> 0.67268366E+04</totfact>
</mgrwt>
</event>
<event>
 7    0  0.4691878E-002  0.4099844E+03  0.7546771E-02  0.1040376E+00
         21   -1    0    0  502  501  0.00000000000E+00  0.00000000000E+00  0.35604539933E+03  0.35604539933E+03  0.00000000000E+00 0. -1.
         21   -1    0    0  501  502 -0.00000000000E+00 -0.00000000000E+00 -0.11802371874E+03  0.11802371874E+03  0.00000000000E+00 0. -1.
      99926    2    1    2    0    0 -0.35527136788E-14  0.17763568394E-14  0.23802168059E+03  0.47406911806E+03  0.40998440003E+03 0.  0.
      99925    2    3    3    0    0 -0.21967094538E+02 -0.35910320586E+01  0.90521576365E+02  0.27939185283E+03  0.26338223722E+03 0.  0.
         25    1    4    4    0    0  0.15922084269E+02 -0.28959126214E+02  0.28357285322E+02  0.13245296331E+03  0.12509000000E+03 0.  0.
         25    1    3    3    0    0  0.21967094538E+02  0.35910320586E+01  0.14750010423E+03  0.19467726524E+03  0.12509000000E+03 0.  0.
         25    1    4    4    0    0 -0.37889178807E+02  0.25368094156E+02  0.62164291042E+02  0.14693888952E+03  0.12509000000E+03 0.  0.
<mgrwt>
<rscale>  2 0.40998440E+03</rscale>
<asrwt>0</asrwt>
<pdfrwt beam="1">  1       21 0.52359617E-01 0.40998440E+03</pdfrwt>
<pdfrwt beam="2">  1       21 0.17356429E-01 0.40998440E+03</pdfrwt>
<totfact> 0.97613117E+04</totfact>
</mgrwt>
</event>
<event>
 7    0  0.4691878E-002  0.4358110E+03  0.7546771E-02  0.1032040E+00
         21   -1    0    0  502  501  0.00000000000E+00  0.00000000000E+00  0.88676948262E+03  0.88676948262E+03  0.00000000000E+00 0. -1.
         21   -1    0    0  501  502 -0.00000000000E+00 -0.00000000000E+00 -0.53545818817E+02  0.53545818817E+02  0.00000000000E+00 0. -1.
      99926    2    1    2    0    0  0.00000000000E+00  0.71054273576E-14  0.83322366380E+03  0.94031530143E+03  0.43581095924E+03 0.  0.
      99925    2    3    3    0    0  0.70921175630E+02  0.54499448647E+02  0.46988260850E+03  0.54577223202E+03  0.26282629324E+03 0.  0.
         25    1    4    4    0    0 -0.36093997071E+01  0.16899764266E+02  0.23724908466E+03  0.26876247147E+03  0.12509000000E+03 0.  0.
         25    1    4    4    0    0  0.74530575337E+02  0.37599684381E+02  0.23263352384E+03  0.27700976055E+03  0.12509000000E+03 0.  0.
         25    1    3    3    0    0 -0.70921175630E+02 -0.54499448647E+02  0.36334105530E+03  0.39454306942E+03  0.12509000000E+03 0.  0.
<mgrwt>
<rscale>  2 0.43581096E+03</rscale>
<asrwt>0</asrwt>
<pdfrwt beam="1">  1       21 0.13040727E+00 0.43581096E+03</pdfrwt>
<pdfrwt beam="2">  1       21 0.78743857E-02 0.43581096E+03</pdfrwt>
<totfact> 0.48400809E+04</totfact>
</mgrwt>
</event>
<event>
 7    0  0.4691878E-002  0.4432306E+03  0.7546771E-02  0.1029760E+00
         21   -1    0    0  502  501  0.00000000000E+00  0.00000000000E+00  0.19024568549E+03  0.19024568549E+03  0.00000000000E+00 0.  1.
         21   -1    0    0  501  502 -0.00000000000E+00 -0.00000000000E+00 -0.25815745424E+03  0.25815745424E+03  0.00000000000E+00 0.  1.
      99926    2    1    2    0    0 -0.35527136788E-14 -0.17763568394E-14 -0.67911768754E+02  0.44840313973E+03  0.44323060294E+03 0.  0.
      99925    2    3    3    0    0  0.30623614371E+02  0.86796599764E+01  0.54571227997E+02  0.27046288333E+03  0.26298100707E+03 0.  0.
         25    1    3    3    0    0 -0.30623614371E+02 -0.86796599764E+01 -0.12248299675E+03  0.17794025640E+03  0.12509000000E+03 0.  0.
         25    1    4    4    0    0 -0.58688082070E+01 -0.29863053495E+02  0.20379545593E+02  0.13034216069E+03  0.12509000000E+03 0.  0.
         25    1    4    4    0    0  0.36492422578E+02  0.38542713471E+02  0.34191682404E+02  0.14012072264E+03  0.12509000000E+03 0.  0.
<mgrwt>
<rscale>  2 0.44323060E+03</rscale>
<asrwt>0</asrwt>
<pdfrwt beam="1">  1       21 0.27977307E-01 0.44323060E+03</pdfrwt>
<pdfrwt beam="2">  1       21 0.37964331E-01 0.44323060E+03</pdfrwt>
<totfact> 0.75912669E+04</totfact>
</mgrwt>
</event>
<event>
 7    0  0.4691878E-002  0.4525532E+03  0.7546771E-02  0.1026963E+00
         21   -1    0    0  502  501  0.00000000000E+00  0.00000000000E+00  0.43065367670E+03  0.43065367670E+03  0.00000000000E+00 0. -1.
         21   -1    0    0  501  502 -0.00000000000E+00 -0.00000000000E+00 -0.11889158164E+03  0.11889158164E+03  0.00000000000E+00 0. -1.
      99926    2    1    2    0    0  0.00000000000E+00 -0.14210854715E-13  0.31176209505E+03  0.54954525834E+03  0.45255318699E+03 0.  0.
      99925    2    3    3    0    0 -0.51105391007E+02 -0.80481218978E+02  0.26533330396E+03  0.38555706260E+03  0.26298954111E+03 0.  0.
         25    1    3    3    0    0  0.51105391007E+02  0.80481218978E+02  0.46428791093E+02  0.16398819574E+03  0.12509000000E+03 0.  0.
         25    1    4    4    0    0 -0.28431353814E+02  0.18157443554E+01  0.12244026353E+03  0.17734363547E+03  0.12509000000E+03 0.  0.
         25    1    4    4    0    0 -0.22674037194E+02 -0.82296963334E+02  0.14289304043E+03  0.20821342714E+03  0.12509000000E+03 0.  0.
<mgrwt>
<rscale>  2 0.45255319E+03</rscale>
<asrwt>0</asrwt>
<pdfrwt beam="1">  1       21 0.63331423E-01 0.45255319E+03</pdfrwt>
<pdfrwt beam="2">  1       21 0.17484056E-01 0.45255319E+03</pdfrwt>
<totfact> 0.63109468E+04</totfact>
</mgrwt>
</event>
<event>
 7    0  0.4691878E-002  0.4582394E+03  0.7546771E-02  0.1025293E+00
         21   -1    0    0  502  501  0.00000000000E+00  0.00000000000E+00  0.21043732887E+03  0.21043732887E+03  0.00000000000E+00 0. -1.
         21   -1    0    0  501  502 -0.00000000000E+00 -0.00000000000E+00 -0.24946072118E+03  0.24946072118E+03  0.00000000000E+00 0. -1.
      99926    2    1    2    0    0  0.00000000000E+00  0.00000000000E+00 -0.39023392305E+02  0.45989805005E+03  0.45823944755E+03 0.  0.
      99925    2    3    3    0    0  0.67209778990E+02  0.37404779745E+02 -0.11205732161E+03  0.29589276090E+03  0.26282962292E+03 0.  0.
         25    1    4    4    0    0  0.40937105853E+02 -0.13366697050E+02 -0.29706619156E+02  0.13558947801E+03  0.12509000000E+03 0.  0.
         25    1    4    4    0    0  0.26272673137E+02  0.50771476795E+02 -0.82350702458E+02  0.16030328289E+03  0.12509000000E+03 0.  0.
         25    1    3    3    0    0 -0.67209778990E+02 -0.37404779745E+02  0.73033929309E+02  0.16400528915E+03  0.12509000000E+03 0.  0.
<mgrwt>
<rscale>  2 0.45823945E+03</rscale>
<asrwt>0</asrwt>
<pdfrwt beam="1">  1       21 0.30946666E-01 0.45823945E+03</pdfrwt>
<pdfrwt beam="2">  1       21 0.36685400E-01 0.45823945E+03</pdfrwt>
<totfact> 0.66454183E+04</totfact>
</mgrwt>
</event>
<event>
 7    0  0.4691878E-002  0.4378450E+03  0.7546771E-02  0.1031410E+00
         21   -1    0    0  502  501  0.00000000000E+00  0.00000000000E+00  0.19235087682E+04  0.19235087682E+04  0.00000000000E+00 0. -1.
         21   -1    0    0  501  502 -0.00000000000E+00 -0.00000000000E+00 -0.24916472338E+02  0.24916472338E+02  0.00000000000E+00 0. -1.
      99926    2    1    2    0    0 -0.35527136788E-14 -0.14210854715E-13  0.18985922958E+04  0.19484252405E+04  0.43784496349E+03 0.  0.
      99925    2    3    3    0    0  0.25317602594E+02  0.65623874752E+02  0.15090403673E+04  0.15332798599E+04  0.26229148788E+03 0.  0.
         25    1    3    3    0    0 -0.25317602594E+02 -0.65623874752E+02  0.38955192850E+03  0.41514538061E+03  0.12509000000E+03 0.  0.
         25    1    4    4    0    0  0.36577113709E+02  0.47452589900E+02  0.62701976937E+03  0.64217671463E+03  0.12509000000E+03 0.  0.
         25    1    4    4    0    0 -0.11259511116E+02  0.18171284852E+02  0.88202059797E+03  0.89110314528E+03  0.12509000000E+03 0.  0.
<mgrwt>
<rscale>  2 0.43784496E+03</rscale>
<asrwt>0</asrwt>
<pdfrwt beam="1">  1       21 0.28286884E+00 0.43784496E+03</pdfrwt>
<pdfrwt beam="2">  1       21 0.36641884E-02 0.43784496E+03</pdfrwt>
<totfact> 0.16683805E+04</totfact>
</mgrwt>
</event>
<event>
 7    0  0.4691878E-002  0.4592761E+03  0.7546771E-02  0.1024991E+00
         21   -1    0    0  502  501  0.00000000000E+00  0.00000000000E+00  0.84438981082E+03  0.84438981082E+03  0.00000000000E+00 0. -1.
         21   -1    0    0  501  502 -0.00000000000E+00 -0.00000000000E+00 -0.62451760461E+02  0.62451760461E+02  0.00000000000E+00 0. -1.
      99926    2    1    2    0    0  0.00000000000E+00  0.00000000000E+00  0.78193805036E+03  0.90684157128E+03  0.45927608342E+03 0.  0.
      99925    2    3    3    0    0 -0.88204261734E+02 -0.30853255297E+02  0.62945949897E+03  0.68860057631E+03  0.26309613776E+03 0.  0.
         25    1    4    4    0    0 -0.47084937300E+02 -0.19462453694E+01  0.40796278387E+03  0.42930399522E+03  0.12509000000E+03 0.  0.
         25    1    4    4    0    0 -0.41119324433E+02 -0.28907009928E+02  0.22149671510E+03  0.25929658109E+03  0.12509000000E+03 0.  0.
         25    1    3    3    0    0  0.88204261734E+02  0.30853255297E+02  0.15247855139E+03  0.21824099497E+03  0.12509000000E+03 0.  0.
<mgrwt>
<rscale>  2 0.45927608E+03</rscale>
<asrwt>0</asrwt>
<pdfrwt beam="1">  1       21 0.12417497E+00 0.45927608E+03</pdfrwt>
<pdfrwt beam="2">  1       21 0.91840829E-02 0.45927608E+03</pdfrwt>
<totfact> 0.41531356E+04</totfact>
</mgrwt>
</event>
<event>
 7    0  0.4691878E-002  0.4594335E+03  0.7546771E-02  0.1024946E+00
         21   -1    0    0  502  501  0.00000000000E+00  0.00000000000E+00  0.61821586717E+02  0.61821586717E+02  0.00000000000E+00 0.  1.
         21   -1    0    0  501  502 -0.00000000000E+00 -0.00000000000E+00 -0.85358181688E+03  0.85358181688E+03  0.00000000000E+00 0.  1.
      99926    2    1    2    0    0 -0.14210854715E-13  0.17763568394E-14 -0.79176023016E+03  0.91540340359E+03  0.45943348730E+03 0.  0.
      99925    2    3    3    0    0 -0.11332240547E+03  0.83213603654E+01 -0.54678139144E+03  0.61779064825E+03  0.26416695937E+03 0.  0.
         25    1    3    3    0    0  0.11332240547E+03 -0.83213603654E+01 -0.24497883872E+03  0.29761275534E+03  0.12509000000E+03 0.  0.
         25    1    4    4    0    0 -0.83853800692E+02  0.38720601151E+02 -0.29868571791E+03  0.33673641179E+03  0.12509000000E+03 0.  0.
         25    1    4    4    0    0 -0.29468604781E+02 -0.30399240786E+02 -0.24809567353E+03  0.28105423646E+03  0.12509000000E+03 0.  0.
<mgrwt>
<rscale>  2 0.45943349E+03</rscale>
<asrwt>0</asrwt>
<pdfrwt beam="1">  1       21 0.90914095E-02 0.45943349E+03</pdfrwt>
<pdfrwt beam="2">  1       21 0.12552674E+00 0.45943349E+03</pdfrwt>
<totfact> 0.41128458E+04</totfact>
</mgrwt>
</event>
<event>
 7    0  0.4691878E-002  0.4550750E+03  0.7546771E-02  0.1026219E+00
         21   -1    0    0  502  501  0.00000000000E+00  0.00000000000E+00  0.35353983006E+03  0.35353983006E+03  0.00000000000E+00 0.  1.
         21   -1    0    0  501  502 -0.00000000000E+00 -0.00000000000E+00 -0.14644269246E+03  0.14644269246E+03  0.00000000000E+00 0.  1.
      99926    2    1    2    0    0  0.00000000000E+00  0.35527136788E-14  0.20709713760E+03  0.49998252252E+03  0.45507504702E+03 0.  0.
      99925    2    3    3    0    0  0.10622713993E+03  0.27048027139E+02  0.98921444462E+02  0.30157564331E+03  0.26295744035E+03 0.  0.
         25    1    4    4    0    0  0.25515637723E+02  0.32912776097E+02  0.71865554215E+02  0.15015480206E+03  0.12509000000E+03 0.  0.
         25    1    4    4    0    0  0.80711502209E+02 -0.58647489570E+01  0.27055890246E+02  0.15142084125E+03  0.12509000000E+03 0.  0.
         25    1    3    3    0    0 -0.10622713993E+03 -0.27048027139E+02  0.10817569314E+03  0.19840687920E+03  0.12509000000E+03 0.  0.
<mgrwt>
<rscale>  2 0.45507505E+03</rscale>
<asrwt>0</asrwt>
<pdfrwt beam="1">  1       21 0.51991151E-01 0.45507505E+03</pdfrwt>
<pdfrwt beam="2">  1       21 0.21535690E-01 0.45507505E+03</pdfrwt>
<totfact> 0.65233019E+04</totfact>
</mgrwt>
</event>
<event>
 7    0  0.4691878E-002  0.4543482E+03  0.7546771E-02  0.1026433E+00
         21   -1    0    0  502  501  0.00000000000E+00  0.00000000000E+00  0.15674960542E+03  0.15674960542E+03  0.00000000000E+00 0.  1.
         21   -1    0    0  501  502 -0.00000000000E+00 -0.00000000000E+00 -0.32923887379E+03  0.32923887379E+03  0.00000000000E+00 0.  1.
      99926    2    1    2    0    0  0.00000000000E+00  0.00000000000E+00 -0.17248926837E+03  0.48598847922E+03  0.45434816411E+03 0.  0.
      99925    2    3    3    0    0  0.58705472502E+02  0.82845057880E+02 -0.16050099100E+03  0.32443086407E+03  0.26303076119E+03 0.  0.
         25    1    3    3    0    0 -0.58705472502E+02 -0.82845057880E+02 -0.11988277373E+02  0.16155761514E+03  0.12509000000E+03 0.  0.
         25    1    4    4    0    0  0.62076720422E+02  0.62223459971E+02 -0.67273087935E+02  0.16702830493E+03  0.12509000000E+03 0.  0.
         25    1    4    4    0    0 -0.33712479200E+01  0.20621597909E+02 -0.93227903065E+02  0.15740255914E+03  0.12509000000E+03 0.  0.
<mgrwt>
<rscale>  2 0.45434816E+03</rscale>
<asrwt>0</asrwt>
<pdfrwt beam="1">  1       21 0.23051413E-01 0.45434816E+03</pdfrwt>
<pdfrwt beam="2">  1       21 0.48417481E-01 0.45434816E+03</pdfrwt>
<totfact> 0.66610720E+04</totfact>
</mgrwt>
</event>
<event>
 7    0  0.4691878E-002  0.4502009E+03  0.7546771E-02  0.1027662E+00
         21   -1    0    0  502  501  0.00000000000E+00  0.00000000000E+00  0.25671530661E+03  0.25671530661E+03  0.00000000000E+00 0.  1.
         21   -1    0    0  501  502 -0.00000000000E+00 -0.00000000000E+00 -0.19737903540E+03  0.19737903540E+03  0.00000000000E+00 0.  1.
      99926    2    1    2    0    0 -0.35527136788E-14  0.00000000000E+00  0.59336271215E+02  0.45409434201E+03  0.45020093110E+03 0.  0.
      99925    2    3    3    0    0 -0.17101474326E+02  0.20997213893E+02 -0.68501576353E+02  0.27319833104E+03  0.26308082162E+03 0.  0.
         25    1    4    4    0    0 -0.33267799949E+02  0.36513313894E+02 -0.15033844988E+02  0.13532735570E+03  0.12509000000E+03 0.  0.
         25    1    4    4    0    0  0.16166325624E+02 -0.15516100001E+02 -0.53467731365E+02  0.13787097534E+03  0.12509000000E+03 0.  0.
         25    1    3    3    0    0  0.17101474326E+02 -0.20997213893E+02  0.12783784757E+03  0.18089601097E+03  0.12509000000E+03 0.  0.
<mgrwt>
<rscale>  2 0.45020093E+03</rscale>
<asrwt>0</asrwt>
<pdfrwt beam="1">  1       21 0.37752251E-01 0.45020093E+03</pdfrwt>
<pdfrwt beam="2">  1       21 0.29026329E-01 0.45020093E+03</pdfrwt>
<totfact> 0.71303176E+04</totfact>
</mgrwt>
</event>
<event>
 7    0  0.4691878E-002  0.4448100E+03  0.7546771E-02  0.1029281E+00
         21   -1    0    0  502  501  0.00000000000E+00  0.00000000000E+00  0.15780470632E+04  0.15780470632E+04  0.00000000000E+00 0.  1.
         21   -1    0    0  501  502 -0.00000000000E+00 -0.00000000000E+00 -0.31345064493E+02  0.31345064493E+02  0.00000000000E+00 0.  1.
      99926    2    1    2    0    0  0.00000000000E+00  0.00000000000E+00  0.15467019987E+04  0.16093921277E+04  0.44481001324E+03 0.  0.
      99925    2    3    3    0    0  0.89513266675E+02  0.27363105264E+02  0.82461547701E+03  0.87059728651E+03  0.26303533207E+03 0.  0.
         25    1    4    4    0    0  0.49142800072E+02  0.16742100109E+02  0.54299769651E+03  0.55963320061E+03  0.12509000000E+03 0.  0.
         25    1    4    4    0    0  0.40370466604E+02  0.10621005155E+02  0.28161778050E+03  0.31096408590E+03  0.12509000000E+03 0.  0.
         25    1    3    3    0    0 -0.89513266675E+02 -0.27363105264E+02  0.72208652170E+03  0.73879484119E+03  0.12509000000E+03 0.  0.
<mgrwt>
<rscale>  2 0.44481001E+03</rscale>
<asrwt>0</asrwt>
<pdfrwt beam="1">  1       21 0.23206569E+00 0.44481001E+03</pdfrwt>
<pdfrwt beam="2">  1       21 0.46095694E-02 0.44481001E+03</pdfrwt>
<totfact> 0.22983909E+04</totfact>
</mgrwt>
</event>
<event>
 7    0  0.4691878E-002  0.4543367E+03  0.7546771E-02  0.1026437E+00
         21   -1    0    0  502  501  0.00000000000E+00  0.00000000000E+00  0.19615442401E+03  0.19615442401E+03  0.00000000000E+00 0. -1.
         21   -1    0    0  501  502 -0.00000000000E+00 -0.00000000000E+00 -0.26308589890E+03  0.26308589890E+03  0.00000000000E+00 0. -1.
      99926    2    1    2    0    0  0.00000000000E+00  0.00000000000E+00 -0.66931474891E+02  0.45924032290E+03  0.45433671638E+03 0.  0.
      99925    2    3    3    0    0  0.50876049664E+02 -0.96640738645E+02 -0.14697196254E+02  0.28516064931E+03  0.26300719294E+03 0.  0.
         25    1    3    3    0    0 -0.50876049664E+02  0.96640738645E+02 -0.52234278637E+02  0.17407967360E+03  0.12509000000E+03 0.  0.
         25    1    4    4    0    0  0.48912758891E+02 -0.14833731087E+02 -0.20042630762E+01  0.13514445135E+03  0.12509000000E+03 0.  0.
         25    1    4    4    0    0  0.19632907724E+01 -0.81807007558E+02 -0.12692933178E+02  0.15001619796E+03  0.12509000000E+03 0.  0.
<mgrwt>
<rscale>  2 0.45433672E+03</rscale>
<asrwt>0</asrwt>
<pdfrwt beam="1">  1       21 0.28846239E-01 0.45433672E+03</pdfrwt>
<pdfrwt beam="2">  1       21 0.38689103E-01 0.45433672E+03</pdfrwt>
<totfact> 0.68598102E+04</totfact>
</mgrwt>
</event>
<event>
 7    0  0.4691878E-002  0.4527742E+03  0.7546771E-02  0.1026898E+00
         21   -1    0    0  502  501  0.00000000000E+00  0.00000000000E+00  0.67013779455E+03  0.67013779455E+03  0.00000000000E+00 0.  1.
         21   -1    0    0  501  502 -0.00000000000E+00 -0.00000000000E+00 -0.76478467211E+02  0.76478467211E+02  0.00000000000E+00 0.  1.
      99926    2    1    2    0    0  0.00000000000E+00  0.00000000000E+00  0.59365932734E+03  0.74661626176E+03  0.45277416599E+03 0.  0.
      99925    2    3    3    0    0 -0.87503642002E+02 -0.68383467373E+02  0.37237513549E+03  0.46922234035E+03  0.26300794128E+03 0.  0.
         25    1    4    4    0    0 -0.68781160935E+02 -0.65473475115E+02  0.23300939622E+03  0.28099557091E+03  0.12509000000E+03 0.  0.
         25    1    4    4    0    0 -0.18722481067E+02 -0.29099922584E+01  0.13936573927E+03  0.18822676944E+03  0.12509000000E+03 0.  0.
         25    1    3    3    0    0  0.87503642002E+02  0.68383467373E+02  0.22128419185E+03  0.27739392141E+03  0.12509000000E+03 0.  0.
<mgrwt>
<rscale>  2 0.45277417E+03</rscale>
<asrwt>0</asrwt>
<pdfrwt beam="1">  1       21 0.98549673E-01 0.45277417E+03</pdfrwt>
<pdfrwt beam="2">  1       21 0.11246834E-01 0.45277417E+03</pdfrwt>
<totfact> 0.51336257E+04</totfact>
</mgrwt>
</event>
<event>
 7    0  0.4691878E-002  0.4498752E+03  0.7546771E-02  0.1027759E+00
         21   -1    0    0  502  501  0.00000000000E+00  0.00000000000E+00  0.43018724187E+03  0.43018724187E+03  0.00000000000E+00 0. -1.
         21   -1    0    0  501  502 -0.00000000000E+00 -0.00000000000E+00 -0.11761603452E+03  0.11761603452E+03  0.00000000000E+00 0. -1.
      99926    2    1    2    0    0  0.00000000000E+00  0.00000000000E+00  0.31257120735E+03  0.54780327639E+03  0.44987517154E+03 0.  0.
      99925    2    3    3    0    0 -0.75498769411E+02  0.47244768117E+02  0.12270080485E+03  0.30360988962E+03  0.26304247807E+03 0.  0.
         25    1    3    3    0    0  0.75498769411E+02 -0.47244768117E+02  0.18987040250E+03  0.24419338677E+03  0.12509000000E+03 0.  0.
         25    1    4    4    0    0  0.32103606220E+01  0.16378900772E+02  0.46537711051E+02  0.13450591606E+03  0.12509000000E+03 0.  0.
         25    1    4    4    0    0 -0.78709130033E+02  0.30865867344E+02  0.76163093795E+02  0.16910397356E+03  0.12509000000E+03 0.  0.
<mgrwt>
<rscale>  2 0.44987517E+03</rscale>
<asrwt>0</asrwt>
<pdfrwt beam="1">  1       21 0.63262829E-01 0.44987517E+03</pdfrwt>
<pdfrwt beam="2">  1       21 0.17296476E-01 0.44987517E+03</pdfrwt>
<totfact> 0.64591454E+04</totfact>
</mgrwt>
</event>
<event>
 7    0  0.4691878E-002  0.4543965E+03  0.7546771E-02  0.1026419E+00
         21   -1    0    0  502  501  0.00000000000E+00  0.00000000000E+00  0.18157650132E+03  0.18157650132E+03  0.00000000000E+00 0. -1.
         21   -1    0    0  501  502 -0.00000000000E+00 -0.00000000000E+00 -0.28428268521E+03  0.28428268521E+03  0.00000000000E+00 0. -1.
      99926    2    1    2    0    0  0.00000000000E+00  0.00000000000E+00 -0.10270618389E+03  0.46585918653E+03  0.45439654650E+03 0.  0.
      99925    2    3    3    0    0 -0.33878617526E+02 -0.10543714199E+03 -0.43705260877E+02  0.28867744748E+03  0.26298244660E+03 0.  0.
         25    1    4    4    0    0 -0.33293311508E+02 -0.92476772396E+02 -0.15881623851E+02  0.15987536427E+03  0.12509000000E+03 0.  0.
         25    1    4    4    0    0 -0.58530601880E+00 -0.12960369593E+02 -0.27823637027E+02  0.12880208321E+03  0.12509000000E+03 0.  0.
         25    1    3    3    0    0  0.33878617526E+02  0.10543714199E+03 -0.59000923013E+02  0.17718173905E+03  0.12509000000E+03 0.  0.
<mgrwt>
<rscale>  2 0.45439655E+03</rscale>
<asrwt>0</asrwt>
<pdfrwt beam="1">  1       21 0.26702427E-01 0.45439655E+03</pdfrwt>
<pdfrwt beam="2">  1       21 0.41806277E-01 0.45439655E+03</pdfrwt>
<totfact> 0.68070534E+04</totfact>
</mgrwt>
</event>
<event>
 7    0  0.4691878E-002  0.4439615E+03  0.7546771E-02  0.1029538E+00
         21   -1    0    0  502  501  0.00000000000E+00  0.00000000000E+00  0.35550956633E+03  0.35550956633E+03  0.00000000000E+00 0. -1.
         21   -1    0    0  501  502 -0.00000000000E+00 -0.00000000000E+00 -0.13860517091E+03  0.13860517091E+03  0.00000000000E+00 0. -1.
      99926    2    1    2    0    0  0.71054273576E-14  0.00000000000E+00  0.21690439542E+03  0.49411473724E+03  0.44396154879E+03 0.  0.
      99925    2    3    3    0    0  0.54194511434E+02 -0.72894850757E+02  0.19061210240E+03  0.33730435139E+03  0.26304096174E+03 0.  0.
         25    1    4    4    0    0 -0.92669728532E+01 -0.49282190496E+02  0.10887840094E+03  0.17325306744E+03  0.12509000000E+03 0.  0.
         25    1    3    3    0    0 -0.54194511434E+02  0.72894850757E+02  0.26292293027E+02  0.15681038585E+03  0.12509000000E+03 0.  0.
         25    1    4    4    0    0  0.63461484287E+02 -0.23612660261E+02  0.81733701457E+02  0.16405128395E+03  0.12509000000E+03 0.  0.
<mgrwt>
<rscale>  2 0.44396155E+03</rscale>
<asrwt>0</asrwt>
<pdfrwt beam="1">  1       21 0.52280818E-01 0.44396155E+03</pdfrwt>
<pdfrwt beam="2">  1       21 0.20383113E-01 0.44396155E+03</pdfrwt>
<totfact> 0.71771788E+04</totfact>
</mgrwt>
</event>
<event>
 7    0  0.4691878E-002  0.4863118E+03  0.7546771E-02  0.1017415E+00
         21   -1    0    0  502  501  0.00000000000E+00  0.00000000000E+00  0.95964800927E+02  0.95964800927E+02  0.00000000000E+00 0.  1.
         21   -1    0    0  501  502 -0.00000000000E+00 -0.00000000000E+00 -0.61610923710E+03  0.61610923710E+03  0.00000000000E+00 0.  1.
      99926    2    1    2    0    0  0.00000000000E+00  0.00000000000E+00 -0.52014443617E+03  0.71207403803E+03  0.48631183530E+03 0.  0.
      99925    2    3    3    0    0 -0.13837535483E+03 -0.12884011426E+02 -0.34965877029E+03  0.45903924408E+03  0.26294873149E+03 0.  0.
         25    1    4    4    0    0 -0.25214705272E+02 -0.30821285107E+01 -0.13386589169E+03  0.18496720232E+03  0.12509000000E+03 0.  0.
         25    1    3    3    0    0  0.13837535483E+03  0.12884011426E+02 -0.17048566588E+03  0.25303479394E+03  0.12509000000E+03 0.  0.
         25    1    4    4    0    0 -0.11316064956E+03 -0.98018829148E+01 -0.21579287861E+03  0.27407204176E+03  0.12509000000E+03 0.  0.
<mgrwt>
<rscale>  2 0.48631184E+03</rscale>
<asrwt>0</asrwt>
<pdfrwt beam="1">  1       21 0.14112471E-01 0.48631184E+03</pdfrwt>
<pdfrwt beam="2">  1       21 0.90604300E-01 0.48631184E+03</pdfrwt>
<totfact> 0.41135289E+04</totfact>
</mgrwt>
</event>
<event>
 7    0  0.4691878E-002  0.4566696E+03  0.7546771E-02  0.1025752E+00
         21   -1    0    0  502  501  0.00000000000E+00  0.00000000000E+00  0.86912119491E+03  0.86912119491E+03  0.00000000000E+00 0.  1.
         21   -1    0    0  501  502 -0.00000000000E+00 -0.00000000000E+00 -0.59987919280E+02  0.59987919280E+02  0.00000000000E+00 0.  1.
      99926    2    1    2    0    0  0.00000000000E+00  0.00000000000E+00  0.80913327563E+03  0.92910911419E+03  0.45666956143E+03 0.  0.
      99925    2    3    3    0    0 -0.25099878768E+02  0.73771015211E+02  0.33695640514E+03  0.43446715103E+03  0.26296372327E+03 0.  0.
         25    1    4    4    0    0 -0.21322988355E+02  0.30624528212E+02  0.22924845856E+03  0.26380844454E+03  0.12509000000E+03 0.  0.
         25    1    3    3    0    0  0.25099878768E+02 -0.73771015211E+02  0.47217687049E+03  0.49464196316E+03  0.12509000000E+03 0.  0.
         25    1    4    4    0    0 -0.37768904134E+01  0.43146486999E+02  0.10770794659E+03  0.17065870649E+03  0.12509000000E+03 0.  0.
<mgrwt>
<rscale>  2 0.45666956E+03</rscale>
<asrwt>0</asrwt>
<pdfrwt beam="1">  1       21 0.12781193E+00 0.45666956E+03</pdfrwt>
<pdfrwt beam="2">  1       21 0.88217534E-02 0.45666956E+03</pdfrwt>
<totfact> 0.41454559E+04</totfact>
</mgrwt>
</event>
<event>
 7    0  0.4691878E-002  0.4440449E+03  0.7546771E-02  0.1029513E+00
         21   -1    0    0  502  501  0.00000000000E+00  0.00000000000E+00  0.36429272323E+03  0.36429272323E+03  0.00000000000E+00 0. -1.
         21   -1    0    0  501  502 -0.00000000000E+00 -0.00000000000E+00 -0.13531418430E+03  0.13531418430E+03  0.00000000000E+00 0. -1.
      99926    2    1    2    0    0  0.35527136788E-14  0.00000000000E+00  0.22897853893E+03  0.49960690752E+03  0.44404491975E+03 0.  0.
      99925    2    3    3    0    0  0.27886279798E+02  0.72635320573E+02  0.70143598257E+02  0.28297454412E+03  0.26287056482E+03 0.  0.
         25    1    4    4    0    0 -0.22291951396E+02  0.36238175457E+02  0.52831157096E+02  0.14229819295E+03  0.12509000000E+03 0.  0.
         25    1    4    4    0    0  0.50178231193E+02  0.36397145116E+02  0.17312441160E+02  0.14067635117E+03  0.12509000000E+03 0.  0.
         25    1    3    3    0    0 -0.27886279798E+02 -0.72635320573E+02  0.15883494067E+03  0.21663236341E+03  0.12509000000E+03 0.  0.
<mgrwt>
<rscale>  2 0.44404492E+03</rscale>
<asrwt>0</asrwt>
<pdfrwt beam="1">  1       21 0.53572459E-01 0.44404492E+03</pdfrwt>
<pdfrwt beam="2">  1       21 0.19899145E-01 0.44404492E+03</pdfrwt>
<totfact> 0.71299053E+04</totfact>
</mgrwt>
</event>
<event>
 7    0  0.4691878E-002  0.4161250E+03  0.7546771E-02  0.1038335E+00
         21   -1    0    0  502  501  0.00000000000E+00  0.00000000000E+00  0.18032301642E+03  0.18032301642E+03  0.00000000000E+00 0.  1.
         21   -1    0    0  501  502 -0.00000000000E+00 -0.00000000000E+00 -0.24006919383E+03  0.24006919383E+03  0.00000000000E+00 0.  1.
      99926    2    1    2    0    0  0.00000000000E+00  0.00000000000E+00 -0.59746177408E+02  0.42039221025E+03  0.41612498690E+03 0.  0.
      99925    2    3    3    0    0  0.54724140798E+02 -0.45002527745E+02 -0.38678787889E+02  0.27509492159E+03  0.26298518621E+03 0.  0.
         25    1    4    4    0    0  0.26723609348E+02 -0.23333915724E+01 -0.54523992053E+02  0.13906822003E+03  0.12509000000E+03 0.  0.
         25    1    4    4    0    0  0.28000531450E+02 -0.42669136172E+02  0.15845204163E+02  0.13602670156E+03  0.12509000000E+03 0.  0.
         25    1    3    3    0    0 -0.54724140798E+02  0.45002527745E+02 -0.21067389519E+02  0.14529728866E+03  0.12509000000E+03 0.  0.
<mgrwt>
<rscale>  2 0.41612499E+03</rscale>
<asrwt>0</asrwt>
<pdfrwt beam="1">  1       21 0.26518091E-01 0.41612499E+03</pdfrwt>
<pdfrwt beam="2">  1       21 0.35304293E-01 0.41612499E+03</pdfrwt>
<totfact> 0.98279444E+04</totfact>
</mgrwt>
</event>
<event>
 7    0  0.4691878E-002  0.4622776E+03  0.7546771E-02  0.1024123E+00
         21   -1    0    0  502  501  0.00000000000E+00  0.00000000000E+00  0.57279203959E+03  0.57279203959E+03  0.00000000000E+00 0.  1.
         21   -1    0    0  501  502 -0.00000000000E+00 -0.00000000000E+00 -0.93271431496E+02  0.93271431496E+02  0.00000000000E+00 0.  1.
      99926    2    1    2    0    0  0.00000000000E+00  0.00000000000E+00  0.47952060810E+03  0.66606347109E+03  0.46227755075E+03 0.  0.
      99925    2    3    3    0    0 -0.37727024919E+02 -0.51124112716E+02  0.44623546150E+03  0.52186772776E+03  0.26302630071E+03 0.  0.
         25    1    3    3    0    0  0.37727024919E+02  0.51124112716E+02  0.33285146592E+02  0.14419574333E+03  0.12509000000E+03 0.  0.
         25    1    4    4    0    0  0.84892897845E+01 -0.45251192916E+02  0.26661869221E+03  0.29808182373E+03  0.12509000000E+03 0.  0.
         25    1    4    4    0    0 -0.46216314704E+02 -0.58729197998E+01  0.17961676929E+03  0.22378590403E+03  0.12509000000E+03 0.  0.
<mgrwt>
<rscale>  2 0.46227755E+03</rscale>
<asrwt>0</asrwt>
<pdfrwt beam="1">  1       21 0.84234122E-01 0.46227755E+03</pdfrwt>
<pdfrwt beam="2">  1       21 0.13716387E-01 0.46227755E+03</pdfrwt>
<totfact> 0.51750391E+04</totfact>
</mgrwt>
</event>
<event>
 7    0  0.4691878E-002  0.4539070E+03  0.7546771E-02  0.1026563E+00
         21   -1    0    0  502  501  0.00000000000E+00  0.00000000000E+00  0.28878180240E+03  0.28878180240E+03  0.00000000000E+00 0.  1.
         21   -1    0    0  501  502 -0.00000000000E+00 -0.00000000000E+00 -0.17836265889E+03  0.17836265889E+03  0.00000000000E+00 0.  1.
      99926    2    1    2    0    0  0.71054273576E-14 -0.17763568394E-14  0.11041914352E+03  0.46714446129E+03  0.45390699538E+03 0.  0.
      99925    2    3    3    0    0 -0.46434012557E+02  0.11977541845E+02  0.17353315568E+03  0.31905507726E+03  0.26340616389E+03 0.  0.
         25    1    4    4    0    0 -0.28723564436E+02  0.46616640157E+02  0.82612988397E+02  0.15959501322E+03  0.12509000000E+03 0.  0.
         25    1    4    4    0    0 -0.17710448121E+02 -0.34639098312E+02  0.90920167284E+02  0.15946006404E+03  0.12509000000E+03 0.  0.
         25    1    3    3    0    0  0.46434012557E+02 -0.11977541845E+02 -0.63114012162E+02  0.14808938403E+03  0.12509000000E+03 0.  0.
<mgrwt>
<rscale>  2 0.45390700E+03</rscale>
<asrwt>0</asrwt>
<pdfrwt beam="1">  1       21 0.42467912E-01 0.45390700E+03</pdfrwt>
<pdfrwt beam="2">  1       21 0.26229803E-01 0.45390700E+03</pdfrwt>
<totfact> 0.68238522E+04</totfact>
</mgrwt>
</event>
<event>
 7    0  0.4691878E-002  0.4517115E+03  0.7546771E-02  0.1027213E+00
         21   -1    0    0  502  501  0.00000000000E+00  0.00000000000E+00  0.65971165416E+02  0.65971165416E+02  0.00000000000E+00 0.  1.
         21   -1    0    0  501  502 -0.00000000000E+00 -0.00000000000E+00 -0.77322893389E+03  0.77322893389E+03  0.00000000000E+00 0.  1.
      99926    2    1    2    0    0  0.00000000000E+00  0.14210854715E-13 -0.70725776847E+03  0.83920009930E+03  0.45171147385E+03 0.  0.
      99925    2    3    3    0    0  0.71955896115E+02 -0.81088163044E+02 -0.48232653242E+03  0.55992512688E+03  0.26291504837E+03 0.  0.
         25    1    4    4    0    0  0.58239124040E+02 -0.54618738035E+02 -0.32080098787E+03  0.35346256383E+03  0.12509000000E+03 0.  0.
         25    1    3    3    0    0 -0.71955896115E+02  0.81088163044E+02 -0.22493123605E+03  0.27927497243E+03  0.12509000000E+03 0.  0.
         25    1    4    4    0    0  0.13716772075E+02 -0.26469425009E+02 -0.16152554455E+03  0.20646256304E+03  0.12509000000E+03 0.  0.
<mgrwt>
<rscale>  2 0.45171147E+03</rscale>
<asrwt>0</asrwt>
<pdfrwt beam="1">  1       21 0.97016425E-02 0.45171147E+03</pdfrwt>
<pdfrwt beam="2">  1       21 0.11371013E+00 0.45171147E+03</pdfrwt>
<totfact> 0.47130673E+04</totfact>
</mgrwt>
</event>
<event>
 7    0  0.4691878E-002  0.4498465E+03  0.7546771E-02  0.1027768E+00
         21   -1    0    0  502  501  0.00000000000E+00  0.00000000000E+00  0.54355955745E+02  0.54355955745E+02  0.00000000000E+00 0.  1.
         21   -1    0    0  501  502 -0.00000000000E+00 -0.00000000000E+00 -0.93072524250E+03  0.93072524250E+03  0.00000000000E+00 0.  1.
      99926    2    1    2    0    0  0.71054273576E-14  0.14210854715E-13 -0.87636928676E+03  0.98508119825E+03  0.44984646311E+03 0.  0.
      99925    2    3    3    0    0 -0.52083339507E+02 -0.94258664926E+02 -0.53290284888E+03  0.60401155604E+03  0.26314851950E+03 0.  0.
         25    1    3    3    0    0  0.52083339507E+02  0.94258664926E+02 -0.34346643787E+03  0.38106964221E+03  0.12509000000E+03 0.  0.
         25    1    4    4    0    0 -0.19546257249E+02 -0.87421991127E+02 -0.31498064127E+03  0.35054953028E+03  0.12509000000E+03 0.  0.
         25    1    4    4    0    0 -0.32537082258E+02 -0.68366737995E+01 -0.21792220762E+03  0.25346202576E+03  0.12509000000E+03 0.  0.
<mgrwt>
<rscale>  2 0.44984646E+03</rscale>
<asrwt>0</asrwt>
<pdfrwt beam="1">  1       21 0.79935237E-02 0.44984646E+03</pdfrwt>
<pdfrwt beam="2">  1       21 0.13687134E+00 0.44984646E+03</pdfrwt>
<totfact> 0.41393383E+04</totfact>
</mgrwt>
</event>
<event>
 7    0  0.4691878E-002  0.4546449E+03  0.7546771E-02  0.1026346E+00
         21   -1    0    0  502  501  0.00000000000E+00  0.00000000000E+00  0.73431898660E+02  0.73431898660E+02  0.00000000000E+00 0. -1.
         21   -1    0    0  501  502 -0.00000000000E+00 -0.00000000000E+00 -0.70371988407E+03  0.70371988407E+03  0.00000000000E+00 0. -1.
      99926    2    1    2    0    0  0.00000000000E+00  0.35527136788E-14 -0.63028798541E+03  0.77715178273E+03  0.45464486014E+03 0.  0.
      99925    2    3    3    0    0  0.32000934208E+02 -0.15377887688E+02 -0.57978580521E+03  0.63765799246E+03  0.26305055825E+03 0.  0.
         25    1    4    4    0    0  0.33925450297E+02  0.28734515329E+02 -0.29444672852E+03  0.32299070046E+03  0.12509000000E+03 0.  0.
         25    1    4    4    0    0 -0.19245160892E+01 -0.44112403017E+02 -0.28533907669E+03  0.31466729199E+03  0.12509000000E+03 0.  0.
         25    1    3    3    0    0 -0.32000934208E+02  0.15377887688E+02 -0.50502180192E+02  0.13949379027E+03  0.12509000000E+03 0.  0.
<mgrwt>
<rscale>  2 0.45464486E+03</rscale>
<asrwt>0</asrwt>
<pdfrwt beam="1">  1       21 0.10798809E-01 0.45464486E+03</pdfrwt>
<pdfrwt beam="2">  1       21 0.10348821E+00 0.45464486E+03</pdfrwt>
<totfact> 0.49026363E+04</totfact>
</mgrwt>
</event>
<event>
 7    0  0.4691878E-002  0.4414328E+03  0.7546771E-02  0.1030308E+00
         21   -1    0    0  502  501  0.00000000000E+00  0.00000000000E+00  0.53109844023E+03  0.53109844023E+03  0.00000000000E+00 0. -1.
         21   -1    0    0  501  502 -0.00000000000E+00 -0.00000000000E+00 -0.91726378196E+02  0.91726378196E+02  0.00000000000E+00 0. -1.
      99926    2    1    2    0    0  0.00000000000E+00 -0.17763568394E-14  0.43937206203E+03  0.62282481842E+03  0.44143283243E+03 0.  0.
      99925    2    3    3    0    0  0.66829835275E+02  0.85115791456E+01  0.38399968459E+03  0.47033782834E+03  0.26310309982E+03 0.  0.
         25    1    4    4    0    0 -0.41909301156E+01  0.16412079457E+02  0.15654234644E+03  0.20109682885E+03  0.12509000000E+03 0.  0.
         25    1    3    3    0    0 -0.66829835275E+02 -0.85115791456E+01  0.55372377442E+02  0.15248699009E+03  0.12509000000E+03 0.  0.
         25    1    4    4    0    0  0.71020765391E+02 -0.79005003116E+01  0.22745733815E+03  0.26924099948E+03  0.12509000000E+03 0.  0.
<mgrwt>
<rscale>  2 0.44143283E+03</rscale>
<asrwt>0</asrwt>
<pdfrwt beam="1">  1       21 0.78102710E-01 0.44143283E+03</pdfrwt>
<pdfrwt beam="2">  1       21 0.13489174E-01 0.44143283E+03</pdfrwt>
<totfact> 0.63865811E+04</totfact>
</mgrwt>
</event>
<event>
 7    0  0.4691878E-002  0.4554910E+03  0.7546771E-02  0.1026097E+00
         21   -1    0    0  502  501  0.00000000000E+00  0.00000000000E+00  0.63273962531E+02  0.63273962531E+02  0.00000000000E+00 0.  1.
         21   -1    0    0  501  502 -0.00000000000E+00 -0.00000000000E+00 -0.81973690621E+03  0.81973690621E+03  0.00000000000E+00 0.  1.
      99926    2    1    2    0    0  0.00000000000E+00  0.00000000000E+00 -0.75646294368E+03  0.88301086874E+03  0.45549095398E+03 0.  0.
      99925    2    3    3    0    0  0.73329956860E+02  0.85668399983E+02 -0.44847088672E+03  0.53197957017E+03  0.26298245096E+03 0.  0.
         25    1    3    3    0    0 -0.73329956860E+02 -0.85668399983E+02 -0.30799205696E+03  0.35103129858E+03  0.12509000000E+03 0.  0.
         25    1    4    4    0    0  0.61741457615E+02  0.13315890380E+02 -0.19783208025E+03  0.24243423974E+03  0.12509000000E+03 0.  0.
         25    1    4    4    0    0  0.11588499245E+02  0.72352509603E+02 -0.25063880647E+03  0.28954533042E+03  0.12509000000E+03 0.  0.
<mgrwt>
<rscale>  2 0.45549095E+03</rscale>
<asrwt>0</asrwt>
<pdfrwt beam="1">  1       21 0.93049948E-02 0.45549095E+03</pdfrwt>
<pdfrwt beam="2">  1       21 0.12054954E+00 0.45549095E+03</pdfrwt>
<totfact> 0.43807735E+04</totfact>
</mgrwt>
</event>
<event>
 7    0  0.4691878E-002  0.4533351E+03  0.7546771E-02  0.1026732E+00
         21   -1    0    0  502  501  0.00000000000E+00  0.00000000000E+00  0.64736087272E+03  0.64736087272E+03  0.00000000000E+00 0.  1.
         21   -1    0    0  501  502 -0.00000000000E+00 -0.00000000000E+00 -0.79365585809E+02  0.79365585809E+02  0.00000000000E+00 0.  1.
      99926    2    1    2    0    0  0.14210854715E-13  0.00000000000E+00  0.56799528691E+03  0.72672645853E+03  0.45333508531E+03 0.  0.
      99925    2    3    3    0    0 -0.72915029968E+02  0.36908776637E+02  0.47972474136E+03  0.55318091205E+03  0.26304835032E+03 0.  0.
         25    1    4    4    0    0 -0.66117533279E+02  0.24830287447E+02  0.31205770357E+03  0.34353397188E+03  0.12509000000E+03 0.  0.
         25    1    3    3    0    0  0.72915029968E+02 -0.36908776637E+02  0.88270545552E+02  0.17354554647E+03  0.12509000000E+03 0.  0.
         25    1    4    4    0    0 -0.67974966886E+01  0.12078489190E+02  0.16766703779E+03  0.20964694017E+03  0.12509000000E+03 0.  0.
<mgrwt>
<rscale>  2 0.45333509E+03</rscale>
<asrwt>0</asrwt>
<pdfrwt beam="1">  1       21 0.95200126E-01 0.45333509E+03</pdfrwt>
<pdfrwt beam="2">  1       21 0.11671410E-01 0.45333509E+03</pdfrwt>
<totfact> 0.52155364E+04</totfact>
</mgrwt>
</event>
<event>
 7    0  0.4691878E-002  0.4553254E+03  0.7546771E-02  0.1026146E+00
         21   -1    0    0  502  501  0.00000000000E+00  0.00000000000E+00  0.21434436371E+03  0.21434436371E+03  0.00000000000E+00 0. -1.
         21   -1    0    0  501  502 -0.00000000000E+00 -0.00000000000E+00 -0.24180858698E+03  0.24180858698E+03  0.00000000000E+00 0. -1.
      99926    2    1    2    0    0  0.00000000000E+00  0.00000000000E+00 -0.27464223268E+02  0.45615295069E+03  0.45532541206E+03 0.  0.
      99925    2    3    3    0    0 -0.60960881117E+02 -0.94082495673E+02  0.21888297924E+01  0.28558168502E+03  0.26264874419E+03 0.  0.
         25    1    4    4    0    0 -0.30982559981E+02 -0.33267634300E+02  0.38853732202E+02  0.13864982914E+03  0.12509000000E+03 0.  0.
         25    1    3    3    0    0  0.60960881117E+02  0.94082495673E+02 -0.29653053060E+02  0.17057126568E+03  0.12509000000E+03 0.  0.
         25    1    4    4    0    0 -0.29978321136E+02 -0.60814861373E+02 -0.36664902410E+02  0.14693185587E+03  0.12509000000E+03 0.  0.
<mgrwt>
<rscale>  2 0.45532541E+03</rscale>
<asrwt>0</asrwt>
<pdfrwt beam="1">  1       21 0.31521230E-01 0.45532541E+03</pdfrwt>
<pdfrwt beam="2">  1       21 0.35560086E-01 0.45532541E+03</pdfrwt>
<totfact> 0.68283980E+04</totfact>
</mgrwt>
</event>
<event>
 7    0  0.4691878E-002  0.4387333E+03  0.7546771E-02  0.1031136E+00
         21   -1    0    0  502  501  0.00000000000E+00  0.00000000000E+00  0.17114469924E+02  0.17114469924E+02  0.00000000000E+00 0.  1.
         21   -1    0    0  501  502 -0.00000000000E+00 -0.00000000000E+00 -0.28117568795E+04  0.28117568795E+04  0.00000000000E+00 0.  1.
      99926    2    1    2    0    0  0.71054273576E-14  0.00000000000E+00 -0.27946424096E+04  0.28288713494E+04  0.43873330646E+03 0.  0.
      99925    2    3    3    0    0 -0.38844600933E+02  0.40343928310E+02 -0.12738673284E+04  0.13019329449E+04  0.26297316800E+03 0.  0.
         25    1    4    4    0    0  0.81708192410E+01  0.13603510756E+02 -0.75549519433E+03  0.76594537308E+03  0.12509000000E+03 0.  0.
         25    1    3    3    0    0  0.38844600933E+02 -0.40343928310E+02 -0.15207750812E+04  0.15269384046E+04  0.12509000000E+03 0.  0.
         25    1    4    4    0    0 -0.47015420174E+02  0.26740417554E+02 -0.51837213403E+03  0.53598757179E+03  0.12509000000E+03 0.  0.
<mgrwt>
<rscale>  2 0.43873331E+03</rscale>
<asrwt>0</asrwt>
<pdfrwt beam="1">  1       21 0.25168348E-02 0.43873331E+03</pdfrwt>
<pdfrwt beam="2">  1       21 0.41349350E+00 0.43873331E+03</pdfrwt>
<totfact> 0.49109302E+03</totfact>
</mgrwt>
</event>
<event>
 7    0  0.4691878E-002  0.4538524E+03  0.7546771E-02  0.1026579E+00
         21   -1    0    0  502  501  0.00000000000E+00  0.00000000000E+00  0.28213311203E+03  0.28213311203E+03  0.00000000000E+00 0.  1.
         21   -1    0    0  501  502 -0.00000000000E+00 -0.00000000000E+00 -0.18252196229E+03  0.18252196229E+03  0.00000000000E+00 0.  1.
      99926    2    1    2    0    0 -0.14210854715E-13  0.00000000000E+00  0.99611149734E+02  0.46465507432E+03  0.45385235147E+03 0.  0.
      99925    2    3    3    0    0 -0.70363814347E+02  0.73123193481E+02  0.14936378975E+02  0.28267872229E+03  0.26341240826E+03 0.  0.
         25    1    4    4    0    0 -0.49236047726E+01  0.56646719440E+01 -0.17630351927E+01  0.12532735849E+03  0.12509000000E+03 0.  0.
         25    1    4    4    0    0 -0.65440209574E+02  0.67458521537E+02  0.16699414168E+02  0.15735136380E+03  0.12509000000E+03 0.  0.
         25    1    3    3    0    0  0.70363814347E+02 -0.73123193481E+02  0.84674770759E+02  0.18197635203E+03  0.12509000000E+03 0.  0.
<mgrwt>
<rscale>  2 0.45385235E+03</rscale>
<asrwt>0</asrwt>
<pdfrwt beam="1">  1       21 0.41490164E-01 0.45385235E+03</pdfrwt>
<pdfrwt beam="2">  1       21 0.26841465E-01 0.45385235E+03</pdfrwt>
<totfact> 0.68456868E+04</totfact>
</mgrwt>
</event>
<event>
 7    0  0.4691878E-002  0.4597877E+03  0.7546771E-02  0.1024843E+00
         21   -1    0    0  502  501  0.00000000000E+00  0.00000000000E+00  0.21101264853E+03  0.21101264853E+03  0.00000000000E+00 0.  1.
         21   -1    0    0  501  502 -0.00000000000E+00 -0.00000000000E+00 -0.25046448643E+03  0.25046448643E+03  0.00000000000E+00 0.  1.
      99926    2    1    2    0    0  0.00000000000E+00 -0.14210854715E-13 -0.39451837896E+02  0.46147713496E+03  0.45978766684E+03 0.  0.
      99925    2    3    3    0    0 -0.31857620982E+02  0.69948750662E+02  0.65218136494E+02  0.28116893389E+03  0.26247824352E+03 0.  0.
         25    1    4    4    0    0 -0.52671223089E+00 -0.33304812765E+01  0.27315382517E+02  0.12808203525E+03  0.12509000000E+03 0.  0.
         25    1    4    4    0    0 -0.31330908751E+02  0.73279231938E+02  0.37902753978E+02  0.15308689864E+03  0.12509000000E+03 0.  0.
         25    1    3    3    0    0  0.31857620982E+02 -0.69948750662E+02 -0.10466997439E+03  0.18030820107E+03  0.12509000000E+03 0.  0.
<mgrwt>
<rscale>  2 0.45978767E+03</rscale>
<asrwt>0</asrwt>
<pdfrwt beam="1">  1       21 0.31031272E-01 0.45978767E+03</pdfrwt>
<pdfrwt beam="2">  1       21 0.36833013E-01 0.45978767E+03</pdfrwt>
<totfact> 0.65534517E+04</totfact>
</mgrwt>
</event>
<event>
 7    0  0.4691878E-002  0.4611803E+03  0.7546771E-02  0.1024439E+00
         21   -1    0    0  502  501  0.00000000000E+00  0.00000000000E+00  0.74512703155E+03  0.74512703155E+03  0.00000000000E+00 0. -1.
         21   -1    0    0  501  502 -0.00000000000E+00 -0.00000000000E+00 -0.71359407114E+02  0.71359407114E+02  0.00000000000E+00 0. -1.
      99926    2    1    2    0    0  0.00000000000E+00  0.00000000000E+00  0.67376762444E+03  0.81648643867E+03  0.46118032567E+03 0.  0.
      99925    2    3    3    0    0  0.11567072262E+03 -0.22158768267E+02  0.45082812930E+03  0.53502551123E+03  0.26293643417E+03 0.  0.
         25    1    3    3    0    0 -0.11567072262E+03  0.22158768267E+02  0.22293949514E+03  0.28146092744E+03  0.12509000000E+03 0.  0.
         25    1    4    4    0    0  0.36830131895E+02 -0.20211426321E+02  0.14975493002E+03  0.19959711304E+03  0.12509000000E+03 0.  0.
         25    1    4    4    0    0  0.78840590721E+02 -0.19473419453E+01  0.30107319928E+03  0.33542839818E+03  0.12509000000E+03 0.  0.
<mgrwt>
<rscale>  2 0.46118033E+03</rscale>
<asrwt>0</asrwt>
<pdfrwt beam="1">  1       21 0.10957750E+00 0.46118033E+03</pdfrwt>
<pdfrwt beam="2">  1       21 0.10494031E-01 0.46118033E+03</pdfrwt>
<totfact> 0.44766871E+04</totfact>
</mgrwt>
</event>
<event>
 6    0  0.4691878E-002  0.4464160E+03  0.7546771E-02  0.1028796E+00
         21   -1    0    0  502  501  0.00000000000E+00  0.00000000000E+00  0.55167926131E+02  0.55167926131E+02  0.00000000000E+00 0. -1.
         21   -1    0    0  501  502 -0.00000000000E+00 -0.00000000000E+00 -0.90309394567E+03  0.90309394567E+03  0.00000000000E+00 0. -1.
      99926    2    1    2    0    0  0.00000000000E+00  0.71054273576E-14 -0.84792601954E+03  0.95826187180E+03  0.44641603951E+03 0.  0.
         25    1    3    3    0    0 -0.27127002849E+02  0.20827317509E+02 -0.29325703168E+03  0.32065066064E+03  0.12509000000E+03 0.  0.
         25    1    3    3    0    0  0.70177087420E+02  0.45716332998E+02 -0.17947534924E+03  0.23425139442E+03  0.12509000000E+03 0.  0.
         25    1    3    3    0    0 -0.43050084571E+02 -0.66543650507E+02 -0.37519363861E+03  0.40335981674E+03  0.12509000000E+03 0.  0.
<mgrwt>
<rscale>  2 0.44641604E+03</rscale>
<asrwt>0</asrwt>
<pdfrwt beam="1">  1       21 0.81129302E-02 0.44641604E+03</pdfrwt>
<pdfrwt beam="2">  1       21 0.13280794E+00 0.44641604E+03</pdfrwt>
<totfact> 0.43665989E+04</totfact>
</mgrwt>
</event>
<event>
 7    0  0.4691878E-002  0.4676381E+03  0.7546771E-02  0.1022589E+00
         21   -1    0    0  502  501  0.00000000000E+00  0.00000000000E+00  0.23551172689E+02  0.23551172689E+02  0.00000000000E+00 0.  1.
         21   -1    0    0  501  502 -0.00000000000E+00 -0.00000000000E+00 -0.23213850555E+04  0.23213850555E+04  0.00000000000E+00 0.  1.
      99926    2    1    2    0    0 -0.14210854715E-13  0.00000000000E+00 -0.22978338828E+04  0.23449362282E+04  0.46763806655E+03 0.  0.
      99925    2    3    3    0    0  0.11726652088E+03 -0.12796272456E+02 -0.12290649349E+04  0.12624253720E+04  0.26306277640E+03 0.  0.
         25    1    4    4    0    0  0.85703070579E+02  0.15305188526E+02 -0.55465965187E+03  0.57521657019E+03  0.12509000000E+03 0.  0.
         25    1    4    4    0    0  0.31563450298E+02 -0.28101460982E+02 -0.67440528299E+03  0.68720880184E+03  0.12509000000E+03 0.  0.
         25    1    3    3    0    0 -0.11726652088E+03  0.12796272456E+02 -0.10687689480E+04  0.10825108562E+04  0.12509000000E+03 0.  0.
<mgrwt>
<rscale>  2 0.46763807E+03</rscale>
<asrwt>0</asrwt>
<pdfrwt beam="1">  1       21 0.34634067E-02 0.46763807E+03</pdfrwt>
<pdfrwt beam="2">  1       21 0.34138026E+00 0.46763807E+03</pdfrwt>
<totfact> 0.80331339E+03</totfact>
</mgrwt>
</event>
<event>
 7    0  0.4691878E-002  0.4437569E+03  0.7546771E-02  0.1029600E+00
         21   -1    0    0  502  501  0.00000000000E+00  0.00000000000E+00  0.85331356412E+03  0.85331356412E+03  0.00000000000E+00 0.  1.
         21   -1    0    0  501  502 -0.00000000000E+00 -0.00000000000E+00 -0.57692807835E+02  0.57692807835E+02  0.00000000000E+00 0.  1.
      99926    2    1    2    0    0  0.00000000000E+00  0.00000000000E+00  0.79562075628E+03  0.91100637195E+03  0.44375694013E+03 0.  0.
      99925    2    3    3    0    0  0.30086830617E+02  0.76628284973E+02  0.63068934402E+03  0.68823521070E+03  0.26290976618E+03 0.  0.
         25    1    4    4    0    0  0.15041549281E+02  0.79193848910E+02  0.36520687362E+03  0.39436212109E+03  0.12509000000E+03 0.  0.
         25    1    3    3    0    0 -0.30086830617E+02 -0.76628284973E+02  0.16493141227E+03  0.22277116125E+03  0.12509000000E+03 0.  0.
         25    1    4    4    0    0  0.15045281336E+02 -0.25655639372E+01  0.26548247039E+03  0.29387308961E+03  0.12509000000E+03 0.  0.
<mgrwt>
<rscale>  2 0.44375694E+03</rscale>
<asrwt>0</asrwt>
<pdfrwt beam="1">  1       21 0.12548728E+00 0.44375694E+03</pdfrwt>
<pdfrwt beam="2">  1       21 0.84842370E-02 0.44375694E+03</pdfrwt>
<totfact> 0.46739058E+04</totfact>
</mgrwt>
</event>
<event>
 7    0  0.4691878E-002  0.4512927E+03  0.7546771E-02  0.1027337E+00
         21   -1    0    0  502  501  0.00000000000E+00  0.00000000000E+00  0.32841427780E+03  0.32841427780E+03  0.00000000000E+00 0.  1.
         21   -1    0    0  501  502 -0.00000000000E+00 -0.00000000000E+00 -0.15503669929E+03  0.15503669929E+03  0.00000000000E+00 0.  1.
      99926    2    1    2    0    0  0.00000000000E+00  0.00000000000E+00  0.17337757851E+03  0.48345097709E+03  0.45129265728E+03 0.  0.
      99925    2    3    3    0    0  0.15211650288E+01  0.90986998387E+02  0.43897745916E+02  0.28172471958E+03  0.26298451990E+03 0.  0.
         25    1    4    4    0    0 -0.25488986534E+02  0.48112493225E+02 -0.90977572385E+01  0.13672884745E+03  0.12509000000E+03 0.  0.
         25    1    3    3    0    0 -0.15211650288E+01 -0.90986998387E+02  0.12947983260E+03  0.20172625751E+03  0.12509000000E+03 0.  0.
         25    1    4    4    0    0  0.27010151563E+02  0.42874505162E+02  0.52995503154E+02  0.14499587213E+03  0.12509000000E+03 0.  0.
<mgrwt>
<rscale>  2 0.45129266E+03</rscale>
<asrwt>0</asrwt>
<pdfrwt beam="1">  1       21 0.48296218E-01 0.45129266E+03</pdfrwt>
<pdfrwt beam="2">  1       21 0.22799514E-01 0.45129266E+03</pdfrwt>
<totfact> 0.68441949E+04</totfact>
</mgrwt>
</event>
<event>
 7    0  0.4691878E-002  0.4596548E+03  0.7546771E-02  0.1024881E+00
         21   -1    0    0  502  501  0.00000000000E+00  0.00000000000E+00  0.51117309031E+03  0.51117309031E+03  0.00000000000E+00 0. -1.
         21   -1    0    0  501  502 -0.00000000000E+00 -0.00000000000E+00 -0.10333217908E+03  0.10333217908E+03  0.00000000000E+00 0. -1.
      99926    2    1    2    0    0  0.00000000000E+00  0.00000000000E+00  0.40784091123E+03  0.61450526939E+03  0.45965478050E+03 0.  0.
      99925    2    3    3    0    0 -0.38162554600E+02  0.65078987423E+02  0.37599243942E+03  0.46499443890E+03  0.26297881765E+03 0.  0.
         25    1    3    3    0    0  0.38162554600E+02 -0.65078987423E+02  0.31848471817E+02  0.14951083049E+03  0.12509000000E+03 0.  0.
         25    1    4    4    0    0 -0.51684363888E+02  0.58889332996E+02  0.20066966981E+03  0.24910851349E+03  0.12509000000E+03 0.  0.
         25    1    4    4    0    0  0.13521809289E+02  0.61896544275E+01  0.17532276961E+03  0.21588592542E+03  0.12509000000E+03 0.  0.
<mgrwt>
<rscale>  2 0.45965478E+03</rscale>
<asrwt>0</asrwt>
<pdfrwt beam="1">  1       21 0.75172512E-01 0.45965478E+03</pdfrwt>
<pdfrwt beam="2">  1       21 0.15195909E-01 0.45965478E+03</pdfrwt>
<totfact> 0.55717389E+04</totfact>
</mgrwt>
</event>
<event>
 7    0  0.4691878E-002  0.4551100E+03  0.7546771E-02  0.1026209E+00
         21   -1    0    0  502  501  0.00000000000E+00  0.00000000000E+00  0.48331592060E+02  0.48331592060E+02  0.00000000000E+00 0. -1.
         21   -1    0    0  501  502 -0.00000000000E+00 -0.00000000000E+00 -0.10713755363E+04  0.10713755363E+04  0.00000000000E+00 0. -1.
      99926    2    1    2    0    0  0.00000000000E+00  0.00000000000E+00 -0.10230439442E+04  0.11197071284E+04  0.45511003225E+03 0.  0.
      99925    2    3    3    0    0 -0.41033386139E+02  0.77632804274E+02 -0.46760198081E+03  0.54362217463E+03  0.26298833665E+03 0.  0.
         25    1    3    3    0    0  0.41033386139E+02 -0.77632804274E+02 -0.55544196343E+03  0.57608495373E+03  0.12509000000E+03 0.  0.
         25    1    4    4    0    0 -0.45337403471E+01  0.62627816278E+01 -0.17239555795E+03  0.21313731193E+03  0.12509000000E+03 0.  0.
         25    1    4    4    0    0 -0.36499645792E+02  0.71370022646E+02 -0.29520642286E+03  0.33048486270E+03  0.12509000000E+03 0.  0.
<mgrwt>
<rscale>  2 0.45511003E+03</rscale>
<asrwt>0</asrwt>
<pdfrwt beam="1">  1       21 0.71075875E-02 0.45511003E+03</pdfrwt>
<pdfrwt beam="2">  1       21 0.15755522E+00 0.45511003E+03</pdfrwt>
<totfact> 0.34780165E+04</totfact>
</mgrwt>
</event>
<event>
 7    0  0.4691878E-002  0.4502285E+03  0.7546771E-02  0.1027654E+00
         21   -1    0    0  502  501  0.00000000000E+00  0.00000000000E+00  0.13641314692E+04  0.13641314692E+04  0.00000000000E+00 0.  1.
         21   -1    0    0  501  502 -0.00000000000E+00 -0.00000000000E+00 -0.37149227013E+02  0.37149227013E+02  0.00000000000E+00 0.  1.
      99926    2    1    2    0    0 -0.14210854715E-13  0.00000000000E+00  0.13269822422E+04  0.14012806962E+04  0.45022851809E+03 0.  0.
      99925    2    3    3    0    0  0.96428262841E+02 -0.43000123579E+02  0.75912536425E+03  0.81030154055E+03  0.26300161117E+03 0.  0.
         25    1    4    4    0    0  0.88949554101E+02 -0.19903701445E+02  0.45315260448E+03  0.47885589853E+03  0.12509000000E+03 0.  0.
         25    1    3    3    0    0 -0.96428262841E+02  0.43000123579E+02  0.56785687797E+03  0.59097915569E+03  0.12509000000E+03 0.  0.
         25    1    4    4    0    0  0.74787087399E+01 -0.23096422134E+02  0.30597275976E+03  0.33144564202E+03  0.12509000000E+03 0.  0.
<mgrwt>
<rscale>  2 0.45022852E+03</rscale>
<asrwt>0</asrwt>
<pdfrwt beam="1">  1       21 0.20060754E+00 0.45022852E+03</pdfrwt>
<pdfrwt beam="2">  1       21 0.54631225E-02 0.45022852E+03</pdfrwt>
<totfact> 0.27296096E+04</totfact>
</mgrwt>
</event>
<event>
 7    0  0.4691878E-002  0.4550091E+03  0.7546771E-02  0.1026239E+00
         21   -1    0    0  502  501  0.00000000000E+00  0.00000000000E+00  0.40164533664E+03  0.40164533664E+03  0.00000000000E+00 0.  1.
         21   -1    0    0  501  502 -0.00000000000E+00 -0.00000000000E+00 -0.12886573902E+03  0.12886573902E+03  0.00000000000E+00 0.  1.
      99926    2    1    2    0    0  0.00000000000E+00  0.00000000000E+00  0.27277959762E+03  0.53051107567E+03  0.45500911258E+03 0.  0.
      99925    2    3    3    0    0  0.46569524134E+02  0.70613262873E+02  0.83968979307E+02  0.28874277510E+03  0.26299552699E+03 0.  0.
         25    1    4    4    0    0 -0.63149684356E+01  0.54066918923E+02  0.20605456855E+02  0.13796812494E+03  0.12509000000E+03 0.  0.
         25    1    4    4    0    0  0.52884492569E+02  0.16546343950E+02  0.63363522452E+02  0.15077465016E+03  0.12509000000E+03 0.  0.
         25    1    3    3    0    0 -0.46569524134E+02 -0.70613262873E+02  0.18881061831E+03  0.24176830057E+03  0.12509000000E+03 0.  0.
<mgrwt>
<rscale>  2 0.45500911E+03</rscale>
<asrwt>0</asrwt>
<pdfrwt beam="1">  1       21 0.59065490E-01 0.45500911E+03</pdfrwt>
<pdfrwt beam="2">  1       21 0.18950844E-01 0.45500911E+03</pdfrwt>
<totfact> 0.63167378E+04</totfact>
</mgrwt>
</event>
<event>
 7    0  0.4691878E-002  0.4560082E+03  0.7546771E-02  0.1025945E+00
         21   -1    0    0  502  501  0.00000000000E+00  0.00000000000E+00  0.35056580961E+03  0.35056580961E+03  0.00000000000E+00 0.  1.
         21   -1    0    0  501  502 -0.00000000000E+00 -0.00000000000E+00 -0.14829134847E+03  0.14829134847E+03  0.00000000000E+00 0.  1.
      99926    2    1    2    0    0  0.00000000000E+00  0.00000000000E+00  0.20227446115E+03  0.49885715808E+03  0.45600823078E+03 0.  0.
      99925    2    3    3    0    0 -0.46814812168E+02  0.93823315242E+02  0.17599044348E+03  0.33353081775E+03  0.26320282878E+03 0.  0.
         25    1    3    3    0    0  0.46814812168E+02 -0.93823315242E+02  0.26284017670E+02  0.16532634033E+03  0.12509000000E+03 0.  0.
         25    1    4    4    0    0 -0.50929495661E+02  0.47147100939E+02  0.54865896699E+02  0.15321369840E+03  0.12509000000E+03 0.  0.
         25    1    4    4    0    0  0.41146834931E+01  0.46676214303E+02  0.12112454678E+03  0.18031711936E+03  0.12509000000E+03 0.  0.
<mgrwt>
<rscale>  2 0.45600823E+03</rscale>
<asrwt>0</asrwt>
<pdfrwt beam="1">  1       21 0.51553795E-01 0.45600823E+03</pdfrwt>
<pdfrwt beam="2">  1       21 0.21807551E-01 0.45600823E+03</pdfrwt>
<totfact> 0.64830590E+04</totfact>
</mgrwt>
</event>
<event>
 7    0  0.4691878E-002  0.4532031E+03  0.7546771E-02  0.1026771E+00
         21   -1    0    0  502  501  0.00000000000E+00  0.00000000000E+00  0.35355676987E+03  0.35355676987E+03  0.00000000000E+00 0.  1.
         21   -1    0    0  501  502 -0.00000000000E+00 -0.00000000000E+00 -0.14523344962E+03  0.14523344962E+03  0.00000000000E+00 0.  1.
      99926    2    1    2    0    0  0.00000000000E+00 -0.71054273576E-14  0.20832332025E+03  0.49879021949E+03  0.45320313028E+03 0.  0.
      99925    2    3    3    0    0  0.85509008522E+02  0.49700243164E+02  0.18793452866E+03  0.33802605796E+03  0.26298350535E+03 0.  0.
         25    1    3    3    0    0 -0.85509008522E+02 -0.49700243164E+02  0.20388791594E+02  0.16076416153E+03  0.12509000000E+03 0.  0.
         25    1    4    4    0    0  0.52578621415E+02  0.57008500676E+01  0.13502030422E+03  0.19150718465E+03  0.12509000000E+03 0.  0.
         25    1    4    4    0    0  0.32930387107E+02  0.43999393097E+02  0.52914224440E+02  0.14651887331E+03  0.12509000000E+03 0.  0.
<mgrwt>
<rscale>  2 0.45320313E+03</rscale>
<asrwt>0</asrwt>
<pdfrwt beam="1">  1       21 0.51993643E-01 0.45320313E+03</pdfrwt>
<pdfrwt beam="2">  1       21 0.21357860E-01 0.45320313E+03</pdfrwt>
<totfact> 0.66296330E+04</totfact>
</mgrwt>
</event>
<event>
 7    0  0.4691878E-002  0.4536707E+03  0.7546771E-02  0.1026633E+00
         21   -1    0    0  502  501  0.00000000000E+00  0.00000000000E+00  0.24387448588E+03  0.24387448588E+03  0.00000000000E+00 0. -1.
         21   -1    0    0  501  502 -0.00000000000E+00 -0.00000000000E+00 -0.21098674270E+03  0.21098674270E+03  0.00000000000E+00 0. -1.
      99926    2    1    2    0    0  0.00000000000E+00 -0.26645352591E-14  0.32887743179E+02  0.45486122858E+03  0.45367073260E+03 0.  0.
      99925    2    3    3    0    0 -0.10877159292E+03 -0.70341997834E+01  0.46175491354E+02  0.28841360395E+03  0.26300093451E+03 0.  0.
         25    1    4    4    0    0 -0.62852825628E+02  0.35330386269E+02  0.15027981704E+02  0.14516219280E+03  0.12509000000E+03 0.  0.
         25    1    4    4    0    0 -0.45918767292E+02 -0.42364586053E+02  0.31147509649E+02  0.14325141116E+03  0.12509000000E+03 0.  0.
         25    1    3    3    0    0  0.10877159292E+03  0.70341997834E+01 -0.13287748175E+02  0.16644762463E+03  0.12509000000E+03 0.  0.
<mgrwt>
<rscale>  2 0.45367073E+03</rscale>
<asrwt>0</asrwt>
<pdfrwt beam="1">  1       21 0.35863895E-01 0.45367073E+03</pdfrwt>
<pdfrwt beam="2">  1       21 0.31027462E-01 0.45367073E+03</pdfrwt>
<totfact> 0.69287946E+04</totfact>
</mgrwt>
</event>
<event>
 7    0  0.4691878E-002  0.4585325E+03  0.7546771E-02  0.1025208E+00
         21   -1    0    0  502  501  0.00000000000E+00  0.00000000000E+00  0.48925843469E+02  0.48925843469E+02  0.00000000000E+00 0. -1.
         21   -1    0    0  501  502 -0.00000000000E+00 -0.00000000000E+00 -0.10743405099E+04  0.10743405099E+04  0.00000000000E+00 0. -1.
      99926    2    1    2    0    0  0.00000000000E+00  0.00000000000E+00 -0.10254146664E+04  0.11232663534E+04  0.45853250973E+03 0.  0.
      99925    2    3    3    0    0 -0.10015720389E+02  0.11210514728E+03 -0.57156821697E+03  0.63922917867E+03  0.26316503854E+03 0.  0.
         25    1    3    3    0    0  0.10015720389E+02 -0.11210514728E+03 -0.45384644946E+03  0.48403717469E+03  0.12509000000E+03 0.  0.
         25    1    4    4    0    0 -0.71652875883E+01  0.86106455192E+02 -0.37640015424E+03  0.40594365026E+03  0.12509000000E+03 0.  0.
         25    1    4    4    0    0 -0.28504328008E+01  0.25998692091E+02 -0.19516806273E+03  0.23328552841E+03  0.12509000000E+03 0.  0.
<mgrwt>
<rscale>  2 0.45853251E+03</rscale>
<asrwt>0</asrwt>
<pdfrwt beam="1">  1       21 0.71949766E-02 0.45853251E+03</pdfrwt>
<pdfrwt beam="2">  1       21 0.15799126E+00 0.45853251E+03</pdfrwt>
<totfact> 0.33748548E+04</totfact>
</mgrwt>
</event>
<event>
 7    0  0.4691878E-002  0.3942550E+03  0.7546771E-02  0.1045787E+00
         21   -1    0    0  502  501  0.00000000000E+00  0.00000000000E+00  0.27100342431E+03  0.27100342431E+03  0.00000000000E+00 0. -1.
         21   -1    0    0  501  502 -0.00000000000E+00 -0.00000000000E+00 -0.14339022828E+03  0.14339022828E+03  0.00000000000E+00 0. -1.
      99926    2    1    2    0    0 -0.44408920985E-14  0.35527136788E-14  0.12761319603E+03  0.41439365258E+03  0.39425495748E+03 0.  0.
      99925    2    3    3    0    0  0.79360421398E+01 -0.27627095687E+02  0.10173335779E+03  0.28346042033E+03  0.26300930901E+03 0.  0.
         25    1    4    4    0    0 -0.29160525306E+02 -0.30883360407E+02  0.68369143837E+02  0.14874799533E+03  0.12509000000E+03 0.  0.
         25    1    3    3    0    0 -0.79360421398E+01  0.27627095687E+02  0.25879838241E+02  0.13093323225E+03  0.12509000000E+03 0.  0.
         25    1    4    4    0    0  0.37096567446E+02  0.32562647197E+01  0.33364213952E+02  0.13471242500E+03  0.12509000000E+03 0.  0.
<mgrwt>
<rscale>  2 0.39425496E+03</rscale>
<asrwt>0</asrwt>
<pdfrwt beam="1">  1       21 0.39853445E-01 0.39425496E+03</pdfrwt>
<pdfrwt beam="2">  1       21 0.21086798E-01 0.39425496E+03</pdfrwt>
<totfact> 0.12003308E+05</totfact>
</mgrwt>
</event>
<event>
 7    0  0.4691878E-002  0.4528841E+03  0.7546771E-02  0.1026865E+00
         21   -1    0    0  502  501  0.00000000000E+00  0.00000000000E+00  0.94993207773E+02  0.94993207773E+02  0.00000000000E+00 0. -1.
         21   -1    0    0  501  502 -0.00000000000E+00 -0.00000000000E+00 -0.53978602824E+03  0.53978602824E+03  0.00000000000E+00 0. -1.
      99926    2    1    2    0    0 -0.71054273576E-14  0.35527136788E-14 -0.44479282047E+03  0.63477923601E+03  0.45288411910E+03 0.  0.
      99925    2    3    3    0    0 -0.39457838864E+02  0.31957570241E+02 -0.41887893909E+03  0.49731198649E+03  0.26321367546E+03 0.  0.
         25    1    3    3    0    0  0.39457838864E+02 -0.31957570241E+02 -0.25913881373E+02  0.13746724952E+03  0.12509000000E+03 0.  0.
         25    1    4    4    0    0 -0.24170351905E+02  0.55453175815E+02 -0.19718740243E+03  0.24122528971E+03  0.12509000000E+03 0.  0.
         25    1    4    4    0    0 -0.15287486959E+02 -0.23495605574E+02 -0.22169153666E+03  0.25608669678E+03  0.12509000000E+03 0.  0.
<mgrwt>
<rscale>  2 0.45288412E+03</rscale>
<asrwt>0</asrwt>
<pdfrwt beam="1">  1       21 0.13969589E-01 0.45288412E+03</pdfrwt>
<pdfrwt beam="2">  1       21 0.79380298E-01 0.45288412E+03</pdfrwt>
<totfact> 0.57541940E+04</totfact>
</mgrwt>
</event>
<event>
 7    0  0.4691878E-002  0.4652865E+03  0.7546771E-02  0.1023259E+00
         21   -1    0    0  502  501  0.00000000000E+00  0.00000000000E+00  0.80094228857E+03  0.80094228857E+03  0.00000000000E+00 0.  1.
         21   -1    0    0  501  502 -0.00000000000E+00 -0.00000000000E+00 -0.67574022164E+02  0.67574022164E+02  0.00000000000E+00 0.  1.
      99926    2    1    2    0    0  0.00000000000E+00 -0.71054273576E-14  0.73336826641E+03  0.86851631074E+03  0.46528654380E+03 0.  0.
      99925    2    3    3    0    0  0.75958513579E+02 -0.56139833397E+02  0.31049814530E+03  0.41753069666E+03  0.26268119030E+03 0.  0.
         25    1    4    4    0    0  0.25499669432E+02 -0.61481909530E+02  0.13129353579E+03  0.19317287330E+03  0.12509000000E+03 0.  0.
         25    1    4    4    0    0  0.50458844148E+02  0.53420761329E+01  0.17920460951E+03  0.22435782335E+03  0.12509000000E+03 0.  0.
         25    1    3    3    0    0 -0.75958513579E+02  0.56139833397E+02  0.42287012111E+03  0.45098561408E+03  0.12509000000E+03 0.  0.
<mgrwt>
<rscale>  2 0.46528654E+03</rscale>
<asrwt>0</asrwt>
<pdfrwt beam="1">  1       21 0.11778563E+00 0.46528654E+03</pdfrwt>
<pdfrwt beam="2">  1       21 0.99373567E-02 0.46528654E+03</pdfrwt>
<totfact> 0.41196456E+04</totfact>
</mgrwt>
</event>
<event>
 7    0  0.4691878E-002  0.4541338E+03  0.7546771E-02  0.1026496E+00
         21   -1    0    0  502  501  0.00000000000E+00  0.00000000000E+00  0.10720524235E+04  0.10720524235E+04  0.00000000000E+00 0.  1.
         21   -1    0    0  501  502 -0.00000000000E+00 -0.00000000000E+00 -0.48094081414E+02  0.48094081414E+02  0.00000000000E+00 0.  1.
      99926    2    1    2    0    0 -0.17763568394E-14 -0.14210854715E-13  0.10239583421E+04  0.11201465049E+04  0.45413379763E+03 0.  0.
      99925    2    3    3    0    0  0.15031389624E+02  0.74539536927E+02  0.84593881989E+03  0.88966756093E+03  0.26479009940E+03 0.  0.
         25    1    4    4    0    0  0.39493858346E+02  0.68189728345E+02  0.46088311419E+03  0.48401483133E+03  0.12509000000E+03 0.  0.
         25    1    3    3    0    0 -0.15031389624E+02 -0.74539536927E+02  0.17801952223E+03  0.23047894401E+03  0.12509000000E+03 0.  0.
         25    1    4    4    0    0 -0.24462468723E+02  0.63498085818E+01  0.38505570570E+03  0.40565272960E+03  0.12509000000E+03 0.  0.
<mgrwt>
<rscale>  2 0.45413380E+03</rscale>
<asrwt>0</asrwt>
<pdfrwt beam="1">  1       21 0.15765475E+00 0.45413380E+03</pdfrwt>
<pdfrwt beam="2">  1       21 0.70726597E-02 0.45413380E+03</pdfrwt>
<totfact> 0.35030841E+04</totfact>
</mgrwt>
</event>
<event>
 7    0  0.4691878E-002  0.4563685E+03  0.7546771E-02  0.1025840E+00
         21   -1    0    0  502  501  0.00000000000E+00  0.00000000000E+00  0.18886189875E+03  0.18886189875E+03  0.00000000000E+00 0.  1.
         21   -1    0    0  501  502 -0.00000000000E+00 -0.00000000000E+00 -0.27569384150E+03  0.27569384150E+03  0.00000000000E+00 0.  1.
      99926    2    1    2    0    0  0.00000000000E+00  0.00000000000E+00 -0.86831942749E+02  0.46455574025E+03  0.45636854572E+03 0.  0.
      99925    2    3    3    0    0  0.76884718793E+02 -0.60089079531E+02  0.63812110766E+01  0.28054987728E+03  0.26295542650E+03 0.  0.
         25    1    4    4    0    0  0.64045852293E+02  0.10951279201E+01  0.69121088091E+01  0.14070663044E+03  0.12509000000E+03 0.  0.
         25    1    4    4    0    0  0.12838866499E+02 -0.61184207451E+02 -0.53089773250E+00  0.13984324684E+03  0.12509000000E+03 0.  0.
         25    1    3    3    0    0 -0.76884718793E+02  0.60089079531E+02 -0.93213153826E+02  0.18400586297E+03  0.12509000000E+03 0.  0.
<mgrwt>
<rscale>  2 0.45636855E+03</rscale>
<asrwt>0</asrwt>
<pdfrwt beam="1">  1       21 0.27773809E-01 0.45636855E+03</pdfrwt>
<pdfrwt beam="2">  1       21 0.40543212E-01 0.45636855E+03</pdfrwt>
<totfact> 0.67110103E+04</totfact>
</mgrwt>
</event>
<event>
 7    0  0.4691878E-002  0.4519181E+03  0.7546771E-02  0.1027152E+00
         21   -1    0    0  502  501  0.00000000000E+00  0.00000000000E+00  0.23031905551E+02  0.23031905551E+02  0.00000000000E+00 0.  1.
         21   -1    0    0  501  502 -0.00000000000E+00 -0.00000000000E+00 -0.22168153374E+04  0.22168153374E+04  0.00000000000E+00 0.  1.
      99926    2    1    2    0    0  0.00000000000E+00  0.00000000000E+00 -0.21937834318E+04  0.22398472430E+04  0.45191805220E+03 0.  0.
      99925    2    3    3    0    0  0.82467050841E+02  0.14290849933E+02 -0.10284842530E+04  0.10648686359E+04  0.26298347865E+03 0.  0.
         25    1    4    4    0    0  0.31635734716E+02  0.45237517520E+02 -0.47227265336E+03  0.49166677731E+03  0.12509000000E+03 0.  0.
         25    1    4    4    0    0  0.50831316126E+02 -0.30946667587E+02 -0.55621159967E+03  0.57320185855E+03  0.12509000000E+03 0.  0.
         25    1    3    3    0    0 -0.82467050841E+02 -0.14290849933E+02 -0.11652991788E+04  0.11749786071E+04  0.12509000000E+03 0.  0.
<mgrwt>
<rscale>  2 0.45191805E+03</rscale>
<asrwt>0</asrwt>
<pdfrwt beam="1">  1       21 0.33870455E-02 0.45191805E+03</pdfrwt>
<pdfrwt beam="2">  1       21 0.32600220E+00 0.45191805E+03</pdfrwt>
<totfact> 0.10421491E+04</totfact>
</mgrwt>
</event>
<event>
 7    0  0.4691878E-002  0.4353470E+03  0.7546771E-02  0.1032184E+00
         21   -1    0    0  502  501  0.00000000000E+00  0.00000000000E+00  0.20163667921E+02  0.20163667921E+02  0.00000000000E+00 0.  1.
         21   -1    0    0  501  502 -0.00000000000E+00 -0.00000000000E+00 -0.23498573329E+04  0.23498573329E+04  0.00000000000E+00 0.  1.
      99926    2    1    2    0    0 -0.71054273576E-14 -0.71054273576E-14 -0.23296936650E+04  0.23700210008E+04  0.43534695553E+03 0.  0.
      99925    2    3    3    0    0 -0.35809700778E+02 -0.40110603802E+02 -0.19103625231E+04  0.19291385790E+04  0.26305796352E+03 0.  0.
         25    1    3    3    0    0  0.35809700778E+02  0.40110603802E+02 -0.41933114184E+03  0.44088242177E+03  0.12509000000E+03 0.  0.
         25    1    4    4    0    0 -0.10667565279E+02 -0.50008275981E+01 -0.66504719867E+03  0.67681170925E+03  0.12509000000E+03 0.  0.
         25    1    4    4    0    0 -0.25142135500E+02 -0.35109776204E+02 -0.12453153245E+04  0.12523268698E+04  0.12509000000E+03 0.  0.
<mgrwt>
<rscale>  2 0.43534696E+03</rscale>
<asrwt>0</asrwt>
<pdfrwt beam="1">  1       21 0.29652457E-02 0.43534696E+03</pdfrwt>
<pdfrwt beam="2">  1       21 0.34556721E+00 0.43534696E+03</pdfrwt>
<totfact> 0.99966398E+03</totfact>
</mgrwt>
</event>
<event>
 7    0  0.4691878E-002  0.4517239E+03  0.7546771E-02  0.1027209E+00
         21   -1    0    0  502  501  0.00000000000E+00  0.00000000000E+00  0.22144139069E+03  0.22144139069E+03  0.00000000000E+00 0.  1.
         21   -1    0    0  501  502 -0.00000000000E+00 -0.00000000000E+00 -0.23037078146E+03  0.23037078146E+03  0.00000000000E+00 0.  1.
      99926    2    1    2    0    0  0.00000000000E+00 -0.14210854715E-13 -0.89293907741E+01  0.45181217215E+03  0.45172392551E+03 0.  0.
      99925    2    3    3    0    0  0.54024634899E+02 -0.85437172134E+02 -0.47711531695E+02  0.28637416529E+03  0.26365811334E+03 0.  0.
         25    1    3    3    0    0 -0.54024634899E+02  0.85437172134E+02  0.38782140921E+02  0.16543800686E+03  0.12509000000E+03 0.  0.
         25    1    4    4    0    0  0.50852782653E+02 -0.77439655594E+02 -0.40176448553E+02  0.16076243616E+03  0.12509000000E+03 0.  0.
         25    1    4    4    0    0  0.31718522459E+01 -0.79975165397E+01 -0.75350831423E+01  0.12561172913E+03  0.12509000000E+03 0.  0.
<mgrwt>
<rscale>  2 0.45172393E+03</rscale>
<asrwt>0</asrwt>
<pdfrwt beam="1">  1       21 0.32564911E-01 0.45172393E+03</pdfrwt>
<pdfrwt beam="2">  1       21 0.33878056E-01 0.45172393E+03</pdfrwt>
<totfact> 0.70607652E+04</totfact>
</mgrwt>
</event>
<event>
 7    0  0.4691878E-002  0.4524941E+03  0.7546771E-02  0.1026981E+00
         21   -1    0    0  502  501  0.00000000000E+00  0.00000000000E+00  0.11096948265E+03  0.11096948265E+03  0.00000000000E+00 0. -1.
         21   -1    0    0  501  502 -0.00000000000E+00 -0.00000000000E+00 -0.46127746159E+03  0.46127746159E+03  0.00000000000E+00 0. -1.
      99926    2    1    2    0    0  0.00000000000E+00  0.00000000000E+00 -0.35030797894E+03  0.57224694424E+03  0.45249407187E+03 0.  0.
      99925    2    3    3    0    0 -0.90566981934E+02 -0.57506947367E+02 -0.18458270884E+03  0.33853387130E+03  0.26272605200E+03 0.  0.
         25    1    4    4    0    0 -0.31863482058E+02 -0.18695000312E+02 -0.44067291531E+02  0.13767432153E+03  0.12509000000E+03 0.  0.
         25    1    4    4    0    0 -0.58703499876E+02 -0.38811947055E+02 -0.14051541731E+03  0.20085954977E+03  0.12509000000E+03 0.  0.
         25    1    3    3    0    0  0.90566981934E+02  0.57506947367E+02 -0.16572527010E+03  0.23371307294E+03  0.12509000000E+03 0.  0.
<mgrwt>
<rscale>  2 0.45249407E+03</rscale>
<asrwt>0</asrwt>
<pdfrwt beam="1">  1       21 0.16319042E-01 0.45249407E+03</pdfrwt>
<pdfrwt beam="2">  1       21 0.67834921E-01 0.45249407E+03</pdfrwt>
<totfact> 0.61632109E+04</totfact>
</mgrwt>
</event>
<event>
 7    0  0.4691878E-002  0.4576023E+03  0.7546771E-02  0.1025479E+00
         21   -1    0    0  502  501  0.00000000000E+00  0.00000000000E+00  0.41645864961E+03  0.41645864961E+03  0.00000000000E+00 0.  1.
         21   -1    0    0  501  502 -0.00000000000E+00 -0.00000000000E+00 -0.12570267827E+03  0.12570267827E+03  0.00000000000E+00 0.  1.
      99926    2    1    2    0    0  0.71054273576E-14  0.00000000000E+00  0.29075597133E+03  0.54216132788E+03  0.45760230614E+03 0.  0.
      99925    2    3    3    0    0 -0.33726670280E+02 -0.10792532190E+03  0.15405837745E+03  0.32509197567E+03  0.26299324247E+03 0.  0.
         25    1    4    4    0    0  0.49565519082E+01 -0.89096698452E+02  0.74963764740E+02  0.17096743317E+03  0.12509000000E+03 0.  0.
         25    1    3    3    0    0  0.33726670280E+02  0.10792532190E+03  0.13669759389E+03  0.21706935221E+03  0.12509000000E+03 0.  0.
         25    1    4    4    0    0 -0.38683222189E+02 -0.18828623448E+02  0.79094612706E+02  0.15412454249E+03  0.12509000000E+03 0.  0.
<mgrwt>
<rscale>  2 0.45760231E+03</rscale>
<asrwt>0</asrwt>
<pdfrwt beam="1">  1       21 0.61243919E-01 0.45760231E+03</pdfrwt>
<pdfrwt beam="2">  1       21 0.18485688E-01 0.45760231E+03</pdfrwt>
<totfact> 0.61119078E+04</totfact>
</mgrwt>
</event>
<event>
 7    0  0.4691878E-002  0.4301501E+03  0.7546771E-02  0.1033813E+00
         21   -1    0    0  502  501  0.00000000000E+00  0.00000000000E+00  0.17691844918E+03  0.17691844918E+03  0.00000000000E+00 0.  1.
         21   -1    0    0  501  502 -0.00000000000E+00 -0.00000000000E+00 -0.26146098698E+03  0.26146098698E+03  0.00000000000E+00 0.  1.
      99926    2    1    2    0    0  0.00000000000E+00 -0.35527136788E-14 -0.84542537804E+02  0.43837943616E+03  0.43015007770E+03 0.  0.
      99925    2    3    3    0    0  0.82159364292E+02 -0.31306255224E+02 -0.55251039414E+02  0.28270110518E+03  0.26293914649E+03 0.  0.
         25    1    3    3    0    0 -0.82159364292E+02  0.31306255224E+02 -0.29291498390E+02  0.15567833097E+03  0.12509000000E+03 0.  0.
         25    1    4    4    0    0  0.51821524901E+02  0.10419383363E+02  0.19082162197E+01  0.13581304570E+03  0.12509000000E+03 0.  0.
         25    1    4    4    0    0  0.30337839391E+02 -0.41725638586E+02 -0.57159255633E+02  0.14688805948E+03  0.12509000000E+03 0.  0.
<mgrwt>
<rscale>  2 0.43015008E+03</rscale>
<asrwt>0</asrwt>
<pdfrwt beam="1">  1       21 0.26017419E-01 0.43015008E+03</pdfrwt>
<pdfrwt beam="2">  1       21 0.38450145E-01 0.43015008E+03</pdfrwt>
<totfact> 0.85508893E+04</totfact>
</mgrwt>
</event>
<event>
 7    0  0.4691878E-002  0.4585421E+03  0.7546771E-02  0.1025205E+00
         21   -1    0    0  502  501  0.00000000000E+00  0.00000000000E+00  0.15782851887E+03  0.15782851887E+03  0.00000000000E+00 0. -1.
         21   -1    0    0  501  502 -0.00000000000E+00 -0.00000000000E+00 -0.33305264512E+03  0.33305264512E+03  0.00000000000E+00 0. -1.
      99926    2    1    2    0    0 -0.71054273576E-14  0.00000000000E+00 -0.17522412624E+03  0.49088116399E+03  0.45854206213E+03 0.  0.
      99925    2    3    3    0    0 -0.47822077966E+02  0.53846160583E+02 -0.20788650304E+03  0.34289231607E+03  0.26300566937E+03 0.  0.
         25    1    4    4    0    0 -0.61049966297E+02  0.12180546244E+02 -0.11657614701E+03  0.18196969595E+03  0.12509000000E+03 0.  0.
         25    1    4    4    0    0  0.13227888331E+02  0.41665614338E+02 -0.91310356032E+02  0.16092262012E+03  0.12509000000E+03 0.  0.
         25    1    3    3    0    0  0.47822077966E+02 -0.53846160583E+02  0.32662376799E+02  0.14798884792E+03  0.12509000000E+03 0.  0.
<mgrwt>
<rscale>  2 0.45854206E+03</rscale>
<asrwt>0</asrwt>
<pdfrwt beam="1">  1       21 0.23210076E-01 0.45854206E+03</pdfrwt>
<pdfrwt beam="2">  1       21 0.48978330E-01 0.45854206E+03</pdfrwt>
<totfact> 0.64094814E+04</totfact>
</mgrwt>
</event>
<event>
 7    0  0.4691878E-002  0.4785205E+03  0.7546771E-02  0.1019543E+00
         21   -1    0    0  502  501  0.00000000000E+00  0.00000000000E+00  0.24490341571E+03  0.24490341571E+03  0.00000000000E+00 0.  1.
         21   -1    0    0  501  502 -0.00000000000E+00 -0.00000000000E+00 -0.23374714247E+03  0.23374714247E+03  0.00000000000E+00 0.  1.
      99926    2    1    2    0    0  0.00000000000E+00  0.14210854715E-13  0.11156273236E+02  0.47865055818E+03  0.47852052664E+03 0.  0.
      99925    2    3    3    0    0  0.36062882290E+02  0.12631045903E+03  0.33392818541E+02  0.29590254701E+03  0.26303682909E+03 0.  0.
         25    1    4    4    0    0  0.55400830773E+02  0.83570760883E+02  0.14359862402E+02  0.16095663352E+03  0.12509000000E+03 0.  0.
         25    1    3    3    0    0 -0.36062882290E+02 -0.12631045903E+03 -0.22236545305E+02  0.18274801117E+03  0.12509000000E+03 0.  0.
         25    1    4    4    0    0 -0.19337948483E+02  0.42739698148E+02  0.19032956139E+02  0.13494591349E+03  0.12509000000E+03 0.  0.
<mgrwt>
<rscale>  2 0.47852053E+03</rscale>
<asrwt>0</asrwt>
<pdfrwt beam="1">  1       21 0.36015208E-01 0.47852053E+03</pdfrwt>
<pdfrwt beam="2">  1       21 0.34374580E-01 0.47852053E+03</pdfrwt>
<totfact> 0.55647090E+04</totfact>
</mgrwt>
</event>
<event>
 7    0  0.4691878E-002  0.4500146E+03  0.7546771E-02  0.1027718E+00
         21   -1    0    0  502  501  0.00000000000E+00  0.00000000000E+00  0.15398233869E+04  0.15398233869E+04  0.00000000000E+00 0. -1.
         21   -1    0    0  501  502 -0.00000000000E+00 -0.00000000000E+00 -0.32879274856E+02  0.32879274856E+02  0.00000000000E+00 0. -1.
      99926    2    1    2    0    0  0.00000000000E+00 -0.28310687128E-14  0.15069441121E+04  0.15727026618E+04  0.45001456140E+03 0.  0.
      99925    2    3    3    0    0 -0.59584867307E+02  0.18674571013E+00  0.12691442703E+04  0.12974815431E+04  0.26302240351E+03 0.  0.
         25    1    4    4    0    0 -0.13225500281E+02  0.36143290421E+02  0.57262990345E+03  0.58739574882E+03  0.12509000000E+03 0.  0.
         25    1    3    3    0    0  0.59584867307E+02 -0.18674571013E+00  0.23779984180E+03  0.27522111864E+03  0.12509000000E+03 0.  0.
         25    1    4    4    0    0 -0.46359367026E+02 -0.35956544711E+02  0.69651436682E+03  0.71008579433E+03  0.12509000000E+03 0.  0.
<mgrwt>
<rscale>  2 0.45001456E+03</rscale>
<asrwt>0</asrwt>
<pdfrwt beam="1">  1       21 0.22644457E+00 0.45001456E+03</pdfrwt>
<pdfrwt beam="2">  1       21 0.48351885E-02 0.45001456E+03</pdfrwt>
<totfact> 0.22927144E+04</totfact>
</mgrwt>
</event>
<event>
 7    0  0.4691878E-002  0.4504315E+03  0.7546771E-02  0.1027593E+00
         21   -1    0    0  502  501  0.00000000000E+00  0.00000000000E+00  0.67969556841E+03  0.67969556841E+03  0.00000000000E+00 0. -1.
         21   -1    0    0  501  502 -0.00000000000E+00 -0.00000000000E+00 -0.74624773000E+02  0.74624773000E+02  0.00000000000E+00 0. -1.
      99926    2    1    2    0    0  0.00000000000E+00  0.00000000000E+00  0.60507079541E+03  0.75432034141E+03  0.45043147093E+03 0.  0.
      99925    2    3    3    0    0  0.64386175517E+02 -0.63428254150E+02  0.28108330078E+03  0.39545528628E+03  0.26307477728E+03 0.  0.
         25    1    3    3    0    0 -0.64386175517E+02  0.63428254150E+02  0.32398749463E+03  0.35886505513E+03  0.12509000000E+03 0.  0.
         25    1    4    4    0    0  0.27140336966E+02 -0.47004978975E+00  0.93970608112E+02  0.15879169414E+03  0.12509000000E+03 0.  0.
         25    1    4    4    0    0  0.37245838551E+02 -0.62958204361E+02  0.18711269267E+03  0.23666359214E+03  0.12509000000E+03 0.  0.
<mgrwt>
<rscale>  2 0.45043147E+03</rscale>
<asrwt>0</asrwt>
<pdfrwt beam="1">  1       21 0.99955227E-01 0.45043147E+03</pdfrwt>
<pdfrwt beam="2">  1       21 0.10974232E-01 0.45043147E+03</pdfrwt>
<totfact> 0.51888974E+04</totfact>
</mgrwt>
</event>
<event>
 7    0  0.4691878E-002  0.4370131E+03  0.7546771E-02  0.1031667E+00
         21   -1    0    0  502  501  0.00000000000E+00  0.00000000000E+00  0.86666046155E+03  0.86666046155E+03  0.00000000000E+00 0.  1.
         21   -1    0    0  501  502 -0.00000000000E+00 -0.00000000000E+00 -0.55090900171E+02  0.55090900171E+02  0.00000000000E+00 0.  1.
      99926    2    1    2    0    0  0.14210854715E-13  0.00000000000E+00  0.81156956138E+03  0.92175136172E+03  0.43701306602E+03 0.  0.
      99925    2    3    3    0    0 -0.88708093723E+02 -0.21416114668E+02  0.46130167413E+03  0.53878546664E+03  0.26298815305E+03 0.  0.
         25    1    3    3    0    0  0.88708093723E+02  0.21416114668E+02  0.35026788724E+03  0.38296589508E+03  0.12509000000E+03 0.  0.
         25    1    4    4    0    0 -0.12383423997E+02  0.16769255371E+02  0.21833798679E+03  0.25249463696E+03  0.12509000000E+03 0.  0.
         25    1    4    4    0    0 -0.76324669725E+02 -0.38185370039E+02  0.24296368734E+03  0.28629082968E+03  0.12509000000E+03 0.  0.
<mgrwt>
<rscale>  2 0.43701307E+03</rscale>
<asrwt>0</asrwt>
<pdfrwt beam="1">  1       21 0.12745006E+00 0.43701307E+03</pdfrwt>
<pdfrwt beam="2">  1       21 0.81016035E-02 0.43701307E+03</pdfrwt>
<totfact> 0.48821941E+04</totfact>
</mgrwt>
</event>
<event>
 7    0  0.4691878E-002  0.4547392E+03  0.7546771E-02  0.1026318E+00
         21   -1    0    0  502  501  0.00000000000E+00  0.00000000000E+00  0.48108130070E+03  0.48108130070E+03  0.00000000000E+00 0.  1.
         21   -1    0    0  501  502 -0.00000000000E+00 -0.00000000000E+00 -0.10745986498E+03  0.10745986498E+03  0.00000000000E+00 0.  1.
      99926    2    1    2    0    0  0.00000000000E+00 -0.17763568394E-14  0.37362143572E+03  0.58854116569E+03  0.45473918512E+03 0.  0.
      99925    2    3    3    0    0  0.51252890857E+02  0.10036870775E+02  0.36472572716E+03  0.45269478433E+03  0.26302112864E+03 0.  0.
         25    1    4    4    0    0  0.91456608880E+01 -0.18973701461E+02  0.12861340649E+03  0.18064484739E+03  0.12509000000E+03 0.  0.
         25    1    4    4    0    0  0.42107229969E+02  0.29010572236E+02  0.23611232067E+03  0.27204993694E+03  0.12509000000E+03 0.  0.
         25    1    3    3    0    0 -0.51252890857E+02 -0.10036870775E+02  0.88957085564E+01  0.13584638135E+03  0.12509000000E+03 0.  0.
<mgrwt>
<rscale>  2 0.45473919E+03</rscale>
<asrwt>0</asrwt>
<pdfrwt beam="1">  1       21 0.70747249E-01 0.45473919E+03</pdfrwt>
<pdfrwt beam="2">  1       21 0.15802922E-01 0.45473919E+03</pdfrwt>
<totfact> 0.59511774E+04</totfact>
</mgrwt>
</event>
<event>
 7    0  0.4691878E-002  0.4543088E+03  0.7546771E-02  0.1026445E+00
         21   -1    0    0  502  501  0.00000000000E+00  0.00000000000E+00  0.20745413603E+03  0.20745413603E+03  0.00000000000E+00 0.  1.
         21   -1    0    0  501  502 -0.00000000000E+00 -0.00000000000E+00 -0.24872542818E+03  0.24872542818E+03  0.00000000000E+00 0.  1.
      99926    2    1    2    0    0  0.00000000000E+00  0.00000000000E+00 -0.41271292152E+02  0.45617956421E+03  0.45430878843E+03 0.  0.
      99925    2    3    3    0    0 -0.18896462444E+02 -0.16571510731E+02  0.84183900754E+02  0.27724324932E+03  0.26295474684E+03 0.  0.
         25    1    4    4    0    0 -0.30169217467E+02 -0.43822255070E+01  0.61934605038E+01  0.12890016538E+03  0.12509000000E+03 0.  0.
         25    1    4    4    0    0  0.11272755022E+02 -0.12189285224E+02  0.77990440250E+02  0.14834308393E+03  0.12509000000E+03 0.  0.
         25    1    3    3    0    0  0.18896462444E+02  0.16571510731E+02 -0.12545519291E+03  0.17893631489E+03  0.12509000000E+03 0.  0.
<mgrwt>
<rscale>  2 0.45430879E+03</rscale>
<asrwt>0</asrwt>
<pdfrwt beam="1">  1       21 0.30507961E-01 0.45430879E+03</pdfrwt>
<pdfrwt beam="2">  1       21 0.36577269E-01 0.45430879E+03</pdfrwt>
<totfact> 0.68838337E+04</totfact>
</mgrwt>
</event>
<event>
 7    0  0.4691878E-002  0.4318048E+03  0.7546771E-02  0.1033291E+00
         21   -1    0    0  502  501  0.00000000000E+00  0.00000000000E+00  0.63174524968E+02  0.63174524968E+02  0.00000000000E+00 0. -1.
         21   -1    0    0  501  502 -0.00000000000E+00 -0.00000000000E+00 -0.73785836165E+03  0.73785836165E+03  0.00000000000E+00 0. -1.
      99926    2    1    2    0    0  0.00000000000E+00  0.35527136788E-14 -0.67468383668E+03  0.80103288661E+03  0.43180482392E+03 0.  0.
      99925    2    3    3    0    0 -0.58806737612E+01 -0.30892297880E+02 -0.58988420740E+03  0.64667161680E+03  0.26311952692E+03 0.  0.
         25    1    3    3    0    0  0.58806737612E+01  0.30892297880E+02 -0.84799629275E+02  0.15436126981E+03  0.12509000000E+03 0.  0.
         25    1    4    4    0    0  0.71945966645E+01 -0.19342281169E+02 -0.19960513183E+03  0.23646480248E+03  0.12509000000E+03 0.  0.
         25    1    4    4    0    0 -0.13075270426E+02 -0.11550016711E+02 -0.39027907558E+03  0.41020681432E+03  0.12509000000E+03 0.  0.
<mgrwt>
<rscale>  2 0.43180482E+03</rscale>
<asrwt>0</asrwt>
<pdfrwt beam="1">  1       21 0.92903717E-02 0.43180482E+03</pdfrwt>
<pdfrwt beam="2">  1       21 0.10850858E+00 0.43180482E+03</pdfrwt>
<totfact> 0.57486641E+04</totfact>
</mgrwt>
</event>
<event>
 7    0  0.4691878E-002  0.4158536E+03  0.7546771E-02  0.1038424E+00
         21   -1    0    0  502  501  0.00000000000E+00  0.00000000000E+00  0.41198566513E+03  0.41198566513E+03  0.00000000000E+00 0.  1.
         21   -1    0    0  501  502 -0.00000000000E+00 -0.00000000000E+00 -0.10493943720E+03  0.10493943720E+03  0.00000000000E+00 0.  1.
      99926    2    1    2    0    0  0.00000000000E+00  0.00000000000E+00  0.30704622793E+03  0.51692510234E+03  0.41585355035E+03 0.  0.
      99925    2    3    3    0    0  0.54958030844E+02  0.30377087119E+02  0.24183130785E+03  0.36251122188E+03  0.26265728994E+03 0.  0.
         25    1    4    4    0    0 -0.19296983778E+01  0.10537132592E+02  0.78190652053E+02  0.14790551399E+03  0.12509000000E+03 0.  0.
         25    1    4    4    0    0  0.56887729222E+02  0.19839954527E+02  0.16364065580E+03  0.21460570789E+03  0.12509000000E+03 0.  0.
         25    1    3    3    0    0 -0.54958030844E+02 -0.30377087119E+02  0.65214920081E+02  0.15441388046E+03  0.12509000000E+03 0.  0.
<mgrwt>
<rscale>  2 0.41585355E+03</rscale>
<asrwt>0</asrwt>
<pdfrwt beam="1">  1       21 0.60586127E-01 0.41585355E+03</pdfrwt>
<pdfrwt beam="2">  1       21 0.15432270E-01 0.41585355E+03</pdfrwt>
<totfact> 0.88517280E+04</totfact>
</mgrwt>
</event>
<event>
 7    0  0.4691878E-002  0.4588306E+03  0.7546771E-02  0.1025121E+00
         21   -1    0    0  502  501  0.00000000000E+00  0.00000000000E+00  0.78635882148E+02  0.78635882148E+02  0.00000000000E+00 0.  1.
         21   -1    0    0  501  502 -0.00000000000E+00 -0.00000000000E+00 -0.66930493694E+03  0.66930493694E+03  0.00000000000E+00 0.  1.
      99926    2    1    2    0    0  0.17763568394E-14  0.00000000000E+00 -0.59066905479E+03  0.74794081909E+03  0.45883061861E+03 0.  0.
      99925    2    3    3    0    0  0.81314381059E+01 -0.60420030386E+02 -0.20601774238E+03  0.33889211710E+03  0.26208368225E+03 0.  0.
         25    1    4    4    0    0 -0.17301395961E+02 -0.52953102892E+02 -0.13650787419E+03  0.19335272748E+03  0.12509000000E+03 0.  0.
         25    1    4    4    0    0  0.25432834067E+02 -0.74669274942E+01 -0.69509868185E+02  0.14553938962E+03  0.12509000000E+03 0.  0.
         25    1    3    3    0    0 -0.81314381059E+01  0.60420030386E+02 -0.38465131242E+03  0.40904870199E+03  0.12509000000E+03 0.  0.
<mgrwt>
<rscale>  2 0.45883062E+03</rscale>
<asrwt>0</asrwt>
<pdfrwt beam="1">  1       21 0.11564101E-01 0.45883062E+03</pdfrwt>
<pdfrwt beam="2">  1       21 0.98427188E-01 0.45883062E+03</pdfrwt>
<totfact> 0.48887526E+04</totfact>
</mgrwt>
</event>
<event>
 7    0  0.4691878E-002  0.4559398E+03  0.7546771E-02  0.1025965E+00
         21   -1    0    0  502  501  0.00000000000E+00  0.00000000000E+00  0.73536955795E+03  0.73536955795E+03  0.00000000000E+00 0. -1.
         21   -1    0    0  501  502 -0.00000000000E+00 -0.00000000000E+00 -0.70672332332E+02  0.70672332332E+02  0.00000000000E+00 0. -1.
      99926    2    1    2    0    0  0.00000000000E+00  0.00000000000E+00  0.66469722562E+03  0.80604189029E+03  0.45593982843E+03 0.  0.
      99925    2    3    3    0    0 -0.10658586087E+03  0.32161201398E+02  0.46162261346E+03  0.54282772878E+03  0.26300497573E+03 0.  0.
         25    1    3    3    0    0  0.10658586087E+03 -0.32161201398E+02  0.20307461216E+03  0.26321416151E+03  0.12509000000E+03 0.  0.
         25    1    4    4    0    0 -0.59377462207E+02  0.37025224723E+02  0.30389105274E+03  0.33599677129E+03  0.12509000000E+03 0.  0.
         25    1    4    4    0    0 -0.47208398664E+02 -0.48640233250E+01  0.15773156072E+03  0.20683095748E+03  0.12509000000E+03 0.  0.
<mgrwt>
<rscale>  2 0.45593983E+03</rscale>
<asrwt>0</asrwt>
<pdfrwt beam="1">  1       21 0.10814258E+00 0.45593983E+03</pdfrwt>
<pdfrwt beam="2">  1       21 0.10392990E-01 0.45593983E+03</pdfrwt>
<totfact> 0.47125432E+04</totfact>
</mgrwt>
</event>
<event>
 7    0  0.4691878E-002  0.4582579E+03  0.7546771E-02  0.1025288E+00
         21   -1    0    0  502  501  0.00000000000E+00  0.00000000000E+00  0.75337141546E+02  0.75337141546E+02  0.00000000000E+00 0.  1.
         21   -1    0    0  501  502 -0.00000000000E+00 -0.00000000000E+00 -0.69686830707E+03  0.69686830707E+03  0.00000000000E+00 0.  1.
      99926    2    1    2    0    0  0.00000000000E+00 -0.71054273576E-14 -0.62153116552E+03  0.77220544861E+03  0.45825785880E+03 0.  0.
      99925    2    3    3    0    0  0.40547656335E+02  0.40973107645E+02 -0.22066469236E+03  0.34833713724E+03  0.26329251174E+03 0.  0.
         25    1    4    4    0    0  0.36253067703E+02  0.63890091902E+01 -0.15585745830E+03  0.20320964486E+03  0.12509000000E+03 0.  0.
         25    1    3    3    0    0 -0.40547656335E+02 -0.40973107645E+02 -0.40086647316E+03  0.42386831138E+03  0.12509000000E+03 0.  0.
         25    1    4    4    0    0  0.42945886319E+01  0.34584098454E+02 -0.64807234061E+02  0.14512749238E+03  0.12509000000E+03 0.  0.
<mgrwt>
<rscale>  2 0.45825786E+03</rscale>
<asrwt>0</asrwt>
<pdfrwt beam="1">  1       21 0.11078992E-01 0.45825786E+03</pdfrwt>
<pdfrwt beam="2">  1       21 0.10248063E+00 0.45825786E+03</pdfrwt>
<totfact> 0.47901740E+04</totfact>
</mgrwt>
</event>
<event>
 7    0  0.4691878E-002  0.4532512E+03  0.7546771E-02  0.1026757E+00
         21   -1    0    0  502  501  0.00000000000E+00  0.00000000000E+00  0.77423255016E+03  0.77423255016E+03  0.00000000000E+00 0.  1.
         21   -1    0    0  501  502 -0.00000000000E+00 -0.00000000000E+00 -0.66335564830E+02  0.66335564830E+02  0.00000000000E+00 0.  1.
      99926    2    1    2    0    0 -0.71054273576E-14  0.00000000000E+00  0.70789698533E+03  0.84056811499E+03  0.45325116006E+03 0.  0.
      99925    2    3    3    0    0 -0.38535242406E+02  0.99085010794E+02  0.50597832959E+03  0.58033465075E+03  0.26357433977E+03 0.  0.
         25    1    4    4    0    0  0.59278045253E+01  0.54082608402E+02  0.31646526251E+03  0.34461259099E+03  0.12509000000E+03 0.  0.
         25    1    4    4    0    0 -0.44463046931E+02  0.45002402392E+02  0.18951306708E+03  0.23572205976E+03  0.12509000000E+03 0.  0.
         25    1    3    3    0    0  0.38535242406E+02 -0.99085010794E+02  0.20191865574E+03  0.26023346424E+03  0.12509000000E+03 0.  0.
<mgrwt>
<rscale>  2 0.45325116E+03</rscale>
<asrwt>0</asrwt>
<pdfrwt beam="1">  1       21 0.11385772E+00 0.45325116E+03</pdfrwt>
<pdfrwt beam="2">  1       21 0.97552306E-02 0.45325116E+03</pdfrwt>
<totfact> 0.46498991E+04</totfact>
</mgrwt>
</event>
<event>
 7    0  0.4691878E-002  0.4541754E+03  0.7546771E-02  0.1026484E+00
         21   -1    0    0  502  501  0.00000000000E+00  0.00000000000E+00  0.93939259297E+03  0.93939259297E+03  0.00000000000E+00 0. -1.
         21   -1    0    0  501  502 -0.00000000000E+00 -0.00000000000E+00 -0.54895933011E+02  0.54895933011E+02  0.00000000000E+00 0. -1.
      99926    2    1    2    0    0  0.00000000000E+00  0.00000000000E+00  0.88449665996E+03  0.99428852598E+03  0.45417544123E+03 0.  0.
      99925    2    3    3    0    0 -0.78714616968E+02  0.67268563637E+02  0.46259360325E+03  0.54221469579E+03  0.26321642044E+03 0.  0.
         25    1    4    4    0    0 -0.42661996435E+02  0.60327595587E+02  0.30388159919E+03  0.33682487907E+03  0.12509000000E+03 0.  0.
         25    1    4    4    0    0 -0.36052620533E+02  0.69409680503E+01  0.15871200405E+03  0.20538981673E+03  0.12509000000E+03 0.  0.
         25    1    3    3    0    0  0.78714616968E+02 -0.67268563637E+02  0.42190305672E+03  0.45207383019E+03  0.12509000000E+03 0.  0.
<mgrwt>
<rscale>  2 0.45417544E+03</rscale>
<asrwt>0</asrwt>
<pdfrwt beam="1">  1       21 0.13814596E+00 0.45417544E+03</pdfrwt>
<pdfrwt beam="2">  1       21 0.80729319E-02 0.45417544E+03</pdfrwt>
<totfact> 0.39644369E+04</totfact>
</mgrwt>
</event>
<event>
 7    0  0.4691878E-002  0.4569141E+03  0.7546771E-02  0.1025680E+00
         21   -1    0    0  502  501  0.00000000000E+00  0.00000000000E+00  0.14833386588E+03  0.14833386588E+03  0.00000000000E+00 0.  1.
         21   -1    0    0  501  502 -0.00000000000E+00 -0.00000000000E+00 -0.35185917066E+03  0.35185917066E+03  0.00000000000E+00 0.  1.
      99926    2    1    2    0    0  0.00000000000E+00  0.00000000000E+00 -0.20352530478E+03  0.50019303654E+03  0.45691413211E+03 0.  0.
      99925    2    3    3    0    0  0.39282824634E+02  0.94261080835E+02 -0.18543219893E+03  0.33770254374E+03  0.26311521426E+03 0.  0.
         25    1    4    4    0    0 -0.10314107128E+02  0.73970988498E+02 -0.86209050190E+02  0.16928554687E+03  0.12509000000E+03 0.  0.
         25    1    3    3    0    0 -0.39282824634E+02 -0.94261080835E+02 -0.18093105845E+02  0.16249049280E+03  0.12509000000E+03 0.  0.
         25    1    4    4    0    0  0.49596931762E+02  0.20290092337E+02 -0.99223148744E+02  0.16841699687E+03  0.12509000000E+03 0.  0.
<mgrwt>
<rscale>  2 0.45691413E+03</rscale>
<asrwt>0</asrwt>
<pdfrwt beam="1">  1       21 0.21813804E-01 0.45691413E+03</pdfrwt>
<pdfrwt beam="2">  1       21 0.51743995E-01 0.45691413E+03</pdfrwt>
<totfact> 0.64274899E+04</totfact>
</mgrwt>
</event>
<event>
 7    0  0.4691878E-002  0.4780614E+03  0.7546771E-02  0.1019669E+00
         21   -1    0    0  502  501  0.00000000000E+00  0.00000000000E+00  0.36241261196E+02  0.36241261196E+02  0.00000000000E+00 0.  1.
         21   -1    0    0  501  502 -0.00000000000E+00 -0.00000000000E+00 -0.15765366886E+04  0.15765366886E+04  0.00000000000E+00 0.  1.
      99926    2    1    2    0    0  0.88817841970E-15  0.00000000000E+00 -0.15402954274E+04  0.16127779498E+04  0.47806140994E+03 0.  0.
      99925    2    3    3    0    0  0.29320343741E+01  0.69274773013E+02 -0.56441679524E+03  0.62647464766E+03  0.26286227269E+03 0.  0.
         25    1    3    3    0    0 -0.29320343741E+01 -0.69274773013E+02 -0.97587863219E+03  0.98630330217E+03  0.12509000000E+03 0.  0.
         25    1    4    4    0    0  0.15906322817E+02  0.36901132828E+01 -0.21360201245E+03  0.24807248107E+03  0.12509000000E+03 0.  0.
         25    1    4    4    0    0 -0.12974288443E+02  0.65584659730E+02 -0.35081478280E+03  0.37840216659E+03  0.12509000000E+03 0.  0.
<mgrwt>
<rscale>  2 0.47806141E+03</rscale>
<asrwt>0</asrwt>
<pdfrwt beam="1">  1       21 0.53295969E-02 0.47806141E+03</pdfrwt>
<pdfrwt beam="2">  1       21 0.23184365E+00 0.47806141E+03</pdfrwt>
<totfact> 0.17745903E+04</totfact>
</mgrwt>
</event>
<event>
 7    0  0.4691878E-002  0.4504251E+03  0.7546771E-02  0.1027595E+00
         21   -1    0    0  502  501  0.00000000000E+00  0.00000000000E+00  0.64632963663E+03  0.64632963663E+03  0.00000000000E+00 0. -1.
         21   -1    0    0  501  502 -0.00000000000E+00 -0.00000000000E+00 -0.78474970776E+02  0.78474970776E+02  0.00000000000E+00 0. -1.
      99926    2    1    2    0    0  0.14210854715E-13  0.00000000000E+00  0.56785466586E+03  0.72480460741E+03  0.45042512961E+03 0.  0.
      99925    2    3    3    0    0  0.10262533470E+03  0.12818216965E+02  0.41360556440E+03  0.50089266175E+03  0.26292133745E+03 0.  0.
         25    1    4    4    0    0  0.14033692970E+02  0.12140895043E+02  0.15242935996E+03  0.19805697097E+03  0.12509000000E+03 0.  0.
         25    1    3    3    0    0 -0.10262533470E+03 -0.12818216965E+02  0.15424910146E+03  0.22391194566E+03  0.12509000000E+03 0.  0.
         25    1    4    4    0    0  0.88591641725E+02  0.67732192227E+00  0.26117620443E+03  0.30283569078E+03  0.12509000000E+03 0.  0.
<mgrwt>
<rscale>  2 0.45042513E+03</rscale>
<asrwt>0</asrwt>
<pdfrwt beam="1">  1       21 0.95048473E-01 0.45042513E+03</pdfrwt>
<pdfrwt beam="2">  1       21 0.11540437E-01 0.45042513E+03</pdfrwt>
<totfact> 0.53475051E+04</totfact>
</mgrwt>
</event>
<event>
 6    0  0.4691878E-002  0.4563406E+03  0.7546771E-02  0.1025848E+00
         21   -1    0    0  502  501  0.00000000000E+00  0.00000000000E+00  0.28437479486E+04  0.28437479486E+04  0.00000000000E+00 0.  1.
         21   -1    0    0  501  502 -0.00000000000E+00 -0.00000000000E+00 -0.18307418196E+02  0.18307418196E+02  0.00000000000E+00 0.  1.
      99926    2    1    2    0    0  0.00000000000E+00  0.14210854715E-13  0.28254405304E+04  0.28620553668E+04  0.45634058746E+03 0.  0.
         25    1    3    3    0    0  0.23804077661E+02  0.70202956800E+01  0.77351035047E+03  0.78395260638E+03  0.12509000000E+03 0.  0.
         25    1    3    3    0    0  0.59445596728E+02 -0.73150152772E+02  0.77552687112E+03  0.79118528787E+03  0.12509000000E+03 0.  0.
         25    1    3    3    0    0 -0.83249674389E+02  0.66129857092E+02  0.12764033089E+04  0.12869174726E+04  0.12509000000E+03 0.  0.
<mgrwt>
<rscale>  2 0.45634059E+03</rscale>
<asrwt>0</asrwt>
<pdfrwt beam="1">  1       21 0.41819792E+00 0.45634059E+03</pdfrwt>
<pdfrwt beam="2">  1       21 0.26922694E-02 0.45634059E+03</pdfrwt>
<totfact> 0.40490708E+03</totfact>
</mgrwt>
</event>
<event>
 7    0  0.4691878E-002  0.4529325E+03  0.7546771E-02  0.1026851E+00
         21   -1    0    0  502  501  0.00000000000E+00  0.00000000000E+00  0.57037361006E+02  0.57037361006E+02  0.00000000000E+00 0. -1.
         21   -1    0    0  501  502 -0.00000000000E+00 -0.00000000000E+00 -0.89918201173E+03  0.89918201173E+03  0.00000000000E+00 0. -1.
      99926    2    1    2    0    0  0.00000000000E+00  0.00000000000E+00 -0.84214465073E+03  0.95621937274E+03  0.45293252925E+03 0.  0.
      99925    2    3    3    0    0 -0.76340724909E+02 -0.66303418703E+02 -0.62655855374E+03  0.68724182177E+03  0.26363165727E+03 0.  0.
         25    1    4    4    0    0 -0.33510843163E+02 -0.73692046755E+02 -0.35945549115E+03  0.38911341866E+03  0.12509000000E+03 0.  0.
         25    1    3    3    0    0  0.76340724909E+02  0.66303418703E+02 -0.21558609699E+03  0.26897755097E+03  0.12509000000E+03 0.  0.
         25    1    4    4    0    0 -0.42829881746E+02  0.73886280525E+01 -0.26710306259E+03  0.29812840310E+03  0.12509000000E+03 0.  0.
<mgrwt>
<rscale>  2 0.45293253E+03</rscale>
<asrwt>0</asrwt>
<pdfrwt beam="1">  1       21 0.83878475E-02 0.45293253E+03</pdfrwt>
<pdfrwt beam="2">  1       21 0.13223264E+00 0.45293253E+03</pdfrwt>
<totfact> 0.41557771E+04</totfact>
</mgrwt>
</event>
<event>
 7    0  0.4691878E-002  0.4540165E+03  0.7546771E-02  0.1026531E+00
         21   -1    0    0  502  501  0.00000000000E+00  0.00000000000E+00  0.11459391364E+03  0.11459391364E+03  0.00000000000E+00 0.  1.
         21   -1    0    0  501  502 -0.00000000000E+00 -0.00000000000E+00 -0.44969888564E+03  0.44969888564E+03  0.00000000000E+00 0.  1.
      99926    2    1    2    0    0 -0.71054273576E-14  0.00000000000E+00 -0.33510497200E+03  0.56429279928E+03  0.45401654272E+03 0.  0.
      99925    2    3    3    0    0  0.61871837823E+02 -0.28347290882E+02 -0.10017761700E+03  0.28957464654E+03  0.26303275035E+03 0.  0.
         25    1    4    4    0    0  0.23952070118E+02  0.13700516563E+02 -0.79385276484E+02  0.15070147988E+03  0.12509000000E+03 0.  0.
         25    1    4    4    0    0  0.37919767706E+02 -0.42047807444E+02 -0.20792340514E+02  0.13887316666E+03  0.12509000000E+03 0.  0.
         25    1    3    3    0    0 -0.61871837823E+02  0.28347290882E+02 -0.23492735501E+03  0.27471815274E+03  0.12509000000E+03 0.  0.
<mgrwt>
<rscale>  2 0.45401654E+03</rscale>
<asrwt>0</asrwt>
<pdfrwt beam="1">  1       21 0.16852046E-01 0.45401654E+03</pdfrwt>
<pdfrwt beam="2">  1       21 0.66132190E-01 0.45401654E+03</pdfrwt>
<totfact> 0.61408045E+04</totfact>
</mgrwt>
</event>
<event>
 7    0  0.4691878E-002  0.4577190E+03  0.7546771E-02  0.1025445E+00
         21   -1    0    0  502  501  0.00000000000E+00  0.00000000000E+00  0.11625273020E+04  0.11625273020E+04  0.00000000000E+00 0. -1.
         21   -1    0    0  501  502 -0.00000000000E+00 -0.00000000000E+00 -0.45054140712E+02  0.45054140712E+02  0.00000000000E+00 0. -1.
      99926    2    1    2    0    0  0.22204460493E-14 -0.35527136788E-14  0.11174731613E+04  0.12075814427E+04  0.45771899085E+03 0.  0.
      99925    2    3    3    0    0 -0.24799183161E+01 -0.29157103808E+02  0.99689033942E+03  0.10313883335E+04  0.26289781096E+03 0.  0.
         25    1    4    4    0    0  0.32689317609E+02 -0.35878390163E+02  0.52764449574E+03  0.54443739066E+03  0.12509000000E+03 0.  0.
         25    1    4    4    0    0 -0.35169235925E+02  0.67212863550E+01  0.46924584368E+03  0.48695094287E+03  0.12509000000E+03 0.  0.
         25    1    3    3    0    0  0.24799183161E+01  0.29157103808E+02  0.12058282189E+03  0.17619310921E+03  0.12509000000E+03 0.  0.
<mgrwt>
<rscale>  2 0.45771899E+03</rscale>
<asrwt>0</asrwt>
<pdfrwt beam="1">  1       21 0.17095988E+00 0.45771899E+03</pdfrwt>
<pdfrwt beam="2">  1       21 0.66256097E-02 0.45771899E+03</pdfrwt>
<totfact> 0.31249479E+04</totfact>
</mgrwt>
</event>
<event>
 7    0  0.4691878E-002  0.4532767E+03  0.7546771E-02  0.1026749E+00
         21   -1    0    0  502  501  0.00000000000E+00  0.00000000000E+00  0.86475381900E+02  0.86475381900E+02  0.00000000000E+00 0. -1.
         21   -1    0    0  501  502 -0.00000000000E+00 -0.00000000000E+00 -0.59398329959E+03  0.59398329959E+03  0.00000000000E+00 0. -1.
      99926    2    1    2    0    0  0.00000000000E+00  0.00000000000E+00 -0.50750791769E+03  0.68045868149E+03  0.45327666021E+03 0.  0.
      99925    2    3    3    0    0  0.15446366120E+02 -0.38071830316E+02 -0.16410753218E+03  0.31268240797E+03  0.26296568531E+03 0.  0.
         25    1    4    4    0    0  0.16435173349E+02 -0.37948678092E+02 -0.12501654456E+03  0.18162285541E+03  0.12509000000E+03 0.  0.
         25    1    3    3    0    0 -0.15446366120E+02  0.38071830316E+02 -0.34340038551E+03  0.36777627351E+03  0.12509000000E+03 0.  0.
         25    1    4    4    0    0 -0.98880722915E+00 -0.12315222419E+00 -0.39090987613E+02  0.13105955257E+03  0.12509000000E+03 0.  0.
<mgrwt>
<rscale>  2 0.45327666E+03</rscale>
<asrwt>0</asrwt>
<pdfrwt beam="1">  1       21 0.12716968E-01 0.45327666E+03</pdfrwt>
<pdfrwt beam="2">  1       21 0.87350484E-01 0.45327666E+03</pdfrwt>
<totfact> 0.54715926E+04</totfact>
</mgrwt>
</event>
<event>
 7    0  0.4691878E-002  0.4549659E+03  0.7546771E-02  0.1026251E+00
         21   -1    0    0  502  501  0.00000000000E+00  0.00000000000E+00  0.74631497324E+03  0.74631497324E+03  0.00000000000E+00 0. -1.
         21   -1    0    0  501  502 -0.00000000000E+00 -0.00000000000E+00 -0.69338681692E+02  0.69338681692E+02  0.00000000000E+00 0. -1.
      99926    2    1    2    0    0  0.00000000000E+00  0.00000000000E+00  0.67697629155E+03  0.81565365493E+03  0.45496591684E+03 0.  0.
      99925    2    3    3    0    0 -0.72104494144E+02 -0.80193800944E+02  0.48725268333E+03  0.56411308286E+03  0.26301765920E+03 0.  0.
         25    1    4    4    0    0 -0.29404850578E+02 -0.50335610426E+02  0.32253111894E+03  0.35081640455E+03  0.12509000000E+03 0.  0.
         25    1    4    4    0    0 -0.42699643566E+02 -0.29858190518E+02  0.16472156439E+03  0.21329667831E+03  0.12509000000E+03 0.  0.
         25    1    3    3    0    0  0.72104494144E+02  0.80193800944E+02  0.18972360821E+03  0.25154057207E+03  0.12509000000E+03 0.  0.
<mgrwt>
<rscale>  2 0.45496592E+03</rscale>
<asrwt>0</asrwt>
<pdfrwt beam="1">  1       21 0.10975220E+00 0.45496592E+03</pdfrwt>
<pdfrwt beam="2">  1       21 0.10196865E-01 0.45496592E+03</pdfrwt>
<totfact> 0.47029546E+04</totfact>
</mgrwt>
</event>
<event>
 7    0  0.4691878E-002  0.4608661E+03  0.7546771E-02  0.1024530E+00
         21   -1    0    0  502  501  0.00000000000E+00  0.00000000000E+00  0.78542410419E+02  0.78542410419E+02  0.00000000000E+00 0.  1.
         21   -1    0    0  501  502 -0.00000000000E+00 -0.00000000000E+00 -0.67606006112E+03  0.67606006112E+03  0.00000000000E+00 0.  1.
      99926    2    1    2    0    0 -0.44408920985E-14  0.00000000000E+00 -0.59751765070E+03  0.75460247154E+03  0.46086608375E+03 0.  0.
      99925    2    3    3    0    0 -0.50313403557E+01  0.10837830780E+03 -0.45198441201E+03  0.53415156169E+03  0.26316688654E+03 0.  0.
         25    1    3    3    0    0  0.50313403557E+01 -0.10837830780E+03 -0.14553323869E+03  0.22045090985E+03  0.12509000000E+03 0.  0.
         25    1    4    4    0    0 -0.37781928175E+02  0.32252764763E+02 -0.21141270310E+03  0.25062033849E+03  0.12509000000E+03 0.  0.
         25    1    4    4    0    0  0.32750587819E+02  0.76125543039E+02 -0.24057170891E+03  0.28353122321E+03  0.12509000000E+03 0.  0.
<mgrwt>
<rscale>  2 0.46086608E+03</rscale>
<asrwt>0</asrwt>
<pdfrwt beam="1">  1       21 0.11550354E-01 0.46086608E+03</pdfrwt>
<pdfrwt beam="2">  1       21 0.99420597E-01 0.46086608E+03</pdfrwt>
<totfact> 0.47794950E+04</totfact>
</mgrwt>
</event>
<event>
 7    0  0.4691878E-002  0.4535101E+03  0.7546771E-02  0.1026680E+00
         21   -1    0    0  502  501  0.00000000000E+00  0.00000000000E+00  0.74205242354E+02  0.74205242354E+02  0.00000000000E+00 0. -1.
         21   -1    0    0  501  502 -0.00000000000E+00 -0.00000000000E+00 -0.69291415063E+03  0.69291415063E+03  0.00000000000E+00 0. -1.
      99926    2    1    2    0    0  0.71054273576E-14  0.00000000000E+00 -0.61870890827E+03  0.76711939298E+03  0.45351014312E+03 0.  0.
      99925    2    3    3    0    0  0.54159482036E+02 -0.77113445814E+02 -0.28812838187E+03  0.40131790917E+03  0.26297978394E+03 0.  0.
         25    1    4    4    0    0  0.36757881654E+01 -0.49027271725E+01 -0.14756890862E+03  0.19355009440E+03  0.12509000000E+03 0.  0.
         25    1    3    3    0    0 -0.54159482036E+02  0.77113445814E+02 -0.33058052640E+03  0.36580148381E+03  0.12509000000E+03 0.  0.
         25    1    4    4    0    0  0.50483693871E+02 -0.72210718641E+02 -0.14055947325E+03  0.20776781477E+03  0.12509000000E+03 0.  0.
<mgrwt>
<rscale>  2 0.45351014E+03</rscale>
<asrwt>0</asrwt>
<pdfrwt beam="1">  1       21 0.10912536E-01 0.45351014E+03</pdfrwt>
<pdfrwt beam="2">  1       21 0.10189914E+00 0.45351014E+03</pdfrwt>
<totfact> 0.49978188E+04</totfact>
</mgrwt>
</event>
<event>
 7    0  0.4691878E-002  0.4469863E+03  0.7546771E-02  0.1028625E+00
         21   -1    0    0  502  501  0.00000000000E+00  0.00000000000E+00  0.44217607319E+03  0.44217607319E+03  0.00000000000E+00 0.  1.
         21   -1    0    0  501  502 -0.00000000000E+00 -0.00000000000E+00 -0.11296223694E+03  0.11296223694E+03  0.00000000000E+00 0.  1.
      99926    2    1    2    0    0 -0.71054273576E-14  0.00000000000E+00  0.32921383625E+03  0.55513831013E+03  0.44698634587E+03 0.  0.
      99925    2    3    3    0    0 -0.33864110300E+02  0.89558350921E+02  0.15360269562E+03  0.31922676527E+03  0.26295334829E+03 0.  0.
         25    1    4    4    0    0 -0.45795541586E+02  0.28722229595E+02  0.49135788546E+02  0.14485866187E+03  0.12509000000E+03 0.  0.
         25    1    4    4    0    0  0.11931431286E+02  0.60836121325E+02  0.10446690708E+03  0.17436810340E+03  0.12509000000E+03 0.  0.
         25    1    3    3    0    0  0.33864110300E+02 -0.89558350921E+02  0.17561114063E+03  0.23591154486E+03  0.12509000000E+03 0.  0.
<mgrwt>
<rscale>  2 0.44698635E+03</rscale>
<asrwt>0</asrwt>
<pdfrwt beam="1">  1       21 0.65025893E-01 0.44698635E+03</pdfrwt>
<pdfrwt beam="2">  1       21 0.16612094E-01 0.44698635E+03</pdfrwt>
<totfact> 0.65588306E+04</totfact>
</mgrwt>
</event>
<event>
 7    0  0.4691878E-002  0.4601861E+03  0.7546771E-02  0.1024727E+00
         21   -1    0    0  502  501  0.00000000000E+00  0.00000000000E+00  0.59211662961E+02  0.59211662961E+02  0.00000000000E+00 0.  1.
         21   -1    0    0  501  502 -0.00000000000E+00 -0.00000000000E+00 -0.89412828342E+03  0.89412828342E+03  0.00000000000E+00 0.  1.
      99926    2    1    2    0    0 -0.14210854715E-13  0.00000000000E+00 -0.83491662046E+03  0.95333994638E+03  0.46018614739E+03 0.  0.
      99925    2    3    3    0    0  0.71985744880E+02  0.76667160934E+02 -0.63418675079E+03  0.69449677048E+03  0.26281767121E+03 0.  0.
         25    1    3    3    0    0 -0.71985744880E+02 -0.76667160934E+02 -0.20072986967E+03  0.25884317590E+03  0.12509000000E+03 0.  0.
         25    1    4    4    0    0  0.62831668064E+02  0.13218588792E+02 -0.35743498522E+03  0.38409611605E+03  0.12509000000E+03 0.  0.
         25    1    4    4    0    0  0.91540768165E+01  0.63448572142E+02 -0.27675176557E+03  0.31040065444E+03  0.12509000000E+03 0.  0.
<mgrwt>
<rscale>  2 0.46018615E+03</rscale>
<asrwt>0</asrwt>
<pdfrwt beam="1">  1       21 0.87075977E-02 0.46018615E+03</pdfrwt>
<pdfrwt beam="2">  1       21 0.13148945E+00 0.46018615E+03</pdfrwt>
<totfact> 0.39384273E+04</totfact>
</mgrwt>
</event>
<event>
 7    0  0.4691878E-002  0.4536994E+03  0.7546771E-02  0.1026625E+00
         21   -1    0    0  502  501  0.00000000000E+00  0.00000000000E+00  0.40738757784E+02  0.40738757784E+02  0.00000000000E+00 0. -1.
         21   -1    0    0  501  502 -0.00000000000E+00 -0.00000000000E+00 -0.12631898379E+04  0.12631898379E+04  0.00000000000E+00 0. -1.
      99926    2    1    2    0    0  0.00000000000E+00  0.00000000000E+00 -0.12224510802E+04  0.13039285957E+04  0.45369939318E+03 0.  0.
      99925    2    3    3    0    0  0.84271663511E+02 -0.50969716104E+02 -0.61531298172E+03  0.67626323591E+03  0.26272090428E+03 0.  0.
         25    1    4    4    0    0  0.82929038725E+02 -0.37481016075E+02 -0.34626632383E+03  0.37924916235E+03  0.12509000000E+03 0.  0.
         25    1    4    4    0    0  0.13426247857E+01 -0.13488700029E+02 -0.26904665789E+03  0.29701407356E+03  0.12509000000E+03 0.  0.
         25    1    3    3    0    0 -0.84271663511E+02  0.50969716104E+02 -0.60713809844E+03  0.62766535982E+03  0.12509000000E+03 0.  0.
<mgrwt>
<rscale>  2 0.45369939E+03</rscale>
<asrwt>0</asrwt>
<pdfrwt beam="1">  1       21 0.59909939E-02 0.45369939E+03</pdfrwt>
<pdfrwt beam="2">  1       21 0.18576321E+00 0.45369939E+03</pdfrwt>
<totfact> 0.29295999E+04</totfact>
</mgrwt>
</event>
<event>
 7    0  0.4691878E-002  0.4466350E+03  0.7546771E-02  0.1028730E+00
         21   -1    0    0  502  501  0.00000000000E+00  0.00000000000E+00  0.15849982336E+03  0.15849982336E+03  0.00000000000E+00 0.  1.
         21   -1    0    0  501  502 -0.00000000000E+00 -0.00000000000E+00 -0.31464204055E+03  0.31464204055E+03  0.00000000000E+00 0.  1.
      99926    2    1    2    0    0  0.00000000000E+00  0.00000000000E+00 -0.15614221719E+03  0.47314186390E+03  0.44663500914E+03 0.  0.
      99925    2    3    3    0    0  0.89730246853E+02  0.37127888956E+02 -0.14174515938E+03  0.31412997532E+03  0.26297519626E+03 0.  0.
         25    1    3    3    0    0 -0.89730246853E+02 -0.37127888956E+02 -0.14397057808E+02  0.15901188859E+03  0.12509000000E+03 0.  0.
         25    1    4    4    0    0  0.10996633260E+02  0.96177125071E+01 -0.38298567988E+02  0.13163477788E+03  0.12509000000E+03 0.  0.
         25    1    4    4    0    0  0.78733613593E+02  0.27510176449E+02 -0.10344659139E+03  0.18249519744E+03  0.12509000000E+03 0.  0.
<mgrwt>
<rscale>  2 0.44663501E+03</rscale>
<asrwt>0</asrwt>
<pdfrwt beam="1">  1       21 0.23308798E-01 0.44663501E+03</pdfrwt>
<pdfrwt beam="2">  1       21 0.46270887E-01 0.44663501E+03</pdfrwt>
<totfact> 0.71856261E+04</totfact>
</mgrwt>
</event>
<event>
 7    0  0.4691878E-002  0.4522022E+03  0.7546771E-02  0.1027067E+00
         21   -1    0    0  502  501  0.00000000000E+00  0.00000000000E+00  0.28755680480E+03  0.28755680480E+03  0.00000000000E+00 0.  1.
         21   -1    0    0  501  502 -0.00000000000E+00 -0.00000000000E+00 -0.17777951397E+03  0.17777951397E+03  0.00000000000E+00 0.  1.
      99926    2    1    2    0    0  0.35527136788E-14  0.00000000000E+00  0.10977729083E+03  0.46533631877E+03  0.45220220697E+03 0.  0.
      99925    2    3    3    0    0  0.22867721301E+02 -0.95217638898E+02  0.16570779732E+02  0.28115083279E+03  0.26302446389E+03 0.  0.
         25    1    4    4    0    0  0.21379147404E+02 -0.33048300793E+02 -0.28820525258E+02  0.13426611227E+03  0.12509000000E+03 0.  0.
         25    1    3    3    0    0 -0.22867721301E+02  0.95217638898E+02  0.93206511096E+02  0.18418548598E+03  0.12509000000E+03 0.  0.
         25    1    4    4    0    0  0.14885738972E+01 -0.62169338105E+02  0.45391304990E+02  0.14688472052E+03  0.12509000000E+03 0.  0.
<mgrwt>
<rscale>  2 0.45220221E+03</rscale>
<asrwt>0</asrwt>
<pdfrwt beam="1">  1       21 0.42287766E-01 0.45220221E+03</pdfrwt>
<pdfrwt beam="2">  1       21 0.26144046E-01 0.45220221E+03</pdfrwt>
<totfact> 0.69309761E+04</totfact>
</mgrwt>
</event>
<event>
 7    0  0.4691878E-002  0.4590507E+03  0.7546771E-02  0.1025057E+00
         21   -1    0    0  502  501  0.00000000000E+00  0.00000000000E+00  0.15268415007E+03  0.15268415007E+03  0.00000000000E+00 0.  1.
         21   -1    0    0  501  502 -0.00000000000E+00 -0.00000000000E+00 -0.34503830523E+03  0.34503830523E+03  0.00000000000E+00 0.  1.
      99926    2    1    2    0    0  0.00000000000E+00  0.00000000000E+00 -0.19235415516E+03  0.49772245529E+03  0.45905067422E+03 0.  0.
      99925    2    3    3    0    0  0.59700292261E+02  0.18168942653E+02 -0.13445297722E+02  0.27067593420E+03  0.26304077621E+03 0.  0.
         25    1    4    4    0    0 -0.59176893155E+01  0.48640142647E+01  0.14201205587E+02  0.12612636529E+03  0.12509000000E+03 0.  0.
         25    1    4    4    0    0  0.65617981576E+02  0.13304928388E+02 -0.27646503309E+02  0.14454956891E+03  0.12509000000E+03 0.  0.
         25    1    3    3    0    0 -0.59700292261E+02 -0.18168942653E+02 -0.17890885744E+03  0.22704652110E+03  0.12509000000E+03 0.  0.
<mgrwt>
<rscale>  2 0.45905067E+03</rscale>
<asrwt>0</asrwt>
<pdfrwt beam="1">  1       21 0.22453552E-01 0.45905067E+03</pdfrwt>
<pdfrwt beam="2">  1       21 0.50740926E-01 0.45905067E+03</pdfrwt>
<totfact> 0.63368617E+04</totfact>
</mgrwt>
</event>
<event>
 7    0  0.4691878E-002  0.4564565E+03  0.7546771E-02  0.1025814E+00
         21   -1    0    0  502  501  0.00000000000E+00  0.00000000000E+00  0.13978467655E+03  0.13978467655E+03  0.00000000000E+00 0.  1.
         21   -1    0    0  501  502 -0.00000000000E+00 -0.00000000000E+00 -0.37263127830E+03  0.37263127830E+03  0.00000000000E+00 0.  1.
      99926    2    1    2    0    0  0.00000000000E+00  0.00000000000E+00 -0.23284660175E+03  0.51241595485E+03  0.45645653774E+03 0.  0.
      99925    2    3    3    0    0  0.24026680369E+02 -0.10985740452E+03 -0.17314963885E+03  0.33393019582E+03  0.26245503910E+03 0.  0.
         25    1    4    4    0    0  0.89761236391E+01 -0.57238790164E+02 -0.13313551644E+03  0.19164922054E+03  0.12509000000E+03 0.  0.
         25    1    4    4    0    0  0.15050556729E+02 -0.52618614359E+02 -0.40014122403E+02  0.14228097528E+03  0.12509000000E+03 0.  0.
         25    1    3    3    0    0 -0.24026680369E+02  0.10985740452E+03 -0.59696962906E+02  0.17848575903E+03  0.12509000000E+03 0.  0.
<mgrwt>
<rscale>  2 0.45645654E+03</rscale>
<asrwt>0</asrwt>
<pdfrwt beam="1">  1       21 0.20556570E-01 0.45645654E+03</pdfrwt>
<pdfrwt beam="2">  1       21 0.54798717E-01 0.45645654E+03</pdfrwt>
<totfact> 0.63667788E+04</totfact>
</mgrwt>
</event>
<event>
 7    0  0.4691878E-002  0.4257452E+03  0.7546771E-02  0.1035213E+00
         21   -1    0    0  502  501  0.00000000000E+00  0.00000000000E+00  0.22232981913E+03  0.22232981913E+03  0.00000000000E+00 0.  1.
         21   -1    0    0  501  502 -0.00000000000E+00 -0.00000000000E+00 -0.20381762973E+03  0.20381762973E+03  0.00000000000E+00 0.  1.
      99926    2    1    2    0    0  0.00000000000E+00 -0.11102230246E-14  0.18512189397E+02  0.42614744886E+03  0.42574516675E+03 0.  0.
      99925    2    3    3    0    0  0.71743491693E+02 -0.14688040554E+01 -0.29367053607E+02  0.27419608823E+03  0.26300529458E+03 0.  0.
         25    1    3    3    0    0 -0.71743491693E+02  0.14688040554E+01  0.47879243004E+02  0.15195136063E+03  0.12509000000E+03 0.  0.
         25    1    4    4    0    0  0.11934306685E+02 -0.24982442105E+02  0.89720240641E+01  0.12843113098E+03  0.12509000000E+03 0.  0.
         25    1    4    4    0    0  0.59809185008E+02  0.23513638050E+02 -0.38339077671E+02  0.14576495725E+03  0.12509000000E+03 0.  0.
<mgrwt>
<rscale>  2 0.42574517E+03</rscale>
<asrwt>0</asrwt>
<pdfrwt beam="1">  1       21 0.32695562E-01 0.42574517E+03</pdfrwt>
<pdfrwt beam="2">  1       21 0.29973181E-01 0.42574517E+03</pdfrwt>
<totfact> 0.89945374E+04</totfact>
</mgrwt>
</event>
<event>
 7    0  0.4691878E-002  0.4468208E+03  0.7546771E-02  0.1028674E+00
         21   -1    0    0  502  501  0.00000000000E+00  0.00000000000E+00  0.32043741488E+03  0.32043741488E+03  0.00000000000E+00 0. -1.
         21   -1    0    0  501  502 -0.00000000000E+00 -0.00000000000E+00 -0.15576273079E+03  0.15576273079E+03  0.00000000000E+00 0. -1.
      99926    2    1    2    0    0  0.00000000000E+00 -0.71054273576E-14  0.16467468409E+03  0.47620014566E+03  0.44682079982E+03 0.  0.
      99925    2    3    3    0    0 -0.53050926095E+02 -0.48957929489E+02  0.22532929067E+02  0.27355990721E+03  0.26289923986E+03 0.  0.
         25    1    3    3    0    0  0.53050926095E+02  0.48957929489E+02  0.14214175503E+03  0.20264023846E+03  0.12509000000E+03 0.  0.
         25    1    4    4    0    0  0.38875491832E+01 -0.30999914119E+02  0.37165652926E+02  0.13418234448E+03  0.12509000000E+03 0.  0.
         25    1    4    4    0    0 -0.56938475278E+02 -0.17958015370E+02 -0.14632723859E+02  0.13937756272E+03  0.12509000000E+03 0.  0.
<mgrwt>
<rscale>  2 0.44682080E+03</rscale>
<asrwt>0</asrwt>
<pdfrwt beam="1">  1       21 0.47123149E-01 0.44682080E+03</pdfrwt>
<pdfrwt beam="2">  1       21 0.22906284E-01 0.44682080E+03</pdfrwt>
<totfact> 0.71508787E+04</totfact>
</mgrwt>
</event>
<event>
 7    0  0.4691878E-002  0.4557484E+03  0.7546771E-02  0.1026022E+00
         21   -1    0    0  502  501  0.00000000000E+00  0.00000000000E+00  0.24712242639E+03  0.24712242639E+03  0.00000000000E+00 0. -1.
         21   -1    0    0  501  502 -0.00000000000E+00 -0.00000000000E+00 -0.21012519317E+03  0.21012519317E+03  0.00000000000E+00 0. -1.
      99926    2    1    2    0    0  0.00000000000E+00  0.00000000000E+00  0.36997233223E+02  0.45724761956E+03  0.45574838489E+03 0.  0.
      99925    2    3    3    0    0  0.10971309814E+03  0.16547176638E+02 -0.26221513349E+01  0.28541055519E+03  0.26294778261E+03 0.  0.
         25    1    4    4    0    0  0.26362127560E+02 -0.21403754333E+02 -0.11483042922E+02  0.13012475108E+03  0.12509000000E+03 0.  0.
         25    1    3    3    0    0 -0.10971309814E+03 -0.16547176638E+02  0.39619384558E+02  0.17183706437E+03  0.12509000000E+03 0.  0.
         25    1    4    4    0    0  0.83350970581E+02  0.37950930971E+02  0.88608915869E+01  0.15528580411E+03  0.12509000000E+03 0.  0.
<mgrwt>
<rscale>  2 0.45574838E+03</rscale>
<asrwt>0</asrwt>
<pdfrwt beam="1">  1       21 0.36341533E-01 0.45574838E+03</pdfrwt>
<pdfrwt beam="2">  1       21 0.30900764E-01 0.45574838E+03</pdfrwt>
<totfact> 0.67974684E+04</totfact>
</mgrwt>
</event>
<event>
 7    0  0.4691878E-002  0.4455317E+03  0.7546771E-02  0.1029063E+00
         21   -1    0    0  502  501  0.00000000000E+00  0.00000000000E+00  0.26763764090E+04  0.26763764090E+04  0.00000000000E+00 0.  1.
         21   -1    0    0  501  502 -0.00000000000E+00 -0.00000000000E+00 -0.18541717799E+02  0.18541717799E+02  0.00000000000E+00 0.  1.
      99926    2    1    2    0    0  0.00000000000E+00  0.00000000000E+00  0.26578346912E+04  0.26949181268E+04  0.44553166487E+03 0.  0.
      99925    2    3    3    0    0 -0.65651650833E+02  0.60022381488E+02  0.13617589066E+04  0.13897848872E+04  0.26306251632E+03 0.  0.
         25    1    4    4    0    0 -0.63187214591E+02  0.17671505455E+02  0.58048819713E+03  0.59742695060E+03  0.12509000000E+03 0.  0.
         25    1    4    4    0    0 -0.24644362416E+01  0.42350876033E+02  0.78127070946E+03  0.79235793661E+03  0.12509000000E+03 0.  0.
         25    1    3    3    0    0  0.65651650833E+02 -0.60022381488E+02  0.12960757846E+04  0.13051332396E+04  0.12509000000E+03 0.  0.
<mgrwt>
<rscale>  2 0.44553166E+03</rscale>
<asrwt>0</asrwt>
<pdfrwt beam="1">  1       21 0.39358450E+00 0.44553166E+03</pdfrwt>
<pdfrwt beam="2">  1       21 0.27267251E-02 0.44553166E+03</pdfrwt>
<totfact> 0.57478381E+03</totfact>
</mgrwt>
</event>
<event>
 7    0  0.4691878E-002  0.4547158E+03  0.7546771E-02  0.1026325E+00
         21   -1    0    0  502  501  0.00000000000E+00  0.00000000000E+00  0.45455069397E+03  0.45455069397E+03  0.00000000000E+00 0. -1.
         21   -1    0    0  501  502 -0.00000000000E+00 -0.00000000000E+00 -0.11372022046E+03  0.11372022046E+03  0.00000000000E+00 0. -1.
      99926    2    1    2    0    0  0.00000000000E+00  0.71054273576E-14  0.34083047351E+03  0.56827091442E+03  0.45471575793E+03 0.  0.
      99925    2    3    3    0    0  0.83859670199E+02  0.54987145021E+02  0.14969304989E+03  0.31879736229E+03  0.26299756390E+03 0.  0.
         25    1    3    3    0    0 -0.83859670199E+02 -0.54987145021E+02  0.19113742362E+03  0.24947355213E+03  0.12509000000E+03 0.  0.
         25    1    4    4    0    0  0.22201180447E+02  0.16923133985E+02  0.31279797152E+02  0.13192883948E+03  0.12509000000E+03 0.  0.
         25    1    4    4    0    0  0.61658489752E+02  0.38064011036E+02  0.11841325274E+03  0.18686852281E+03  0.12509000000E+03 0.  0.
<mgrwt>
<rscale>  2 0.45471576E+03</rscale>
<asrwt>0</asrwt>
<pdfrwt beam="1">  1       21 0.66845690E-01 0.45471576E+03</pdfrwt>
<pdfrwt beam="2">  1       21 0.16723562E-01 0.45471576E+03</pdfrwt>
<totfact> 0.60811637E+04</totfact>
</mgrwt>
</event>
<event>
 7    0  0.4691878E-002  0.4575470E+03  0.7546771E-02  0.1025495E+00
         21   -1    0    0  502  501  0.00000000000E+00  0.00000000000E+00  0.45134622433E+02  0.45134622433E+02  0.00000000000E+00 0.  1.
         21   -1    0    0  501  502 -0.00000000000E+00 -0.00000000000E+00 -0.11595825371E+04  0.11595825371E+04  0.00000000000E+00 0.  1.
      99926    2    1    2    0    0  0.14210854715E-13  0.00000000000E+00 -0.11144479147E+04  0.12047171596E+04  0.45754702488E+03 0.  0.
      99925    2    3    3    0    0 -0.91354576242E+02 -0.22529277941E+02 -0.53270078902E+03  0.60228006467E+03  0.26479788276E+03 0.  0.
         25    1    4    4    0    0 -0.14891483707E+02 -0.15268906867E+02 -0.17980777840E+03  0.22007553493E+03  0.12509000000E+03 0.  0.
         25    1    3    3    0    0  0.91354576242E+02  0.22529277941E+02 -0.58174712566E+03  0.60243709488E+03  0.12509000000E+03 0.  0.
         25    1    4    4    0    0 -0.76463092535E+02 -0.72603710740E+01 -0.35289301063E+03  0.38220452974E+03  0.12509000000E+03 0.  0.
<mgrwt>
<rscale>  2 0.45754702E+03</rscale>
<asrwt>0</asrwt>
<pdfrwt beam="1">  1       21 0.66374460E-02 0.45754702E+03</pdfrwt>
<pdfrwt beam="2">  1       21 0.17052680E+00 0.45754702E+03</pdfrwt>
<totfact> 0.31379587E+04</totfact>
</mgrwt>
</event>
<event>
 7    0  0.4691878E-002  0.4583353E+03  0.7546771E-02  0.1025265E+00
         21   -1    0    0  502  501  0.00000000000E+00  0.00000000000E+00  0.20229776486E+03  0.20229776486E+03  0.00000000000E+00 0.  1.
         21   -1    0    0  501  502 -0.00000000000E+00 -0.00000000000E+00 -0.25960643532E+03  0.25960643532E+03  0.00000000000E+00 0.  1.
      99926    2    1    2    0    0  0.00000000000E+00  0.00000000000E+00 -0.57308670460E+02  0.46190420017E+03  0.45833525549E+03 0.  0.
      99925    2    3    3    0    0 -0.80642326224E+02  0.83091660514E+02 -0.46272404251E+02  0.29109226822E+03  0.26303262991E+03 0.  0.
         25    1    4    4    0    0 -0.26489376596E+02  0.72522412622E+02 -0.47137390839E+02  0.15437172384E+03  0.12509000000E+03 0.  0.
         25    1    4    4    0    0 -0.54152949628E+02  0.10569247891E+02  0.86498658769E+00  0.13672054438E+03  0.12509000000E+03 0.  0.
         25    1    3    3    0    0  0.80642326224E+02 -0.83091660514E+02 -0.11036266209E+02  0.17081193195E+03  0.12509000000E+03 0.  0.
<mgrwt>
<rscale>  2 0.45833526E+03</rscale>
<asrwt>0</asrwt>
<pdfrwt beam="1">  1       21 0.29749671E-01 0.45833526E+03</pdfrwt>
<pdfrwt beam="2">  1       21 0.38177417E-01 0.45833526E+03</pdfrwt>
<totfact> 0.66261913E+04</totfact>
</mgrwt>
</event>
<event>
 7    0  0.4691878E-002  0.4570230E+03  0.7546771E-02  0.1025648E+00
         21   -1    0    0  502  501  0.00000000000E+00  0.00000000000E+00  0.85775219981E+03  0.85775219981E+03  0.00000000000E+00 0.  1.
         21   -1    0    0  501  502 -0.00000000000E+00 -0.00000000000E+00 -0.60877140682E+02  0.60877140682E+02  0.00000000000E+00 0.  1.
      99926    2    1    2    0    0  0.00000000000E+00  0.00000000000E+00  0.79687505913E+03  0.91862934049E+03  0.45702298121E+03 0.  0.
      99925    2    3    3    0    0 -0.79188350964E+02  0.31507880731E+02  0.65574641284E+03  0.71167923931E+03  0.26309777694E+03 0.  0.
         25    1    3    3    0    0  0.79188350964E+02 -0.31507880731E+02  0.14112864628E+03  0.20695010118E+03  0.12509000000E+03 0.  0.
         25    1    4    4    0    0 -0.48996694713E+02  0.55990146375E+02  0.34053179985E+03  0.37033091606E+03  0.12509000000E+03 0.  0.
         25    1    4    4    0    0 -0.30191656251E+02 -0.24482265644E+02  0.31521461299E+03  0.34134832325E+03  0.12509000000E+03 0.  0.
<mgrwt>
<rscale>  2 0.45702298E+03</rscale>
<asrwt>0</asrwt>
<pdfrwt beam="1">  1       21 0.12614002E+00 0.45702298E+03</pdfrwt>
<pdfrwt beam="2">  1       21 0.89525212E-02 0.45702298E+03</pdfrwt>
<totfact> 0.41772756E+04</totfact>
</mgrwt>
</event>
<event>
 7    0  0.4691878E-002  0.4547554E+03  0.7546771E-02  0.1026313E+00
         21   -1    0    0  502  501  0.00000000000E+00  0.00000000000E+00  0.20454531973E+04  0.20454531973E+04  0.00000000000E+00 0.  1.
         21   -1    0    0  501  502 -0.00000000000E+00 -0.00000000000E+00 -0.25275870630E+02  0.25275870630E+02  0.00000000000E+00 0.  1.
      99926    2    1    2    0    0 -0.53290705182E-14 -0.14210854715E-13  0.20201773267E+04  0.20707290679E+04  0.45475536454E+03 0.  0.
      99925    2    3    3    0    0 -0.10370545182E+02  0.82714665908E+02  0.92443937420E+03  0.96472796813E+03  0.26298789282E+03 0.  0.
         25    1    4    4    0    0 -0.42636420367E+02  0.26557797712E+02  0.47144793588E+03  0.49034054014E+03  0.12509000000E+03 0.  0.
         25    1    3    3    0    0  0.10370545182E+02 -0.82714665908E+02  0.10957379525E+04  0.11060010998E+04  0.12509000000E+03 0.  0.
         25    1    4    4    0    0  0.32265875185E+02  0.56156868195E+02  0.45299143832E+03  0.47438742799E+03  0.12509000000E+03 0.  0.
<mgrwt>
<rscale>  2 0.45475536E+03</rscale>
<asrwt>0</asrwt>
<pdfrwt beam="1">  1       21 0.30080183E+00 0.45475536E+03</pdfrwt>
<pdfrwt beam="2">  1       21 0.37170412E-02 0.45475536E+03</pdfrwt>
<totfact> 0.12613220E+04</totfact>
</mgrwt>
</event>
<event>
 7    0  0.4691878E-002  0.4472942E+03  0.7546771E-02  0.1028532E+00
         21   -1    0    0  502  501  0.00000000000E+00  0.00000000000E+00  0.12253514264E+03  0.12253514264E+03  0.00000000000E+00 0.  1.
         21   -1    0    0  501  502 -0.00000000000E+00 -0.00000000000E+00 -0.40819326161E+03  0.40819326161E+03  0.00000000000E+00 0.  1.
      99926    2    1    2    0    0 -0.14210854715E-13  0.17763568394E-14 -0.28565811897E+03  0.53072840425E+03  0.44729417405E+03 0.  0.
      99925    2    3    3    0    0 -0.76267861911E+02  0.10917469032E+02 -0.26672866054E+03  0.38260072153E+03  0.26325492564E+03 0.  0.
         25    1    3    3    0    0  0.76267861911E+02 -0.10917469032E+02 -0.18929458436E+02  0.14812768272E+03  0.12509000000E+03 0.  0.
         25    1    4    4    0    0 -0.22573599159E+02  0.17545892481E+01 -0.18198928298E+03  0.22199156106E+03  0.12509000000E+03 0.  0.
         25    1    4    4    0    0 -0.53694262753E+02  0.91628797837E+01 -0.84739377552E+02  0.16060916047E+03  0.12509000000E+03 0.  0.
<mgrwt>
<rscale>  2 0.44729417E+03</rscale>
<asrwt>0</asrwt>
<pdfrwt beam="1">  1       21 0.18019874E-01 0.44729417E+03</pdfrwt>
<pdfrwt beam="2">  1       21 0.60028422E-01 0.44729417E+03</pdfrwt>
<totfact> 0.67162125E+04</totfact>
</mgrwt>
</event>
<event>
 7    0  0.4691878E-002  0.4608654E+03  0.7546771E-02  0.1024531E+00
         21   -1    0    0  502  501  0.00000000000E+00  0.00000000000E+00  0.40032898079E+02  0.40032898079E+02  0.00000000000E+00 0. -1.
         21   -1    0    0  501  502 -0.00000000000E+00 -0.00000000000E+00 -0.13263898561E+04  0.13263898561E+04  0.00000000000E+00 0. -1.
      99926    2    1    2    0    0  0.17763568394E-14  0.00000000000E+00 -0.12863569580E+04  0.13664227542E+04  0.46086540300E+03 0.  0.
      99925    2    3    3    0    0 -0.15428756781E+02 -0.20103721684E+02 -0.11486452144E+04  0.11786616331E+04  0.26308783813E+03 0.  0.
         25    1    4    4    0    0 -0.45016405182E+02 -0.15219056652E+02 -0.65526148317E+03  0.66878488010E+03  0.12509000000E+03 0.  0.
         25    1    4    4    0    0  0.29587648401E+02 -0.48846650318E+01 -0.49338373124E+03  0.50987675299E+03  0.12509000000E+03 0.  0.
         25    1    3    3    0    0  0.15428756781E+02  0.20103721684E+02 -0.13771174359E+03  0.18776112106E+03  0.12509000000E+03 0.  0.
<mgrwt>
<rscale>  2 0.46086540E+03</rscale>
<asrwt>0</asrwt>
<pdfrwt beam="1">  1       21 0.58871913E-02 0.46086540E+03</pdfrwt>
<pdfrwt beam="2">  1       21 0.19505732E+00 0.46086540E+03</pdfrwt>
<totfact> 0.26033472E+04</totfact>
</mgrwt>
</event>
<event>
 7    0  0.4691878E-002  0.4411654E+03  0.7546771E-02  0.1030390E+00
         21   -1    0    0  502  501  0.00000000000E+00  0.00000000000E+00  0.11882088837E+03  0.11882088837E+03  0.00000000000E+00 0. -1.
         21   -1    0    0  501  502 -0.00000000000E+00 -0.00000000000E+00 -0.40949638691E+03  0.40949638691E+03  0.00000000000E+00 0. -1.
      99926    2    1    2    0    0  0.00000000000E+00  0.00000000000E+00 -0.29067549854E+03  0.52831727528E+03  0.44116538613E+03 0.  0.
      99925    2    3    3    0    0  0.33160635633E+02  0.72706365970E+02 -0.25662902151E+03  0.37602638880E+03  0.26296681727E+03 0.  0.
         25    1    4    4    0    0 -0.15789331203E+02  0.97879453016E+01 -0.11464324104E+03  0.17069179145E+03  0.12509000000E+03 0.  0.
         25    1    3    3    0    0 -0.33160635633E+02 -0.72706365970E+02 -0.34046477027E+02  0.15229088648E+03  0.12509000000E+03 0.  0.
         25    1    4    4    0    0  0.48949966836E+02  0.62918420669E+02 -0.14198578047E+03  0.20533459735E+03  0.12509000000E+03 0.  0.
<mgrwt>
<rscale>  2 0.44116539E+03</rscale>
<asrwt>0</asrwt>
<pdfrwt beam="1">  1       21 0.17473660E-01 0.44116539E+03</pdfrwt>
<pdfrwt beam="2">  1       21 0.60220056E-01 0.44116539E+03</pdfrwt>
<totfact> 0.70759178E+04</totfact>
</mgrwt>
</event>
<event>
 7    0  0.4691878E-002  0.4555002E+03  0.7546771E-02  0.1026094E+00
         21   -1    0    0  502  501  0.00000000000E+00  0.00000000000E+00  0.52161545107E+03  0.52161545107E+03  0.00000000000E+00 0. -1.
         21   -1    0    0  501  502 -0.00000000000E+00 -0.00000000000E+00 -0.99441258043E+02  0.99441258043E+02  0.00000000000E+00 0. -1.
      99926    2    1    2    0    0  0.00000000000E+00  0.00000000000E+00  0.42217419303E+03  0.62105670911E+03  0.45550015003E+03 0.  0.
      99925    2    3    3    0    0  0.79919958828E+02  0.39915663068E+02  0.36130908314E+03  0.45573118272E+03  0.26299467174E+03 0.  0.
         25    1    4    4    0    0  0.19946252383E+02  0.34909703378E+02  0.22869286159E+03  0.26375077899E+03  0.12509000000E+03 0.  0.
         25    1    3    3    0    0 -0.79919958828E+02 -0.39915663068E+02  0.60865109887E+02  0.16532552640E+03  0.12509000000E+03 0.  0.
         25    1    4    4    0    0  0.59973706445E+02  0.50059596898E+01  0.13261622155E+03  0.19198040373E+03  0.12509000000E+03 0.  0.
<mgrwt>
<rscale>  2 0.45550015E+03</rscale>
<asrwt>0</asrwt>
<pdfrwt beam="1">  1       21 0.76708154E-01 0.45550015E+03</pdfrwt>
<pdfrwt beam="2">  1       21 0.14623715E-01 0.45550015E+03</pdfrwt>
<totfact> 0.57174403E+04</totfact>
</mgrwt>
</event>
<event>
 7    0  0.4691878E-002  0.4598548E+03  0.7546771E-02  0.1024823E+00
         21   -1    0    0  502  501  0.00000000000E+00  0.00000000000E+00  0.11047029069E+04  0.11047029069E+04  0.00000000000E+00 0.  1.
         21   -1    0    0  501  502 -0.00000000000E+00 -0.00000000000E+00 -0.47855950086E+02  0.47855950086E+02  0.00000000000E+00 0.  1.
      99926    2    1    2    0    0  0.00000000000E+00  0.00000000000E+00  0.10568469568E+04  0.11525588570E+04  0.45985479088E+03 0.  0.
      99925    2    3    3    0    0  0.74905245635E+02 -0.34774190764E+02  0.87227631538E+03  0.91479033522E+03  0.26297404220E+03 0.  0.
         25    1    3    3    0    0 -0.74905245635E+02  0.34774190764E+02  0.18457064146E+03  0.23776852179E+03  0.12509000000E+03 0.  0.
         25    1    4    4    0    0  0.59757379524E+02 -0.15278083717E+02  0.34081281499E+03  0.36824617746E+03  0.12509000000E+03 0.  0.
         25    1    4    4    0    0  0.15147866111E+02 -0.19496107047E+02  0.53146350039E+03  0.54654415776E+03  0.12509000000E+03 0.  0.
<mgrwt>
<rscale>  2 0.45985479E+03</rscale>
<asrwt>0</asrwt>
<pdfrwt beam="1">  1       21 0.16245629E+00 0.45985479E+03</pdfrwt>
<pdfrwt beam="2">  1       21 0.70376404E-02 0.45985479E+03</pdfrwt>
<totfact> 0.32451715E+04</totfact>
</mgrwt>
</event>
<event>
 7    0  0.4691878E-002  0.4571889E+03  0.7546771E-02  0.1025600E+00
         21   -1    0    0  502  501  0.00000000000E+00  0.00000000000E+00  0.71678271980E+03  0.71678271980E+03  0.00000000000E+00 0. -1.
         21   -1    0    0  501  502 -0.00000000000E+00 -0.00000000000E+00 -0.72902747695E+02  0.72902747695E+02  0.00000000000E+00 0. -1.
      99926    2    1    2    0    0  0.14210854715E-13  0.00000000000E+00  0.64387997211E+03  0.78968546750E+03  0.45718893151E+03 0.  0.
      99925    2    3    3    0    0  0.10386908970E+03 -0.19451798978E+02  0.48291542721E+03  0.56006784384E+03  0.26325181783E+03 0.  0.
         25    1    3    3    0    0 -0.10386908970E+03  0.19451798978E+02  0.16096454489E+03  0.22961762365E+03  0.12509000000E+03 0.  0.
         25    1    4    4    0    0  0.77230022841E+02 -0.43706902750E+02  0.26949534713E+03  0.31008066692E+03  0.12509000000E+03 0.  0.
         25    1    4    4    0    0  0.26639066859E+02  0.24255103772E+02  0.21342008008E+03  0.24998717692E+03  0.12509000000E+03 0.  0.
<mgrwt>
<rscale>  2 0.45718893E+03</rscale>
<asrwt>0</asrwt>
<pdfrwt beam="1">  1       21 0.10540922E+00 0.45718893E+03</pdfrwt>
<pdfrwt beam="2">  1       21 0.10720993E-01 0.45718893E+03</pdfrwt>
<totfact> 0.47447382E+04</totfact>
</mgrwt>
</event>
<event>
 7    0  0.4691878E-002  0.4390432E+03  0.7546771E-02  0.1031041E+00
         21   -1    0    0  502  501  0.00000000000E+00  0.00000000000E+00  0.11892642073E+04  0.11892642073E+04  0.00000000000E+00 0.  1.
         21   -1    0    0  501  502 -0.00000000000E+00 -0.00000000000E+00 -0.40520622733E+02  0.40520622733E+02  0.00000000000E+00 0.  1.
      99926    2    1    2    0    0  0.00000000000E+00  0.00000000000E+00  0.11487435846E+04  0.12297848300E+04  0.43904316996E+03 0.  0.
      99925    2    3    3    0    0 -0.26664264324E+02 -0.79529036319E+02  0.60511245470E+03  0.66567653894E+03  0.26443963595E+03 0.  0.
         25    1    3    3    0    0  0.26664264324E+02  0.79529036319E+02  0.54363112986E+03  0.56410829108E+03  0.12509000000E+03 0.  0.
         25    1    4    4    0    0 -0.19728896532E+02 -0.46168796251E+02  0.40852720271E+03  0.43018922646E+03  0.12509000000E+03 0.  0.
         25    1    4    4    0    0 -0.69353677918E+01 -0.33360240068E+02  0.19658525199E+03  0.23548731249E+03  0.12509000000E+03 0.  0.
<mgrwt>
<rscale>  2 0.43904317E+03</rscale>
<asrwt>0</asrwt>
<pdfrwt beam="1">  1       21 0.17489177E+00 0.43904317E+03</pdfrwt>
<pdfrwt beam="2">  1       21 0.59589159E-02 0.43904317E+03</pdfrwt>
<totfact> 0.35423745E+04</totfact>
</mgrwt>
</event>
<event>
 7    0  0.4691878E-002  0.4585964E+03  0.7546771E-02  0.1025189E+00
         21   -1    0    0  502  501  0.00000000000E+00  0.00000000000E+00  0.13532549028E+04  0.13532549028E+04  0.00000000000E+00 0.  1.
         21   -1    0    0  501  502 -0.00000000000E+00 -0.00000000000E+00 -0.38852736148E+02  0.38852736148E+02  0.00000000000E+00 0.  1.
      99926    2    1    2    0    0 -0.35527136788E-14  0.00000000000E+00  0.13144021666E+04  0.13921076389E+04  0.45859636142E+03 0.  0.
      99925    2    3    3    0    0  0.29702072146E+02 -0.45844171748E+02  0.51231425078E+03  0.57848829671E+03  0.26305686972E+03 0.  0.
         25    1    3    3    0    0 -0.29702072146E+02  0.45844171748E+02  0.80208791585E+03  0.81361934222E+03  0.12509000000E+03 0.  0.
         25    1    4    4    0    0  0.44080361642E+02 -0.28490230056E+02  0.20382861832E+03  0.24484359341E+03  0.12509000000E+03 0.  0.
         25    1    4    4    0    0 -0.14378289496E+02 -0.17353941692E+02  0.30848563246E+03  0.33364470329E+03  0.12509000000E+03 0.  0.
<mgrwt>
<rscale>  2 0.45859636E+03</rscale>
<asrwt>0</asrwt>
<pdfrwt beam="1">  1       21 0.19900804E+00 0.45859636E+03</pdfrwt>
<pdfrwt beam="2">  1       21 0.57136386E-02 0.45859636E+03</pdfrwt>
<totfact> 0.25814034E+04</totfact>
</mgrwt>
</event>
<event>
 7    0  0.4691878E-002  0.4573533E+03  0.7546771E-02  0.1025552E+00
         21   -1    0    0  502  501  0.00000000000E+00  0.00000000000E+00  0.12576824237E+03  0.12576824237E+03  0.00000000000E+00 0.  1.
         21   -1    0    0  501  502 -0.00000000000E+00 -0.00000000000E+00 -0.41578867787E+03  0.41578867787E+03  0.00000000000E+00 0.  1.
      99926    2    1    2    0    0  0.00000000000E+00  0.00000000000E+00 -0.29002043550E+03  0.54155692024E+03  0.45735330418E+03 0.  0.
      99925    2    3    3    0    0  0.12590989424E+02  0.11347431854E+03 -0.16250781458E+03  0.32956180100E+03  0.26299664807E+03 0.  0.
         25    1    4    4    0    0  0.22934352093E+02  0.54118045177E+02 -0.12348129231E+03  0.18533721960E+03  0.12509000000E+03 0.  0.
         25    1    4    4    0    0 -0.10343362670E+02  0.59356273367E+02 -0.39026522266E+02  0.14422458140E+03  0.12509000000E+03 0.  0.
         25    1    3    3    0    0 -0.12590989424E+02 -0.11347431854E+03 -0.12751262092E+03  0.21199511923E+03  0.12509000000E+03 0.  0.
<mgrwt>
<rscale>  2 0.45735330E+03</rscale>
<asrwt>0</asrwt>
<pdfrwt beam="1">  1       21 0.18495329E-01 0.45735330E+03</pdfrwt>
<pdfrwt beam="2">  1       21 0.61145395E-01 0.45735330E+03</pdfrwt>
<totfact> 0.61278703E+04</totfact>
</mgrwt>
</event>
<event>
 7    0  0.4691878E-002  0.4534401E+03  0.7546771E-02  0.1026701E+00
         21   -1    0    0  502  501  0.00000000000E+00  0.00000000000E+00  0.26085708662E+03  0.26085708662E+03  0.00000000000E+00 0. -1.
         21   -1    0    0  501  502 -0.00000000000E+00 -0.00000000000E+00 -0.19705037549E+03  0.19705037549E+03  0.00000000000E+00 0. -1.
      99926    2    1    2    0    0 -0.71054273576E-14  0.00000000000E+00  0.63806711129E+02  0.45790746211E+03  0.45344012556E+03 0.  0.
      99925    2    3    3    0    0  0.52301988837E+02 -0.40990244222E+02 -0.50261325109E+02  0.27604288846E+03  0.26316872403E+03 0.  0.
         25    1    4    4    0    0  0.55212790845E+02 -0.32787604567E+02  0.90691525036E+00  0.14061226789E+03  0.12509000000E+03 0.  0.
         25    1    3    3    0    0 -0.52301988837E+02  0.40990244222E+02  0.11406803624E+03  0.18186457365E+03  0.12509000000E+03 0.  0.
         25    1    4    4    0    0 -0.29108020080E+01 -0.82026396548E+01 -0.51168240359E+02  0.13543062057E+03  0.12509000000E+03 0.  0.
<mgrwt>
<rscale>  2 0.45344013E+03</rscale>
<asrwt>0</asrwt>
<pdfrwt beam="1">  1       21 0.38361336E-01 0.45344013E+03</pdfrwt>
<pdfrwt beam="2">  1       21 0.28977996E-01 0.45344013E+03</pdfrwt>
<totfact> 0.69190042E+04</totfact>
</mgrwt>
</event>
<event>
 7    0  0.4691878E-002  0.4609126E+03  0.7546771E-02  0.1024517E+00
         21   -1    0    0  502  501  0.00000000000E+00  0.00000000000E+00  0.68392280737E+03  0.68392280737E+03  0.00000000000E+00 0. -1.
         21   -1    0    0  501  502 -0.00000000000E+00 -0.00000000000E+00 -0.77655109426E+02  0.77655109426E+02  0.00000000000E+00 0. -1.
      99926    2    1    2    0    0  0.00000000000E+00  0.00000000000E+00  0.60626769795E+03  0.76157791680E+03  0.46091257499E+03 0.  0.
      99925    2    3    3    0    0  0.10715546353E+02  0.11627720173E+03  0.34516839289E+03  0.44939917669E+03  0.26302697577E+03 0.  0.
         25    1    4    4    0    0  0.20590445974E+02  0.88598177851E+02  0.14808375359E+03  0.21412592034E+03  0.12509000000E+03 0.  0.
         25    1    4    4    0    0 -0.98748996208E+01  0.27679023876E+02  0.19708463931E+03  0.23527325635E+03  0.12509000000E+03 0.  0.
         25    1    3    3    0    0 -0.10715546353E+02 -0.11627720173E+03  0.26109930505E+03  0.31217874010E+03  0.12509000000E+03 0.  0.
<mgrwt>
<rscale>  2 0.46091257E+03</rscale>
<asrwt>0</asrwt>
<pdfrwt beam="1">  1       21 0.10057688E+00 0.46091257E+03</pdfrwt>
<pdfrwt beam="2">  1       21 0.11419869E-01 0.46091257E+03</pdfrwt>
<totfact> 0.47438307E+04</totfact>
</mgrwt>
</event>
<event>
 7    0  0.4691878E-002  0.4501332E+03  0.7546771E-02  0.1027682E+00
         21   -1    0    0  502  501  0.00000000000E+00  0.00000000000E+00  0.35803399999E+02  0.35803399999E+02  0.00000000000E+00 0.  1.
         21   -1    0    0  501  502 -0.00000000000E+00 -0.00000000000E+00 -0.14148093572E+04  0.14148093572E+04  0.00000000000E+00 0.  1.
      99926    2    1    2    0    0  0.14210854715E-13  0.00000000000E+00 -0.13790059572E+04  0.14506127572E+04  0.45013324845E+03 0.  0.
      99925    2    3    3    0    0 -0.84174584688E+02 -0.51538523643E+02 -0.72362807566E+03  0.77614314644E+03  0.26271469650E+03 0.  0.
         25    1    3    3    0    0  0.84174584688E+02  0.51538523643E+02 -0.65537788159E+03  0.67446961081E+03  0.12509000000E+03 0.  0.
         25    1    4    4    0    0 -0.39426429756E+01 -0.10958303635E+02 -0.29335910581E+03  0.31912803373E+03  0.12509000000E+03 0.  0.
         25    1    4    4    0    0 -0.80231941713E+02 -0.40580220007E+02 -0.43026896985E+03  0.45701511270E+03  0.12509000000E+03 0.  0.
<mgrwt>
<rscale>  2 0.45013325E+03</rscale>
<asrwt>0</asrwt>
<pdfrwt beam="1">  1       21 0.52652055E-02 0.45013325E+03</pdfrwt>
<pdfrwt beam="2">  1       21 0.20806021E+00 0.45013325E+03</pdfrwt>
<totfact> 0.25982563E+04</totfact>
</mgrwt>
</event>
<event>
 7    0  0.4691878E-002  0.4613448E+03  0.7546771E-02  0.1024392E+00
         21   -1    0    0  502  501  0.00000000000E+00  0.00000000000E+00  0.22800480649E+03  0.22800480649E+03  0.00000000000E+00 0.  1.
         21   -1    0    0  501  502 -0.00000000000E+00 -0.00000000000E+00 -0.23337117041E+03  0.23337117041E+03  0.00000000000E+00 0.  1.
      99926    2    1    2    0    0  0.00000000000E+00  0.35527136788E-14 -0.53663639151E+01  0.46137597690E+03  0.46134476717E+03 0.  0.
      99925    2    3    3    0    0  0.38104296075E+02  0.18300461906E+02 -0.11460825231E+03  0.29000461825E+03  0.26302239985E+03 0.  0.
         25    1    4    4    0    0  0.23104936124E+02 -0.29032459229E+02 -0.41920717405E+02  0.13704589162E+03  0.12509000000E+03 0.  0.
         25    1    4    4    0    0  0.14999359950E+02  0.47332921135E+02 -0.72687534900E+02  0.15295872663E+03  0.12509000000E+03 0.  0.
         25    1    3    3    0    0 -0.38104296075E+02 -0.18300461906E+02  0.10924188839E+03  0.17137135865E+03  0.12509000000E+03 0.  0.
<mgrwt>
<rscale>  2 0.46134477E+03</rscale>
<asrwt>0</asrwt>
<pdfrwt beam="1">  1       21 0.33530119E-01 0.46134477E+03</pdfrwt>
<pdfrwt beam="2">  1       21 0.34319290E-01 0.46134477E+03</pdfrwt>
<totfact> 0.64741100E+04</totfact>
</mgrwt>
</event>
<event>
 7    0  0.4691878E-002  0.4539727E+03  0.7546771E-02  0.1026544E+00
         21   -1    0    0  502  501  0.00000000000E+00  0.00000000000E+00  0.10758632465E+03  0.10758632465E+03  0.00000000000E+00 0.  1.
         21   -1    0    0  501  502 -0.00000000000E+00 -0.00000000000E+00 -0.47889742339E+03  0.47889742339E+03  0.00000000000E+00 0.  1.
      99926    2    1    2    0    0  0.71054273576E-14  0.00000000000E+00 -0.37131109874E+03  0.58648374804E+03  0.45397274662E+03 0.  0.
      99925    2    3    3    0    0  0.46933091169E+02  0.24951933372E+02 -0.10632697132E+03  0.28867607536E+03  0.26306489243E+03 0.  0.
         25    1    4    4    0    0  0.36824745863E+02 -0.25027472182E+02 -0.61684404959E+02  0.14640666032E+03  0.12509000000E+03 0.  0.
         25    1    4    4    0    0  0.10108345306E+02  0.49979405553E+02 -0.44642566365E+02  0.14226941504E+03  0.12509000000E+03 0.  0.
         25    1    3    3    0    0 -0.46933091169E+02 -0.24951933372E+02 -0.26498412742E+03  0.29780767268E+03  0.12509000000E+03 0.  0.
<mgrwt>
<rscale>  2 0.45397275E+03</rscale>
<asrwt>0</asrwt>
<pdfrwt beam="1">  1       21 0.15821518E-01 0.45397275E+03</pdfrwt>
<pdfrwt beam="2">  1       21 0.70426093E-01 0.45397275E+03</pdfrwt>
<totfact> 0.60003764E+04</totfact>
</mgrwt>
</event>
<event>
 7    0  0.4691878E-002  0.4544893E+03  0.7546771E-02  0.1026392E+00
         21   -1    0    0  502  501  0.00000000000E+00  0.00000000000E+00  0.67658919096E+03  0.67658919096E+03  0.00000000000E+00 0. -1.
         21   -1    0    0  501  502 -0.00000000000E+00 -0.00000000000E+00 -0.76324213078E+02  0.76324213078E+02  0.00000000000E+00 0. -1.
      99926    2    1    2    0    0 -0.35527136788E-14 -0.71054273576E-14  0.60026497788E+03  0.75291340403E+03  0.45448932914E+03 0.  0.
      99925    2    3    3    0    0 -0.16505775509E+02 -0.47455644978E+02  0.21088825549E+03  0.34086217069E+03  0.26303741984E+03 0.  0.
         25    1    4    4    0    0 -0.48101299524E+02 -0.18120608619E+02  0.11384830066E+03  0.17677962308E+03  0.12509000000E+03 0.  0.
         25    1    4    4    0    0  0.31595524015E+02 -0.29335036359E+02  0.97039954831E+02  0.16408254761E+03  0.12509000000E+03 0.  0.
         25    1    3    3    0    0  0.16505775509E+02  0.47455644978E+02  0.38937672239E+03  0.41205123335E+03  0.12509000000E+03 0.  0.
<mgrwt>
<rscale>  2 0.45448933E+03</rscale>
<asrwt>0</asrwt>
<pdfrwt beam="1">  1       21 0.99498407E-01 0.45448933E+03</pdfrwt>
<pdfrwt beam="2">  1       21 0.11224149E-01 0.45448933E+03</pdfrwt>
<totfact> 0.50324153E+04</totfact>
</mgrwt>
</event>
<event>
 7    0  0.4691878E-002  0.4453709E+03  0.7546771E-02  0.1029112E+00
         21   -1    0    0  502  501  0.00000000000E+00  0.00000000000E+00  0.59405728699E+02  0.59405728699E+02  0.00000000000E+00 0.  1.
         21   -1    0    0  501  502 -0.00000000000E+00 -0.00000000000E+00 -0.83474805064E+03  0.83474805064E+03  0.00000000000E+00 0.  1.
      99926    2    1    2    0    0 -0.14210854715E-13 -0.35527136788E-14 -0.77534232194E+03  0.89415377934E+03  0.44537092958E+03 0.  0.
      99925    2    3    3    0    0 -0.69861603042E+02  0.31106760149E+02 -0.63352024677E+03  0.69017024272E+03  0.26294255410E+03 0.  0.
         25    1    4    4    0    0 -0.31384648205E+02  0.25217850182E+02 -0.21858220846E+03  0.25504240053E+03  0.12509000000E+03 0.  0.
         25    1    4    4    0    0 -0.38476954837E+02  0.58889099675E+01 -0.41493803831E+03  0.43512784219E+03  0.12509000000E+03 0.  0.
         25    1    3    3    0    0  0.69861603042E+02 -0.31106760149E+02 -0.14182207517E+03  0.20398353662E+03  0.12509000000E+03 0.  0.
<mgrwt>
<rscale>  2 0.44537093E+03</rscale>
<asrwt>0</asrwt>
<pdfrwt beam="1">  1       21 0.87361366E-02 0.44537093E+03</pdfrwt>
<pdfrwt beam="2">  1       21 0.12275707E+00 0.44537093E+03</pdfrwt>
<totfact> 0.46925813E+04</totfact>
</mgrwt>
</event>
<event>
 7    0  0.4691878E-002  0.4317937E+03  0.7546771E-02  0.1033295E+00
         21   -1    0    0  502  501  0.00000000000E+00  0.00000000000E+00  0.15219859500E+04  0.15219859500E+04  0.00000000000E+00 0. -1.
         21   -1    0    0  501  502 -0.00000000000E+00 -0.00000000000E+00 -0.30625418435E+02  0.30625418435E+02  0.00000000000E+00 0. -1.
      99926    2    1    2    0    0  0.35527136788E-14  0.00000000000E+00  0.14913605315E+04  0.15526113684E+04  0.43179373118E+03 0.  0.
      99925    2    3    3    0    0 -0.23139686302E+02  0.86582891574E+02  0.96710205115E+03  0.10062355778E+04  0.26304299746E+03 0.  0.
         25    1    4    4    0    0  0.28566362846E+02  0.34613007747E+02  0.46558420886E+03  0.48417998826E+03  0.12509000000E+03 0.  0.
         25    1    3    3    0    0  0.23139686302E+02 -0.86582891574E+02  0.52425848038E+03  0.54637579059E+03  0.12509000000E+03 0.  0.
         25    1    4    4    0    0 -0.51706049148E+02  0.51969883826E+02  0.50151784230E+03  0.52205558955E+03  0.12509000000E+03 0.  0.
<mgrwt>
<rscale>  2 0.43179373E+03</rscale>
<asrwt>0</asrwt>
<pdfrwt beam="1">  1       21 0.22382141E+00 0.43179373E+03</pdfrwt>
<pdfrwt beam="2">  1       21 0.45037390E-02 0.43179373E+03</pdfrwt>
<totfact> 0.27080584E+04</totfact>
</mgrwt>
</event>
<event>
 7    0  0.4691878E-002  0.4549992E+03  0.7546771E-02  0.1026242E+00
         21   -1    0    0  502  501  0.00000000000E+00  0.00000000000E+00  0.13157432410E+02  0.13157432410E+02  0.00000000000E+00 0. -1.
         21   -1    0    0  501  502 -0.00000000000E+00 -0.00000000000E+00 -0.39335989003E+04  0.39335989003E+04  0.00000000000E+00 0. -1.
      99926    2    1    2    0    0  0.35527136788E-14 -0.17763568394E-14 -0.39204414679E+04  0.39467563327E+04  0.45499917213E+03 0.  0.
      99925    2    3    3    0    0  0.29772019054E+02  0.99111713857E+01 -0.34099629179E+04  0.34202390371E+04  0.26306532510E+03 0.  0.
         25    1    3    3    0    0 -0.29772019054E+02 -0.99111713857E+01 -0.51047854999E+03  0.52651729557E+03  0.12509000000E+03 0.  0.
         25    1    4    4    0    0  0.40391760981E+02 -0.15716689902E+02 -0.14210526782E+04  0.14272059175E+04  0.12509000000E+03 0.  0.
         25    1    4    4    0    0 -0.10619741927E+02  0.25627861288E+02 -0.19889102397E+04  0.19930331197E+04  0.12509000000E+03 0.  0.
<mgrwt>
<rscale>  2 0.45499917E+03</rscale>
<asrwt>0</asrwt>
<pdfrwt beam="1">  1       21 0.19349149E-02 0.45499917E+03</pdfrwt>
<pdfrwt beam="2">  1       21 0.57847090E+00 0.45499917E+03</pdfrwt>
<totfact> 0.50714937E+02</totfact>
</mgrwt>
</event>
<event>
 7    0  0.4691878E-002  0.4538395E+03  0.7546771E-02  0.1026583E+00
         21   -1    0    0  502  501  0.00000000000E+00  0.00000000000E+00  0.74688647862E+03  0.74688647862E+03  0.00000000000E+00 0. -1.
         21   -1    0    0  501  502 -0.00000000000E+00 -0.00000000000E+00 -0.68942975316E+02  0.68942975316E+02  0.00000000000E+00 0. -1.
      99926    2    1    2    0    0  0.72164496601E-15  0.14210854715E-13  0.67794350331E+03  0.81582945394E+03  0.45383951375E+03 0.  0.
      99925    2    3    3    0    0 -0.44994242169E+00  0.10650724576E+03  0.36400443228E+03  0.46150016604E+03  0.26294330318E+03 0.  0.
         25    1    4    4    0    0  0.29044387580E+02  0.24762761698E+02  0.15328536665E+03  0.20149611049E+03  0.12509000000E+03 0.  0.
         25    1    4    4    0    0 -0.29494330002E+02  0.81744484061E+02  0.21071906564E+03  0.26000405554E+03  0.12509000000E+03 0.  0.
         25    1    3    3    0    0  0.44994242169E+00 -0.10650724576E+03  0.31393907102E+03  0.35432928790E+03  0.12509000000E+03 0.  0.
<mgrwt>
<rscale>  2 0.45383951E+03</rscale>
<asrwt>0</asrwt>
<pdfrwt beam="1">  1       21 0.10983624E+00 0.45383951E+03</pdfrwt>
<pdfrwt beam="2">  1       21 0.10138673E-01 0.45383951E+03</pdfrwt>
<totfact> 0.47439195E+04</totfact>
</mgrwt>
</event>
<event>
 7    0  0.4691878E-002  0.4549101E+03  0.7546771E-02  0.1026268E+00
         21   -1    0    0  502  501  0.00000000000E+00  0.00000000000E+00  0.14107748406E+03  0.14107748406E+03  0.00000000000E+00 0. -1.
         21   -1    0    0  501  502 -0.00000000000E+00 -0.00000000000E+00 -0.36671898580E+03  0.36671898580E+03  0.00000000000E+00 0. -1.
      99926    2    1    2    0    0  0.00000000000E+00  0.00000000000E+00 -0.22564150175E+03  0.50779646986E+03  0.45491006528E+03 0.  0.
      99925    2    3    3    0    0  0.65875175843E+02  0.71710641138E+02 -0.77896668555E+02  0.29109852645E+03  0.26303708157E+03 0.  0.
         25    1    3    3    0    0 -0.65875175843E+02 -0.71710641138E+02 -0.14774483319E+03  0.21669794341E+03  0.12509000000E+03 0.  0.
         25    1    4    4    0    0  0.49645809522E+00  0.59919050154E+02 -0.43214752128E+02  0.14527753420E+03  0.12509000000E+03 0.  0.
         25    1    4    4    0    0  0.65378717748E+02  0.11791590984E+02 -0.34681916427E+02  0.14582099225E+03  0.12509000000E+03 0.  0.
<mgrwt>
<rscale>  2 0.45491007E+03</rscale>
<asrwt>0</asrwt>
<pdfrwt beam="1">  1       21 0.20746689E-01 0.45491007E+03</pdfrwt>
<pdfrwt beam="2">  1       21 0.53929262E-01 0.45491007E+03</pdfrwt>
<totfact> 0.64772555E+04</totfact>
</mgrwt>
</event>
<event>
 7    0  0.4691878E-002  0.4523583E+03  0.7546771E-02  0.1027021E+00
         21   -1    0    0  502  501  0.00000000000E+00  0.00000000000E+00  0.16247362614E+03  0.16247362614E+03  0.00000000000E+00 0. -1.
         21   -1    0    0  501  502 -0.00000000000E+00 -0.00000000000E+00 -0.31486339145E+03  0.31486339145E+03  0.00000000000E+00 0. -1.
      99926    2    1    2    0    0  0.00000000000E+00  0.00000000000E+00 -0.15238976530E+03  0.47733701759E+03  0.45235825160E+03 0.  0.
      99925    2    3    3    0    0  0.10802596957E+03 -0.94285397596E+01 -0.11702726206E+03  0.30805464344E+03  0.26352186971E+03 0.  0.
         25    1    4    4    0    0  0.37488919074E+02  0.20270061800E+02 -0.23780405561E+02  0.13427326706E+03  0.12509000000E+03 0.  0.
         25    1    3    3    0    0 -0.10802596957E+03  0.94285397596E+01 -0.35362503244E+02  0.16928237416E+03  0.12509000000E+03 0.  0.
         25    1    4    4    0    0  0.70537050500E+02 -0.29698601560E+02 -0.93246856499E+02  0.17378137637E+03  0.12509000000E+03 0.  0.
<mgrwt>
<rscale>  2 0.45235825E+03</rscale>
<asrwt>0</asrwt>
<pdfrwt beam="1">  1       21 0.23893181E-01 0.45235825E+03</pdfrwt>
<pdfrwt beam="2">  1       21 0.46303439E-01 0.45235825E+03</pdfrwt>
<totfact> 0.68315697E+04</totfact>
</mgrwt>
</event>
<event>
 7    0  0.4691878E-002  0.4450607E+03  0.7546771E-02  0.1029205E+00
         21   -1    0    0  502  501  0.00000000000E+00  0.00000000000E+00  0.12012441843E+03  0.12012441843E+03  0.00000000000E+00 0.  1.
         21   -1    0    0  501  502 -0.00000000000E+00 -0.00000000000E+00 -0.41223713285E+03  0.41223713285E+03  0.00000000000E+00 0.  1.
      99926    2    1    2    0    0  0.00000000000E+00  0.00000000000E+00 -0.29211271443E+03  0.53236155128E+03  0.44506065131E+03 0.  0.
      99925    2    3    3    0    0  0.40801424037E+02 -0.89039987156E+02 -0.14546158796E+03  0.31615115257E+03  0.26305817262E+03 0.  0.
         25    1    4    4    0    0  0.52806240543E+02 -0.72531774437E+02 -0.81543545483E+02  0.17420165112E+03  0.12509000000E+03 0.  0.
         25    1    4    4    0    0 -0.12004816506E+02 -0.16508212719E+02 -0.63918042474E+02  0.14194950144E+03  0.12509000000E+03 0.  0.
         25    1    3    3    0    0 -0.40801424037E+02  0.89039987156E+02 -0.14665112647E+03  0.21621039871E+03  0.12509000000E+03 0.  0.
<mgrwt>
<rscale>  2 0.44506065E+03</rscale>
<asrwt>0</asrwt>
<pdfrwt beam="1">  1       21 0.17665355E-01 0.44506065E+03</pdfrwt>
<pdfrwt beam="2">  1       21 0.60623108E-01 0.44506065E+03</pdfrwt>
<totfact> 0.68261244E+04</totfact>
</mgrwt>
</event>
<event>
 7    0  0.4691878E-002  0.4625796E+03  0.7546771E-02  0.1024036E+00
         21   -1    0    0  502  501  0.00000000000E+00  0.00000000000E+00  0.33316968347E+03  0.33316968347E+03  0.00000000000E+00 0. -1.
         21   -1    0    0  501  502 -0.00000000000E+00 -0.00000000000E+00 -0.16056375539E+03  0.16056375539E+03  0.00000000000E+00 0. -1.
      99926    2    1    2    0    0  0.00000000000E+00 -0.14210854715E-13  0.17260592808E+03  0.49373343886E+03  0.46257961719E+03 0.  0.
      99925    2    3    3    0    0 -0.85058005097E+02  0.82183535743E+02  0.85673220178E+02  0.30087649296E+03  0.26305468174E+03 0.  0.
         25    1    4    4    0    0 -0.21383648224E+02  0.67031186716E+02  0.67270084799E+02  0.15850303724E+03  0.12509000000E+03 0.  0.
         25    1    3    3    0    0  0.85058005097E+02 -0.82183535743E+02  0.86932707899E+02  0.19285694590E+03  0.12509000000E+03 0.  0.
         25    1    4    4    0    0 -0.63674356874E+02  0.15152349027E+02  0.18403135379E+02  0.14237345573E+03  0.12509000000E+03 0.  0.
<mgrwt>
<rscale>  2 0.46257962E+03</rscale>
<asrwt>0</asrwt>
<pdfrwt beam="1">  1       21 0.48995542E-01 0.46257962E+03</pdfrwt>
<pdfrwt beam="2">  1       21 0.23612317E-01 0.46257962E+03</pdfrwt>
<totfact> 0.61903642E+04</totfact>
</mgrwt>
</event>
<event>
 7    0  0.4691878E-002  0.4527203E+03  0.7546771E-02  0.1026914E+00
         21   -1    0    0  502  501  0.00000000000E+00  0.00000000000E+00  0.57476187297E+03  0.57476187297E+03  0.00000000000E+00 0. -1.
         21   -1    0    0  501  502 -0.00000000000E+00 -0.00000000000E+00 -0.89148094683E+02  0.89148094683E+02  0.00000000000E+00 0. -1.
      99926    2    1    2    0    0  0.00000000000E+00  0.00000000000E+00  0.48561377829E+03  0.66390996766E+03  0.45272033695E+03 0.  0.
      99925    2    3    3    0    0 -0.11558957869E+02  0.30808470960E+02  0.15066559757E+03  0.30485486986E+03  0.26297071699E+03 0.  0.
         25    1    4    4    0    0 -0.13337935645E+02  0.52268512564E+02  0.59911576998E+02  0.14881802005E+03  0.12509000000E+03 0.  0.
         25    1    4    4    0    0  0.17789777758E+01 -0.21460041604E+02  0.90754020574E+02  0.15603684981E+03  0.12509000000E+03 0.  0.
         25    1    3    3    0    0  0.11558957869E+02 -0.30808470960E+02  0.33494818072E+03  0.35905509780E+03  0.12509000000E+03 0.  0.
<mgrwt>
<rscale>  2 0.45272034E+03</rscale>
<asrwt>0</asrwt>
<pdfrwt beam="1">  1       21 0.84523803E-01 0.45272034E+03</pdfrwt>
<pdfrwt beam="2">  1       21 0.13110014E-01 0.45272034E+03</pdfrwt>
<totfact> 0.55904382E+04</totfact>
</mgrwt>
</event>
<event>
 7    0  0.4691878E-002  0.4529860E+03  0.7546771E-02  0.1026835E+00
         21   -1    0    0  502  501  0.00000000000E+00  0.00000000000E+00  0.22555628093E+03  0.22555628093E+03  0.00000000000E+00 0. -1.
         21   -1    0    0  501  502 -0.00000000000E+00 -0.00000000000E+00 -0.22743364414E+03  0.22743364414E+03  0.00000000000E+00 0. -1.
      99926    2    1    2    0    0  0.00000000000E+00 -0.14210854715E-13 -0.18773632130E+01  0.45298992507E+03  0.45298603479E+03 0.  0.
      99925    2    3    3    0    0  0.33609497572E+02 -0.75410733702E+02 -0.75779534120E+02  0.28588093055E+03  0.26299998398E+03 0.  0.
         25    1    4    4    0    0  0.33119042927E+02 -0.69631104082E+02 -0.18250877539E+02  0.14807418509E+03  0.12509000000E+03 0.  0.
         25    1    4    4    0    0  0.49045464562E+00 -0.57796296201E+01 -0.57528656582E+02  0.13780674545E+03  0.12509000000E+03 0.  0.
         25    1    3    3    0    0 -0.33609497572E+02  0.75410733702E+02  0.73902170908E+02  0.16710899452E+03  0.12509000000E+03 0.  0.
<mgrwt>
<rscale>  2 0.45298603E+03</rscale>
<asrwt>0</asrwt>
<pdfrwt beam="1">  1       21 0.33170041E-01 0.45298603E+03</pdfrwt>
<pdfrwt beam="2">  1       21 0.33446124E-01 0.45298603E+03</pdfrwt>
<totfact> 0.69808346E+04</totfact>
</mgrwt>
</event>
<event>
 7    0  0.4691878E-002  0.4528442E+03  0.7546771E-02  0.1026877E+00
         21   -1    0    0  502  501  0.00000000000E+00  0.00000000000E+00  0.30482127621E+03  0.30482127621E+03  0.00000000000E+00 0.  1.
         21   -1    0    0  501  502 -0.00000000000E+00 -0.00000000000E+00 -0.16818696091E+03  0.16818696091E+03  0.00000000000E+00 0.  1.
      99926    2    1    2    0    0  0.71054273576E-14  0.00000000000E+00  0.13663431530E+03  0.47300823713E+03  0.45284418542E+03 0.  0.
      99925    2    3    3    0    0 -0.51091341007E+02  0.23666184537E+01 -0.17017998546E+02  0.26838060542E+03  0.26291179335E+03 0.  0.
         25    1    4    4    0    0  0.11699896752E+02 -0.31720846571E+01 -0.24761128800E+02  0.12809204232E+03  0.12509000000E+03 0.  0.
         25    1    4    4    0    0 -0.62791237759E+02  0.55387031107E+01  0.77431302541E+01  0.14028856310E+03  0.12509000000E+03 0.  0.
         25    1    3    3    0    0  0.51091341007E+02 -0.23666184537E+01  0.15365231385E+03  0.20462763171E+03  0.12509000000E+03 0.  0.
<mgrwt>
<rscale>  2 0.45284419E+03</rscale>
<asrwt>0</asrwt>
<pdfrwt beam="1">  1       21 0.44826658E-01 0.45284419E+03</pdfrwt>
<pdfrwt beam="2">  1       21 0.24733377E-01 0.45284419E+03</pdfrwt>
<totfact> 0.68374954E+04</totfact>
</mgrwt>
</event>
<event>
 7    0  0.4691878E-002  0.4490379E+03  0.7546771E-02  0.1028009E+00
         21   -1    0    0  502  501  0.00000000000E+00  0.00000000000E+00  0.14802033640E+03  0.14802033640E+03  0.00000000000E+00 0. -1.
         21   -1    0    0  501  502 -0.00000000000E+00 -0.00000000000E+00 -0.34055298053E+03  0.34055298053E+03  0.00000000000E+00 0. -1.
      99926    2    1    2    0    0 -0.17763568394E-14  0.00000000000E+00 -0.19253264413E+03  0.48857331692E+03  0.44903793487E+03 0.  0.
      99925    2    3    3    0    0  0.74370291174E+01  0.10331122820E+03 -0.15302303704E+03  0.32142955716E+03  0.26300644684E+03 0.  0.
         25    1    4    4    0    0  0.16690651758E+02  0.89937844490E+02 -0.10103006925E+03  0.18499182879E+03  0.12509000000E+03 0.  0.
         25    1    3    3    0    0 -0.74370291174E+01 -0.10331122820E+03 -0.39509607097E+02  0.16714375976E+03  0.12509000000E+03 0.  0.
         25    1    4    4    0    0 -0.92536226405E+01  0.13373383706E+02 -0.51992967786E+02  0.13643772837E+03  0.12509000000E+03 0.  0.
<mgrwt>
<rscale>  2 0.44903793E+03</rscale>
<asrwt>0</asrwt>
<pdfrwt beam="1">  1       21 0.21767697E-01 0.44903793E+03</pdfrwt>
<pdfrwt beam="2">  1       21 0.50081320E-01 0.44903793E+03</pdfrwt>
<totfact> 0.69303693E+04</totfact>
</mgrwt>
</event>
<event>
 7    0  0.4691878E-002  0.4549680E+03  0.7546771E-02  0.1026251E+00
         21   -1    0    0  502  501  0.00000000000E+00  0.00000000000E+00  0.14223324758E+04  0.14223324758E+04  0.00000000000E+00 0.  1.
         21   -1    0    0  501  502 -0.00000000000E+00 -0.00000000000E+00 -0.36383171830E+02  0.36383171830E+02  0.00000000000E+00 0.  1.
      99926    2    1    2    0    0  0.00000000000E+00  0.00000000000E+00  0.13859493039E+04  0.14587156476E+04  0.45496798509E+03 0.  0.
      99925    2    3    3    0    0  0.11076297948E+03  0.22749458501E+02  0.87015842588E+03  0.91606132533E+03  0.26307164453E+03 0.  0.
         25    1    4    4    0    0  0.88422968512E+02 -0.12671572900E+02  0.43574482000E+03  0.46206086869E+03  0.12509000000E+03 0.  0.
         25    1    4    4    0    0  0.22340010966E+02  0.35421031401E+02  0.43441360588E+03  0.45400045664E+03  0.12509000000E+03 0.  0.
         25    1    3    3    0    0 -0.11076297948E+03 -0.22749458501E+02  0.51579087806E+03  0.54265432226E+03  0.12509000000E+03 0.  0.
<mgrwt>
<rscale>  2 0.45496799E+03</rscale>
<asrwt>0</asrwt>
<pdfrwt beam="1">  1       21 0.20916650E+00 0.45496799E+03</pdfrwt>
<pdfrwt beam="2">  1       21 0.53504674E-02 0.45496799E+03</pdfrwt>
<totfact> 0.24814556E+04</totfact>
</mgrwt>
</event>
<event>
 6    0  0.4691878E-002  0.4246155E+03  0.7546771E-02  0.1035575E+00
         21   -1    0    0  502  501  0.00000000000E+00  0.00000000000E+00  0.40277469246E+03  0.40277469246E+03  0.00000000000E+00 0. -1.
         21   -1    0    0  501  502 -0.00000000000E+00 -0.00000000000E+00 -0.11191017825E+03  0.11191017825E+03  0.00000000000E+00 0. -1.
      99926    2    1    2    0    0 -0.17763568394E-14  0.00000000000E+00  0.29086451421E+03  0.51468487070E+03  0.42461553257E+03 0.  0.
         25    1    3    3    0    0 -0.27214551484E+02 -0.48069038188E+02  0.98986679130E+02  0.16881094452E+03  0.12509000000E+03 0.  0.
         25    1    3    3    0    0  0.38404229257E+02 -0.18849179585E+02  0.40864024904E+02  0.13837468348E+03  0.12509000000E+03 0.  0.
         25    1    3    3    0    0 -0.11189677773E+02  0.66918217774E+02  0.15101381018E+03  0.20749924271E+03  0.12509000000E+03 0.  0.
<mgrwt>
<rscale>  2 0.42461553E+03</rscale>
<asrwt>0</asrwt>
<pdfrwt beam="1">  1       21 0.59231572E-01 0.42461553E+03</pdfrwt>
<pdfrwt beam="2">  1       21 0.16457379E-01 0.42461553E+03</pdfrwt>
<totfact> 0.82361783E+04</totfact>
</mgrwt>
</event>
<event>
 7    0  0.4691878E-002  0.4945911E+03  0.7546771E-02  0.1015200E+00
         21   -1    0    0  502  501  0.00000000000E+00  0.00000000000E+00  0.85043170030E+03  0.85043170030E+03  0.00000000000E+00 0.  1.
         21   -1    0    0  501  502 -0.00000000000E+00 -0.00000000000E+00 -0.71910650105E+02  0.71910650105E+02  0.00000000000E+00 0.  1.
      99926    2    1    2    0    0  0.00000000000E+00  0.00000000000E+00  0.77852105019E+03  0.92234235040E+03  0.49459112988E+03 0.  0.
      99925    2    3    3    0    0 -0.91079237498E+02  0.49096676544E+01  0.68999621115E+03  0.74400646627E+03  0.26292835168E+03 0.  0.
         25    1    3    3    0    0  0.91079237498E+02 -0.49096676544E+01  0.88524839042E+02  0.17833588413E+03  0.12509000000E+03 0.  0.
         25    1    4    4    0    0 -0.44798825109E+01  0.13003598501E+02  0.30223148221E+03  0.32738439160E+03  0.12509000000E+03 0.  0.
         25    1    4    4    0    0 -0.86599354987E+02 -0.80939308463E+01  0.38776472893E+03  0.41662207467E+03  0.12509000000E+03 0.  0.
<mgrwt>
<rscale>  2 0.49459113E+03</rscale>
<asrwt>0</asrwt>
<pdfrwt beam="1">  1       21 0.12506348E+00 0.49459113E+03</pdfrwt>
<pdfrwt beam="2">  1       21 0.10575096E-01 0.49459113E+03</pdfrwt>
<totfact> 0.31370039E+04</totfact>
</mgrwt>
</event>
<event>
 7    0  0.4691878E-002  0.4759918E+03  0.7546771E-02  0.1020243E+00
         21   -1    0    0  502  501  0.00000000000E+00  0.00000000000E+00  0.23134051843E+03  0.23134051843E+03  0.00000000000E+00 0.  1.
         21   -1    0    0  501  502 -0.00000000000E+00 -0.00000000000E+00 -0.24484274455E+03  0.24484274455E+03  0.00000000000E+00 0.  1.
      99926    2    1    2    0    0 -0.14210854715E-13  0.35527136788E-14 -0.13502226127E+02  0.47618326298E+03  0.47599179597E+03 0.  0.
      99925    2    3    3    0    0 -0.73899057631E+02  0.22798522883E+02  0.98506090715E+02  0.29132057203E+03  0.26302734157E+03 0.  0.
         25    1    4    4    0    0 -0.58175012449E+02  0.46869157870E+02  0.56468227310E+02  0.15626009992E+03  0.12509000000E+03 0.  0.
         25    1    4    4    0    0 -0.15724045182E+02 -0.24070634988E+02  0.42037863405E+02  0.13506047211E+03  0.12509000000E+03 0.  0.
         25    1    3    3    0    0  0.73899057631E+02 -0.22798522883E+02 -0.11200831684E+03  0.18486269095E+03  0.12509000000E+03 0.  0.
<mgrwt>
<rscale>  2 0.47599180E+03</rscale>
<asrwt>0</asrwt>
<pdfrwt beam="1">  1       21 0.34020665E-01 0.47599180E+03</pdfrwt>
<pdfrwt beam="2">  1       21 0.36006286E-01 0.47599180E+03</pdfrwt>
<totfact> 0.56880159E+04</totfact>
</mgrwt>
</event>
<event>
 7    0  0.4691878E-002  0.4508447E+03  0.7546771E-02  0.1027470E+00
         21   -1    0    0  502  501  0.00000000000E+00  0.00000000000E+00  0.15513459204E+03  0.15513459204E+03  0.00000000000E+00 0.  1.
         21   -1    0    0  501  502 -0.00000000000E+00 -0.00000000000E+00 -0.32755583012E+03  0.32755583012E+03  0.00000000000E+00 0.  1.
      99926    2    1    2    0    0  0.00000000000E+00 -0.14210854715E-13 -0.17242123808E+03  0.48269042216E+03  0.45084471861E+03 0.  0.
      99925    2    3    3    0    0 -0.45900979608E+02  0.82006993046E+02 -0.16871697055E+03  0.32618714253E+03  0.26286990882E+03 0.  0.
         25    1    4    4    0    0 -0.31905249087E+02  0.67416481651E+02 -0.12566645264E+03  0.19236031903E+03  0.12509000000E+03 0.  0.
         25    1    3    3    0    0  0.45900979608E+02 -0.82006993046E+02 -0.37042675370E+01  0.15650327963E+03  0.12509000000E+03 0.  0.
         25    1    4    4    0    0 -0.13995730522E+02  0.14590511394E+02 -0.43050517911E+02  0.13382682350E+03  0.12509000000E+03 0.  0.
<mgrwt>
<rscale>  2 0.45084472E+03</rscale>
<asrwt>0</asrwt>
<pdfrwt beam="1">  1       21 0.22813910E-01 0.45084472E+03</pdfrwt>
<pdfrwt beam="2">  1       21 0.48169975E-01 0.45084472E+03</pdfrwt>
<totfact> 0.68744561E+04</totfact>
</mgrwt>
</event>
<event>
 7    0  0.4691878E-002  0.4515248E+03  0.7546771E-02  0.1027268E+00
         21   -1    0    0  502  501  0.00000000000E+00  0.00000000000E+00  0.76004596308E+03  0.76004596308E+03  0.00000000000E+00 0. -1.
         21   -1    0    0  501  502 -0.00000000000E+00 -0.00000000000E+00 -0.67059961535E+02  0.67059961535E+02  0.00000000000E+00 0. -1.
      99926    2    1    2    0    0  0.88817841970E-15  0.00000000000E+00  0.69298600154E+03  0.82710592461E+03  0.45152476366E+03 0.  0.
      99925    2    3    3    0    0  0.57965783319E+01  0.84378858418E+02  0.31073507875E+03  0.41611119454E+03  0.26351251392E+03 0.  0.
         25    1    3    3    0    0 -0.57965783319E+01 -0.84378858418E+02  0.38225092280E+03  0.41099473007E+03  0.12509000000E+03 0.  0.
         25    1    4    4    0    0 -0.15152212039E+02  0.44708260573E+02  0.99947170336E+02  0.16692921569E+03  0.12509000000E+03 0.  0.
         25    1    4    4    0    0  0.20948790371E+02  0.39670597845E+02  0.21078790841E+03  0.24918197885E+03  0.12509000000E+03 0.  0.
<mgrwt>
<rscale>  2 0.45152476E+03</rscale>
<asrwt>0</asrwt>
<pdfrwt beam="1">  1       21 0.11177146E+00 0.45152476E+03</pdfrwt>
<pdfrwt beam="2">  1       21 0.98617595E-02 0.45152476E+03</pdfrwt>
<totfact> 0.47770846E+04</totfact>
</mgrwt>
</event>
<event>
 7    0  0.4691878E-002  0.4548293E+03  0.7546771E-02  0.1026292E+00
         21   -1    0    0  502  501  0.00000000000E+00  0.00000000000E+00  0.19852894586E+03  0.19852894586E+03  0.00000000000E+00 0.  1.
         21   -1    0    0  501  502 -0.00000000000E+00 -0.00000000000E+00 -0.26050315503E+03  0.26050315503E+03  0.00000000000E+00 0.  1.
      99926    2    1    2    0    0  0.00000000000E+00  0.00000000000E+00 -0.61974209172E+02  0.45903210090E+03  0.45482927242E+03 0.  0.
      99925    2    3    3    0    0 -0.79475764370E+02  0.67825843186E+02  0.48276516810E+01  0.28288801545E+03  0.26284136078E+03 0.  0.
         25    1    4    4    0    0 -0.67663002755E+02  0.13744840390E+02  0.23596112350E+02  0.14481535553E+03  0.12509000000E+03 0.  0.
         25    1    4    4    0    0 -0.11812761615E+02  0.54081002796E+02 -0.18768460669E+02  0.13807265992E+03  0.12509000000E+03 0.  0.
         25    1    3    3    0    0  0.79475764370E+02 -0.67825843186E+02 -0.66801860853E+02  0.17614408545E+03  0.12509000000E+03 0.  0.
<mgrwt>
<rscale>  2 0.45482927E+03</rscale>
<asrwt>0</asrwt>
<pdfrwt beam="1">  1       21 0.29195433E-01 0.45482927E+03</pdfrwt>
<pdfrwt beam="2">  1       21 0.38309287E-01 0.45482927E+03</pdfrwt>
<totfact> 0.68344169E+04</totfact>
</mgrwt>
</event>
<event>
 7    0  0.4691878E-002  0.4585614E+03  0.7546771E-02  0.1025199E+00
         21   -1    0    0  502  501  0.00000000000E+00  0.00000000000E+00  0.23500616345E+04  0.23500616345E+04  0.00000000000E+00 0. -1.
         21   -1    0    0  501  502 -0.00000000000E+00 -0.00000000000E+00 -0.22369472129E+02  0.22369472129E+02  0.00000000000E+00 0. -1.
      99926    2    1    2    0    0  0.00000000000E+00  0.00000000000E+00  0.23276921624E+04  0.23724311066E+04  0.45856139495E+03 0.  0.
      99925    2    3    3    0    0 -0.42966207855E+02 -0.10564964385E+03  0.15823048356E+04  0.16080635791E+04  0.26300558762E+03 0.  0.
         25    1    4    4    0    0 -0.42194301598E+02 -0.65228801241E+02  0.10213788956E+04  0.10319387153E+04  0.12509000000E+03 0.  0.
         25    1    3    3    0    0  0.42966207855E+02  0.10564964385E+03  0.74538732674E+03  0.76436752758E+03  0.12509000000E+03 0.  0.
         25    1    4    4    0    0 -0.77190625668E+00 -0.40420842612E+02  0.56092594003E+03  0.57612486377E+03  0.12509000000E+03 0.  0.
<mgrwt>
<rscale>  2 0.45856139E+03</rscale>
<asrwt>0</asrwt>
<pdfrwt beam="1">  1       21 0.34559713E+00 0.45856139E+03</pdfrwt>
<pdfrwt beam="2">  1       21 0.32896299E-02 0.45856139E+03</pdfrwt>
<totfact> 0.82946860E+03</totfact>
</mgrwt>
</event>
<event>
 7    0  0.4691878E-002  0.4711848E+03  0.7546771E-02  0.1021586E+00
         21   -1    0    0  502  501  0.00000000000E+00  0.00000000000E+00  0.99311120140E+02  0.99311120140E+02  0.00000000000E+00 0. -1.
         21   -1    0    0  501  502 -0.00000000000E+00 -0.00000000000E+00 -0.55888791420E+03  0.55888791420E+03  0.00000000000E+00 0. -1.
      99926    2    1    2    0    0  0.00000000000E+00  0.00000000000E+00 -0.45957679406E+03  0.65819903434E+03  0.47118482485E+03 0.  0.
      99925    2    3    3    0    0 -0.17326173119E+02  0.12648123586E+03 -0.27815267188E+03  0.40352292727E+03  0.26299076916E+03 0.  0.
         25    1    3    3    0    0  0.17326173119E+02 -0.12648123586E+03 -0.18142412218E+03  0.25467610706E+03  0.12509000000E+03 0.  0.
         25    1    4    4    0    0 -0.40730923192E+02  0.72927159144E+02 -0.17749177265E+03  0.23265471434E+03  0.12509000000E+03 0.  0.
         25    1    4    4    0    0  0.23404750073E+02  0.53554076717E+02 -0.10066089923E+03  0.17086821294E+03  0.12509000000E+03 0.  0.
<mgrwt>
<rscale>  2 0.47118482E+03</rscale>
<asrwt>0</asrwt>
<pdfrwt beam="1">  1       21 0.14604576E-01 0.47118482E+03</pdfrwt>
<pdfrwt beam="2">  1       21 0.82189400E-01 0.47118482E+03</pdfrwt>
<totfact> 0.48708889E+04</totfact>
</mgrwt>
</event>
<event>
 7    0  0.4691878E-002  0.4479218E+03  0.7546771E-02  0.1028344E+00
         21   -1    0    0  502  501  0.00000000000E+00  0.00000000000E+00  0.71028531069E+03  0.71028531069E+03  0.00000000000E+00 0. -1.
         21   -1    0    0  501  502 -0.00000000000E+00 -0.00000000000E+00 -0.70617376374E+02  0.70617376374E+02  0.00000000000E+00 0. -1.
      99926    2    1    2    0    0  0.35527136788E-14  0.00000000000E+00  0.63966793431E+03  0.78090268706E+03  0.44792180174E+03 0.  0.
      99925    2    3    3    0    0 -0.30848295876E+02  0.77398182405E+02  0.28893062392E+03  0.39931879720E+03  0.26274036683E+03 0.  0.
         25    1    4    4    0    0 -0.23156018323E+02 -0.10568699908E+01  0.12101168778E+03  0.17558090681E+03  0.12509000000E+03 0.  0.
         25    1    4    4    0    0 -0.76922775527E+01  0.78455052396E+02  0.16791893614E+03  0.22373789039E+03  0.12509000000E+03 0.  0.
         25    1    3    3    0    0  0.30848295876E+02 -0.77398182405E+02  0.35073731039E+03  0.38158388986E+03  0.12509000000E+03 0.  0.
<mgrwt>
<rscale>  2 0.44792180E+03</rscale>
<asrwt>0</asrwt>
<pdfrwt beam="1">  1       21 0.10445372E+00 0.44792180E+03</pdfrwt>
<pdfrwt beam="2">  1       21 0.10384909E-01 0.44792180E+03</pdfrwt>
<totfact> 0.51504896E+04</totfact>
</mgrwt>
</event>
<event>
 7    0  0.4691878E-002  0.4570032E+03  0.7546771E-02  0.1025654E+00
         21   -1    0    0  502  501  0.00000000000E+00  0.00000000000E+00  0.73344866868E+03  0.73344866868E+03  0.00000000000E+00 0. -1.
         21   -1    0    0  501  502 -0.00000000000E+00 -0.00000000000E+00 -0.71188324866E+02  0.71188324866E+02  0.00000000000E+00 0. -1.
      99926    2    1    2    0    0  0.35527136788E-14  0.00000000000E+00  0.66226034381E+03  0.80463699354E+03  0.45700320392E+03 0.  0.
      99925    2    3    3    0    0  0.10547552483E+02  0.35323370220E+02  0.60787974146E+03  0.66334386080E+03  0.26296065531E+03 0.  0.
         25    1    4    4    0    0 -0.25396709970E+02  0.18379891852E+02  0.23529148537E+03  0.26831400353E+03  0.12509000000E+03 0.  0.
         25    1    4    4    0    0  0.35944262453E+02  0.16943478368E+02  0.37258825609E+03  0.39502985727E+03  0.12509000000E+03 0.  0.
         25    1    3    3    0    0 -0.10547552483E+02 -0.35323370220E+02  0.54380602351E+02  0.14129313274E+03  0.12509000000E+03 0.  0.
<mgrwt>
<rscale>  2 0.45700320E+03</rscale>
<asrwt>0</asrwt>
<pdfrwt beam="1">  1       21 0.10786009E+00 0.45700320E+03</pdfrwt>
<pdfrwt beam="2">  1       21 0.10468872E-01 0.45700320E+03</pdfrwt>
<totfact> 0.46801266E+04</totfact>
</mgrwt>
</event>
<event>
 7    0  0.4691878E-002  0.4587525E+03  0.7546771E-02  0.1025144E+00
         21   -1    0    0  502  501  0.00000000000E+00  0.00000000000E+00  0.26129508771E+03  0.26129508771E+03  0.00000000000E+00 0. -1.
         21   -1    0    0  501  502 -0.00000000000E+00 -0.00000000000E+00 -0.20135649167E+03  0.20135649167E+03  0.00000000000E+00 0. -1.
      99926    2    1    2    0    0  0.00000000000E+00  0.00000000000E+00  0.59938596040E+02  0.46265157938E+03  0.45875249166E+03 0.  0.
      99925    2    3    3    0    0  0.88671530798E+01 -0.11464107108E+03  0.17742926190E+02  0.28758249519E+03  0.26299748769E+03 0.  0.
         25    1    4    4    0    0  0.12454089094E+00 -0.13619524033E+02  0.12831336839E+02  0.12648184949E+03  0.12509000000E+03 0.  0.
         25    1    4    4    0    0  0.87426121888E+01 -0.10102154705E+03  0.49115893511E+01  0.16110064570E+03  0.12509000000E+03 0.  0.
         25    1    3    3    0    0 -0.88671530798E+01  0.11464107108E+03  0.42195669850E+02  0.17506908418E+03  0.12509000000E+03 0.  0.
<mgrwt>
<rscale>  2 0.45875249E+03</rscale>
<asrwt>0</asrwt>
<pdfrwt beam="1">  1       21 0.38425748E-01 0.45875249E+03</pdfrwt>
<pdfrwt beam="2">  1       21 0.29611249E-01 0.45875249E+03</pdfrwt>
<totfact> 0.65990717E+04</totfact>
</mgrwt>
</event>
<event>
 7    0  0.4691878E-002  0.4531205E+03  0.7546771E-02  0.1026796E+00
         21   -1    0    0  502  501  0.00000000000E+00  0.00000000000E+00  0.41250217891E+02  0.41250217891E+02  0.00000000000E+00 0. -1.
         21   -1    0    0  501  502 -0.00000000000E+00 -0.00000000000E+00 -0.12443458884E+04  0.12443458884E+04  0.00000000000E+00 0. -1.
      99926    2    1    2    0    0  0.00000000000E+00 -0.71054273576E-14 -0.12030956705E+04  0.12855961063E+04  0.45312046535E+03 0.  0.
      99925    2    3    3    0    0  0.64718219755E+02 -0.57549085603E+02 -0.95699910143E+03  0.99626692589E+03  0.26305923717E+03 0.  0.
         25    1    4    4    0    0  0.16161595600E+02 -0.65311277985E+02 -0.52169514956E+03  0.54068484109E+03  0.12509000000E+03 0.  0.
         25    1    3    3    0    0 -0.64718219755E+02  0.57549085603E+02 -0.24609656910E+03  0.28932918042E+03  0.12509000000E+03 0.  0.
         25    1    4    4    0    0  0.48556624154E+02  0.77621923813E+01 -0.43530395187E+03  0.45558208481E+03  0.12509000000E+03 0.  0.
<mgrwt>
<rscale>  2 0.45312047E+03</rscale>
<asrwt>0</asrwt>
<pdfrwt beam="1">  1       21 0.60662079E-02 0.45312047E+03</pdfrwt>
<pdfrwt beam="2">  1       21 0.18299206E+00 0.45312047E+03</pdfrwt>
<totfact> 0.29971734E+04</totfact>
</mgrwt>
</event>
<event>
 7    0  0.4691878E-002  0.4439801E+03  0.7546771E-02  0.1029533E+00
         21   -1    0    0  502  501  0.00000000000E+00  0.00000000000E+00  0.72947420651E+03  0.72947420651E+03  0.00000000000E+00 0.  1.
         21   -1    0    0  501  502 -0.00000000000E+00 -0.00000000000E+00 -0.67554934503E+02  0.67554934503E+02  0.00000000000E+00 0.  1.
      99926    2    1    2    0    0  0.00000000000E+00  0.35527136788E-14  0.66191927201E+03  0.79702914101E+03  0.44398009974E+03 0.  0.
      99925    2    3    3    0    0 -0.30647960923E+02  0.24431705074E+02  0.59088714314E+03  0.64793428143E+03  0.26293537497E+03 0.  0.
         25    1    4    4    0    0 -0.16975492493E+02 -0.27493524516E+02  0.26756113295E+03  0.29712039513E+03  0.12509000000E+03 0.  0.
         25    1    3    3    0    0  0.30647960923E+02 -0.24431705074E+02  0.71032128873E+02  0.14909485958E+03  0.12509000000E+03 0.  0.
         25    1    4    4    0    0 -0.13672468430E+02  0.51925229590E+02  0.32332601019E+03  0.35081388631E+03  0.12509000000E+03 0.  0.
<mgrwt>
<rscale>  2 0.44398010E+03</rscale>
<asrwt>0</asrwt>
<pdfrwt beam="1">  1       21 0.10727561E+00 0.44398010E+03</pdfrwt>
<pdfrwt beam="2">  1       21 0.99345496E-02 0.44398010E+03</pdfrwt>
<totfact> 0.52286288E+04</totfact>
</mgrwt>
</event>
<event>
 7    0  0.4691878E-002  0.4659569E+03  0.7546771E-02  0.1023068E+00
         21   -1    0    0  502  501  0.00000000000E+00  0.00000000000E+00  0.90617441170E+02  0.90617441170E+02  0.00000000000E+00 0. -1.
         21   -1    0    0  501  502 -0.00000000000E+00 -0.00000000000E+00 -0.59899023819E+03  0.59899023819E+03  0.00000000000E+00 0. -1.
      99926    2    1    2    0    0  0.00000000000E+00  0.00000000000E+00 -0.50837279702E+03  0.68960767936E+03  0.46595691934E+03 0.  0.
      99925    2    3    3    0    0 -0.10204733950E+03 -0.42408948725E+02 -0.23597293076E+03  0.37013722115E+03  0.26288050517E+03 0.  0.
         25    1    4    4    0    0 -0.56315294867E+02 -0.40757090687E+02 -0.76220236509E+02  0.16214063473E+03  0.12509000000E+03 0.  0.
         25    1    4    4    0    0 -0.45732044633E+02 -0.16518580379E+01 -0.15975269426E+03  0.20799658642E+03  0.12509000000E+03 0.  0.
         25    1    3    3    0    0  0.10204733950E+03  0.42408948725E+02 -0.27239986625E+03  0.31947045820E+03  0.12509000000E+03 0.  0.
<mgrwt>
<rscale>  2 0.46595692E+03</rscale>
<asrwt>0</asrwt>
<pdfrwt beam="1">  1       21 0.13326094E-01 0.46595692E+03</pdfrwt>
<pdfrwt beam="2">  1       21 0.88086805E-01 0.46595692E+03</pdfrwt>
<totfact> 0.49094952E+04</totfact>
</mgrwt>
</event>
<event>
 7    0  0.4691878E-002  0.4600126E+03  0.7546771E-02  0.1024778E+00
         21   -1    0    0  502  501  0.00000000000E+00  0.00000000000E+00  0.47683407731E+03  0.47683407731E+03  0.00000000000E+00 0.  1.
         21   -1    0    0  501  502 -0.00000000000E+00 -0.00000000000E+00 -0.11094615263E+03  0.11094615263E+03  0.00000000000E+00 0.  1.
      99926    2    1    2    0    0  0.00000000000E+00  0.00000000000E+00  0.36588792468E+03  0.58778022994E+03  0.46001263601E+03 0.  0.
      99925    2    3    3    0    0  0.81670022192E+02 -0.19848294054E+02  0.12372904274E+03  0.30255684467E+03  0.26299775843E+03 0.  0.
         25    1    4    4    0    0  0.43201195072E+02 -0.24032977612E+02  0.10425547563E+03  0.17017825821E+03  0.12509000000E+03 0.  0.
         25    1    4    4    0    0  0.38468827120E+02  0.41846835580E+01  0.19473567100E+02  0.13237858646E+03  0.12509000000E+03 0.  0.
         25    1    3    3    0    0 -0.81670022192E+02  0.19848294054E+02  0.24215888195E+03  0.28522338528E+03  0.12509000000E+03 0.  0.
<mgrwt>
<rscale>  2 0.46001264E+03</rscale>
<asrwt>0</asrwt>
<pdfrwt beam="1">  1       21 0.70122658E-01 0.46001264E+03</pdfrwt>
<pdfrwt beam="2">  1       21 0.16315611E-01 0.46001264E+03</pdfrwt>
<totfact> 0.57139034E+04</totfact>
</mgrwt>
</event>
<event>
 7    0  0.4691878E-002  0.4573236E+03  0.7546771E-02  0.1025560E+00
         21   -1    0    0  502  501  0.00000000000E+00  0.00000000000E+00  0.72028987175E+03  0.72028987175E+03  0.00000000000E+00 0. -1.
         21   -1    0    0  501  502 -0.00000000000E+00 -0.00000000000E+00 -0.72590517810E+02  0.72590517810E+02  0.00000000000E+00 0. -1.
      99926    2    1    2    0    0  0.00000000000E+00  0.00000000000E+00  0.64769935394E+03  0.79288038956E+03  0.45732358244E+03 0.  0.
      99925    2    3    3    0    0 -0.38303102095E+02 -0.19796687705E+02  0.22050814588E+03  0.34566805429E+03  0.26268522014E+03 0.  0.
         25    1    4    4    0    0  0.20892322588E+02 -0.37408606675E+01  0.10406946674E+03  0.16409888845E+03  0.12509000000E+03 0.  0.
         25    1    3    3    0    0  0.38303102095E+02  0.19796687705E+02  0.42719120806E+03  0.44721233527E+03  0.12509000000E+03 0.  0.
         25    1    4    4    0    0 -0.59195424682E+02 -0.16055827037E+02  0.11643867914E+03  0.18156916584E+03  0.12509000000E+03 0.  0.
<mgrwt>
<rscale>  2 0.45732358E+03</rscale>
<asrwt>0</asrwt>
<pdfrwt beam="1">  1       21 0.10592498E+00 0.45732358E+03</pdfrwt>
<pdfrwt beam="2">  1       21 0.10675077E-01 0.45732358E+03</pdfrwt>
<totfact> 0.47243672E+04</totfact>
</mgrwt>
</event>
<event>
 7    0  0.4691878E-002  0.4544539E+03  0.7546771E-02  0.1026402E+00
         21   -1    0    0  502  501  0.00000000000E+00  0.00000000000E+00  0.21403875014E+03  0.21403875014E+03  0.00000000000E+00 0.  1.
         21   -1    0    0  501  502 -0.00000000000E+00 -0.00000000000E+00 -0.24122770260E+03  0.24122770260E+03  0.00000000000E+00 0.  1.
      99926    2    1    2    0    0  0.00000000000E+00  0.00000000000E+00 -0.27188952461E+02  0.45526645275E+03  0.45445385229E+03 0.  0.
      99925    2    3    3    0    0 -0.96567765582E+02  0.37510394483E+02 -0.61507229573E+02  0.28926158749E+03  0.26297673598E+03 0.  0.
         25    1    4    4    0    0 -0.20631955439E+02  0.47385264642E+02 -0.19855067942E+02  0.13679463701E+03  0.12509000000E+03 0.  0.
         25    1    3    3    0    0  0.96567765582E+02 -0.37510394483E+02  0.34318277112E+02  0.16600486525E+03  0.12509000000E+03 0.  0.
         25    1    4    4    0    0 -0.75935810142E+02 -0.98748701589E+01 -0.41652161631E+02  0.15246695049E+03  0.12509000000E+03 0.  0.
<mgrwt>
<rscale>  2 0.45445385E+03</rscale>
<asrwt>0</asrwt>
<pdfrwt beam="1">  1       21 0.31476287E-01 0.45445385E+03</pdfrwt>
<pdfrwt beam="2">  1       21 0.35474662E-01 0.45445385E+03</pdfrwt>
<totfact> 0.68825738E+04</totfact>
</mgrwt>
</event>
<event>
 7    0  0.4691878E-002  0.4613031E+03  0.7546771E-02  0.1024404E+00
         21   -1    0    0  502  501  0.00000000000E+00  0.00000000000E+00  0.19533141597E+04  0.19533141597E+04  0.00000000000E+00 0.  1.
         21   -1    0    0  501  502 -0.00000000000E+00 -0.00000000000E+00 -0.27235830588E+02  0.27235830588E+02  0.00000000000E+00 0.  1.
      99926    2    1    2    0    0 -0.14210854715E-13  0.00000000000E+00  0.19260783292E+04  0.19805499903E+04  0.46130308275E+03 0.  0.
      99925    2    3    3    0    0 -0.80676597969E+02  0.86115128870E+02  0.11399496281E+04  0.11758324178E+04  0.26300606680E+03 0.  0.
         25    1    3    3    0    0  0.80676597969E+02 -0.86115128870E+02  0.78612870100E+03  0.80471757252E+03  0.12509000000E+03 0.  0.
         25    1    4    4    0    0 -0.29347939496E+02  0.67501365821E+02  0.71208757092E+03  0.72672825231E+03  0.12509000000E+03 0.  0.
         25    1    4    4    0    0 -0.51328658474E+02  0.18613763050E+02  0.42786205723E+03  0.44910416550E+03  0.12509000000E+03 0.  0.
<mgrwt>
<rscale>  2 0.46130308E+03</rscale>
<asrwt>0</asrwt>
<pdfrwt beam="1">  1       21 0.28725199E+00 0.46130308E+03</pdfrwt>
<pdfrwt beam="2">  1       21 0.40052705E-02 0.46130308E+03</pdfrwt>
<totfact> 0.13364111E+04</totfact>
</mgrwt>
</event>
<event>
 7    0  0.4691878E-002  0.4560423E+03  0.7546771E-02  0.1025935E+00
         21   -1    0    0  502  501  0.00000000000E+00  0.00000000000E+00  0.14103937015E+04  0.14103937015E+04  0.00000000000E+00 0.  1.
         21   -1    0    0  501  502 -0.00000000000E+00 -0.00000000000E+00 -0.36864628366E+02  0.36864628366E+02  0.00000000000E+00 0.  1.
      99926    2    1    2    0    0 -0.44408920985E-15 -0.14210854715E-13  0.13735290732E+04  0.14472583299E+04  0.45604227724E+03 0.  0.
      99925    2    3    3    0    0 -0.30580404421E+01 -0.11406596989E+03  0.85104023748E+03  0.89802023161E+03  0.26296473807E+03 0.  0.
         25    1    4    4    0    0 -0.11048673506E+01 -0.30689188705E+02  0.29258626265E+03  0.31968308717E+03  0.12509000000E+03 0.  0.
         25    1    3    3    0    0  0.30580404421E+01  0.11406596989E+03  0.52248883570E+03  0.54923809830E+03  0.12509000000E+03 0.  0.
         25    1    4    4    0    0 -0.19531730915E+01 -0.83376781184E+02  0.55845397483E+03  0.57833714443E+03  0.12509000000E+03 0.  0.
<mgrwt>
<rscale>  2 0.45604228E+03</rscale>
<asrwt>0</asrwt>
<pdfrwt beam="1">  1       21 0.20741080E+00 0.45604228E+03</pdfrwt>
<pdfrwt beam="2">  1       21 0.54212698E-02 0.45604228E+03</pdfrwt>
<totfact> 0.24897180E+04</totfact>
</mgrwt>
</event>
<event>
 7    0  0.4691878E-002  0.4600213E+03  0.7546771E-02  0.1024775E+00
         21   -1    0    0  502  501  0.00000000000E+00  0.00000000000E+00  0.22176165330E+03  0.22176165330E+03  0.00000000000E+00 0.  1.
         21   -1    0    0  501  502 -0.00000000000E+00 -0.00000000000E+00 -0.23856651300E+03  0.23856651300E+03  0.00000000000E+00 0.  1.
      99926    2    1    2    0    0  0.00000000000E+00  0.00000000000E+00 -0.16804859691E+02  0.46032816630E+03  0.46002132274E+03 0.  0.
      99925    2    3    3    0    0 -0.11976844103E+02  0.11122076334E+03  0.26636120144E+02  0.28698420240E+03  0.26293905479E+03 0.  0.
         25    1    3    3    0    0  0.11976844103E+02 -0.11122076334E+03 -0.43440979835E+02  0.17334396390E+03  0.12509000000E+03 0.  0.
         25    1    4    4    0    0  0.73115267292E+01  0.73679863764E+02  0.48352518342E+02  0.15319156268E+03  0.12509000000E+03 0.  0.
         25    1    4    4    0    0 -0.19288370832E+02  0.37540899577E+02 -0.21716398197E+02  0.13379263971E+03  0.12509000000E+03 0.  0.
<mgrwt>
<rscale>  2 0.46002132E+03</rscale>
<asrwt>0</asrwt>
<pdfrwt beam="1">  1       21 0.32612008E-01 0.46002132E+03</pdfrwt>
<pdfrwt beam="2">  1       21 0.35083311E-01 0.46002132E+03</pdfrwt>
<totfact> 0.65493645E+04</totfact>
</mgrwt>
</event>
<event>
 7    0  0.4691878E-002  0.4508836E+03  0.7546771E-02  0.1027459E+00
         21   -1    0    0  502  501  0.00000000000E+00  0.00000000000E+00  0.29915213019E+03  0.29915213019E+03  0.00000000000E+00 0.  1.
         21   -1    0    0  501  502 -0.00000000000E+00 -0.00000000000E+00 -0.16989354452E+03  0.16989354452E+03  0.00000000000E+00 0.  1.
      99926    2    1    2    0    0  0.00000000000E+00  0.00000000000E+00  0.12925858567E+03  0.46904567471E+03  0.45088364685E+03 0.  0.
      99925    2    3    3    0    0  0.24182595902E+02  0.83481065794E+02  0.15060152912E+03  0.31523762672E+03  0.26294496466E+03 0.  0.
         25    1    4    4    0    0  0.50864802951E+02  0.53311671970E+02  0.71195358804E+02  0.16169616496E+03  0.12509000000E+03 0.  0.
         25    1    3    3    0    0 -0.24182595902E+02 -0.83481065794E+02 -0.21342943455E+02  0.15380804799E+03  0.12509000000E+03 0.  0.
         25    1    4    4    0    0 -0.26682207049E+02  0.30169393824E+02  0.79406170315E+02  0.15354146176E+03  0.12509000000E+03 0.  0.
<mgrwt>
<rscale>  2 0.45088365E+03</rscale>
<asrwt>0</asrwt>
<pdfrwt beam="1">  1       21 0.43992961E-01 0.45088365E+03</pdfrwt>
<pdfrwt beam="2">  1       21 0.24984345E-01 0.45088365E+03</pdfrwt>
<totfact> 0.69757230E+04</totfact>
</mgrwt>
</event>
<event>
 7    0  0.4691878E-002  0.4545081E+03  0.7546771E-02  0.1026386E+00
         21   -1    0    0  502  501  0.00000000000E+00  0.00000000000E+00  0.10477393543E+03  0.10477393543E+03  0.00000000000E+00 0.  1.
         21   -1    0    0  501  502 -0.00000000000E+00 -0.00000000000E+00 -0.49291277720E+03  0.49291277720E+03  0.00000000000E+00 0.  1.
      99926    2    1    2    0    0 -0.14210854715E-13  0.00000000000E+00 -0.38813884177E+03  0.59768671262E+03  0.45450813629E+03 0.  0.
      99925    2    3    3    0    0 -0.10140823558E+03  0.35878032245E+02 -0.28859457480E+03  0.40500191139E+03  0.26299972658E+03 0.  0.
         25    1    4    4    0    0 -0.87665280576E+02 -0.15241076033E+01 -0.14968374147E+03  0.21386971474E+03  0.12509000000E+03 0.  0.
         25    1    4    4    0    0 -0.13742955008E+02  0.37402139849E+02 -0.13891083333E+03  0.19113219665E+03  0.12509000000E+03 0.  0.
         25    1    3    3    0    0  0.10140823558E+03 -0.35878032245E+02 -0.99544266963E+02  0.19268480124E+03  0.12509000000E+03 0.  0.
<mgrwt>
<rscale>  2 0.45450814E+03</rscale>
<asrwt>0</asrwt>
<pdfrwt beam="1">  1       21 0.15407932E-01 0.45450814E+03</pdfrwt>
<pdfrwt beam="2">  1       21 0.72487170E-01 0.45450814E+03</pdfrwt>
<totfact> 0.59050052E+04</totfact>
</mgrwt>
</event>
<event>
 7    0  0.4691878E-002  0.4502683E+03  0.7546771E-02  0.1027642E+00
         21   -1    0    0  502  501  0.00000000000E+00  0.00000000000E+00  0.58421658448E+03  0.58421658448E+03  0.00000000000E+00 0.  1.
         21   -1    0    0  501  502 -0.00000000000E+00 -0.00000000000E+00 -0.86757878012E+02  0.86757878012E+02  0.00000000000E+00 0.  1.
      99926    2    1    2    0    0  0.71054273576E-14 -0.71054273576E-14  0.49745870647E+03  0.67097446249E+03  0.45026832519E+03 0.  0.
      99925    2    3    3    0    0 -0.60265087748E+02  0.28416005522E+02  0.18635733291E+03  0.32911056720E+03  0.26295505271E+03 0.  0.
         25    1    4    4    0    0 -0.57265878231E+02  0.42135575421E+02  0.11660854081E+03  0.18520217983E+03  0.12509000000E+03 0.  0.
         25    1    3    3    0    0  0.60265087748E+02 -0.28416005522E+02  0.31110137356E+03  0.34186389528E+03  0.12509000000E+03 0.  0.
         25    1    4    4    0    0 -0.29992095166E+01 -0.13719569899E+02  0.69748792101E+02  0.14390838737E+03  0.12509000000E+03 0.  0.
<mgrwt>
<rscale>  2 0.45026833E+03</rscale>
<asrwt>0</asrwt>
<pdfrwt beam="1">  1       21 0.85914202E-01 0.45026833E+03</pdfrwt>
<pdfrwt beam="2">  1       21 0.12758512E-01 0.45026833E+03</pdfrwt>
<totfact> 0.56587900E+04</totfact>
</mgrwt>
</event>
<event>
 7    0  0.4691878E-002  0.4597875E+03  0.7546771E-02  0.1024843E+00
         21   -1    0    0  502  501  0.00000000000E+00  0.00000000000E+00  0.12388661475E+04  0.12388661475E+04  0.00000000000E+00 0. -1.
         21   -1    0    0  501  502 -0.00000000000E+00 -0.00000000000E+00 -0.42660901425E+02  0.42660901425E+02  0.00000000000E+00 0. -1.
      99926    2    1    2    0    0  0.00000000000E+00  0.17763568394E-14  0.11962052460E+04  0.12815270489E+04  0.45978754483E+03 0.  0.
      99925    2    3    3    0    0 -0.11036844545E+03 -0.83215485610E+01  0.86046459232E+03  0.90653406685E+03  0.26297197150E+03 0.  0.
         25    1    4    4    0    0 -0.46344260980E+02  0.35106454247E+02  0.43701604060E+03  0.45826933292E+03  0.12509000000E+03 0.  0.
         25    1    4    4    0    0 -0.64024184469E+02 -0.43428002808E+02  0.42344855173E+03  0.44826473393E+03  0.12509000000E+03 0.  0.
         25    1    3    3    0    0  0.11036844545E+03  0.83215485610E+01  0.33574065370E+03  0.37499298203E+03  0.12509000000E+03 0.  0.
<mgrwt>
<rscale>  2 0.45978754E+03</rscale>
<asrwt>0</asrwt>
<pdfrwt beam="1">  1       21 0.18218617E+00 0.45978754E+03</pdfrwt>
<pdfrwt beam="2">  1       21 0.62736628E-02 0.45978754E+03</pdfrwt>
<totfact> 0.28576416E+04</totfact>
</mgrwt>
</event>
<event>
 7    0  0.4691878E-002  0.4461020E+03  0.7546771E-02  0.1028891E+00
         21   -1    0    0  502  501  0.00000000000E+00  0.00000000000E+00  0.30992864839E+03  0.30992864839E+03  0.00000000000E+00 0. -1.
         21   -1    0    0  501  502 -0.00000000000E+00 -0.00000000000E+00 -0.16052648536E+03  0.16052648536E+03  0.00000000000E+00 0. -1.
      99926    2    1    2    0    0  0.00000000000E+00  0.35527136788E-14  0.14940216304E+03  0.47045513375E+03  0.44610203603E+03 0.  0.
      99925    2    3    3    0    0  0.66371068555E+02 -0.29597662120E+02  0.17417751588E+03  0.32368161246E+03  0.26296547085E+03 0.  0.
         25    1    4    4    0    0  0.52910961421E+02 -0.47451666744E+02  0.11134009073E+03  0.18192128633E+03  0.12509000000E+03 0.  0.
         25    1    4    4    0    0  0.13460107134E+02  0.17854004624E+02  0.62837425150E+02  0.14176032613E+03  0.12509000000E+03 0.  0.
         25    1    3    3    0    0 -0.66371068555E+02  0.29597662120E+02 -0.24775352843E+02  0.14677352129E+03  0.12509000000E+03 0.  0.
<mgrwt>
<rscale>  2 0.44610204E+03</rscale>
<asrwt>0</asrwt>
<pdfrwt beam="1">  1       21 0.45577743E-01 0.44610204E+03</pdfrwt>
<pdfrwt beam="2">  1       21 0.23606836E-01 0.44610204E+03</pdfrwt>
<totfact> 0.72379323E+04</totfact>
</mgrwt>
</event>
<event>
 7    0  0.4691878E-002  0.4567570E+03  0.7546771E-02  0.1025726E+00
         21   -1    0    0  502  501  0.00000000000E+00  0.00000000000E+00  0.54431391120E+02  0.54431391120E+02  0.00000000000E+00 0. -1.
         21   -1    0    0  501  502 -0.00000000000E+00 -0.00000000000E+00 -0.95821050050E+03  0.95821050050E+03  0.00000000000E+00 0. -1.
      99926    2    1    2    0    0  0.14210854715E-13  0.00000000000E+00 -0.90377910938E+03  0.10126418916E+04  0.45675696175E+03 0.  0.
      99925    2    3    3    0    0 -0.69424125203E+02 -0.82842725753E+02 -0.65398753382E+03  0.71309896366E+03  0.26292168265E+03 0.  0.
         25    1    3    3    0    0  0.69424125203E+02  0.82842725753E+02 -0.24979157556E+03  0.29954292796E+03  0.12509000000E+03 0.  0.
         25    1    4    4    0    0  0.42599727524E+01 -0.24211987470E+02 -0.27966873187E+03  0.30735399036E+03  0.12509000000E+03 0.  0.
         25    1    4    4    0    0 -0.73684097955E+02 -0.58630738283E+02 -0.37431880196E+03  0.40574497330E+03  0.12509000000E+03 0.  0.
<mgrwt>
<rscale>  2 0.45675696E+03</rscale>
<asrwt>0</asrwt>
<pdfrwt beam="1">  1       21 0.80046172E-02 0.45675696E+03</pdfrwt>
<pdfrwt beam="2">  1       21 0.14091329E+00 0.45675696E+03</pdfrwt>
<totfact> 0.38152523E+04</totfact>
</mgrwt>
</event>
<event>
 7    0  0.4691878E-002  0.4537389E+03  0.7546771E-02  0.1026613E+00
         21   -1    0    0  502  501  0.00000000000E+00  0.00000000000E+00  0.13457099041E+04  0.13457099041E+04  0.00000000000E+00 0.  1.
         21   -1    0    0  501  502 -0.00000000000E+00 -0.00000000000E+00 -0.38247280281E+02  0.38247280281E+02  0.00000000000E+00 0.  1.
      99926    2    1    2    0    0  0.00000000000E+00  0.00000000000E+00  0.13074626239E+04  0.13839571844E+04  0.45373888474E+03 0.  0.
      99925    2    3    3    0    0 -0.82401100609E+02 -0.75116429276E+02  0.79179792392E+03  0.84174872802E+03  0.26299153878E+03 0.  0.
         25    1    4    4    0    0 -0.28577295713E+02 -0.22308665815E+02  0.26802347260E+03  0.29799065148E+03  0.12509000000E+03 0.  0.
         25    1    4    4    0    0 -0.53823804897E+02 -0.52807763461E+02  0.52377445132E+03  0.54375807655E+03  0.12509000000E+03 0.  0.
         25    1    3    3    0    0  0.82401100609E+02  0.75116429276E+02  0.51566469993E+03  0.54220845640E+03  0.12509000000E+03 0.  0.
<mgrwt>
<rscale>  2 0.45373888E+03</rscale>
<asrwt>0</asrwt>
<pdfrwt beam="1">  1       21 0.19789848E+00 0.45373888E+03</pdfrwt>
<pdfrwt beam="2">  1       21 0.56246009E-02 0.45373888E+03</pdfrwt>
<totfact> 0.27026597E+04</totfact>
</mgrwt>
</event>
<event>
 7    0  0.4691878E-002  0.4526054E+03  0.7546771E-02  0.1026948E+00
         21   -1    0    0  502  501  0.00000000000E+00  0.00000000000E+00  0.78279902940E+02  0.78279902940E+02  0.00000000000E+00 0.  1.
         21   -1    0    0  501  502 -0.00000000000E+00 -0.00000000000E+00 -0.65422818797E+03  0.65422818797E+03  0.00000000000E+00 0.  1.
      99926    2    1    2    0    0  0.00000000000E+00  0.00000000000E+00 -0.57594828503E+03  0.73250809092E+03  0.45260543106E+03 0.  0.
      99925    2    3    3    0    0  0.20383640750E+02 -0.10752592596E+03 -0.33396637523E+03  0.43894366811E+03  0.26298419425E+03 0.  0.
         25    1    4    4    0    0  0.28692312244E+02 -0.20357283118E+02 -0.18096265577E+03  0.22278388326E+03  0.12509000000E+03 0.  0.
         25    1    3    3    0    0 -0.20383640750E+02  0.10752592596E+03 -0.24198190981E+03  0.29356442281E+03  0.12509000000E+03 0.  0.
         25    1    4    4    0    0 -0.83086714946E+01 -0.87168642842E+02 -0.15300371946E+03  0.21615978485E+03  0.12509000000E+03 0.  0.
<mgrwt>
<rscale>  2 0.45260543E+03</rscale>
<asrwt>0</asrwt>
<pdfrwt beam="1">  1       21 0.11511751E-01 0.45260543E+03</pdfrwt>
<pdfrwt beam="2">  1       21 0.96210025E-01 0.45260543E+03</pdfrwt>
<totfact> 0.52148249E+04</totfact>
</mgrwt>
</event>
<event>
 7    0  0.4691878E-002  0.4574686E+03  0.7546771E-02  0.1025518E+00
         21   -1    0    0  502  501  0.00000000000E+00  0.00000000000E+00  0.24863588423E+03  0.24863588423E+03  0.00000000000E+00 0.  1.
         21   -1    0    0  501  502 -0.00000000000E+00 -0.00000000000E+00 -0.21042568375E+03  0.21042568375E+03  0.00000000000E+00 0.  1.
      99926    2    1    2    0    0  0.00000000000E+00  0.00000000000E+00  0.38210200483E+02  0.45906156798E+03  0.45746858228E+03 0.  0.
      99925    2    3    3    0    0 -0.67803971182E+02 -0.90538095741E+02  0.80589442261E+00  0.28631575617E+03  0.26302383442E+03 0.  0.
         25    1    4    4    0    0 -0.27828413610E+02 -0.70361163477E+02 -0.31572259045E+02  0.14956413197E+03  0.12509000000E+03 0.  0.
         25    1    3    3    0    0  0.67803971182E+02  0.90538095741E+02  0.37404306060E+02  0.17274581182E+03  0.12509000000E+03 0.  0.
         25    1    4    4    0    0 -0.39975557573E+02 -0.20176932264E+02  0.32378153467E+02  0.13675162420E+03  0.12509000000E+03 0.  0.
<mgrwt>
<rscale>  2 0.45746858E+03</rscale>
<asrwt>0</asrwt>
<pdfrwt beam="1">  1       21 0.36564101E-01 0.45746858E+03</pdfrwt>
<pdfrwt beam="2">  1       21 0.30944953E-01 0.45746858E+03</pdfrwt>
<totfact> 0.66921460E+04</totfact>
</mgrwt>
</event>
<event>
 7    0  0.4691878E-002  0.4547572E+03  0.7546771E-02  0.1026313E+00
         21   -1    0    0  502  501  0.00000000000E+00  0.00000000000E+00  0.25480864501E+03  0.25480864501E+03  0.00000000000E+00 0.  1.
         21   -1    0    0  501  502 -0.00000000000E+00 -0.00000000000E+00 -0.20290139563E+03  0.20290139563E+03  0.00000000000E+00 0.  1.
      99926    2    1    2    0    0  0.00000000000E+00 -0.14210854715E-13  0.51907249374E+02  0.45771004064E+03  0.45475720859E+03 0.  0.
      99925    2    3    3    0    0  0.65264123606E+02 -0.64031360879E+02  0.98743275127E+02  0.29584422456E+03  0.26346565207E+03 0.  0.
         25    1    3    3    0    0 -0.65264123606E+02  0.64031360879E+02 -0.46836025753E+02  0.16186581608E+03  0.12509000000E+03 0.  0.
         25    1    4    4    0    0  0.69293498270E+02 -0.50527908723E+02  0.39529391285E+02  0.15673142422E+03  0.12509000000E+03 0.  0.
         25    1    4    4    0    0 -0.40293746636E+01 -0.13503452157E+02  0.59213883842E+02  0.13911280035E+03  0.12509000000E+03 0.  0.
<mgrwt>
<rscale>  2 0.45475721E+03</rscale>
<asrwt>0</asrwt>
<pdfrwt beam="1">  1       21 0.37471860E-01 0.45475721E+03</pdfrwt>
<pdfrwt beam="2">  1       21 0.29838440E-01 0.45475721E+03</pdfrwt>
<totfact> 0.68480190E+04</totfact>
</mgrwt>
</event>
<event>
 7    0  0.4691878E-002  0.4608092E+03  0.7546771E-02  0.1024547E+00
         21   -1    0    0  502  501  0.00000000000E+00  0.00000000000E+00  0.22045354850E+03  0.22045354850E+03  0.00000000000E+00 0. -1.
         21   -1    0    0  501  502 -0.00000000000E+00 -0.00000000000E+00 -0.24080488399E+03  0.24080488399E+03  0.00000000000E+00 0. -1.
      99926    2    1    2    0    0  0.00000000000E+00  0.00000000000E+00 -0.20351335489E+02  0.46125843250E+03  0.46080924979E+03 0.  0.
      99925    2    3    3    0    0 -0.64857021093E+02 -0.96165485629E+02  0.11731710204E+02  0.28767541567E+03  0.26299292375E+03 0.  0.
         25    1    4    4    0    0 -0.14661650553E+02 -0.79684307670E+02  0.25452021628E+02  0.15119479618E+03  0.12509000000E+03 0.  0.
         25    1    4    4    0    0 -0.50195370540E+02 -0.16481177959E+02 -0.13720311424E+02  0.13648061949E+03  0.12509000000E+03 0.  0.
         25    1    3    3    0    0  0.64857021093E+02  0.96165485629E+02 -0.32083045693E+02  0.17358301683E+03  0.12509000000E+03 0.  0.
<mgrwt>
<rscale>  2 0.46080925E+03</rscale>
<asrwt>0</asrwt>
<pdfrwt beam="1">  1       21 0.32419640E-01 0.46080925E+03</pdfrwt>
<pdfrwt beam="2">  1       21 0.35412483E-01 0.46080925E+03</pdfrwt>
<totfact> 0.65023158E+04</totfact>
</mgrwt>
</event>
<event>
 7    0  0.4691878E-002  0.4523317E+03  0.7546771E-02  0.1027029E+00
         21   -1    0    0  502  501  0.00000000000E+00  0.00000000000E+00  0.68032709361E+02  0.68032709361E+02  0.00000000000E+00 0.  1.
         21   -1    0    0  501  502 -0.00000000000E+00 -0.00000000000E+00 -0.75185885181E+03  0.75185885181E+03  0.00000000000E+00 0.  1.
      99926    2    1    2    0    0  0.00000000000E+00  0.00000000000E+00 -0.68382614245E+03  0.81989156117E+03  0.45233171344E+03 0.  0.
      99925    2    3    3    0    0  0.32510588773E+02 -0.96814234943E+02 -0.35348297315E+03  0.45219052490E+03  0.26286141603E+03 0.  0.
         25    1    3    3    0    0 -0.32510588773E+02  0.96814234943E+02 -0.33034316930E+03  0.36770103627E+03  0.12509000000E+03 0.  0.
         25    1    4    4    0    0 -0.10681484911E+02 -0.73316082297E+02 -0.15532939291E+03  0.21275354391E+03  0.12509000000E+03 0.  0.
         25    1    4    4    0    0  0.43192073684E+02 -0.23498152647E+02 -0.19815358023E+03  0.23943698099E+03  0.12509000000E+03 0.  0.
<mgrwt>
<rscale>  2 0.45233171E+03</rscale>
<asrwt>0</asrwt>
<pdfrwt beam="1">  1       21 0.10004810E-01 0.45233171E+03</pdfrwt>
<pdfrwt beam="2">  1       21 0.11056748E+00 0.45233171E+03</pdfrwt>
<totfact> 0.47810878E+04</totfact>
</mgrwt>
</event>
<event>
 7    0  0.4691878E-002  0.4561204E+03  0.7546771E-02  0.1025912E+00
         21   -1    0    0  502  501  0.00000000000E+00  0.00000000000E+00  0.95353036375E+02  0.95353036375E+02  0.00000000000E+00 0. -1.
         21   -1    0    0  501  502 -0.00000000000E+00 -0.00000000000E+00 -0.54546199077E+03  0.54546199077E+03  0.00000000000E+00 0. -1.
      99926    2    1    2    0    0  0.71054273576E-14  0.00000000000E+00 -0.45010895440E+03  0.64081502715E+03  0.45612040975E+03 0.  0.
      99925    2    3    3    0    0 -0.32193619784E+02 -0.10362834721E+03 -0.23290604581E+03  0.36768525012E+03  0.26300561492E+03 0.  0.
         25    1    4    4    0    0  0.20942965353E+02 -0.52073129904E+02 -0.13511652568E+03  0.19249468114E+03  0.12509000000E+03 0.  0.
         25    1    3    3    0    0  0.32193619784E+02  0.10362834721E+03 -0.21720290859E+03  0.27312977703E+03  0.12509000000E+03 0.  0.
         25    1    4    4    0    0 -0.53136585137E+02 -0.51555217305E+02 -0.97789520123E+02  0.17519056897E+03  0.12509000000E+03 0.  0.
<mgrwt>
<rscale>  2 0.45612041E+03</rscale>
<asrwt>0</asrwt>
<pdfrwt beam="1">  1       21 0.14022505E-01 0.45612041E+03</pdfrwt>
<pdfrwt beam="2">  1       21 0.80214999E-01 0.45612041E+03</pdfrwt>
<totfact> 0.55739297E+04</totfact>
</mgrwt>
</event>
<event>
 7    0  0.4691878E-002  0.4566874E+03  0.7546771E-02  0.1025746E+00
         21   -1    0    0  502  501  0.00000000000E+00  0.00000000000E+00  0.11503193902E+04  0.11503193902E+04  0.00000000000E+00 0. -1.
         21   -1    0    0  501  502 -0.00000000000E+00 -0.00000000000E+00 -0.45327276244E+02  0.45327276244E+02  0.00000000000E+00 0. -1.
      99926    2    1    2    0    0  0.00000000000E+00 -0.71054273576E-14  0.11049921139E+04  0.11956466664E+04  0.45668739754E+03 0.  0.
      99925    2    3    3    0    0 -0.56689444440E+02 -0.62503629382E+02  0.49050549298E+03  0.56290524038E+03  0.26295679152E+03 0.  0.
         25    1    4    4    0    0  0.12550738648E+02 -0.34243571234E+02  0.24000676995E+03  0.27309504011E+03  0.12509000000E+03 0.  0.
         25    1    3    3    0    0  0.56689444440E+02  0.62503629382E+02  0.61448662096E+03  0.63274142605E+03  0.12509000000E+03 0.  0.
         25    1    4    4    0    0 -0.69240183088E+02 -0.28260058148E+02  0.25049872303E+03  0.28981020027E+03  0.12509000000E+03 0.  0.
<mgrwt>
<rscale>  2 0.45668740E+03</rscale>
<asrwt>0</asrwt>
<pdfrwt beam="1">  1       21 0.16916460E+00 0.45668740E+03</pdfrwt>
<pdfrwt beam="2">  1       21 0.66657767E-02 0.45668740E+03</pdfrwt>
<totfact> 0.31873179E+04</totfact>
</mgrwt>
</event>
<event>
 7    0  0.4691878E-002  0.4717121E+03  0.7546771E-02  0.1021438E+00
         21   -1    0    0  502  501  0.00000000000E+00  0.00000000000E+00  0.29397065733E+03  0.29397065733E+03  0.00000000000E+00 0.  1.
         21   -1    0    0  501  502 -0.00000000000E+00 -0.00000000000E+00 -0.18923000376E+03  0.18923000376E+03  0.00000000000E+00 0.  1.
      99926    2    1    2    0    0  0.00000000000E+00  0.14210854715E-13  0.10474065357E+03  0.48320066109E+03  0.47171206723E+03 0.  0.
      99925    2    3    3    0    0 -0.61459815413E+02  0.70497137907E+02 -0.24644803547E+02  0.28038236808E+03  0.26317247316E+03 0.  0.
         25    1    3    3    0    0  0.61459815413E+02 -0.70497137907E+02  0.12938545712E+03  0.20281829300E+03  0.12509000000E+03 0.  0.
         25    1    4    4    0    0 -0.20049729526E+02  0.75026800672E+02 -0.18517298334E+02  0.14839612835E+03  0.12509000000E+03 0.  0.
         25    1    4    4    0    0 -0.41410085886E+02 -0.45296627648E+01 -0.61275052135E+01  0.13198623973E+03  0.12509000000E+03 0.  0.
<mgrwt>
<rscale>  2 0.47171207E+03</rscale>
<asrwt>0</asrwt>
<pdfrwt beam="1">  1       21 0.43230979E-01 0.47171207E+03</pdfrwt>
<pdfrwt beam="2">  1       21 0.27827941E-01 0.47171207E+03</pdfrwt>
<totfact> 0.58336857E+04</totfact>
</mgrwt>
</event>
<event>
 7    0  0.4691878E-002  0.4546766E+03  0.7546771E-02  0.1026337E+00
         21   -1    0    0  502  501  0.00000000000E+00  0.00000000000E+00  0.52821786663E+03  0.52821786663E+03  0.00000000000E+00 0. -1.
         21   -1    0    0  501  502 -0.00000000000E+00 -0.00000000000E+00 -0.97843535846E+02  0.97843535846E+02  0.00000000000E+00 0. -1.
      99926    2    1    2    0    0 -0.71054273576E-14  0.00000000000E+00  0.43037433079E+03  0.62606140248E+03  0.45467660493E+03 0.  0.
      99925    2    3    3    0    0 -0.33764610640E+02  0.39474827937E+02  0.40841935145E+03  0.48884682530E+03  0.26356506027E+03 0.  0.
         25    1    4    4    0    0 -0.50628189649E+02  0.20173924744E+01  0.17685204102E+03  0.22246670756E+03  0.12509000000E+03 0.  0.
         25    1    3    3    0    0  0.33764610640E+02 -0.39474827937E+02  0.21954979338E+02  0.13721457718E+03  0.12509000000E+03 0.  0.
         25    1    4    4    0    0  0.16863579009E+02  0.37457435462E+02  0.23156731043E+03  0.26638011774E+03  0.12509000000E+03 0.  0.
<mgrwt>
<rscale>  2 0.45467660E+03</rscale>
<asrwt>0</asrwt>
<pdfrwt beam="1">  1       21 0.77679097E-01 0.45467660E+03</pdfrwt>
<pdfrwt beam="2">  1       21 0.14388755E-01 0.45467660E+03</pdfrwt>
<totfact> 0.57248151E+04</totfact>
</mgrwt>
</event>
<event>
 7    0  0.4691878E-002  0.4424881E+03  0.7546771E-02  0.1029986E+00
         21   -1    0    0  502  501  0.00000000000E+00  0.00000000000E+00  0.15682173785E+03  0.15682173785E+03  0.00000000000E+00 0. -1.
         21   -1    0    0  501  502 -0.00000000000E+00 -0.00000000000E+00 -0.31213103031E+03  0.31213103031E+03  0.00000000000E+00 0. -1.
      99926    2    1    2    0    0  0.00000000000E+00  0.00000000000E+00 -0.15530929246E+03  0.46895276816E+03  0.44248810430E+03 0.  0.
      99925    2    3    3    0    0 -0.99471411950E+02 -0.17595478481E+02 -0.10004646689E+03  0.29893614942E+03  0.26296266510E+03 0.  0.
         25    1    4    4    0    0 -0.26407533516E+02  0.64881966500E+01 -0.14111164419E+02  0.12878698530E+03  0.12509000000E+03 0.  0.
         25    1    4    4    0    0 -0.73063878434E+02 -0.24083675131E+02 -0.85935302475E+02  0.17014916412E+03  0.12509000000E+03 0.  0.
         25    1    3    3    0    0  0.99471411950E+02  0.17595478481E+02 -0.55262825561E+02  0.17001661874E+03  0.12509000000E+03 0.  0.
<mgrwt>
<rscale>  2 0.44248810E+03</rscale>
<asrwt>0</asrwt>
<pdfrwt beam="1">  1       21 0.23062021E-01 0.44248810E+03</pdfrwt>
<pdfrwt beam="2">  1       21 0.45901621E-01 0.44248810E+03</pdfrwt>
<totfact> 0.74655683E+04</totfact>
</mgrwt>
</event>
<event>
 7    0  0.4691878E-002  0.4519488E+03  0.7546771E-02  0.1027142E+00
         21   -1    0    0  502  501  0.00000000000E+00  0.00000000000E+00  0.43363445606E+03  0.43363445606E+03  0.00000000000E+00 0.  1.
         21   -1    0    0  501  502 -0.00000000000E+00 -0.00000000000E+00 -0.11775914657E+03  0.11775914657E+03  0.00000000000E+00 0.  1.
      99926    2    1    2    0    0  0.00000000000E+00  0.00000000000E+00  0.31587530949E+03  0.55139360262E+03  0.45194877350E+03 0.  0.
      99925    2    3    3    0    0  0.17245942258E+02  0.10087194382E+03  0.14935323414E+03  0.31933826169E+03  0.26305506127E+03 0.  0.
         25    1    4    4    0    0  0.48188657149E+02  0.59563319495E+02  0.70942206878E+02  0.16294244543E+03  0.12509000000E+03 0.  0.
         25    1    4    4    0    0 -0.30942714890E+02  0.41308624321E+02  0.78411027257E+02  0.15639581626E+03  0.12509000000E+03 0.  0.
         25    1    3    3    0    0 -0.17245942258E+02 -0.10087194382E+03  0.16652207536E+03  0.23205534093E+03  0.12509000000E+03 0.  0.
<mgrwt>
<rscale>  2 0.45194877E+03</rscale>
<asrwt>0</asrwt>
<pdfrwt beam="1">  1       21 0.63769773E-01 0.45194877E+03</pdfrwt>
<pdfrwt beam="2">  1       21 0.17317522E-01 0.45194877E+03</pdfrwt>
<totfact> 0.63288520E+04</totfact>
</mgrwt>
</event>
<event>
 7    0  0.4691878E-002  0.4520987E+03  0.7546771E-02  0.1027098E+00
         21   -1    0    0  502  501  0.00000000000E+00  0.00000000000E+00  0.41303760272E+03  0.41303760272E+03  0.00000000000E+00 0.  1.
         21   -1    0    0  501  502 -0.00000000000E+00 -0.00000000000E+00 -0.12371347074E+03  0.12371347074E+03  0.00000000000E+00 0.  1.
      99926    2    1    2    0    0  0.00000000000E+00  0.14210854715E-13  0.28932413198E+03  0.53675107346E+03  0.45209872983E+03 0.  0.
      99925    2    3    3    0    0 -0.55987405182E+02  0.95086571608E+02  0.18230313782E+03  0.33856669736E+03  0.26309110373E+03 0.  0.
         25    1    4    4    0    0  0.50257755028E+01  0.40041530130E+02  0.11425840523E+03  0.17415818620E+03  0.12509000000E+03 0.  0.
         25    1    4    4    0    0 -0.61013180685E+02  0.55045041478E+02  0.68044732592E+02  0.16440851116E+03  0.12509000000E+03 0.  0.
         25    1    3    3    0    0  0.55987405182E+02 -0.95086571608E+02  0.10702099416E+03  0.19818437610E+03  0.12509000000E+03 0.  0.
<mgrwt>
<rscale>  2 0.45209873E+03</rscale>
<asrwt>0</asrwt>
<pdfrwt beam="1">  1       21 0.60740823E-01 0.45209873E+03</pdfrwt>
<pdfrwt beam="2">  1       21 0.18193158E-01 0.45209873E+03</pdfrwt>
<totfact> 0.64212398E+04</totfact>
</mgrwt>
</event>
<event>
 7    0  0.4691878E-002  0.4388923E+03  0.7546771E-02  0.1031087E+00
         21   -1    0    0  502  501  0.00000000000E+00  0.00000000000E+00  0.23502425704E+03  0.23502425704E+03  0.00000000000E+00 0.  1.
         21   -1    0    0  501  502 -0.00000000000E+00 -0.00000000000E+00 -0.20490063200E+03  0.20490063200E+03  0.00000000000E+00 0.  1.
      99926    2    1    2    0    0  0.00000000000E+00 -0.88817841970E-15  0.30123625039E+02  0.43992488905E+03  0.43889232759E+03 0.  0.
      99925    2    3    3    0    0 -0.12958261048E+02 -0.48930345665E+01 -0.77325523609E+02  0.27444169968E+03  0.26295845985E+03 0.  0.
         25    1    4    4    0    0  0.99101166219E+01 -0.89354321603E+01 -0.76456624714E+02  0.14721133082E+03  0.12509000000E+03 0.  0.
         25    1    4    4    0    0 -0.22868377670E+02  0.40423975938E+01 -0.86889889505E+00  0.12723036886E+03  0.12509000000E+03 0.  0.
         25    1    3    3    0    0  0.12958261048E+02  0.48930345665E+01  0.10744914865E+03  0.16548318936E+03  0.12509000000E+03 0.  0.
<mgrwt>
<rscale>  2 0.43889233E+03</rscale>
<asrwt>0</asrwt>
<pdfrwt beam="1">  1       21 0.34562391E-01 0.43889233E+03</pdfrwt>
<pdfrwt beam="2">  1       21 0.30132446E-01 0.43889233E+03</pdfrwt>
<totfact> 0.79387278E+04</totfact>
</mgrwt>
</event>
<event>
 7    0  0.4691878E-002  0.4478971E+03  0.7546771E-02  0.1028351E+00
         21   -1    0    0  502  501  0.00000000000E+00  0.00000000000E+00  0.67592860761E+02  0.67592860761E+02  0.00000000000E+00 0. -1.
         21   -1    0    0  501  502 -0.00000000000E+00 -0.00000000000E+00 -0.74198595108E+03  0.74198595108E+03  0.00000000000E+00 0. -1.
      99926    2    1    2    0    0  0.00000000000E+00  0.00000000000E+00 -0.67439309032E+03  0.80957881184E+03  0.44789710014E+03 0.  0.
      99925    2    3    3    0    0 -0.97423952840E+01 -0.34972924193E+02 -0.60786599525E+03  0.66332088155E+03  0.26301236480E+03 0.  0.
         25    1    3    3    0    0  0.97423952840E+01  0.34972924193E+02 -0.66527095071E+02  0.14625793028E+03  0.12509000000E+03 0.  0.
         25    1    4    4    0    0  0.24064274586E+01  0.41757301170E+01 -0.38091575969E+03  0.40095829171E+03  0.12509000000E+03 0.  0.
         25    1    4    4    0    0 -0.12148822743E+02 -0.39148654310E+02 -0.22695023556E+03  0.26236258984E+03  0.12509000000E+03 0.  0.
<mgrwt>
<rscale>  2 0.44789710E+03</rscale>
<asrwt>0</asrwt>
<pdfrwt beam="1">  1       21 0.99401272E-02 0.44789710E+03</pdfrwt>
<pdfrwt beam="2">  1       21 0.10911557E+00 0.44789710E+03</pdfrwt>
<totfact> 0.50036166E+04</totfact>
</mgrwt>
</event>
<event>
 7    0  0.4691878E-002  0.4567589E+03  0.7546771E-02  0.1025725E+00
         21   -1    0    0  502  501  0.00000000000E+00  0.00000000000E+00  0.17114521822E+03  0.17114521822E+03  0.00000000000E+00 0. -1.
         21   -1    0    0  501  502 -0.00000000000E+00 -0.00000000000E+00 -0.30475395984E+03  0.30475395984E+03  0.00000000000E+00 0. -1.
      99926    2    1    2    0    0  0.00000000000E+00 -0.71054273576E-14 -0.13360874162E+03  0.47589917806E+03  0.45675894281E+03 0.  0.
      99925    2    3    3    0    0 -0.58660575174E+02 -0.32408170801E+02  0.13304866487E+02  0.27163839141E+03  0.26290500871E+03 0.  0.
         25    1    3    3    0    0  0.58660575174E+02  0.32408170801E+02 -0.14691360811E+03  0.20426078665E+03  0.12509000000E+03 0.  0.
         25    1    4    4    0    0 -0.36612058069E+01 -0.42737422367E+02  0.23138745725E+02  0.13424902738E+03  0.12509000000E+03 0.  0.
         25    1    4    4    0    0 -0.54999369367E+02  0.10329251566E+02 -0.98338792383E+01  0.13738936403E+03  0.12509000000E+03 0.  0.
<mgrwt>
<rscale>  2 0.45675894E+03</rscale>
<asrwt>0</asrwt>
<pdfrwt beam="1">  1       21 0.25168415E-01 0.45675894E+03</pdfrwt>
<pdfrwt beam="2">  1       21 0.44816758E-01 0.45675894E+03</pdfrwt>
<totfact> 0.66072742E+04</totfact>
</mgrwt>
</event>
<event>
 7    0  0.4691878E-002  0.4626387E+03  0.7546771E-02  0.1024019E+00
         21   -1    0    0  502  501  0.00000000000E+00  0.00000000000E+00  0.70184796248E+03  0.70184796248E+03  0.00000000000E+00 0. -1.
         21   -1    0    0  501  502 -0.00000000000E+00 -0.00000000000E+00 -0.76239660790E+02  0.76239660790E+02  0.00000000000E+00 0. -1.
      99926    2    1    2    0    0  0.00000000000E+00  0.00000000000E+00  0.62560830169E+03  0.77808762327E+03  0.46263873848E+03 0.  0.
      99925    2    3    3    0    0 -0.41388684953E+02  0.36067262315E+02  0.57084914480E+03  0.63091444631E+03  0.26300270302E+03 0.  0.
         25    1    4    4    0    0 -0.51450441053E+02  0.32239094625E+02  0.24489742647E+03  0.28161811856E+03  0.12509000000E+03 0.  0.
         25    1    4    4    0    0  0.10061756100E+02  0.38281676901E+01  0.32595171832E+03  0.34929632775E+03  0.12509000000E+03 0.  0.
         25    1    3    3    0    0  0.41388684953E+02 -0.36067262315E+02  0.54759156895E+02  0.14717317696E+03  0.12509000000E+03 0.  0.
<mgrwt>
<rscale>  2 0.46263874E+03</rscale>
<asrwt>0</asrwt>
<pdfrwt beam="1">  1       21 0.10321293E+00 0.46263874E+03</pdfrwt>
<pdfrwt beam="2">  1       21 0.11211715E-01 0.46263874E+03</pdfrwt>
<totfact> 0.46020961E+04</totfact>
</mgrwt>
</event>
<event>
 7    0  0.4691878E-002  0.4520622E+03  0.7546771E-02  0.1027109E+00
         21   -1    0    0  502  501  0.00000000000E+00  0.00000000000E+00  0.34205202079E+03  0.34205202079E+03  0.00000000000E+00 0. -1.
         21   -1    0    0  501  502 -0.00000000000E+00 -0.00000000000E+00 -0.14936339852E+03  0.14936339852E+03  0.00000000000E+00 0. -1.
      99926    2    1    2    0    0  0.88817841970E-15 -0.71054273576E-14  0.19268862228E+03  0.49141541931E+03  0.45206217402E+03 0.  0.
      99925    2    3    3    0    0  0.77338541615E+01 -0.56385709781E+02  0.19082931625E+02  0.26999815554E+03  0.26324073573E+03 0.  0.
         25    1    4    4    0    0 -0.30770210428E+01 -0.45790756369E+02 -0.26781183284E+02  0.13590806196E+03  0.12509000000E+03 0.  0.
         25    1    4    4    0    0  0.10810875204E+02 -0.10594953412E+02  0.45864114909E+02  0.13409009358E+03  0.12509000000E+03 0.  0.
         25    1    3    3    0    0 -0.77338541615E+01  0.56385709781E+02  0.17360569065E+03  0.22141726377E+03  0.12509000000E+03 0.  0.
<mgrwt>
<rscale>  2 0.45206217E+03</rscale>
<asrwt>0</asrwt>
<pdfrwt beam="1">  1       21 0.50301768E-01 0.45206217E+03</pdfrwt>
<pdfrwt beam="2">  1       21 0.21965206E-01 0.45206217E+03</pdfrwt>
<totfact> 0.67437180E+04</totfact>
</mgrwt>
</event>
<event>
 7    0  0.4691878E-002  0.4608502E+03  0.7546771E-02  0.1024535E+00
         21   -1    0    0  502  501  0.00000000000E+00  0.00000000000E+00  0.50983440473E+03  0.50983440473E+03  0.00000000000E+00 0.  1.
         21   -1    0    0  501  502 -0.00000000000E+00 -0.00000000000E+00 -0.10414306374E+03  0.10414306374E+03  0.00000000000E+00 0.  1.
      99926    2    1    2    0    0  0.00000000000E+00 -0.14210854715E-13  0.40569134099E+03  0.61397746846E+03  0.46085015745E+03 0.  0.
      99925    2    3    3    0    0 -0.45962953129E+02 -0.94640479501E+02  0.18127267725E+03  0.33634343209E+03  0.26305457109E+03 0.  0.
         25    1    3    3    0    0  0.45962953129E+02  0.94640479501E+02  0.22441866374E+03  0.27763403638E+03  0.12509000000E+03 0.  0.
         25    1    4    4    0    0 -0.25755997264E+02 -0.18974845132E+02  0.12091570080E+03  0.17689412354E+03  0.12509000000E+03 0.  0.
         25    1    4    4    0    0 -0.20206955865E+02 -0.75665634370E+02  0.60356976453E+02  0.15944930855E+03  0.12509000000E+03 0.  0.
<mgrwt>
<rscale>  2 0.46085016E+03</rscale>
<asrwt>0</asrwt>
<pdfrwt beam="1">  1       21 0.74975647E-01 0.46085016E+03</pdfrwt>
<pdfrwt beam="2">  1       21 0.15315157E-01 0.46085016E+03</pdfrwt>
<totfact> 0.55229544E+04</totfact>
</mgrwt>
</event>
<event>
 7    0  0.4691878E-002  0.4654589E+03  0.7546771E-02  0.1023210E+00
         21   -1    0    0  502  501  0.00000000000E+00  0.00000000000E+00  0.56476843354E+03  0.56476843354E+03  0.00000000000E+00 0. -1.
         21   -1    0    0  501  502 -0.00000000000E+00 -0.00000000000E+00 -0.95903001930E+02  0.95903001930E+02  0.00000000000E+00 0. -1.
      99926    2    1    2    0    0  0.00000000000E+00  0.14210854715E-13  0.46886543161E+03  0.66067143547E+03  0.46545886251E+03 0.  0.
      99925    2    3    3    0    0  0.42164966286E+02  0.11382968792E+03  0.26697070584E+03  0.39394297687E+03  0.26302590940E+03 0.  0.
         25    1    4    4    0    0  0.47231951739E+02  0.26150094312E+02  0.11320542994E+03  0.17713741041E+03  0.12509000000E+03 0.  0.
         25    1    4    4    0    0 -0.50669854530E+01  0.87679593606E+02  0.15376527590E+03  0.21680556646E+03  0.12509000000E+03 0.  0.
         25    1    3    3    0    0 -0.42164966286E+02 -0.11382968792E+03  0.20189472577E+03  0.26672845860E+03  0.12509000000E+03 0.  0.
<mgrwt>
<rscale>  2 0.46545886E+03</rscale>
<asrwt>0</asrwt>
<pdfrwt beam="1">  1       21 0.83054180E-01 0.46545886E+03</pdfrwt>
<pdfrwt beam="2">  1       21 0.14103383E-01 0.46545886E+03</pdfrwt>
<totfact> 0.50771392E+04</totfact>
</mgrwt>
</event>
<event>
 7    0  0.4691878E-002  0.4474915E+03  0.7546771E-02  0.1028473E+00
         21   -1    0    0  502  501  0.00000000000E+00  0.00000000000E+00  0.15749792076E+04  0.15749792076E+04  0.00000000000E+00 0. -1.
         21   -1    0    0  501  502 -0.00000000000E+00 -0.00000000000E+00 -0.31785921713E+02  0.31785921713E+02  0.00000000000E+00 0. -1.
      99926    2    1    2    0    0  0.00000000000E+00 -0.71054273576E-14  0.15431932858E+04  0.16067651293E+04  0.44749152301E+03 0.  0.
      99925    2    3    3    0    0  0.18485282789E+02 -0.46170133034E+02  0.13140698188E+04  0.13410237924E+04  0.26285345018E+03 0.  0.
         25    1    4    4    0    0  0.42630736328E+02 -0.10977214728E+01  0.62250952407E+03  0.63638368955E+03  0.12509000000E+03 0.  0.
         25    1    3    3    0    0 -0.18485282789E+02  0.46170133034E+02  0.22912346705E+03  0.26574133686E+03  0.12509000000E+03 0.  0.
         25    1    4    4    0    0 -0.24145453540E+02 -0.45072411561E+02  0.69156029474E+03  0.70464010286E+03  0.12509000000E+03 0.  0.
<mgrwt>
<rscale>  2 0.44749152E+03</rscale>
<asrwt>0</asrwt>
<pdfrwt beam="1">  1       21 0.23161454E+00 0.44749152E+03</pdfrwt>
<pdfrwt beam="2">  1       21 0.46744013E-02 0.44749152E+03</pdfrwt>
<totfact> 0.22564540E+04</totfact>
</mgrwt>
</event>
<event>
 7    0  0.4691878E-002  0.4549689E+03  0.7546771E-02  0.1026251E+00
         21   -1    0    0  502  501  0.00000000000E+00  0.00000000000E+00  0.91942120023E+02  0.91942120023E+02  0.00000000000E+00 0. -1.
         21   -1    0    0  501  502 -0.00000000000E+00 -0.00000000000E+00 -0.56284513520E+03  0.56284513520E+03  0.00000000000E+00 0. -1.
      99926    2    1    2    0    0  0.71054273576E-14 -0.35527136788E-14 -0.47090301518E+03  0.65478725523E+03  0.45496889993E+03 0.  0.
      99925    2    3    3    0    0 -0.46765579518E+02 -0.26292456886E+02 -0.43966456931E+03  0.51513890645E+03  0.26303012510E+03 0.  0.
         25    1    4    4    0    0  0.31924861653E+01  0.16555233562E+02 -0.22825216060E+03  0.26082719307E+03  0.12509000000E+03 0.  0.
         25    1    4    4    0    0 -0.49958065684E+02 -0.42847690448E+02 -0.21141240871E+03  0.25431171338E+03  0.12509000000E+03 0.  0.
         25    1    3    3    0    0  0.46765579518E+02  0.26292456886E+02 -0.31238445870E+02  0.13964834878E+03  0.12509000000E+03 0.  0.
<mgrwt>
<rscale>  2 0.45496890E+03</rscale>
<asrwt>0</asrwt>
<pdfrwt beam="1">  1       21 0.13520900E-01 0.45496890E+03</pdfrwt>
<pdfrwt beam="2">  1       21 0.82771341E-01 0.45496890E+03</pdfrwt>
<totfact> 0.55440140E+04</totfact>
</mgrwt>
</event>
<event>
 7    0  0.4691878E-002  0.4529182E+03  0.7546771E-02  0.1026855E+00
         21   -1    0    0  502  501  0.00000000000E+00  0.00000000000E+00  0.14950191031E+04  0.14950191031E+04  0.00000000000E+00 0. -1.
         21   -1    0    0  501  502 -0.00000000000E+00 -0.00000000000E+00 -0.34303060179E+02  0.34303060179E+02  0.00000000000E+00 0. -1.
      99926    2    1    2    0    0  0.00000000000E+00  0.00000000000E+00  0.14607160430E+04  0.15293221633E+04  0.45291822778E+03 0.  0.
      99925    2    3    3    0    0 -0.56801650342E+02 -0.88833601309E+02  0.80166810673E+03  0.85027170381E+03  0.26300642722E+03 0.  0.
         25    1    4    4    0    0 -0.38146133808E+02 -0.13678361448E+02  0.45646653343E+03  0.47502781954E+03  0.12509000000E+03 0.  0.
         25    1    4    4    0    0 -0.18655516535E+02 -0.75155239861E+02  0.34520157330E+03  0.37524388427E+03  0.12509000000E+03 0.  0.
         25    1    3    3    0    0  0.56801650342E+02  0.88833601309E+02  0.65904793624E+03  0.67905045951E+03  0.12509000000E+03 0.  0.
<mgrwt>
<rscale>  2 0.45291823E+03</rscale>
<asrwt>0</asrwt>
<pdfrwt beam="1">  1       21 0.21985571E+00 0.45291823E+03</pdfrwt>
<pdfrwt beam="2">  1       21 0.50445687E-02 0.45291823E+03</pdfrwt>
<totfact> 0.23446365E+04</totfact>
</mgrwt>
</event>
<event>
 7    0  0.4691878E-002  0.4362789E+03  0.7546771E-02  0.1031895E+00
         21   -1    0    0  502  501  0.00000000000E+00  0.00000000000E+00  0.50676164803E+03  0.50676164803E+03  0.00000000000E+00 0.  1.
         21   -1    0    0  501  502 -0.00000000000E+00 -0.00000000000E+00 -0.93899821636E+02  0.93899821636E+02  0.00000000000E+00 0.  1.
      99926    2    1    2    0    0  0.71054273576E-14  0.00000000000E+00  0.41286182640E+03  0.60066146967E+03  0.43627893996E+03 0.  0.
      99925    2    3    3    0    0  0.39826343125E+02 -0.60451058361E+01  0.38236426548E+03  0.46575301837E+03  0.26287023736E+03 0.  0.
         25    1    3    3    0    0 -0.39826343125E+02  0.60451058361E+01  0.30497560915E+02  0.13490845130E+03  0.12509000000E+03 0.  0.
         25    1    4    4    0    0 -0.40747083639E+01 -0.89648114848E+01  0.24238870726E+03  0.27294095442E+03  0.12509000000E+03 0.  0.
         25    1    4    4    0    0  0.43901051489E+02  0.29197056486E+01  0.13997555822E+03  0.19281206395E+03  0.12509000000E+03 0.  0.
<mgrwt>
<rscale>  2 0.43627894E+03</rscale>
<asrwt>0</asrwt>
<pdfrwt beam="1">  1       21 0.74523770E-01 0.43627894E+03</pdfrwt>
<pdfrwt beam="2">  1       21 0.13808798E-01 0.43627894E+03</pdfrwt>
<totfact> 0.68175118E+04</totfact>
</mgrwt>
</event>
<event>
 7    0  0.4691878E-002  0.4520118E+03  0.7546771E-02  0.1027124E+00
         21   -1    0    0  502  501  0.00000000000E+00  0.00000000000E+00  0.12711515881E+03  0.12711515881E+03  0.00000000000E+00 0. -1.
         21   -1    0    0  501  502 -0.00000000000E+00 -0.00000000000E+00 -0.40182985939E+03  0.40182985939E+03  0.00000000000E+00 0. -1.
      99926    2    1    2    0    0  0.00000000000E+00  0.00000000000E+00 -0.27471470058E+03  0.52894501821E+03  0.45201179805E+03 0.  0.
      99925    2    3    3    0    0 -0.25658581075E+02 -0.99663245781E+02 -0.12723766382E+03  0.30988313240E+03  0.26314826108E+03 0.  0.
         25    1    3    3    0    0  0.25658581075E+02  0.99663245781E+02 -0.14747703676E+03  0.21906188581E+03  0.12509000000E+03 0.  0.
         25    1    4    4    0    0 -0.26768293317E+02 -0.94546828605E+01 -0.60882701036E+02  0.14198642168E+03  0.12509000000E+03 0.  0.
         25    1    4    4    0    0  0.11097122411E+01 -0.90208562921E+02 -0.66354962781E+02  0.16789671072E+03  0.12509000000E+03 0.  0.
<mgrwt>
<rscale>  2 0.45201180E+03</rscale>
<asrwt>0</asrwt>
<pdfrwt beam="1">  1       21 0.18693406E-01 0.45201180E+03</pdfrwt>
<pdfrwt beam="2">  1       21 0.59092626E-01 0.45201180E+03</pdfrwt>
<totfact> 0.64798912E+04</totfact>
</mgrwt>
</event>
<event>
 7    0  0.4691878E-002  0.4525339E+03  0.7546771E-02  0.1026969E+00
         21   -1    0    0  502  501  0.00000000000E+00  0.00000000000E+00  0.23788553470E+03  0.23788553470E+03  0.00000000000E+00 0. -1.
         21   -1    0    0  501  502 -0.00000000000E+00 -0.00000000000E+00 -0.21521585810E+03  0.21521585810E+03  0.00000000000E+00 0. -1.
      99926    2    1    2    0    0  0.00000000000E+00  0.00000000000E+00  0.22669676605E+02  0.45310139280E+03  0.45253393013E+03 0.  0.
      99925    2    3    3    0    0  0.18308596183E+02  0.10745205193E+03  0.34279507944E+02  0.28677807982E+03  0.26303124195E+03 0.  0.
         25    1    4    4    0    0  0.26805995821E+02  0.37853065371E+02 -0.16985296117E+02  0.13448949533E+03  0.12509000000E+03 0.  0.
         25    1    4    4    0    0 -0.84973996380E+01  0.69598986556E+02  0.51264804062E+02  0.15228858449E+03  0.12509000000E+03 0.  0.
         25    1    3    3    0    0 -0.18308596183E+02 -0.10745205193E+03 -0.11609831339E+02  0.16632331298E+03  0.12509000000E+03 0.  0.
<mgrwt>
<rscale>  2 0.45253393E+03</rscale>
<asrwt>0</asrwt>
<pdfrwt beam="1">  1       21 0.34983167E-01 0.45253393E+03</pdfrwt>
<pdfrwt beam="2">  1       21 0.31649391E-01 0.45253393E+03</pdfrwt>
<totfact> 0.70053421E+04</totfact>
</mgrwt>
</event>
<event>
 7    0  0.4691878E-002  0.4784034E+03  0.7546771E-02  0.1019575E+00
         21   -1    0    0  502  501  0.00000000000E+00  0.00000000000E+00  0.46812899758E+03  0.46812899758E+03  0.00000000000E+00 0.  1.
         21   -1    0    0  501  502 -0.00000000000E+00 -0.00000000000E+00 -0.12222584630E+03  0.12222584630E+03  0.00000000000E+00 0.  1.
      99926    2    1    2    0    0  0.71054273576E-14  0.17763568394E-14  0.34590315129E+03  0.59035484388E+03  0.47840344023E+03 0.  0.
      99925    2    3    3    0    0 -0.44934079412E+02 -0.10239569365E+02  0.36858863683E+03  0.45512888621E+03  0.26298440940E+03 0.  0.
         25    1    4    4    0    0 -0.63474481872E+02 -0.50711886079E+01  0.19884256481E+03  0.24339392039E+03  0.12509000000E+03 0.  0.
         25    1    4    4    0    0  0.18540402459E+02 -0.51683807569E+01  0.16974607202E+03  0.21173496582E+03  0.12509000000E+03 0.  0.
         25    1    3    3    0    0  0.44934079412E+02  0.10239569365E+02 -0.22685485547E+02  0.13522595767E+03  0.12509000000E+03 0.  0.
<mgrwt>
<rscale>  2 0.47840344E+03</rscale>
<asrwt>0</asrwt>
<pdfrwt beam="1">  1       21 0.68842499E-01 0.47840344E+03</pdfrwt>
<pdfrwt beam="2">  1       21 0.17974389E-01 0.47840344E+03</pdfrwt>
<totfact> 0.49469580E+04</totfact>
</mgrwt>
</event>
<event>
 7    0  0.4691878E-002  0.4545124E+03  0.7546771E-02  0.1026385E+00
         21   -1    0    0  502  501  0.00000000000E+00  0.00000000000E+00  0.11467758536E+04  0.11467758536E+04  0.00000000000E+00 0.  1.
         21   -1    0    0  501  502 -0.00000000000E+00 -0.00000000000E+00 -0.45035286914E+02  0.45035286914E+02  0.00000000000E+00 0.  1.
      99926    2    1    2    0    0  0.00000000000E+00  0.22204460493E-14  0.11017405667E+04  0.11918111405E+04  0.45451239628E+03 0.  0.
      99925    2    3    3    0    0  0.52996989150E+01 -0.25133454901E+01  0.39841735714E+03  0.47742647599E+03  0.26299286263E+03 0.  0.
         25    1    4    4    0    0 -0.13432784136E+02  0.17981597670E+02  0.25626934008E+03  0.28605114982E+03  0.12509000000E+03 0.  0.
         25    1    4    4    0    0  0.18732483051E+02 -0.20494943160E+02  0.14214801705E+03  0.19137532618E+03  0.12509000000E+03 0.  0.
         25    1    3    3    0    0 -0.52996989150E+01  0.25133454901E+01  0.70332320956E+03  0.71438466453E+03  0.12509000000E+03 0.  0.
<mgrwt>
<rscale>  2 0.45451240E+03</rscale>
<asrwt>0</asrwt>
<pdfrwt beam="1">  1       21 0.16864349E+00 0.45451240E+03</pdfrwt>
<pdfrwt beam="2">  1       21 0.66228371E-02 0.45451240E+03</pdfrwt>
<totfact> 0.32540003E+04</totfact>
</mgrwt>
</event>
<event>
 7    0  0.4691878E-002  0.4442104E+03  0.7546771E-02  0.1029463E+00
         21   -1    0    0  502  501  0.00000000000E+00  0.00000000000E+00  0.91505119593E+02  0.91505119593E+02  0.00000000000E+00 0. -1.
         21   -1    0    0  501  502 -0.00000000000E+00 -0.00000000000E+00 -0.53910349169E+03  0.53910349169E+03  0.00000000000E+00 0. -1.
      99926    2    1    2    0    0 -0.14210854715E-13  0.14210854715E-13 -0.44759837209E+03  0.63060861128E+03  0.44421044328E+03 0.  0.
      99925    2    3    3    0    0  0.78067198011E+02 -0.67121290046E+02 -0.26938311791E+03  0.38976023593E+03  0.26219462679E+03 0.  0.
         25    1    4    4    0    0  0.39332577987E+02 -0.42726143110E+02 -0.83988372449E+02  0.16147485811E+03  0.12509000000E+03 0.  0.
         25    1    4    4    0    0  0.38734620024E+02 -0.24395146936E+02 -0.18539474546E+03  0.22828537782E+03  0.12509000000E+03 0.  0.
         25    1    3    3    0    0 -0.78067198011E+02  0.67121290046E+02 -0.17821525419E+03  0.24084837535E+03  0.12509000000E+03 0.  0.
<mgrwt>
<rscale>  2 0.44421044E+03</rscale>
<asrwt>0</asrwt>
<pdfrwt beam="1">  1       21 0.13456635E-01 0.44421044E+03</pdfrwt>
<pdfrwt beam="2">  1       21 0.79279924E-01 0.44421044E+03</pdfrwt>
<totfact> 0.61941806E+04</totfact>
</mgrwt>
</event>
<event>
 7    0  0.4691878E-002  0.4719633E+03  0.7546771E-02  0.1021368E+00
         21   -1    0    0  502  501  0.00000000000E+00  0.00000000000E+00  0.20380745799E+03  0.20380745799E+03  0.00000000000E+00 0.  1.
         21   -1    0    0  501  502 -0.00000000000E+00 -0.00000000000E+00 -0.27323504840E+03  0.27323504840E+03  0.00000000000E+00 0.  1.
      99926    2    1    2    0    0  0.00000000000E+00  0.00000000000E+00 -0.69427590413E+02  0.47704250639E+03  0.47196330640E+03 0.  0.
      99925    2    3    3    0    0 -0.14450152275E+02  0.11960638873E+02 -0.17143179601E+03  0.31454872238E+03  0.26305926002E+03 0.  0.
         25    1    3    3    0    0  0.14450152275E+02 -0.11960638873E+02  0.10200420560E+03  0.16249378401E+03  0.12509000000E+03 0.  0.
         25    1    4    4    0    0  0.32854825909E+02 -0.12661076438E+01 -0.84096642005E+02  0.15427506574E+03  0.12509000000E+03 0.  0.
         25    1    4    4    0    0 -0.47304978184E+02  0.13226746517E+02 -0.87335154006E+02  0.16027365663E+03  0.12509000000E+03 0.  0.
<mgrwt>
<rscale>  2 0.47196331E+03</rscale>
<asrwt>0</asrwt>
<pdfrwt beam="1">  1       21 0.29971685E-01 0.47196331E+03</pdfrwt>
<pdfrwt beam="2">  1       21 0.40181625E-01 0.47196331E+03</pdfrwt>
<totfact> 0.58613751E+04</totfact>
</mgrwt>
</event>
<event>
 7    0  0.4691878E-002  0.4570228E+03  0.7546771E-02  0.1025648E+00
         21   -1    0    0  502  501  0.00000000000E+00  0.00000000000E+00  0.12123897326E+04  0.12123897326E+04  0.00000000000E+00 0.  1.
         21   -1    0    0  501  502 -0.00000000000E+00 -0.00000000000E+00 -0.43069871794E+02  0.43069871794E+02  0.00000000000E+00 0.  1.
      99926    2    1    2    0    0  0.00000000000E+00  0.00000000000E+00  0.11693198608E+04  0.12554596044E+04  0.45702284559E+03 0.  0.
      99925    2    3    3    0    0 -0.60059577077E+02 -0.17538736351E+02  0.99970614753E+03  0.10356162968E+04  0.26300945357E+03 0.  0.
         25    1    4    4    0    0 -0.13916925334E+02 -0.19350955499E+02  0.35195733498E+03  0.37428547131E+03  0.12509000000E+03 0.  0.
         25    1    3    3    0    0  0.60059577077E+02  0.17538736351E+02  0.16961371326E+03  0.21984330760E+03  0.12509000000E+03 0.  0.
         25    1    4    4    0    0 -0.46142651743E+02  0.18122191482E+01  0.64774881255E+03  0.66133082547E+03  0.12509000000E+03 0.  0.
<mgrwt>
<rscale>  2 0.45702285E+03</rscale>
<asrwt>0</asrwt>
<pdfrwt beam="1">  1       21 0.17829259E+00 0.45702285E+03</pdfrwt>
<pdfrwt beam="2">  1       21 0.63338055E-02 0.45702285E+03</pdfrwt>
<totfact> 0.29961602E+04</totfact>
</mgrwt>
</event>
<event>
 7    0  0.4691878E-002  0.4926187E+03  0.7546771E-02  0.1015724E+00
         21   -1    0    0  502  501  0.00000000000E+00  0.00000000000E+00  0.68627249049E+03  0.68627249049E+03  0.00000000000E+00 0. -1.
         21   -1    0    0  501  502 -0.00000000000E+00 -0.00000000000E+00 -0.88402642232E+02  0.88402642232E+02  0.00000000000E+00 0. -1.
      99926    2    1    2    0    0  0.00000000000E+00 -0.71054273576E-14  0.59786984826E+03  0.77467513272E+03  0.49261872255E+03 0.  0.
      99925    2    3    3    0    0  0.12316342388E+03 -0.62595301093E+02  0.43761519944E+03  0.52887753048E+03  0.26290108171E+03 0.  0.
         25    1    4    4    0    0  0.64775763073E+02 -0.70938889368E+02  0.21171578240E+03  0.26400626152E+03  0.12509000000E+03 0.  0.
         25    1    4    4    0    0  0.58387660805E+02  0.83435882758E+01  0.22589941704E+03  0.26487126896E+03  0.12509000000E+03 0.  0.
         25    1    3    3    0    0 -0.12316342388E+03  0.62595301093E+02  0.16025464882E+03  0.24579760225E+03  0.12509000000E+03 0.  0.
<mgrwt>
<rscale>  2 0.49261872E+03</rscale>
<asrwt>0</asrwt>
<pdfrwt beam="1">  1       21 0.10092242E+00 0.49261872E+03</pdfrwt>
<pdfrwt beam="2">  1       21 0.13000389E-01 0.49261872E+03</pdfrwt>
<totfact> 0.36862231E+04</totfact>
</mgrwt>
</event>
<event>
 7    0  0.4691878E-002  0.4510570E+03  0.7546771E-02  0.1027407E+00
         21   -1    0    0  502  501  0.00000000000E+00  0.00000000000E+00  0.10094843839E+04  0.10094843839E+04  0.00000000000E+00 0.  1.
         21   -1    0    0  501  502 -0.00000000000E+00 -0.00000000000E+00 -0.50385224390E+02  0.50385224390E+02  0.00000000000E+00 0.  1.
      99926    2    1    2    0    0  0.00000000000E+00  0.00000000000E+00  0.95909915948E+03  0.10598696083E+04  0.45105696846E+03 0.  0.
      99925    2    3    3    0    0  0.47609842228E+02 -0.68264713549E+01  0.37480011873E+03  0.46039802853E+03  0.26301695360E+03 0.  0.
         25    1    3    3    0    0 -0.47609842228E+02  0.68264713549E+01  0.58429904074E+03  0.59947157973E+03  0.12509000000E+03 0.  0.
         25    1    4    4    0    0 -0.91195480201E+01 -0.44620040734E+01  0.13718606697E+03  0.18593170979E+03  0.12509000000E+03 0.  0.
         25    1    4    4    0    0  0.56729390248E+02 -0.23644672815E+01  0.23761405177E+03  0.27446631874E+03  0.12509000000E+03 0.  0.
<mgrwt>
<rscale>  2 0.45105697E+03</rscale>
<asrwt>0</asrwt>
<pdfrwt beam="1">  1       21 0.14845357E+00 0.45105697E+03</pdfrwt>
<pdfrwt beam="2">  1       21 0.74095924E-02 0.45105697E+03</pdfrwt>
<totfact> 0.38075591E+04</totfact>
</mgrwt>
</event>
<event>
 7    0  0.4691878E-002  0.4427167E+03  0.7546771E-02  0.1029917E+00
         21   -1    0    0  502  501  0.00000000000E+00  0.00000000000E+00  0.27041770789E+03  0.27041770789E+03  0.00000000000E+00 0. -1.
         21   -1    0    0  501  502 -0.00000000000E+00 -0.00000000000E+00 -0.18119936545E+03  0.18119936545E+03  0.00000000000E+00 0. -1.
      99926    2    1    2    0    0  0.14210854715E-13 -0.35527136788E-14  0.89218342435E+02  0.45161707334E+03  0.44271669080E+03 0.  0.
      99925    2    3    3    0    0 -0.75702580419E+02  0.27368397298E+02  0.11957040540E+03  0.29979920325E+03  0.26287367797E+03 0.  0.
         25    1    3    3    0    0  0.75702580419E+02 -0.27368397298E+02 -0.30352062969E+02  0.15181787009E+03  0.12509000000E+03 0.  0.
         25    1    4    4    0    0 -0.19948917456E+02  0.35847331219E+02  0.27300792764E+02  0.13444639024E+03  0.12509000000E+03 0.  0.
         25    1    4    4    0    0 -0.55753662963E+02 -0.84789339214E+01  0.92269612640E+02  0.16535281301E+03  0.12509000000E+03 0.  0.
<mgrwt>
<rscale>  2 0.44271669E+03</rscale>
<asrwt>0</asrwt>
<pdfrwt beam="1">  1       21 0.39767310E-01 0.44271669E+03</pdfrwt>
<pdfrwt beam="2">  1       21 0.26646965E-01 0.44271669E+03</pdfrwt>
<totfact> 0.75963853E+04</totfact>
</mgrwt>
</event>
<event>
 7    0  0.4691878E-002  0.4519658E+03  0.7546771E-02  0.1027137E+00
         21   -1    0    0  502  501  0.00000000000E+00  0.00000000000E+00  0.24408450951E+03  0.24408450951E+03  0.00000000000E+00 0.  1.
         21   -1    0    0  501  502 -0.00000000000E+00 -0.00000000000E+00 -0.20922372153E+03  0.20922372153E+03  0.00000000000E+00 0.  1.
      99926    2    1    2    0    0 -0.14210854715E-13 -0.35527136788E-14  0.34860787978E+02  0.45330823104E+03  0.45196579273E+03 0.  0.
      99925    2    3    3    0    0  0.10769758718E+03  0.25093054642E+02  0.22110427718E+02  0.28586119028E+03  0.26267721146E+03 0.  0.
         25    1    4    4    0    0  0.40353085980E+02 -0.17582716793E+02  0.34452996745E+02  0.13701109649E+03  0.12509000000E+03 0.  0.
         25    1    3    3    0    0 -0.10769758718E+03 -0.25093054642E+02  0.12750360260E+02  0.16744704077E+03  0.12509000000E+03 0.  0.
         25    1    4    4    0    0  0.67344501196E+02  0.42675771436E+02 -0.12342569026E+02  0.14885009378E+03  0.12509000000E+03 0.  0.
<mgrwt>
<rscale>  2 0.45196579E+03</rscale>
<asrwt>0</asrwt>
<pdfrwt beam="1">  1       21 0.35894781E-01 0.45196579E+03</pdfrwt>
<pdfrwt beam="2">  1       21 0.30768194E-01 0.45196579E+03</pdfrwt>
<totfact> 0.70357877E+04</totfact>
</mgrwt>
</event>
<event>
 7    0  0.4691878E-002  0.4327530E+03  0.7546771E-02  0.1032994E+00
         21   -1    0    0  502  501  0.00000000000E+00  0.00000000000E+00  0.21579476508E+03  0.21579476508E+03  0.00000000000E+00 0.  1.
         21   -1    0    0  501  502 -0.00000000000E+00 -0.00000000000E+00 -0.21695978350E+03  0.21695978350E+03  0.00000000000E+00 0.  1.
      99926    2    1    2    0    0 -0.14210854715E-13  0.35527136788E-14 -0.11650184148E+01  0.43275454858E+03  0.43275298040E+03 0.  0.
      99925    2    3    3    0    0 -0.65406915071E+02 -0.46194696941E+01  0.64036599653E+02  0.27719696073E+03  0.26160669888E+03 0.  0.
         25    1    4    4    0    0 -0.17300060251E+02 -0.34443274358E+02  0.16642466340E+02  0.13194737974E+03  0.12509000000E+03 0.  0.
         25    1    4    4    0    0 -0.48106854820E+02  0.29823804664E+02  0.47394133312E+02  0.14524958099E+03  0.12509000000E+03 0.  0.
         25    1    3    3    0    0  0.65406915071E+02  0.46194696941E+01 -0.65201618067E+02  0.15555758785E+03  0.12509000000E+03 0.  0.
<mgrwt>
<rscale>  2 0.43275298E+03</rscale>
<asrwt>0</asrwt>
<pdfrwt beam="1">  1       21 0.31734525E-01 0.43275298E+03</pdfrwt>
<pdfrwt beam="2">  1       21 0.31905850E-01 0.43275298E+03</pdfrwt>
<totfact> 0.84187833E+04</totfact>
</mgrwt>
</event>
<event>
 7    0  0.4691878E-002  0.4578915E+03  0.7546771E-02  0.1025395E+00
         21   -1    0    0  502  501  0.00000000000E+00  0.00000000000E+00  0.42357195580E+03  0.42357195580E+03  0.00000000000E+00 0. -1.
         21   -1    0    0  501  502 -0.00000000000E+00 -0.00000000000E+00 -0.12374793100E+03  0.12374793100E+03  0.00000000000E+00 0. -1.
      99926    2    1    2    0    0  0.00000000000E+00  0.00000000000E+00  0.29982402480E+03  0.54731988679E+03  0.45789148565E+03 0.  0.
      99925    2    3    3    0    0  0.21949837354E+02  0.10921938672E+03  0.14998797876E+03  0.32257777105E+03  0.26296264908E+03 0.  0.
         25    1    4    4    0    0  0.50435085278E+02  0.60687324805E+02  0.87556025958E+02  0.17187267090E+03  0.12509000000E+03 0.  0.
         25    1    4    4    0    0 -0.28485247925E+02  0.48532061913E+02  0.62431952800E+02  0.15070510016E+03  0.12509000000E+03 0.  0.
         25    1    3    3    0    0 -0.21949837354E+02 -0.10921938672E+03  0.14983604604E+03  0.22474211574E+03  0.12509000000E+03 0.  0.
<mgrwt>
<rscale>  2 0.45789149E+03</rscale>
<asrwt>0</asrwt>
<pdfrwt beam="1">  1       21 0.62289993E-01 0.45789149E+03</pdfrwt>
<pdfrwt beam="2">  1       21 0.18198225E-01 0.45789149E+03</pdfrwt>
<totfact> 0.60644530E+04</totfact>
</mgrwt>
</event>
<event>
 7    0  0.4691878E-002  0.4499474E+03  0.7546771E-02  0.1027738E+00
         21   -1    0    0  502  501  0.00000000000E+00  0.00000000000E+00  0.42128329097E+03  0.42128329097E+03  0.00000000000E+00 0. -1.
         21   -1    0    0  501  502 -0.00000000000E+00 -0.00000000000E+00 -0.12014043458E+03  0.12014043458E+03  0.00000000000E+00 0. -1.
      99926    2    1    2    0    0  0.00000000000E+00  0.10269562978E-14  0.30114285639E+03  0.54142372555E+03  0.44994736429E+03 0.  0.
      99925    2    3    3    0    0  0.42063652803E+02  0.17436341541E+00  0.31055487014E+03  0.40911546657E+03  0.26298622841E+03 0.  0.
         25    1    4    4    0    0  0.19100764839E+02  0.25929912650E+02  0.10706363555E+03  0.16777165954E+03  0.12509000000E+03 0.  0.
         25    1    3    3    0    0 -0.42063652803E+02 -0.17436341541E+00 -0.94120137485E+01  0.13230825897E+03  0.12509000000E+03 0.  0.
         25    1    4    4    0    0  0.22962887964E+02 -0.25755549235E+02  0.20349123458E+03  0.24134380703E+03  0.12509000000E+03 0.  0.
<mgrwt>
<rscale>  2 0.44994736E+03</rscale>
<asrwt>0</asrwt>
<pdfrwt beam="1">  1       21 0.61953425E-01 0.44994736E+03</pdfrwt>
<pdfrwt beam="2">  1       21 0.17667711E-01 0.44994736E+03</pdfrwt>
<totfact> 0.64996956E+04</totfact>
</mgrwt>
</event>
<event>
 7    0  0.4691878E-002  0.4530286E+03  0.7546771E-02  0.1026823E+00
         21   -1    0    0  502  501  0.00000000000E+00  0.00000000000E+00  0.10921672861E+04  0.10921672861E+04  0.00000000000E+00 0. -1.
         21   -1    0    0  501  502 -0.00000000000E+00 -0.00000000000E+00 -0.46978817664E+02  0.46978817664E+02  0.00000000000E+00 0. -1.
      99926    2    1    2    0    0  0.00000000000E+00  0.00000000000E+00  0.10451884685E+04  0.11391461038E+04  0.45302859863E+03 0.  0.
      99925    2    3    3    0    0 -0.13334846043E+02 -0.87859840102E+02  0.49044513461E+03  0.56357261224E+03  0.26302184241E+03 0.  0.
         25    1    3    3    0    0  0.13334846043E+02  0.87859840102E+02  0.55474333385E+03  0.57557349154E+03  0.12509000000E+03 0.  0.
         25    1    4    4    0    0  0.30985332407E+01 -0.41485129539E+02  0.32288989273E+03  0.34876354140E+03  0.12509000000E+03 0.  0.
         25    1    4    4    0    0 -0.16433379283E+02 -0.46374710563E+02  0.16755524187E+03  0.21480907084E+03  0.12509000000E+03 0.  0.
<mgrwt>
<rscale>  2 0.45302860E+03</rscale>
<asrwt>0</asrwt>
<pdfrwt beam="1">  1       21 0.16061282E+00 0.45302860E+03</pdfrwt>
<pdfrwt beam="2">  1       21 0.69086504E-02 0.45302860E+03</pdfrwt>
<totfact> 0.34676623E+04</totfact>
</mgrwt>
</event>
<event>
 7    0  0.4691878E-002  0.4566594E+03  0.7546771E-02  0.1025755E+00
         21   -1    0    0  502  501  0.00000000000E+00  0.00000000000E+00  0.16056320166E+04  0.16056320166E+04  0.00000000000E+00 0.  1.
         21   -1    0    0  501  502 -0.00000000000E+00 -0.00000000000E+00 -0.32469737089E+02  0.32469737089E+02  0.00000000000E+00 0.  1.
      99926    2    1    2    0    0  0.00000000000E+00 -0.14210854715E-13  0.15731622795E+04  0.16381017537E+04  0.45665938922E+03 0.  0.
      99925    2    3    3    0    0 -0.30561653973E+02 -0.10873103695E+03  0.91418938295E+03  0.95791851397E+03  0.26288628420E+03 0.  0.
         25    1    3    3    0    0  0.30561653973E+02  0.10873103695E+03  0.65897289655E+03  0.68018323971E+03  0.12509000000E+03 0.  0.
         25    1    4    4    0    0 -0.12388657924E+02 -0.84642025175E+02  0.39640870216E+03  0.42438793400E+03  0.12509000000E+03 0.  0.
         25    1    4    4    0    0 -0.18172996049E+02 -0.24089011773E+02  0.51778068079E+03  0.53353057998E+03  0.12509000000E+03 0.  0.
<mgrwt>
<rscale>  2 0.45665939E+03</rscale>
<asrwt>0</asrwt>
<pdfrwt beam="1">  1       21 0.23612230E+00 0.45665939E+03</pdfrwt>
<pdfrwt beam="2">  1       21 0.47749624E-02 0.45665939E+03</pdfrwt>
<totfact> 0.20319244E+04</totfact>
</mgrwt>
</event>
<event>
 7    0  0.4691878E-002  0.4540115E+03  0.7546771E-02  0.1026532E+00
         21   -1    0    0  502  501  0.00000000000E+00  0.00000000000E+00  0.41383902610E+03  0.41383902610E+03  0.00000000000E+00 0.  1.
         21   -1    0    0  501  502 -0.00000000000E+00 -0.00000000000E+00 -0.12452092885E+03  0.12452092885E+03  0.00000000000E+00 0.  1.
      99926    2    1    2    0    0 -0.14210854715E-13  0.00000000000E+00  0.28931809726E+03  0.53835995495E+03  0.45401154136E+03 0.  0.
      99925    2    3    3    0    0 -0.65727434410E+02 -0.84838116833E+02  0.14330125810E+03  0.31816452557E+03  0.26301295226E+03 0.  0.
         25    1    4    4    0    0 -0.65684018861E+02 -0.18632359087E+02  0.74053951629E+02  0.16060215126E+03  0.12509000000E+03 0.  0.
         25    1    3    3    0    0  0.65727434410E+02  0.84838116833E+02  0.14601683915E+03  0.22019542938E+03  0.12509000000E+03 0.  0.
         25    1    4    4    0    0 -0.43415548473E-01 -0.66205757746E+02  0.69247306475E+02  0.15756237431E+03  0.12509000000E+03 0.  0.
<mgrwt>
<rscale>  2 0.45401154E+03</rscale>
<asrwt>0</asrwt>
<pdfrwt beam="1">  1       21 0.60858680E-01 0.45401154E+03</pdfrwt>
<pdfrwt beam="2">  1       21 0.18311901E-01 0.45401154E+03</pdfrwt>
<totfact> 0.63134761E+04</totfact>
</mgrwt>
</event>
<event>
 7    0  0.4691878E-002  0.4557057E+03  0.7546771E-02  0.1026034E+00
         21   -1    0    0  502  501  0.00000000000E+00  0.00000000000E+00  0.15714862290E+03  0.15714862290E+03  0.00000000000E+00 0. -1.
         21   -1    0    0  501  502 -0.00000000000E+00 -0.00000000000E+00 -0.33036826928E+03  0.33036826928E+03  0.00000000000E+00 0. -1.
      99926    2    1    2    0    0  0.00000000000E+00  0.35527136788E-14 -0.17321964638E+03  0.48751689218E+03  0.45570568821E+03 0.  0.
      99925    2    3    3    0    0 -0.10512838273E+03 -0.18508997775E+02 -0.15127934669E+03  0.32161497927E+03  0.26297565344E+03 0.  0.
         25    1    4    4    0    0 -0.22596110035E+02  0.19328599764E+02 -0.57711006762E+02  0.14093348558E+03  0.12509000000E+03 0.  0.
         25    1    4    4    0    0 -0.82532272699E+02 -0.37837597539E+02 -0.93568339928E+02  0.18068149369E+03  0.12509000000E+03 0.  0.
         25    1    3    3    0    0  0.10512838273E+03  0.18508997775E+02 -0.21940299686E+02  0.16590191290E+03  0.12509000000E+03 0.  0.
<mgrwt>
<rscale>  2 0.45570569E+03</rscale>
<asrwt>0</asrwt>
<pdfrwt beam="1">  1       21 0.23110092E-01 0.45570569E+03</pdfrwt>
<pdfrwt beam="2">  1       21 0.48583569E-01 0.45570569E+03</pdfrwt>
<totfact> 0.65787540E+04</totfact>
</mgrwt>
</event>
<event>
 7    0  0.4691878E-002  0.4569928E+03  0.7546771E-02  0.1025657E+00
         21   -1    0    0  502  501  0.00000000000E+00  0.00000000000E+00  0.50544181194E+03  0.50544181194E+03  0.00000000000E+00 0.  1.
         21   -1    0    0  501  502 -0.00000000000E+00 -0.00000000000E+00 -0.10329694737E+03  0.10329694737E+03  0.00000000000E+00 0.  1.
      99926    2    1    2    0    0  0.71054273576E-14  0.00000000000E+00  0.40214486457E+03  0.60873875930E+03  0.45699276250E+03 0.  0.
      99925    2    3    3    0    0  0.58430274232E+02 -0.94796195488E+02  0.21417163109E+03  0.35698121675E+03  0.26299369940E+03 0.  0.
         25    1    4    4    0    0 -0.20968120397E+00 -0.75343796454E+02  0.10605180543E+03  0.18047499873E+03  0.12509000000E+03 0.  0.
         25    1    4    4    0    0  0.58639955436E+02 -0.19452399035E+02  0.10811982565E+03  0.17650621802E+03  0.12509000000E+03 0.  0.
         25    1    3    3    0    0 -0.58430274232E+02  0.94796195488E+02  0.18797323348E+03  0.25175754255E+03  0.12509000000E+03 0.  0.
<mgrwt>
<rscale>  2 0.45699276E+03</rscale>
<asrwt>0</asrwt>
<pdfrwt beam="1">  1       21 0.74329677E-01 0.45699276E+03</pdfrwt>
<pdfrwt beam="2">  1       21 0.15190728E-01 0.45699276E+03</pdfrwt>
<totfact> 0.57237243E+04</totfact>
</mgrwt>
</event>
<event>
 6    0  0.4691878E-002  0.4535296E+03  0.7546771E-02  0.1026675E+00
         21   -1    0    0  502  501  0.00000000000E+00  0.00000000000E+00  0.10876644603E+03  0.10876644603E+03  0.00000000000E+00 0. -1.
         21   -1    0    0  501  502 -0.00000000000E+00 -0.00000000000E+00 -0.47277697440E+03  0.47277697440E+03  0.00000000000E+00 0. -1.
      99926    2    1    2    0    0  0.00000000000E+00  0.00000000000E+00 -0.36401052836E+03  0.58154342043E+03  0.45352958568E+03 0.  0.
         25    1    3    3    0    0 -0.31031139826E+02  0.13001381605E+01 -0.14200617853E+03  0.19177561065E+03  0.12509000000E+03 0.  0.
         25    1    3    3    0    0 -0.76027775850E+02 -0.10870710032E+02 -0.59971991741E+02  0.15856400263E+03  0.12509000000E+03 0.  0.
         25    1    3    3    0    0  0.10705891568E+03  0.95705718720E+01 -0.16203235809E+03  0.23120380715E+03  0.12509000000E+03 0.  0.
<mgrwt>
<rscale>  2 0.45352959E+03</rscale>
<asrwt>0</asrwt>
<pdfrwt beam="1">  1       21 0.15995066E-01 0.45352959E+03</pdfrwt>
<pdfrwt beam="2">  1       21 0.69526024E-01 0.45352959E+03</pdfrwt>
<totfact> 0.60529485E+04</totfact>
</mgrwt>
</event>
<event>
 7    0  0.4691878E-002  0.4503981E+03  0.7546771E-02  0.1027603E+00
         21   -1    0    0  502  501  0.00000000000E+00  0.00000000000E+00  0.13813523262E+04  0.13813523262E+04  0.00000000000E+00 0. -1.
         21   -1    0    0  501  502 -0.00000000000E+00 -0.00000000000E+00 -0.36713734226E+02  0.36713734226E+02  0.00000000000E+00 0. -1.
      99926    2    1    2    0    0  0.00000000000E+00  0.00000000000E+00  0.13446385920E+04  0.14180660604E+04  0.45039805584E+03 0.  0.
      99925    2    3    3    0    0 -0.79432892144E+02  0.74239876606E+02  0.86688813930E+03  0.91238419723E+03  0.26292343689E+03 0.  0.
         25    1    4    4    0    0 -0.32541878893E+02  0.15971427746E+02  0.29978821550E+03  0.32685553787E+03  0.12509000000E+03 0.  0.
         25    1    3    3    0    0  0.79432892144E+02 -0.74239876606E+02  0.47775045270E+03  0.50568186321E+03  0.12509000000E+03 0.  0.
         25    1    4    4    0    0 -0.46891013251E+02  0.58268448859E+02  0.56709992380E+03  0.58552865936E+03  0.12509000000E+03 0.  0.
<mgrwt>
<rscale>  2 0.45039806E+03</rscale>
<asrwt>0</asrwt>
<pdfrwt beam="1">  1       21 0.20314001E+00 0.45039806E+03</pdfrwt>
<pdfrwt beam="2">  1       21 0.53990795E-02 0.45039806E+03</pdfrwt>
<totfact> 0.26800182E+04</totfact>
</mgrwt>
</event>
<event>
 7    0  0.4691878E-002  0.4464586E+03  0.7546771E-02  0.1028783E+00
         21   -1    0    0  502  501  0.00000000000E+00  0.00000000000E+00  0.92932049789E+02  0.92932049789E+02  0.00000000000E+00 0. -1.
         21   -1    0    0  501  502 -0.00000000000E+00 -0.00000000000E+00 -0.53621235862E+03  0.53621235862E+03  0.00000000000E+00 0. -1.
      99926    2    1    2    0    0  0.00000000000E+00  0.00000000000E+00 -0.44328030884E+03  0.62914440841E+03  0.44645856968E+03 0.  0.
      99925    2    3    3    0    0 -0.34985367709E+02  0.90173670804E+02 -0.33946334830E+03  0.43998644201E+03  0.26267363296E+03 0.  0.
         25    1    4    4    0    0 -0.39115926789E+01  0.14726267759E+02 -0.19518319966E+03  0.23232768464E+03  0.12509000000E+03 0.  0.
         25    1    3    3    0    0  0.34985367709E+02 -0.90173670804E+02 -0.10381696053E+03  0.18915796640E+03  0.12509000000E+03 0.  0.
         25    1    4    4    0    0 -0.31073775030E+02  0.75447403045E+02 -0.14428014864E+03  0.20765875737E+03  0.12509000000E+03 0.  0.
<mgrwt>
<rscale>  2 0.44645857E+03</rscale>
<asrwt>0</asrwt>
<pdfrwt beam="1">  1       21 0.13666477E-01 0.44645857E+03</pdfrwt>
<pdfrwt beam="2">  1       21 0.78854762E-01 0.44645857E+03</pdfrwt>
<totfact> 0.60924307E+04</totfact>
</mgrwt>
</event>
<event>
 7    0  0.4691878E-002  0.4482764E+03  0.7546771E-02  0.1028237E+00
         21   -1    0    0  502  501  0.00000000000E+00  0.00000000000E+00  0.30104206329E+03  0.30104206329E+03  0.00000000000E+00 0. -1.
         21   -1    0    0  501  502 -0.00000000000E+00 -0.00000000000E+00 -0.16688010416E+03  0.16688010416E+03  0.00000000000E+00 0. -1.
      99926    2    1    2    0    0  0.35527136788E-14  0.00000000000E+00  0.13416195912E+03  0.46792216745E+03  0.44827639188E+03 0.  0.
      99925    2    3    3    0    0  0.24748907315E+02 -0.29909402050E+02  0.18886264085E+03  0.32598290781E+03  0.26284725285E+03 0.  0.
         25    1    4    4    0    0  0.27591293334E+02 -0.26633953187E+02  0.13999560010E+03  0.19161660439E+03  0.12509000000E+03 0.  0.
         25    1    3    3    0    0 -0.24748907315E+02  0.29909402050E+02 -0.54700681731E+02  0.14193925964E+03  0.12509000000E+03 0.  0.
         25    1    4    4    0    0 -0.28423860191E+01 -0.32754488627E+01  0.48867040749E+02  0.13436630342E+03  0.12509000000E+03 0.  0.
<mgrwt>
<rscale>  2 0.44827639E+03</rscale>
<asrwt>0</asrwt>
<pdfrwt beam="1">  1       21 0.44270892E-01 0.44827639E+03</pdfrwt>
<pdfrwt beam="2">  1       21 0.24541192E-01 0.44827639E+03</pdfrwt>
<totfact> 0.71319923E+04</totfact>
</mgrwt>
</event>
<event>
 7    0  0.4691878E-002  0.5020328E+03  0.7546771E-02  0.1013250E+00
         21   -1    0    0  502  501  0.00000000000E+00  0.00000000000E+00  0.14462490235E+03  0.14462490235E+03  0.00000000000E+00 0. -1.
         21   -1    0    0  501  502 -0.00000000000E+00 -0.00000000000E+00 -0.43567353809E+03  0.43567353809E+03  0.00000000000E+00 0. -1.
      99926    2    1    2    0    0  0.71054273576E-14  0.28421709430E-13 -0.29104863575E+03  0.58029844044E+03  0.50203283918E+03 0.  0.
      99925    2    3    3    0    0 -0.58174772510E+02 -0.14158563466E+03 -0.17816898225E+03  0.35265810928E+03  0.26304516666E+03 0.  0.
         25    1    4    4    0    0 -0.38795505702E+02 -0.10598942621E+03 -0.12929851546E+03  0.21237811547E+03  0.12509000000E+03 0.  0.
         25    1    4    4    0    0 -0.19379266808E+02 -0.35596208451E+02 -0.48870466787E+02  0.14027999381E+03  0.12509000000E+03 0.  0.
         25    1    3    3    0    0  0.58174772510E+02  0.14158563466E+03 -0.11287965350E+03  0.22764033117E+03  0.12509000000E+03 0.  0.
<mgrwt>
<rscale>  2 0.50203284E+03</rscale>
<asrwt>0</asrwt>
<pdfrwt beam="1">  1       21 0.21268368E-01 0.50203284E+03</pdfrwt>
<pdfrwt beam="2">  1       21 0.64069638E-01 0.50203284E+03</pdfrwt>
<totfact> 0.41969839E+04</totfact>
</mgrwt>
</event>
<event>
 7    0  0.4691878E-002  0.4556278E+03  0.7546771E-02  0.1026057E+00
         21   -1    0    0  502  501  0.00000000000E+00  0.00000000000E+00  0.80804335210E+03  0.80804335210E+03  0.00000000000E+00 0.  1.
         21   -1    0    0  501  502 -0.00000000000E+00 -0.00000000000E+00 -0.64228194381E+02  0.64228194381E+02  0.00000000000E+00 0.  1.
      99926    2    1    2    0    0  0.00000000000E+00 -0.14210854715E-13  0.74381515772E+03  0.87227154648E+03  0.45562776688E+03 0.  0.
      99925    2    3    3    0    0  0.28913172989E+02 -0.69256377600E+02  0.63146252454E+03  0.68814376560E+03  0.26299145390E+03 0.  0.
         25    1    4    4    0    0  0.50498682131E+02 -0.16098890817E+02  0.31727854682E+03  0.34514124001E+03  0.12509000000E+03 0.  0.
         25    1    3    3    0    0 -0.28913172989E+02  0.69256377600E+02  0.11235263319E+03  0.18412778089E+03  0.12509000000E+03 0.  0.
         25    1    4    4    0    0 -0.21585509141E+02 -0.53157486783E+02  0.31418397772E+03  0.34300252559E+03  0.12509000000E+03 0.  0.
<mgrwt>
<rscale>  2 0.45562777E+03</rscale>
<asrwt>0</asrwt>
<pdfrwt beam="1">  1       21 0.11882990E+00 0.45562777E+03</pdfrwt>
<pdfrwt beam="2">  1       21 0.94453232E-02 0.45562777E+03</pdfrwt>
<totfact> 0.44236386E+04</totfact>
</mgrwt>
</event>
<event>
 7    0  0.4691878E-002  0.4234837E+03  0.7546771E-02  0.1035938E+00
         21   -1    0    0  502  501  0.00000000000E+00  0.00000000000E+00  0.23630518208E+03  0.23630518208E+03  0.00000000000E+00 0.  1.
         21   -1    0    0  501  502 -0.00000000000E+00 -0.00000000000E+00 -0.18973181170E+03  0.18973181170E+03  0.00000000000E+00 0.  1.
      99926    2    1    2    0    0  0.71054273576E-14  0.00000000000E+00  0.46573370385E+02  0.42603699378E+03  0.42348369654E+03 0.  0.
      99925    2    3    3    0    0  0.33637665754E+02  0.13380537915E+02 -0.41711598581E+02  0.26870843566E+03  0.26297116684E+03 0.  0.
         25    1    3    3    0    0 -0.33637665754E+02 -0.13380537915E+02  0.88284968966E+02  0.15732855811E+03  0.12509000000E+03 0.  0.
         25    1    4    4    0    0 -0.19641930253E+02  0.30196028189E-01 -0.37367867010E+02  0.13202148280E+03  0.12509000000E+03 0.  0.
         25    1    4    4    0    0  0.53279596007E+02  0.13350341887E+02 -0.43437315703E+01  0.13668695286E+03  0.12509000000E+03 0.  0.
<mgrwt>
<rscale>  2 0.42348370E+03</rscale>
<asrwt>0</asrwt>
<pdfrwt beam="1">  1       21 0.34750762E-01 0.42348370E+03</pdfrwt>
<pdfrwt beam="2">  1       21 0.27901737E-01 0.42348370E+03</pdfrwt>
<totfact> 0.91700245E+04</totfact>
</mgrwt>
</event>
<event>
 7    0  0.4691878E-002  0.4571314E+03  0.7546771E-02  0.1025616E+00
         21   -1    0    0  502  501  0.00000000000E+00  0.00000000000E+00  0.26822580916E+03  0.26822580916E+03  0.00000000000E+00 0. -1.
         21   -1    0    0  501  502 -0.00000000000E+00 -0.00000000000E+00 -0.19476980571E+03  0.19476980571E+03  0.00000000000E+00 0. -1.
      99926    2    1    2    0    0  0.00000000000E+00  0.00000000000E+00  0.73456003450E+02  0.46299561486E+03  0.45713144165E+03 0.  0.
      99925    2    3    3    0    0  0.25022096890E+02 -0.24866652225E+02 -0.64840708987E+02  0.27321167324E+03  0.26305103142E+03 0.  0.
         25    1    4    4    0    0  0.20475643042E+02 -0.27672403695E+02 -0.70922886745E+02  0.14785999408E+03  0.12509000000E+03 0.  0.
         25    1    4    4    0    0  0.45464538482E+01  0.28057514698E+01  0.60821777576E+01  0.12535167917E+03  0.12509000000E+03 0.  0.
         25    1    3    3    0    0 -0.25022096890E+02  0.24866652225E+02  0.13829671244E+03  0.18978394162E+03  0.12509000000E+03 0.  0.
<mgrwt>
<rscale>  2 0.45713144E+03</rscale>
<asrwt>0</asrwt>
<pdfrwt beam="1">  1       21 0.39444972E-01 0.45713144E+03</pdfrwt>
<pdfrwt beam="2">  1       21 0.28642619E-01 0.45713144E+03</pdfrwt>
<totfact> 0.66819755E+04</totfact>
</mgrwt>
</event>
<event>
 7    0  0.4691878E-002  0.4612018E+03  0.7546771E-02  0.1024433E+00
         21   -1    0    0  502  501  0.00000000000E+00  0.00000000000E+00  0.14393352579E+03  0.14393352579E+03  0.00000000000E+00 0.  1.
         21   -1    0    0  501  502 -0.00000000000E+00 -0.00000000000E+00 -0.36945372967E+03  0.36945372967E+03  0.00000000000E+00 0.  1.
      99926    2    1    2    0    0 -0.71054273576E-14  0.00000000000E+00 -0.22552020388E+03  0.51338725546E+03  0.46120181234E+03 0.  0.
      99925    2    3    3    0    0 -0.41150883909E+02  0.67946520234E+02 -0.23961123751E+03  0.36453769991E+03  0.26299061704E+03 0.  0.
         25    1    4    4    0    0 -0.61497366191E+02  0.33225444985E+02 -0.12753748389E+03  0.19183110837E+03  0.12509000000E+03 0.  0.
         25    1    3    3    0    0  0.41150883909E+02 -0.67946520234E+02  0.14091033630E+02  0.14884955555E+03  0.12509000000E+03 0.  0.
         25    1    4    4    0    0  0.20346482282E+02  0.34721075248E+02 -0.11207375362E+03  0.17270659153E+03  0.12509000000E+03 0.  0.
<mgrwt>
<rscale>  2 0.46120181E+03</rscale>
<asrwt>0</asrwt>
<pdfrwt beam="1">  1       21 0.21166695E-01 0.46120181E+03</pdfrwt>
<pdfrwt beam="2">  1       21 0.54331430E-01 0.46120181E+03</pdfrwt>
<totfact> 0.61268436E+04</totfact>
</mgrwt>
</event>
<event>
 7    0  0.4691878E-002  0.4552292E+03  0.7546771E-02  0.1026174E+00
         21   -1    0    0  502  501  0.00000000000E+00  0.00000000000E+00  0.10280101678E+03  0.10280101678E+03  0.00000000000E+00 0. -1.
         21   -1    0    0  501  502 -0.00000000000E+00 -0.00000000000E+00 -0.50396777849E+03  0.50396777849E+03  0.00000000000E+00 0. -1.
      99926    2    1    2    0    0  0.17763568394E-14 -0.71054273576E-14 -0.40116676171E+03  0.60676879527E+03  0.45522917329E+03 0.  0.
      99925    2    3    3    0    0 -0.11925536750E+02  0.38654735830E+02 -0.39351565718E+03  0.47507804188E+03  0.26307445030E+03 0.  0.
         25    1    4    4    0    0 -0.16884317459E+02 -0.38567800990E+00 -0.25383728794E+03  0.28348916341E+03  0.12509000000E+03 0.  0.
         25    1    3    3    0    0  0.11925536750E+02 -0.38654735830E+02 -0.76511045328E+01  0.13169075339E+03  0.12509000000E+03 0.  0.
         25    1    4    4    0    0  0.49587807087E+01  0.39040413840E+02 -0.13967836924E+03  0.19158887847E+03  0.12509000000E+03 0.  0.
<mgrwt>
<rscale>  2 0.45522917E+03</rscale>
<asrwt>0</asrwt>
<pdfrwt beam="1">  1       21 0.15117797E-01 0.45522917E+03</pdfrwt>
<pdfrwt beam="2">  1       21 0.74112909E-01 0.45522917E+03</pdfrwt>
<totfact> 0.58158193E+04</totfact>
</mgrwt>
</event>
<event>
 7    0  0.4691878E-002  0.4604097E+03  0.7546771E-02  0.1024662E+00
         21   -1    0    0  502  501  0.00000000000E+00  0.00000000000E+00  0.39362182458E+03  0.39362182458E+03  0.00000000000E+00 0.  1.
         21   -1    0    0  501  502 -0.00000000000E+00 -0.00000000000E+00 -0.13463242818E+03  0.13463242818E+03  0.00000000000E+00 0.  1.
      99926    2    1    2    0    0 -0.71054273576E-14  0.71054273576E-14  0.25898939640E+03  0.52825425276E+03  0.46040965250E+03 0.  0.
      99925    2    3    3    0    0  0.63704983685E+02 -0.52390426385E+02  0.65104933778E+02  0.28322002113E+03  0.26300541106E+03 0.  0.
         25    1    3    3    0    0 -0.63704983685E+02  0.52390426385E+02  0.19388446262E+03  0.24503423163E+03  0.12509000000E+03 0.  0.
         25    1    4    4    0    0 -0.16986755777E+00 -0.11221705587E+01  0.17547356842E+02  0.12631985574E+03  0.12509000000E+03 0.  0.
         25    1    4    4    0    0  0.63874851243E+02 -0.51268255827E+02  0.47557576936E+02  0.15690016539E+03  0.12509000000E+03 0.  0.
<mgrwt>
<rscale>  2 0.46040965E+03</rscale>
<asrwt>0</asrwt>
<pdfrwt beam="1">  1       21 0.57885562E-01 0.46040965E+03</pdfrwt>
<pdfrwt beam="2">  1       21 0.19798887E-01 0.46040965E+03</pdfrwt>
<totfact> 0.60680606E+04</totfact>
</mgrwt>
</event>
<event>
 7    0  0.4691878E-002  0.4567124E+03  0.7546771E-02  0.1025739E+00
         21   -1    0    0  502  501  0.00000000000E+00  0.00000000000E+00  0.98220517978E+03  0.98220517978E+03  0.00000000000E+00 0.  1.
         21   -1    0    0  501  502 -0.00000000000E+00 -0.00000000000E+00 -0.53091295480E+02  0.53091295480E+02  0.00000000000E+00 0.  1.
      99926    2    1    2    0    0  0.71054273576E-14  0.71054273576E-14  0.92911388430E+03  0.10352964753E+04  0.45671236209E+03 0.  0.
      99925    2    3    3    0    0  0.53871915694E+02 -0.55058807216E+02  0.77660149775E+03  0.82353908648E+03  0.26300776623E+03 0.  0.
         25    1    4    4    0    0  0.59343188066E+01 -0.59488225720E+02  0.43606279015E+03  0.45757221309E+03  0.12509000000E+03 0.  0.
         25    1    4    4    0    0  0.47937596887E+02  0.44294185048E+01  0.34053870760E+03  0.36596687339E+03  0.12509000000E+03 0.  0.
         25    1    3    3    0    0 -0.53871915694E+02  0.55058807216E+02  0.15251238655E+03  0.21175738878E+03  0.12509000000E+03 0.  0.
<mgrwt>
<rscale>  2 0.45671236E+03</rscale>
<asrwt>0</asrwt>
<pdfrwt beam="1">  1       21 0.14444193E+00 0.45671236E+03</pdfrwt>
<pdfrwt beam="2">  1       21 0.78075440E-02 0.45671236E+03</pdfrwt>
<totfact> 0.37320203E+04</totfact>
</mgrwt>
</event>
<event>
 7    0  0.4691878E-002  0.4651898E+03  0.7546771E-02  0.1023287E+00
         21   -1    0    0  502  501  0.00000000000E+00  0.00000000000E+00  0.26136880508E+03  0.26136880508E+03  0.00000000000E+00 0.  1.
         21   -1    0    0  501  502 -0.00000000000E+00 -0.00000000000E+00 -0.20698867350E+03  0.20698867350E+03  0.00000000000E+00 0.  1.
      99926    2    1    2    0    0  0.00000000000E+00 -0.33306690739E-15  0.54380131579E+02  0.46835747859E+03  0.46518977745E+03 0.  0.
      99925    2    3    3    0    0  0.10444095773E+03  0.47176417618E+00  0.98603670264E+02  0.29950438952E+03  0.26281563755E+03 0.  0.
         25    1    4    4    0    0  0.75747544335E+02  0.10682832255E+02  0.86385639431E+02  0.17018166816E+03  0.12509000000E+03 0.  0.
         25    1    4    4    0    0  0.28693413395E+02 -0.10211068078E+02  0.12218030834E+02  0.12932272136E+03  0.12509000000E+03 0.  0.
         25    1    3    3    0    0 -0.10444095773E+03 -0.47176417618E+00 -0.44223538686E+02  0.16885308907E+03  0.12509000000E+03 0.  0.
<mgrwt>
<rscale>  2 0.46518978E+03</rscale>
<asrwt>0</asrwt>
<pdfrwt beam="1">  1       21 0.38436589E-01 0.46518978E+03</pdfrwt>
<pdfrwt beam="2">  1       21 0.30439511E-01 0.46518978E+03</pdfrwt>
<totfact> 0.62352545E+04</totfact>
</mgrwt>
</event>
<event>
 7    0  0.4691878E-002  0.4521519E+03  0.7546771E-02  0.1027082E+00
         21   -1    0    0  502  501  0.00000000000E+00  0.00000000000E+00  0.63372142135E+03  0.63372142135E+03  0.00000000000E+00 0.  1.
         21   -1    0    0  501  502 -0.00000000000E+00 -0.00000000000E+00 -0.80651110140E+02  0.80651110140E+02  0.00000000000E+00 0.  1.
      99926    2    1    2    0    0  0.00000000000E+00  0.00000000000E+00  0.55307031121E+03  0.71437253149E+03  0.45215190435E+03 0.  0.
      99925    2    3    3    0    0  0.44168222329E+02 -0.74481034811E+02  0.24071035971E+03  0.36693260314E+03  0.26305855159E+03 0.  0.
         25    1    3    3    0    0 -0.44168222329E+02  0.74481034811E+02  0.31235995151E+03  0.34743992835E+03  0.12509000000E+03 0.  0.
         25    1    4    4    0    0  0.15277057106E+02 -0.42774304989E+02  0.68112685807E+02  0.14949874819E+03  0.12509000000E+03 0.  0.
         25    1    4    4    0    0  0.28891165224E+02 -0.31706729822E+02  0.17259767390E+03  0.21743385495E+03  0.12509000000E+03 0.  0.
<mgrwt>
<rscale>  2 0.45215190E+03</rscale>
<asrwt>0</asrwt>
<pdfrwt beam="1">  1       21 0.93194324E-01 0.45215190E+03</pdfrwt>
<pdfrwt beam="2">  1       21 0.11860458E-01 0.45215190E+03</pdfrwt>
<totfact> 0.53314091E+04</totfact>
</mgrwt>
</event>
<event>
 7    0  0.4691878E-002  0.4752291E+03  0.7546771E-02  0.1020455E+00
         21   -1    0    0  502  501  0.00000000000E+00  0.00000000000E+00  0.12020317629E+03  0.12020317629E+03  0.00000000000E+00 0. -1.
         21   -1    0    0  501  502 -0.00000000000E+00 -0.00000000000E+00 -0.46971025903E+03  0.46971025903E+03  0.00000000000E+00 0. -1.
      99926    2    1    2    0    0  0.00000000000E+00  0.00000000000E+00 -0.34950708274E+03  0.58991343532E+03  0.47522906087E+03 0.  0.
      99925    2    3    3    0    0 -0.80035575384E+02 -0.10399377513E+03 -0.21866830318E+03  0.36633639507E+03  0.26299454166E+03 0.  0.
         25    1    3    3    0    0  0.80035575384E+02  0.10399377513E+03 -0.13083877956E+03  0.22357704025E+03  0.12509000000E+03 0.  0.
         25    1    4    4    0    0 -0.61686887380E+02 -0.22556514749E+02 -0.83396533162E+02  0.16406266570E+03  0.12509000000E+03 0.  0.
         25    1    4    4    0    0 -0.18348688004E+02 -0.81437260382E+02 -0.13527177002E+03  0.20227372937E+03  0.12509000000E+03 0.  0.
<mgrwt>
<rscale>  2 0.47522906E+03</rscale>
<asrwt>0</asrwt>
<pdfrwt beam="1">  1       21 0.17676938E-01 0.47522906E+03</pdfrwt>
<pdfrwt beam="2">  1       21 0.69075036E-01 0.47522906E+03</pdfrwt>
<totfact> 0.50697654E+04</totfact>
</mgrwt>
</event>
<event>
 7    0  0.4691878E-002  0.4560327E+03  0.7546771E-02  0.1025938E+00
         21   -1    0    0  502  501  0.00000000000E+00  0.00000000000E+00  0.23458306127E+02  0.23458306127E+02  0.00000000000E+00 0.  1.
         21   -1    0    0  501  502 -0.00000000000E+00 -0.00000000000E+00 -0.22163345977E+04  0.22163345977E+04  0.00000000000E+00 0.  1.
      99926    2    1    2    0    0 -0.44408920985E-14  0.14210854715E-13 -0.21928762916E+04  0.22397929038E+04  0.45603269827E+03 0.  0.
      99925    2    3    3    0    0  0.71542282045E+01 -0.10792873164E+03 -0.11998645567E+04  0.12331054609E+04  0.26301013123E+03 0.  0.
         25    1    4    4    0    0 -0.22995844806E+02 -0.81358721545E+02 -0.56788665730E+03  0.58761451147E+03  0.12509000000E+03 0.  0.
         25    1    3    3    0    0 -0.71542282045E+01  0.10792873164E+03 -0.99301173489E+03  0.10066874430E+04  0.12509000000E+03 0.  0.
         25    1    4    4    0    0  0.30150073010E+02 -0.26570010095E+02 -0.63197789939E+03  0.64549094940E+03  0.12509000000E+03 0.  0.
<mgrwt>
<rscale>  2 0.45603270E+03</rscale>
<asrwt>0</asrwt>
<pdfrwt beam="1">  1       21 0.34497530E-02 0.45603270E+03</pdfrwt>
<pdfrwt beam="2">  1       21 0.32593136E+00 0.45603270E+03</pdfrwt>
<totfact> 0.10093742E+04</totfact>
</mgrwt>
</event>
<event>
 7    0  0.4691878E-002  0.4491106E+03  0.7546771E-02  0.1027988E+00
         21   -1    0    0  502  501  0.00000000000E+00  0.00000000000E+00  0.25609632476E+03  0.25609632476E+03  0.00000000000E+00 0. -1.
         21   -1    0    0  501  502 -0.00000000000E+00 -0.00000000000E+00 -0.19689891395E+03  0.19689891395E+03  0.00000000000E+00 0. -1.
      99926    2    1    2    0    0  0.14210854715E-13 -0.71054273576E-14  0.59197410812E+02  0.45299523871E+03  0.44911062428E+03 0.  0.
      99925    2    3    3    0    0  0.93487110873E+02 -0.47232523977E+02  0.12894590836E+02  0.28340098627E+03  0.26301919574E+03 0.  0.
         25    1    3    3    0    0 -0.93487110873E+02  0.47232523977E+02  0.46302819976E+02  0.16959425243E+03  0.12509000000E+03 0.  0.
         25    1    4    4    0    0  0.83822913804E+02 -0.53282698379E+01  0.21228464082E+01  0.15068737809E+03  0.12509000000E+03 0.  0.
         25    1    4    4    0    0  0.96641970681E+01 -0.41904254139E+02  0.10771744428E+02  0.13271360819E+03  0.12509000000E+03 0.  0.
<mgrwt>
<rscale>  2 0.44911062E+03</rscale>
<asrwt>0</asrwt>
<pdfrwt beam="1">  1       21 0.37661224E-01 0.44911062E+03</pdfrwt>
<pdfrwt beam="2">  1       21 0.28955723E-01 0.44911062E+03</pdfrwt>
<totfact> 0.72017545E+04</totfact>
</mgrwt>
</event>
<event>
 7    0  0.4691878E-002  0.4562101E+03  0.7546771E-02  0.1025886E+00
         21   -1    0    0  502  501  0.00000000000E+00  0.00000000000E+00  0.52181575814E+02  0.52181575814E+02  0.00000000000E+00 0.  1.
         21   -1    0    0  501  502 -0.00000000000E+00 -0.00000000000E+00 -0.99713207145E+03  0.99713207145E+03  0.00000000000E+00 0.  1.
      99926    2    1    2    0    0  0.14210854715E-13  0.71054273576E-14 -0.94495049563E+03  0.10493136473E+04  0.45621013922E+03 0.  0.
      99925    2    3    3    0    0  0.82179569437E+02  0.47535087194E+02 -0.74040308616E+03  0.79143728741E+03  0.26298894228E+03 0.  0.
         25    1    3    3    0    0 -0.82179569437E+02 -0.47535087194E+02 -0.20454740947E+03  0.25787635985E+03  0.12509000000E+03 0.  0.
         25    1    4    4    0    0  0.38171423808E+01  0.31666508073E+01 -0.34951689644E+03  0.37126024195E+03  0.12509000000E+03 0.  0.
         25    1    4    4    0    0  0.78362427056E+02  0.44368436386E+02 -0.39088618972E+03  0.42017704546E+03  0.12509000000E+03 0.  0.
<mgrwt>
<rscale>  2 0.45621014E+03</rscale>
<asrwt>0</asrwt>
<pdfrwt beam="1">  1       21 0.76737609E-02 0.45621014E+03</pdfrwt>
<pdfrwt beam="2">  1       21 0.14663707E+00 0.45621014E+03</pdfrwt>
<totfact> 0.36952309E+04</totfact>
</mgrwt>
</event>
<event>
 7    0  0.4691878E-002  0.4523360E+03  0.7546771E-02  0.1027028E+00
         21   -1    0    0  502  501  0.00000000000E+00  0.00000000000E+00  0.73179687617E+03  0.73179687617E+03  0.00000000000E+00 0. -1.
         21   -1    0    0  501  502 -0.00000000000E+00 -0.00000000000E+00 -0.69899129230E+02  0.69899129230E+02  0.00000000000E+00 0. -1.
      99926    2    1    2    0    0  0.00000000000E+00  0.71054273576E-14  0.66189774694E+03  0.80169600540E+03  0.45233600085E+03 0.  0.
      99925    2    3    3    0    0 -0.94766699479E+02 -0.50311875344E+02  0.46560149706E+03  0.54539201021E+03  0.26297467295E+03 0.  0.
         25    1    3    3    0    0  0.94766699479E+02  0.50311875344E+02  0.19629624988E+03  0.25630399519E+03  0.12509000000E+03 0.  0.
         25    1    4    4    0    0 -0.31991469833E+02 -0.10353231364E+02  0.15231237400E+03  0.19994301917E+03  0.12509000000E+03 0.  0.
         25    1    4    4    0    0 -0.62775229646E+02 -0.39958643980E+02  0.31328912305E+03  0.34544899104E+03  0.12509000000E+03 0.  0.
<mgrwt>
<rscale>  2 0.45233600E+03</rscale>
<asrwt>0</asrwt>
<pdfrwt beam="1">  1       21 0.10761718E+00 0.45233600E+03</pdfrwt>
<pdfrwt beam="2">  1       21 0.10279284E-01 0.45233600E+03</pdfrwt>
<totfact> 0.48692920E+04</totfact>
</mgrwt>
</event>
<event>
 7    0  0.4691878E-002  0.4749667E+03  0.7546771E-02  0.1020528E+00
         21   -1    0    0  502  501  0.00000000000E+00  0.00000000000E+00  0.13727117568E+03  0.13727117568E+03  0.00000000000E+00 0.  1.
         21   -1    0    0  501  502 -0.00000000000E+00 -0.00000000000E+00 -0.41085343129E+03  0.41085343129E+03  0.00000000000E+00 0.  1.
      99926    2    1    2    0    0  0.00000000000E+00  0.00000000000E+00 -0.27358225561E+03  0.54812460696E+03  0.47496666638E+03 0.  0.
      99925    2    3    3    0    0 -0.41351448034E+02 -0.26459426230E+02 -0.29014229618E+02  0.26907072161E+03  0.26295852186E+03 0.  0.
         25    1    4    4    0    0  0.25856801447E+01 -0.33898713507E+02 -0.40440881526E+02  0.13578947499E+03  0.12509000000E+03 0.  0.
         25    1    4    4    0    0 -0.43937128178E+02  0.74392872765E+01  0.11426651909E+02  0.13328124662E+03  0.12509000000E+03 0.  0.
         25    1    3    3    0    0  0.41351448034E+02  0.26459426230E+02 -0.24456802599E+03  0.27905388535E+03  0.12509000000E+03 0.  0.
<mgrwt>
<rscale>  2 0.47496667E+03</rscale>
<asrwt>0</asrwt>
<pdfrwt beam="1">  1       21 0.20186938E-01 0.47496667E+03</pdfrwt>
<pdfrwt beam="2">  1       21 0.60419622E-01 0.47496667E+03</pdfrwt>
<totfact> 0.53085629E+04</totfact>
</mgrwt>
</event>
<event>
 7    0  0.4691878E-002  0.4554641E+03  0.7546771E-02  0.1026105E+00
         21   -1    0    0  502  501  0.00000000000E+00  0.00000000000E+00  0.38679029920E+03  0.38679029920E+03  0.00000000000E+00 0.  1.
         21   -1    0    0  501  502 -0.00000000000E+00 -0.00000000000E+00 -0.13408268449E+03  0.13408268449E+03  0.00000000000E+00 0.  1.
      99926    2    1    2    0    0 -0.14210854715E-13  0.17763568394E-14  0.25270761471E+03  0.52087298369E+03  0.45546407828E+03 0.  0.
      99925    2    3    3    0    0 -0.10171007784E+03  0.75220238102E+01  0.10180763228E+03  0.29992087672E+03  0.26303273091E+03 0.  0.
         25    1    4    4    0    0 -0.85424328265E+02  0.13946169406E+02  0.31433227061E+02  0.15532986630E+03  0.12509000000E+03 0.  0.
         25    1    3    3    0    0  0.10171007784E+03 -0.75220238102E+01  0.15089998243E+03  0.22095210697E+03  0.12509000000E+03 0.  0.
         25    1    4    4    0    0 -0.16285749573E+02 -0.64241455956E+01  0.70374405217E+02  0.14459101042E+03  0.12509000000E+03 0.  0.
<mgrwt>
<rscale>  2 0.45546408E+03</rscale>
<asrwt>0</asrwt>
<pdfrwt beam="1">  1       21 0.56880926E-01 0.45546408E+03</pdfrwt>
<pdfrwt beam="2">  1       21 0.19718042E-01 0.45546408E+03</pdfrwt>
<totfact> 0.63593360E+04</totfact>
</mgrwt>
</event>
<event>
 7    0  0.4691878E-002  0.4577296E+03  0.7546771E-02  0.1025442E+00
         21   -1    0    0  502  501  0.00000000000E+00  0.00000000000E+00  0.28313643925E+03  0.28313643925E+03  0.00000000000E+00 0. -1.
         21   -1    0    0  501  502 -0.00000000000E+00 -0.00000000000E+00 -0.18499596956E+03  0.18499596956E+03  0.00000000000E+00 0. -1.
      99926    2    1    2    0    0  0.00000000000E+00  0.00000000000E+00  0.98140469695E+02  0.46813240881E+03  0.45772961494E+03 0.  0.
      99925    2    3    3    0    0 -0.41805182937E+02  0.87009351178E+02  0.12680598032E+03  0.30754747766E+03  0.26303496699E+03 0.  0.
         25    1    4    4    0    0  0.37019093445E+01  0.74998447518E+02  0.55788151972E+02  0.15619954310E+03  0.12509000000E+03 0.  0.
         25    1    4    4    0    0 -0.45507092281E+02  0.12010903659E+02  0.71017828348E+02  0.15134793457E+03  0.12509000000E+03 0.  0.
         25    1    3    3    0    0  0.41805182937E+02 -0.87009351178E+02 -0.28665510625E+02  0.16058493115E+03  0.12509000000E+03 0.  0.
<mgrwt>
<rscale>  2 0.45772961E+03</rscale>
<asrwt>0</asrwt>
<pdfrwt beam="1">  1       21 0.41637712E-01 0.45772961E+03</pdfrwt>
<pdfrwt beam="2">  1       21 0.27205290E-01 0.45772961E+03</pdfrwt>
<totfact> 0.66131838E+04</totfact>
</mgrwt>
</event>
<event>
 7    0  0.4691878E-002  0.4514433E+03  0.7546771E-02  0.1027293E+00
         21   -1    0    0  502  501  0.00000000000E+00  0.00000000000E+00  0.26870356808E+03  0.26870356808E+03  0.00000000000E+00 0.  1.
         21   -1    0    0  501  502 -0.00000000000E+00 -0.00000000000E+00 -0.18961515883E+03  0.18961515883E+03  0.00000000000E+00 0.  1.
      99926    2    1    2    0    0  0.00000000000E+00  0.00000000000E+00  0.79088409255E+02  0.45831872692E+03  0.45144332863E+03 0.  0.
      99925    2    3    3    0    0 -0.48867897249E+02  0.41164225885E+02  0.14053859522E+03  0.30500141436E+03  0.26304410493E+03 0.  0.
         25    1    4    4    0    0 -0.64908381810E+02  0.14569739678E+02  0.68931853946E+02  0.15755787486E+03  0.12509000000E+03 0.  0.
         25    1    4    4    0    0  0.16040484561E+02  0.26594486207E+02  0.71606741278E+02  0.14744353949E+03  0.12509000000E+03 0.  0.
         25    1    3    3    0    0  0.48867897249E+02 -0.41164225885E+02 -0.61450185970E+02  0.15331731256E+03  0.12509000000E+03 0.  0.
<mgrwt>
<rscale>  2 0.45144333E+03</rscale>
<asrwt>0</asrwt>
<pdfrwt beam="1">  1       21 0.39515231E-01 0.45144333E+03</pdfrwt>
<pdfrwt beam="2">  1       21 0.27884582E-01 0.45144333E+03</pdfrwt>
<totfact> 0.70274941E+04</totfact>
</mgrwt>
</event>
<event>
 7    0  0.4691878E-002  0.4529561E+03  0.7546771E-02  0.1026844E+00
         21   -1    0    0  502  501  0.00000000000E+00  0.00000000000E+00  0.91178289068E+02  0.91178289068E+02  0.00000000000E+00 0.  1.
         21   -1    0    0  501  502 -0.00000000000E+00 -0.00000000000E+00 -0.56254962393E+03  0.56254962393E+03  0.00000000000E+00 0.  1.
      99926    2    1    2    0    0  0.17763568394E-14  0.00000000000E+00 -0.47137133486E+03  0.65372791300E+03  0.45295612249E+03 0.  0.
      99925    2    3    3    0    0 -0.88443804002E+01 -0.68916587057E+02 -0.42254720656E+03  0.50253590712E+03  0.26299900597E+03 0.  0.
         25    1    4    4    0    0 -0.30297362530E+02 -0.54690072940E+02 -0.26584598844E+03  0.30038397415E+03  0.12509000000E+03 0.  0.
         25    1    4    4    0    0  0.21452982130E+02 -0.14226514117E+02 -0.15670121812E+03  0.20215193298E+03  0.12509000000E+03 0.  0.
         25    1    3    3    0    0  0.88443804002E+01  0.68916587057E+02 -0.48824128303E+02  0.15119200588E+03  0.12509000000E+03 0.  0.
<mgrwt>
<rscale>  2 0.45295612E+03</rscale>
<asrwt>0</asrwt>
<pdfrwt beam="1">  1       21 0.13408573E-01 0.45295612E+03</pdfrwt>
<pdfrwt beam="2">  1       21 0.82727882E-01 0.45295612E+03</pdfrwt>
<totfact> 0.56390877E+04</totfact>
</mgrwt>
</event>
<event>
 7    0  0.4691878E-002  0.4555271E+03  0.7546771E-02  0.1026087E+00
         21   -1    0    0  502  501  0.00000000000E+00  0.00000000000E+00  0.13429767820E+03  0.13429767820E+03  0.00000000000E+00 0. -1.
         21   -1    0    0  501  502 -0.00000000000E+00 -0.00000000000E+00 -0.38627795710E+03  0.38627795710E+03  0.00000000000E+00 0. -1.
      99926    2    1    2    0    0  0.00000000000E+00 -0.44408920985E-15 -0.25198027890E+03  0.52057563531E+03  0.45552709153E+03 0.  0.
      99925    2    3    3    0    0 -0.97022340888E+02  0.22278378101E+01 -0.22596699927E+03  0.36013095104E+03  0.26308728446E+03 0.  0.
         25    1    3    3    0    0  0.97022340888E+02 -0.22278378101E+01 -0.26013279626E+02  0.16044468427E+03  0.12509000000E+03 0.  0.
         25    1    4    4    0    0 -0.23312212533E+02 -0.12312866296E+02 -0.66942352786E+02  0.14430472143E+03  0.12509000000E+03 0.  0.
         25    1    4    4    0    0 -0.73710128356E+02  0.14540704106E+02 -0.15902464649E+03  0.21582622961E+03  0.12509000000E+03 0.  0.
<mgrwt>
<rscale>  2 0.45552709E+03</rscale>
<asrwt>0</asrwt>
<pdfrwt beam="1">  1       21 0.19749659E-01 0.45552709E+03</pdfrwt>
<pdfrwt beam="2">  1       21 0.56805580E-01 0.45552709E+03</pdfrwt>
<totfact> 0.63581760E+04</totfact>
</mgrwt>
</event>
<event>
 7    0  0.4691878E-002  0.4327048E+03  0.7546771E-02  0.1033009E+00
         21   -1    0    0  502  501  0.00000000000E+00  0.00000000000E+00  0.22021403047E+04  0.22021403047E+04  0.00000000000E+00 0.  1.
         21   -1    0    0  501  502 -0.00000000000E+00 -0.00000000000E+00 -0.21255844839E+02  0.21255844839E+02  0.00000000000E+00 0.  1.
      99926    2    1    2    0    0  0.00000000000E+00  0.00000000000E+00  0.21808844599E+04  0.22233961495E+04  0.43270476138E+03 0.  0.
      99925    2    3    3    0    0  0.61770204087E+02  0.39808405880E+02  0.16747340132E+04  0.16968640517E+04  0.26308425973E+03 0.  0.
         25    1    4    4    0    0 -0.93920009488E+01  0.15182357485E+02  0.71297213420E+03  0.72408251319E+03  0.12509000000E+03 0.  0.
         25    1    4    4    0    0  0.71162205036E+02  0.24626048395E+02  0.96176187897E+03  0.97278153849E+03  0.12509000000E+03 0.  0.
         25    1    3    3    0    0 -0.61770204087E+02 -0.39808405880E+02  0.50615044669E+03  0.52653209786E+03  0.12509000000E+03 0.  0.
<mgrwt>
<rscale>  2 0.43270476E+03</rscale>
<asrwt>0</asrwt>
<pdfrwt beam="1">  1       21 0.32384400E+00 0.43270476E+03</pdfrwt>
<pdfrwt beam="2">  1       21 0.31258611E-02 0.43270476E+03</pdfrwt>
<totfact> 0.12407106E+04</totfact>
</mgrwt>
</event>
<event>
 7    0  0.4691878E-002  0.4566255E+03  0.7546771E-02  0.1025764E+00
         21   -1    0    0  502  501  0.00000000000E+00  0.00000000000E+00  0.39321210139E+03  0.39321210139E+03  0.00000000000E+00 0.  1.
         21   -1    0    0  501  502 -0.00000000000E+00 -0.00000000000E+00 -0.13256640323E+03  0.13256640323E+03  0.00000000000E+00 0.  1.
      99926    2    1    2    0    0  0.00000000000E+00  0.00000000000E+00  0.26064569816E+03  0.52577850462E+03  0.45662550952E+03 0.  0.
      99925    2    3    3    0    0  0.86113472175E+02  0.27024676029E+02  0.24523995503E+03  0.37076009208E+03  0.26301054566E+03 0.  0.
         25    1    4    4    0    0  0.67263400790E+02 -0.11563433362E+02  0.98579215661E+02  0.17327275590E+03  0.12509000000E+03 0.  0.
         25    1    3    3    0    0 -0.86113472175E+02 -0.27024676029E+02  0.15405743129E+02  0.15501841254E+03  0.12509000000E+03 0.  0.
         25    1    4    4    0    0  0.18850071384E+02  0.38588109391E+02  0.14666073937E+03  0.19748733618E+03  0.12509000000E+03 0.  0.
<mgrwt>
<rscale>  2 0.45662551E+03</rscale>
<asrwt>0</asrwt>
<pdfrwt beam="1">  1       21 0.57825309E-01 0.45662551E+03</pdfrwt>
<pdfrwt beam="2">  1       21 0.19495059E-01 0.45662551E+03</pdfrwt>
<totfact> 0.62681581E+04</totfact>
</mgrwt>
</event>
<event>
 7    0  0.4691878E-002  0.4567758E+03  0.7546771E-02  0.1025720E+00
         21   -1    0    0  502  501  0.00000000000E+00  0.00000000000E+00  0.27628355427E+03  0.27628355427E+03  0.00000000000E+00 0.  1.
         21   -1    0    0  501  502 -0.00000000000E+00 -0.00000000000E+00 -0.18879528485E+03  0.18879528485E+03  0.00000000000E+00 0.  1.
      99926    2    1    2    0    0  0.00000000000E+00  0.00000000000E+00  0.87488269413E+02  0.46507883912E+03  0.45677579764E+03 0.  0.
      99925    2    3    3    0    0  0.99150073771E+02 -0.55145715856E+02  0.72912846647E+02  0.29557444934E+03  0.26301365894E+03 0.  0.
         25    1    4    4    0    0  0.74178331140E+02 -0.19435478263E+02  0.71234579559E+02  0.16310130610E+03  0.12509000000E+03 0.  0.
         25    1    4    4    0    0  0.24971742631E+02 -0.35710237593E+02  0.16782670878E+01  0.13247314324E+03  0.12509000000E+03 0.  0.
         25    1    3    3    0    0 -0.99150073771E+02  0.55145715856E+02  0.14575422766E+02  0.16950438978E+03  0.12509000000E+03 0.  0.
<mgrwt>
<rscale>  2 0.45677580E+03</rscale>
<asrwt>0</asrwt>
<pdfrwt beam="1">  1       21 0.40629934E-01 0.45677580E+03</pdfrwt>
<pdfrwt beam="2">  1       21 0.27764013E-01 0.45677580E+03</pdfrwt>
<totfact> 0.66855584E+04</totfact>
</mgrwt>
</event>
<event>
 7    0  0.4691878E-002  0.4564047E+03  0.7546771E-02  0.1025829E+00
         21   -1    0    0  502  501  0.00000000000E+00  0.00000000000E+00  0.26504482167E+03  0.26504482167E+03  0.00000000000E+00 0. -1.
         21   -1    0    0  501  502 -0.00000000000E+00 -0.00000000000E+00 -0.19648116808E+03  0.19648116808E+03  0.00000000000E+00 0. -1.
      99926    2    1    2    0    0  0.00000000000E+00  0.00000000000E+00  0.68563653583E+02  0.46152598975E+03  0.45640471582E+03 0.  0.
      99925    2    3    3    0    0 -0.31228594958E+02  0.10889053318E+03  0.59084704179E+02  0.29250015758E+03  0.26312158132E+03 0.  0.
         25    1    4    4    0    0 -0.22033141170E+02  0.79095350667E+02  0.65687636658E+02  0.16341330275E+03  0.12509000000E+03 0.  0.
         25    1    4    4    0    0 -0.91954537876E+01  0.29795182512E+02 -0.66029324782E+01  0.12908685482E+03  0.12509000000E+03 0.  0.
         25    1    3    3    0    0  0.31228594958E+02 -0.10889053318E+03  0.94789494039E+01  0.16902583217E+03  0.12509000000E+03 0.  0.
<mgrwt>
<rscale>  2 0.45640472E+03</rscale>
<asrwt>0</asrwt>
<pdfrwt beam="1">  1       21 0.38977180E-01 0.45640472E+03</pdfrwt>
<pdfrwt beam="2">  1       21 0.28894289E-01 0.45640472E+03</pdfrwt>
<totfact> 0.67312294E+04</totfact>
</mgrwt>
</event>
<event>
 7    0  0.4691878E-002  0.4450676E+03  0.7546771E-02  0.1029203E+00
         21   -1    0    0  502  501  0.00000000000E+00  0.00000000000E+00  0.19411598739E+03  0.19411598739E+03  0.00000000000E+00 0. -1.
         21   -1    0    0  501  502 -0.00000000000E+00 -0.00000000000E+00 -0.25511189713E+03  0.25511189713E+03  0.00000000000E+00 0. -1.
      99926    2    1    2    0    0  0.14210854715E-13  0.00000000000E+00 -0.60995909741E+02  0.44922788453E+03  0.44506762546E+03 0.  0.
      99925    2    3    3    0    0  0.93385128653E+02  0.44916686889E+02 -0.41500832729E+02  0.28562514267E+03  0.26290894240E+03 0.  0.
         25    1    3    3    0    0 -0.93385128653E+02 -0.44916686889E+02 -0.19495077011E+02  0.16360274185E+03  0.12509000000E+03 0.  0.
         25    1    4    4    0    0  0.23369425157E+02 -0.11874698401E+02 -0.28044296037E+02  0.13084773263E+03  0.12509000000E+03 0.  0.
         25    1    4    4    0    0  0.70015703496E+02  0.56791385290E+02 -0.13456536693E+02  0.15477741004E+03  0.12509000000E+03 0.  0.
<mgrwt>
<rscale>  2 0.44506763E+03</rscale>
<asrwt>0</asrwt>
<pdfrwt beam="1">  1       21 0.28546469E-01 0.44506763E+03</pdfrwt>
<pdfrwt beam="2">  1       21 0.37516455E-01 0.44506763E+03</pdfrwt>
<totfact> 0.74718057E+04</totfact>
</mgrwt>
</event>
<event>
 7    0  0.4691878E-002  0.4395660E+03  0.7546771E-02  0.1030880E+00
         21   -1    0    0  502  501  0.00000000000E+00  0.00000000000E+00  0.25343747972E+04  0.25343747972E+04  0.00000000000E+00 0. -1.
         21   -1    0    0  501  502 -0.00000000000E+00 -0.00000000000E+00 -0.19059759346E+02  0.19059759346E+02  0.00000000000E+00 0. -1.
      99926    2    1    2    0    0 -0.44408920985E-15  0.00000000000E+00  0.25153150378E+04  0.25534345565E+04  0.43956603020E+03 0.  0.
      99925    2    3    3    0    0 -0.37505610422E+01 -0.94355858386E+02  0.14484252775E+04  0.14750939964E+04  0.26277256157E+03 0.  0.
         25    1    4    4    0    0 -0.69326665409E+01 -0.43060888502E+02  0.92694173103E+03  0.93636039152E+03  0.12509000000E+03 0.  0.
         25    1    4    4    0    0  0.31821054988E+01 -0.51294969884E+02  0.52148354646E+03  0.53873360491E+03  0.12509000000E+03 0.  0.
         25    1    3    3    0    0  0.37505610422E+01  0.94355858386E+02  0.10668897604E+04  0.10783405601E+04  0.12509000000E+03 0.  0.
<mgrwt>
<rscale>  2 0.43956603E+03</rscale>
<asrwt>0</asrwt>
<pdfrwt beam="1">  1       21 0.37270194E+00 0.43956603E+03</pdfrwt>
<pdfrwt beam="2">  1       21 0.28029075E-02 0.43956603E+03</pdfrwt>
<totfact> 0.74556867E+03</totfact>
</mgrwt>
</event>
<event>
 7    0  0.4691878E-002  0.4412940E+03  0.7546771E-02  0.1030351E+00
         21   -1    0    0  502  501  0.00000000000E+00  0.00000000000E+00  0.78833792887E+03  0.78833792887E+03  0.00000000000E+00 0.  1.
         21   -1    0    0  501  502 -0.00000000000E+00 -0.00000000000E+00 -0.61756643737E+02  0.61756643737E+02  0.00000000000E+00 0.  1.
      99926    2    1    2    0    0  0.00000000000E+00 -0.71054273576E-14  0.72658128513E+03  0.85009457261E+03  0.44129402723E+03 0.  0.
      99925    2    3    3    0    0 -0.23171310838E+02  0.56136776810E+02  0.61564845977E+03  0.67221301876E+03  0.26298111950E+03 0.  0.
         25    1    3    3    0    0  0.23171310838E+02 -0.56136776810E+02  0.11093282536E+03  0.17788155385E+03  0.12509000000E+03 0.  0.
         25    1    4    4    0    0 -0.12174180550E+02  0.59431704283E+02  0.38878261909E+03  0.41289196063E+03  0.12509000000E+03 0.  0.
         25    1    4    4    0    0 -0.10997130287E+02 -0.32949274728E+01  0.22686584068E+03  0.25932105813E+03  0.12509000000E+03 0.  0.
<mgrwt>
<rscale>  2 0.44129403E+03</rscale>
<asrwt>0</asrwt>
<pdfrwt beam="1">  1       21 0.11593204E+00 0.44129403E+03</pdfrwt>
<pdfrwt beam="2">  1       21 0.90818598E-02 0.44129403E+03</pdfrwt>
<totfact> 0.50666772E+04</totfact>
</mgrwt>
</event>
<event>
 7    0  0.4691878E-002  0.4589660E+03  0.7546771E-02  0.1025082E+00
         21   -1    0    0  502  501  0.00000000000E+00  0.00000000000E+00  0.21586411004E+03  0.21586411004E+03  0.00000000000E+00 0.  1.
         21   -1    0    0  501  502 -0.00000000000E+00 -0.00000000000E+00 -0.24396110919E+03  0.24396110919E+03  0.00000000000E+00 0.  1.
      99926    2    1    2    0    0  0.71054273576E-14  0.00000000000E+00 -0.28096999142E+02  0.45982521923E+03  0.45896600188E+03 0.  0.
      99925    2    3    3    0    0 -0.59425591125E+02  0.86146676438E+02  0.34518435053E+02  0.28512303996E+03  0.26296572936E+03 0.  0.
         25    1    4    4    0    0 -0.12309209674E+02  0.77627288307E+02  0.41925574003E+01  0.14779241581E+03  0.12509000000E+03 0.  0.
         25    1    3    3    0    0  0.59425591125E+02 -0.86146676438E+02 -0.62615434194E+02  0.17470217927E+03  0.12509000000E+03 0.  0.
         25    1    4    4    0    0 -0.47116381450E+02  0.85193881306E+01  0.30325877652E+02  0.13733062415E+03  0.12509000000E+03 0.  0.
<mgrwt>
<rscale>  2 0.45896600E+03</rscale>
<asrwt>0</asrwt>
<pdfrwt beam="1">  1       21 0.31744722E-01 0.45896600E+03</pdfrwt>
<pdfrwt beam="2">  1       21 0.35876633E-01 0.45896600E+03</pdfrwt>
<totfact> 0.66077918E+04</totfact>
</mgrwt>
</event>
<event>
 7    0  0.4691878E-002  0.4401802E+03  0.7546771E-02  0.1030692E+00
         21   -1    0    0  502  501  0.00000000000E+00  0.00000000000E+00  0.22980576153E+04  0.22980576153E+04  0.00000000000E+00 0.  1.
         21   -1    0    0  501  502 -0.00000000000E+00 -0.00000000000E+00 -0.21078518465E+02  0.21078518465E+02  0.00000000000E+00 0.  1.
      99926    2    1    2    0    0  0.00000000000E+00  0.00000000000E+00  0.22769790968E+04  0.23191361338E+04  0.44018018982E+03 0.  0.
      99925    2    3    3    0    0  0.76969492407E+02  0.23966002800E+02  0.11606392028E+04  0.11929208172E+04  0.26358688337E+03 0.  0.
         25    1    3    3    0    0 -0.76969492407E+02 -0.23966002800E+02  0.11163398940E+04  0.11262153165E+04  0.12509000000E+03 0.  0.
         25    1    4    4    0    0  0.56286721257E+02  0.38919252831E+02  0.72828573317E+03  0.74211220207E+03  0.12509000000E+03 0.  0.
         25    1    4    4    0    0  0.20682771150E+02 -0.14953250031E+02  0.43235346962E+03  0.45080861516E+03  0.12509000000E+03 0.  0.
<mgrwt>
<rscale>  2 0.44018019E+03</rscale>
<asrwt>0</asrwt>
<pdfrwt beam="1">  1       21 0.33794948E+00 0.44018019E+03</pdfrwt>
<pdfrwt beam="2">  1       21 0.30997837E-02 0.44018019E+03</pdfrwt>
<totfact> 0.10300215E+04</totfact>
</mgrwt>
</event>
<event>
 7    0  0.4691878E-002  0.4469783E+03  0.7546771E-02  0.1028627E+00
         21   -1    0    0  502  501  0.00000000000E+00  0.00000000000E+00  0.20337594202E+04  0.20337594202E+04  0.00000000000E+00 0. -1.
         21   -1    0    0  501  502 -0.00000000000E+00 -0.00000000000E+00 -0.24559148059E+02  0.24559148059E+02  0.00000000000E+00 0. -1.
      99926    2    1    2    0    0  0.00000000000E+00  0.00000000000E+00  0.20092002722E+04  0.20583185683E+04  0.44697829351E+03 0.  0.
      99925    2    3    3    0    0  0.14877701029E+02 -0.54208737219E+02  0.85443972229E+03  0.89544309394E+03  0.26189914525E+03 0.  0.
         25    1    3    3    0    0 -0.14877701029E+02  0.54208737219E+02  0.11547605499E+04  0.11628754744E+04  0.12509000000E+03 0.  0.
         25    1    4    4    0    0 -0.10485867578E+02 -0.40508091315E+02  0.32686471599E+03  0.35247540275E+03  0.12509000000E+03 0.  0.
         25    1    4    4    0    0  0.25363568607E+02 -0.13700645904E+02  0.52757500630E+03  0.54296769120E+03  0.12509000000E+03 0.  0.
<mgrwt>
<rscale>  2 0.44697829E+03</rscale>
<asrwt>0</asrwt>
<pdfrwt beam="1">  1       21 0.29908215E+00 0.44697829E+03</pdfrwt>
<pdfrwt beam="2">  1       21 0.36116408E-02 0.44697829E+03</pdfrwt>
<totfact> 0.13608926E+04</totfact>
</mgrwt>
</event>
<event>
 7    0  0.4691878E-002  0.4661395E+03  0.7546771E-02  0.1023016E+00
         21   -1    0    0  502  501  0.00000000000E+00  0.00000000000E+00  0.31946348840E+03  0.31946348840E+03  0.00000000000E+00 0. -1.
         21   -1    0    0  501  502 -0.00000000000E+00 -0.00000000000E+00 -0.17003977804E+03  0.17003977804E+03  0.00000000000E+00 0. -1.
      99926    2    1    2    0    0  0.00000000000E+00  0.00000000000E+00  0.14942371036E+03  0.48950326644E+03  0.46613946694E+03 0.  0.
      99925    2    3    3    0    0 -0.10844081354E+03  0.34476585446E+02  0.14308821926E+03  0.32028242986E+03  0.26298013500E+03 0.  0.
         25    1    3    3    0    0  0.10844081354E+03 -0.34476585446E+02  0.63354910935E+01  0.16922083658E+03  0.12509000000E+03 0.  0.
         25    1    4    4    0    0 -0.35160061673E+02 -0.11951960483E+02  0.40170907383E+02  0.13652944443E+03  0.12509000000E+03 0.  0.
         25    1    4    4    0    0 -0.73280751866E+02  0.46428545929E+02  0.10291731188E+03  0.18375298543E+03  0.12509000000E+03 0.  0.
<mgrwt>
<rscale>  2 0.46613947E+03</rscale>
<asrwt>0</asrwt>
<pdfrwt beam="1">  1       21 0.46979925E-01 0.46613947E+03</pdfrwt>
<pdfrwt beam="2">  1       21 0.25005850E-01 0.46613947E+03</pdfrwt>
<totfact> 0.60486492E+04</totfact>
</mgrwt>
</event>
<event>
 7    0  0.4691878E-002  0.4519008E+03  0.7546771E-02  0.1027157E+00
         21   -1    0    0  502  501  0.00000000000E+00  0.00000000000E+00  0.22083114714E+03  0.22083114714E+03  0.00000000000E+00 0. -1.
         21   -1    0    0  501  502 -0.00000000000E+00 -0.00000000000E+00 -0.23118828781E+03  0.23118828781E+03  0.00000000000E+00 0. -1.
      99926    2    1    2    0    0  0.00000000000E+00  0.00000000000E+00 -0.10357140679E+02  0.45201943495E+03  0.45190076257E+03 0.  0.
      99925    2    3    3    0    0 -0.94741903506E+02  0.49257325159E+02 -0.34035415887E+02  0.28585541604E+03  0.26296881371E+03 0.  0.
         25    1    4    4    0    0 -0.38549199522E+02 -0.13428681298E+02 -0.14292301339E+01  0.13158997327E+03  0.12509000000E+03 0.  0.
         25    1    3    3    0    0  0.94741903506E+02 -0.49257325159E+02  0.23678275208E+02  0.16616401890E+03  0.12509000000E+03 0.  0.
         25    1    4    4    0    0 -0.56192703984E+02  0.62686006457E+02 -0.32606185753E+02  0.15426544278E+03  0.12509000000E+03 0.  0.
<mgrwt>
<rscale>  2 0.45190076E+03</rscale>
<asrwt>0</asrwt>
<pdfrwt beam="1">  1       21 0.32475169E-01 0.45190076E+03</pdfrwt>
<pdfrwt beam="2">  1       21 0.33998278E-01 0.45190076E+03</pdfrwt>
<totfact> 0.70491810E+04</totfact>
</mgrwt>
</event>
<event>
 7    0  0.4691878E-002  0.4300848E+03  0.7546771E-02  0.1033833E+00
         21   -1    0    0  502  501  0.00000000000E+00  0.00000000000E+00  0.41644294954E+03  0.41644294954E+03  0.00000000000E+00 0.  1.
         21   -1    0    0  501  502 -0.00000000000E+00 -0.00000000000E+00 -0.11104338275E+03  0.11104338275E+03  0.00000000000E+00 0.  1.
      99926    2    1    2    0    0  0.71054273576E-14 -0.35527136788E-14  0.30539956679E+03  0.52748633229E+03  0.43008480019E+03 0.  0.
      99925    2    3    3    0    0  0.18794878260E+02  0.19302891029E+02  0.29912286549E+03  0.39937406070E+03  0.26324760712E+03 0.  0.
         25    1    4    4    0    0 -0.15452320395E+02 -0.18455821365E+02  0.17069804838E+03  0.21298996072E+03  0.12509000000E+03 0.  0.
         25    1    3    3    0    0 -0.18794878260E+02 -0.19302891029E+02  0.62767013075E+01  0.12811227158E+03  0.12509000000E+03 0.  0.
         25    1    4    4    0    0  0.34247198655E+02  0.37758712393E+02  0.12842481710E+03  0.18638409998E+03  0.12509000000E+03 0.  0.
<mgrwt>
<rscale>  2 0.43008480E+03</rscale>
<asrwt>0</asrwt>
<pdfrwt beam="1">  1       21 0.61241610E-01 0.43008480E+03</pdfrwt>
<pdfrwt beam="2">  1       21 0.16329909E-01 0.43008480E+03</pdfrwt>
<totfact> 0.77586798E+04</totfact>
</mgrwt>
</event>
<event>
 7    0  0.4691878E-002  0.4646634E+03  0.7546771E-02  0.1023437E+00
         21   -1    0    0  502  501  0.00000000000E+00  0.00000000000E+00  0.57506740775E+03  0.57506740775E+03  0.00000000000E+00 0. -1.
         21   -1    0    0  501  502 -0.00000000000E+00 -0.00000000000E+00 -0.93863812303E+02  0.93863812303E+02  0.00000000000E+00 0. -1.
      99926    2    1    2    0    0 -0.71054273576E-14  0.14210854715E-13  0.48120359545E+03  0.66893122005E+03  0.46466340171E+03 0.  0.
      99925    2    3    3    0    0 -0.42972225040E+02  0.10716455465E+03  0.35737312150E+03  0.45842623609E+03  0.26288440818E+03 0.  0.
         25    1    4    4    0    0  0.17150248340E+02  0.37176108807E+02  0.16875361176E+03  0.21401281192E+03  0.12509000000E+03 0.  0.
         25    1    3    3    0    0  0.42972225040E+02 -0.10716455465E+03  0.12383047394E+03  0.21050498397E+03  0.12509000000E+03 0.  0.
         25    1    4    4    0    0 -0.60122473381E+02  0.69988445840E+02  0.18861950974E+03  0.24441342417E+03  0.12509000000E+03 0.  0.
<mgrwt>
<rscale>  2 0.46466340E+03</rscale>
<asrwt>0</asrwt>
<pdfrwt beam="1">  1       21 0.84568735E-01 0.46466340E+03</pdfrwt>
<pdfrwt beam="2">  1       21 0.13803502E-01 0.46466340E+03</pdfrwt>
<totfact> 0.50651807E+04</totfact>
</mgrwt>
</event>
<event>
 7    0  0.4691878E-002  0.4510049E+03  0.7546771E-02  0.1027423E+00
         21   -1    0    0  502  501  0.00000000000E+00  0.00000000000E+00  0.25507870665E+03  0.25507870665E+03  0.00000000000E+00 0. -1.
         21   -1    0    0  501  502 -0.00000000000E+00 -0.00000000000E+00 -0.19935556521E+03  0.19935556521E+03  0.00000000000E+00 0. -1.
      99926    2    1    2    0    0 -0.14210854715E-13 -0.13877787808E-15  0.55723141442E+02  0.45443427186E+03  0.45100492121E+03 0.  0.
      99925    2    3    3    0    0  0.81125242871E+02 -0.18583527698E+00  0.10911823817E+03  0.29606797488E+03  0.26299831992E+03 0.  0.
         25    1    3    3    0    0 -0.81125242871E+02  0.18583527698E+00 -0.53395096731E+02  0.15836629698E+03  0.12509000000E+03 0.  0.
         25    1    4    4    0    0  0.54133601124E+02  0.22054022360E+02  0.22365020260E+02  0.13987326015E+03  0.12509000000E+03 0.  0.
         25    1    4    4    0    0  0.26991641747E+02 -0.22239857637E+02  0.86753217913E+02  0.15619471473E+03  0.12509000000E+03 0.  0.
<mgrwt>
<rscale>  2 0.45100492E+03</rscale>
<asrwt>0</asrwt>
<pdfrwt beam="1">  1       21 0.37511575E-01 0.45100492E+03</pdfrwt>
<pdfrwt beam="2">  1       21 0.29316995E-01 0.45100492E+03</pdfrwt>
<totfact> 0.70817583E+04</totfact>
</mgrwt>
</event>
<event>
 7    0  0.4691878E-002  0.4696061E+03  0.7546771E-02  0.1022031E+00
         21   -1    0    0  502  501  0.00000000000E+00  0.00000000000E+00  0.28521158142E+03  0.28521158142E+03  0.00000000000E+00 0. -1.
         21   -1    0    0  501  502 -0.00000000000E+00 -0.00000000000E+00 -0.19330379415E+03  0.19330379415E+03  0.00000000000E+00 0. -1.
      99926    2    1    2    0    0 -0.14210854715E-13  0.14210854715E-13  0.91907787276E+02  0.47851537557E+03  0.46960613634E+03 0.  0.
      99925    2    3    3    0    0  0.80132529407E+02 -0.97604368297E+02  0.53680222062E+02  0.29670038768E+03  0.26306219574E+03 0.  0.
         25    1    4    4    0    0  0.44508928049E+02 -0.74332380821E+01  0.15368474778E+02  0.13386558864E+03  0.12509000000E+03 0.  0.
         25    1    3    3    0    0 -0.80132529407E+02  0.97604368297E+02  0.38227565214E+02  0.18181498789E+03  0.12509000000E+03 0.  0.
         25    1    4    4    0    0  0.35623601358E+02 -0.90171130214E+02  0.38311747284E+02  0.16283479904E+03  0.12509000000E+03 0.  0.
<mgrwt>
<rscale>  2 0.46960614E+03</rscale>
<asrwt>0</asrwt>
<pdfrwt beam="1">  1       21 0.41942880E-01 0.46960614E+03</pdfrwt>
<pdfrwt beam="2">  1       21 0.28427029E-01 0.46960614E+03</pdfrwt>
<totfact> 0.59592978E+04</totfact>
</mgrwt>
</event>
<event>
 7    0  0.4691878E-002  0.4526385E+03  0.7546771E-02  0.1026938E+00
         21   -1    0    0  502  501  0.00000000000E+00  0.00000000000E+00  0.16250939177E+03  0.16250939177E+03  0.00000000000E+00 0. -1.
         21   -1    0    0  501  502 -0.00000000000E+00 -0.00000000000E+00 -0.31518424509E+03  0.31518424509E+03  0.00000000000E+00 0. -1.
      99926    2    1    2    0    0  0.71054273576E-14  0.14210854715E-13 -0.15267485332E+03  0.47769363686E+03  0.45263848694E+03 0.  0.
      99925    2    3    3    0    0  0.54200164351E+02  0.83047805797E+02 -0.43861491575E+02  0.28450344131E+03  0.26302810080E+03 0.  0.
         25    1    4    4    0    0 -0.67737480448E+01  0.29768368209E+02 -0.42145058946E+02  0.13548340674E+03  0.12509000000E+03 0.  0.
         25    1    3    3    0    0 -0.54200164351E+02 -0.83047805797E+02 -0.10881336174E+03  0.19319019555E+03  0.12509000000E+03 0.  0.
         25    1    4    4    0    0  0.60973912396E+02  0.53279437588E+02 -0.17164326289E+01  0.14902003457E+03  0.12509000000E+03 0.  0.
<mgrwt>
<rscale>  2 0.45263849E+03</rscale>
<asrwt>0</asrwt>
<pdfrwt beam="1">  1       21 0.23898440E-01 0.45263849E+03</pdfrwt>
<pdfrwt beam="2">  1       21 0.46350624E-01 0.45263849E+03</pdfrwt>
<totfact> 0.68136577E+04</totfact>
</mgrwt>
</event>
<event>
 7    0  0.4691878E-002  0.4132090E+03  0.7546771E-02  0.1039299E+00
         21   -1    0    0  502  501  0.00000000000E+00  0.00000000000E+00  0.18521771093E+04  0.18521771093E+04  0.00000000000E+00 0. -1.
         21   -1    0    0  501  502 -0.00000000000E+00 -0.00000000000E+00 -0.23046081522E+02  0.23046081522E+02  0.00000000000E+00 0. -1.
      99926    2    1    2    0    0  0.00000000000E+00  0.00000000000E+00  0.18291310278E+04  0.18752231908E+04  0.41320902533E+03 0.  0.
      99925    2    3    3    0    0  0.45421259206E+02  0.43863343823E+02  0.11010319944E+04  0.11337632835E+04  0.26298411836E+03 0.  0.
         25    1    4    4    0    0 -0.12673754786E+02  0.41425082317E+02  0.55714678156E+03  0.57265758164E+03  0.12509000000E+03 0.  0.
         25    1    3    3    0    0 -0.45421259206E+02 -0.43863343823E+02  0.72809903334E+03  0.74145990732E+03  0.12509000000E+03 0.  0.
         25    1    4    4    0    0  0.58095013992E+02  0.24382615060E+01  0.54388521285E+03  0.56110570183E+03  0.12509000000E+03 0.  0.
<mgrwt>
<rscale>  2 0.41320903E+03</rscale>
<asrwt>0</asrwt>
<pdfrwt beam="1">  1       21 0.27237888E+00 0.41320903E+03</pdfrwt>
<pdfrwt beam="2">  1       21 0.33891309E-02 0.41320903E+03</pdfrwt>
<totfact> 0.22242564E+04</totfact>
</mgrwt>
</event>
<event>
 7    0  0.4691878E-002  0.4513645E+03  0.7546771E-02  0.1027316E+00
         21   -1    0    0  502  501  0.00000000000E+00  0.00000000000E+00  0.56460432516E+03  0.56460432516E+03  0.00000000000E+00 0.  1.
         21   -1    0    0  501  502 -0.00000000000E+00 -0.00000000000E+00 -0.90209151369E+02  0.90209151369E+02  0.00000000000E+00 0.  1.
      99926    2    1    2    0    0 -0.35527136788E-14  0.00000000000E+00  0.47439517379E+03  0.65481347653E+03  0.45136449587E+03 0.  0.
      99925    2    3    3    0    0 -0.23743040997E+02 -0.56279803125E+02  0.43176483696E+03  0.50922500874E+03  0.26297925176E+03 0.  0.
         25    1    4    4    0    0  0.28216332162E+02 -0.33389491353E+02  0.21888081779E+03  0.25586586335E+03  0.12509000000E+03 0.  0.
         25    1    4    4    0    0 -0.51959373159E+02 -0.22890311772E+02  0.21288401917E+03  0.25335914538E+03  0.12509000000E+03 0.  0.
         25    1    3    3    0    0  0.23743040997E+02  0.56279803125E+02  0.42630336834E+02  0.14558846779E+03  0.12509000000E+03 0.  0.
<mgrwt>
<rscale>  2 0.45136450E+03</rscale>
<asrwt>0</asrwt>
<pdfrwt beam="1">  1       21 0.83030046E-01 0.45136450E+03</pdfrwt>
<pdfrwt beam="2">  1       21 0.13266052E-01 0.45136450E+03</pdfrwt>
<totfact> 0.57043226E+04</totfact>
</mgrwt>
</event>
<event>
 7    0  0.4691878E-002  0.4524026E+03  0.7546771E-02  0.1027008E+00
         21   -1    0    0  502  501  0.00000000000E+00  0.00000000000E+00  0.58648973773E+03  0.58648973773E+03  0.00000000000E+00 0. -1.
         21   -1    0    0  501  502 -0.00000000000E+00 -0.00000000000E+00 -0.87242827464E+02  0.87242827464E+02  0.00000000000E+00 0. -1.
      99926    2    1    2    0    0  0.00000000000E+00 -0.14210854715E-13  0.49924691027E+03  0.67373256520E+03  0.45240257735E+03 0.  0.
      99925    2    3    3    0    0 -0.26338203981E+02  0.76900756909E+02  0.42707206499E+03  0.50800947147E+03  0.26282246291E+03 0.  0.
         25    1    3    3    0    0  0.26338203981E+02 -0.76900756909E+02  0.72174845279E+02  0.16572309372E+03  0.12509000000E+03 0.  0.
         25    1    4    4    0    0 -0.38481965767E+02  0.36659787072E+02  0.27436280469E+03  0.30618174076E+03  0.12509000000E+03 0.  0.
         25    1    4    4    0    0  0.12143761787E+02  0.40240969837E+02  0.15270926030E+03  0.20182773072E+03  0.12509000000E+03 0.  0.
<mgrwt>
<rscale>  2 0.45240258E+03</rscale>
<asrwt>0</asrwt>
<pdfrwt beam="1">  1       21 0.86248489E-01 0.45240258E+03</pdfrwt>
<pdfrwt beam="2">  1       21 0.12829828E-01 0.45240258E+03</pdfrwt>
<totfact> 0.55479428E+04</totfact>
</mgrwt>
</event>
<event>
 7    0  0.4691878E-002  0.4580098E+03  0.7546771E-02  0.1025360E+00
         21   -1    0    0  502  501  0.00000000000E+00  0.00000000000E+00  0.44800062280E+02  0.44800062280E+02  0.00000000000E+00 0. -1.
         21   -1    0    0  501  502 -0.00000000000E+00 -0.00000000000E+00 -0.11706063534E+04  0.11706063534E+04  0.00000000000E+00 0. -1.
      99926    2    1    2    0    0  0.00000000000E+00  0.00000000000E+00 -0.11258062912E+04  0.12154064157E+04  0.45800977081E+03 0.  0.
      99925    2    3    3    0    0  0.60545440500E+01 -0.93935793694E+02 -0.52733633205E+03  0.59679960126E+03  0.26310751818E+03 0.  0.
         25    1    3    3    0    0 -0.60545440500E+01  0.93935793694E+02 -0.59846995911E+03  0.61860681446E+03  0.12509000000E+03 0.  0.
         25    1    4    4    0    0 -0.12087153990E+01 -0.80285053221E+02 -0.23000079442E+03  0.27385219425E+03  0.12509000000E+03 0.  0.
         25    1    4    4    0    0  0.72632594490E+01 -0.13650740473E+02 -0.29733553763E+03  0.32294740701E+03  0.12509000000E+03 0.  0.
<mgrwt>
<rscale>  2 0.45800977E+03</rscale>
<asrwt>0</asrwt>
<pdfrwt beam="1">  1       21 0.65882446E-02 0.45800977E+03</pdfrwt>
<pdfrwt beam="2">  1       21 0.17214799E+00 0.45800977E+03</pdfrwt>
<totfact> 0.30939735E+04</totfact>
</mgrwt>
</event>
<event>
 7    0  0.4691878E-002  0.4520172E+03  0.7546771E-02  0.1027122E+00
         21   -1    0    0  502  501  0.00000000000E+00  0.00000000000E+00  0.94512204021E+03  0.94512204021E+03  0.00000000000E+00 0. -1.
         21   -1    0    0  501  502 -0.00000000000E+00 -0.00000000000E+00 -0.54045814299E+02  0.54045814299E+02  0.00000000000E+00 0. -1.
      99926    2    1    2    0    0  0.00000000000E+00  0.00000000000E+00  0.89107622591E+03  0.99916785451E+03  0.45201721328E+03 0.  0.
      99925    2    3    3    0    0 -0.11014490342E+03 -0.42699250648E+01  0.54948926992E+03  0.61906354171E+03  0.26296592726E+03 0.  0.
         25    1    3    3    0    0  0.11014490342E+03  0.42699250648E+01  0.34158695599E+03  0.38010431280E+03  0.12509000000E+03 0.  0.
         25    1    4    4    0    0 -0.94078425591E+02 -0.65385079692E+01  0.26456233521E+03  0.30746420859E+03  0.12509000000E+03 0.  0.
         25    1    4    4    0    0 -0.16066477829E+02  0.22685829044E+01  0.28492693471E+03  0.31159933312E+03  0.12509000000E+03 0.  0.
<mgrwt>
<rscale>  2 0.45201721E+03</rscale>
<asrwt>0</asrwt>
<pdfrwt beam="1">  1       21 0.13898853E+00 0.45201721E+03</pdfrwt>
<pdfrwt beam="2">  1       21 0.79479144E-02 0.45201721E+03</pdfrwt>
<totfact> 0.40125796E+04</totfact>
</mgrwt>
</event>
<event>
 7    0  0.4691878E-002  0.4539025E+03  0.7546771E-02  0.1026565E+00
         21   -1    0    0  502  501  0.00000000000E+00  0.00000000000E+00  0.19642964943E+04  0.19642964943E+04  0.00000000000E+00 0.  1.
         21   -1    0    0  501  502 -0.00000000000E+00 -0.00000000000E+00 -0.26221533691E+02  0.26221533691E+02  0.00000000000E+00 0.  1.
      99926    2    1    2    0    0  0.00000000000E+00  0.00000000000E+00  0.19380749606E+04  0.19905180280E+04  0.45390248602E+03 0.  0.
      99925    2    3    3    0    0 -0.33267165578E+02 -0.65321803672E+02  0.84891756753E+03  0.89175282225E+03  0.26303691223E+03 0.  0.
         25    1    3    3    0    0  0.33267165578E+02  0.65321803672E+02  0.10891573931E+04  0.10987652057E+04  0.12509000000E+03 0.  0.
         25    1    4    4    0    0 -0.24463493282E+02 -0.58863197069E+02  0.54777491570E+03  0.56548050793E+03  0.12509000000E+03 0.  0.
         25    1    4    4    0    0 -0.88036722961E+01 -0.64586066027E+01  0.30114265182E+03  0.32627231432E+03  0.12509000000E+03 0.  0.
<mgrwt>
<rscale>  2 0.45390249E+03</rscale>
<asrwt>0</asrwt>
<pdfrwt beam="1">  1       21 0.28886703E+00 0.45390249E+03</pdfrwt>
<pdfrwt beam="2">  1       21 0.38561092E-02 0.45390249E+03</pdfrwt>
<totfact> 0.13983887E+04</totfact>
</mgrwt>
</event>
<event>
 7    0  0.4691878E-002  0.4538530E+03  0.7546771E-02  0.1026579E+00
         21   -1    0    0  502  501  0.00000000000E+00  0.00000000000E+00  0.35108435545E+03  0.35108435545E+03  0.00000000000E+00 0. -1.
         21   -1    0    0  501  502 -0.00000000000E+00 -0.00000000000E+00 -0.14667598258E+03  0.14667598258E+03  0.00000000000E+00 0. -1.
      99926    2    1    2    0    0  0.00000000000E+00 -0.35527136788E-14  0.20440837287E+03  0.49776033803E+03  0.45385302822E+03 0.  0.
      99925    2    3    3    0    0  0.47786141797E+02  0.24895818119E+02  0.23650388867E+03  0.35782839978E+03  0.26306607008E+03 0.  0.
         25    1    4    4    0    0  0.41582042324E+01  0.51295982997E+01  0.16125721931E+03  0.20419354133E+03  0.12509000000E+03 0.  0.
         25    1    4    4    0    0  0.43627937565E+02  0.19766219819E+02  0.75246669369E+02  0.15363485846E+03  0.12509000000E+03 0.  0.
         25    1    3    3    0    0 -0.47786141797E+02 -0.24895818119E+02 -0.32095515806E+02  0.13993193825E+03  0.12509000000E+03 0.  0.
<mgrwt>
<rscale>  2 0.45385303E+03</rscale>
<asrwt>0</asrwt>
<pdfrwt beam="1">  1       21 0.51630052E-01 0.45385303E+03</pdfrwt>
<pdfrwt beam="2">  1       21 0.21569997E-01 0.45385303E+03</pdfrwt>
<totfact> 0.66027421E+04</totfact>
</mgrwt>
</event>
<event>
 7    0  0.4691878E-002  0.4544351E+03  0.7546771E-02  0.1026408E+00
         21   -1    0    0  502  501  0.00000000000E+00  0.00000000000E+00  0.13958662194E+03  0.13958662194E+03  0.00000000000E+00 0. -1.
         21   -1    0    0  501  502 -0.00000000000E+00 -0.00000000000E+00 -0.36986218574E+03  0.36986218574E+03  0.00000000000E+00 0. -1.
      99926    2    1    2    0    0  0.00000000000E+00  0.00000000000E+00 -0.23027556380E+03  0.50944880767E+03  0.45443509147E+03 0.  0.
      99925    2    3    3    0    0  0.39971961408E+02 -0.80027108802E+02 -0.68391484469E+02  0.28616410358E+03  0.26307870151E+03 0.  0.
         25    1    3    3    0    0 -0.39971961408E+02  0.80027108802E+02 -0.16188407933E+03  0.22328470410E+03  0.12509000000E+03 0.  0.
         25    1    4    4    0    0  0.46040276282E+02 -0.65383841246E+02 -0.14953624947E+02  0.14921753495E+03  0.12509000000E+03 0.  0.
         25    1    4    4    0    0 -0.60683148742E+01 -0.14643267555E+02 -0.53437859522E+02  0.13694656863E+03  0.12509000000E+03 0.  0.
<mgrwt>
<rscale>  2 0.45443509E+03</rscale>
<asrwt>0</asrwt>
<pdfrwt beam="1">  1       21 0.20527445E-01 0.45443509E+03</pdfrwt>
<pdfrwt beam="2">  1       21 0.54391498E-01 0.45443509E+03</pdfrwt>
<totfact> 0.64902310E+04</totfact>
</mgrwt>
</event>
<event>
 7    0  0.4691878E-002  0.4539564E+03  0.7546771E-02  0.1026549E+00
         21   -1    0    0  502  501  0.00000000000E+00  0.00000000000E+00  0.20419008734E+03  0.20419008734E+03  0.00000000000E+00 0. -1.
         21   -1    0    0  501  502 -0.00000000000E+00 -0.00000000000E+00 -0.25230949218E+03  0.25230949218E+03  0.00000000000E+00 0. -1.
      99926    2    1    2    0    0  0.00000000000E+00  0.00000000000E+00 -0.48119404847E+02  0.45649957952E+03  0.45395637343E+03 0.  0.
      99925    2    3    3    0    0 -0.82122325364E+02  0.53598482953E+02 -0.85114423972E+02  0.29330333803E+03  0.26299336347E+03 0.  0.
         25    1    3    3    0    0  0.82122325364E+02 -0.53598482953E+02  0.36995019125E+02  0.16319624149E+03  0.12509000000E+03 0.  0.
         25    1    4    4    0    0 -0.74671291886E+02  0.24515693196E+02 -0.70946288719E+02  0.16388320545E+03  0.12509000000E+03 0.  0.
         25    1    4    4    0    0 -0.74510334781E+01  0.29082789757E+02 -0.14168135253E+02  0.12942013258E+03  0.12509000000E+03 0.  0.
<mgrwt>
<rscale>  2 0.45395637E+03</rscale>
<asrwt>0</asrwt>
<pdfrwt beam="1">  1       21 0.30027954E-01 0.45395637E+03</pdfrwt>
<pdfrwt beam="2">  1       21 0.37104337E-01 0.45395637E+03</pdfrwt>
<totfact> 0.69008861E+04</totfact>
</mgrwt>
</event>
<event>
 7    0  0.4691878E-002  0.4382841E+03  0.7546771E-02  0.1031275E+00
         21   -1    0    0  502  501  0.00000000000E+00  0.00000000000E+00  0.87390871155E+02  0.87390871155E+02  0.00000000000E+00 0. -1.
         21   -1    0    0  501  502 -0.00000000000E+00 -0.00000000000E+00 -0.54952245096E+03  0.54952245096E+03  0.00000000000E+00 0. -1.
      99926    2    1    2    0    0  0.00000000000E+00  0.00000000000E+00 -0.46213157980E+03  0.63691332211E+03  0.43828413482E+03 0.  0.
      99925    2    3    3    0    0  0.43607562326E+02 -0.33169762186E+02 -0.41079931264E+03  0.49102171040E+03  0.26333323414E+03 0.  0.
         25    1    4    4    0    0  0.26416241533E+02 -0.32580977183E+02 -0.14079081654E+03  0.19294792047E+03  0.12509000000E+03 0.  0.
         25    1    4    4    0    0  0.17191320793E+02 -0.58878500349E+00 -0.27000849611E+03  0.29807378994E+03  0.12509000000E+03 0.  0.
         25    1    3    3    0    0 -0.43607562326E+02  0.33169762186E+02 -0.51332267158E+02  0.14589161171E+03  0.12509000000E+03 0.  0.
<mgrwt>
<rscale>  2 0.43828413E+03</rscale>
<asrwt>0</asrwt>
<pdfrwt beam="1">  1       21 0.12851599E-01 0.43828413E+03</pdfrwt>
<pdfrwt beam="2">  1       21 0.80812125E-01 0.43828413E+03</pdfrwt>
<totfact> 0.64566062E+04</totfact>
</mgrwt>
</event>
<event>
 7    0  0.4691878E-002  0.4552562E+03  0.7546771E-02  0.1026166E+00
         21   -1    0    0  502  501  0.00000000000E+00  0.00000000000E+00  0.72190108874E+03  0.72190108874E+03  0.00000000000E+00 0.  1.
         21   -1    0    0  501  502 -0.00000000000E+00 -0.00000000000E+00 -0.71775139388E+02  0.71775139388E+02  0.00000000000E+00 0.  1.
      99926    2    1    2    0    0  0.00000000000E+00  0.35527136788E-14  0.65012594935E+03  0.79367622812E+03  0.45525619718E+03 0.  0.
      99925    2    3    3    0    0  0.97213164555E+02  0.18791059742E+02  0.50494386395E+03  0.57797075924E+03  0.26320788267E+03 0.  0.
         25    1    4    4    0    0  0.68679978849E+02  0.45933263810E+02  0.27898601993E+03  0.31671361138E+03  0.12509000000E+03 0.  0.
         25    1    4    4    0    0  0.28533185706E+02 -0.27142204068E+02  0.22595784403E+03  0.26125714786E+03  0.12509000000E+03 0.  0.
         25    1    3    3    0    0 -0.97213164555E+02 -0.18791059742E+02  0.14518208539E+03  0.21570546889E+03  0.12509000000E+03 0.  0.
<mgrwt>
<rscale>  2 0.45525620E+03</rscale>
<asrwt>0</asrwt>
<pdfrwt beam="1">  1       21 0.10616192E+00 0.45525620E+03</pdfrwt>
<pdfrwt beam="2">  1       21 0.10555168E-01 0.45525620E+03</pdfrwt>
<totfact> 0.47975677E+04</totfact>
</mgrwt>
</event>
<event>
 7    0  0.4691878E-002  0.4486900E+03  0.7546771E-02  0.1028113E+00
         21   -1    0    0  502  501  0.00000000000E+00  0.00000000000E+00  0.18934168918E+03  0.18934168918E+03  0.00000000000E+00 0.  1.
         21   -1    0    0  501  502 -0.00000000000E+00 -0.00000000000E+00 -0.26581933412E+03  0.26581933412E+03  0.00000000000E+00 0.  1.
      99926    2    1    2    0    0  0.00000000000E+00  0.00000000000E+00 -0.76477644938E+02  0.45516102331E+03  0.44869001211E+03 0.  0.
      99925    2    3    3    0    0 -0.74187984762E+02  0.44246967839E+02 -0.11235300029E+03  0.29896819227E+03  0.26324348438E+03 0.  0.
         25    1    4    4    0    0 -0.12398719201E+02  0.39521371034E+01 -0.83354990883E+02  0.15088045013E+03  0.12509000000E+03 0.  0.
         25    1    4    4    0    0 -0.61789265562E+02  0.40294830735E+02 -0.28998009411E+02  0.14808774214E+03  0.12509000000E+03 0.  0.
         25    1    3    3    0    0  0.74187984762E+02 -0.44246967839E+02  0.35875355357E+02  0.15619283104E+03  0.12509000000E+03 0.  0.
<mgrwt>
<rscale>  2 0.44869001E+03</rscale>
<asrwt>0</asrwt>
<pdfrwt beam="1">  1       21 0.27844366E-01 0.44869001E+03</pdfrwt>
<pdfrwt beam="2">  1       21 0.39091078E-01 0.44869001E+03</pdfrwt>
<totfact> 0.72094508E+04</totfact>
</mgrwt>
</event>
<event>
 7    0  0.4691878E-002  0.4478404E+03  0.7546771E-02  0.1028368E+00
         21   -1    0    0  502  501  0.00000000000E+00  0.00000000000E+00  0.28532710472E+03  0.28532710472E+03  0.00000000000E+00 0. -1.
         21   -1    0    0  501  502 -0.00000000000E+00 -0.00000000000E+00 -0.17572900841E+03  0.17572900841E+03  0.00000000000E+00 0. -1.
      99926    2    1    2    0    0 -0.71054273576E-14  0.00000000000E+00  0.10959809631E+03  0.46105611313E+03  0.44784036971E+03 0.  0.
      99925    2    3    3    0    0  0.50417185024E+02 -0.90649138697E+02  0.43849174095E+02  0.28575754564E+03  0.26263180677E+03 0.  0.
         25    1    4    4    0    0  0.58158437321E+02 -0.71423214812E+02  0.18333172519E+02  0.15642024409E+03  0.12509000000E+03 0.  0.
         25    1    3    3    0    0 -0.50417185024E+02  0.90649138697E+02  0.65748922216E+02  0.17529856749E+03  0.12509000000E+03 0.  0.
         25    1    4    4    0    0 -0.77412522974E+01 -0.19225923886E+02  0.25516001576E+02  0.12933730155E+03  0.12509000000E+03 0.  0.
<mgrwt>
<rscale>  2 0.44784037E+03</rscale>
<asrwt>0</asrwt>
<pdfrwt beam="1">  1       21 0.41959868E-01 0.44784037E+03</pdfrwt>
<pdfrwt beam="2">  1       21 0.25842501E-01 0.44784037E+03</pdfrwt>
<totfact> 0.72116271E+04</totfact>
</mgrwt>
</event>
<event>
 7    0  0.4691878E-002  0.4554516E+03  0.7546771E-02  0.1026109E+00
         21   -1    0    0  502  501  0.00000000000E+00  0.00000000000E+00  0.21540248543E+03  0.21540248543E+03  0.00000000000E+00 0. -1.
         21   -1    0    0  501  502 -0.00000000000E+00 -0.00000000000E+00 -0.24075415530E+03  0.24075415530E+03  0.00000000000E+00 0. -1.
      99926    2    1    2    0    0  0.00000000000E+00  0.00000000000E+00 -0.25351669873E+02  0.45615664072E+03  0.45545161512E+03 0.  0.
      99925    2    3    3    0    0  0.10161952429E+03  0.37613470317E+02  0.18197107144E+02  0.28502714313E+03  0.26299816871E+03 0.  0.
         25    1    4    4    0    0  0.44247246749E+02 -0.20498113757E+02  0.19288855939E+02  0.13563760384E+03  0.12509000000E+03 0.  0.
         25    1    3    3    0    0 -0.10161952429E+03 -0.37613470317E+02 -0.43548777017E+02  0.17112949759E+03  0.12509000000E+03 0.  0.
         25    1    4    4    0    0  0.57372277542E+02  0.58111584074E+02 -0.10917487947E+01  0.14938953929E+03  0.12509000000E+03 0.  0.
<mgrwt>
<rscale>  2 0.45545162E+03</rscale>
<asrwt>0</asrwt>
<pdfrwt beam="1">  1       21 0.31676836E-01 0.45545162E+03</pdfrwt>
<pdfrwt beam="2">  1       21 0.35405023E-01 0.45545162E+03</pdfrwt>
<totfact> 0.68215037E+04</totfact>
</mgrwt>
</event>
<event>
 7    0  0.4691878E-002  0.4472715E+03  0.7546771E-02  0.1028539E+00
         21   -1    0    0  502  501  0.00000000000E+00  0.00000000000E+00  0.10767657937E+04  0.10767657937E+04  0.00000000000E+00 0. -1.
         21   -1    0    0  501  502 -0.00000000000E+00 -0.00000000000E+00 -0.46447379935E+02  0.46447379935E+02  0.00000000000E+00 0. -1.
      99926    2    1    2    0    0  0.00000000000E+00  0.00000000000E+00  0.10303184137E+04  0.11232131736E+04  0.44727150555E+03 0.  0.
      99925    2    3    3    0    0 -0.35977651633E+02 -0.84869734429E+02  0.52283721440E+03  0.59247600794E+03  0.26300533071E+03 0.  0.
         25    1    4    4    0    0 -0.29117877515E+02 -0.41093968533E+02  0.18044119101E+03  0.22526228392E+03  0.12509000000E+03 0.  0.
         25    1    3    3    0    0  0.35977651633E+02  0.84869734429E+02  0.50748119934E+03  0.53073716567E+03  0.12509000000E+03 0.  0.
         25    1    4    4    0    0 -0.68597741173E+01 -0.43775765896E+02  0.34239602339E+03  0.36721372402E+03  0.12509000000E+03 0.  0.
<mgrwt>
<rscale>  2 0.44727151E+03</rscale>
<asrwt>0</asrwt>
<pdfrwt beam="1">  1       21 0.15834789E+00 0.44727151E+03</pdfrwt>
<pdfrwt beam="2">  1       21 0.68304977E-02 0.44727151E+03</pdfrwt>
<totfact> 0.36860704E+04</totfact>
</mgrwt>
</event>
<event>
 7    0  0.4691878E-002  0.4622641E+03  0.7546771E-02  0.1024127E+00
         21   -1    0    0  502  501  0.00000000000E+00  0.00000000000E+00  0.64457440726E+03  0.64457440726E+03  0.00000000000E+00 0.  1.
         21   -1    0    0  501  502 -0.00000000000E+00 -0.00000000000E+00 -0.82879519039E+02  0.82879519039E+02  0.00000000000E+00 0.  1.
      99926    2    1    2    0    0  0.00000000000E+00  0.00000000000E+00  0.56169488822E+03  0.72745392630E+03  0.46226406678E+03 0.  0.
      99925    2    3    3    0    0  0.99387417862E+01 -0.11621747850E+03  0.30830425469E+03  0.42174229394E+03  0.26307749455E+03 0.  0.
         25    1    3    3    0    0 -0.99387417862E+01  0.11621747850E+03  0.25339063353E+03  0.30571163236E+03  0.12509000000E+03 0.  0.
         25    1    4    4    0    0  0.44974947476E+01 -0.21099395538E+02  0.17118262575E+03  0.21311126533E+03  0.12509000000E+03 0.  0.
         25    1    4    4    0    0  0.54412470386E+01 -0.95118082966E+02  0.13712162894E+03  0.20863102861E+03  0.12509000000E+03 0.  0.
<mgrwt>
<rscale>  2 0.46226407E+03</rscale>
<asrwt>0</asrwt>
<pdfrwt beam="1">  1       21 0.94790352E-01 0.46226407E+03</pdfrwt>
<pdfrwt beam="2">  1       21 0.12188165E-01 0.46226407E+03</pdfrwt>
<totfact> 0.48601182E+04</totfact>
</mgrwt>
</event>
<event>
 7    0  0.4691878E-002  0.4596274E+03  0.7546771E-02  0.1024889E+00
         21   -1    0    0  502  501  0.00000000000E+00  0.00000000000E+00  0.82824907429E+02  0.82824907429E+02  0.00000000000E+00 0. -1.
         21   -1    0    0  501  502 -0.00000000000E+00 -0.00000000000E+00 -0.63766260386E+03  0.63766260386E+03  0.00000000000E+00 0. -1.
      99926    2    1    2    0    0  0.00000000000E+00  0.00000000000E+00 -0.55483769644E+03  0.72048751129E+03  0.45962744103E+03 0.  0.
      99925    2    3    3    0    0 -0.26302535026E+02 -0.11455036670E+03 -0.34003644735E+03  0.44553170654E+03  0.26279289592E+03 0.  0.
         25    1    4    4    0    0 -0.16495704760E+02 -0.72867833481E+02 -0.23573061162E+03  0.27712498766E+03  0.12509000000E+03 0.  0.
         25    1    3    3    0    0  0.26302535026E+02  0.11455036670E+03 -0.21480124909E+03  0.27495580476E+03  0.12509000000E+03 0.  0.
         25    1    4    4    0    0 -0.98068302656E+01 -0.41682533220E+02 -0.10430583573E+03  0.16840671888E+03  0.12509000000E+03 0.  0.
<mgrwt>
<rscale>  2 0.45962744E+03</rscale>
<asrwt>0</asrwt>
<pdfrwt beam="1">  1       21 0.12180134E-01 0.45962744E+03</pdfrwt>
<pdfrwt beam="2">  1       21 0.93773910E-01 0.45962744E+03</pdfrwt>
<totfact> 0.49961288E+04</totfact>
</mgrwt>
</event>
<event>
 7    0  0.4691878E-002  0.4592083E+03  0.7546771E-02  0.1025011E+00
         21   -1    0    0  502  501  0.00000000000E+00  0.00000000000E+00  0.42462401156E+03  0.42462401156E+03  0.00000000000E+00 0. -1.
         21   -1    0    0  501  502 -0.00000000000E+00 -0.00000000000E+00 -0.12415232761E+03  0.12415232761E+03  0.00000000000E+00 0. -1.
      99926    2    1    2    0    0  0.00000000000E+00 -0.35527136788E-14  0.30047168395E+03  0.54877633917E+03  0.45920827255E+03 0.  0.
      99925    2    3    3    0    0 -0.11256578659E+03  0.30639393654E+02  0.19948329106E+03  0.35014101413E+03  0.26305002873E+03 0.  0.
         25    1    3    3    0    0  0.11256578659E+03 -0.30639393654E+02  0.10098839289E+03  0.19863532504E+03  0.12509000000E+03 0.  0.
         25    1    4    4    0    0 -0.41845148084E+02  0.29313292261E+02  0.53593397242E+02  0.14536177575E+03  0.12509000000E+03 0.  0.
         25    1    4    4    0    0 -0.70720638507E+02  0.13261013929E+01  0.14588989381E+03  0.20477923838E+03  0.12509000000E+03 0.  0.
<mgrwt>
<rscale>  2 0.45920827E+03</rscale>
<asrwt>0</asrwt>
<pdfrwt beam="1">  1       21 0.62444707E-01 0.45920827E+03</pdfrwt>
<pdfrwt beam="2">  1       21 0.18257695E-01 0.45920827E+03</pdfrwt>
<totfact> 0.59927000E+04</totfact>
</mgrwt>
</event>
<event>
 7    0  0.4691878E-002  0.4524775E+03  0.7546771E-02  0.1026986E+00
         21   -1    0    0  502  501  0.00000000000E+00  0.00000000000E+00  0.45120196641E+03  0.45120196641E+03  0.00000000000E+00 0.  1.
         21   -1    0    0  501  502 -0.00000000000E+00 -0.00000000000E+00 -0.11343913562E+03  0.11343913562E+03  0.00000000000E+00 0.  1.
      99926    2    1    2    0    0  0.14210854715E-13 -0.14210854715E-13  0.33776283079E+03  0.56464110203E+03  0.45247745163E+03 0.  0.
      99925    2    3    3    0    0 -0.64020155502E+02 -0.84279829180E+02  0.17227195659E+03  0.33175398890E+03  0.26302359629E+03 0.  0.
         25    1    3    3    0    0  0.64020155502E+02  0.84279829180E+02  0.16549087421E+03  0.23288711313E+03  0.12509000000E+03 0.  0.
         25    1    4    4    0    0 -0.36114191898E+02 -0.82892965259E+02  0.80201979441E+02  0.17394063399E+03  0.12509000000E+03 0.  0.
         25    1    4    4    0    0 -0.27905963604E+02 -0.13868639212E+01  0.92069977145E+02  0.15781335491E+03  0.12509000000E+03 0.  0.
<mgrwt>
<rscale>  2 0.45247745E+03</rscale>
<asrwt>0</asrwt>
<pdfrwt beam="1">  1       21 0.66353230E-01 0.45247745E+03</pdfrwt>
<pdfrwt beam="2">  1       21 0.16682226E-01 0.45247745E+03</pdfrwt>
<totfact> 0.62139733E+04</totfact>
</mgrwt>
</event>
<event>
 7    0  0.4691878E-002  0.4489376E+03  0.7546771E-02  0.1028039E+00
         21   -1    0    0  502  501  0.00000000000E+00  0.00000000000E+00  0.23089292157E+02  0.23089292157E+02  0.00000000000E+00 0. -1.
         21   -1    0    0  501  502 -0.00000000000E+00 -0.00000000000E+00 -0.21822340435E+04  0.21822340435E+04  0.00000000000E+00 0. -1.
      99926    2    1    2    0    0  0.17763568394E-14  0.00000000000E+00 -0.21591447514E+04  0.22053233357E+04  0.44893758758E+03 0.  0.
      99925    2    3    3    0    0  0.38361509429E+01  0.14189729499E+01 -0.18930381953E+04  0.19112537235E+04  0.26321181039E+03 0.  0.
         25    1    4    4    0    0  0.31934916201E+02 -0.84353830415E+01 -0.75885546123E+03  0.76980524401E+03  0.12509000000E+03 0.  0.
         25    1    3    3    0    0 -0.38361509429E+01 -0.14189729499E+01 -0.26610655611E+03  0.29406961224E+03  0.12509000000E+03 0.  0.
         25    1    4    4    0    0 -0.28098765258E+02  0.98543559915E+01 -0.11341827340E+04  0.11414484794E+04  0.12509000000E+03 0.  0.
<mgrwt>
<rscale>  2 0.44893759E+03</rscale>
<asrwt>0</asrwt>
<pdfrwt beam="1">  1       21 0.33954867E-02 0.44893759E+03</pdfrwt>
<pdfrwt beam="2">  1       21 0.32091653E+00 0.44893759E+03</pdfrwt>
<totfact> 0.11154167E+04</totfact>
</mgrwt>
</event>
<event>
 7    0  0.4691878E-002  0.4540559E+03  0.7546771E-02  0.1026519E+00
         21   -1    0    0  502  501  0.00000000000E+00  0.00000000000E+00  0.65523861419E+02  0.65523861419E+02  0.00000000000E+00 0.  1.
         21   -1    0    0  501  502 -0.00000000000E+00 -0.00000000000E+00 -0.78660946121E+03  0.78660946121E+03  0.00000000000E+00 0.  1.
      99926    2    1    2    0    0  0.00000000000E+00  0.00000000000E+00 -0.72108559979E+03  0.85213332263E+03  0.45405589668E+03 0.  0.
      99925    2    3    3    0    0  0.37026098305E+02 -0.77395357010E+02 -0.31799358367E+03  0.42144590140E+03  0.26293678957E+03 0.  0.
         25    1    4    4    0    0 -0.48309882184E+01 -0.71278341870E+02 -0.17825483143E+03  0.22918602378E+03  0.12509000000E+03 0.  0.
         25    1    3    3    0    0 -0.37026098305E+02  0.77395357010E+02 -0.40309201612E+03  0.43068742122E+03  0.12509000000E+03 0.  0.
         25    1    4    4    0    0  0.41857086524E+02 -0.61170151399E+01 -0.13973875224E+03  0.19225987763E+03  0.12509000000E+03 0.  0.
<mgrwt>
<rscale>  2 0.45405590E+03</rscale>
<asrwt>0</asrwt>
<pdfrwt beam="1">  1       21 0.96358620E-02 0.45405590E+03</pdfrwt>
<pdfrwt beam="2">  1       21 0.11567786E+00 0.45405590E+03</pdfrwt>
<totfact> 0.45681466E+04</totfact>
</mgrwt>
</event>
<event>
 7    0  0.4691878E-002  0.4588058E+03  0.7546771E-02  0.1025128E+00
         21   -1    0    0  502  501  0.00000000000E+00  0.00000000000E+00  0.42995405935E+03  0.42995405935E+03  0.00000000000E+00 0.  1.
         21   -1    0    0  501  502 -0.00000000000E+00 -0.00000000000E+00 -0.12239839678E+03  0.12239839678E+03  0.00000000000E+00 0.  1.
      99926    2    1    2    0    0  0.00000000000E+00  0.00000000000E+00  0.30755566256E+03  0.55235245613E+03  0.45880578704E+03 0.  0.
      99925    2    3    3    0    0 -0.10619447972E+03 -0.47530320309E+02  0.19753689144E+03  0.34915787705E+03  0.26335147759E+03 0.  0.
         25    1    4    4    0    0 -0.16102152380E+02 -0.11458428514E+02  0.63256564186E+02  0.14156085585E+03  0.12509000000E+03 0.  0.
         25    1    4    4    0    0 -0.90092327336E+02 -0.36071891795E+02  0.13428032726E+03  0.20759702120E+03  0.12509000000E+03 0.  0.
         25    1    3    3    0    0  0.10619447972E+03  0.47530320309E+02  0.11001877112E+03  0.20319457909E+03  0.12509000000E+03 0.  0.
<mgrwt>
<rscale>  2 0.45880579E+03</rscale>
<asrwt>0</asrwt>
<pdfrwt beam="1">  1       21 0.63228537E-01 0.45880579E+03</pdfrwt>
<pdfrwt beam="2">  1       21 0.17999764E-01 0.45880579E+03</pdfrwt>
<totfact> 0.59887667E+04</totfact>
</mgrwt>
</event>
<event>
 7    0  0.4691878E-002  0.4614068E+03  0.7546771E-02  0.1024374E+00
         21   -1    0    0  502  501  0.00000000000E+00  0.00000000000E+00  0.23293190194E+03  0.23293190194E+03  0.00000000000E+00 0.  1.
         21   -1    0    0  501  502 -0.00000000000E+00 -0.00000000000E+00 -0.22849620136E+03  0.22849620136E+03  0.00000000000E+00 0.  1.
      99926    2    1    2    0    0  0.14210854715E-13  0.00000000000E+00  0.44357005740E+01  0.46142810330E+03  0.46140678265E+03 0.  0.
      99925    2    3    3    0    0  0.10956560852E+03  0.40778762086E+02  0.25817811853E+02  0.28888178259E+03  0.26290415534E+03 0.  0.
         25    1    4    4    0    0  0.31393764517E+02  0.24708569860E+02  0.45993259572E+02  0.13913651534E+03  0.12509000000E+03 0.  0.
         25    1    3    3    0    0 -0.10956560852E+03 -0.40778762086E+02 -0.21382111279E+02  0.17254632071E+03  0.12509000000E+03 0.  0.
         25    1    4    4    0    0  0.78171844003E+02  0.16070192226E+02 -0.20175447719E+02  0.14974526725E+03  0.12509000000E+03 0.  0.
<mgrwt>
<rscale>  2 0.46140678E+03</rscale>
<asrwt>0</asrwt>
<pdfrwt beam="1">  1       21 0.34254692E-01 0.46140678E+03</pdfrwt>
<pdfrwt beam="2">  1       21 0.33602382E-01 0.46140678E+03</pdfrwt>
<totfact> 0.64705885E+04</totfact>
</mgrwt>
</event>
<event>
 7    0  0.4691878E-002  0.4607050E+03  0.7546771E-02  0.1024577E+00
         21   -1    0    0  502  501  0.00000000000E+00  0.00000000000E+00  0.13523148299E+04  0.13523148299E+04  0.00000000000E+00 0. -1.
         21   -1    0    0  501  502 -0.00000000000E+00 -0.00000000000E+00 -0.39238109091E+02  0.39238109091E+02  0.00000000000E+00 0. -1.
      99926    2    1    2    0    0  0.17763568394E-14  0.00000000000E+00  0.13130767208E+04  0.13915529390E+04  0.46070501114E+03 0.  0.
      99925    2    3    3    0    0 -0.68839670337E+01  0.11534330841E+03  0.90012502415E+03  0.94486727808E+03  0.26305445497E+03 0.  0.
         25    1    4    4    0    0  0.24854167506E+02  0.74666800757E+02  0.38874860262E+03  0.41589162641E+03  0.12509000000E+03 0.  0.
         25    1    3    3    0    0  0.68839670337E+01 -0.11534330841E+03  0.41295169669E+03  0.44668566095E+03  0.12509000000E+03 0.  0.
         25    1    4    4    0    0 -0.31738134540E+02  0.40676507651E+02  0.51137642153E+03  0.52897565167E+03  0.12509000000E+03 0.  0.
<mgrwt>
<rscale>  2 0.46070501E+03</rscale>
<asrwt>0</asrwt>
<pdfrwt beam="1">  1       21 0.19886980E+00 0.46070501E+03</pdfrwt>
<pdfrwt beam="2">  1       21 0.57703111E-02 0.46070501E+03</pdfrwt>
<totfact> 0.25412468E+04</totfact>
</mgrwt>
</event>
<event>
 7    0  0.4691878E-002  0.4573235E+03  0.7546771E-02  0.1025560E+00
         21   -1    0    0  502  501  0.00000000000E+00  0.00000000000E+00  0.20083870533E+04  0.20083870533E+04  0.00000000000E+00 0. -1.
         21   -1    0    0  501  502 -0.00000000000E+00 -0.00000000000E+00 -0.26033927092E+02  0.26033927092E+02  0.00000000000E+00 0. -1.
      99926    2    1    2    0    0  0.00000000000E+00  0.00000000000E+00  0.19823531262E+04  0.20344209804E+04  0.45732352714E+03 0.  0.
      99925    2    3    3    0    0  0.27942548371E+02 -0.83685039512E+02  0.91368485509E+03  0.95484543712E+03  0.26291790071E+03 0.  0.
         25    1    3    3    0    0 -0.27942548371E+02  0.83685039512E+02  0.10686682711E+04  0.10795755433E+04  0.12509000000E+03 0.  0.
         25    1    4    4    0    0  0.26966528873E+01 -0.39672649664E+02  0.31735743582E+03  0.34343040232E+03  0.12509000000E+03 0.  0.
         25    1    4    4    0    0  0.25245895484E+02 -0.44012389848E+02  0.59632741927E+03  0.61141503480E+03  0.12509000000E+03 0.  0.
<mgrwt>
<rscale>  2 0.45732353E+03</rscale>
<asrwt>0</asrwt>
<pdfrwt beam="1">  1       21 0.29535093E+00 0.45732353E+03</pdfrwt>
<pdfrwt beam="2">  1       21 0.38285200E-02 0.45732353E+03</pdfrwt>
<totfact> 0.12921197E+04</totfact>
</mgrwt>
</event>
<event>
 7    0  0.4691878E-002  0.4415400E+03  0.7546771E-02  0.1030275E+00
         21   -1    0    0  502  501  0.00000000000E+00  0.00000000000E+00  0.13449208787E+03  0.13449208787E+03  0.00000000000E+00 0. -1.
         21   -1    0    0  501  502 -0.00000000000E+00 -0.00000000000E+00 -0.36239591423E+03  0.36239591423E+03  0.00000000000E+00 0. -1.
      99926    2    1    2    0    0  0.00000000000E+00 -0.35527136788E-14 -0.22790382636E+03  0.49688800210E+03  0.44153995579E+03 0.  0.
      99925    2    3    3    0    0 -0.96172919355E+02 -0.24635557429E+02 -0.15767836019E+03  0.32243094347E+03  0.26314084998E+03 0.  0.
         25    1    3    3    0    0  0.96172919355E+02  0.24635557429E+02 -0.70225466176E+02  0.17445705863E+03  0.12509000000E+03 0.  0.
         25    1    4    4    0    0 -0.72376280305E+01 -0.22416174760E+02 -0.62343052897E+02  0.14173578410E+03  0.12509000000E+03 0.  0.
         25    1    4    4    0    0 -0.88935291325E+02 -0.22193826699E+01 -0.95335307291E+02  0.18069515937E+03  0.12509000000E+03 0.  0.
<mgrwt>
<rscale>  2 0.44153996E+03</rscale>
<asrwt>0</asrwt>
<pdfrwt beam="1">  1       21 0.19778249E-01 0.44153996E+03</pdfrwt>
<pdfrwt beam="2">  1       21 0.53293516E-01 0.44153996E+03</pdfrwt>
<totfact> 0.72980672E+04</totfact>
</mgrwt>
</event>
<event>
 7    0  0.4691878E-002  0.4591821E+03  0.7546771E-02  0.1025019E+00
         21   -1    0    0  502  501  0.00000000000E+00  0.00000000000E+00  0.94817170295E+02  0.94817170295E+02  0.00000000000E+00 0. -1.
         21   -1    0    0  501  502 -0.00000000000E+00 -0.00000000000E+00 -0.55593360506E+03  0.55593360506E+03  0.00000000000E+00 0. -1.
      99926    2    1    2    0    0  0.00000000000E+00  0.00000000000E+00 -0.46111643476E+03  0.65075077535E+03  0.45918210463E+03 0.  0.
      99925    2    3    3    0    0 -0.82037505016E+02  0.51702402406E+02 -0.38203075835E+03  0.47381761578E+03  0.26296832899E+03 0.  0.
         25    1    4    4    0    0 -0.60085218463E+02  0.52037905900E+02 -0.16048892875E+03  0.21845452955E+03  0.12509000000E+03 0.  0.
         25    1    3    3    0    0  0.82037505016E+02 -0.51702402406E+02 -0.79085676416E+02  0.17693315958E+03  0.12509000000E+03 0.  0.
         25    1    4    4    0    0 -0.21952286553E+02 -0.33550349426E+00 -0.22154182960E+03  0.25536308623E+03  0.12509000000E+03 0.  0.
<mgrwt>
<rscale>  2 0.45918210E+03</rscale>
<asrwt>0</asrwt>
<pdfrwt beam="1">  1       21 0.13943702E-01 0.45918210E+03</pdfrwt>
<pdfrwt beam="2">  1       21 0.81754940E-01 0.45918210E+03</pdfrwt>
<totfact> 0.53859176E+04</totfact>
</mgrwt>
</event>
<event>
 7    0  0.4691878E-002  0.4503264E+03  0.7546771E-02  0.1027625E+00
         21   -1    0    0  502  501  0.00000000000E+00  0.00000000000E+00  0.16190925912E+03  0.16190925912E+03  0.00000000000E+00 0. -1.
         21   -1    0    0  501  502 -0.00000000000E+00 -0.00000000000E+00 -0.31312892757E+03  0.31312892757E+03  0.00000000000E+00 0. -1.
      99926    2    1    2    0    0 -0.71054273576E-14  0.00000000000E+00 -0.15121966844E+03  0.47503818669E+03  0.45032642682E+03 0.  0.
      99925    2    3    3    0    0  0.37220124160E+02  0.30872140359E+02  0.68585177090E+01  0.26773491192E+03  0.26324231632E+03 0.  0.
         25    1    4    4    0    0  0.54328707131E+02  0.15225609811E+02 -0.17070925234E+02  0.13828359339E+03  0.12509000000E+03 0.  0.
         25    1    3    3    0    0 -0.37220124160E+02 -0.30872140359E+02 -0.15807818615E+03  0.20730327477E+03  0.12509000000E+03 0.  0.
         25    1    4    4    0    0 -0.17108582971E+02  0.15646530549E+02  0.23929442944E+02  0.12945131853E+03  0.12509000000E+03 0.  0.
<mgrwt>
<rscale>  2 0.45032643E+03</rscale>
<asrwt>0</asrwt>
<pdfrwt beam="1">  1       21 0.23810185E-01 0.45032643E+03</pdfrwt>
<pdfrwt beam="2">  1       21 0.46048371E-01 0.45032643E+03</pdfrwt>
<totfact> 0.69609516E+04</totfact>
</mgrwt>
</event>
<event>
 7    0  0.4691878E-002  0.4674106E+03  0.7546771E-02  0.1022654E+00
         21   -1    0    0  502  501  0.00000000000E+00  0.00000000000E+00  0.45745999544E+03  0.45745999544E+03  0.00000000000E+00 0. -1.
         21   -1    0    0  501  502 -0.00000000000E+00 -0.00000000000E+00 -0.11939442257E+03  0.11939442257E+03  0.00000000000E+00 0. -1.
      99926    2    1    2    0    0  0.35527136788E-14  0.00000000000E+00  0.33806557287E+03  0.57685441802E+03  0.46741062036E+03 0.  0.
      99925    2    3    3    0    0 -0.24194550578E+02 -0.10447101288E+03  0.13251421458E+03  0.31341858560E+03  0.26300498840E+03 0.  0.
         25    1    4    4    0    0 -0.52441404431E+02 -0.59317073433E+02  0.71309974953E+02  0.16432053045E+03  0.12509000000E+03 0.  0.
         25    1    4    4    0    0  0.28246853853E+02 -0.45153939445E+02  0.61204239629E+02  0.14909805515E+03  0.12509000000E+03 0.  0.
         25    1    3    3    0    0  0.24194550578E+02  0.10447101288E+03  0.20555135829E+03  0.26343583242E+03  0.12509000000E+03 0.  0.
<mgrwt>
<rscale>  2 0.46741062E+03</rscale>
<asrwt>0</asrwt>
<pdfrwt beam="1">  1       21 0.67273528E-01 0.46741062E+03</pdfrwt>
<pdfrwt beam="2">  1       21 0.17558003E-01 0.46741062E+03</pdfrwt>
<totfact> 0.54570758E+04</totfact>
</mgrwt>
</event>
<event>
 7    0  0.4691878E-002  0.4546150E+03  0.7546771E-02  0.1026355E+00
         21   -1    0    0  502  501  0.00000000000E+00  0.00000000000E+00  0.42765030378E+02  0.42765030378E+02  0.00000000000E+00 0. -1.
         21   -1    0    0  501  502 -0.00000000000E+00 -0.00000000000E+00 -0.12081998585E+04  0.12081998585E+04  0.00000000000E+00 0. -1.
      99926    2    1    2    0    0  0.14210854715E-13  0.00000000000E+00 -0.11654348281E+04  0.12509648889E+04  0.45461501801E+03 0.  0.
      99925    2    3    3    0    0 -0.99940629975E+02  0.40573875717E+02 -0.82452887118E+03  0.87215260226E+03  0.26299797208E+03 0.  0.
         25    1    4    4    0    0 -0.69571342326E+02 -0.67742906873E+01 -0.34994104121E+03  0.37814323094E+03  0.12509000000E+03 0.  0.
         25    1    4    4    0    0 -0.30369287650E+02  0.47348166404E+02 -0.47458782997E+03  0.49400937132E+03  0.12509000000E+03 0.  0.
         25    1    3    3    0    0  0.99940629975E+02 -0.40573875717E+02 -0.34090595694E+03  0.37881228661E+03  0.12509000000E+03 0.  0.
<mgrwt>
<rscale>  2 0.45461502E+03</rscale>
<asrwt>0</asrwt>
<pdfrwt beam="1">  1       21 0.62889749E-02 0.45461502E+03</pdfrwt>
<pdfrwt beam="2">  1       21 0.17767645E+00 0.45461502E+03</pdfrwt>
<totfact> 0.30664466E+04</totfact>
</mgrwt>
</event>
<event>
 7    0  0.4691878E-002  0.4591745E+03  0.7546771E-02  0.1025021E+00
         21   -1    0    0  502  501  0.00000000000E+00  0.00000000000E+00  0.81360008143E+02  0.81360008143E+02  0.00000000000E+00 0. -1.
         21   -1    0    0  501  502 -0.00000000000E+00 -0.00000000000E+00 -0.64786496736E+03  0.64786496736E+03  0.00000000000E+00 0. -1.
      99926    2    1    2    0    0  0.00000000000E+00 -0.17763568394E-14 -0.56650495922E+03  0.72922497551E+03  0.45917447237E+03 0.  0.
      99925    2    3    3    0    0  0.99297910208E+02  0.14434561760E+02 -0.25946910173E+03  0.38283363983E+03  0.26299990397E+03 0.  0.
         25    1    4    4    0    0  0.36701979867E+02  0.62490117950E+01 -0.17810805113E+03  0.22080777036E+03  0.12509000000E+03 0.  0.
         25    1    4    4    0    0  0.62595930342E+02  0.81855499645E+01 -0.81361050603E+02  0.16202586947E+03  0.12509000000E+03 0.  0.
         25    1    3    3    0    0 -0.99297910208E+02 -0.14434561760E+02 -0.30703585749E+03  0.34639133567E+03  0.12509000000E+03 0.  0.
<mgrwt>
<rscale>  2 0.45917447E+03</rscale>
<asrwt>0</asrwt>
<pdfrwt beam="1">  1       21 0.11964707E-01 0.45917447E+03</pdfrwt>
<pdfrwt beam="2">  1       21 0.95274262E-01 0.45917447E+03</pdfrwt>
<totfact> 0.49693340E+04</totfact>
</mgrwt>
</event>
<event>
 7    0  0.4691878E-002  0.4553370E+03  0.7546771E-02  0.1026142E+00
         21   -1    0    0  502  501  0.00000000000E+00  0.00000000000E+00  0.45698955812E+03  0.45698955812E+03  0.00000000000E+00 0.  1.
         21   -1    0    0  501  502 -0.00000000000E+00 -0.00000000000E+00 -0.11342259114E+03  0.11342259114E+03  0.00000000000E+00 0.  1.
      99926    2    1    2    0    0  0.00000000000E+00  0.00000000000E+00  0.34356696699E+03  0.57041214926E+03  0.45533697326E+03 0.  0.
      99925    2    3    3    0    0  0.69813238680E+02 -0.80100848946E+02  0.16778563031E+03  0.32991969466E+03  0.26344819773E+03 0.  0.
         25    1    4    4    0    0  0.65544214000E+02 -0.71805528551E+02  0.87440102031E+02  0.18095678341E+03  0.12509000000E+03 0.  0.
         25    1    3    3    0    0 -0.69813238680E+02  0.80100848946E+02  0.17578133668E+03  0.24049245460E+03  0.12509000000E+03 0.  0.
         25    1    4    4    0    0  0.42690246804E+01 -0.82953203954E+01  0.80345528278E+02  0.14896291124E+03  0.12509000000E+03 0.  0.
<mgrwt>
<rscale>  2 0.45533697E+03</rscale>
<asrwt>0</asrwt>
<pdfrwt beam="1">  1       21 0.67204346E-01 0.45533697E+03</pdfrwt>
<pdfrwt beam="2">  1       21 0.16679793E-01 0.45533697E+03</pdfrwt>
<totfact> 0.60376425E+04</totfact>
</mgrwt>
</event>
<event>
 7    0  0.4691878E-002  0.4551632E+03  0.7546771E-02  0.1026193E+00
         21   -1    0    0  502  501  0.00000000000E+00  0.00000000000E+00  0.77719269304E+03  0.77719269304E+03  0.00000000000E+00 0.  1.
         21   -1    0    0  501  502 -0.00000000000E+00 -0.00000000000E+00 -0.66641621356E+02  0.66641621356E+02  0.00000000000E+00 0.  1.
      99926    2    1    2    0    0  0.00000000000E+00  0.35527136788E-14  0.71055107168E+03  0.84383431439E+03  0.45516318467E+03 0.  0.
      99925    2    3    3    0    0  0.95396153131E+02 -0.26211488905E+02  0.54931517647E+03  0.61704809306E+03  0.26308500121E+03 0.  0.
         25    1    4    4    0    0  0.67588374182E+02 -0.46423456737E+02  0.32845419652E+03  0.36090579515E+03  0.12509000000E+03 0.  0.
         25    1    4    4    0    0  0.27807778949E+02  0.20211967832E+02  0.22086097995E+03  0.25614229791E+03  0.12509000000E+03 0.  0.
         25    1    3    3    0    0 -0.95396153131E+02  0.26211488905E+02  0.16123589521E+03  0.22678622133E+03  0.12509000000E+03 0.  0.
<mgrwt>
<rscale>  2 0.45516318E+03</rscale>
<asrwt>0</asrwt>
<pdfrwt beam="1">  1       21 0.11429304E+00 0.45516318E+03</pdfrwt>
<pdfrwt beam="2">  1       21 0.98002389E-02 0.45516318E+03</pdfrwt>
<totfact> 0.45657984E+04</totfact>
</mgrwt>
</event>
<event>
 7    0  0.4691878E-002  0.4485296E+03  0.7546771E-02  0.1028161E+00
         21   -1    0    0  502  501  0.00000000000E+00  0.00000000000E+00  0.42003698234E+03  0.42003698234E+03  0.00000000000E+00 0. -1.
         21   -1    0    0  501  502 -0.00000000000E+00 -0.00000000000E+00 -0.11973874271E+03  0.11973874271E+03  0.00000000000E+00 0. -1.
      99926    2    1    2    0    0  0.44408920985E-15 -0.14210854715E-13  0.30029823963E+03  0.53977572505E+03  0.44852959839E+03 0.  0.
      99925    2    3    3    0    0 -0.24456567710E+01  0.10163876363E+03  0.22995848364E+03  0.36390188140E+03  0.26307271918E+03 0.  0.
         25    1    3    3    0    0  0.24456567710E+01 -0.10163876363E+03  0.70339755984E+02  0.17587384365E+03  0.12509000000E+03 0.  0.
         25    1    4    4    0    0  0.24864062278E+02  0.19155089556E+02  0.11881111971E+03  0.17535315599E+03  0.12509000000E+03 0.  0.
         25    1    4    4    0    0 -0.27309719049E+02  0.82483674072E+02  0.11114736393E+03  0.18854872541E+03  0.12509000000E+03 0.  0.
<mgrwt>
<rscale>  2 0.44852960E+03</rscale>
<asrwt>0</asrwt>
<pdfrwt beam="1">  1       21 0.61770144E-01 0.44852960E+03</pdfrwt>
<pdfrwt beam="2">  1       21 0.17608639E-01 0.44852960E+03</pdfrwt>
<totfact> 0.65855186E+04</totfact>
</mgrwt>
</event>
<event>
 7    0  0.4691878E-002  0.4571745E+03  0.7546771E-02  0.1025604E+00
         21   -1    0    0  502  501  0.00000000000E+00  0.00000000000E+00  0.62455358644E+03  0.62455358644E+03  0.00000000000E+00 0. -1.
         21   -1    0    0  501  502 -0.00000000000E+00 -0.00000000000E+00 -0.83663164325E+02  0.83663164325E+02  0.00000000000E+00 0. -1.
      99926    2    1    2    0    0  0.00000000000E+00  0.00000000000E+00  0.54089042211E+03  0.70821675076E+03  0.45717449331E+03 0.  0.
      99925    2    3    3    0    0 -0.46225810569E+02 -0.82245810433E+01  0.17681254119E+03  0.32039632741E+03  0.26303357694E+03 0.  0.
         25    1    4    4    0    0 -0.63537746781E+02 -0.19686762938E+01  0.10215353120E+03  0.17356201482E+03  0.12509000000E+03 0.  0.
         25    1    4    4    0    0  0.17311936213E+02 -0.62559047495E+01  0.74659009992E+02  0.14683431259E+03  0.12509000000E+03 0.  0.
         25    1    3    3    0    0  0.46225810569E+02  0.82245810433E+01  0.36407788092E+03  0.38782042336E+03  0.12509000000E+03 0.  0.
<mgrwt>
<rscale>  2 0.45717449E+03</rscale>
<asrwt>0</asrwt>
<pdfrwt beam="1">  1       21 0.91846113E-01 0.45717449E+03</pdfrwt>
<pdfrwt beam="2">  1       21 0.12303407E-01 0.45717449E+03</pdfrwt>
<totfact> 0.51571100E+04</totfact>
</mgrwt>
</event>
<event>
 7    0  0.4691878E-002  0.4545475E+03  0.7546771E-02  0.1026375E+00
         21   -1    0    0  502  501  0.00000000000E+00  0.00000000000E+00  0.72274464012E+02  0.72274464012E+02  0.00000000000E+00 0. -1.
         21   -1    0    0  501  502 -0.00000000000E+00 -0.00000000000E+00 -0.71468336297E+03  0.71468336297E+03  0.00000000000E+00 0. -1.
      99926    2    1    2    0    0 -0.17763568394E-14  0.00000000000E+00 -0.64240889896E+03  0.78695782698E+03  0.45454749805E+03 0.  0.
      99925    2    3    3    0    0 -0.14127295469E+02 -0.61277638900E+02 -0.24235532534E+03  0.36311245498E+03  0.26298293049E+03 0.  0.
         25    1    4    4    0    0  0.31045332378E+02 -0.26478719485E+02 -0.10045627372E+03  0.16554125250E+03  0.12509000000E+03 0.  0.
         25    1    3    3    0    0  0.14127295469E+02  0.61277638900E+02 -0.40005357361E+03  0.42384537200E+03  0.12509000000E+03 0.  0.
         25    1    4    4    0    0 -0.45172627846E+02 -0.34798919415E+02 -0.14189905162E+03  0.19757120248E+03  0.12509000000E+03 0.  0.
<mgrwt>
<rscale>  2 0.45454750E+03</rscale>
<asrwt>0</asrwt>
<pdfrwt beam="1">  1       21 0.10628598E-01 0.45454750E+03</pdfrwt>
<pdfrwt beam="2">  1       21 0.10510049E+00 0.45454750E+03</pdfrwt>
<totfact> 0.48574427E+04</totfact>
</mgrwt>
</event>
<event>
 7    0  0.4691878E-002  0.4431926E+03  0.7546771E-02  0.1029772E+00
         21   -1    0    0  502  501  0.00000000000E+00  0.00000000000E+00  0.31652046391E+03  0.31652046391E+03  0.00000000000E+00 0.  1.
         21   -1    0    0  501  502 -0.00000000000E+00 -0.00000000000E+00 -0.15513981766E+03  0.15513981766E+03  0.00000000000E+00 0.  1.
      99926    2    1    2    0    0  0.00000000000E+00  0.00000000000E+00  0.16138064625E+03  0.47166028158E+03  0.44319263107E+03 0.  0.
      99925    2    3    3    0    0 -0.14560366797E+02  0.42106522873E+02  0.53504278603E+01  0.26677519012E+03  0.26297416496E+03 0.  0.
         25    1    4    4    0    0 -0.30569800370E+02 -0.94053145296E+01 -0.10952954059E+02  0.12957796085E+03  0.12509000000E+03 0.  0.
         25    1    3    3    0    0  0.14560366797E+02 -0.42106522873E+02  0.15603021839E+03  0.20488509146E+03  0.12509000000E+03 0.  0.
         25    1    4    4    0    0  0.16009433573E+02  0.51511837403E+02  0.16303381919E+02  0.13719722926E+03  0.12509000000E+03 0.  0.
<mgrwt>
<rscale>  2 0.44319263E+03</rscale>
<asrwt>0</asrwt>
<pdfrwt beam="1">  1       21 0.46547127E-01 0.44319263E+03</pdfrwt>
<pdfrwt beam="2">  1       21 0.22814679E-01 0.44319263E+03</pdfrwt>
<totfact> 0.74008623E+04</totfact>
</mgrwt>
</event>
<event>
 7    0  0.4691878E-002  0.4560695E+03  0.7546771E-02  0.1025927E+00
         21   -1    0    0  502  501  0.00000000000E+00  0.00000000000E+00  0.55303910273E+03  0.55303910273E+03  0.00000000000E+00 0.  1.
         21   -1    0    0  501  502 -0.00000000000E+00 -0.00000000000E+00 -0.94025605700E+02  0.94025605700E+02  0.00000000000E+00 0.  1.
      99926    2    1    2    0    0  0.00000000000E+00  0.71054273576E-14  0.45901349703E+03  0.64706470843E+03  0.45606945353E+03 0.  0.
      99925    2    3    3    0    0  0.63726998291E+02  0.53689958368E+02  0.17798859317E+03  0.32837011069E+03  0.26306510288E+03 0.  0.
         25    1    3    3    0    0 -0.63726998291E+02 -0.53689958368E+02  0.28102490387E+03  0.31869459775E+03  0.12509000000E+03 0.  0.
         25    1    4    4    0    0  0.40113633780E+02  0.37026817848E+02  0.13753733493E+03  0.19376303944E+03  0.12509000000E+03 0.  0.
         25    1    4    4    0    0  0.23613364511E+02  0.16663140521E+02  0.40451258242E+02  0.13460707124E+03  0.12509000000E+03 0.  0.
<mgrwt>
<rscale>  2 0.45606945E+03</rscale>
<asrwt>0</asrwt>
<pdfrwt beam="1">  1       21 0.81329278E-01 0.45606945E+03</pdfrwt>
<pdfrwt beam="2">  1       21 0.13827295E-01 0.45606945E+03</pdfrwt>
<totfact> 0.55401958E+04</totfact>
</mgrwt>
</event>
<event>
 7    0  0.4691878E-002  0.4524291E+03  0.7546771E-02  0.1027000E+00
         21   -1    0    0  502  501  0.00000000000E+00  0.00000000000E+00  0.43521564316E+02  0.43521564316E+02  0.00000000000E+00 0.  1.
         21   -1    0    0  501  502 -0.00000000000E+00 -0.00000000000E+00 -0.11758082337E+04  0.11758082337E+04  0.00000000000E+00 0.  1.
      99926    2    1    2    0    0 -0.22204460493E-15  0.00000000000E+00 -0.11322866694E+04  0.12193297980E+04  0.45242906037E+03 0.  0.
      99925    2    3    3    0    0 -0.26629412145E+00 -0.10369013611E+03 -0.81890147796E+03  0.86632908762E+03  0.26301091653E+03 0.  0.
         25    1    4    4    0    0 -0.21132581143E+01 -0.43801414133E+02 -0.27886483480E+03  0.30876549990E+03  0.12509000000E+03 0.  0.
         25    1    3    3    0    0  0.26629412145E+00  0.10369013611E+03 -0.31338519144E+03  0.35300071041E+03  0.12509000000E+03 0.  0.
         25    1    4    4    0    0  0.18469639928E+01 -0.59888721974E+02 -0.54003664316E+03  0.55756358772E+03  0.12509000000E+03 0.  0.
<mgrwt>
<rscale>  2 0.45242906E+03</rscale>
<asrwt>0</asrwt>
<pdfrwt beam="1">  1       21 0.64002293E-02 0.45242906E+03</pdfrwt>
<pdfrwt beam="2">  1       21 0.17291299E+00 0.45242906E+03</pdfrwt>
<totfact> 0.32188940E+04</totfact>
</mgrwt>
</event>
<event>
 7    0  0.4691878E-002  0.4554402E+03  0.7546771E-02  0.1026112E+00
         21   -1    0    0  502  501  0.00000000000E+00  0.00000000000E+00  0.18908499015E+03  0.18908499015E+03  0.00000000000E+00 0.  1.
         21   -1    0    0  501  502 -0.00000000000E+00 -0.00000000000E+00 -0.27424944141E+03  0.27424944141E+03  0.00000000000E+00 0.  1.
      99926    2    1    2    0    0  0.00000000000E+00  0.00000000000E+00 -0.85164451257E+02  0.46333443156E+03  0.45544023945E+03 0.  0.
      99925    2    3    3    0    0 -0.12687065493E+02  0.11015854199E+03 -0.78203674928E+02  0.29602685100E+03  0.26309735030E+03 0.  0.
         25    1    4    4    0    0  0.87909191835E+01  0.18881185067E+02 -0.16186212121E+02  0.12784084235E+03  0.12509000000E+03 0.  0.
         25    1    3    3    0    0  0.12687065493E+02 -0.11015854199E+03 -0.69607763288E+01  0.16730758056E+03  0.12509000000E+03 0.  0.
         25    1    4    4    0    0 -0.21477984676E+02  0.91277356927E+02 -0.62017462806E+02  0.16818600865E+03  0.12509000000E+03 0.  0.
<mgrwt>
<rscale>  2 0.45544024E+03</rscale>
<asrwt>0</asrwt>
<pdfrwt beam="1">  1       21 0.27806616E-01 0.45544024E+03</pdfrwt>
<pdfrwt beam="2">  1       21 0.40330800E-01 0.45544024E+03</pdfrwt>
<totfact> 0.67696752E+04</totfact>
</mgrwt>
</event>
<event>
 7    0  0.4691878E-002  0.4394505E+03  0.7546771E-02  0.1030916E+00
         21   -1    0    0  502  501  0.00000000000E+00  0.00000000000E+00  0.17120816381E+03  0.17120816381E+03  0.00000000000E+00 0.  1.
         21   -1    0    0  501  502 -0.00000000000E+00 -0.00000000000E+00 -0.28199110964E+03  0.28199110964E+03  0.00000000000E+00 0.  1.
      99926    2    1    2    0    0  0.00000000000E+00 -0.88817841970E-15 -0.11078294584E+03  0.45319927345E+03  0.43945047545E+03 0.  0.
      99925    2    3    3    0    0  0.97719751170E+02 -0.44407432429E+01 -0.67297238404E+02  0.28855606885E+03  0.26299584903E+03 0.  0.
         25    1    4    4    0    0  0.76469230322E+02  0.23789862425E+02 -0.53370965716E+02  0.15782733864E+03  0.12509000000E+03 0.  0.
         25    1    3    3    0    0 -0.97719751170E+02  0.44407432429E+01 -0.43485707433E+02  0.16464320460E+03  0.12509000000E+03 0.  0.
         25    1    4    4    0    0  0.21250520848E+02 -0.28230605668E+02 -0.13926272688E+02  0.13072873022E+03  0.12509000000E+03 0.  0.
<mgrwt>
<rscale>  2 0.43945048E+03</rscale>
<asrwt>0</asrwt>
<pdfrwt beam="1">  1       21 0.25177671E-01 0.43945048E+03</pdfrwt>
<pdfrwt beam="2">  1       21 0.41469280E-01 0.43945048E+03</pdfrwt>
<totfact> 0.77877074E+04</totfact>
</mgrwt>
</event>
<event>
 7    0  0.4691878E-002  0.4537904E+03  0.7546771E-02  0.1026598E+00
         21   -1    0    0  502  501  0.00000000000E+00  0.00000000000E+00  0.35591963248E+03  0.35591963248E+03  0.00000000000E+00 0. -1.
         21   -1    0    0  501  502 -0.00000000000E+00 -0.00000000000E+00 -0.14464343299E+03  0.14464343299E+03  0.00000000000E+00 0. -1.
      99926    2    1    2    0    0  0.00000000000E+00  0.00000000000E+00  0.21127619949E+03  0.50056306547E+03  0.45379042525E+03 0.  0.
      99925    2    3    3    0    0  0.10895393880E+03  0.10298726389E+02  0.10645431656E+03  0.30406329502E+03  0.26295425709E+03 0.  0.
         25    1    4    4    0    0  0.28999500079E+02  0.21184909772E+02  0.19295905773E+02  0.13156599670E+03  0.12509000000E+03 0.  0.
         25    1    4    4    0    0  0.79954438722E+02 -0.10886183383E+02  0.87158410783E+02  0.17249729833E+03  0.12509000000E+03 0.  0.
         25    1    3    3    0    0 -0.10895393880E+03 -0.10298726389E+02  0.10482188293E+03  0.19649977045E+03  0.12509000000E+03 0.  0.
<mgrwt>
<rscale>  2 0.45379043E+03</rscale>
<asrwt>0</asrwt>
<pdfrwt beam="1">  1       21 0.52341123E-01 0.45379043E+03</pdfrwt>
<pdfrwt beam="2">  1       21 0.21271093E-01 0.45379043E+03</pdfrwt>
<totfact> 0.65861219E+04</totfact>
</mgrwt>
</event>
<event>
 7    0  0.4691878E-002  0.4555305E+03  0.7546771E-02  0.1026086E+00
         21   -1    0    0  502  501  0.00000000000E+00  0.00000000000E+00  0.19597224214E+03  0.19597224214E+03  0.00000000000E+00 0.  1.
         21   -1    0    0  501  502 -0.00000000000E+00 -0.00000000000E+00 -0.26471613275E+03  0.26471613275E+03  0.00000000000E+00 0.  1.
      99926    2    1    2    0    0  0.00000000000E+00 -0.71054273576E-14 -0.68743890616E+02  0.46068837489E+03  0.45553052177E+03 0.  0.
      99925    2    3    3    0    0  0.55009608157E+02 -0.62847703273E+02 -0.12126872018E+03  0.30137027605E+03  0.26294875927E+03 0.  0.
         25    1    4    4    0    0 -0.11749097579E+02 -0.37883829752E+02 -0.47149906945E+02  0.13944119791E+03  0.12509000000E+03 0.  0.
         25    1    3    3    0    0 -0.55009608157E+02  0.62847703273E+02  0.52524829563E+02  0.15931809884E+03  0.12509000000E+03 0.  0.
         25    1    4    4    0    0  0.66758705735E+02 -0.24963873520E+02 -0.74118813233E+02  0.16192907814E+03  0.12509000000E+03 0.  0.
<mgrwt>
<rscale>  2 0.45553052E+03</rscale>
<asrwt>0</asrwt>
<pdfrwt beam="1">  1       21 0.28819447E-01 0.45553052E+03</pdfrwt>
<pdfrwt beam="2">  1       21 0.38928843E-01 0.45553052E+03</pdfrwt>
<totfact> 0.67842949E+04</totfact>
</mgrwt>
</event>
<event>
 7    0  0.4691878E-002  0.4559198E+03  0.7546771E-02  0.1025971E+00
         21   -1    0    0  502  501  0.00000000000E+00  0.00000000000E+00  0.60752688843E+03  0.60752688843E+03  0.00000000000E+00 0.  1.
         21   -1    0    0  501  502 -0.00000000000E+00 -0.00000000000E+00 -0.85536479463E+02  0.85536479463E+02  0.00000000000E+00 0.  1.
      99926    2    1    2    0    0  0.00000000000E+00 -0.17763568394E-14  0.52199040896E+03  0.69306336789E+03  0.45591977897E+03 0.  0.
      99925    2    3    3    0    0 -0.76900990607E+02 -0.12718512003E+02  0.20166883724E+03  0.34046027613E+03  0.26299687604E+03 0.  0.
         25    1    4    4    0    0 -0.53590472547E+02  0.26810303123E+02  0.12510391711E+03  0.18678658752E+03  0.12509000000E+03 0.  0.
         25    1    3    3    0    0  0.76900990607E+02  0.12718512003E+02  0.32032157173E+03  0.35260309176E+03  0.12509000000E+03 0.  0.
         25    1    4    4    0    0 -0.23310518060E+02 -0.39528815125E+02  0.76564920131E+02  0.15367368861E+03  0.12509000000E+03 0.  0.
<mgrwt>
<rscale>  2 0.45591978E+03</rscale>
<asrwt>0</asrwt>
<pdfrwt beam="1">  1       21 0.89342188E-01 0.45591978E+03</pdfrwt>
<pdfrwt beam="2">  1       21 0.12578894E-01 0.45591978E+03</pdfrwt>
<totfact> 0.52897235E+04</totfact>
</mgrwt>
</event>
<event>
 7    0  0.4691878E-002  0.4532624E+03  0.7546771E-02  0.1026754E+00
         21   -1    0    0  502  501  0.00000000000E+00  0.00000000000E+00  0.25797635028E+03  0.25797635028E+03  0.00000000000E+00 0.  1.
         21   -1    0    0  501  502 -0.00000000000E+00 -0.00000000000E+00 -0.19909458928E+03  0.19909458928E+03  0.00000000000E+00 0.  1.
      99926    2    1    2    0    0  0.00000000000E+00  0.00000000000E+00  0.58881760994E+02  0.45707093956E+03  0.45326237657E+03 0.  0.
      99925    2    3    3    0    0 -0.75137438294E+01 -0.55822377429E+02  0.13413126825E+03  0.30060180327E+03  0.26305446743E+03 0.  0.
         25    1    3    3    0    0  0.75137438294E+01  0.55822377429E+02 -0.75249507259E+02  0.15646913629E+03  0.12509000000E+03 0.  0.
         25    1    4    4    0    0  0.11937646302E+02 -0.62966713456E+02  0.87176350645E+02  0.16539207543E+03  0.12509000000E+03 0.  0.
         25    1    4    4    0    0 -0.19451390131E+02  0.71443360265E+01  0.46954917607E+02  0.13520972784E+03  0.12509000000E+03 0.  0.
<mgrwt>
<rscale>  2 0.45326238E+03</rscale>
<asrwt>0</asrwt>
<pdfrwt beam="1">  1       21 0.37937699E-01 0.45326238E+03</pdfrwt>
<pdfrwt beam="2">  1       21 0.29278616E-01 0.45326238E+03</pdfrwt>
<totfact> 0.69350584E+04</totfact>
</mgrwt>
</event>
<event>
 7    0  0.4691878E-002  0.4689916E+03  0.7546771E-02  0.1022205E+00
         21   -1    0    0  502  501  0.00000000000E+00  0.00000000000E+00  0.33536377314E+03  0.33536377314E+03  0.00000000000E+00 0.  1.
         21   -1    0    0  501  502 -0.00000000000E+00 -0.00000000000E+00 -0.16396609936E+03  0.16396609936E+03  0.00000000000E+00 0.  1.
      99926    2    1    2    0    0  0.14210854715E-13  0.00000000000E+00  0.17139767378E+03  0.49932987251E+03  0.46899164065E+03 0.  0.
      99925    2    3    3    0    0  0.85684343078E+02  0.51044628447E+02  0.24833300742E+02  0.28235986470E+03  0.26298866825E+03 0.  0.
         25    1    4    4    0    0  0.55767460287E+02  0.31019005448E+02  0.51346426306E+02  0.14951973756E+03  0.12509000000E+03 0.  0.
         25    1    4    4    0    0  0.29916882790E+02  0.20025622999E+02 -0.26513125564E+02  0.13284012714E+03  0.12509000000E+03 0.  0.
         25    1    3    3    0    0 -0.85684343078E+02 -0.51044628447E+02  0.14656437304E+03  0.21697000780E+03  0.12509000000E+03 0.  0.
<mgrwt>
<rscale>  2 0.46899164E+03</rscale>
<asrwt>0</asrwt>
<pdfrwt beam="1">  1       21 0.49318202E-01 0.46899164E+03</pdfrwt>
<pdfrwt beam="2">  1       21 0.24112662E-01 0.46899164E+03</pdfrwt>
<totfact> 0.58540266E+04</totfact>
</mgrwt>
</event>
<event>
 7    0  0.4691878E-002  0.4538747E+03  0.7546771E-02  0.1026573E+00
         21   -1    0    0  502  501  0.00000000000E+00  0.00000000000E+00  0.10363508560E+03  0.10363508560E+03  0.00000000000E+00 0. -1.
         21   -1    0    0  501  502 -0.00000000000E+00 -0.00000000000E+00 -0.49694133704E+03  0.49694133704E+03  0.00000000000E+00 0. -1.
      99926    2    1    2    0    0  0.00000000000E+00 -0.14210854715E-13 -0.39330625144E+03  0.60057642264E+03  0.45387468757E+03 0.  0.
      99925    2    3    3    0    0 -0.20181264542E+02  0.10725123993E+03 -0.28181617986E+03  0.40060728486E+03  0.26297476219E+03 0.  0.
         25    1    4    4    0    0 -0.13427403068E+02  0.81156743473E+02 -0.10725181099E+03  0.18416615114E+03  0.12509000000E+03 0.  0.
         25    1    3    3    0    0  0.20181264542E+02 -0.10725123993E+03 -0.11149007158E+03  0.19996913778E+03  0.12509000000E+03 0.  0.
         25    1    4    4    0    0 -0.67538614743E+01  0.26094496452E+02 -0.17456436887E+03  0.21644113372E+03  0.12509000000E+03 0.  0.
<mgrwt>
<rscale>  2 0.45387469E+03</rscale>
<asrwt>0</asrwt>
<pdfrwt beam="1">  1       21 0.15240454E-01 0.45387469E+03</pdfrwt>
<pdfrwt beam="2">  1       21 0.73079606E-01 0.45387469E+03</pdfrwt>
<totfact> 0.59167115E+04</totfact>
</mgrwt>
</event>
<event>
 7    0  0.4691878E-002  0.4514356E+03  0.7546771E-02  0.1027295E+00
         21   -1    0    0  502  501  0.00000000000E+00  0.00000000000E+00  0.12131878239E+03  0.12131878239E+03  0.00000000000E+00 0. -1.
         21   -1    0    0  501  502 -0.00000000000E+00 -0.00000000000E+00 -0.41995575780E+03  0.41995575780E+03  0.00000000000E+00 0. -1.
      99926    2    1    2    0    0  0.00000000000E+00  0.00000000000E+00 -0.29863697541E+03  0.54127454018E+03  0.45143558208E+03 0.  0.
      99925    2    3    3    0    0 -0.50967213129E+02  0.97222411067E+02 -0.18696781706E+03  0.34085656930E+03  0.26301403420E+03 0.  0.
         25    1    3    3    0    0  0.50967213129E+02 -0.97222411067E+02 -0.11166915835E+03  0.20041797089E+03  0.12509000000E+03 0.  0.
         25    1    4    4    0    0 -0.68534661398E+01  0.43847510478E+02 -0.13337674831E+03  0.18816598859E+03  0.12509000000E+03 0.  0.
         25    1    4    4    0    0 -0.44113746989E+02  0.53374900589E+02 -0.53591068754E+02  0.15269058071E+03  0.12509000000E+03 0.  0.
<mgrwt>
<rscale>  2 0.45143558E+03</rscale>
<asrwt>0</asrwt>
<pdfrwt beam="1">  1       21 0.17840997E-01 0.45143558E+03</pdfrwt>
<pdfrwt beam="2">  1       21 0.61758200E-01 0.45143558E+03</pdfrwt>
<totfact> 0.64239757E+04</totfact>
</mgrwt>
</event>
<event>
 7    0  0.4691878E-002  0.4499596E+03  0.7546771E-02  0.1027734E+00
         21   -1    0    0  502  501  0.00000000000E+00  0.00000000000E+00  0.10216041438E+03  0.10216041438E+03  0.00000000000E+00 0. -1.
         21   -1    0    0  501  502 -0.00000000000E+00 -0.00000000000E+00 -0.49545520191E+03  0.49545520191E+03  0.00000000000E+00 0. -1.
      99926    2    1    2    0    0  0.14210854715E-13  0.35527136788E-14 -0.39329478753E+03  0.59761561629E+03  0.44995959255E+03 0.  0.
      99925    2    3    3    0    0  0.93369763505E+02  0.14651931727E+02 -0.17838063052E+03  0.33159269467E+03  0.26306173035E+03 0.  0.
         25    1    4    4    0    0  0.65369194868E+02 -0.29040705001E+02 -0.92093608447E+02  0.17101238260E+03  0.12509000000E+03 0.  0.
         25    1    3    3    0    0 -0.93369763505E+02 -0.14651931727E+02 -0.21491415701E+03  0.26602292161E+03  0.12509000000E+03 0.  0.
         25    1    4    4    0    0  0.28000568637E+02  0.43692636728E+02 -0.86287022075E+02  0.16058031208E+03  0.12509000000E+03 0.  0.
<mgrwt>
<rscale>  2 0.44995959E+03</rscale>
<asrwt>0</asrwt>
<pdfrwt beam="1">  1       21 0.15023591E-01 0.44995959E+03</pdfrwt>
<pdfrwt beam="2">  1       21 0.72861058E-01 0.44995959E+03</pdfrwt>
<totfact> 0.61227613E+04</totfact>
</mgrwt>
</event>
<event>
 7    0  0.4691878E-002  0.4523411E+03  0.7546771E-02  0.1027026E+00
         21   -1    0    0  502  501  0.00000000000E+00  0.00000000000E+00  0.50064444781E+02  0.50064444781E+02  0.00000000000E+00 0.  1.
         21   -1    0    0  501  502 -0.00000000000E+00 -0.00000000000E+00 -0.10217455998E+04  0.10217455998E+04  0.00000000000E+00 0.  1.
      99926    2    1    2    0    0  0.00000000000E+00  0.00000000000E+00 -0.97168115506E+03  0.10718100446E+04  0.45234113748E+03 0.  0.
      99925    2    3    3    0    0  0.79261731374E+02  0.75556969946E+02 -0.65180313628E+03  0.71130937504E+03  0.26291143146E+03 0.  0.
         25    1    4    4    0    0  0.71911158893E+01  0.58806973807E+02 -0.28737216320E+03  0.31896746009E+03  0.12509000000E+03 0.  0.
         25    1    3    3    0    0 -0.79261731374E+02 -0.75556969946E+02 -0.31987801878E+03  0.36050066958E+03  0.12509000000E+03 0.  0.
         25    1    4    4    0    0  0.72070615484E+02  0.16749996139E+02 -0.36443097308E+03  0.39234191495E+03  0.12509000000E+03 0.  0.
<mgrwt>
<rscale>  2 0.45234114E+03</rscale>
<asrwt>0</asrwt>
<pdfrwt beam="1">  1       21 0.73624179E-02 0.45234114E+03</pdfrwt>
<pdfrwt beam="2">  1       21 0.15025671E+00 0.45234114E+03</pdfrwt>
<totfact> 0.37254130E+04</totfact>
</mgrwt>
</event>
<event>
 7    0  0.4691878E-002  0.4517932E+03  0.7546771E-02  0.1027189E+00
         21   -1    0    0  502  501  0.00000000000E+00  0.00000000000E+00  0.65143724105E+02  0.65143724105E+02  0.00000000000E+00 0. -1.
         21   -1    0    0  501  502 -0.00000000000E+00 -0.00000000000E+00 -0.78333355971E+03  0.78333355971E+03  0.00000000000E+00 0. -1.
      99926    2    1    2    0    0 -0.17763568394E-14  0.00000000000E+00 -0.71818983560E+03  0.84847728381E+03  0.45179316195E+03 0.  0.
      99925    2    3    3    0    0  0.15027596035E+02  0.10801891417E+03 -0.48174351775E+03  0.55960311780E+03  0.26303026081E+03 0.  0.
         25    1    4    4    0    0 -0.26486480813E+02  0.64775605874E+02 -0.28315876841E+03  0.31737014512E+03  0.12509000000E+03 0.  0.
         25    1    4    4    0    0  0.41514076848E+02  0.43243308291E+02 -0.19858474933E+03  0.24223297269E+03  0.12509000000E+03 0.  0.
         25    1    3    3    0    0 -0.15027596035E+02 -0.10801891417E+03 -0.23644631785E+03  0.28887416601E+03  0.12509000000E+03 0.  0.
<mgrwt>
<rscale>  2 0.45179316E+03</rscale>
<asrwt>0</asrwt>
<pdfrwt beam="1">  1       21 0.95799595E-02 0.45179316E+03</pdfrwt>
<pdfrwt beam="2">  1       21 0.11519611E+00 0.45179316E+03</pdfrwt>
<totfact> 0.46670605E+04</totfact>
</mgrwt>
</event>
<event>
 7    0  0.4691878E-002  0.4554284E+03  0.7546771E-02  0.1026116E+00
         21   -1    0    0  502  501  0.00000000000E+00  0.00000000000E+00  0.43033795468E+03  0.43033795468E+03  0.00000000000E+00 0. -1.
         21   -1    0    0  501  502 -0.00000000000E+00 -0.00000000000E+00 -0.12049540503E+03  0.12049540503E+03  0.00000000000E+00 0. -1.
      99926    2    1    2    0    0 -0.71054273576E-14  0.00000000000E+00  0.30984254965E+03  0.55083335972E+03  0.45542835287E+03 0.  0.
      99925    2    3    3    0    0 -0.57769654379E+02 -0.23599245529E+02  0.80086582421E+02  0.28189178626E+03  0.26297311862E+03 0.  0.
         25    1    4    4    0    0 -0.17633067423E+01 -0.14546967379E+02  0.66078040560E+01  0.12611857391E+03  0.12509000000E+03 0.  0.
         25    1    4    4    0    0 -0.56006347636E+02 -0.90522781496E+01  0.73478778365E+02  0.15577321235E+03  0.12509000000E+03 0.  0.
         25    1    3    3    0    0  0.57769654379E+02  0.23599245529E+02  0.22975596723E+03  0.26894157346E+03  0.12509000000E+03 0.  0.
<mgrwt>
<rscale>  2 0.45542835E+03</rscale>
<asrwt>0</asrwt>
<pdfrwt beam="1">  1       21 0.63284993E-01 0.45542835E+03</pdfrwt>
<pdfrwt beam="2">  1       21 0.17719913E-01 0.45542835E+03</pdfrwt>
<totfact> 0.61602439E+04</totfact>
</mgrwt>
</event>
<event>
 7    0  0.4691878E-002  0.4496074E+03  0.7546771E-02  0.1027839E+00
         21   -1    0    0  502  501  0.00000000000E+00  0.00000000000E+00  0.61532388673E+02  0.61532388673E+02  0.00000000000E+00 0. -1.
         21   -1    0    0  501  502 -0.00000000000E+00 -0.00000000000E+00 -0.82130241502E+03  0.82130241502E+03  0.00000000000E+00 0. -1.
      99926    2    1    2    0    0  0.00000000000E+00  0.00000000000E+00 -0.75977002635E+03  0.88283480370E+03  0.44960738170E+03 0.  0.
      99925    2    3    3    0    0  0.62310819709E+02 -0.10559243934E+02 -0.30843167656E+03  0.41023777664E+03  0.26300341898E+03 0.  0.
         25    1    4    4    0    0  0.33515079177E+02  0.34079339157E+02 -0.13857756975E+03  0.19270680535E+03  0.12509000000E+03 0.  0.
         25    1    4    4    0    0  0.28795740532E+02 -0.44638583090E+02 -0.16985410680E+03  0.21753097129E+03  0.12509000000E+03 0.  0.
         25    1    3    3    0    0 -0.62310819709E+02  0.10559243934E+02 -0.45133834980E+03  0.47259702706E+03  0.12509000000E+03 0.  0.
<mgrwt>
<rscale>  2 0.44960738E+03</rscale>
<asrwt>0</asrwt>
<pdfrwt beam="1">  1       21 0.90488806E-02 0.44960738E+03</pdfrwt>
<pdfrwt beam="2">  1       21 0.12077977E+00 0.44960738E+03</pdfrwt>
<totfact> 0.45891830E+04</totfact>
</mgrwt>
</event>
<event>
 7    0  0.4691878E-002  0.4524025E+03  0.7546771E-02  0.1027008E+00
         21   -1    0    0  502  501  0.00000000000E+00  0.00000000000E+00  0.67773884150E+03  0.67773884150E+03  0.00000000000E+00 0. -1.
         21   -1    0    0  501  502 -0.00000000000E+00 -0.00000000000E+00 -0.75496626338E+02  0.75496626338E+02  0.00000000000E+00 0. -1.
      99926    2    1    2    0    0  0.00000000000E+00 -0.14210854715E-13  0.60224221516E+03  0.75323546784E+03  0.45240245831E+03 0.  0.
      99925    2    3    3    0    0 -0.27005990397E+02  0.70780436903E+02  0.51422154692E+03  0.58254762438E+03  0.26305653688E+03 0.  0.
         25    1    4    4    0    0 -0.13230262970E+02 -0.28412659250E+01  0.27464977817E+03  0.30209786725E+03  0.12509000000E+03 0.  0.
         25    1    4    4    0    0 -0.13775727428E+02  0.73621702828E+02  0.23957176874E+03  0.28044975713E+03  0.12509000000E+03 0.  0.
         25    1    3    3    0    0  0.27005990397E+02 -0.70780436903E+02  0.88020668247E+02  0.17068784346E+03  0.12509000000E+03 0.  0.
<mgrwt>
<rscale>  2 0.45240246E+03</rscale>
<asrwt>0</asrwt>
<pdfrwt beam="1">  1       21 0.99667473E-01 0.45240246E+03</pdfrwt>
<pdfrwt beam="2">  1       21 0.11102445E-01 0.45240246E+03</pdfrwt>
<totfact> 0.51142138E+04</totfact>
</mgrwt>
</event>
<event>
 7    0  0.4691878E-002  0.4214510E+03  0.7546771E-02  0.1036595E+00
         21   -1    0    0  502  501  0.00000000000E+00  0.00000000000E+00  0.23299090250E+03  0.23299090250E+03  0.00000000000E+00 0. -1.
         21   -1    0    0  501  502 -0.00000000000E+00 -0.00000000000E+00 -0.19058788496E+03  0.19058788496E+03  0.00000000000E+00 0. -1.
      99926    2    1    2    0    0  0.00000000000E+00 -0.35527136788E-14  0.42403017543E+02  0.42357878746E+03  0.42145103308E+03 0.  0.
      99925    2    3    3    0    0 -0.75346776010E+02 -0.18509395092E+02  0.24690284167E+02  0.27531893657E+03  0.26300412989E+03 0.  0.
         25    1    4    4    0    0 -0.26137748560E+02 -0.48046733256E+02  0.15080868185E+02  0.13735578314E+03  0.12509000000E+03 0.  0.
         25    1    4    4    0    0 -0.49209027450E+02  0.29537338165E+02  0.96094159816E+01  0.13796315343E+03  0.12509000000E+03 0.  0.
         25    1    3    3    0    0  0.75346776010E+02  0.18509395092E+02  0.17712733376E+02  0.14825985089E+03  0.12509000000E+03 0.  0.
<mgrwt>
<rscale>  2 0.42145103E+03</rscale>
<asrwt>0</asrwt>
<pdfrwt beam="1">  1       21 0.34263368E-01 0.42145103E+03</pdfrwt>
<pdfrwt beam="2">  1       21 0.28027630E-01 0.42145103E+03</pdfrwt>
<totfact> 0.93556351E+04</totfact>
</mgrwt>
</event>
<event>
 7    0  0.4691878E-002  0.4502819E+03  0.7546771E-02  0.1027638E+00
         21   -1    0    0  502  501  0.00000000000E+00  0.00000000000E+00  0.91486108717E+02  0.91486108717E+02  0.00000000000E+00 0. -1.
         21   -1    0    0  501  502 -0.00000000000E+00 -0.00000000000E+00 -0.55405619734E+03  0.55405619734E+03  0.00000000000E+00 0. -1.
      99926    2    1    2    0    0  0.14210854715E-13  0.71054273576E-14 -0.46257008863E+03  0.64554230606E+03  0.45028189173E+03 0.  0.
      99925    2    3    3    0    0  0.92228410097E+02  0.38610969499E+02 -0.35385250149E+03  0.45198634917E+03  0.26283679429E+03 0.  0.
         25    1    4    4    0    0  0.78940604784E+02 -0.36819044216E+01 -0.17256343358E+03  0.22731216908E+03  0.12509000000E+03 0.  0.
         25    1    3    3    0    0 -0.92228410097E+02 -0.38610969499E+02 -0.10871758713E+03  0.19355595689E+03  0.12509000000E+03 0.  0.
         25    1    4    4    0    0  0.13287805313E+02  0.42292873921E+02 -0.18128906791E+03  0.22467418009E+03  0.12509000000E+03 0.  0.
<mgrwt>
<rscale>  2 0.45028189E+03</rscale>
<asrwt>0</asrwt>
<pdfrwt beam="1">  1       21 0.13453840E-01 0.45028189E+03</pdfrwt>
<pdfrwt beam="2">  1       21 0.81478849E-01 0.45028189E+03</pdfrwt>
<totfact> 0.58091468E+04</totfact>
</mgrwt>
</event>
<event>
 7    0  0.4691878E-002  0.4556226E+03  0.7546771E-02  0.1026058E+00
         21   -1    0    0  502  501  0.00000000000E+00  0.00000000000E+00  0.35300767030E+02  0.35300767030E+02  0.00000000000E+00 0.  1.
         21   -1    0    0  501  502 -0.00000000000E+00 -0.00000000000E+00 -0.14701659837E+04  0.14701659837E+04  0.00000000000E+00 0.  1.
      99926    2    1    2    0    0  0.14210854715E-13  0.14210854715E-13 -0.14348652167E+04  0.15054667507E+04  0.45562259332E+03 0.  0.
      99925    2    3    3    0    0  0.84771968722E+02 -0.66784473384E+02 -0.78420318672E+03  0.83415829861E+03  0.26305698340E+03 0.  0.
         25    1    3    3    0    0 -0.84771968722E+02  0.66784473384E+02 -0.65066202996E+03  0.67130845213E+03  0.12509000000E+03 0.  0.
         25    1    4    4    0    0  0.69444278450E+02 -0.67731632489E+02 -0.43975846067E+03  0.46738110111E+03  0.12509000000E+03 0.  0.
         25    1    4    4    0    0  0.15327690272E+02  0.94715910447E+00 -0.34444472605E+03  0.36677719750E+03  0.12509000000E+03 0.  0.
<mgrwt>
<rscale>  2 0.45562259E+03</rscale>
<asrwt>0</asrwt>
<pdfrwt beam="1">  1       21 0.51912886E-02 0.45562259E+03</pdfrwt>
<pdfrwt beam="2">  1       21 0.21620091E+00 0.45562259E+03</pdfrwt>
<totfact> 0.23531449E+04</totfact>
</mgrwt>
</event>
<event>
 7    0  0.4691878E-002  0.4328553E+03  0.7546771E-02  0.1032962E+00
         21   -1    0    0  502  501  0.00000000000E+00  0.00000000000E+00  0.26554398550E+03  0.26554398550E+03  0.00000000000E+00 0.  1.
         21   -1    0    0  501  502 -0.00000000000E+00 -0.00000000000E+00 -0.17639610821E+03  0.17639610821E+03  0.00000000000E+00 0.  1.
      99926    2    1    2    0    0 -0.17763568394E-14  0.14210854715E-13  0.89147877294E+02  0.44194009371E+03  0.43285529038E+03 0.  0.
      99925    2    3    3    0    0  0.38542259320E+01  0.90074507492E+02  0.45730383019E+02  0.28175002265E+03  0.26298961078E+03 0.  0.
         25    1    3    3    0    0 -0.38542259320E+01 -0.90074507492E+02  0.43417494275E+02  0.16019007106E+03  0.12509000000E+03 0.  0.
         25    1    4    4    0    0  0.22057265449E+02  0.17908720932E+02  0.45758724633E+02  0.13619329728E+03  0.12509000000E+03 0.  0.
         25    1    4    4    0    0 -0.18203039517E+02  0.72165786561E+02 -0.28341613415E-01  0.14555672537E+03  0.12509000000E+03 0.  0.
<mgrwt>
<rscale>  2 0.43285529E+03</rscale>
<asrwt>0</asrwt>
<pdfrwt beam="1">  1       21 0.39050587E-01 0.43285529E+03</pdfrwt>
<pdfrwt beam="2">  1       21 0.25940604E-01 0.43285529E+03</pdfrwt>
<totfact> 0.83272081E+04</totfact>
</mgrwt>
</event>
<event>
 7    0  0.4691878E-002  0.4577170E+03  0.7546771E-02  0.1025445E+00
         21   -1    0    0  502  501  0.00000000000E+00  0.00000000000E+00  0.11506885405E+04  0.11506885405E+04  0.00000000000E+00 0. -1.
         21   -1    0    0  501  502 -0.00000000000E+00 -0.00000000000E+00 -0.45517280226E+02  0.45517280226E+02  0.00000000000E+00 0. -1.
      99926    2    1    2    0    0 -0.17763568394E-14  0.00000000000E+00  0.11051712602E+04  0.11962058207E+04  0.45771699881E+03 0.  0.
      99925    2    3    3    0    0  0.11376097631E+02 -0.11501144289E+03  0.70580468404E+03  0.76204200612E+03  0.26304128857E+03 0.  0.
         25    1    3    3    0    0 -0.11376097631E+02  0.11501144289E+03  0.39936657620E+03  0.43416381457E+03  0.12509000000E+03 0.  0.
         25    1    4    4    0    0 -0.91269544579E+01 -0.32441612088E+02  0.24657248940E+03  0.27853412739E+03  0.12509000000E+03 0.  0.
         25    1    4    4    0    0  0.20503052089E+02 -0.82569830804E+02  0.45923219464E+03  0.48350787874E+03  0.12509000000E+03 0.  0.
<mgrwt>
<rscale>  2 0.45771700E+03</rscale>
<asrwt>0</asrwt>
<pdfrwt beam="1">  1       21 0.16921888E+00 0.45771700E+03</pdfrwt>
<pdfrwt beam="2">  1       21 0.66937184E-02 0.45771700E+03</pdfrwt>
<totfact> 0.31602220E+04</totfact>
</mgrwt>
</event>
<event>
 7    0  0.4691878E-002  0.4535685E+03  0.7546771E-02  0.1026663E+00
         21   -1    0    0  502  501  0.00000000000E+00  0.00000000000E+00  0.21675385823E+03  0.21675385823E+03  0.00000000000E+00 0. -1.
         21   -1    0    0  501  502 -0.00000000000E+00 -0.00000000000E+00 -0.23727883878E+03  0.23727883878E+03  0.00000000000E+00 0. -1.
      99926    2    1    2    0    0  0.00000000000E+00  0.00000000000E+00 -0.20524980548E+02  0.45403269701E+03  0.45356853410E+03 0.  0.
      99925    2    3    3    0    0 -0.74501211432E+02 -0.61449978762E+02  0.42776836188E+02  0.28379416290E+03  0.26340603407E+03 0.  0.
         25    1    4    4    0    0 -0.44828216301E+02 -0.59736920661E+02  0.52484806176E+02  0.15485551862E+03  0.12509000000E+03 0.  0.
         25    1    4    4    0    0 -0.29672995130E+02 -0.17130581007E+01 -0.97079699878E+01  0.12893864428E+03  0.12509000000E+03 0.  0.
         25    1    3    3    0    0  0.74501211432E+02  0.61449978762E+02 -0.63301816737E+02  0.17023853411E+03  0.12509000000E+03 0.  0.
<mgrwt>
<rscale>  2 0.45356853E+03</rscale>
<asrwt>0</asrwt>
<pdfrwt beam="1">  1       21 0.31875568E-01 0.45356853E+03</pdfrwt>
<pdfrwt beam="2">  1       21 0.34893947E-01 0.45356853E+03</pdfrwt>
<totfact> 0.69406078E+04</totfact>
</mgrwt>
</event>
<event>
 7    0  0.4691878E-002  0.4545466E+03  0.7546771E-02  0.1026375E+00
         21   -1    0    0  502  501  0.00000000000E+00  0.00000000000E+00  0.32637886976E+03  0.32637886976E+03  0.00000000000E+00 0. -1.
         21   -1    0    0  501  502 -0.00000000000E+00 -0.00000000000E+00 -0.15826130674E+03  0.15826130674E+03  0.00000000000E+00 0. -1.
      99926    2    1    2    0    0  0.17763568394E-14 -0.14210854715E-13  0.16811756302E+03  0.48464017650E+03  0.45454657152E+03 0.  0.
      99925    2    3    3    0    0  0.44209249414E+01 -0.10869424361E+03  0.73982749606E+02  0.29400215729E+03  0.26292553714E+03 0.  0.
         25    1    4    4    0    0  0.22827847219E+02 -0.91112031596E+02  0.49027910901E+02  0.16393217212E+03  0.12509000000E+03 0.  0.
         25    1    4    4    0    0 -0.18406922277E+02 -0.17582212012E+02  0.24954838705E+02  0.13006998517E+03  0.12509000000E+03 0.  0.
         25    1    3    3    0    0 -0.44209249414E+01  0.10869424361E+03  0.94134813410E+02  0.19063801921E+03  0.12509000000E+03 0.  0.
<mgrwt>
<rscale>  2 0.45454657E+03</rscale>
<asrwt>0</asrwt>
<pdfrwt beam="1">  1       21 0.47996893E-01 0.45454657E+03</pdfrwt>
<pdfrwt beam="2">  1       21 0.23273722E-01 0.45454657E+03</pdfrwt>
<totfact> 0.66603267E+04</totfact>
</mgrwt>
</event>
<event>
 7    0  0.4691878E-002  0.4551380E+03  0.7546771E-02  0.1026201E+00
         21   -1    0    0  502  501  0.00000000000E+00  0.00000000000E+00  0.80055582304E+03  0.80055582304E+03  0.00000000000E+00 0.  1.
         21   -1    0    0  501  502 -0.00000000000E+00 -0.00000000000E+00 -0.64689616380E+02  0.64689616380E+02  0.00000000000E+00 0.  1.
      99926    2    1    2    0    0  0.17763568394E-14  0.00000000000E+00  0.73586620666E+03  0.86524543942E+03  0.45513799702E+03 0.  0.
      99925    2    3    3    0    0  0.14526637638E+02 -0.16548701697E+02  0.25158612662E+03  0.36458628715E+03  0.26294999323E+03 0.  0.
         25    1    4    4    0    0  0.24219892796E+02  0.16960767894E+02  0.16210040333E+03  0.20687754763E+03  0.12509000000E+03 0.  0.
         25    1    4    4    0    0 -0.96932551580E+01 -0.33509469591E+02  0.89485723296E+02  0.15770873952E+03  0.12509000000E+03 0.  0.
         25    1    3    3    0    0 -0.14526637638E+02  0.16548701697E+02  0.48428008004E+03  0.50065915227E+03  0.12509000000E+03 0.  0.
<mgrwt>
<rscale>  2 0.45513800E+03</rscale>
<asrwt>0</asrwt>
<pdfrwt beam="1">  1       21 0.11772879E+00 0.45513800E+03</pdfrwt>
<pdfrwt beam="2">  1       21 0.95131793E-02 0.45513800E+03</pdfrwt>
<totfact> 0.44716407E+04</totfact>
</mgrwt>
</event>
<event>
 7    0  0.4691878E-002  0.4643586E+03  0.7546771E-02  0.1023525E+00
         21   -1    0    0  502  501  0.00000000000E+00  0.00000000000E+00  0.14682332537E+03  0.14682332537E+03  0.00000000000E+00 0.  1.
         21   -1    0    0  501  502 -0.00000000000E+00 -0.00000000000E+00 -0.36715713801E+03  0.36715713801E+03  0.00000000000E+00 0.  1.
      99926    2    1    2    0    0  0.00000000000E+00  0.00000000000E+00 -0.22033381264E+03  0.51398046339E+03  0.46435861976E+03 0.  0.
      99925    2    3    3    0    0  0.85401065782E+02 -0.12542456043E+02 -0.23245575739E+03  0.36151700913E+03  0.26307453983E+03 0.  0.
         25    1    4    4    0    0  0.56439743386E+02 -0.40257845634E+02 -0.14529821765E+03  0.20387549858E+03  0.12509000000E+03 0.  0.
         25    1    4    4    0    0  0.28961322396E+02  0.27715389590E+02 -0.87157539734E+02  0.15764151055E+03  0.12509000000E+03 0.  0.
         25    1    3    3    0    0 -0.85401065782E+02  0.12542456043E+02  0.12121944742E+02  0.15246345426E+03  0.12509000000E+03 0.  0.
<mgrwt>
<rscale>  2 0.46435862E+03</rscale>
<asrwt>0</asrwt>
<pdfrwt beam="1">  1       21 0.21591666E-01 0.46435862E+03</pdfrwt>
<pdfrwt beam="2">  1       21 0.53993696E-01 0.46435862E+03</pdfrwt>
<totfact> 0.59737386E+04</totfact>
</mgrwt>
</event>
<event>
 6    0  0.4691878E-002  0.4532959E+03  0.7546771E-02  0.1026744E+00
         21   -1    0    0  502  501  0.00000000000E+00  0.00000000000E+00  0.64653955259E+02  0.64653955259E+02  0.00000000000E+00 0. -1.
         21   -1    0    0  501  502 -0.00000000000E+00 -0.00000000000E+00 -0.79452682044E+03  0.79452682044E+03  0.00000000000E+00 0. -1.
      99926    2    1    2    0    0  0.00000000000E+00  0.88817841970E-15 -0.72987286518E+03  0.85918077570E+03  0.45329593645E+03 0.  0.
         25    1    3    3    0    0  0.95005495789E+02  0.62429682910E+01 -0.38968540216E+03  0.42019904764E+03  0.12509000000E+03 0.  0.
         25    1    3    3    0    0 -0.33462173389E+02 -0.36840643416E+02 -0.15945169007E+03  0.20868468948E+03  0.12509000000E+03 0.  0.
         25    1    3    3    0    0 -0.61543322400E+02  0.30597675125E+02 -0.18073577295E+03  0.23029703858E+03  0.12509000000E+03 0.  0.
<mgrwt>
<rscale>  2 0.45329594E+03</rscale>
<asrwt>0</asrwt>
<pdfrwt beam="1">  1       21 0.95079348E-02 0.45329594E+03</pdfrwt>
<pdfrwt beam="2">  1       21 0.11684218E+00 0.45329594E+03</pdfrwt>
<totfact> 0.45638366E+04</totfact>
</mgrwt>
</event>
<event>
 7    0  0.4691878E-002  0.4620358E+03  0.7546771E-02  0.1024192E+00
         21   -1    0    0  502  501  0.00000000000E+00  0.00000000000E+00  0.69291084160E+03  0.69291084160E+03  0.00000000000E+00 0. -1.
         21   -1    0    0  501  502 -0.00000000000E+00 -0.00000000000E+00 -0.77021827343E+02  0.77021827343E+02  0.00000000000E+00 0. -1.
      99926    2    1    2    0    0  0.00000000000E+00  0.00000000000E+00  0.61588901425E+03  0.76993266894E+03  0.46203575275E+03 0.  0.
      99925    2    3    3    0    0  0.10596848761E+03  0.32869451915E+02  0.30945903949E+03  0.42085308092E+03  0.26275977121E+03 0.  0.
         25    1    4    4    0    0  0.67129379235E+02 -0.10531762949E+02  0.19583253603E+03  0.24210568323E+03  0.12509000000E+03 0.  0.
         25    1    3    3    0    0 -0.10596848761E+03 -0.32869451915E+02  0.30642997476E+03  0.34907958802E+03  0.12509000000E+03 0.  0.
         25    1    4    4    0    0  0.38839108379E+02  0.43401214864E+02  0.11362650346E+03  0.17874739769E+03  0.12509000000E+03 0.  0.
<mgrwt>
<rscale>  2 0.46203575E+03</rscale>
<asrwt>0</asrwt>
<pdfrwt beam="1">  1       21 0.10189865E+00 0.46203575E+03</pdfrwt>
<pdfrwt beam="2">  1       21 0.11326740E-01 0.46203575E+03</pdfrwt>
<totfact> 0.46624504E+04</totfact>
</mgrwt>
</event>
<event>
 7    0  0.4691878E-002  0.4452644E+03  0.7546771E-02  0.1029144E+00
         21   -1    0    0  502  501  0.00000000000E+00  0.00000000000E+00  0.87998760295E+02  0.87998760295E+02  0.00000000000E+00 0. -1.
         21   -1    0    0  501  502 -0.00000000000E+00 -0.00000000000E+00 -0.56324779358E+03  0.56324779358E+03  0.00000000000E+00 0. -1.
      99926    2    1    2    0    0  0.00000000000E+00  0.00000000000E+00 -0.47524903328E+03  0.65124655387E+03  0.44526444984E+03 0.  0.
      99925    2    3    3    0    0  0.74045362124E+02  0.54868150537E+02 -0.37184083073E+03  0.46460788143E+03  0.26287192793E+03 0.  0.
         25    1    3    3    0    0 -0.74045362124E+02 -0.54868150537E+02 -0.10340820255E+03  0.18663867244E+03  0.12509000000E+03 0.  0.
         25    1    4    4    0    0  0.47800458179E+02  0.45543428211E+02 -0.13612580569E+03  0.19630799966E+03  0.12509000000E+03 0.  0.
         25    1    4    4    0    0  0.26244903945E+02  0.93247223258E+01 -0.23571502504E+03  0.26829988177E+03  0.12509000000E+03 0.  0.
<mgrwt>
<rscale>  2 0.44526445E+03</rscale>
<asrwt>0</asrwt>
<pdfrwt beam="1">  1       21 0.12940994E-01 0.44526445E+03</pdfrwt>
<pdfrwt beam="2">  1       21 0.82830561E-01 0.44526445E+03</pdfrwt>
<totfact> 0.60114866E+04</totfact>
</mgrwt>
</event>
<event>
 7    0  0.4691878E-002  0.4503509E+03  0.7546771E-02  0.1027617E+00
         21   -1    0    0  502  501  0.00000000000E+00  0.00000000000E+00  0.15035786246E+03  0.15035786246E+03  0.00000000000E+00 0.  1.
         21   -1    0    0  501  502 -0.00000000000E+00 -0.00000000000E+00 -0.33722207860E+03  0.33722207860E+03  0.00000000000E+00 0.  1.
      99926    2    1    2    0    0  0.00000000000E+00 -0.14210854715E-13 -0.18686421614E+03  0.48757994106E+03  0.45035093388E+03 0.  0.
      99925    2    3    3    0    0  0.27463857387E+02 -0.93626725527E+02 -0.17004804353E+03  0.32804775322E+03  0.26301856225E+03 0.  0.
         25    1    4    4    0    0  0.22453532687E+02 -0.89084454304E+02 -0.97425609262E+02  0.18324698789E+03  0.12509000000E+03 0.  0.
         25    1    3    3    0    0 -0.27463857387E+02  0.93626725527E+02 -0.16816172603E+02  0.15953218784E+03  0.12509000000E+03 0.  0.
         25    1    4    4    0    0  0.50103246993E+01 -0.45422712224E+01 -0.72622434272E+02  0.14480076533E+03  0.12509000000E+03 0.  0.
<mgrwt>
<rscale>  2 0.45035093E+03</rscale>
<asrwt>0</asrwt>
<pdfrwt beam="1">  1       21 0.22111451E-01 0.45035093E+03</pdfrwt>
<pdfrwt beam="2">  1       21 0.49591482E-01 0.45035093E+03</pdfrwt>
<totfact> 0.68651311E+04</totfact>
</mgrwt>
</event>
<event>
 7    0  0.4691878E-002  0.4343646E+03  0.7546771E-02  0.1032490E+00
         21   -1    0    0  502  501  0.00000000000E+00  0.00000000000E+00  0.26170501456E+03  0.26170501456E+03  0.00000000000E+00 0. -1.
         21   -1    0    0  501  502 -0.00000000000E+00 -0.00000000000E+00 -0.18023401621E+03  0.18023401621E+03  0.00000000000E+00 0. -1.
      99926    2    1    2    0    0 -0.14210854715E-13  0.44408920985E-15  0.81470998352E+02  0.44193903076E+03  0.43436457422E+03 0.  0.
      99925    2    3    3    0    0  0.92448061819E+02 -0.35485683731E+01  0.53085818397E+02  0.28378574116E+03  0.26297719730E+03 0.  0.
         25    1    4    4    0    0  0.18681274442E+02  0.31357025227E+01  0.56061824794E+02  0.13838084746E+03  0.12509000000E+03 0.  0.
         25    1    3    3    0    0 -0.92448061819E+02  0.35485683731E+01  0.28385179955E+02  0.15815328960E+03  0.12509000000E+03 0.  0.
         25    1    4    4    0    0  0.73766787376E+02 -0.66842708958E+01 -0.29760063967E+01  0.14540489370E+03  0.12509000000E+03 0.  0.
<mgrwt>
<rscale>  2 0.43436457E+03</rscale>
<asrwt>0</asrwt>
<pdfrwt beam="1">  1       21 0.38486032E-01 0.43436457E+03</pdfrwt>
<pdfrwt beam="2">  1       21 0.26505002E-01 0.43436457E+03</pdfrwt>
<totfact> 0.82235343E+04</totfact>
</mgrwt>
</event>
<event>
 7    0  0.4691878E-002  0.4385315E+03  0.7546771E-02  0.1031198E+00
         21   -1    0    0  502  501  0.00000000000E+00  0.00000000000E+00  0.12767246628E+03  0.12767246628E+03  0.00000000000E+00 0. -1.
         21   -1    0    0  501  502 -0.00000000000E+00 -0.00000000000E+00 -0.37656875355E+03  0.37656875355E+03  0.00000000000E+00 0. -1.
      99926    2    1    2    0    0  0.35527136788E-14  0.71054273576E-14 -0.24889628727E+03  0.50424121984E+03  0.43853146519E+03 0.  0.
      99925    2    3    3    0    0 -0.24889027442E+02 -0.49474401133E+02 -0.67363222986E+02  0.27693318746E+03  0.26284407250E+03 0.  0.
         25    1    4    4    0    0 -0.36032955945E+02 -0.24359314338E+01 -0.57903610539E+02  0.14249436441E+03  0.12509000000E+03 0.  0.
         25    1    4    4    0    0  0.11143928502E+02 -0.47038469699E+02 -0.94596124468E+01  0.13443882305E+03  0.12509000000E+03 0.  0.
         25    1    3    3    0    0  0.24889027442E+02  0.49474401133E+02 -0.18153306429E+03  0.22730803238E+03  0.12509000000E+03 0.  0.
<mgrwt>
<rscale>  2 0.43853147E+03</rscale>
<asrwt>0</asrwt>
<pdfrwt beam="1">  1       21 0.18775363E-01 0.43853147E+03</pdfrwt>
<pdfrwt beam="2">  1       21 0.55377757E-01 0.43853147E+03</pdfrwt>
<totfact> 0.74207421E+04</totfact>
</mgrwt>
</event>
<event>
 7    0  0.4691878E-002  0.4533800E+03  0.7546771E-02  0.1026719E+00
         21   -1    0    0  502  501  0.00000000000E+00  0.00000000000E+00  0.15171032784E+04  0.15171032784E+04  0.00000000000E+00 0.  1.
         21   -1    0    0  501  502 -0.00000000000E+00 -0.00000000000E+00 -0.33872680102E+02  0.33872680102E+02  0.00000000000E+00 0.  1.
      99926    2    1    2    0    0 -0.71054273576E-14  0.00000000000E+00  0.14832305983E+04  0.15509759585E+04  0.45337999088E+03 0.  0.
      99925    2    3    3    0    0 -0.62656897092E+02  0.43458158278E+02  0.65565233702E+03  0.71053096631E+03  0.26298244953E+03 0.  0.
         25    1    4    4    0    0  0.17421717925E+01  0.44684364674E+02  0.30259777552E+03  0.33047337178E+03  0.12509000000E+03 0.  0.
         25    1    4    4    0    0 -0.64399068884E+02 -0.12262063956E+01  0.35305456150E+03  0.38005759452E+03  0.12509000000E+03 0.  0.
         25    1    3    3    0    0  0.62656897092E+02 -0.43458158278E+02  0.82757826128E+03  0.84044499220E+03  0.12509000000E+03 0.  0.
<mgrwt>
<rscale>  2 0.45337999E+03</rscale>
<asrwt>0</asrwt>
<pdfrwt beam="1">  1       21 0.22310338E+00 0.45337999E+03</pdfrwt>
<pdfrwt beam="2">  1       21 0.49812775E-02 0.45337999E+03</pdfrwt>
<totfact> 0.22843068E+04</totfact>
</mgrwt>
</event>
<event>
 7    0  0.4691878E-002  0.4517377E+03  0.7546771E-02  0.1027205E+00
         21   -1    0    0  502  501  0.00000000000E+00  0.00000000000E+00  0.35997335900E+02  0.35997335900E+02  0.00000000000E+00 0. -1.
         21   -1    0    0  501  502 -0.00000000000E+00 -0.00000000000E+00 -0.14172364601E+04  0.14172364601E+04  0.00000000000E+00 0. -1.
      99926    2    1    2    0    0  0.56205040622E-15  0.00000000000E+00 -0.13812391242E+04  0.14532337960E+04  0.45173769781E+03 0.  0.
      99925    2    3    3    0    0  0.34349012161E-01  0.10386961785E+03 -0.99023978503E+03  0.10297755454E+04  0.26281922173E+03 0.  0.
         25    1    4    4    0    0  0.16889493546E+02  0.60689608412E+02 -0.37654222704E+03  0.40174623882E+03  0.12509000000E+03 0.  0.
         25    1    3    3    0    0 -0.34349012161E-01 -0.10386961785E+03 -0.39099933920E+03  0.42345825065E+03  0.12509000000E+03 0.  0.
         25    1    4    4    0    0 -0.16855144533E+02  0.43180009435E+02 -0.61369755799E+03  0.62802930656E+03  0.12509000000E+03 0.  0.
<mgrwt>
<rscale>  2 0.45173770E+03</rscale>
<asrwt>0</asrwt>
<pdfrwt beam="1">  1       21 0.52937258E-02 0.45173770E+03</pdfrwt>
<pdfrwt beam="2">  1       21 0.20841713E+00 0.45173770E+03</pdfrwt>
<totfact> 0.25589744E+04</totfact>
</mgrwt>
</event>
<event>
 7    0  0.4691878E-002  0.4591154E+03  0.7546771E-02  0.1025038E+00
         21   -1    0    0  502  501  0.00000000000E+00  0.00000000000E+00  0.72111935951E+03  0.72111935951E+03  0.00000000000E+00 0. -1.
         21   -1    0    0  501  502 -0.00000000000E+00 -0.00000000000E+00 -0.73076307185E+02  0.73076307185E+02  0.00000000000E+00 0. -1.
      99926    2    1    2    0    0 -0.14210854715E-13  0.00000000000E+00  0.64804305233E+03  0.79419566670E+03  0.45911540960E+03 0.  0.
      99925    2    3    3    0    0  0.94982909638E+02  0.42419444290E+02  0.31370436272E+03  0.42237443297E+03  0.26299918643E+03 0.  0.
         25    1    4    4    0    0  0.11147214414E+02 -0.68424513859E+00  0.15338408517E+03  0.19823953759E+03  0.12509000000E+03 0.  0.
         25    1    3    3    0    0 -0.94982909638E+02 -0.42419444290E+02  0.33433868961E+03  0.37182123373E+03  0.12509000000E+03 0.  0.
         25    1    4    4    0    0  0.83835695224E+02  0.43103689428E+02  0.16032027755E+03  0.22413489539E+03  0.12509000000E+03 0.  0.
<mgrwt>
<rscale>  2 0.45911541E+03</rscale>
<asrwt>0</asrwt>
<pdfrwt beam="1">  1       21 0.10604696E+00 0.45911541E+03</pdfrwt>
<pdfrwt beam="2">  1       21 0.10746516E-01 0.45911541E+03</pdfrwt>
<totfact> 0.46525845E+04</totfact>
</mgrwt>
</event>
<event>
 7    0  0.4691878E-002  0.4524529E+03  0.7546771E-02  0.1026993E+00
         21   -1    0    0  502  501  0.00000000000E+00  0.00000000000E+00  0.24262844008E+04  0.24262844008E+04  0.00000000000E+00 0. -1.
         21   -1    0    0  501  502 -0.00000000000E+00 -0.00000000000E+00 -0.21093324635E+02  0.21093324635E+02  0.00000000000E+00 0. -1.
      99926    2    1    2    0    0  0.00000000000E+00 -0.35527136788E-14  0.24051910761E+04  0.24473777254E+04  0.45245289046E+03 0.  0.
      99925    2    3    3    0    0 -0.10436650207E+02  0.13102997765E+02  0.21096614425E+04  0.21260276287E+04  0.26275742358E+03 0.  0.
         25    1    4    4    0    0  0.10578764836E+02  0.36129693382E+02  0.88301813241E+03  0.89262858753E+03  0.12509000000E+03 0.  0.
         25    1    4    4    0    0 -0.21015415043E+02 -0.23026695617E+02  0.12266433101E+04  0.12333990412E+04  0.12509000000E+03 0.  0.
         25    1    3    3    0    0  0.10436650207E+02 -0.13102997765E+02  0.29552963361E+03  0.32135009671E+03  0.12509000000E+03 0.  0.
<mgrwt>
<rscale>  2 0.45245289E+03</rscale>
<asrwt>0</asrwt>
<pdfrwt beam="1">  1       21 0.35680634E+00 0.45245289E+03</pdfrwt>
<pdfrwt beam="2">  1       21 0.31019612E-02 0.45245289E+03</pdfrwt>
<totfact> 0.78394674E+03</totfact>
</mgrwt>
</event>
<event>
 7    0  0.4691878E-002  0.4555501E+03  0.7546771E-02  0.1026080E+00
         21   -1    0    0  502  501  0.00000000000E+00  0.00000000000E+00  0.84574145993E+02  0.84574145993E+02  0.00000000000E+00 0.  1.
         21   -1    0    0  501  502 -0.00000000000E+00 -0.00000000000E+00 -0.61344365913E+03  0.61344365913E+03  0.00000000000E+00 0.  1.
      99926    2    1    2    0    0 -0.71054273576E-14  0.00000000000E+00 -0.52886951314E+03  0.69801780512E+03  0.45555010080E+03 0.  0.
      99925    2    3    3    0    0 -0.33638515495E+02  0.57053587452E+02 -0.19021549154E+03  0.33097459784E+03  0.26263204228E+03 0.  0.
         25    1    3    3    0    0  0.33638515495E+02 -0.57053587452E+02 -0.33865402160E+03  0.36704320728E+03  0.12509000000E+03 0.  0.
         25    1    4    4    0    0 -0.11224593186E+02  0.68689638895E+02 -0.10485242863E+03  0.17744237902E+03  0.12509000000E+03 0.  0.
         25    1    4    4    0    0 -0.22413922309E+02 -0.11636051443E+02 -0.85363062909E+02  0.15353221882E+03  0.12509000000E+03 0.  0.
<mgrwt>
<rscale>  2 0.45555010E+03</rscale>
<asrwt>0</asrwt>
<pdfrwt beam="1">  1       21 0.12437374E-01 0.45555010E+03</pdfrwt>
<pdfrwt beam="2">  1       21 0.90212303E-01 0.45555010E+03</pdfrwt>
<totfact> 0.52781831E+04</totfact>
</mgrwt>
</event>
<event>
 7    0  0.4691878E-002  0.4563594E+03  0.7546771E-02  0.1025842E+00
         21   -1    0    0  502  501  0.00000000000E+00  0.00000000000E+00  0.29102746828E+02  0.29102746828E+02  0.00000000000E+00 0. -1.
         21   -1    0    0  501  502 -0.00000000000E+00 -0.00000000000E+00 -0.17890398036E+04  0.17890398036E+04  0.00000000000E+00 0. -1.
      99926    2    1    2    0    0  0.28865798640E-14  0.00000000000E+00 -0.17599370568E+04  0.18181425505E+04  0.45635938676E+03 0.  0.
      99925    2    3    3    0    0  0.11267326057E+01  0.10074871454E+03 -0.13222346485E+04  0.13518996102E+04  0.26301429118E+03 0.  0.
         25    1    4    4    0    0 -0.30687680626E+02  0.23865956520E+02 -0.57896097749E+03  0.59359467583E+03  0.12509000000E+03 0.  0.
         25    1    4    4    0    0  0.31814413232E+02  0.76882758015E+02 -0.74327367102E+03  0.75830493438E+03  0.12509000000E+03 0.  0.
         25    1    3    3    0    0 -0.11267326057E+01 -0.10074871454E+03 -0.43770240832E+03  0.46624294027E+03  0.12509000000E+03 0.  0.
<mgrwt>
<rscale>  2 0.45635939E+03</rscale>
<asrwt>0</asrwt>
<pdfrwt beam="1">  1       21 0.42798163E-02 0.45635939E+03</pdfrwt>
<pdfrwt beam="2">  1       21 0.26309405E+00 0.45635939E+03</pdfrwt>
<totfact> 0.16736146E+04</totfact>
</mgrwt>
</event>
<event>
 7    0  0.4691878E-002  0.4643816E+03  0.7546771E-02  0.1023518E+00
         21   -1    0    0  502  501  0.00000000000E+00  0.00000000000E+00  0.30217082166E+03  0.30217082166E+03  0.00000000000E+00 0.  1.
         21   -1    0    0  501  502 -0.00000000000E+00 -0.00000000000E+00 -0.17841753494E+03  0.17841753494E+03  0.00000000000E+00 0.  1.
      99926    2    1    2    0    0  0.00000000000E+00 -0.35527136788E-14  0.12375328672E+03  0.48058835660E+03  0.46438162380E+03 0.  0.
      99925    2    3    3    0    0  0.51753447584E+02 -0.30194856226E+02 -0.32525157575E+02  0.27163714475E+03  0.26294239646E+03 0.  0.
         25    1    3    3    0    0 -0.51753447584E+02  0.30194856226E+02  0.15627844429E+03  0.20895121184E+03  0.12509000000E+03 0.  0.
         25    1    4    4    0    0  0.26890126750E+02 -0.55673316625E+02 -0.20349560593E+02  0.14101138187E+03  0.12509000000E+03 0.  0.
         25    1    4    4    0    0  0.24863320834E+02  0.25478460399E+02 -0.12175596982E+02  0.13062576288E+03  0.12509000000E+03 0.  0.
<mgrwt>
<rscale>  2 0.46438162E+03</rscale>
<asrwt>0</asrwt>
<pdfrwt beam="1">  1       21 0.44436886E-01 0.46438162E+03</pdfrwt>
<pdfrwt beam="2">  1       21 0.26237873E-01 0.46438162E+03</pdfrwt>
<totfact> 0.61917521E+04</totfact>
</mgrwt>
</event>
<event>
 7    0  0.4691878E-002  0.4557011E+03  0.7546771E-02  0.1026035E+00
         21   -1    0    0  502  501  0.00000000000E+00  0.00000000000E+00  0.27352335698E+03  0.27352335698E+03  0.00000000000E+00 0. -1.
         21   -1    0    0  501  502 -0.00000000000E+00 -0.00000000000E+00 -0.18980419349E+03  0.18980419349E+03  0.00000000000E+00 0. -1.
      99926    2    1    2    0    0  0.35527136788E-14  0.17763568394E-14  0.83719163487E+02  0.46332755047E+03  0.45570113089E+03 0.  0.
      99925    2    3    3    0    0  0.24665555839E+02 -0.12487796311E+02 -0.59583436004E+02  0.27111028324E+03  0.26303282139E+03 0.  0.
         25    1    3    3    0    0 -0.24665555839E+02  0.12487796311E+02  0.14330259949E+03  0.19221726723E+03  0.12509000000E+03 0.  0.
         25    1    4    4    0    0  0.52424453752E+02 -0.86672328401E+01 -0.23361576512E+02  0.13790110817E+03  0.12509000000E+03 0.  0.
         25    1    4    4    0    0 -0.27758897913E+02 -0.38205634707E+01 -0.36221859491E+02  0.13320917507E+03  0.12509000000E+03 0.  0.
<mgrwt>
<rscale>  2 0.45570113E+03</rscale>
<asrwt>0</asrwt>
<pdfrwt beam="1">  1       21 0.40224023E-01 0.45570113E+03</pdfrwt>
<pdfrwt beam="2">  1       21 0.27912381E-01 0.45570113E+03</pdfrwt>
<totfact> 0.67557153E+04</totfact>
</mgrwt>
</event>
<event>
 7    0  0.4691878E-002  0.4488506E+03  0.7546771E-02  0.1028065E+00
         21   -1    0    0  502  501  0.00000000000E+00  0.00000000000E+00  0.22078199867E+03  0.22078199867E+03  0.00000000000E+00 0.  1.
         21   -1    0    0  501  502 -0.00000000000E+00 -0.00000000000E+00 -0.22812875164E+03  0.22812875164E+03  0.00000000000E+00 0.  1.
      99926    2    1    2    0    0  0.14210854715E-13 -0.14210854715E-13 -0.73467529725E+01  0.44891075031E+03  0.44885062879E+03 0.  0.
      99925    2    3    3    0    0 -0.64250822727E+02  0.83710764802E+02 -0.23115550056E+02  0.28449717597E+03  0.26318938831E+03 0.  0.
         25    1    4    4    0    0  0.68377683745E+01  0.27279994201E+02 -0.21082690790E+02  0.12993437232E+03  0.12509000000E+03 0.  0.
         25    1    3    3    0    0  0.64250822727E+02 -0.83710764802E+02  0.15768797084E+02  0.16441357434E+03  0.12509000000E+03 0.  0.
         25    1    4    4    0    0 -0.71088591101E+02  0.56430770600E+02 -0.20328592658E+01  0.15456280365E+03  0.12509000000E+03 0.  0.
<mgrwt>
<rscale>  2 0.44885063E+03</rscale>
<asrwt>0</asrwt>
<pdfrwt beam="1">  1       21 0.32467941E-01 0.44885063E+03</pdfrwt>
<pdfrwt beam="2">  1       21 0.33548346E-01 0.44885063E+03</pdfrwt>
<totfact> 0.72486019E+04</totfact>
</mgrwt>
</event>
<event>
 7    0  0.4691878E-002  0.4662144E+03  0.7546771E-02  0.1022994E+00
         21   -1    0    0  502  501  0.00000000000E+00  0.00000000000E+00  0.50225355890E+03  0.50225355890E+03  0.00000000000E+00 0.  1.
         21   -1    0    0  501  502 -0.00000000000E+00 -0.00000000000E+00 -0.10819029886E+03  0.10819029886E+03  0.00000000000E+00 0.  1.
      99926    2    1    2    0    0  0.00000000000E+00  0.00000000000E+00  0.39406326004E+03  0.61044385776E+03  0.46621438262E+03 0.  0.
      99925    2    3    3    0    0 -0.84682156457E+02  0.19838120516E+02  0.36030340295E+03  0.45439304969E+03  0.26284954401E+03 0.  0.
         25    1    3    3    0    0  0.84682156457E+02 -0.19838120516E+02  0.33759857090E+02  0.15605080807E+03  0.12509000000E+03 0.  0.
         25    1    4    4    0    0 -0.73024880132E+01  0.25626131725E+02  0.19322952778E+03  0.23172221185E+03  0.12509000000E+03 0.  0.
         25    1    4    4    0    0 -0.77379668443E+02 -0.57880112094E+01  0.16707387517E+03  0.22267083785E+03  0.12509000000E+03 0.  0.
<mgrwt>
<rscale>  2 0.46621438E+03</rscale>
<asrwt>0</asrwt>
<pdfrwt beam="1">  1       21 0.73860816E-01 0.46621438E+03</pdfrwt>
<pdfrwt beam="2">  1       21 0.15910338E-01 0.46621438E+03</pdfrwt>
<totfact> 0.53170899E+04</totfact>
</mgrwt>
</event>
<event>
 7    0  0.4691878E-002  0.4547315E+03  0.7546771E-02  0.1026320E+00
         21   -1    0    0  502  501  0.00000000000E+00  0.00000000000E+00  0.79443041043E+03  0.79443041043E+03  0.00000000000E+00 0. -1.
         21   -1    0    0  501  502 -0.00000000000E+00 -0.00000000000E+00 -0.65072011690E+02  0.65072011690E+02  0.00000000000E+00 0. -1.
      99926    2    1    2    0    0  0.14210854715E-13  0.00000000000E+00  0.72935839874E+03  0.85950242212E+03  0.45473150300E+03 0.  0.
      99925    2    3    3    0    0 -0.68496632541E+02  0.59163134510E+02  0.58665007726E+03  0.64925200411E+03  0.26301670391E+03 0.  0.
         25    1    3    3    0    0  0.68496632541E+02 -0.59163134510E+02  0.14270832148E+03  0.21025041801E+03  0.12509000000E+03 0.  0.
         25    1    4    4    0    0 -0.64257984027E+02  0.29085785375E+02  0.37467431199E+03  0.40125231412E+03  0.12509000000E+03 0.  0.
         25    1    4    4    0    0 -0.42386485140E+01  0.30077349135E+02  0.21197576528E+03  0.24799968999E+03  0.12509000000E+03 0.  0.
<mgrwt>
<rscale>  2 0.45473150E+03</rscale>
<asrwt>0</asrwt>
<pdfrwt beam="1">  1       21 0.11682800E+00 0.45473150E+03</pdfrwt>
<pdfrwt beam="2">  1       21 0.95694140E-02 0.45473150E+03</pdfrwt>
<totfact> 0.45112152E+04</totfact>
</mgrwt>
</event>
<event>
 7    0  0.4691878E-002  0.4481364E+03  0.7546771E-02  0.1028279E+00
         21   -1    0    0  502  501  0.00000000000E+00  0.00000000000E+00  0.31934787248E+03  0.31934787248E+03  0.00000000000E+00 0. -1.
         21   -1    0    0  501  502 -0.00000000000E+00 -0.00000000000E+00 -0.15721590098E+03  0.15721590098E+03  0.00000000000E+00 0. -1.
      99926    2    1    2    0    0  0.00000000000E+00  0.00000000000E+00  0.16213197150E+03  0.47656377346E+03  0.44813642341E+03 0.  0.
      99925    2    3    3    0    0 -0.25990972496E+02 -0.97308720390E+02  0.65579866106E+02  0.28917558047E+03  0.26301574057E+03 0.  0.
         25    1    3    3    0    0  0.25990972496E+02  0.97308720390E+02  0.96552105398E+02  0.18738819299E+03  0.12509000000E+03 0.  0.
         25    1    4    4    0    0  0.15007981206E+02 -0.18539786139E+02  0.18311527402E+02  0.12865373413E+03  0.12509000000E+03 0.  0.
         25    1    4    4    0    0 -0.40998953702E+02 -0.78768934251E+02  0.47268338704E+02  0.16052184634E+03  0.12509000000E+03 0.  0.
<mgrwt>
<rscale>  2 0.44813642E+03</rscale>
<asrwt>0</asrwt>
<pdfrwt beam="1">  1       21 0.46962923E-01 0.44813642E+03</pdfrwt>
<pdfrwt beam="2">  1       21 0.23119985E-01 0.44813642E+03</pdfrwt>
<totfact> 0.70726431E+04</totfact>
</mgrwt>
</event>
<event>
 7    0  0.4691878E-002  0.4560479E+03  0.7546771E-02  0.1025934E+00
         21   -1    0    0  502  501  0.00000000000E+00  0.00000000000E+00  0.53406173617E+02  0.53406173617E+02  0.00000000000E+00 0. -1.
         21   -1    0    0  501  502 -0.00000000000E+00 -0.00000000000E+00 -0.97357532130E+03  0.97357532130E+03  0.00000000000E+00 0. -1.
      99926    2    1    2    0    0  0.00000000000E+00  0.00000000000E+00 -0.92016914768E+03  0.10269814949E+04  0.45604794765E+03 0.  0.
      99925    2    3    3    0    0  0.10229379014E+03 -0.35853652511E+02 -0.65886360158E+03  0.71766353485E+03  0.26304030082E+03 0.  0.
         25    1    3    3    0    0 -0.10229379014E+03  0.35853652511E+02 -0.26130554610E+03  0.30931796007E+03  0.12509000000E+03 0.  0.
         25    1    4    4    0    0  0.12169761499E+02 -0.29438428190E+02 -0.33185814727E+03  0.35607873028E+03  0.12509000000E+03 0.  0.
         25    1    4    4    0    0  0.90124028641E+02 -0.64152243211E+01 -0.32700545431E+03  0.36158480456E+03  0.12509000000E+03 0.  0.
<mgrwt>
<rscale>  2 0.45604795E+03</rscale>
<asrwt>0</asrwt>
<pdfrwt beam="1">  1       21 0.78538496E-02 0.45604795E+03</pdfrwt>
<pdfrwt beam="2">  1       21 0.14317283E+00 0.45604795E+03</pdfrwt>
<totfact> 0.37823115E+04</totfact>
</mgrwt>
</event>
<event>
 7    0  0.4691878E-002  0.4479191E+03  0.7546771E-02  0.1028344E+00
         21   -1    0    0  502  501  0.00000000000E+00  0.00000000000E+00  0.29148072611E+03  0.29148072611E+03  0.00000000000E+00 0.  1.
         21   -1    0    0  501  502 -0.00000000000E+00 -0.00000000000E+00 -0.17207959987E+03  0.17207959987E+03  0.00000000000E+00 0.  1.
      99926    2    1    2    0    0  0.00000000000E+00  0.00000000000E+00  0.11940112625E+03  0.46356032598E+03  0.44791912984E+03 0.  0.
      99925    2    3    3    0    0  0.47648658486E+01  0.10356057192E+03  0.99921921289E+02  0.29993134466E+03  0.26311010082E+03 0.  0.
         25    1    4    4    0    0  0.32863618620E+02  0.57488684911E+02  0.79027898832E+02  0.16210454409E+03  0.12509000000E+03 0.  0.
         25    1    3    3    0    0 -0.47648658486E+01 -0.10356057192E+03  0.19479204957E+02  0.16362898132E+03  0.12509000000E+03 0.  0.
         25    1    4    4    0    0 -0.28098752771E+02  0.46071887009E+02  0.20894022457E+02  0.13782680057E+03  0.12509000000E+03 0.  0.
<mgrwt>
<rscale>  2 0.44791913E+03</rscale>
<asrwt>0</asrwt>
<pdfrwt beam="1">  1       21 0.42864813E-01 0.44791913E+03</pdfrwt>
<pdfrwt beam="2">  1       21 0.25305823E-01 0.44791913E+03</pdfrwt>
<totfact> 0.71870666E+04</totfact>
</mgrwt>
</event>
<event>
 7    0  0.4691878E-002  0.4473334E+03  0.7546771E-02  0.1028520E+00
         21   -1    0    0  502  501  0.00000000000E+00  0.00000000000E+00  0.12775479002E+03  0.12775479002E+03  0.00000000000E+00 0. -1.
         21   -1    0    0  501  502 -0.00000000000E+00 -0.00000000000E+00 -0.39158445169E+03  0.39158445169E+03  0.00000000000E+00 0. -1.
      99926    2    1    2    0    0  0.00000000000E+00  0.00000000000E+00 -0.26382966167E+03  0.51933924171E+03  0.44733338530E+03 0.  0.
      99925    2    3    3    0    0 -0.66578677062E+02  0.64766471657E+02 -0.22616372858E+03  0.35904686290E+03  0.26293953970E+03 0.  0.
         25    1    4    4    0    0 -0.12311030360E+02  0.25406903517E+01 -0.13067130732E+03  0.18132985202E+03  0.12509000000E+03 0.  0.
         25    1    4    4    0    0 -0.54267646701E+02  0.62225781305E+02 -0.95492421264E+02  0.17771701088E+03  0.12509000000E+03 0.  0.
         25    1    3    3    0    0  0.66578677062E+02 -0.64766471657E+02 -0.37665933083E+02  0.16029237881E+03  0.12509000000E+03 0.  0.
<mgrwt>
<rscale>  2 0.44733339E+03</rscale>
<asrwt>0</asrwt>
<pdfrwt beam="1">  1       21 0.18787470E-01 0.44733339E+03</pdfrwt>
<pdfrwt beam="2">  1       21 0.57585947E-01 0.44733339E+03</pdfrwt>
<totfact> 0.67972111E+04</totfact>
</mgrwt>
</event>
<event>
 7    0  0.4691878E-002  0.4607123E+03  0.7546771E-02  0.1024575E+00
         21   -1    0    0  502  501  0.00000000000E+00  0.00000000000E+00  0.28511576648E+03  0.28511576648E+03  0.00000000000E+00 0. -1.
         21   -1    0    0  501  502 -0.00000000000E+00 -0.00000000000E+00 -0.18611370170E+03  0.18611370170E+03  0.00000000000E+00 0. -1.
      99926    2    1    2    0    0  0.00000000000E+00  0.00000000000E+00  0.99002064781E+02  0.47122946818E+03  0.46071227773E+03 0.  0.
      99925    2    3    3    0    0  0.10945919737E+03 -0.30872423401E+02  0.27953761476E+02  0.28784519427E+03  0.26294299890E+03 0.  0.
         25    1    4    4    0    0  0.73119586215E+02 -0.22678743993E+02 -0.21593131604E+02  0.14823822297E+03  0.12509000000E+03 0.  0.
         25    1    3    3    0    0 -0.10945919737E+03  0.30872423401E+02  0.71048303305E+02  0.18338427391E+03  0.12509000000E+03 0.  0.
         25    1    4    4    0    0  0.36339611154E+02 -0.81936794074E+01  0.49546893080E+02  0.13960697130E+03  0.12509000000E+03 0.  0.
<mgrwt>
<rscale>  2 0.46071228E+03</rscale>
<asrwt>0</asrwt>
<pdfrwt beam="1">  1       21 0.41928789E-01 0.46071228E+03</pdfrwt>
<pdfrwt beam="2">  1       21 0.27369662E-01 0.46071228E+03</pdfrwt>
<totfact> 0.64377188E+04</totfact>
</mgrwt>
</event>
<event>
 7    0  0.4691878E-002  0.4405602E+03  0.7546771E-02  0.1030575E+00
         21   -1    0    0  502  501  0.00000000000E+00  0.00000000000E+00  0.50960666318E+03  0.50960666318E+03  0.00000000000E+00 0. -1.
         21   -1    0    0  501  502 -0.00000000000E+00 -0.00000000000E+00 -0.95217198593E+02  0.95217198593E+02  0.00000000000E+00 0. -1.
      99926    2    1    2    0    0 -0.71054273576E-14  0.00000000000E+00  0.41438946459E+03  0.60482386177E+03  0.44056018364E+03 0.  0.
      99925    2    3    3    0    0  0.60149298005E+02 -0.39055437470E+02  0.17079828896E+03  0.32175596499E+03  0.26308093859E+03 0.  0.
         25    1    3    3    0    0 -0.60149298005E+02  0.39055437470E+02  0.24359117563E+03  0.28306789679E+03  0.12509000000E+03 0.  0.
         25    1    4    4    0    0  0.37553071656E+02  0.62833486677E-01  0.43510792380E+02  0.13766239244E+03  0.12509000000E+03 0.  0.
         25    1    4    4    0    0  0.22596226349E+02 -0.39118270957E+02  0.12728749658E+03  0.18409357255E+03  0.12509000000E+03 0.  0.
<mgrwt>
<rscale>  2 0.44056018E+03</rscale>
<asrwt>0</asrwt>
<pdfrwt beam="1">  1       21 0.74942155E-01 0.44056018E+03</pdfrwt>
<pdfrwt beam="2">  1       21 0.14002529E-01 0.44056018E+03</pdfrwt>
<totfact> 0.65545017E+04</totfact>
</mgrwt>
</event>
<event>
 7    0  0.4691878E-002  0.4510637E+03  0.7546771E-02  0.1027405E+00
         21   -1    0    0  502  501  0.00000000000E+00  0.00000000000E+00  0.27680864114E+03  0.27680864114E+03  0.00000000000E+00 0.  1.
         21   -1    0    0  501  502 -0.00000000000E+00 -0.00000000000E+00 -0.18375368915E+03  0.18375368915E+03  0.00000000000E+00 0.  1.
      99926    2    1    2    0    0  0.00000000000E+00  0.00000000000E+00  0.93054951988E+02  0.46056233029E+03  0.45106367177E+03 0.  0.
      99925    2    3    3    0    0 -0.58739465810E+01 -0.96532803373E+02  0.11129574642E+03  0.30139788685E+03  0.26287041988E+03 0.  0.
         25    1    4    4    0    0  0.65683964710E+01 -0.75131250929E+02  0.27007233854E+02  0.14854207309E+03  0.12509000000E+03 0.  0.
         25    1    3    3    0    0  0.58739465810E+01  0.96532803373E+02 -0.18240794434E+02  0.15916444344E+03  0.12509000000E+03 0.  0.
         25    1    4    4    0    0 -0.12442343052E+02 -0.21401552445E+02  0.84288512568E+02  0.15285581375E+03  0.12509000000E+03 0.  0.
<mgrwt>
<rscale>  2 0.45106367E+03</rscale>
<asrwt>0</asrwt>
<pdfrwt beam="1">  1       21 0.40707153E-01 0.45106367E+03</pdfrwt>
<pdfrwt beam="2">  1       21 0.27022601E-01 0.45106367E+03</pdfrwt>
<totfact> 0.70314820E+04</totfact>
</mgrwt>
</event>
<event>
 7    0  0.4691878E-002  0.4594938E+03  0.7546771E-02  0.1024928E+00
         21   -1    0    0  502  501  0.00000000000E+00  0.00000000000E+00  0.16279498236E+04  0.16279498236E+04  0.00000000000E+00 0. -1.
         21   -1    0    0  501  502 -0.00000000000E+00 -0.00000000000E+00 -0.32423376330E+02  0.32423376330E+02  0.00000000000E+00 0. -1.
      99926    2    1    2    0    0  0.00000000000E+00  0.00000000000E+00  0.15955264472E+04  0.16603731999E+04  0.45949376394E+03 0.  0.
      99925    2    3    3    0    0 -0.10344347623E+03 -0.43127068394E+02  0.11280455749E+04  0.11636374845E+04  0.26268779872E+03 0.  0.
         25    1    3    3    0    0  0.10344347623E+03  0.43127068394E+02  0.46748087238E+03  0.49673571539E+03  0.12509000000E+03 0.  0.
         25    1    4    4    0    0 -0.25710004851E+02 -0.10291328007E+02  0.39625038796E+03  0.41644782847E+03  0.12509000000E+03 0.  0.
         25    1    4    4    0    0 -0.77733471374E+02 -0.32835740387E+02  0.73179518691E+03  0.74718965604E+03  0.12509000000E+03 0.  0.
<mgrwt>
<rscale>  2 0.45949376E+03</rscale>
<asrwt>0</asrwt>
<pdfrwt beam="1">  1       21 0.23940433E+00 0.45949376E+03</pdfrwt>
<pdfrwt beam="2">  1       21 0.47681447E-02 0.45949376E+03</pdfrwt>
<totfact> 0.19413048E+04</totfact>
</mgrwt>
</event>
<event>
 7    0  0.4691878E-002  0.4525398E+03  0.7546771E-02  0.1026967E+00
         21   -1    0    0  502  501  0.00000000000E+00  0.00000000000E+00  0.55746008515E+03  0.55746008515E+03  0.00000000000E+00 0. -1.
         21   -1    0    0  501  502 -0.00000000000E+00 -0.00000000000E+00 -0.91841666656E+02  0.91841666656E+02  0.00000000000E+00 0. -1.
      99926    2    1    2    0    0 -0.88817841970E-15  0.00000000000E+00  0.46561841849E+03  0.64930175181E+03  0.45253978086E+03 0.  0.
      99925    2    3    3    0    0  0.59952127872E+01  0.10263101485E+03  0.35374337457E+03  0.45249575256E+03  0.26277169415E+03 0.  0.
         25    1    4    4    0    0  0.15532099924E+02  0.30179503187E+02  0.21992542416E+03  0.25527778759E+03  0.12509000000E+03 0.  0.
         25    1    3    3    0    0 -0.59952127872E+01 -0.10263101485E+03  0.11187504393E+03  0.19680599925E+03  0.12509000000E+03 0.  0.
         25    1    4    4    0    0 -0.95368871367E+01  0.72451511664E+02  0.13381795040E+03  0.19721796497E+03  0.12509000000E+03 0.  0.
<mgrwt>
<rscale>  2 0.45253978E+03</rscale>
<asrwt>0</asrwt>
<pdfrwt beam="1">  1       21 0.81979423E-01 0.45253978E+03</pdfrwt>
<pdfrwt beam="2">  1       21 0.13506128E-01 0.45253978E+03</pdfrwt>
<totfact> 0.56836852E+04</totfact>
</mgrwt>
</event>
<event>
 7    0  0.4691878E-002  0.4558783E+03  0.7546771E-02  0.1025983E+00
         21   -1    0    0  502  501  0.00000000000E+00  0.00000000000E+00  0.49756971915E+03  0.49756971915E+03  0.00000000000E+00 0.  1.
         21   -1    0    0  501  502 -0.00000000000E+00 -0.00000000000E+00 -0.10442003894E+03  0.10442003894E+03  0.00000000000E+00 0.  1.
      99926    2    1    2    0    0  0.00000000000E+00  0.00000000000E+00  0.39314968022E+03  0.60198975809E+03  0.45587827080E+03 0.  0.
      99925    2    3    3    0    0 -0.81052232959E+02  0.79602801312E+02  0.23592365001E+03  0.37117900635E+03  0.26307378371E+03 0.  0.
         25    1    4    4    0    0 -0.40272347326E+01  0.17568758472E+02  0.91409395585E+02  0.15597456714E+03  0.12509000000E+03 0.  0.
         25    1    4    4    0    0 -0.77024998226E+02  0.62034042840E+02  0.14451425442E+03  0.21520443921E+03  0.12509000000E+03 0.  0.
         25    1    3    3    0    0  0.81052232959E+02 -0.79602801312E+02  0.15722603021E+03  0.23081075174E+03  0.12509000000E+03 0.  0.
<mgrwt>
<rscale>  2 0.45587827E+03</rscale>
<asrwt>0</asrwt>
<pdfrwt beam="1">  1       21 0.73172016E-01 0.45587827E+03</pdfrwt>
<pdfrwt beam="2">  1       21 0.15355888E-01 0.45587827E+03</pdfrwt>
<totfact> 0.58151392E+04</totfact>
</mgrwt>
</event>
<event>
 7    0  0.4691878E-002  0.4512751E+03  0.7546771E-02  0.1027342E+00
         21   -1    0    0  502  501  0.00000000000E+00  0.00000000000E+00  0.10777946474E+03  0.10777946474E+03  0.00000000000E+00 0. -1.
         21   -1    0    0  501  502 -0.00000000000E+00 -0.00000000000E+00 -0.47237484615E+03  0.47237484615E+03  0.00000000000E+00 0. -1.
      99926    2    1    2    0    0  0.00000000000E+00 -0.35527136788E-14 -0.36459538141E+03  0.58015431089E+03  0.45127511820E+03 0.  0.
      99925    2    3    3    0    0 -0.76587887337E+02 -0.26517410517E+02 -0.32601935902E+03  0.42619166883E+03  0.26226291880E+03 0.  0.
         25    1    4    4    0    0 -0.57948133828E+02  0.18788647732E+02 -0.14745312144E+03  0.20273364452E+03  0.12509000000E+03 0.  0.
         25    1    3    3    0    0  0.76587887337E+02  0.26517410517E+02 -0.38576022387E+02  0.15396264206E+03  0.12509000000E+03 0.  0.
         25    1    4    4    0    0 -0.18639753508E+02 -0.45306058249E+02 -0.17856623759E+03  0.22345802431E+03  0.12509000000E+03 0.  0.
<mgrwt>
<rscale>  2 0.45127512E+03</rscale>
<asrwt>0</asrwt>
<pdfrwt beam="1">  1       21 0.15849921E-01 0.45127512E+03</pdfrwt>
<pdfrwt beam="2">  1       21 0.69466889E-01 0.45127512E+03</pdfrwt>
<totfact> 0.61714093E+04</totfact>
</mgrwt>
</event>
<event>
 7    0  0.4691878E-002  0.4532530E+03  0.7546771E-02  0.1026756E+00
         21   -1    0    0  502  501  0.00000000000E+00  0.00000000000E+00  0.21190524397E+03  0.21190524397E+03  0.00000000000E+00 0.  1.
         21   -1    0    0  501  502 -0.00000000000E+00 -0.00000000000E+00 -0.24237047711E+03  0.24237047711E+03  0.00000000000E+00 0.  1.
      99926    2    1    2    0    0  0.00000000000E+00  0.00000000000E+00 -0.30465233143E+02  0.45427572108E+03  0.45325302021E+03 0.  0.
      99925    2    3    3    0    0  0.75461522058E+02 -0.55634525637E+02  0.41148130222E+02  0.28232914895E+03  0.26311012518E+03 0.  0.
         25    1    4    4    0    0  0.75926442239E+02 -0.43132585908E+02  0.34694543737E+02  0.15644955757E+03  0.12509000000E+03 0.  0.
         25    1    3    3    0    0 -0.75461522058E+02  0.55634525637E+02 -0.71613363365E+02  0.17194657213E+03  0.12509000000E+03 0.  0.
         25    1    4    4    0    0 -0.46492018052E+00 -0.12501939729E+02  0.64535864848E+01  0.12587959138E+03  0.12509000000E+03 0.  0.
<mgrwt>
<rscale>  2 0.45325302E+03</rscale>
<asrwt>0</asrwt>
<pdfrwt beam="1">  1       21 0.31162536E-01 0.45325302E+03</pdfrwt>
<pdfrwt beam="2">  1       21 0.35642717E-01 0.45325302E+03</pdfrwt>
<totfact> 0.69563506E+04</totfact>
</mgrwt>
</event>
<event>
 7    0  0.4691878E-002  0.4620391E+03  0.7546771E-02  0.1024191E+00
         21   -1    0    0  502  501  0.00000000000E+00  0.00000000000E+00  0.30125632821E+03  0.30125632821E+03  0.00000000000E+00 0.  1.
         21   -1    0    0  501  502 -0.00000000000E+00 -0.00000000000E+00 -0.17715820458E+03  0.17715820458E+03  0.00000000000E+00 0.  1.
      99926    2    1    2    0    0  0.00000000000E+00  0.00000000000E+00  0.12409812363E+03  0.47841453279E+03  0.46203909023E+03 0.  0.
      99925    2    3    3    0    0  0.47497947774E+02 -0.10760774058E+03  0.10007519586E+03  0.30503607382E+03  0.26305223935E+03 0.  0.
         25    1    4    4    0    0  0.62706080552E+02 -0.70537396297E+02  0.50408908855E+02  0.16460906113E+03  0.12509000000E+03 0.  0.
         25    1    3    3    0    0 -0.47497947774E+02  0.10760774058E+03  0.24022927766E+02  0.17337845897E+03  0.12509000000E+03 0.  0.
         25    1    4    4    0    0 -0.15208132778E+02 -0.37070344287E+02  0.49666287004E+02  0.14042701269E+03  0.12509000000E+03 0.  0.
<mgrwt>
<rscale>  2 0.46203909E+03</rscale>
<asrwt>0</asrwt>
<pdfrwt beam="1">  1       21 0.44302402E-01 0.46203909E+03</pdfrwt>
<pdfrwt beam="2">  1       21 0.26052677E-01 0.46203909E+03</pdfrwt>
<totfact> 0.63210398E+04</totfact>
</mgrwt>
</event>
<event>
 7    0  0.4691878E-002  0.4575061E+03  0.7546771E-02  0.1025507E+00
         21   -1    0    0  502  501  0.00000000000E+00  0.00000000000E+00  0.12380556302E+04  0.12380556302E+04  0.00000000000E+00 0. -1.
         21   -1    0    0  501  502 -0.00000000000E+00 -0.00000000000E+00 -0.42266246047E+02  0.42266246047E+02  0.00000000000E+00 0. -1.
      99926    2    1    2    0    0  0.14210854715E-13  0.71054273576E-14  0.11957893841E+04  0.12803218762E+04  0.45750612623E+03 0.  0.
      99925    2    3    3    0    0  0.95362711931E+02  0.44259132068E+02  0.61749781993E+03  0.67938797060E+03  0.26308086093E+03 0.  0.
         25    1    4    4    0    0  0.27836964848E+02 -0.53581442696E+00  0.35648190761E+03  0.37881663409E+03  0.12509000000E+03 0.  0.
         25    1    3    3    0    0 -0.95362711931E+02 -0.44259132068E+02  0.57829156420E+03  0.60093390562E+03  0.12509000000E+03 0.  0.
         25    1    4    4    0    0  0.67525747084E+02  0.44794946495E+02  0.26101591232E+03  0.30057133652E+03  0.12509000000E+03 0.  0.
<mgrwt>
<rscale>  2 0.45750613E+03</rscale>
<asrwt>0</asrwt>
<pdfrwt beam="1">  1       21 0.18206698E+00 0.45750613E+03</pdfrwt>
<pdfrwt beam="2">  1       21 0.62156252E-02 0.45750613E+03</pdfrwt>
<totfact> 0.29119593E+04</totfact>
</mgrwt>
</event>
<event>
 7    0  0.4691878E-002  0.4482378E+03  0.7546771E-02  0.1028249E+00
         21   -1    0    0  502  501  0.00000000000E+00  0.00000000000E+00  0.47702608877E+03  0.47702608877E+03  0.00000000000E+00 0. -1.
         21   -1    0    0  501  502 -0.00000000000E+00 -0.00000000000E+00 -0.10529671194E+03  0.10529671194E+03  0.00000000000E+00 0. -1.
      99926    2    1    2    0    0 -0.71054273576E-14  0.00000000000E+00  0.37172937683E+03  0.58232280071E+03  0.44823778804E+03 0.  0.
      99925    2    3    3    0    0 -0.60186518981E+02 -0.87947906942E+02  0.22848412628E+03  0.36432288945E+03  0.26299984870E+03 0.  0.
         25    1    3    3    0    0  0.60186518981E+02  0.87947906942E+02  0.14324525055E+03  0.21799991126E+03  0.12509000000E+03 0.  0.
         25    1    4    4    0    0 -0.55306569789E+02 -0.79675615041E+02  0.12995016694E+03  0.20479642156E+03  0.12509000000E+03 0.  0.
         25    1    4    4    0    0 -0.48799491918E+01 -0.82722919012E+01  0.98533959331E+02  0.15952646789E+03  0.12509000000E+03 0.  0.
<mgrwt>
<rscale>  2 0.44823779E+03</rscale>
<asrwt>0</asrwt>
<pdfrwt beam="1">  1       21 0.70150895E-01 0.44823779E+03</pdfrwt>
<pdfrwt beam="2">  1       21 0.15484811E-01 0.44823779E+03</pdfrwt>
<totfact> 0.63084961E+04</totfact>
</mgrwt>
</event>
<event>
 7    0  0.4691878E-002  0.4581521E+03  0.7546771E-02  0.1025319E+00
         21   -1    0    0  502  501  0.00000000000E+00  0.00000000000E+00  0.22255652393E+03  0.22255652393E+03  0.00000000000E+00 0.  1.
         21   -1    0    0  501  502 -0.00000000000E+00 -0.00000000000E+00 -0.23578658646E+03  0.23578658646E+03  0.00000000000E+00 0.  1.
      99926    2    1    2    0    0 -0.71054273576E-14  0.35527136788E-14 -0.13230062534E+02  0.45834311039E+03  0.45815212789E+03 0.  0.
      99925    2    3    3    0    0  0.39007007418E+02 -0.25437656943E+02 -0.11471067241E+03  0.29066948904E+03  0.26298591687E+03 0.  0.
         25    1    4    4    0    0 -0.47448742648E+01 -0.37896862156E+02 -0.79228924546E+02  0.15291637119E+03  0.12509000000E+03 0.  0.
         25    1    3    3    0    0 -0.39007007418E+02  0.25437656943E+02  0.10148060987E+03  0.16767362136E+03  0.12509000000E+03 0.  0.
         25    1    4    4    0    0  0.43751881683E+02  0.12459205213E+02 -0.35481747863E+02  0.13775311785E+03  0.12509000000E+03 0.  0.
<mgrwt>
<rscale>  2 0.45815213E+03</rscale>
<asrwt>0</asrwt>
<pdfrwt beam="1">  1       21 0.32728901E-01 0.45815213E+03</pdfrwt>
<pdfrwt beam="2">  1       21 0.34674498E-01 0.45815213E+03</pdfrwt>
<totfact> 0.66610456E+04</totfact>
</mgrwt>
</event>
<event>
 7    0  0.4691878E-002  0.4556278E+03  0.7546771E-02  0.1026057E+00
         21   -1    0    0  502  501  0.00000000000E+00  0.00000000000E+00  0.54506492319E+03  0.54506492319E+03  0.00000000000E+00 0.  1.
         21   -1    0    0  501  502 -0.00000000000E+00 -0.00000000000E+00 -0.95216485750E+02  0.95216485750E+02  0.00000000000E+00 0.  1.
      99926    2    1    2    0    0  0.00000000000E+00  0.35527136788E-14  0.44984843744E+03  0.64028140894E+03  0.45562777128E+03 0.  0.
      99925    2    3    3    0    0 -0.39413145358E+02  0.24743237748E+02  0.42865032884E+03  0.50514262195E+03  0.26317739312E+03 0.  0.
         25    1    4    4    0    0 -0.24486847204E+01  0.46382807367E+02  0.24293301292E+03  0.27716658843E+03  0.12509000000E+03 0.  0.
         25    1    4    4    0    0 -0.36964460638E+02 -0.21639569620E+02  0.18571731592E+03  0.22797603351E+03  0.12509000000E+03 0.  0.
         25    1    3    3    0    0  0.39413145358E+02 -0.24743237748E+02  0.21198108594E+02  0.13513878699E+03  0.12509000000E+03 0.  0.
<mgrwt>
<rscale>  2 0.45562777E+03</rscale>
<asrwt>0</asrwt>
<pdfrwt beam="1">  1       21 0.80156605E-01 0.45562777E+03</pdfrwt>
<pdfrwt beam="2">  1       21 0.14002425E-01 0.45562777E+03</pdfrwt>
<totfact> 0.55986998E+04</totfact>
</mgrwt>
</event>
<event>
 7    0  0.4691878E-002  0.4557294E+03  0.7546771E-02  0.1026027E+00
         21   -1    0    0  502  501  0.00000000000E+00  0.00000000000E+00  0.15965372311E+04  0.15965372311E+04  0.00000000000E+00 0. -1.
         21   -1    0    0  501  502 -0.00000000000E+00 -0.00000000000E+00 -0.32521838197E+02  0.32521838197E+02  0.00000000000E+00 0. -1.
      99926    2    1    2    0    0  0.00000000000E+00  0.14210854715E-13  0.15640153929E+04  0.16290590693E+04  0.45572941755E+03 0.  0.
      99925    2    3    3    0    0  0.71697468637E+02  0.79932445574E+02  0.11204525513E+04  0.11558516883E+04  0.26277268276E+03 0.  0.
         25    1    4    4    0    0  0.21457548509E+02  0.42383624243E+02  0.39563369295E+03  0.41764856648E+03  0.12509000000E+03 0.  0.
         25    1    4    4    0    0  0.50239920128E+02  0.37548821331E+02  0.72481885833E+03  0.73820312180E+03  0.12509000000E+03 0.  0.
         25    1    3    3    0    0 -0.71697468637E+02 -0.79932445574E+02  0.44356284163E+03  0.47320738101E+03  0.12509000000E+03 0.  0.
<mgrwt>
<rscale>  2 0.45572942E+03</rscale>
<asrwt>0</asrwt>
<pdfrwt beam="1">  1       21 0.23478484E+00 0.45572942E+03</pdfrwt>
<pdfrwt beam="2">  1       21 0.47826243E-02 0.45572942E+03</pdfrwt>
<totfact> 0.20663732E+04</totfact>
</mgrwt>
</event>
<event>
 7    0  0.4691878E-002  0.4564476E+03  0.7546771E-02  0.1025817E+00
         21   -1    0    0  502  501  0.00000000000E+00  0.00000000000E+00  0.44930638389E+03  0.44930638389E+03  0.00000000000E+00 0. -1.
         21   -1    0    0  501  502 -0.00000000000E+00 -0.00000000000E+00 -0.11592555985E+03  0.11592555985E+03  0.00000000000E+00 0. -1.
      99926    2    1    2    0    0  0.00000000000E+00 -0.53776427755E-16  0.33338082404E+03  0.56523194374E+03  0.45644756149E+03 0.  0.
      99925    2    3    3    0    0 -0.10471900956E+03  0.10278023765E-01  0.26745030280E+03  0.38927623114E+03  0.26275511145E+03 0.  0.
         25    1    4    4    0    0 -0.92833596435E+02  0.79092854542E+00  0.12851253394E+03  0.20194474906E+03  0.12509000000E+03 0.  0.
         25    1    4    4    0    0 -0.11885413120E+02 -0.78065052165E+00  0.13893776886E+03  0.18733148207E+03  0.12509000000E+03 0.  0.
         25    1    3    3    0    0  0.10471900956E+03 -0.10278023765E-01  0.65930521236E+02  0.17595571261E+03  0.12509000000E+03 0.  0.
<mgrwt>
<rscale>  2 0.45644756E+03</rscale>
<asrwt>0</asrwt>
<pdfrwt beam="1">  1       21 0.66074467E-01 0.45644756E+03</pdfrwt>
<pdfrwt beam="2">  1       21 0.17047877E-01 0.45644756E+03</pdfrwt>
<totfact> 0.60179126E+04</totfact>
</mgrwt>
</event>
<event>
 7    0  0.4691878E-002  0.4584024E+03  0.7546771E-02  0.1025246E+00
         21   -1    0    0  502  501  0.00000000000E+00  0.00000000000E+00  0.89204181145E+02  0.89204181145E+02  0.00000000000E+00 0.  1.
         21   -1    0    0  501  502 -0.00000000000E+00 -0.00000000000E+00 -0.58890937740E+03  0.58890937740E+03  0.00000000000E+00 0.  1.
      99926    2    1    2    0    0 -0.71054273576E-14 -0.14210854715E-13 -0.49970519626E+03  0.67811355855E+03  0.45840235069E+03 0.  0.
      99925    2    3    3    0    0 -0.45996414560E+02 -0.10154877924E+03 -0.36235735173E+03  0.46145769498E+03  0.26308274210E+03 0.  0.
         25    1    4    4    0    0 -0.11566002845E+02 -0.91856511243E+02 -0.19715800403E+03  0.25117758207E+03  0.12509000000E+03 0.  0.
         25    1    3    3    0    0  0.45996414560E+02  0.10154877924E+03 -0.13734784453E+03  0.21665586356E+03  0.12509000000E+03 0.  0.
         25    1    4    4    0    0 -0.34430411715E+02 -0.96922680008E+01 -0.16519934770E+03  0.21028011292E+03  0.12509000000E+03 0.  0.
<mgrwt>
<rscale>  2 0.45840235E+03</rscale>
<asrwt>0</asrwt>
<pdfrwt beam="1">  1       21 0.13118261E-01 0.45840235E+03</pdfrwt>
<pdfrwt beam="2">  1       21 0.86604323E-01 0.45840235E+03</pdfrwt>
<totfact> 0.52681176E+04</totfact>
</mgrwt>
</event>
<event>
 7    0  0.4691878E-002  0.4513183E+03  0.7546771E-02  0.1027330E+00
         21   -1    0    0  502  501  0.00000000000E+00  0.00000000000E+00  0.16694380182E+04  0.16694380182E+04  0.00000000000E+00 0.  1.
         21   -1    0    0  501  502 -0.00000000000E+00 -0.00000000000E+00 -0.30502513088E+02  0.30502513088E+02  0.00000000000E+00 0.  1.
      99926    2    1    2    0    0  0.00000000000E+00  0.00000000000E+00  0.16389355052E+04  0.16999405313E+04  0.45131831339E+03 0.  0.
      99925    2    3    3    0    0 -0.83570142385E+02  0.31734394366E+02  0.12728180218E+04  0.13028504153E+04  0.26336751452E+03 0.  0.
         25    1    3    3    0    0  0.83570142385E+02 -0.31734394366E+02  0.36611748340E+03  0.39709011601E+03  0.12509000000E+03 0.  0.
         25    1    4    4    0    0 -0.15817409962E+02  0.38068450040E+01  0.44944482391E+03  0.46681135416E+03  0.12509000000E+03 0.  0.
         25    1    4    4    0    0 -0.67752732423E+02  0.27927549362E+02  0.82337319784E+03  0.83603906116E+03  0.12509000000E+03 0.  0.
<mgrwt>
<rscale>  2 0.45131831E+03</rscale>
<asrwt>0</asrwt>
<pdfrwt beam="1">  1       21 0.24550553E+00 0.45131831E+03</pdfrwt>
<pdfrwt beam="2">  1       21 0.44856648E-02 0.45131831E+03</pdfrwt>
<totfact> 0.19823525E+04</totfact>
</mgrwt>
</event>
<event>
 7    0  0.4691878E-002  0.4593488E+03  0.7546771E-02  0.1024970E+00
         21   -1    0    0  502  501  0.00000000000E+00  0.00000000000E+00  0.93844445577E+02  0.93844445577E+02  0.00000000000E+00 0. -1.
         21   -1    0    0  501  502 -0.00000000000E+00 -0.00000000000E+00 -0.56210397176E+03  0.56210397176E+03  0.00000000000E+00 0. -1.
      99926    2    1    2    0    0  0.00000000000E+00 -0.71054273576E-14 -0.46825952618E+03  0.65594841733E+03  0.45934882425E+03 0.  0.
      99925    2    3    3    0    0  0.81415646843E+02 -0.60863006271E+02 -0.21035479458E+03  0.35181822849E+03  0.26304773942E+03 0.  0.
         25    1    3    3    0    0 -0.81415646843E+02  0.60863006271E+02 -0.25790473160E+03  0.30413018884E+03  0.12509000000E+03 0.  0.
         25    1    4    4    0    0  0.19949938675E+02 -0.63278430758E+02 -0.91107200334E+02  0.16837514634E+03  0.12509000000E+03 0.  0.
         25    1    4    4    0    0  0.61465708168E+02  0.24154244868E+01 -0.11924759425E+03  0.18344308215E+03  0.12509000000E+03 0.  0.
<mgrwt>
<rscale>  2 0.45934882E+03</rscale>
<asrwt>0</asrwt>
<pdfrwt beam="1">  1       21 0.13800654E-01 0.45934882E+03</pdfrwt>
<pdfrwt beam="2">  1       21 0.82662345E-01 0.45934882E+03</pdfrwt>
<totfact> 0.53501139E+04</totfact>
</mgrwt>
</event>
<event>
 7    0  0.4691878E-002  0.4688291E+03  0.7546771E-02  0.1022251E+00
         21   -1    0    0  502  501  0.00000000000E+00  0.00000000000E+00  0.23174454961E+03  0.23174454961E+03  0.00000000000E+00 0.  1.
         21   -1    0    0  501  502 -0.00000000000E+00 -0.00000000000E+00 -0.23711526615E+03  0.23711526615E+03  0.00000000000E+00 0.  1.
      99926    2    1    2    0    0 -0.71054273576E-14  0.00000000000E+00 -0.53707165450E+01  0.46885981576E+03  0.46882905438E+03 0.  0.
      99925    2    3    3    0    0 -0.52366019447E+02  0.73184372090E+02  0.84171230775E+02  0.29063686342E+03  0.26322393124E+03 0.  0.
         25    1    4    4    0    0 -0.30260849092E+02  0.14233371560E+02  0.76485198442E+02  0.15038550972E+03  0.12509000000E+03 0.  0.
         25    1    3    3    0    0  0.52366019447E+02 -0.73184372090E+02 -0.89541947320E+02  0.17822295234E+03  0.12509000000E+03 0.  0.
         25    1    4    4    0    0 -0.22105170355E+02  0.58951000530E+02  0.76860323324E+01  0.14025135369E+03  0.12509000000E+03 0.  0.
<mgrwt>
<rscale>  2 0.46882905E+03</rscale>
<asrwt>0</asrwt>
<pdfrwt beam="1">  1       21 0.34080081E-01 0.46882905E+03</pdfrwt>
<pdfrwt beam="2">  1       21 0.34869892E-01 0.46882905E+03</pdfrwt>
<totfact> 0.60576939E+04</totfact>
</mgrwt>
</event>
<event>
 7    0  0.4691878E-002  0.4417917E+03  0.7546771E-02  0.1030198E+00
         21   -1    0    0  502  501  0.00000000000E+00  0.00000000000E+00  0.22002754252E+02  0.22002754252E+02  0.00000000000E+00 0.  1.
         21   -1    0    0  501  502 -0.00000000000E+00 -0.00000000000E+00 -0.22176756708E+04  0.22176756708E+04  0.00000000000E+00 0.  1.
      99926    2    1    2    0    0  0.00000000000E+00  0.00000000000E+00 -0.21956729166E+04  0.22396784251E+04  0.44179168301E+03 0.  0.
      99925    2    3    3    0    0  0.39254799803E+02  0.20252259832E+02 -0.18552972315E+04  0.18743645759E+04  0.26298983383E+03 0.  0.
         25    1    4    4    0    0 -0.10133184393E+02  0.17985827444E+02 -0.10886421490E+04  0.10959997299E+04  0.12509000000E+03 0.  0.
         25    1    3    3    0    0 -0.39254799803E+02 -0.20252259832E+02 -0.34037568501E+03  0.36531384915E+03  0.12509000000E+03 0.  0.
         25    1    4    4    0    0  0.49387984196E+02  0.22664323881E+01 -0.76665508258E+03  0.77836484597E+03  0.12509000000E+03 0.  0.
<mgrwt>
<rscale>  2 0.44179168E+03</rscale>
<asrwt>0</asrwt>
<pdfrwt beam="1">  1       21 0.32356990E-02 0.44179168E+03</pdfrwt>
<pdfrwt beam="2">  1       21 0.32612879E+00 0.44179168E+03</pdfrwt>
<totfact> 0.11291312E+04</totfact>
</mgrwt>
</event>
<event>
 7    0  0.4691878E-002  0.4491619E+03  0.7546771E-02  0.1027972E+00
         21   -1    0    0  502  501  0.00000000000E+00  0.00000000000E+00  0.19964145410E+03  0.19964145410E+03  0.00000000000E+00 0. -1.
         21   -1    0    0  501  502 -0.00000000000E+00 -0.00000000000E+00 -0.25263588568E+03  0.25263588568E+03  0.00000000000E+00 0. -1.
      99926    2    1    2    0    0  0.71054273576E-14  0.00000000000E+00 -0.52994431583E+02  0.45227733978E+03  0.44916186648E+03 0.  0.
      99925    2    3    3    0    0 -0.42453069892E+02  0.51194231707E+02 -0.11866063778E+03  0.29612782412E+03  0.26303655404E+03 0.  0.
         25    1    4    4    0    0 -0.19782034310E+01 -0.40325034352E+01 -0.31776594455E+02  0.12914114150E+03  0.12509000000E+03 0.  0.
         25    1    4    4    0    0 -0.40474866461E+02  0.55226735142E+02 -0.86884043320E+02  0.16698668262E+03  0.12509000000E+03 0.  0.
         25    1    3    3    0    0  0.42453069892E+02 -0.51194231707E+02  0.65666206193E+02  0.15614951565E+03  0.12509000000E+03 0.  0.
<mgrwt>
<rscale>  2 0.44916187E+03</rscale>
<asrwt>0</asrwt>
<pdfrwt beam="1">  1       21 0.29359037E-01 0.44916187E+03</pdfrwt>
<pdfrwt beam="2">  1       21 0.37152336E-01 0.44916187E+03</pdfrwt>
<totfact> 0.72043284E+04</totfact>
</mgrwt>
</event>
<event>
 7    0  0.4691878E-002  0.4577229E+03  0.7546771E-02  0.1025444E+00
         21   -1    0    0  502  501  0.00000000000E+00  0.00000000000E+00  0.67825175593E+03  0.67825175593E+03  0.00000000000E+00 0. -1.
         21   -1    0    0  501  502 -0.00000000000E+00 -0.00000000000E+00 -0.77224373171E+02  0.77224373171E+02  0.00000000000E+00 0. -1.
      99926    2    1    2    0    0  0.00000000000E+00 -0.88817841970E-15  0.60102738276E+03  0.75547612910E+03  0.45772291489E+03 0.  0.
      99925    2    3    3    0    0  0.92810416747E+02  0.74405134037E+01  0.26389383744E+03  0.38402536497E+03  0.26299503570E+03 0.  0.
         25    1    4    4    0    0  0.70973996159E+02  0.29153603075E+02  0.11041591625E+03  0.18364755202E+03  0.12509000000E+03 0.  0.
         25    1    4    4    0    0  0.21836420588E+02 -0.21713089672E+02  0.15347792119E+03  0.20037781294E+03  0.12509000000E+03 0.  0.
         25    1    3    3    0    0 -0.92810416747E+02 -0.74405134037E+01  0.33713354532E+03  0.37145076414E+03  0.12509000000E+03 0.  0.
<mgrwt>
<rscale>  2 0.45772291E+03</rscale>
<asrwt>0</asrwt>
<pdfrwt beam="1">  1       21 0.99742902E-01 0.45772291E+03</pdfrwt>
<pdfrwt beam="2">  1       21 0.11356526E-01 0.45772291E+03</pdfrwt>
<totfact> 0.48936776E+04</totfact>
</mgrwt>
</event>
<event>
 7    0  0.4691878E-002  0.4489492E+03  0.7546771E-02  0.1028036E+00
         21   -1    0    0  502  501  0.00000000000E+00  0.00000000000E+00  0.37590275078E+03  0.37590275078E+03  0.00000000000E+00 0. -1.
         21   -1    0    0  501  502 -0.00000000000E+00 -0.00000000000E+00 -0.13404758180E+03  0.13404758180E+03  0.00000000000E+00 0. -1.
      99926    2    1    2    0    0  0.00000000000E+00 -0.14710455076E-14  0.24185516898E+03  0.50995033258E+03  0.44894923871E+03 0.  0.
      99925    2    3    3    0    0  0.10003063514E+03  0.85495335534E-01  0.10928433369E+03  0.30203527842E+03  0.26320354965E+03 0.  0.
         25    1    3    3    0    0 -0.10003063514E+03 -0.85495335534E-01  0.13257083529E+03  0.20791505415E+03  0.12509000000E+03 0.  0.
         25    1    4    4    0    0  0.89509916143E+02  0.17216345464E+02  0.56108915391E+02  0.16463336881E+03  0.12509000000E+03 0.  0.
         25    1    4    4    0    0  0.10520718995E+02 -0.17130850128E+02  0.53175418300E+02  0.13740190961E+03  0.12509000000E+03 0.  0.
<mgrwt>
<rscale>  2 0.44894924E+03</rscale>
<asrwt>0</asrwt>
<pdfrwt beam="1">  1       21 0.55279816E-01 0.44894924E+03</pdfrwt>
<pdfrwt beam="2">  1       21 0.19712880E-01 0.44894924E+03</pdfrwt>
<totfact> 0.67773302E+04</totfact>
</mgrwt>
</event>
<event>
 7    0  0.4691878E-002  0.4466094E+03  0.7546771E-02  0.1028738E+00
         21   -1    0    0  502  501  0.00000000000E+00  0.00000000000E+00  0.69847494299E+02  0.69847494299E+02  0.00000000000E+00 0. -1.
         21   -1    0    0  501  502 -0.00000000000E+00 -0.00000000000E+00 -0.71391235310E+03  0.71391235310E+03  0.00000000000E+00 0. -1.
      99926    2    1    2    0    0  0.14210854715E-13 -0.35527136788E-14 -0.64406485881E+03  0.78375984740E+03  0.44660939987E+03 0.  0.
      99925    2    3    3    0    0 -0.80145384900E+02 -0.28968415611E+01 -0.28929496735E+03  0.39912903949E+03  0.26302231392E+03 0.  0.
         25    1    4    4    0    0 -0.55129952170E+02 -0.38214200807E+02 -0.13574661619E+03  0.19640338255E+03  0.12509000000E+03 0.  0.
         25    1    3    3    0    0  0.80145384900E+02  0.28968415611E+01 -0.35476989146E+03  0.38463080791E+03  0.12509000000E+03 0.  0.
         25    1    4    4    0    0 -0.25015432730E+02  0.35317359246E+02 -0.15354835116E+03  0.20272565694E+03  0.12509000000E+03 0.  0.
<mgrwt>
<rscale>  2 0.44660940E+03</rscale>
<asrwt>0</asrwt>
<pdfrwt beam="1">  1       21 0.10271690E-01 0.44660940E+03</pdfrwt>
<pdfrwt beam="2">  1       21 0.10498711E+00 0.44660940E+03</pdfrwt>
<totfact> 0.51894583E+04</totfact>
</mgrwt>
</event>
<event>
 7    0  0.4691878E-002  0.4543853E+03  0.7546771E-02  0.1026422E+00
         21   -1    0    0  502  501  0.00000000000E+00  0.00000000000E+00  0.62919129477E+03  0.62919129477E+03  0.00000000000E+00 0. -1.
         21   -1    0    0  501  502 -0.00000000000E+00 -0.00000000000E+00 -0.82036267233E+02  0.82036267233E+02  0.00000000000E+00 0. -1.
      99926    2    1    2    0    0  0.00000000000E+00  0.35527136788E-14  0.54715502754E+03  0.71122756200E+03  0.45438532194E+03 0.  0.
      99925    2    3    3    0    0 -0.11086266279E+03  0.12400377553E+02  0.32095286290E+03  0.42969740953E+03  0.26303008229E+03 0.  0.
         25    1    4    4    0    0 -0.35480631878E+02 -0.29609687897E+02  0.13890777383E+03  0.19255774871E+03  0.12509000000E+03 0.  0.
         25    1    3    3    0    0  0.11086266279E+03 -0.12400377553E+02  0.22620216464E+03  0.28153015247E+03  0.12509000000E+03 0.  0.
         25    1    4    4    0    0 -0.75382030908E+02  0.42010065450E+02  0.18204508907E+03  0.23713966083E+03  0.12509000000E+03 0.  0.
<mgrwt>
<rscale>  2 0.45438532E+03</rscale>
<asrwt>0</asrwt>
<pdfrwt beam="1">  1       21 0.92528129E-01 0.45438532E+03</pdfrwt>
<pdfrwt beam="2">  1       21 0.12064157E-01 0.45438532E+03</pdfrwt>
<totfact> 0.52551298E+04</totfact>
</mgrwt>
</event>
<event>
 7    0  0.4691878E-002  0.4298439E+03  0.7546771E-02  0.1033909E+00
         21   -1    0    0  502  501  0.00000000000E+00  0.00000000000E+00  0.14956918435E+03  0.14956918435E+03  0.00000000000E+00 0. -1.
         21   -1    0    0  501  502 -0.00000000000E+00 -0.00000000000E+00 -0.30882992882E+03  0.30882992882E+03  0.00000000000E+00 0. -1.
      99926    2    1    2    0    0  0.14210854715E-13  0.35527136788E-14 -0.15926074447E+03  0.45839911317E+03  0.42984388123E+03 0.  0.
      99925    2    3    3    0    0 -0.79002315323E+02 -0.25134310314E+02 -0.13276608851E+03  0.30600956538E+03  0.26294851296E+03 0.  0.
         25    1    3    3    0    0  0.79002315323E+02  0.25134310314E+02 -0.26494655957E+02  0.15238954779E+03  0.12509000000E+03 0.  0.
         25    1    4    4    0    0 -0.71871644895E+02 -0.38076385410E+02 -0.62422574914E+02  0.16173877218E+03  0.12509000000E+03 0.  0.
         25    1    4    4    0    0 -0.71306704274E+01  0.12942075096E+02 -0.70343513594E+02  0.14427079321E+03  0.12509000000E+03 0.  0.
<mgrwt>
<rscale>  2 0.42984388E+03</rscale>
<asrwt>0</asrwt>
<pdfrwt beam="1">  1       21 0.21995468E-01 0.42984388E+03</pdfrwt>
<pdfrwt beam="2">  1       21 0.45416166E-01 0.42984388E+03</pdfrwt>
<totfact> 0.83834559E+04</totfact>
</mgrwt>
</event>
<event>
 7    0  0.4691878E-002  0.4546635E+03  0.7546771E-02  0.1026340E+00
         21   -1    0    0  502  501  0.00000000000E+00  0.00000000000E+00  0.14790055842E+04  0.14790055842E+04  0.00000000000E+00 0.  1.
         21   -1    0    0  501  502 -0.00000000000E+00 -0.00000000000E+00 -0.34942209710E+02  0.34942209710E+02  0.00000000000E+00 0.  1.
      99926    2    1    2    0    0 -0.35527136788E-14  0.00000000000E+00  0.14440633745E+04  0.15139477939E+04  0.45466349440E+03 0.  0.
      99925    2    3    3    0    0  0.27472270852E+02 -0.10646315276E+03  0.99202610254E+03  0.10322068553E+04  0.26314649063E+03 0.  0.
         25    1    4    4    0    0 -0.74978793336E+01 -0.39167486670E+02  0.35232463056E+03  0.37599263770E+03  0.12509000000E+03 0.  0.
         25    1    4    4    0    0  0.34970150186E+02 -0.67295666092E+02  0.63970147198E+03  0.65621421764E+03  0.12509000000E+03 0.  0.
         25    1    3    3    0    0 -0.27472270852E+02  0.10646315276E+03  0.45203727197E+03  0.48174093859E+03  0.12509000000E+03 0.  0.
<mgrwt>
<rscale>  2 0.45466349E+03</rscale>
<asrwt>0</asrwt>
<pdfrwt beam="1">  1       21 0.21750078E+00 0.45466349E+03</pdfrwt>
<pdfrwt beam="2">  1       21 0.51385612E-02 0.45466349E+03</pdfrwt>
<totfact> 0.23500708E+04</totfact>
</mgrwt>
</event>
<event>
 7    0  0.4691878E-002  0.4275096E+03  0.7546771E-02  0.1034650E+00
         21   -1    0    0  502  501  0.00000000000E+00  0.00000000000E+00  0.24105624269E+04  0.24105624269E+04  0.00000000000E+00 0. -1.
         21   -1    0    0  501  502 -0.00000000000E+00 -0.00000000000E+00 -0.18954548579E+02  0.18954548579E+02  0.00000000000E+00 0. -1.
      99926    2    1    2    0    0  0.00000000000E+00  0.44408920985E-15  0.23916078783E+04  0.24295169754E+04  0.42750963789E+03 0.  0.
      99925    2    3    3    0    0 -0.69833156680E+02  0.21683965535E+01  0.18193803489E+04  0.18396244215E+04  0.26304331675E+03 0.  0.
         25    1    4    4    0    0 -0.35319933793E+02  0.78503190210E+01  0.63999060185E+03  0.65310382313E+03  0.12509000000E+03 0.  0.
         25    1    3    3    0    0  0.69833156680E+02 -0.21683965535E+01  0.57222752936E+03  0.58989255393E+03  0.12509000000E+03 0.  0.
         25    1    4    4    0    0 -0.34513222887E+02 -0.56819224675E+01  0.11793897471E+04  0.11865205984E+04  0.12509000000E+03 0.  0.
<mgrwt>
<rscale>  2 0.42750964E+03</rscale>
<asrwt>0</asrwt>
<pdfrwt beam="1">  1       21 0.35449426E+00 0.42750964E+03</pdfrwt>
<pdfrwt beam="2">  1       21 0.27874353E-02 0.42750964E+03</pdfrwt>
<totfact> 0.98157644E+03</totfact>
</mgrwt>
</event>
<event>
 7    0  0.4691878E-002  0.4598558E+03  0.7546771E-02  0.1024823E+00
         21   -1    0    0  502  501  0.00000000000E+00  0.00000000000E+00  0.59037066616E+02  0.59037066616E+02  0.00000000000E+00 0.  1.
         21   -1    0    0  501  502 -0.00000000000E+00 -0.00000000000E+00 -0.89548552615E+03  0.89548552615E+03  0.00000000000E+00 0.  1.
      99926    2    1    2    0    0 -0.14210854715E-13 -0.35527136788E-14 -0.83644845953E+03  0.95452259276E+03  0.45985579766E+03 0.  0.
      99925    2    3    3    0    0 -0.77624511259E+02 -0.26073554963E+02 -0.34881699861E+03  0.44448598153E+03  0.26303819921E+03 0.  0.
         25    1    4    4    0    0 -0.34943347769E+02 -0.13670778174E+02 -0.10785538954E+03  0.16937597493E+03  0.12509000000E+03 0.  0.
         25    1    3    3    0    0  0.77624511259E+02  0.26073554963E+02 -0.48763146092E+03  0.51003661123E+03  0.12509000000E+03 0.  0.
         25    1    4    4    0    0 -0.42681163489E+02 -0.12402776790E+02 -0.24096160907E+03  0.27511000661E+03  0.12509000000E+03 0.  0.
<mgrwt>
<rscale>  2 0.45985580E+03</rscale>
<asrwt>0</asrwt>
<pdfrwt beam="1">  1       21 0.86819213E-02 0.45985580E+03</pdfrwt>
<pdfrwt beam="2">  1       21 0.13168905E+00 0.45985580E+03</pdfrwt>
<totfact> 0.39439293E+04</totfact>
</mgrwt>
</event>
<event>
 7    0  0.4691878E-002  0.4511982E+03  0.7546771E-02  0.1027365E+00
         21   -1    0    0  502  501  0.00000000000E+00  0.00000000000E+00  0.13589448072E+03  0.13589448072E+03  0.00000000000E+00 0.  1.
         21   -1    0    0  501  502 -0.00000000000E+00 -0.00000000000E+00 -0.37451815815E+03  0.37451815815E+03  0.00000000000E+00 0.  1.
      99926    2    1    2    0    0  0.00000000000E+00 -0.87430063189E-15 -0.23862367743E+03  0.51041263887E+03  0.45119818537E+03 0.  0.
      99925    2    3    3    0    0 -0.92468367553E+02  0.48964855684E-01 -0.84688834124E+02  0.29156601340E+03  0.26322640473E+03 0.  0.
         25    1    3    3    0    0  0.92468367553E+02 -0.48964855684E-01 -0.15393484331E+03  0.21884662547E+03  0.12509000000E+03 0.  0.
         25    1    4    4    0    0 -0.46542642926E+02  0.22627443069E+02 -0.78024388799E+02  0.15624830283E+03  0.12509000000E+03 0.  0.
         25    1    4    4    0    0 -0.45925724626E+02 -0.22578478214E+02 -0.66644453242E+01  0.13531771056E+03  0.12509000000E+03 0.  0.
<mgrwt>
<rscale>  2 0.45119819E+03</rscale>
<asrwt>0</asrwt>
<pdfrwt beam="1">  1       21 0.19984483E-01 0.45119819E+03</pdfrwt>
<pdfrwt beam="2">  1       21 0.55076199E-01 0.45119819E+03</pdfrwt>
<totfact> 0.66529818E+04</totfact>
</mgrwt>
</event>
<event>
 7    0  0.4691878E-002  0.4542346E+03  0.7546771E-02  0.1026467E+00
         21   -1    0    0  502  501  0.00000000000E+00  0.00000000000E+00  0.98874459900E+03  0.98874459900E+03  0.00000000000E+00 0.  1.
         21   -1    0    0  501  502 -0.00000000000E+00 -0.00000000000E+00 -0.52169459983E+02  0.52169459983E+02  0.00000000000E+00 0.  1.
      99926    2    1    2    0    0  0.14210854715E-13  0.00000000000E+00  0.93657513902E+03  0.10409140590E+04  0.45423461687E+03 0.  0.
      99925    2    3    3    0    0 -0.91323135166E+02  0.65218777090E+02  0.60748028117E+03  0.67139499660E+03  0.26295540601E+03 0.  0.
         25    1    4    4    0    0 -0.36574122084E+02  0.66347598308E+02  0.26460955164E+03  0.30233324847E+03  0.12509000000E+03 0.  0.
         25    1    4    4    0    0 -0.54749013082E+02 -0.11288212177E+01  0.34287072953E+03  0.36906174814E+03  0.12509000000E+03 0.  0.
         25    1    3    3    0    0  0.91323135166E+02 -0.65218777090E+02  0.32909485784E+03  0.36951906238E+03  0.12509000000E+03 0.  0.
<mgrwt>
<rscale>  2 0.45423462E+03</rscale>
<asrwt>0</asrwt>
<pdfrwt beam="1">  1       21 0.14540361E+00 0.45423462E+03</pdfrwt>
<pdfrwt beam="2">  1       21 0.76719800E-02 0.45423462E+03</pdfrwt>
<totfact> 0.37838122E+04</totfact>
</mgrwt>
</event>
<event>
 7    0  0.4691878E-002  0.4481514E+03  0.7546771E-02  0.1028275E+00
         21   -1    0    0  502  501  0.00000000000E+00  0.00000000000E+00  0.11673040321E+04  0.11673040321E+04  0.00000000000E+00 0. -1.
         21   -1    0    0  501  502 -0.00000000000E+00 -0.00000000000E+00 -0.43013577145E+02  0.43013577145E+02  0.00000000000E+00 0. -1.
      99926    2    1    2    0    0  0.00000000000E+00  0.14210854715E-13  0.11242904550E+04  0.12103176092E+04  0.44815141208E+03 0.  0.
      99925    2    3    3    0    0  0.26944824642E+02 -0.93647088106E+02  0.83010418902E+03  0.87611876447E+03  0.26270767811E+03 0.  0.
         25    1    4    4    0    0 -0.92072511807E+01 -0.21182317471E+02  0.45653608380E+03  0.47392633178E+03  0.12509000000E+03 0.  0.
         25    1    3    3    0    0 -0.26944824642E+02  0.93647088106E+02  0.29418626594E+03  0.33419884478E+03  0.12509000000E+03 0.  0.
         25    1    4    4    0    0  0.36152075822E+02 -0.72464770635E+02  0.37356810522E+03  0.40219243269E+03  0.12509000000E+03 0.  0.
<mgrwt>
<rscale>  2 0.44815141E+03</rscale>
<asrwt>0</asrwt>
<pdfrwt beam="1">  1       21 0.17166234E+00 0.44815141E+03</pdfrwt>
<pdfrwt beam="2">  1       21 0.63255268E-02 0.44815141E+03</pdfrwt>
<totfact> 0.33586864E+04</totfact>
</mgrwt>
</event>
<event>
 7    0  0.4691878E-002  0.4412571E+03  0.7546771E-02  0.1030362E+00
         21   -1    0    0  502  501  0.00000000000E+00  0.00000000000E+00  0.95659252260E+03  0.95659252260E+03  0.00000000000E+00 0.  1.
         21   -1    0    0  501  502 -0.00000000000E+00 -0.00000000000E+00 -0.50885790000E+02  0.50885790000E+02  0.00000000000E+00 0.  1.
      99926    2    1    2    0    0  0.00000000000E+00  0.14210854715E-13  0.90570673260E+03  0.10074783126E+04  0.44125714145E+03 0.  0.
      99925    2    3    3    0    0  0.51545168531E+02  0.85387119698E+02  0.57113151585E+03  0.63661991863E+03  0.26295598072E+03 0.  0.
         25    1    4    4    0    0 -0.52218341584E+00  0.58942170472E+02  0.34497920105E+03  0.37166195581E+03  0.12509000000E+03 0.  0.
         25    1    4    4    0    0  0.52067351947E+02  0.26444949227E+02  0.22615231479E+03  0.26495796282E+03  0.12509000000E+03 0.  0.
         25    1    3    3    0    0 -0.51545168531E+02 -0.85387119698E+02  0.33457521675E+03  0.37085839396E+03  0.12509000000E+03 0.  0.
<mgrwt>
<rscale>  2 0.44125714E+03</rscale>
<asrwt>0</asrwt>
<pdfrwt beam="1">  1       21 0.14067536E+00 0.44125714E+03</pdfrwt>
<pdfrwt beam="2">  1       21 0.74832050E-02 0.44125714E+03</pdfrwt>
<totfact> 0.43345357E+04</totfact>
</mgrwt>
</event>
<event>
 7    0  0.4691878E-002  0.4490663E+03  0.7546771E-02  0.1028001E+00
         21   -1    0    0  502  501  0.00000000000E+00  0.00000000000E+00  0.25117319138E+03  0.25117319138E+03  0.00000000000E+00 0. -1.
         21   -1    0    0  501  502 -0.00000000000E+00 -0.00000000000E+00 -0.20071858488E+03  0.20071858488E+03  0.00000000000E+00 0. -1.
      99926    2    1    2    0    0 -0.14210854715E-13  0.00000000000E+00  0.50454606497E+02  0.45189177626E+03  0.44906626475E+03 0.  0.
      99925    2    3    3    0    0  0.70464349019E+02 -0.49937641164E+02  0.96343846256E+02  0.29310788881E+03  0.26300400241E+03 0.  0.
         25    1    4    4    0    0  0.24264821133E+02  0.13422732885E+02  0.32017794802E+02  0.13206664449E+03  0.12509000000E+03 0.  0.
         25    1    3    3    0    0 -0.70464349019E+02  0.49937641164E+02 -0.45889239758E+02  0.15878388745E+03  0.12509000000E+03 0.  0.
         25    1    4    4    0    0  0.46199527886E+02 -0.63360374049E+02  0.64326051454E+02  0.16104124432E+03  0.12509000000E+03 0.  0.
<mgrwt>
<rscale>  2 0.44906626E+03</rscale>
<asrwt>0</asrwt>
<pdfrwt beam="1">  1       21 0.36937234E-01 0.44906626E+03</pdfrwt>
<pdfrwt beam="2">  1       21 0.29517439E-01 0.44906626E+03</pdfrwt>
<totfact> 0.72128746E+04</totfact>
</mgrwt>
</event>
<event>
 7    0  0.4691878E-002  0.4539427E+03  0.7546771E-02  0.1026553E+00
         21   -1    0    0  502  501  0.00000000000E+00  0.00000000000E+00  0.18231954200E+03  0.18231954200E+03  0.00000000000E+00 0. -1.
         21   -1    0    0  501  502 -0.00000000000E+00 -0.00000000000E+00 -0.28255882449E+03  0.28255882449E+03  0.00000000000E+00 0. -1.
      99926    2    1    2    0    0  0.00000000000E+00 -0.71054273576E-14 -0.10023928249E+03  0.46487836648E+03  0.45394270770E+03 0.  0.
      99925    2    3    3    0    0  0.62534680308E+02 -0.54072133125E+02 -0.14078673650E+03  0.30955294697E+03  0.26299760451E+03 0.  0.
         25    1    4    4    0    0 -0.74891423994E+01 -0.10066526144E+02 -0.65475736668E+02  0.14174626060E+03  0.12509000000E+03 0.  0.
         25    1    4    4    0    0  0.70023822707E+02 -0.44005606981E+02 -0.75310999833E+02  0.16780668636E+03  0.12509000000E+03 0.  0.
         25    1    3    3    0    0 -0.62534680308E+02  0.54072133125E+02  0.40547454013E+02  0.15532541952E+03  0.12509000000E+03 0.  0.
<mgrwt>
<rscale>  2 0.45394271E+03</rscale>
<asrwt>0</asrwt>
<pdfrwt beam="1">  1       21 0.26811698E-01 0.45394271E+03</pdfrwt>
<pdfrwt beam="2">  1       21 0.41552768E-01 0.45394271E+03</pdfrwt>
<totfact> 0.68390767E+04</totfact>
</mgrwt>
</event>
<event>
 7    0  0.4691878E-002  0.4531103E+03  0.7546771E-02  0.1026799E+00
         21   -1    0    0  502  501  0.00000000000E+00  0.00000000000E+00  0.25202766133E+03  0.25202766133E+03  0.00000000000E+00 0.  1.
         21   -1    0    0  501  502 -0.00000000000E+00 -0.00000000000E+00 -0.20365712836E+03  0.20365712836E+03  0.00000000000E+00 0.  1.
      99926    2    1    2    0    0  0.00000000000E+00  0.00000000000E+00  0.48370532970E+02  0.45568478970E+03  0.45311027256E+03 0.  0.
      99925    2    3    3    0    0 -0.26990762622E+02 -0.94346299433E+02  0.84011453831E+02  0.29275072689E+03  0.26270770494E+03 0.  0.
         25    1    4    4    0    0 -0.13825598943E+02 -0.22396969757E+02  0.73526341618E+02  0.14746661470E+03  0.12509000000E+03 0.  0.
         25    1    4    4    0    0 -0.13165163679E+02 -0.71949329676E+02  0.10485112213E+02  0.14528411219E+03  0.12509000000E+03 0.  0.
         25    1    3    3    0    0  0.26990762622E+02  0.94346299433E+02 -0.35640920861E+02  0.16293406281E+03  0.12509000000E+03 0.  0.
<mgrwt>
<rscale>  2 0.45311027E+03</rscale>
<asrwt>0</asrwt>
<pdfrwt beam="1">  1       21 0.37062891E-01 0.45311027E+03</pdfrwt>
<pdfrwt beam="2">  1       21 0.29949578E-01 0.45311027E+03</pdfrwt>
<totfact> 0.69538159E+04</totfact>
</mgrwt>
</event>
<event>
 7    0  0.4691878E-002  0.4575505E+03  0.7546771E-02  0.1025494E+00
         21   -1    0    0  502  501  0.00000000000E+00  0.00000000000E+00  0.39476958863E+03  0.39476958863E+03  0.00000000000E+00 0.  1.
         21   -1    0    0  501  502 -0.00000000000E+00 -0.00000000000E+00 -0.13257889911E+03  0.13257889911E+03  0.00000000000E+00 0.  1.
      99926    2    1    2    0    0  0.00000000000E+00 -0.88817841970E-15  0.26219068952E+03  0.52734848775E+03  0.45755051072E+03 0.  0.
      99925    2    3    3    0    0  0.62268975441E+02  0.33559502651E+01  0.27668211787E+03  0.38682732457E+03  0.26304694824E+03 0.  0.
         25    1    3    3    0    0 -0.62268975441E+02 -0.33559502651E+01 -0.14491428351E+02  0.14052116318E+03  0.12509000000E+03 0.  0.
         25    1    4    4    0    0  0.22683698049E+02  0.41055422144E+02  0.14482146081E+03  0.19703010292E+03  0.12509000000E+03 0.  0.
         25    1    4    4    0    0  0.39585277392E+02 -0.37699471879E+02  0.13186065706E+03  0.18979722165E+03  0.12509000000E+03 0.  0.
<mgrwt>
<rscale>  2 0.45755051E+03</rscale>
<asrwt>0</asrwt>
<pdfrwt beam="1">  1       21 0.58054351E-01 0.45755051E+03</pdfrwt>
<pdfrwt beam="2">  1       21 0.19496897E-01 0.45755051E+03</pdfrwt>
<totfact> 0.62120886E+04</totfact>
</mgrwt>
</event>
<event>
 7    0  0.4691878E-002  0.4188926E+03  0.7546771E-02  0.1037427E+00
         21   -1    0    0  502  501  0.00000000000E+00  0.00000000000E+00  0.35075343163E+02  0.35075343163E+02  0.00000000000E+00 0.  1.
         21   -1    0    0  501  502 -0.00000000000E+00 -0.00000000000E+00 -0.12506720379E+04  0.12506720379E+04  0.00000000000E+00 0.  1.
      99926    2    1    2    0    0  0.00000000000E+00 -0.17763568394E-14 -0.12155966948E+04  0.12857473811E+04  0.41889259203E+03 0.  0.
      99925    2    3    3    0    0 -0.72761604685E+02 -0.12828419961E+02 -0.76717047432E+03  0.81437448968E+03  0.26305218740E+03 0.  0.
         25    1    4    4    0    0 -0.48434128980E+02  0.31494263623E+02 -0.36243021141E+03  0.38773821031E+03  0.12509000000E+03 0.  0.
         25    1    3    3    0    0  0.72761604685E+02  0.12828419961E+02 -0.44842622046E+03  0.47137289142E+03  0.12509000000E+03 0.  0.
         25    1    4    4    0    0 -0.24327475705E+02 -0.44322683584E+02 -0.40474026291E+03  0.42663627937E+03  0.12509000000E+03 0.  0.
<mgrwt>
<rscale>  2 0.41889259E+03</rscale>
<asrwt>0</asrwt>
<pdfrwt beam="1">  1       21 0.51581391E-02 0.41889259E+03</pdfrwt>
<pdfrwt beam="2">  1       21 0.18392234E+00 0.41889259E+03</pdfrwt>
<totfact> 0.39518596E+04</totfact>
</mgrwt>
</event>
<event>
 7    0  0.4691878E-002  0.4532402E+03  0.7546771E-02  0.1026760E+00
         21   -1    0    0  502  501  0.00000000000E+00  0.00000000000E+00  0.70785696856E+02  0.70785696856E+02  0.00000000000E+00 0.  1.
         21   -1    0    0  501  502 -0.00000000000E+00 -0.00000000000E+00 -0.72552342128E+03  0.72552342128E+03  0.00000000000E+00 0.  1.
      99926    2    1    2    0    0 -0.17763568394E-14  0.00000000000E+00 -0.65473772443E+03  0.79630911814E+03  0.45324024958E+03 0.  0.
      99925    2    3    3    0    0 -0.13280455889E+02  0.42262693331E+02 -0.23273139045E+03  0.35392991455E+03  0.26294482036E+03 0.  0.
         25    1    4    4    0    0 -0.20032998263E+01  0.34036872956E+02 -0.67359169946E+02  0.14610711073E+03  0.12509000000E+03 0.  0.
         25    1    4    4    0    0 -0.11277156063E+02  0.82258203747E+01 -0.16537222050E+03  0.20782280381E+03  0.12509000000E+03 0.  0.
         25    1    3    3    0    0  0.13280455889E+02 -0.42262693331E+02 -0.42200633398E+03  0.44237920359E+03  0.12509000000E+03 0.  0.
<mgrwt>
<rscale>  2 0.45324025E+03</rscale>
<asrwt>0</asrwt>
<pdfrwt beam="1">  1       21 0.10409662E-01 0.45324025E+03</pdfrwt>
<pdfrwt beam="2">  1       21 0.10669462E+00 0.45324025E+03</pdfrwt>
<totfact> 0.48611743E+04</totfact>
</mgrwt>
</event>
<event>
 7    0  0.4691878E-002  0.4597340E+03  0.7546771E-02  0.1024858E+00
         21   -1    0    0  502  501  0.00000000000E+00  0.00000000000E+00  0.30205557940E+03  0.30205557940E+03  0.00000000000E+00 0.  1.
         21   -1    0    0  501  502 -0.00000000000E+00 -0.00000000000E+00 -0.17493081393E+03  0.17493081393E+03  0.00000000000E+00 0.  1.
      99926    2    1    2    0    0  0.00000000000E+00  0.35527136788E-14  0.12712476547E+03  0.47698639333E+03  0.45973395939E+03 0.  0.
      99925    2    3    3    0    0 -0.10667891352E+03  0.31907442307E+02  0.40811876715E+02  0.28858284153E+03  0.26308928461E+03 0.  0.
         25    1    4    4    0    0 -0.38829377015E+02  0.53993145052E+02  0.20803942060E+02  0.14318970751E+03  0.12509000000E+03 0.  0.
         25    1    4    4    0    0 -0.67849536504E+02 -0.22085702745E+02  0.20007934655E+02  0.14539313402E+03  0.12509000000E+03 0.  0.
         25    1    3    3    0    0  0.10667891352E+03 -0.31907442307E+02  0.86312888760E+02  0.18840355180E+03  0.12509000000E+03 0.  0.
<mgrwt>
<rscale>  2 0.45973396E+03</rscale>
<asrwt>0</asrwt>
<pdfrwt beam="1">  1       21 0.44419939E-01 0.45973396E+03</pdfrwt>
<pdfrwt beam="2">  1       21 0.25725119E-01 0.45973396E+03</pdfrwt>
<totfact> 0.64464226E+04</totfact>
</mgrwt>
</event>
<event>
 7    0  0.4691878E-002  0.4541747E+03  0.7546771E-02  0.1026484E+00
         21   -1    0    0  502  501  0.00000000000E+00  0.00000000000E+00  0.59036752983E+03  0.59036752983E+03  0.00000000000E+00 0.  1.
         21   -1    0    0  501  502 -0.00000000000E+00 -0.00000000000E+00 -0.87350091260E+02  0.87350091260E+02  0.00000000000E+00 0.  1.
      99926    2    1    2    0    0  0.00000000000E+00 -0.35527136788E-14  0.50301743857E+03  0.67771762109E+03  0.45417466951E+03 0.  0.
      99925    2    3    3    0    0  0.48092386412E+02  0.14910599859E+02  0.46653147816E+03  0.53802532700E+03  0.26321935485E+03 0.  0.
         25    1    3    3    0    0 -0.48092386412E+02 -0.14910599859E+02  0.36485960407E+02  0.13969229408E+03  0.12509000000E+03 0.  0.
         25    1    4    4    0    0  0.55774936347E+02 -0.18597648835E+02  0.24563080965E+03  0.28184875166E+03  0.12509000000E+03 0.  0.
         25    1    4    4    0    0 -0.76825499357E+01  0.33508248694E+02  0.22090066851E+03  0.25617657534E+03  0.12509000000E+03 0.  0.
<mgrwt>
<rscale>  2 0.45417467E+03</rscale>
<asrwt>0</asrwt>
<pdfrwt beam="1">  1       21 0.86818752E-01 0.45417467E+03</pdfrwt>
<pdfrwt beam="2">  1       21 0.12845602E-01 0.45417467E+03</pdfrwt>
<totfact> 0.54483295E+04</totfact>
</mgrwt>
</event>
<event>
 7    0  0.4691878E-002  0.4482347E+03  0.7546771E-02  0.1028250E+00
         21   -1    0    0  502  501  0.00000000000E+00  0.00000000000E+00  0.22055952186E+02  0.22055952186E+02  0.00000000000E+00 0. -1.
         21   -1    0    0  501  502 -0.00000000000E+00 -0.00000000000E+00 -0.22773252380E+04  0.22773252380E+04  0.00000000000E+00 0. -1.
      99926    2    1    2    0    0  0.14210854715E-13 -0.88817841970E-15 -0.22552692858E+04  0.22993811902E+04  0.44823465534E+03 0.  0.
      99925    2    3    3    0    0  0.10403129531E+03  0.56769663174E+01 -0.13108051705E+04  0.13409894584E+04  0.26303572793E+03 0.  0.
         25    1    4    4    0    0  0.28072622352E+02  0.30031232437E+02 -0.71251922003E+03  0.72458339344E+03  0.12509000000E+03 0.  0.
         25    1    3    3    0    0 -0.10403129531E+03 -0.56769663174E+01 -0.94446411536E+03  0.95839173184E+03  0.12509000000E+03 0.  0.
         25    1    4    4    0    0  0.75958672955E+02 -0.24354266119E+02 -0.59828595046E+03  0.61640606493E+03  0.12509000000E+03 0.  0.
<mgrwt>
<rscale>  2 0.44823466E+03</rscale>
<asrwt>0</asrwt>
<pdfrwt beam="1">  1       21 0.32435225E-02 0.44823466E+03</pdfrwt>
<pdfrwt beam="2">  1       21 0.33490076E+00 0.44823466E+03</pdfrwt>
<totfact> 0.99199941E+03</totfact>
</mgrwt>
</event>
<event>
 7    0  0.4691878E-002  0.4560674E+03  0.7546771E-02  0.1025928E+00
         21   -1    0    0  502  501  0.00000000000E+00  0.00000000000E+00  0.33941666567E+02  0.33941666567E+02  0.00000000000E+00 0.  1.
         21   -1    0    0  501  502 -0.00000000000E+00 -0.00000000000E+00 -0.15320216740E+04  0.15320216740E+04  0.00000000000E+00 0.  1.
      99926    2    1    2    0    0  0.14210854715E-13 -0.88817841970E-15 -0.14980800074E+04  0.15659633406E+04  0.45606740218E+03 0.  0.
      99925    2    3    3    0    0  0.99442489140E+02  0.79836743198E+01 -0.75143283487E+03  0.80236524203E+03  0.26303256184E+03 0.  0.
         25    1    4    4    0    0  0.45230488925E+02 -0.35970392972E+02 -0.38632344387E+03  0.41016213585E+03  0.12509000000E+03 0.  0.
         25    1    3    3    0    0 -0.99442489140E+02 -0.79836743198E+01 -0.74664717257E+03  0.76359809855E+03  0.12509000000E+03 0.  0.
         25    1    4    4    0    0  0.54212000216E+02  0.43954067292E+02 -0.36510939100E+03  0.39220310618E+03  0.12509000000E+03 0.  0.
<mgrwt>
<rscale>  2 0.45606740E+03</rscale>
<asrwt>0</asrwt>
<pdfrwt beam="1">  1       21 0.49914216E-02 0.45606740E+03</pdfrwt>
<pdfrwt beam="2">  1       21 0.22529731E+00 0.45606740E+03</pdfrwt>
<totfact> 0.22024664E+04</totfact>
</mgrwt>
</event>
<event>
 7    0  0.4691878E-002  0.4599054E+03  0.7546771E-02  0.1024809E+00
         21   -1    0    0  502  501  0.00000000000E+00  0.00000000000E+00  0.15862290227E+03  0.15862290227E+03  0.00000000000E+00 0.  1.
         21   -1    0    0  501  502 -0.00000000000E+00 -0.00000000000E+00 -0.33335815371E+03  0.33335815371E+03  0.00000000000E+00 0.  1.
      99926    2    1    2    0    0  0.00000000000E+00  0.00000000000E+00 -0.17473525145E+03  0.49198105598E+03  0.45990537217E+03 0.  0.
      99925    2    3    3    0    0 -0.98300429956E+02 -0.52676831654E+02 -0.14974015996E+03  0.32254054778E+03  0.26300658990E+03 0.  0.
         25    1    4    4    0    0 -0.66501628362E+02 -0.11275985783E+02 -0.38626401048E+02  0.14727226958E+03  0.12509000000E+03 0.  0.
         25    1    3    3    0    0  0.98300429956E+02  0.52676831654E+02 -0.24995091489E+02  0.16944050821E+03  0.12509000000E+03 0.  0.
         25    1    4    4    0    0 -0.31798801594E+02 -0.41400845871E+02 -0.11111375891E+03  0.17526827819E+03  0.12509000000E+03 0.  0.
<mgrwt>
<rscale>  2 0.45990537E+03</rscale>
<asrwt>0</asrwt>
<pdfrwt beam="1">  1       21 0.23326898E-01 0.45990537E+03</pdfrwt>
<pdfrwt beam="2">  1       21 0.49023257E-01 0.45990537E+03</pdfrwt>
<totfact> 0.63335203E+04</totfact>
</mgrwt>
</event>
<event>
 7    0  0.4691878E-002  0.4557561E+03  0.7546771E-02  0.1026019E+00
         21   -1    0    0  502  501  0.00000000000E+00  0.00000000000E+00  0.78880807768E+03  0.78880807768E+03  0.00000000000E+00 0. -1.
         21   -1    0    0  501  502 -0.00000000000E+00 -0.00000000000E+00 -0.65831488006E+02  0.65831488006E+02  0.00000000000E+00 0. -1.
      99926    2    1    2    0    0 -0.35527136788E-14  0.35527136788E-14  0.72297658967E+03  0.85463956569E+03  0.45575611682E+03 0.  0.
      99925    2    3    3    0    0  0.21334618604E+02  0.23517308884E+02  0.65970558484E+03  0.71090732184E+03  0.26300101104E+03 0.  0.
         25    1    3    3    0    0 -0.21334618604E+02 -0.23517308884E+02  0.63271004832E+02  0.14373224384E+03  0.12509000000E+03 0.  0.
         25    1    4    4    0    0  0.36876791217E+02  0.34348214701E+02  0.39794602985E+03  0.42017644908E+03  0.12509000000E+03 0.  0.
         25    1    4    4    0    0 -0.15542172613E+02 -0.10830905817E+02  0.26175955499E+03  0.29073087276E+03  0.12509000000E+03 0.  0.
<mgrwt>
<rscale>  2 0.45575612E+03</rscale>
<asrwt>0</asrwt>
<pdfrwt beam="1">  1       21 0.11600118E+00 0.45575612E+03</pdfrwt>
<pdfrwt beam="2">  1       21 0.96811016E-02 0.45575612E+03</pdfrwt>
<totfact> 0.44965250E+04</totfact>
</mgrwt>
</event>
<event>
 7    0  0.4691878E-002  0.4591925E+03  0.7546771E-02  0.1025016E+00
         21   -1    0    0  502  501  0.00000000000E+00  0.00000000000E+00  0.44244165968E+03  0.44244165968E+03  0.00000000000E+00 0. -1.
         21   -1    0    0  501  502 -0.00000000000E+00 -0.00000000000E+00 -0.11914439662E+03  0.11914439662E+03  0.00000000000E+00 0. -1.
      99926    2    1    2    0    0 -0.17763568394E-14  0.00000000000E+00  0.32329726307E+03  0.56158605630E+03  0.45919252860E+03 0.  0.
      99925    2    3    3    0    0 -0.13935061696E+02 -0.96974215904E+02  0.12816583515E+03  0.30994749257E+03  0.26465596981E+03 0.  0.
         25    1    4    4    0    0  0.34356781582E+01 -0.70317311820E+01  0.39867916102E+02  0.13152265190E+03  0.12509000000E+03 0.  0.
         25    1    3    3    0    0  0.13935061696E+02  0.96974215904E+02  0.19513142791E+03  0.25163856373E+03  0.12509000000E+03 0.  0.
         25    1    4    4    0    0 -0.17370739854E+02 -0.89942484722E+02  0.88297919050E+02  0.17842484067E+03  0.12509000000E+03 0.  0.
<mgrwt>
<rscale>  2 0.45919253E+03</rscale>
<asrwt>0</asrwt>
<pdfrwt beam="1">  1       21 0.65064949E-01 0.45919253E+03</pdfrwt>
<pdfrwt beam="2">  1       21 0.17521235E-01 0.45919253E+03</pdfrwt>
<totfact> 0.59122223E+04</totfact>
</mgrwt>
</event>
<event>
 7    0  0.4691878E-002  0.4698988E+03  0.7546771E-02  0.1021949E+00
         21   -1    0    0  502  501  0.00000000000E+00  0.00000000000E+00  0.23603611516E+04  0.23603611516E+04  0.00000000000E+00 0.  1.
         21   -1    0    0  501  502 -0.00000000000E+00 -0.00000000000E+00 -0.23386766391E+02  0.23386766391E+02  0.00000000000E+00 0.  1.
      99926    2    1    2    0    0  0.00000000000E+00  0.00000000000E+00  0.23369743852E+04  0.23837479180E+04  0.46989877570E+03 0.  0.
      99925    2    3    3    0    0  0.91736653620E+02  0.76575686163E+02  0.16634573641E+04  0.16883687875E+04  0.26309563095E+03 0.  0.
         25    1    4    4    0    0  0.54165996750E+02  0.18273395504E+02  0.61437771719E+03  0.62958348109E+03  0.12509000000E+03 0.  0.
         25    1    4    4    0    0  0.37570656869E+02  0.58302290660E+02  0.10490796469E+04  0.10587853064E+04  0.12509000000E+03 0.  0.
         25    1    3    3    0    0 -0.91736653620E+02 -0.76575686163E+02  0.67351702110E+03  0.69537913050E+03  0.12509000000E+03 0.  0.
<mgrwt>
<rscale>  2 0.46989878E+03</rscale>
<asrwt>0</asrwt>
<pdfrwt beam="1">  1       21 0.34711177E+00 0.46989878E+03</pdfrwt>
<pdfrwt beam="2">  1       21 0.34392320E-02 0.46989878E+03</pdfrwt>
<totfact> 0.74900278E+03</totfact>
</mgrwt>
</event>
<event>
 7    0  0.4691878E-002  0.4531291E+03  0.7546771E-02  0.1026793E+00
         21   -1    0    0  502  501  0.00000000000E+00  0.00000000000E+00  0.19172847035E+03  0.19172847035E+03  0.00000000000E+00 0. -1.
         21   -1    0    0  501  502 -0.00000000000E+00 -0.00000000000E+00 -0.26773017753E+03  0.26773017753E+03  0.00000000000E+00 0. -1.
      99926    2    1    2    0    0  0.00000000000E+00  0.00000000000E+00 -0.76001707178E+02  0.45945864788E+03  0.45312910921E+03 0.  0.
      99925    2    3    3    0    0  0.88459225175E+02  0.67733445742E+02 -0.44617003985E+02  0.28903164918E+03  0.26293680418E+03 0.  0.
         25    1    4    4    0    0  0.12845756862E+02  0.54631602913E+02 -0.37346806046E+02  0.14209826715E+03  0.12509000000E+03 0.  0.
         25    1    4    4    0    0  0.75613468313E+02  0.13101842829E+02 -0.72701979391E+01  0.14693338203E+03  0.12509000000E+03 0.  0.
         25    1    3    3    0    0 -0.88459225175E+02 -0.67733445742E+02 -0.31384703193E+02  0.17042699870E+03  0.12509000000E+03 0.  0.
<mgrwt>
<rscale>  2 0.45312911E+03</rscale>
<asrwt>0</asrwt>
<pdfrwt beam="1">  1       21 0.28195364E-01 0.45312911E+03</pdfrwt>
<pdfrwt beam="2">  1       21 0.39372084E-01 0.45312911E+03</pdfrwt>
<totfact> 0.69247318E+04</totfact>
</mgrwt>
</event>
<event>
 7    0  0.4691878E-002  0.4363838E+03  0.7546771E-02  0.1031862E+00
         21   -1    0    0  502  501  0.00000000000E+00  0.00000000000E+00  0.51600762762E+02  0.51600762762E+02  0.00000000000E+00 0. -1.
         21   -1    0    0  501  502 -0.00000000000E+00 -0.00000000000E+00 -0.92261613244E+03  0.92261613244E+03  0.00000000000E+00 0. -1.
      99926    2    1    2    0    0  0.71054273576E-14 -0.35527136788E-14 -0.87101536968E+03  0.97421689520E+03  0.43638375850E+03 0.  0.
      99925    2    3    3    0    0 -0.62500389796E+02  0.30659141546E+02 -0.41456348786E+03  0.49584244961E+03  0.26296495523E+03 0.  0.
         25    1    4    4    0    0 -0.51986322668E+02  0.21473672863E+02 -0.15239742259E+03  0.20502726376E+03  0.12509000000E+03 0.  0.
         25    1    4    4    0    0 -0.10514067128E+02  0.91854686833E+01 -0.26216606527E+03  0.29081518585E+03  0.12509000000E+03 0.  0.
         25    1    3    3    0    0  0.62500389796E+02 -0.30659141546E+02 -0.45645188182E+03  0.47837444560E+03  0.12509000000E+03 0.  0.
<mgrwt>
<rscale>  2 0.43638376E+03</rscale>
<asrwt>0</asrwt>
<pdfrwt beam="1">  1       21 0.75883472E-02 0.43638376E+03</pdfrwt>
<pdfrwt beam="2">  1       21 0.13567885E+00 0.43638376E+03</pdfrwt>
<totfact> 0.46595854E+04</totfact>
</mgrwt>
</event>
<event>
 7    0  0.4691878E-002  0.4509036E+03  0.7546771E-02  0.1027453E+00
         21   -1    0    0  502  501  0.00000000000E+00  0.00000000000E+00  0.31799331565E+03  0.31799331565E+03  0.00000000000E+00 0. -1.
         21   -1    0    0  501  502 -0.00000000000E+00 -0.00000000000E+00 -0.15984148075E+03  0.15984148075E+03  0.00000000000E+00 0. -1.
      99926    2    1    2    0    0  0.00000000000E+00  0.00000000000E+00  0.15815183491E+03  0.47783479640E+03  0.45090363689E+03 0.  0.
      99925    2    3    3    0    0 -0.37256576672E+02  0.84400810478E+02  0.16228815848E+03  0.32234792690E+03  0.26279115334E+03 0.  0.
         25    1    3    3    0    0  0.37256576672E+02 -0.84400810478E+02 -0.41363235755E+01  0.15548686950E+03  0.12509000000E+03 0.  0.
         25    1    4    4    0    0 -0.17999584947E+02  0.12204366679E+02  0.43036314916E+02  0.13406179219E+03  0.12509000000E+03 0.  0.
         25    1    4    4    0    0 -0.19256991725E+02  0.72196443799E+02  0.11925184357E+03  0.18828613470E+03  0.12509000000E+03 0.  0.
<mgrwt>
<rscale>  2 0.45090364E+03</rscale>
<asrwt>0</asrwt>
<pdfrwt beam="1">  1       21 0.46763723E-01 0.45090364E+03</pdfrwt>
<pdfrwt beam="2">  1       21 0.23506100E-01 0.45090364E+03</pdfrwt>
<totfact> 0.69076894E+04</totfact>
</mgrwt>
</event>
<event>
 7    0  0.4691878E-002  0.4553592E+03  0.7546771E-02  0.1026136E+00
         21   -1    0    0  502  501  0.00000000000E+00  0.00000000000E+00  0.30897019034E+03  0.30897019034E+03  0.00000000000E+00 0. -1.
         21   -1    0    0  501  502 -0.00000000000E+00 -0.00000000000E+00 -0.16777668339E+03  0.16777668339E+03  0.00000000000E+00 0. -1.
      99926    2    1    2    0    0 -0.71054273576E-14  0.00000000000E+00  0.14119350695E+03  0.47674687373E+03  0.45535917166E+03 0.  0.
      99925    2    3    3    0    0  0.59715668490E+02  0.96036601874E+02  0.97716530715E+02  0.30260111431E+03  0.26311579969E+03 0.  0.
         25    1    3    3    0    0 -0.59715668490E+02 -0.96036601874E+02  0.43476976233E+02  0.17414575942E+03  0.12509000000E+03 0.  0.
         25    1    4    4    0    0  0.58256478118E+02  0.81609018867E+02  0.49938105532E+02  0.16791417953E+03  0.12509000000E+03 0.  0.
         25    1    4    4    0    0  0.14591903713E+01  0.14427583006E+02  0.47778425183E+02  0.13468693478E+03  0.12509000000E+03 0.  0.
<mgrwt>
<rscale>  2 0.45535917E+03</rscale>
<asrwt>0</asrwt>
<pdfrwt beam="1">  1       21 0.45436793E-01 0.45535917E+03</pdfrwt>
<pdfrwt beam="2">  1       21 0.24673041E-01 0.45535917E+03</pdfrwt>
<totfact> 0.66747205E+04</totfact>
</mgrwt>
</event>
<event>
 7    0  0.4691878E-002  0.4537572E+03  0.7546771E-02  0.1026607E+00
         21   -1    0    0  502  501  0.00000000000E+00  0.00000000000E+00  0.94131187483E+03  0.94131187483E+03  0.00000000000E+00 0. -1.
         21   -1    0    0  501  502 -0.00000000000E+00 -0.00000000000E+00 -0.54683160082E+02  0.54683160082E+02  0.00000000000E+00 0. -1.
      99926    2    1    2    0    0  0.00000000000E+00 -0.14210854715E-13  0.88662871475E+03  0.99599503491E+03  0.45375723879E+03 0.  0.
      99925    2    3    3    0    0  0.29250106128E+01 -0.11146723625E+03  0.58515202209E+03  0.65107590706E+03  0.26279925295E+03 0.  0.
         25    1    3    3    0    0 -0.29250106128E+01  0.11146723625E+03  0.30147669266E+03  0.34491912786E+03  0.12509000000E+03 0.  0.
         25    1    4    4    0    0 -0.56925531843E+01 -0.18225190546E+02  0.30668407130E+03  0.33176375694E+03  0.12509000000E+03 0.  0.
         25    1    4    4    0    0  0.86175637971E+01 -0.93242045703E+02  0.27846795079E+03  0.31931215011E+03  0.12509000000E+03 0.  0.
<mgrwt>
<rscale>  2 0.45375724E+03</rscale>
<asrwt>0</asrwt>
<pdfrwt beam="1">  1       21 0.13842821E+00 0.45375724E+03</pdfrwt>
<pdfrwt beam="2">  1       21 0.80416418E-02 0.45375724E+03</pdfrwt>
<totfact> 0.39706933E+04</totfact>
</mgrwt>
</event>
<event>
 7    0  0.4691878E-002  0.4223876E+03  0.7546771E-02  0.1036292E+00
         21   -1    0    0  502  501  0.00000000000E+00  0.00000000000E+00  0.68209039493E+03  0.68209039493E+03  0.00000000000E+00 0.  1.
         21   -1    0    0  501  502 -0.00000000000E+00 -0.00000000000E+00 -0.65391363679E+02  0.65391363679E+02  0.00000000000E+00 0.  1.
      99926    2    1    2    0    0  0.00000000000E+00  0.35527136788E-14  0.61669903125E+03  0.74748175860E+03  0.42238759961E+03 0.  0.
      99925    2    3    3    0    0  0.75691000676E+02  0.16829118028E+02  0.42544650584E+03  0.50615752987E+03  0.26301781103E+03 0.  0.
         25    1    4    4    0    0  0.47730678883E+02  0.38597070355E+02  0.17243205335E+03  0.22169409705E+03  0.12509000000E+03 0.  0.
         25    1    3    3    0    0 -0.75691000676E+02 -0.16829118028E+02  0.19125252541E+03  0.24132422873E+03  0.12509000000E+03 0.  0.
         25    1    4    4    0    0  0.27960321793E+02 -0.21767952327E+02  0.25301445249E+03  0.28446343282E+03  0.12509000000E+03 0.  0.
<mgrwt>
<rscale>  2 0.42238760E+03</rscale>
<asrwt>0</asrwt>
<pdfrwt beam="1">  1       21 0.10030741E+00 0.42238760E+03</pdfrwt>
<pdfrwt beam="2">  1       21 0.96163774E-02 0.42238760E+03</pdfrwt>
<totfact> 0.65684189E+04</totfact>
</mgrwt>
</event>
<event>
 7    0  0.4691878E-002  0.4546985E+03  0.7546771E-02  0.1026330E+00
         21   -1    0    0  502  501  0.00000000000E+00  0.00000000000E+00  0.37231089874E+03  0.37231089874E+03  0.00000000000E+00 0. -1.
         21   -1    0    0  501  502 -0.00000000000E+00 -0.00000000000E+00 -0.13882933768E+03  0.13882933768E+03  0.00000000000E+00 0. -1.
      99926    2    1    2    0    0  0.14210854715E-13 -0.71054273576E-14  0.23348156106E+03  0.51114023642E+03  0.45469847364E+03 0.  0.
      99925    2    3    3    0    0  0.10693844074E+03 -0.35969434182E+02  0.14338991817E+03  0.32010714368E+03  0.26301765055E+03 0.  0.
         25    1    3    3    0    0 -0.10693844074E+03  0.35969434182E+02  0.90091642881E+02  0.19103309273E+03  0.12509000000E+03 0.  0.
         25    1    4    4    0    0  0.27514777125E+02 -0.67126180715E+01  0.10095977953E+03  0.16322532703E+03  0.12509000000E+03 0.  0.
         25    1    4    4    0    0  0.79423663612E+02 -0.29256816111E+02  0.42430138646E+02  0.15688181665E+03  0.12509000000E+03 0.  0.
<mgrwt>
<rscale>  2 0.45469847E+03</rscale>
<asrwt>0</asrwt>
<pdfrwt beam="1">  1       21 0.54751603E-01 0.45469847E+03</pdfrwt>
<pdfrwt beam="2">  1       21 0.20416079E-01 0.45469847E+03</pdfrwt>
<totfact> 0.64649461E+04</totfact>
</mgrwt>
</event>
<event>
 7    0  0.4691878E-002  0.4531123E+03  0.7546771E-02  0.1026798E+00
         21   -1    0    0  502  501  0.00000000000E+00  0.00000000000E+00  0.24863043601E+03  0.24863043601E+03  0.00000000000E+00 0. -1.
         21   -1    0    0  501  502 -0.00000000000E+00 -0.00000000000E+00 -0.20644165204E+03  0.20644165204E+03  0.00000000000E+00 0. -1.
      99926    2    1    2    0    0  0.00000000000E+00  0.00000000000E+00  0.42188783976E+02  0.45507208805E+03  0.45311225081E+03 0.  0.
      99925    2    3    3    0    0  0.46953568171E+02 -0.83956376363E+02  0.83174942902E+02  0.29203625144E+03  0.26289501770E+03 0.  0.
         25    1    4    4    0    0  0.64200595087E+02 -0.47348742672E+02  0.40065863877E+02  0.15367628766E+03  0.12509000000E+03 0.  0.
         25    1    3    3    0    0 -0.46953568171E+02  0.83956376363E+02 -0.40986158926E+02  0.16303583661E+03  0.12509000000E+03 0.  0.
         25    1    4    4    0    0 -0.17247026916E+02 -0.36607633692E+02  0.43109079025E+02  0.13835996378E+03  0.12509000000E+03 0.  0.
<mgrwt>
<rscale>  2 0.45311225E+03</rscale>
<asrwt>0</asrwt>
<pdfrwt beam="1">  1       21 0.36563300E-01 0.45311225E+03</pdfrwt>
<pdfrwt beam="2">  1       21 0.30359066E-01 0.45311225E+03</pdfrwt>
<totfact> 0.69582659E+04</totfact>
</mgrwt>
</event>
<event>
 7    0  0.4691878E-002  0.4465037E+03  0.7546771E-02  0.1028770E+00
         21   -1    0    0  502  501  0.00000000000E+00  0.00000000000E+00  0.13770988142E+03  0.13770988142E+03  0.00000000000E+00 0. -1.
         21   -1    0    0  501  502 -0.00000000000E+00 -0.00000000000E+00 -0.36193043771E+03  0.36193043771E+03  0.00000000000E+00 0. -1.
      99926    2    1    2    0    0  0.00000000000E+00  0.00000000000E+00 -0.22422055629E+03  0.49964031912E+03  0.44650374090E+03 0.  0.
      99925    2    3    3    0    0  0.21074501954E+02 -0.10164211067E+03 -0.15965854562E+03  0.32473744718E+03  0.26303669919E+03 0.  0.
         25    1    4    4    0    0  0.29946699711E+02 -0.74543681933E+02 -0.52785940053E+02  0.15775750032E+03  0.12509000000E+03 0.  0.
         25    1    3    3    0    0 -0.21074501954E+02  0.10164211067E+03 -0.64562010664E+02  0.17490287194E+03  0.12509000000E+03 0.  0.
         25    1    4    4    0    0 -0.88721977570E+01 -0.27098428733E+02 -0.10687260557E+03  0.16697994686E+03  0.12509000000E+03 0.  0.
<mgrwt>
<rscale>  2 0.44650374E+03</rscale>
<asrwt>0</asrwt>
<pdfrwt beam="1">  1       21 0.20251453E-01 0.44650374E+03</pdfrwt>
<pdfrwt beam="2">  1       21 0.53225064E-01 0.44650374E+03</pdfrwt>
<totfact> 0.69891681E+04</totfact>
</mgrwt>
</event>
<event>
 7    0  0.4691878E-002  0.4558480E+03  0.7546771E-02  0.1025992E+00
         21   -1    0    0  502  501  0.00000000000E+00  0.00000000000E+00  0.62135656755E+03  0.62135656755E+03  0.00000000000E+00 0.  1.
         21   -1    0    0  501  502 -0.00000000000E+00 -0.00000000000E+00 -0.83606344223E+02  0.83606344223E+02  0.00000000000E+00 0.  1.
      99926    2    1    2    0    0  0.00000000000E+00 -0.17763568394E-14  0.53775022333E+03  0.70496291178E+03  0.45584800569E+03 0.  0.
      99925    2    3    3    0    0  0.10895814505E+03 -0.11437612338E+02  0.28905725792E+03  0.40580008739E+03  0.26290096276E+03 0.  0.
         25    1    4    4    0    0  0.63870200189E+02  0.23141969221E+02  0.10886042642E+03  0.17920115444E+03  0.12509000000E+03 0.  0.
         25    1    3    3    0    0 -0.10895814505E+03  0.11437612338E+02  0.24869296541E+03  0.29916282439E+03  0.12509000000E+03 0.  0.
         25    1    4    4    0    0  0.45087944865E+02 -0.34579581559E+02  0.18019683150E+03  0.22659893295E+03  0.12509000000E+03 0.  0.
<mgrwt>
<rscale>  2 0.45584801E+03</rscale>
<asrwt>0</asrwt>
<pdfrwt beam="1">  1       21 0.91375964E-01 0.45584801E+03</pdfrwt>
<pdfrwt beam="2">  1       21 0.12295051E-01 0.45584801E+03</pdfrwt>
<totfact> 0.52284573E+04</totfact>
</mgrwt>
</event>
<event>
 7    0  0.4691878E-002  0.4539183E+03  0.7546771E-02  0.1026560E+00
         21   -1    0    0  502  501  0.00000000000E+00  0.00000000000E+00  0.39090149043E+03  0.39090149043E+03  0.00000000000E+00 0. -1.
         21   -1    0    0  501  502 -0.00000000000E+00 -0.00000000000E+00 -0.13177348327E+03  0.13177348327E+03  0.00000000000E+00 0. -1.
      99926    2    1    2    0    0  0.00000000000E+00  0.00000000000E+00  0.25912800716E+03  0.52267497371E+03  0.45391827904E+03 0.  0.
      99925    2    3    3    0    0  0.72181641746E+02 -0.18679743320E+02  0.25946127931E+03  0.37704962775E+03  0.26322451274E+03 0.  0.
         25    1    4    4    0    0  0.40766274337E+02 -0.13068773180E+02  0.18696740328E+03  0.22899126609E+03  0.12509000000E+03 0.  0.
         25    1    3    3    0    0 -0.72181641746E+02  0.18679743320E+02 -0.33327214265E+00  0.14562534596E+03  0.12509000000E+03 0.  0.
         25    1    4    4    0    0  0.31415367409E+02 -0.56109701403E+01  0.72493876025E+02  0.14805836166E+03  0.12509000000E+03 0.  0.
<mgrwt>
<rscale>  2 0.45391828E+03</rscale>
<asrwt>0</asrwt>
<pdfrwt beam="1">  1       21 0.57485513E-01 0.45391828E+03</pdfrwt>
<pdfrwt beam="2">  1       21 0.19378454E-01 0.45391828E+03</pdfrwt>
<totfact> 0.64254319E+04</totfact>
</mgrwt>
</event>
<event>
 7    0  0.4691878E-002  0.4332819E+03  0.7546771E-02  0.1032828E+00
         21   -1    0    0  502  501  0.00000000000E+00  0.00000000000E+00  0.40176309507E+03  0.40176309507E+03  0.00000000000E+00 0. -1.
         21   -1    0    0  501  502 -0.00000000000E+00 -0.00000000000E+00 -0.11681832940E+03  0.11681832940E+03  0.00000000000E+00 0. -1.
      99926    2    1    2    0    0  0.00000000000E+00  0.00000000000E+00  0.28494476568E+03  0.51858142447E+03  0.43328186474E+03 0.  0.
      99925    2    3    3    0    0 -0.53564016585E+02 -0.59839101318E+02  0.13131446646E+03  0.30480677944E+03  0.26308527472E+03 0.  0.
         25    1    4    4    0    0 -0.44609225166E+02 -0.44750146932E+02  0.10664508034E+03  0.17610576334E+03  0.12509000000E+03 0.  0.
         25    1    3    3    0    0  0.53564016585E+02  0.59839101318E+02  0.15363029921E+03  0.21377464503E+03  0.12509000000E+03 0.  0.
         25    1    4    4    0    0 -0.89547914198E+01 -0.15088954386E+02  0.24669386118E+02  0.12870101610E+03  0.12509000000E+03 0.  0.
<mgrwt>
<rscale>  2 0.43328186E+03</rscale>
<asrwt>0</asrwt>
<pdfrwt beam="1">  1       21 0.59082808E-01 0.43328186E+03</pdfrwt>
<pdfrwt beam="2">  1       21 0.17179166E-01 0.43328186E+03</pdfrwt>
<totfact> 0.76288444E+04</totfact>
</mgrwt>
</event>
<event>
 7    0  0.4691878E-002  0.4129179E+03  0.7546771E-02  0.1039396E+00
         21   -1    0    0  502  501  0.00000000000E+00  0.00000000000E+00  0.23659924506E+03  0.23659924506E+03  0.00000000000E+00 0. -1.
         21   -1    0    0  501  502 -0.00000000000E+00 -0.00000000000E+00 -0.18015820176E+03  0.18015820176E+03  0.00000000000E+00 0. -1.
      99926    2    1    2    0    0  0.00000000000E+00  0.00000000000E+00  0.56441043301E+02  0.41675744682E+03  0.41291788301E+03 0.  0.
      99925    2    3    3    0    0  0.22975780184E+02  0.60131101769E+02  0.54013568943E+02  0.27605550438E+03  0.26295539544E+03 0.  0.
         25    1    4    4    0    0 -0.29056381654E+02  0.28224960043E+02  0.28832836047E+02  0.13460966614E+03  0.12509000000E+03 0.  0.
         25    1    4    4    0    0  0.52032161838E+02  0.31906141726E+02  0.25180732896E+02  0.14144583824E+03  0.12509000000E+03 0.  0.
         25    1    3    3    0    0 -0.22975780184E+02 -0.60131101769E+02  0.24274743580E+01  0.14070194244E+03  0.12509000000E+03 0.  0.
<mgrwt>
<rscale>  2 0.41291788E+03</rscale>
<asrwt>0</asrwt>
<pdfrwt beam="1">  1       21 0.34794007E-01 0.41291788E+03</pdfrwt>
<pdfrwt beam="2">  1       21 0.26493853E-01 0.41291788E+03</pdfrwt>
<totfact> 0.10145939E+05</totfact>
</mgrwt>
</event>
<event>
 7    0  0.4691878E-002  0.4554517E+03  0.7546771E-02  0.1026109E+00
         21   -1    0    0  502  501  0.00000000000E+00  0.00000000000E+00  0.37627686390E+02  0.37627686390E+02  0.00000000000E+00 0. -1.
         21   -1    0    0  501  502 -0.00000000000E+00 -0.00000000000E+00 -0.13782157679E+04  0.13782157679E+04  0.00000000000E+00 0. -1.
      99926    2    1    2    0    0  0.00000000000E+00  0.00000000000E+00 -0.13405880815E+04  0.14158434543E+04  0.45545173485E+03 0.  0.
      99925    2    3    3    0    0  0.16032010528E+02  0.62625186541E+02 -0.11335854719E+04  0.11654906475E+04  0.26300853243E+03 0.  0.
         25    1    4    4    0    0 -0.96637087215E+01 -0.23043468989E+01 -0.60201171139E+03  0.61495065333E+03  0.12509000000E+03 0.  0.
         25    1    3    3    0    0 -0.16032010528E+02 -0.62625186541E+02 -0.20700260969E+03  0.25035280679E+03  0.12509000000E+03 0.  0.
         25    1    4    4    0    0  0.25695719249E+02  0.64929533440E+02 -0.53157376047E+03  0.55053999420E+03  0.12509000000E+03 0.  0.
<mgrwt>
<rscale>  2 0.45545173E+03</rscale>
<asrwt>0</asrwt>
<pdfrwt beam="1">  1       21 0.55334836E-02 0.45545173E+03</pdfrwt>
<pdfrwt beam="2">  1       21 0.20267878E+00 0.45545173E+03</pdfrwt>
<totfact> 0.25822094E+04</totfact>
</mgrwt>
</event>
<event>
 7    0  0.4691878E-002  0.4524131E+03  0.7546771E-02  0.1027005E+00
         21   -1    0    0  502  501  0.00000000000E+00  0.00000000000E+00  0.46115308268E+02  0.46115308268E+02  0.00000000000E+00 0.  1.
         21   -1    0    0  501  502 -0.00000000000E+00 -0.00000000000E+00 -0.11095968011E+04  0.11095968011E+04  0.00000000000E+00 0.  1.
      99926    2    1    2    0    0 -0.35527136788E-14 -0.14210854715E-13 -0.10634814929E+04  0.11557121094E+04  0.45241307911E+03 0.  0.
      99925    2    3    3    0    0 -0.20531992244E+02  0.66016538155E+02 -0.44966883271E+03  0.52547942548E+03  0.26295783212E+03 0.  0.
         25    1    3    3    0    0  0.20531992244E+02 -0.66016538155E+02 -0.61381266016E+03  0.63023268392E+03  0.12509000000E+03 0.  0.
         25    1    4    4    0    0 -0.60635456742E+01 -0.59507734346E+01 -0.23595035366E+03  0.26719329292E+03  0.12509000000E+03 0.  0.
         25    1    4    4    0    0 -0.14468446569E+02  0.71967311590E+02 -0.21371847905E+03  0.25828613256E+03  0.12509000000E+03 0.  0.
<mgrwt>
<rscale>  2 0.45241308E+03</rscale>
<asrwt>0</asrwt>
<pdfrwt beam="1">  1       21 0.67816627E-02 0.45241308E+03</pdfrwt>
<pdfrwt beam="2">  1       21 0.16317601E+00 0.45241308E+03</pdfrwt>
<totfact> 0.34278084E+04</totfact>
</mgrwt>
</event>
<event>
 7    0  0.4691878E-002  0.4472790E+03  0.7546771E-02  0.1028537E+00
         21   -1    0    0  502  501  0.00000000000E+00  0.00000000000E+00  0.83265692714E+02  0.83265692714E+02  0.00000000000E+00 0.  1.
         21   -1    0    0  501  502 -0.00000000000E+00 -0.00000000000E+00 -0.60066305131E+03  0.60066305131E+03  0.00000000000E+00 0.  1.
      99926    2    1    2    0    0 -0.71054273576E-14  0.14210854715E-13 -0.51739735860E+03  0.68392874402E+03  0.44727899595E+03 0.  0.
      99925    2    3    3    0    0  0.33863594645E+02 -0.89381376073E+02 -0.25867711676E+03  0.38107656050E+03  0.26300137033E+03 0.  0.
         25    1    3    3    0    0 -0.33863594645E+02  0.89381376073E+02 -0.25872024184E+03  0.30285218353E+03  0.12509000000E+03 0.  0.
         25    1    4    4    0    0  0.25317799588E+02 -0.15015873059E+02 -0.83833296065E+02  0.15343401529E+03  0.12509000000E+03 0.  0.
         25    1    4    4    0    0  0.85457950570E+01 -0.74365503014E+02 -0.17484382069E+03  0.22764254520E+03  0.12509000000E+03 0.  0.
<mgrwt>
<rscale>  2 0.44727900E+03</rscale>
<asrwt>0</asrwt>
<pdfrwt beam="1">  1       21 0.12244955E-01 0.44727900E+03</pdfrwt>
<pdfrwt beam="2">  1       21 0.88332801E-01 0.44727900E+03</pdfrwt>
<totfact> 0.57182034E+04</totfact>
</mgrwt>
</event>
<event>
 7    0  0.4691878E-002  0.4555661E+03  0.7546771E-02  0.1026075E+00
         21   -1    0    0  502  501  0.00000000000E+00  0.00000000000E+00  0.23226985066E+03  0.23226985066E+03  0.00000000000E+00 0. -1.
         21   -1    0    0  501  502 -0.00000000000E+00 -0.00000000000E+00 -0.22338296211E+03  0.22338296211E+03  0.00000000000E+00 0. -1.
      99926    2    1    2    0    0 -0.14210854715E-13  0.00000000000E+00  0.88868885534E+01  0.45565281277E+03  0.45556614119E+03 0.  0.
      99925    2    3    3    0    0 -0.94354015844E+02  0.56828123928E+02 -0.23025005511E+02  0.28595309840E+03  0.26288192717E+03 0.  0.
         25    1    4    4    0    0 -0.28896812643E+02  0.60691379183E+02  0.44261041447E+01  0.14207592261E+03  0.12509000000E+03 0.  0.
         25    1    3    3    0    0  0.94354015844E+02 -0.56828123928E+02  0.31911894064E+02  0.16969971437E+03  0.12509000000E+03 0.  0.
         25    1    4    4    0    0 -0.65457203201E+02 -0.38632552552E+01 -0.27451109656E+02  0.14387717579E+03  0.12509000000E+03 0.  0.
<mgrwt>
<rscale>  2 0.45556614E+03</rscale>
<asrwt>0</asrwt>
<pdfrwt beam="1">  1       21 0.34157331E-01 0.45556614E+03</pdfrwt>
<pdfrwt beam="2">  1       21 0.32850436E-01 0.45556614E+03</pdfrwt>
<totfact> 0.68189450E+04</totfact>
</mgrwt>
</event>
<event>
 7    0  0.4691878E-002  0.4327790E+03  0.7546771E-02  0.1032986E+00
         21   -1    0    0  502  501  0.00000000000E+00  0.00000000000E+00  0.76923015225E+02  0.76923015225E+02  0.00000000000E+00 0.  1.
         21   -1    0    0  501  502 -0.00000000000E+00 -0.00000000000E+00 -0.60871786757E+03  0.60871786757E+03  0.00000000000E+00 0.  1.
      99926    2    1    2    0    0  0.00000000000E+00  0.00000000000E+00 -0.53179485234E+03  0.68564088279E+03  0.43277899115E+03 0.  0.
      99925    2    3    3    0    0 -0.75370536744E+02 -0.44479769450E+02 -0.30358775989E+03  0.41107731484E+03  0.26298262894E+03 0.  0.
         25    1    4    4    0    0 -0.26718342622E+02 -0.17695448606E+02 -0.89993339996E+02  0.15739538773E+03  0.12509000000E+03 0.  0.
         25    1    3    3    0    0  0.75370536744E+02  0.44479769450E+02 -0.22820709245E+03  0.27456356795E+03  0.12509000000E+03 0.  0.
         25    1    4    4    0    0 -0.48652194122E+02 -0.26784320844E+02 -0.21359441989E+03  0.25368192711E+03  0.12509000000E+03 0.  0.
<mgrwt>
<rscale>  2 0.43277899E+03</rscale>
<asrwt>0</asrwt>
<pdfrwt beam="1">  1       21 0.11312208E-01 0.43277899E+03</pdfrwt>
<pdfrwt beam="2">  1       21 0.89517333E-01 0.43277899E+03</pdfrwt>
<totfact> 0.64205956E+04</totfact>
</mgrwt>
</event>
<event>
 7    0  0.4691878E-002  0.4581881E+03  0.7546771E-02  0.1025308E+00
         21   -1    0    0  502  501  0.00000000000E+00  0.00000000000E+00  0.74614196666E+03  0.74614196666E+03  0.00000000000E+00 0.  1.
         21   -1    0    0  501  502 -0.00000000000E+00 -0.00000000000E+00 -0.70340602172E+02  0.70340602172E+02  0.00000000000E+00 0.  1.
      99926    2    1    2    0    0  0.00000000000E+00  0.00000000000E+00  0.67580136449E+03  0.81648256883E+03  0.45818806288E+03 0.  0.
      99925    2    3    3    0    0  0.80163837324E+02  0.75459683723E+02  0.35827861109E+03  0.45789002610E+03  0.26301959651E+03 0.  0.
         25    1    3    3    0    0 -0.80163837324E+02 -0.75459683723E+02  0.31752275339E+03  0.35859254273E+03  0.12509000000E+03 0.  0.
         25    1    4    4    0    0  0.26261957779E+02  0.48445741020E+02  0.23666289385E+03  0.27330114100E+03  0.12509000000E+03 0.  0.
         25    1    4    4    0    0  0.53901879545E+02  0.27013942703E+02  0.12161571724E+03  0.18458888509E+03  0.12509000000E+03 0.  0.
<mgrwt>
<rscale>  2 0.45818806E+03</rscale>
<asrwt>0</asrwt>
<pdfrwt beam="1">  1       21 0.10972676E+00 0.45818806E+03</pdfrwt>
<pdfrwt beam="2">  1       21 0.10344207E-01 0.45818806E+03</pdfrwt>
<totfact> 0.45820818E+04</totfact>
</mgrwt>
</event>
<event>
 7    0  0.4691878E-002  0.4512297E+03  0.7546771E-02  0.1027356E+00
         21   -1    0    0  502  501  0.00000000000E+00  0.00000000000E+00  0.53691134008E+02  0.53691134008E+02  0.00000000000E+00 0.  1.
         21   -1    0    0  501  502 -0.00000000000E+00 -0.00000000000E+00 -0.94805336179E+03  0.94805336179E+03  0.00000000000E+00 0.  1.
      99926    2    1    2    0    0  0.00000000000E+00  0.00000000000E+00 -0.89436222779E+03  0.10017444958E+04  0.45122969802E+03 0.  0.
      99925    2    3    3    0    0  0.27205968658E+02  0.82791889539E+02 -0.71235612411E+03  0.76432421112E+03  0.26295549136E+03 0.  0.
         25    1    3    3    0    0 -0.27205968658E+02 -0.82791889539E+02 -0.18200610367E+03  0.23742028468E+03  0.12509000000E+03 0.  0.
         25    1    4    4    0    0  0.19700755091E+02  0.81904865092E+01 -0.26540452236E+03  0.29418067987E+03  0.12509000000E+03 0.  0.
         25    1    4    4    0    0  0.75052135678E+01  0.74601403030E+02 -0.44695160175E+03  0.47014353125E+03  0.12509000000E+03 0.  0.
<mgrwt>
<rscale>  2 0.45122970E+03</rscale>
<asrwt>0</asrwt>
<pdfrwt beam="1">  1       21 0.78957551E-02 0.45122970E+03</pdfrwt>
<pdfrwt beam="2">  1       21 0.13941961E+00 0.45122970E+03</pdfrwt>
<totfact> 0.40271787E+04</totfact>
</mgrwt>
</event>
<event>
 7    0  0.4691878E-002  0.4571804E+03  0.7546771E-02  0.1025602E+00
         21   -1    0    0  502  501  0.00000000000E+00  0.00000000000E+00  0.69046742032E+03  0.69046742032E+03  0.00000000000E+00 0.  1.
         21   -1    0    0  501  502 -0.00000000000E+00 -0.00000000000E+00 -0.75678425397E+02  0.75678425397E+02  0.00000000000E+00 0.  1.
      99926    2    1    2    0    0  0.00000000000E+00  0.00000000000E+00  0.61478899492E+03  0.76614584571E+03  0.45718043334E+03 0.  0.
      99925    2    3    3    0    0  0.47324259773E+02  0.84028993404E+02  0.49184301773E+03  0.56598671227E+03  0.26292764609E+03 0.  0.
         25    1    3    3    0    0 -0.47324259773E+02 -0.84028993404E+02  0.12294597719E+03  0.20015913345E+03  0.12509000000E+03 0.  0.
         25    1    4    4    0    0 -0.61329736335E+01  0.65894297769E+02  0.22241509598E+03  0.26362028538E+03  0.12509000000E+03 0.  0.
         25    1    4    4    0    0  0.53457233407E+02  0.18134695635E+02  0.26942792175E+03  0.30236642688E+03  0.12509000000E+03 0.  0.
<mgrwt>
<rscale>  2 0.45718043E+03</rscale>
<asrwt>0</asrwt>
<pdfrwt beam="1">  1       21 0.10153932E+00 0.45718043E+03</pdfrwt>
<pdfrwt beam="2">  1       21 0.11129181E-01 0.45718043E+03</pdfrwt>
<totfact> 0.48608315E+04</totfact>
</mgrwt>
</event>
<event>
 7    0  0.4691878E-002  0.4543825E+03  0.7546771E-02  0.1026423E+00
         21   -1    0    0  502  501  0.00000000000E+00  0.00000000000E+00  0.94977882044E+03  0.94977882044E+03  0.00000000000E+00 0. -1.
         21   -1    0    0  501  502 -0.00000000000E+00 -0.00000000000E+00 -0.54345148766E+02  0.54345148766E+02  0.00000000000E+00 0. -1.
      99926    2    1    2    0    0  0.00000000000E+00  0.00000000000E+00  0.89543367168E+03  0.10041239692E+04  0.45438253176E+03 0.  0.
      99925    2    3    3    0    0  0.26156035124E+02  0.10048890633E+03  0.65841559188E+03  0.71670922234E+03  0.26339866986E+03 0.  0.
         25    1    4    4    0    0 -0.11161838128E+02  0.37043384864E+02  0.23372468142E+03  0.26790209741E+03  0.12509000000E+03 0.  0.
         25    1    4    4    0    0  0.37317873252E+02  0.63445521462E+02  0.42469091046E+03  0.44880712493E+03  0.12509000000E+03 0.  0.
         25    1    3    3    0    0 -0.26156035124E+02 -0.10048890633E+03  0.23701807980E+03  0.28741474687E+03  0.12509000000E+03 0.  0.
<mgrwt>
<rscale>  2 0.45438253E+03</rscale>
<asrwt>0</asrwt>
<pdfrwt beam="1">  1       21 0.13967335E+00 0.45438253E+03</pdfrwt>
<pdfrwt beam="2">  1       21 0.79919342E-02 0.45438253E+03</pdfrwt>
<totfact> 0.39195436E+04</totfact>
</mgrwt>
</event>
<event>
 7    0  0.4691878E-002  0.4502537E+03  0.7546771E-02  0.1027646E+00
         21   -1    0    0  502  501  0.00000000000E+00  0.00000000000E+00  0.56229155260E+02  0.56229155260E+02  0.00000000000E+00 0.  1.
         21   -1    0    0  501  502 -0.00000000000E+00 -0.00000000000E+00 -0.90134903345E+03  0.90134903345E+03  0.00000000000E+00 0.  1.
      99926    2    1    2    0    0  0.17763568394E-14  0.00000000000E+00 -0.84511987819E+03  0.95757818871E+03  0.45025368292E+03 0.  0.
      99925    2    3    3    0    0 -0.94185226605E+01  0.10729852814E+03 -0.50431815148E+03  0.57890285582E+03  0.26303998908E+03 0.  0.
         25    1    3    3    0    0  0.94185226605E+01 -0.10729852814E+03 -0.34080172670E+03  0.37867533288E+03  0.12509000000E+03 0.  0.
         25    1    4    4    0    0  0.83175271698E+01  0.22481713512E+02 -0.28274817648E+03  0.31011070299E+03  0.12509000000E+03 0.  0.
         25    1    4    4    0    0 -0.17736049830E+02  0.84816814626E+02 -0.22156997500E+03  0.26879215284E+03  0.12509000000E+03 0.  0.
<mgrwt>
<rscale>  2 0.45025368E+03</rscale>
<asrwt>0</asrwt>
<pdfrwt beam="1">  1       21 0.82689940E-02 0.45025368E+03</pdfrwt>
<pdfrwt beam="2">  1       21 0.13255132E+00 0.45025368E+03</pdfrwt>
<totfact> 0.42386798E+04</totfact>
</mgrwt>
</event>
<event>
 7    0  0.4691878E-002  0.4532801E+03  0.7546771E-02  0.1026748E+00
         21   -1    0    0  502  501  0.00000000000E+00  0.00000000000E+00  0.48237655360E+02  0.48237655360E+02  0.00000000000E+00 0. -1.
         21   -1    0    0  501  502 -0.00000000000E+00 -0.00000000000E+00 -0.10648466393E+04  0.10648466393E+04  0.00000000000E+00 0. -1.
      99926    2    1    2    0    0 -0.35527136788E-14  0.71054273576E-14 -0.10166089840E+04  0.11130842947E+04  0.45328006883E+03 0.  0.
      99925    2    3    3    0    0 -0.19191419088E+02  0.46890139841E+02 -0.39656960011E+03  0.47852669965E+03  0.26297026214E+03 0.  0.
         25    1    4    4    0    0  0.99056817313E+01  0.45816041362E+02 -0.15254843962E+03  0.20277023131E+03  0.12509000000E+03 0.  0.
         25    1    3    3    0    0  0.19191419088E+02 -0.46890139841E+02 -0.62003938387E+03  0.63455759505E+03  0.12509000000E+03 0.  0.
         25    1    4    4    0    0 -0.29097100819E+02  0.10740984795E+01 -0.24402116049E+03  0.27575646834E+03  0.12509000000E+03 0.  0.
<mgrwt>
<rscale>  2 0.45328007E+03</rscale>
<asrwt>0</asrwt>
<pdfrwt beam="1">  1       21 0.70937738E-02 0.45328007E+03</pdfrwt>
<pdfrwt beam="2">  1       21 0.15659507E+00 0.45328007E+03</pdfrwt>
<totfact> 0.35512864E+04</totfact>
</mgrwt>
</event>
<event>
 7    0  0.4691878E-002  0.4654773E+03  0.7546771E-02  0.1023205E+00
         21   -1    0    0  502  501  0.00000000000E+00  0.00000000000E+00  0.29639136740E+03  0.29639136740E+03  0.00000000000E+00 0. -1.
         21   -1    0    0  501  502 -0.00000000000E+00 -0.00000000000E+00 -0.18275594727E+03  0.18275594727E+03  0.00000000000E+00 0. -1.
      99926    2    1    2    0    0  0.00000000000E+00  0.17763568394E-14  0.11363542013E+03  0.47914731467E+03  0.46547732539E+03 0.  0.
      99925    2    3    3    0    0 -0.13399441633E+02  0.57287453956E+01 -0.54599120807E+02  0.26899800484E+03  0.26299524531E+03 0.  0.
         25    1    3    3    0    0  0.13399441633E+02 -0.57287453956E+01  0.16823454093E+03  0.21014930983E+03  0.12509000000E+03 0.  0.
         25    1    4    4    0    0 -0.82918375447E+00 -0.14184623385E+02  0.99353879029E+01  0.12628583103E+03  0.12509000000E+03 0.  0.
         25    1    4    4    0    0 -0.12570257878E+02  0.19913368781E+02 -0.64534508710E+02  0.14271217381E+03  0.12509000000E+03 0.  0.
<mgrwt>
<rscale>  2 0.46547733E+03</rscale>
<asrwt>0</asrwt>
<pdfrwt beam="1">  1       21 0.43586966E-01 0.46547733E+03</pdfrwt>
<pdfrwt beam="2">  1       21 0.26875875E-01 0.46547733E+03</pdfrwt>
<totfact> 0.61489135E+04</totfact>
</mgrwt>
</event>
<event>
 7    0  0.4691878E-002  0.4600293E+03  0.7546771E-02  0.1024773E+00
         21   -1    0    0  502  501  0.00000000000E+00  0.00000000000E+00  0.31773465144E+02  0.31773465144E+02  0.00000000000E+00 0. -1.
         21   -1    0    0  501  502 -0.00000000000E+00 -0.00000000000E+00 -0.16651236223E+04  0.16651236223E+04  0.00000000000E+00 0. -1.
      99926    2    1    2    0    0 -0.14210854715E-13  0.00000000000E+00 -0.16333501571E+04  0.16968970874E+04  0.46002933547E+03 0.  0.
      99925    2    3    3    0    0 -0.72090438788E+02  0.89908020677E+02 -0.92468294762E+03  0.96810548107E+03  0.26250559102E+03 0.  0.
         25    1    4    4    0    0 -0.75767900370E+02  0.53942468688E+02 -0.53480932561E+03  0.55706291163E+03  0.12509000000E+03 0.  0.
         25    1    4    4    0    0  0.36774615818E+01  0.35965551988E+02 -0.38987362201E+03  0.41104256944E+03  0.12509000000E+03 0.  0.
         25    1    3    3    0    0  0.72090438788E+02 -0.89908020677E+02 -0.70866720952E+03  0.72879160636E+03  0.12509000000E+03 0.  0.
<mgrwt>
<rscale>  2 0.46002934E+03</rscale>
<asrwt>0</asrwt>
<pdfrwt beam="1">  1       21 0.46725678E-02 0.46002934E+03</pdfrwt>
<pdfrwt beam="2">  1       21 0.24487115E+00 0.46002934E+03</pdfrwt>
<totfact> 0.18589689E+04</totfact>
</mgrwt>
</event>
<event>
 7    0  0.4691878E-002  0.4534968E+03  0.7546771E-02  0.1026684E+00
         21   -1    0    0  502  501  0.00000000000E+00  0.00000000000E+00  0.90721410588E+03  0.90721410588E+03  0.00000000000E+00 0. -1.
         21   -1    0    0  501  502 -0.00000000000E+00 -0.00000000000E+00 -0.56673322866E+02  0.56673322866E+02  0.00000000000E+00 0. -1.
      99926    2    1    2    0    0  0.00000000000E+00 -0.14210854715E-13  0.85054078302E+03  0.96388742875E+03  0.45349680454E+03 0.  0.
      99925    2    3    3    0    0  0.33328591971E+02 -0.96160272881E+02  0.43794217026E+03  0.52089452082E+03  0.26302122387E+03 0.  0.
         25    1    3    3    0    0 -0.33328591971E+02  0.96160272881E+02  0.41259861276E+03  0.44299290793E+03  0.12509000000E+03 0.  0.
         25    1    4    4    0    0  0.91616924052E+01 -0.44584163737E+02  0.28923705821E+03  0.31839797142E+03  0.12509000000E+03 0.  0.
         25    1    4    4    0    0  0.24166899566E+02 -0.51576109144E+02  0.14870511204E+03  0.20249654940E+03  0.12509000000E+03 0.  0.
<mgrwt>
<rscale>  2 0.45349680E+03</rscale>
<asrwt>0</asrwt>
<pdfrwt beam="1">  1       21 0.13341383E+00 0.45349680E+03</pdfrwt>
<pdfrwt beam="2">  1       21 0.83343128E-02 0.45349680E+03</pdfrwt>
<totfact> 0.41064050E+04</totfact>
</mgrwt>
</event>
<event>
 7    0  0.4691878E-002  0.4520259E+03  0.7546771E-02  0.1027120E+00
         21   -1    0    0  502  501  0.00000000000E+00  0.00000000000E+00  0.17517929493E+04  0.17517929493E+04  0.00000000000E+00 0.  1.
         21   -1    0    0  501  502 -0.00000000000E+00 -0.00000000000E+00 -0.29159755625E+02  0.29159755625E+02  0.00000000000E+00 0.  1.
      99926    2    1    2    0    0 -0.17763568394E-14 -0.14210854715E-13  0.17226331937E+04  0.17809527049E+04  0.45202590327E+03 0.  0.
      99925    2    3    3    0    0 -0.12968024700E+02 -0.75501656443E+02  0.77322234355E+03  0.82027734861E+03  0.26289440141E+03 0.  0.
         25    1    4    4    0    0 -0.36210987835E+02 -0.10167427177E+02  0.38400809082E+03  0.40561599344E+03  0.12509000000E+03 0.  0.
         25    1    3    3    0    0  0.12968024700E+02  0.75501656443E+02  0.94941085011E+03  0.96067535629E+03  0.12509000000E+03 0.  0.
         25    1    4    4    0    0  0.23242963135E+02 -0.65334229266E+02  0.38921425273E+03  0.41466135517E+03  0.12509000000E+03 0.  0.
<mgrwt>
<rscale>  2 0.45202590E+03</rscale>
<asrwt>0</asrwt>
<pdfrwt beam="1">  1       21 0.25761654E+00 0.45202590E+03</pdfrwt>
<pdfrwt beam="2">  1       21 0.42882005E-02 0.45202590E+03</pdfrwt>
<totfact> 0.18041309E+04</totfact>
</mgrwt>
</event>
<event>
 7    0  0.4691878E-002  0.4475360E+03  0.7546771E-02  0.1028459E+00
         21   -1    0    0  502  501  0.00000000000E+00  0.00000000000E+00  0.25588876305E+03  0.25588876305E+03  0.00000000000E+00 0. -1.
         21   -1    0    0  501  502 -0.00000000000E+00 -0.00000000000E+00 -0.19567924262E+03  0.19567924262E+03  0.00000000000E+00 0. -1.
      99926    2    1    2    0    0  0.00000000000E+00 -0.88817841970E-15  0.60209520426E+02  0.45156800567E+03  0.44753600681E+03 0.  0.
      99925    2    3    3    0    0 -0.97414787407E+02 -0.42569978652E+01  0.79831409813E+02  0.29175470998E+03  0.26313493490E+03 0.  0.
         25    1    3    3    0    0  0.97414787407E+02  0.42569978652E+01 -0.19621889387E+02  0.15981329569E+03  0.12509000000E+03 0.  0.
         25    1    4    4    0    0 -0.58923113523E+02 -0.10442595633E+02  0.81260423701E+02  0.16072257362E+03  0.12509000000E+03 0.  0.
         25    1    4    4    0    0 -0.38491673885E+02  0.61855977676E+01 -0.14290138876E+01  0.13103213636E+03  0.12509000000E+03 0.  0.
<mgrwt>
<rscale>  2 0.44753601E+03</rscale>
<asrwt>0</asrwt>
<pdfrwt beam="1">  1       21 0.37630700E-01 0.44753601E+03</pdfrwt>
<pdfrwt beam="2">  1       21 0.28776359E-01 0.44753601E+03</pdfrwt>
<totfact> 0.73051932E+04</totfact>
</mgrwt>
</event>
<event>
 7    0  0.4691878E-002  0.4580133E+03  0.7546771E-02  0.1025359E+00
         21   -1    0    0  502  501  0.00000000000E+00  0.00000000000E+00  0.22885952034E+04  0.22885952034E+04  0.00000000000E+00 0. -1.
         21   -1    0    0  501  502 -0.00000000000E+00 -0.00000000000E+00 -0.22915385908E+02  0.22915385908E+02  0.00000000000E+00 0. -1.
      99926    2    1    2    0    0 -0.71054273576E-14  0.00000000000E+00  0.22656798175E+04  0.23115105893E+04  0.45801328485E+03 0.  0.
      99925    2    3    3    0    0  0.58366202673E+02 -0.10477300757E+02  0.19248482738E+04  0.19436382789E+04  0.26300664413E+03 0.  0.
         25    1    4    4    0    0 -0.58762434352E+01  0.65492687221E+01  0.10383395080E+04  0.10458842504E+04  0.12509000000E+03 0.  0.
         25    1    3    3    0    0 -0.58366202673E+02  0.10477300757E+02  0.34083154375E+03  0.36787231040E+03  0.12509000000E+03 0.  0.
         25    1    4    4    0    0  0.64242446108E+02 -0.17026569479E+02  0.88650876576E+03  0.89775402858E+03  0.12509000000E+03 0.  0.
<mgrwt>
<rscale>  2 0.45801328E+03</rscale>
<asrwt>0</asrwt>
<pdfrwt beam="1">  1       21 0.33655796E+00 0.45801328E+03</pdfrwt>
<pdfrwt beam="2">  1       21 0.33699113E-02 0.45801328E+03</pdfrwt>
<totfact> 0.90444077E+03</totfact>
</mgrwt>
</event>
<event>
 7    0  0.4691878E-002  0.4507992E+03  0.7546771E-02  0.1027484E+00
         21   -1    0    0  502  501  0.00000000000E+00  0.00000000000E+00  0.61415975158E+02  0.61415975158E+02  0.00000000000E+00 0. -1.
         21   -1    0    0  501  502 -0.00000000000E+00 -0.00000000000E+00 -0.82722759402E+03  0.82722759402E+03  0.00000000000E+00 0. -1.
      99926    2    1    2    0    0  0.00000000000E+00  0.00000000000E+00 -0.76581161886E+03  0.88864356918E+03  0.45079924296E+03 0.  0.
      99925    2    3    3    0    0 -0.89476693377E+02  0.24252127254E+02 -0.59712464421E+03  0.65908519348E+03  0.26313724026E+03 0.  0.
         25    1    4    4    0    0 -0.28849972372E+01  0.13455239908E+02 -0.24811950358E+03  0.27820884754E+03  0.12509000000E+03 0.  0.
         25    1    3    3    0    0  0.89476693377E+02 -0.24252127254E+02 -0.16868697465E+03  0.22955837570E+03  0.12509000000E+03 0.  0.
         25    1    4    4    0    0 -0.86591696140E+02  0.10796887347E+02 -0.34900514063E+03  0.38087634594E+03  0.12509000000E+03 0.  0.
<mgrwt>
<rscale>  2 0.45079924E+03</rscale>
<asrwt>0</asrwt>
<pdfrwt beam="1">  1       21 0.90317614E-02 0.45079924E+03</pdfrwt>
<pdfrwt beam="2">  1       21 0.12165111E+00 0.45079924E+03</pdfrwt>
<totfact> 0.45196867E+04</totfact>
</mgrwt>
</event>
<event>
 7    0  0.4691878E-002  0.4552025E+03  0.7546771E-02  0.1026182E+00
         21   -1    0    0  502  501  0.00000000000E+00  0.00000000000E+00  0.13885133778E+03  0.13885133778E+03  0.00000000000E+00 0.  1.
         21   -1    0    0  501  502 -0.00000000000E+00 -0.00000000000E+00 -0.37307761259E+03  0.37307761259E+03  0.00000000000E+00 0.  1.
      99926    2    1    2    0    0  0.00000000000E+00  0.00000000000E+00 -0.23422627481E+03  0.51192895037E+03  0.45520248507E+03 0.  0.
      99925    2    3    3    0    0  0.44127567158E+02  0.32523014904E+02 -0.35706553880E+02  0.27096717668E+03  0.26295106801E+03 0.  0.
         25    1    4    4    0    0  0.27285405188E+02 -0.11667010017E+02  0.11674826348E+02  0.12909075152E+03  0.12509000000E+03 0.  0.
         25    1    3    3    0    0 -0.44127567158E+02 -0.32523014904E+02 -0.19851972093E+03  0.24096177369E+03  0.12509000000E+03 0.  0.
         25    1    4    4    0    0  0.16842161971E+02  0.44190024921E+02 -0.47381380227E+02  0.14187642515E+03  0.12509000000E+03 0.  0.
<mgrwt>
<rscale>  2 0.45520249E+03</rscale>
<asrwt>0</asrwt>
<pdfrwt beam="1">  1       21 0.20419315E-01 0.45520249E+03</pdfrwt>
<pdfrwt beam="2">  1       21 0.54864353E-01 0.45520249E+03</pdfrwt>
<totfact> 0.64337036E+04</totfact>
</mgrwt>
</event>
<event>
 7    0  0.4691878E-002  0.5376510E+03  0.7546771E-02  0.1004393E+00
         21   -1    0    0  502  501  0.00000000000E+00  0.00000000000E+00  0.13019224568E+03  0.13019224568E+03  0.00000000000E+00 0.  1.
         21   -1    0    0  501  502 -0.00000000000E+00 -0.00000000000E+00 -0.55508037851E+03  0.55508037851E+03  0.00000000000E+00 0.  1.
      99926    2    1    2    0    0  0.00000000000E+00  0.00000000000E+00 -0.42488813283E+03  0.68527262419E+03  0.53765104300E+03 0.  0.
      99925    2    3    3    0    0  0.54783037845E+02 -0.39243246736E+02 -0.39142781106E+02  0.27419088277E+03  0.26288261493E+03 0.  0.
         25    1    4    4    0    0  0.48630542472E+02 -0.10877245345E+02  0.13667476211E+02  0.13534235159E+03  0.12509000000E+03 0.  0.
         25    1    3    3    0    0 -0.54783037845E+02  0.39243246736E+02 -0.38574535172E+03  0.41108174142E+03  0.12509000000E+03 0.  0.
         25    1    4    4    0    0  0.61524953732E+01 -0.28366001391E+02 -0.52810257317E+02  0.13884853118E+03  0.12509000000E+03 0.  0.
<mgrwt>
<rscale>  2 0.53765104E+03</rscale>
<asrwt>0</asrwt>
<pdfrwt beam="1">  1       21 0.19145919E-01 0.53765104E+03</pdfrwt>
<pdfrwt beam="2">  1       21 0.81629466E-01 0.53765104E+03</pdfrwt>
<totfact> 0.29365025E+04</totfact>
</mgrwt>
</event>
<event>
 7    0  0.4691878E-002  0.4538365E+03  0.7546771E-02  0.1026584E+00
         21   -1    0    0  502  501  0.00000000000E+00  0.00000000000E+00  0.82778314917E+02  0.82778314917E+02  0.00000000000E+00 0.  1.
         21   -1    0    0  501  502 -0.00000000000E+00 -0.00000000000E+00 -0.62204570777E+03  0.62204570777E+03  0.00000000000E+00 0.  1.
      99926    2    1    2    0    0  0.00000000000E+00  0.00000000000E+00 -0.53926739285E+03  0.70482402268E+03  0.45383651457E+03 0.  0.
      99925    2    3    3    0    0  0.54129603730E+02  0.86064789838E+02 -0.41323127929E+03  0.50020297765E+03  0.26287975695E+03 0.  0.
         25    1    4    4    0    0  0.36488924049E+02  0.81488708582E+02 -0.25425754391E+03  0.29709637820E+03  0.12509000000E+03 0.  0.
         25    1    3    3    0    0 -0.54129603730E+02 -0.86064789838E+02 -0.12603611356E+03  0.20462104504E+03  0.12509000000E+03 0.  0.
         25    1    4    4    0    0  0.17640679681E+02  0.45760812565E+01 -0.15897373538E+03  0.20310659945E+03  0.12509000000E+03 0.  0.
<mgrwt>
<rscale>  2 0.45383651E+03</rscale>
<asrwt>0</asrwt>
<pdfrwt beam="1">  1       21 0.12173282E-01 0.45383651E+03</pdfrwt>
<pdfrwt beam="2">  1       21 0.91477310E-01 0.45383651E+03</pdfrwt>
<totfact> 0.53126537E+04</totfact>
</mgrwt>
</event>
<event>
 7    0  0.4691878E-002  0.4551661E+03  0.7546771E-02  0.1026193E+00
         21   -1    0    0  502  501  0.00000000000E+00  0.00000000000E+00  0.12714469271E+04  0.12714469271E+04  0.00000000000E+00 0.  1.
         21   -1    0    0  501  502 -0.00000000000E+00 -0.00000000000E+00 -0.40736307401E+02  0.40736307401E+02  0.00000000000E+00 0.  1.
      99926    2    1    2    0    0  0.00000000000E+00  0.00000000000E+00  0.12307106197E+04  0.13121832345E+04  0.45516613612E+03 0.  0.
      99925    2    3    3    0    0 -0.97255703365E+02 -0.46337951217E+02  0.67227286677E+03  0.72985505422E+03  0.26292910681E+03 0.  0.
         25    1    4    4    0    0 -0.80201126123E+02 -0.44976229826E+02  0.41947992140E+03  0.44728737344E+03  0.12509000000E+03 0.  0.
         25    1    3    3    0    0  0.97255703365E+02  0.46337951217E+02  0.55843775293E+03  0.58232818029E+03  0.12509000000E+03 0.  0.
         25    1    4    4    0    0 -0.17054577242E+02 -0.13617213913E+01  0.25279294538E+03  0.28256768078E+03  0.12509000000E+03 0.  0.
<mgrwt>
<rscale>  2 0.45516614E+03</rscale>
<asrwt>0</asrwt>
<pdfrwt beam="1">  1       21 0.18697746E+00 0.45516614E+03</pdfrwt>
<pdfrwt beam="2">  1       21 0.59906343E-02 0.45516614E+03</pdfrwt>
<totfact> 0.28725778E+04</totfact>
</mgrwt>
</event>
<event>
 7    0  0.4691878E-002  0.4522825E+03  0.7546771E-02  0.1027044E+00
         21   -1    0    0  502  501  0.00000000000E+00  0.00000000000E+00  0.13490766648E+04  0.13490766648E+04  0.00000000000E+00 0.  1.
         21   -1    0    0  501  502 -0.00000000000E+00 -0.00000000000E+00 -0.37907300414E+02  0.37907300414E+02  0.00000000000E+00 0.  1.
      99926    2    1    2    0    0  0.00000000000E+00  0.00000000000E+00  0.13111693644E+04  0.13869839652E+04  0.45228245341E+03 0.  0.
      99925    2    3    3    0    0  0.68388721183E+02  0.41728955477E+02  0.10602395556E+04  0.10953821821E+04  0.26331708371E+03 0.  0.
         25    1    3    3    0    0 -0.68388721183E+02 -0.41728955477E+02  0.25092980880E+03  0.29160178318E+03  0.12509000000E+03 0.  0.
         25    1    4    4    0    0  0.60143783622E+02 -0.96874160470E+01  0.57336531257E+03  0.59000543260E+03  0.12509000000E+03 0.  0.
         25    1    4    4    0    0  0.82449375617E+01  0.51416371524E+02  0.48687424305E+03  0.50537674946E+03  0.12509000000E+03 0.  0.
<mgrwt>
<rscale>  2 0.45228245E+03</rscale>
<asrwt>0</asrwt>
<pdfrwt beam="1">  1       21 0.19839359E+00 0.45228245E+03</pdfrwt>
<pdfrwt beam="2">  1       21 0.55746039E-02 0.45228245E+03</pdfrwt>
<totfact> 0.27251967E+04</totfact>
</mgrwt>
</event>
<event>
 7    0  0.4691878E-002  0.4539115E+03  0.7546771E-02  0.1026562E+00
         21   -1    0    0  502  501  0.00000000000E+00  0.00000000000E+00  0.15030459553E+03  0.15030459553E+03  0.00000000000E+00 0. -1.
         21   -1    0    0  501  502 -0.00000000000E+00 -0.00000000000E+00 -0.34269681573E+03  0.34269681573E+03  0.00000000000E+00 0. -1.
      99926    2    1    2    0    0  0.00000000000E+00  0.00000000000E+00 -0.19239222020E+03  0.49300141126E+03  0.45391147277E+03 0.  0.
      99925    2    3    3    0    0  0.41348451960E+02  0.55911786851E+02 -0.25641608056E+02  0.27325360777E+03  0.26300992321E+03 0.  0.
         25    1    3    3    0    0 -0.41348451960E+02 -0.55911786851E+02 -0.16675061215E+03  0.21974780349E+03  0.12509000000E+03 0.  0.
         25    1    4    4    0    0  0.52439108598E+02  0.41653094390E+02  0.90940248290E+01  0.14217963909E+03  0.12509000000E+03 0.  0.
         25    1    4    4    0    0 -0.11090656638E+02  0.14258692461E+02 -0.34735632885E+02  0.13107396869E+03  0.12509000000E+03 0.  0.
<mgrwt>
<rscale>  2 0.45391147E+03</rscale>
<asrwt>0</asrwt>
<pdfrwt beam="1">  1       21 0.22103618E-01 0.45391147E+03</pdfrwt>
<pdfrwt beam="2">  1       21 0.50396589E-01 0.45391147E+03</pdfrwt>
<totfact> 0.66336568E+04</totfact>
</mgrwt>
</event>
<event>
 7    0  0.4691878E-002  0.4550193E+03  0.7546771E-02  0.1026236E+00
         21   -1    0    0  502  501  0.00000000000E+00  0.00000000000E+00  0.30750818641E+03  0.30750818641E+03  0.00000000000E+00 0.  1.
         21   -1    0    0  501  502 -0.00000000000E+00 -0.00000000000E+00 -0.16832283654E+03  0.16832283654E+03  0.00000000000E+00 0.  1.
      99926    2    1    2    0    0  0.00000000000E+00  0.00000000000E+00  0.13918534987E+03  0.47583102295E+03  0.45501934111E+03 0.  0.
      99925    2    3    3    0    0  0.37649366886E+02  0.10565936822E+03  0.74926704753E+02  0.29594756487E+03  0.26341900680E+03 0.  0.
         25    1    4    4    0    0  0.29439506318E+02  0.95942070210E+02  0.36518998439E+02  0.16447708264E+03  0.12509000000E+03 0.  0.
         25    1    4    4    0    0  0.82098605679E+01  0.97172980091E+01  0.38407706314E+02  0.13147048222E+03  0.12509000000E+03 0.  0.
         25    1    3    3    0    0 -0.37649366886E+02 -0.10565936822E+03  0.64258645112E+02  0.17988345808E+03  0.12509000000E+03 0.  0.
<mgrwt>
<rscale>  2 0.45501934E+03</rscale>
<asrwt>0</asrwt>
<pdfrwt beam="1">  1       21 0.45221792E-01 0.45501934E+03</pdfrwt>
<pdfrwt beam="2">  1       21 0.24753358E-01 0.45501934E+03</pdfrwt>
<totfact> 0.66994561E+04</totfact>
</mgrwt>
</event>
<event>
 7    0  0.4691878E-002  0.4533718E+03  0.7546771E-02  0.1026721E+00
         21   -1    0    0  502  501  0.00000000000E+00  0.00000000000E+00  0.17682918065E+03  0.17682918065E+03  0.00000000000E+00 0. -1.
         21   -1    0    0  501  502 -0.00000000000E+00 -0.00000000000E+00 -0.29059965847E+03  0.29059965847E+03  0.00000000000E+00 0. -1.
      99926    2    1    2    0    0  0.00000000000E+00 -0.35527136788E-14 -0.11377047782E+03  0.46742883912E+03  0.45337180990E+03 0.  0.
      99925    2    3    3    0    0  0.68917616832E+02  0.20788384724E+02  0.15852118352E+02  0.27344090035E+03  0.26331889693E+03 0.  0.
         25    1    4    4    0    0  0.89344848483E+01 -0.22936096288E+02  0.96403022291E+01  0.12785277885E+03  0.12509000000E+03 0.  0.
         25    1    4    4    0    0  0.59983131983E+02  0.43724481011E+02  0.62118161232E+01  0.14558812150E+03  0.12509000000E+03 0.  0.
         25    1    3    3    0    0 -0.68917616832E+02 -0.20788384724E+02 -0.12962259617E+03  0.19398793877E+03  0.12509000000E+03 0.  0.
<mgrwt>
<rscale>  2 0.45337181E+03</rscale>
<asrwt>0</asrwt>
<pdfrwt beam="1">  1       21 0.26004292E-01 0.45337181E+03</pdfrwt>
<pdfrwt beam="2">  1       21 0.42735243E-01 0.45337181E+03</pdfrwt>
<totfact> 0.68508046E+04</totfact>
</mgrwt>
</event>
<event>
 7    0  0.4691878E-002  0.4569104E+03  0.7546771E-02  0.1025681E+00
         21   -1    0    0  502  501  0.00000000000E+00  0.00000000000E+00  0.13709052939E+03  0.13709052939E+03  0.00000000000E+00 0. -1.
         21   -1    0    0  501  502 -0.00000000000E+00 -0.00000000000E+00 -0.38071023375E+03  0.38071023375E+03  0.00000000000E+00 0. -1.
      99926    2    1    2    0    0  0.17763568394E-14  0.00000000000E+00 -0.24361970435E+03  0.51780076314E+03  0.45691035221E+03 0.  0.
      99925    2    3    3    0    0  0.15522378280E+02 -0.94004838300E+02 -0.80108330311E+02  0.29094986190E+03  0.26297646987E+03 0.  0.
         25    1    4    4    0    0 -0.29124526149E+02 -0.42845786255E+02 -0.56338814267E+02  0.14664777365E+03  0.12509000000E+03 0.  0.
         25    1    3    3    0    0 -0.15522378280E+02  0.94004838300E+02 -0.16351137404E+03  0.22685090124E+03  0.12509000000E+03 0.  0.
         25    1    4    4    0    0  0.44646904429E+02 -0.51159052045E+02 -0.23769516044E+02  0.14430208825E+03  0.12509000000E+03 0.  0.
<mgrwt>
<rscale>  2 0.45691035E+03</rscale>
<asrwt>0</asrwt>
<pdfrwt beam="1">  1       21 0.20160372E-01 0.45691035E+03</pdfrwt>
<pdfrwt beam="2">  1       21 0.55986799E-01 0.45691035E+03</pdfrwt>
<totfact> 0.63075819E+04</totfact>
</mgrwt>
</event>
<event>
 7    0  0.4691878E-002  0.4537966E+03  0.7546771E-02  0.1026596E+00
         21   -1    0    0  502  501  0.00000000000E+00  0.00000000000E+00  0.87469764625E+02  0.87469764625E+02  0.00000000000E+00 0. -1.
         21   -1    0    0  501  502 -0.00000000000E+00 -0.00000000000E+00 -0.58857860901E+03  0.58857860901E+03  0.00000000000E+00 0. -1.
      99926    2    1    2    0    0  0.00000000000E+00  0.00000000000E+00 -0.50110884439E+03  0.67604837363E+03  0.45379657290E+03 0.  0.
      99925    2    3    3    0    0  0.54832678552E+02 -0.28894073801E+02 -0.45474545637E+03  0.52894785703E+03  0.26296561605E+03 0.  0.
         25    1    4    4    0    0  0.18251033738E+02 -0.70949585428E+01 -0.14686066876E+03  0.19390462294E+03  0.12509000000E+03 0.  0.
         25    1    3    3    0    0 -0.54832678552E+02  0.28894073801E+02 -0.46363388011E+02  0.14710051661E+03  0.12509000000E+03 0.  0.
         25    1    4    4    0    0  0.36581644815E+02 -0.21799115258E+02 -0.30788478762E+03  0.33504323409E+03  0.12509000000E+03 0.  0.
<mgrwt>
<rscale>  2 0.45379657E+03</rscale>
<asrwt>0</asrwt>
<pdfrwt beam="1">  1       21 0.12863200E-01 0.45379657E+03</pdfrwt>
<pdfrwt beam="2">  1       21 0.86555681E-01 0.45379657E+03</pdfrwt>
<totfact> 0.54740329E+04</totfact>
</mgrwt>
</event>
<event>
 7    0  0.4691878E-002  0.4540764E+03  0.7546771E-02  0.1026513E+00
         21   -1    0    0  502  501  0.00000000000E+00  0.00000000000E+00  0.57087274233E+02  0.57087274233E+02  0.00000000000E+00 0. -1.
         21   -1    0    0  501  502 -0.00000000000E+00 -0.00000000000E+00 -0.90293922387E+03  0.90293922387E+03  0.00000000000E+00 0. -1.
      99926    2    1    2    0    0 -0.14210854715E-13  0.00000000000E+00 -0.84585194963E+03  0.96002649810E+03  0.45407637723E+03 0.  0.
      99925    2    3    3    0    0 -0.10941615748E+03  0.15384748575E+02 -0.57136454450E+03  0.63877981767E+03  0.26338873694E+03 0.  0.
         25    1    4    4    0    0 -0.64092450306E+02  0.19076478601E+01 -0.38129092750E+03  0.40637637825E+03  0.12509000000E+03 0.  0.
         25    1    3    3    0    0  0.10941615748E+03 -0.15384748575E+02 -0.27448740513E+03  0.32124668042E+03  0.12509000000E+03 0.  0.
         25    1    4    4    0    0 -0.45323707179E+02  0.13477100715E+02 -0.19007361700E+03  0.23240343942E+03  0.12509000000E+03 0.  0.
<mgrwt>
<rscale>  2 0.45407638E+03</rscale>
<asrwt>0</asrwt>
<pdfrwt beam="1">  1       21 0.83951876E-02 0.45407638E+03</pdfrwt>
<pdfrwt beam="2">  1       21 0.13278518E+00 0.45407638E+03</pdfrwt>
<totfact> 0.41033004E+04</totfact>
</mgrwt>
</event>
<event>
 7    0  0.4691878E-002  0.4561208E+03  0.7546771E-02  0.1025912E+00
         21   -1    0    0  502  501  0.00000000000E+00  0.00000000000E+00  0.19686908547E+03  0.19686908547E+03  0.00000000000E+00 0. -1.
         21   -1    0    0  501  502 -0.00000000000E+00 -0.00000000000E+00 -0.26419354488E+03  0.26419354488E+03  0.00000000000E+00 0. -1.
      99926    2    1    2    0    0  0.00000000000E+00  0.00000000000E+00 -0.67324459410E+02  0.46106263035E+03  0.45612078035E+03 0.  0.
      99925    2    3    3    0    0 -0.10281269204E+03  0.46024532108E+02 -0.23203689283E+02  0.28704292555E+03  0.26299529028E+03 0.  0.
         25    1    4    4    0    0 -0.28985474200E+02  0.56789220441E+02 -0.86548772533E+01  0.14066836273E+03  0.12509000000E+03 0.  0.
         25    1    3    3    0    0  0.10281269204E+03 -0.46024532108E+02 -0.44120770127E+02  0.17401970480E+03  0.12509000000E+03 0.  0.
         25    1    4    4    0    0 -0.73827217843E+02 -0.10764688333E+02 -0.14548812030E+02  0.14637456282E+03  0.12509000000E+03 0.  0.
<mgrwt>
<rscale>  2 0.45612078E+03</rscale>
<asrwt>0</asrwt>
<pdfrwt beam="1">  1       21 0.28951336E-01 0.45612078E+03</pdfrwt>
<pdfrwt beam="2">  1       21 0.38851992E-01 0.45612078E+03</pdfrwt>
<totfact> 0.67497893E+04</totfact>
</mgrwt>
</event>
<event>
 7    0  0.4691878E-002  0.4602650E+03  0.7546771E-02  0.1024704E+00
         21   -1    0    0  502  501  0.00000000000E+00  0.00000000000E+00  0.39039777607E+03  0.39039777607E+03  0.00000000000E+00 0. -1.
         21   -1    0    0  501  502 -0.00000000000E+00 -0.00000000000E+00 -0.13565899955E+03  0.13565899955E+03  0.00000000000E+00 0. -1.
      99926    2    1    2    0    0  0.00000000000E+00  0.71054273576E-14  0.25473877652E+03  0.52605677561E+03  0.46026501812E+03 0.  0.
      99925    2    3    3    0    0 -0.49125783596E+02 -0.35693093869E+02  0.27520408155E+03  0.38550900305E+03  0.26304479725E+03 0.  0.
         25    1    4    4    0    0 -0.44374217229E+02  0.16273666429E+02  0.15058049370E+03  0.20138494620E+03  0.12509000000E+03 0.  0.
         25    1    3    3    0    0  0.49125783596E+02  0.35693093869E+02 -0.20465305035E+02  0.14054777257E+03  0.12509000000E+03 0.  0.
         25    1    4    4    0    0 -0.47515663675E+01 -0.51966760298E+02  0.12462358785E+03  0.18412405684E+03  0.12509000000E+03 0.  0.
<mgrwt>
<rscale>  2 0.46026502E+03</rscale>
<asrwt>0</asrwt>
<pdfrwt beam="1">  1       21 0.57411438E-01 0.46026502E+03</pdfrwt>
<pdfrwt beam="2">  1       21 0.19949853E-01 0.46026502E+03</pdfrwt>
<totfact> 0.60892604E+04</totfact>
</mgrwt>
</event>
<event>
 7    0  0.4691878E-002  0.4536919E+03  0.7546771E-02  0.1026627E+00
         21   -1    0    0  502  501  0.00000000000E+00  0.00000000000E+00  0.64441219840E+02  0.64441219840E+02  0.00000000000E+00 0. -1.
         21   -1    0    0  501  502 -0.00000000000E+00 -0.00000000000E+00 -0.79854308827E+03  0.79854308827E+03  0.00000000000E+00 0. -1.
      99926    2    1    2    0    0 -0.14210854715E-13  0.71054273576E-14 -0.73410186843E+03  0.86298430811E+03  0.45369192500E+03 0.  0.
      99925    2    3    3    0    0  0.76704188461E+02 -0.55722622741E+02 -0.57559707724E+03  0.63991521535E+03  0.26304171590E+03 0.  0.
         25    1    4    4    0    0  0.57177374314E+02 -0.16415997538E+02 -0.37212306883E+03  0.39706652284E+03  0.12509000000E+03 0.  0.
         25    1    3    3    0    0 -0.76704188461E+02  0.55722622741E+02 -0.15850479120E+03  0.22306909276E+03  0.12509000000E+03 0.  0.
         25    1    4    4    0    0  0.19526814147E+02 -0.39306625202E+02 -0.20347400841E+03  0.24284869251E+03  0.12509000000E+03 0.  0.
<mgrwt>
<rscale>  2 0.45369193E+03</rscale>
<asrwt>0</asrwt>
<pdfrwt beam="1">  1       21 0.94766503E-02 0.45369193E+03</pdfrwt>
<pdfrwt beam="2">  1       21 0.11743280E+00 0.45369193E+03</pdfrwt>
<totfact> 0.45327203E+04</totfact>
</mgrwt>
</event>
<event>
 7    0  0.4691878E-002  0.4504508E+03  0.7546771E-02  0.1027588E+00
         21   -1    0    0  502  501  0.00000000000E+00  0.00000000000E+00  0.25804505501E+02  0.25804505501E+02  0.00000000000E+00 0.  1.
         21   -1    0    0  501  502 -0.00000000000E+00 -0.00000000000E+00 -0.19657992934E+04  0.19657992934E+04  0.00000000000E+00 0.  1.
      99926    2    1    2    0    0  0.00000000000E+00  0.00000000000E+00 -0.19399947879E+04  0.19916037989E+04  0.45045079057E+03 0.  0.
      99925    2    3    3    0    0  0.56863388237E+02 -0.84626890676E+02 -0.13939805540E+04  0.14222408151E+04  0.26304371463E+03 0.  0.
         25    1    4    4    0    0  0.68985679163E+02 -0.39521815135E+02 -0.69692378752E+03  0.71251054134E+03  0.12509000000E+03 0.  0.
         25    1    3    3    0    0 -0.56863388237E+02  0.84626890676E+02 -0.54601423396E+03  0.56936298381E+03  0.12509000000E+03 0.  0.
         25    1    4    4    0    0 -0.12122290926E+02 -0.45105075542E+02 -0.69705676645E+03  0.70973027379E+03  0.12509000000E+03 0.  0.
<mgrwt>
<rscale>  2 0.45045079E+03</rscale>
<asrwt>0</asrwt>
<pdfrwt beam="1">  1       21 0.37947785E-02 0.45045079E+03</pdfrwt>
<pdfrwt beam="2">  1       21 0.28908826E+00 0.45045079E+03</pdfrwt>
<totfact> 0.14347214E+04</totfact>
</mgrwt>
</event>
<event>
 7    0  0.4691878E-002  0.4225526E+03  0.7546771E-02  0.1036239E+00
         21   -1    0    0  502  501  0.00000000000E+00  0.00000000000E+00  0.29391673378E+02  0.29391673378E+02  0.00000000000E+00 0.  1.
         21   -1    0    0  501  502 -0.00000000000E+00 -0.00000000000E+00 -0.15187184918E+04  0.15187184918E+04  0.00000000000E+00 0.  1.
      99926    2    1    2    0    0 -0.71054273576E-14  0.00000000000E+00 -0.14893268184E+04  0.15481101652E+04  0.42255261383E+03 0.  0.
      99925    2    3    3    0    0  0.32274420454E+02  0.97807445888E+01 -0.70587844370E+03  0.75402190488E+03  0.26295884580E+03 0.  0.
         25    1    4    4    0    0  0.52201109792E+02  0.86206867839E+01 -0.31214341509E+03  0.34041194425E+03  0.12509000000E+03 0.  0.
         25    1    4    4    0    0 -0.19926689338E+02  0.11600578048E+01 -0.39373502861E+03  0.41360996063E+03  0.12509000000E+03 0.  0.
         25    1    3    3    0    0 -0.32274420454E+02 -0.97807445888E+01 -0.78344837470E+03  0.79408826027E+03  0.12509000000E+03 0.  0.
<mgrwt>
<rscale>  2 0.42255261E+03</rscale>
<asrwt>0</asrwt>
<pdfrwt beam="1">  1       21 0.43223023E-02 0.42255261E+03</pdfrwt>
<pdfrwt beam="2">  1       21 0.22334109E+00 0.42255261E+03</pdfrwt>
<totfact> 0.29354065E+04</totfact>
</mgrwt>
</event>
<event>
 7    0  0.4691878E-002  0.4554631E+03  0.7546771E-02  0.1026105E+00
         21   -1    0    0  502  501  0.00000000000E+00  0.00000000000E+00  0.28552540801E+03  0.28552540801E+03  0.00000000000E+00 0. -1.
         21   -1    0    0  501  502 -0.00000000000E+00 -0.00000000000E+00 -0.18163587095E+03  0.18163587095E+03  0.00000000000E+00 0. -1.
      99926    2    1    2    0    0  0.00000000000E+00  0.00000000000E+00  0.10388953706E+03  0.46716127896E+03  0.45546308813E+03 0.  0.
      99925    2    3    3    0    0 -0.19259436696E+02  0.83075124401E+02  0.14250619643E+03  0.31092057787E+03  0.26285202591E+03 0.  0.
         25    1    3    3    0    0  0.19259436696E+02 -0.83075124401E+02 -0.38616659371E+02  0.15624070109E+03  0.12509000000E+03 0.  0.
         25    1    4    4    0    0 -0.58627063777E+01  0.28714205077E+02  0.26084994924E+02  0.13109848191E+03  0.12509000000E+03 0.  0.
         25    1    4    4    0    0 -0.13396730318E+02  0.54360919324E+02  0.11642120151E+03  0.17982209596E+03  0.12509000000E+03 0.  0.
<mgrwt>
<rscale>  2 0.45546309E+03</rscale>
<asrwt>0</asrwt>
<pdfrwt beam="1">  1       21 0.41989031E-01 0.45546309E+03</pdfrwt>
<pdfrwt beam="2">  1       21 0.26711157E-01 0.45546309E+03</pdfrwt>
<totfact> 0.67399805E+04</totfact>
</mgrwt>
</event>
<event>
 7    0  0.4691878E-002  0.4487255E+03  0.7546771E-02  0.1028103E+00
         21   -1    0    0  502  501  0.00000000000E+00  0.00000000000E+00  0.10336681387E+04  0.10336681387E+04  0.00000000000E+00 0.  1.
         21   -1    0    0  501  502 -0.00000000000E+00 -0.00000000000E+00 -0.48699047659E+02  0.48699047659E+02  0.00000000000E+00 0.  1.
      99926    2    1    2    0    0  0.00000000000E+00  0.00000000000E+00  0.98496909107E+03  0.10823671864E+04  0.44872554619E+03 0.  0.
      99925    2    3    3    0    0 -0.64916246016E+02 -0.21126398410E+02  0.42518709398E+03  0.50473076434E+03  0.26326533361E+03 0.  0.
         25    1    4    4    0    0 -0.20908421467E+02  0.28069562368E+02  0.18629075187E+03  0.22710529441E+03  0.12509000000E+03 0.  0.
         25    1    4    4    0    0 -0.44007824549E+02 -0.49195960778E+02  0.23889634211E+03  0.27762546993E+03  0.12509000000E+03 0.  0.
         25    1    3    3    0    0  0.64916246016E+02  0.21126398410E+02  0.55978199709E+03  0.57763642204E+03  0.12509000000E+03 0.  0.
<mgrwt>
<rscale>  2 0.44872555E+03</rscale>
<asrwt>0</asrwt>
<pdfrwt beam="1">  1       21 0.15201001E+00 0.44872555E+03</pdfrwt>
<pdfrwt beam="2">  1       21 0.71616253E-02 0.44872555E+03</pdfrwt>
<totfact> 0.37935095E+04</totfact>
</mgrwt>
</event>
<event>
 7    0  0.4691878E-002  0.4542681E+03  0.7546771E-02  0.1026457E+00
         21   -1    0    0  502  501  0.00000000000E+00  0.00000000000E+00  0.98126226414E+03  0.98126226414E+03  0.00000000000E+00 0. -1.
         21   -1    0    0  501  502 -0.00000000000E+00 -0.00000000000E+00 -0.52575014965E+02  0.52575014965E+02  0.00000000000E+00 0. -1.
      99926    2    1    2    0    0  0.00000000000E+00 -0.35527136788E-14  0.92868724918E+03  0.10338372791E+04  0.45426810683E+03 0.  0.
      99925    2    3    3    0    0  0.57306678397E+02 -0.50050169102E+01  0.80477726124E+03  0.84860688529E+03  0.26297927668E+03 0.  0.
         25    1    3    3    0    0 -0.57306678397E+02  0.50050169102E+01  0.12390998793E+03  0.18523039381E+03  0.12509000000E+03 0.  0.
         25    1    4    4    0    0  0.36583857782E+02  0.28322532844E+02  0.48485754774E+03  0.50286667639E+03  0.12509000000E+03 0.  0.
         25    1    4    4    0    0  0.20722820615E+02 -0.33327549754E+02  0.31991971350E+03  0.34574020890E+03  0.12509000000E+03 0.  0.
<mgrwt>
<rscale>  2 0.45426811E+03</rscale>
<asrwt>0</asrwt>
<pdfrwt beam="1">  1       21 0.14430326E+00 0.45426811E+03</pdfrwt>
<pdfrwt beam="2">  1       21 0.77316205E-02 0.45426811E+03</pdfrwt>
<totfact> 0.38093289E+04</totfact>
</mgrwt>
</event>
<event>
 7    0  0.4691878E-002  0.4284497E+03  0.7546771E-02  0.1034351E+00
         21   -1    0    0  502  501  0.00000000000E+00  0.00000000000E+00  0.29054312504E+04  0.29054312504E+04  0.00000000000E+00 0.  1.
         21   -1    0    0  501  502 -0.00000000000E+00 -0.00000000000E+00 -0.15795343423E+02  0.15795343423E+02  0.00000000000E+00 0.  1.
      99926    2    1    2    0    0  0.00000000000E+00  0.00000000000E+00  0.28896359070E+04  0.29212265939E+04  0.42844969083E+03 0.  0.
      99925    2    3    3    0    0 -0.32872145528E+02  0.55073792839E+02  0.14762376423E+04  0.15008548596E+04  0.26300956734E+03 0.  0.
         25    1    4    4    0    0 -0.24779991599E+02 -0.89662944071E+01  0.79674576859E+03  0.80693603854E+03  0.12509000000E+03 0.  0.
         25    1    4    4    0    0 -0.80921539291E+01  0.64040087246E+02  0.67949187371E+03  0.69391882109E+03  0.12509000000E+03 0.  0.
         25    1    3    3    0    0  0.32872145528E+02 -0.55073792839E+02  0.14133982647E+04  0.14203717342E+04  0.12509000000E+03 0.  0.
<mgrwt>
<rscale>  2 0.42844969E+03</rscale>
<asrwt>0</asrwt>
<pdfrwt beam="1">  1       21 0.42726893E+00 0.42844969E+03</pdfrwt>
<pdfrwt beam="2">  1       21 0.23228466E-02 0.42844969E+03</pdfrwt>
<totfact> 0.45868456E+03</totfact>
</mgrwt>
</event>
<event>
 7    0  0.4691878E-002  0.4322481E+03  0.7546771E-02  0.1033152E+00
         21   -1    0    0  502  501  0.00000000000E+00  0.00000000000E+00  0.98147790791E+03  0.98147790791E+03  0.00000000000E+00 0.  1.
         21   -1    0    0  501  502 -0.00000000000E+00 -0.00000000000E+00 -0.47591088028E+02  0.47591088028E+02  0.00000000000E+00 0.  1.
      99926    2    1    2    0    0  0.00000000000E+00 -0.14210854715E-13  0.93388681989E+03  0.10290689959E+04  0.43224808392E+03 0.  0.
      99925    2    3    3    0    0 -0.18568733335E+02  0.87959087462E+02  0.61956922004E+03  0.67903376828E+03  0.26294341812E+03 0.  0.
         25    1    4    4    0    0 -0.49825421208E+01  0.40778272332E+02  0.20882955487E+03  0.24687037957E+03  0.12509000000E+03 0.  0.
         25    1    4    4    0    0 -0.13586191214E+02  0.47180815131E+02  0.41073966516E+03  0.43216338872E+03  0.12509000000E+03 0.  0.
         25    1    3    3    0    0  0.18568733335E+02 -0.87959087462E+02  0.31431759985E+03  0.35003522766E+03  0.12509000000E+03 0.  0.
<mgrwt>
<rscale>  2 0.43224808E+03</rscale>
<asrwt>0</asrwt>
<pdfrwt beam="1">  1       21 0.14433497E+00 0.43224808E+03</pdfrwt>
<pdfrwt beam="2">  1       21 0.69986900E-02 0.43224808E+03</pdfrwt>
<totfact> 0.45638247E+04</totfact>
</mgrwt>
</event>
<event>
 7    0  0.4691878E-002  0.4562658E+03  0.7546771E-02  0.1025870E+00
         21   -1    0    0  502  501  0.00000000000E+00  0.00000000000E+00  0.40489134720E+03  0.40489134720E+03  0.00000000000E+00 0. -1.
         21   -1    0    0  501  502 -0.00000000000E+00 -0.00000000000E+00 -0.12853973796E+03  0.12853973796E+03  0.00000000000E+00 0. -1.
      99926    2    1    2    0    0  0.00000000000E+00  0.00000000000E+00  0.27635160924E+03  0.53343108515E+03  0.45626583335E+03 0.  0.
      99925    2    3    3    0    0 -0.88272861434E+02  0.68216865684E+02  0.20263951088E+03  0.35032832610E+03  0.26309984011E+03 0.  0.
         25    1    4    4    0    0 -0.39869600539E+02  0.34165889304E+01  0.12926024226E+03  0.18427418825E+03  0.12509000000E+03 0.  0.
         25    1    3    3    0    0  0.88272861434E+02 -0.68216865684E+02  0.73712098359E+02  0.18310275906E+03  0.12509000000E+03 0.  0.
         25    1    4    4    0    0 -0.48403260895E+02  0.64800276753E+02  0.73379268616E+02  0.16605413784E+03  0.12509000000E+03 0.  0.
<mgrwt>
<rscale>  2 0.45626583E+03</rscale>
<asrwt>0</asrwt>
<pdfrwt beam="1">  1       21 0.59542845E-01 0.45626583E+03</pdfrwt>
<pdfrwt beam="2">  1       21 0.18902903E-01 0.45626583E+03</pdfrwt>
<totfact> 0.62346988E+04</totfact>
</mgrwt>
</event>
<event>
 7    0  0.4691878E-002  0.4582964E+03  0.7546771E-02  0.1025276E+00
         21   -1    0    0  502  501  0.00000000000E+00  0.00000000000E+00  0.33858149204E+03  0.33858149204E+03  0.00000000000E+00 0. -1.
         21   -1    0    0  501  502 -0.00000000000E+00 -0.00000000000E+00 -0.15508496869E+03  0.15508496869E+03  0.00000000000E+00 0. -1.
      99926    2    1    2    0    0 -0.71054273576E-14 -0.35527136788E-14  0.18349652335E+03  0.49366646073E+03  0.45829641104E+03 0.  0.
      99925    2    3    3    0    0 -0.60080621055E+02 -0.29050566985E+02  0.12570401709E+02  0.27159245589E+03  0.26296545520E+03 0.  0.
         25    1    3    3    0    0  0.60080621055E+02  0.29050566985E+02  0.17092612164E+03  0.22207400484E+03  0.12509000000E+03 0.  0.
         25    1    4    4    0    0 -0.59232266032E+02  0.10052713829E+02  0.20571965590E+02  0.14028625115E+03  0.12509000000E+03 0.  0.
         25    1    4    4    0    0 -0.84835502306E+00 -0.39103280814E+02 -0.80015638814E+01  0.13130620473E+03  0.12509000000E+03 0.  0.
<mgrwt>
<rscale>  2 0.45829641E+03</rscale>
<asrwt>0</asrwt>
<pdfrwt beam="1">  1       21 0.49791396E-01 0.45829641E+03</pdfrwt>
<pdfrwt beam="2">  1       21 0.22806613E-01 0.45829641E+03</pdfrwt>
<totfact> 0.64025960E+04</totfact>
</mgrwt>
</event>
<event>
 7    0  0.4691878E-002  0.4538475E+03  0.7546771E-02  0.1026581E+00
         21   -1    0    0  502  501  0.00000000000E+00  0.00000000000E+00  0.89322379122E+03  0.89322379122E+03  0.00000000000E+00 0.  1.
         21   -1    0    0  501  502 -0.00000000000E+00 -0.00000000000E+00 -0.57650032825E+02  0.57650032825E+02  0.00000000000E+00 0.  1.
      99926    2    1    2    0    0  0.00000000000E+00  0.00000000000E+00  0.83557375840E+03  0.95087382405E+03  0.45384746726E+03 0.  0.
      99925    2    3    3    0    0 -0.40587306064E+02 -0.34012348217E+02  0.31970314149E+03  0.41741888618E+03  0.26310503343E+03 0.  0.
         25    1    4    4    0    0  0.17498046835E+02 -0.36762149161E+01  0.13490634034E+03  0.18484297380E+03  0.12509000000E+03 0.  0.
         25    1    3    3    0    0  0.40587306064E+02  0.34012348217E+02  0.51587061691E+03  0.53345493786E+03  0.12509000000E+03 0.  0.
         25    1    4    4    0    0 -0.58085352899E+02 -0.30336133301E+02  0.18479680115E+03  0.23257591238E+03  0.12509000000E+03 0.  0.
<mgrwt>
<rscale>  2 0.45384747E+03</rscale>
<asrwt>0</asrwt>
<pdfrwt beam="1">  1       21 0.13135643E+00 0.45384747E+03</pdfrwt>
<pdfrwt beam="2">  1       21 0.84779466E-02 0.45384747E+03</pdfrwt>
<totfact> 0.41478006E+04</totfact>
</mgrwt>
</event>
<event>
 7    0  0.4691878E-002  0.4488047E+03  0.7546771E-02  0.1028079E+00
         21   -1    0    0  502  501  0.00000000000E+00  0.00000000000E+00  0.15281445092E+03  0.15281445092E+03  0.00000000000E+00 0.  1.
         21   -1    0    0  501  502 -0.00000000000E+00 -0.00000000000E+00 -0.32952656876E+03  0.32952656876E+03  0.00000000000E+00 0.  1.
      99926    2    1    2    0    0  0.71054273576E-14  0.00000000000E+00 -0.17671211785E+03  0.48234101968E+03  0.44880473111E+03 0.  0.
      99925    2    3    3    0    0 -0.34505704369E+02  0.38315479002E+02 -0.10824617454E+02  0.26827352926E+03  0.26304903458E+03 0.  0.
         25    1    4    4    0    0  0.49773913707E+01  0.38326386134E+02  0.22715054588E+02  0.13288027733E+03  0.12509000000E+03 0.  0.
         25    1    4    4    0    0 -0.39483095740E+02 -0.10907131849E-01 -0.33539672041E+02  0.13539325193E+03  0.12509000000E+03 0.  0.
         25    1    3    3    0    0  0.34505704369E+02 -0.38315479002E+02 -0.16588750039E+03  0.21406749041E+03  0.12509000000E+03 0.  0.
<mgrwt>
<rscale>  2 0.44880473E+03</rscale>
<asrwt>0</asrwt>
<pdfrwt beam="1">  1       21 0.22472714E-01 0.44880473E+03</pdfrwt>
<pdfrwt beam="2">  1       21 0.48459789E-01 0.44880473E+03</pdfrwt>
<totfact> 0.69905339E+04</totfact>
</mgrwt>
</event>
<event>
 7    0  0.4691878E-002  0.4549342E+03  0.7546771E-02  0.1026261E+00
         21   -1    0    0  502  501  0.00000000000E+00  0.00000000000E+00  0.12339007468E+04  0.12339007468E+04  0.00000000000E+00 0. -1.
         21   -1    0    0  501  502 -0.00000000000E+00 -0.00000000000E+00 -0.41933095888E+02  0.41933095888E+02  0.00000000000E+00 0. -1.
      99926    2    1    2    0    0  0.00000000000E+00 -0.14210854715E-13  0.11919676509E+04  0.12758338427E+04  0.45493418571E+03 0.  0.
      99925    2    3    3    0    0 -0.87748397160E+02  0.63835682925E+02  0.66035515138E+03  0.71902675457E+03  0.26297485092E+03 0.  0.
         25    1    4    4    0    0 -0.82564600625E+02  0.49786769131E+02  0.38970675989E+03  0.42049316577E+03  0.12509000000E+03 0.  0.
         25    1    4    4    0    0 -0.51837965349E+01  0.14048913794E+02  0.27064839149E+03  0.29853358880E+03  0.12509000000E+03 0.  0.
         25    1    3    3    0    0  0.87748397160E+02 -0.63835682925E+02  0.53161249954E+03  0.55680708812E+03  0.12509000000E+03 0.  0.
<mgrwt>
<rscale>  2 0.45493419E+03</rscale>
<asrwt>0</asrwt>
<pdfrwt beam="1">  1       21 0.18145597E+00 0.45493419E+03</pdfrwt>
<pdfrwt beam="2">  1       21 0.61666326E-02 0.45493419E+03</pdfrwt>
<totfact> 0.29840028E+04</totfact>
</mgrwt>
</event>
<event>
 7    0  0.4691878E-002  0.4531241E+03  0.7546771E-02  0.1026794E+00
         21   -1    0    0  502  501  0.00000000000E+00  0.00000000000E+00  0.18513133920E+04  0.18513133920E+04  0.00000000000E+00 0.  1.
         21   -1    0    0  501  502 -0.00000000000E+00 -0.00000000000E+00 -0.27726454699E+02  0.27726454699E+02  0.00000000000E+00 0.  1.
      99926    2    1    2    0    0  0.00000000000E+00  0.00000000000E+00  0.18235869373E+04  0.18790398467E+04  0.45312407527E+03 0.  0.
      99925    2    3    3    0    0 -0.10546326333E+03 -0.36449422415E+02  0.12173851543E+04  0.12500889980E+04  0.26123711187E+03 0.  0.
         25    1    4    4    0    0 -0.56726657842E+02  0.12887161914E+02  0.68983782479E+03  0.70349678412E+03  0.12509000000E+03 0.  0.
         25    1    3    3    0    0  0.10546326333E+03  0.36449422415E+02  0.60620178297E+03  0.62895084871E+03  0.12509000000E+03 0.  0.
         25    1    4    4    0    0 -0.48736605490E+02 -0.49336584329E+02  0.52754732955E+03  0.54659221389E+03  0.12509000000E+03 0.  0.
<mgrwt>
<rscale>  2 0.45312408E+03</rscale>
<asrwt>0</asrwt>
<pdfrwt beam="1">  1       21 0.27225189E+00 0.45312408E+03</pdfrwt>
<pdfrwt beam="2">  1       21 0.40774211E-02 0.45312408E+03</pdfrwt>
<totfact> 0.16018815E+04</totfact>
</mgrwt>
</event>
<event>
 7    0  0.4691878E-002  0.4479208E+03  0.7546771E-02  0.1028344E+00
         21   -1    0    0  502  501  0.00000000000E+00  0.00000000000E+00  0.66622041140E+03  0.66622041140E+03  0.00000000000E+00 0.  1.
         21   -1    0    0  501  502 -0.00000000000E+00 -0.00000000000E+00 -0.75287789813E+02  0.75287789813E+02  0.00000000000E+00 0.  1.
      99926    2    1    2    0    0  0.71054273576E-14  0.00000000000E+00  0.59093262158E+03  0.74150820121E+03  0.44792080685E+03 0.  0.
      99925    2    3    3    0    0  0.37958458240E+02  0.99304601811E+02  0.37062470197E+03  0.46676225304E+03  0.26306288727E+03 0.  0.
         25    1    4    4    0    0  0.17797467247E+02  0.71178081078E+01  0.15201665418E+03  0.19779783689E+03  0.12509000000E+03 0.  0.
         25    1    4    4    0    0  0.20160990993E+02  0.92186793703E+02  0.21860804779E+03  0.26896441614E+03  0.12509000000E+03 0.  0.
         25    1    3    3    0    0 -0.37958458240E+02 -0.99304601811E+02  0.22030791961E+03  0.27474594817E+03  0.12509000000E+03 0.  0.
<mgrwt>
<rscale>  2 0.44792081E+03</rscale>
<asrwt>0</asrwt>
<pdfrwt beam="1">  1       21 0.97973587E-01 0.44792081E+03</pdfrwt>
<pdfrwt beam="2">  1       21 0.11071734E-01 0.44792081E+03</pdfrwt>
<totfact> 0.53629353E+04</totfact>
</mgrwt>
</event>
<event>
 7    0  0.4691878E-002  0.4271399E+03  0.7546771E-02  0.1034767E+00
         21   -1    0    0  502  501  0.00000000000E+00  0.00000000000E+00  0.11201660491E+03  0.11201660491E+03  0.00000000000E+00 0. -1.
         21   -1    0    0  501  502 -0.00000000000E+00 -0.00000000000E+00 -0.40719078704E+03  0.40719078704E+03  0.00000000000E+00 0. -1.
      99926    2    1    2    0    0  0.17763568394E-14  0.00000000000E+00 -0.29517418213E+03  0.51920739195E+03  0.42713992797E+03 0.  0.
      99925    2    3    3    0    0 -0.11178440339E+02 -0.37854649847E+02 -0.28165674712E+03  0.38734321489E+03  0.26295686125E+03 0.  0.
         25    1    3    3    0    0  0.11178440339E+02  0.37854649847E+02 -0.13517435003E+02  0.13186417706E+03  0.12509000000E+03 0.  0.
         25    1    4    4    0    0 -0.24171097245E+02  0.10577184517E+02 -0.10682598584E+03  0.16659957420E+03  0.12509000000E+03 0.  0.
         25    1    4    4    0    0  0.12992656906E+02 -0.48431834364E+02 -0.17483076129E+03  0.22074364069E+03  0.12509000000E+03 0.  0.
<mgrwt>
<rscale>  2 0.42713993E+03</rscale>
<asrwt>0</asrwt>
<pdfrwt beam="1">  1       21 0.16473030E-01 0.42713993E+03</pdfrwt>
<pdfrwt beam="2">  1       21 0.59880998E-01 0.42713993E+03</pdfrwt>
<totfact> 0.80236913E+04</totfact>
</mgrwt>
</event>
<event>
 7    0  0.4691878E-002  0.4551126E+03  0.7546771E-02  0.1026208E+00
         21   -1    0    0  502  501  0.00000000000E+00  0.00000000000E+00  0.51349180108E+02  0.51349180108E+02  0.00000000000E+00 0.  1.
         21   -1    0    0  501  502 -0.00000000000E+00 -0.00000000000E+00 -0.10084262057E+04  0.10084262057E+04  0.00000000000E+00 0.  1.
      99926    2    1    2    0    0  0.00000000000E+00  0.00000000000E+00 -0.95707702557E+03  0.10597753858E+04  0.45511255250E+03 0.  0.
      99925    2    3    3    0    0 -0.36254628054E+02  0.70006437968E+02 -0.79159167433E+03  0.83785601081E+03  0.26300193265E+03 0.  0.
         25    1    4    4    0    0  0.54893705888E+01  0.99933174653E+01 -0.44011054819E+03  0.45768417310E+03  0.12509000000E+03 0.  0.
         25    1    3    3    0    0  0.36254628054E+02 -0.70006437968E+02 -0.16548535124E+03  0.22191937497E+03  0.12509000000E+03 0.  0.
         25    1    4    4    0    0 -0.41743998643E+02  0.60013120502E+02 -0.35148112614E+03  0.38017183771E+03  0.12509000000E+03 0.  0.
<mgrwt>
<rscale>  2 0.45511255E+03</rscale>
<asrwt>0</asrwt>
<pdfrwt beam="1">  1       21 0.75513502E-02 0.45511255E+03</pdfrwt>
<pdfrwt beam="2">  1       21 0.14829797E+00 0.45511255E+03</pdfrwt>
<totfact> 0.36888319E+04</totfact>
</mgrwt>
</event>
<event>
 7    0  0.4691878E-002  0.4543270E+03  0.7546771E-02  0.1026439E+00
         21   -1    0    0  502  501  0.00000000000E+00  0.00000000000E+00  0.93593279417E+02  0.93593279417E+02  0.00000000000E+00 0. -1.
         21   -1    0    0  501  502 -0.00000000000E+00 -0.00000000000E+00 -0.55135640929E+03  0.55135640929E+03  0.00000000000E+00 0. -1.
      99926    2    1    2    0    0  0.00000000000E+00  0.71054273576E-14 -0.45776312987E+03  0.64494968870E+03  0.45432699445E+03 0.  0.
      99925    2    3    3    0    0  0.43212031305E+02  0.52295846034E+02 -0.16133412798E+03  0.31613394026E+03  0.26326760563E+03 0.  0.
         25    1    4    4    0    0  0.18962287211E+02  0.65948402130E+02 -0.71141532503E+02  0.15942830936E+03  0.12509000000E+03 0.  0.
         25    1    3    3    0    0 -0.43212031305E+02 -0.52295846034E+02 -0.29642900189E+03  0.32881574844E+03  0.12509000000E+03 0.  0.
         25    1    4    4    0    0  0.24249744094E+02 -0.13652556096E+02 -0.90192595481E+02  0.15670563090E+03  0.12509000000E+03 0.  0.
<mgrwt>
<rscale>  2 0.45432699E+03</rscale>
<asrwt>0</asrwt>
<pdfrwt beam="1">  1       21 0.13763717E-01 0.45432699E+03</pdfrwt>
<pdfrwt beam="2">  1       21 0.81081827E-01 0.45432699E+03</pdfrwt>
<totfact> 0.56291700E+04</totfact>
</mgrwt>
</event>
<event>
 7    0  0.4691878E-002  0.4532674E+03  0.7546771E-02  0.1026752E+00
         21   -1    0    0  502  501  0.00000000000E+00  0.00000000000E+00  0.25744344062E+03  0.25744344062E+03  0.00000000000E+00 0.  1.
         21   -1    0    0  501  502 -0.00000000000E+00 -0.00000000000E+00 -0.19951111036E+03  0.19951111036E+03  0.00000000000E+00 0.  1.
      99926    2    1    2    0    0 -0.14210854715E-13 -0.14210854715E-13  0.57932330266E+02  0.45695455098E+03  0.45326736787E+03 0.  0.
      99925    2    3    3    0    0  0.83675653594E+02  0.72054778034E+02  0.20889082891E+02  0.28603580913E+03  0.26303350410E+03 0.  0.
         25    1    4    4    0    0  0.15787275299E+02  0.21794997708E+02 -0.20361501188E+02  0.12956218128E+03  0.12509000000E+03 0.  0.
         25    1    3    3    0    0 -0.83675653594E+02 -0.72054778034E+02  0.37043247374E+02  0.17091874186E+03  0.12509000000E+03 0.  0.
         25    1    4    4    0    0  0.67888378295E+02  0.50259780327E+02  0.41250584079E+02  0.15647362785E+03  0.12509000000E+03 0.  0.
<mgrwt>
<rscale>  2 0.45326737E+03</rscale>
<asrwt>0</asrwt>
<pdfrwt beam="1">  1       21 0.37859329E-01 0.45326737E+03</pdfrwt>
<pdfrwt beam="2">  1       21 0.29339869E-01 0.45326737E+03</pdfrwt>
<totfact> 0.69356453E+04</totfact>
</mgrwt>
</event>
<event>
 7    0  0.4691878E-002  0.4505629E+03  0.7546771E-02  0.1027554E+00
         21   -1    0    0  502  501  0.00000000000E+00  0.00000000000E+00  0.38163073325E+03  0.38163073325E+03  0.00000000000E+00 0.  1.
         21   -1    0    0  501  502 -0.00000000000E+00 -0.00000000000E+00 -0.13298646157E+03  0.13298646157E+03  0.00000000000E+00 0.  1.
      99926    2    1    2    0    0  0.14210854715E-13  0.17763568394E-14  0.24864427168E+03  0.51461719481E+03  0.45056285173E+03 0.  0.
      99925    2    3    3    0    0  0.70853094886E+02 -0.10391334516E+02  0.62753179336E+02  0.27939145813E+03  0.26266610834E+03 0.  0.
         25    1    4    4    0    0  0.64292613228E+01  0.22208213750E+02  0.20053668980E+02  0.12877964862E+03  0.12509000000E+03 0.  0.
         25    1    3    3    0    0 -0.70853094886E+02  0.10391334516E+02  0.18589109234E+03  0.23522573669E+03  0.12509000000E+03 0.  0.
         25    1    4    4    0    0  0.64423833563E+02 -0.32599548266E+02  0.42699510356E+02  0.15061180951E+03  0.12509000000E+03 0.  0.
<mgrwt>
<rscale>  2 0.45056285E+03</rscale>
<asrwt>0</asrwt>
<pdfrwt beam="1">  1       21 0.56122166E-01 0.45056285E+03</pdfrwt>
<pdfrwt beam="2">  1       21 0.19556833E-01 0.45056285E+03</pdfrwt>
<totfact> 0.66568441E+04</totfact>
</mgrwt>
</event>
<event>
 7    0  0.4691878E-002  0.4462275E+03  0.7546771E-02  0.1028853E+00
         21   -1    0    0  502  501  0.00000000000E+00  0.00000000000E+00  0.71838955857E+03  0.71838955857E+03  0.00000000000E+00 0.  1.
         21   -1    0    0  501  502 -0.00000000000E+00 -0.00000000000E+00 -0.69293535780E+02  0.69293535780E+02  0.00000000000E+00 0.  1.
      99926    2    1    2    0    0  0.00000000000E+00  0.00000000000E+00  0.64909602279E+03  0.78768309435E+03  0.44622753201E+03 0.  0.
      99925    2    3    3    0    0 -0.22219638059E+02 -0.60630397957E+02  0.55619693172E+03  0.61901920760E+03  0.26393180000E+03 0.  0.
         25    1    4    4    0    0  0.25393626560E+02 -0.37490056726E+02  0.23053937668E+03  0.26616959429E+03  0.12509000000E+03 0.  0.
         25    1    3    3    0    0  0.22219638059E+02  0.60630397957E+02  0.92899091068E+02  0.16866388675E+03  0.12509000000E+03 0.  0.
         25    1    4    4    0    0 -0.47613264620E+02 -0.23140341231E+02  0.32565755504E+03  0.35284961331E+03  0.12509000000E+03 0.  0.
<mgrwt>
<rscale>  2 0.44622753E+03</rscale>
<asrwt>0</asrwt>
<pdfrwt beam="1">  1       21 0.10564552E+00 0.44622753E+03</pdfrwt>
<pdfrwt beam="2">  1       21 0.10190226E-01 0.44622753E+03</pdfrwt>
<totfact> 0.51844907E+04</totfact>
</mgrwt>
</event>
<event>
 7    0  0.4691878E-002  0.4040222E+03  0.7546771E-02  0.1042396E+00
         21   -1    0    0  502  501  0.00000000000E+00  0.00000000000E+00  0.47153545687E+02  0.47153545687E+02  0.00000000000E+00 0. -1.
         21   -1    0    0  501  502 -0.00000000000E+00 -0.00000000000E+00 -0.86543820387E+03  0.86543820387E+03  0.00000000000E+00 0. -1.
      99926    2    1    2    0    0  0.00000000000E+00  0.00000000000E+00 -0.81828465819E+03  0.91259174956E+03  0.40402217704E+03 0.  0.
      99925    2    3    3    0    0  0.31755477189E+02 -0.25873825948E+02 -0.46813003954E+03  0.53851471169E+03  0.26301044768E+03 0.  0.
         25    1    4    4    0    0  0.35341548799E+02 -0.48638016976E+02 -0.23388495266E+03  0.27196389641E+03  0.12509000000E+03 0.  0.
         25    1    3    3    0    0 -0.31755477189E+02  0.25873825948E+02 -0.35015461865E+03  0.37407703787E+03  0.12509000000E+03 0.  0.
         25    1    4    4    0    0 -0.35860716097E+01  0.22764191028E+02 -0.23424508688E+03  0.26655081528E+03  0.12509000000E+03 0.  0.
<mgrwt>
<rscale>  2 0.40402218E+03</rscale>
<asrwt>0</asrwt>
<pdfrwt beam="1">  1       21 0.69343458E-02 0.40402218E+03</pdfrwt>
<pdfrwt beam="2">  1       21 0.12727031E+00 0.40402218E+03</pdfrwt>
<totfact> 0.64998046E+04</totfact>
</mgrwt>
</event>
<event>
 7    0  0.4691878E-002  0.4583671E+03  0.7546771E-02  0.1025256E+00
         21   -1    0    0  502  501  0.00000000000E+00  0.00000000000E+00  0.22338438926E+03  0.22338438926E+03  0.00000000000E+00 0.  1.
         21   -1    0    0  501  502 -0.00000000000E+00 -0.00000000000E+00 -0.23513329502E+03  0.23513329502E+03  0.00000000000E+00 0.  1.
      99926    2    1    2    0    0  0.00000000000E+00  0.35527136788E-14 -0.11748905759E+02  0.45851768428E+03  0.45836713452E+03 0.  0.
      99925    2    3    3    0    0  0.60097312514E+02 -0.12471698046E+02  0.91372777608E+02  0.28517172989E+03  0.26307166479E+03 0.  0.
         25    1    4    4    0    0  0.61555329057E+02 -0.33206237493E+02  0.46901692162E+02  0.15079452766E+03  0.12509000000E+03 0.  0.
         25    1    4    4    0    0 -0.14580165429E+01  0.20734539447E+02  0.44471085446E+02  0.13437720223E+03  0.12509000000E+03 0.  0.
         25    1    3    3    0    0 -0.60097312514E+02  0.12471698046E+02 -0.10312168337E+03  0.17334595439E+03  0.12509000000E+03 0.  0.
<mgrwt>
<rscale>  2 0.45836713E+03</rscale>
<asrwt>0</asrwt>
<pdfrwt beam="1">  1       21 0.32850646E-01 0.45836713E+03</pdfrwt>
<pdfrwt beam="2">  1       21 0.34578425E-01 0.45836713E+03</pdfrwt>
<totfact> 0.66484641E+04</totfact>
</mgrwt>
</event>
<event>
 7    0  0.4691878E-002  0.4502188E+03  0.7546771E-02  0.1027657E+00
         21   -1    0    0  502  501  0.00000000000E+00  0.00000000000E+00  0.67773147375E+03  0.67773147375E+03  0.00000000000E+00 0.  1.
         21   -1    0    0  501  502 -0.00000000000E+00 -0.00000000000E+00 -0.74770384056E+02  0.74770384056E+02  0.00000000000E+00 0.  1.
      99926    2    1    2    0    0  0.00000000000E+00  0.00000000000E+00  0.60296108969E+03  0.75250185781E+03  0.45021880271E+03 0.  0.
      99925    2    3    3    0    0  0.80261331886E+02 -0.73457980992E+02  0.37390749646E+03  0.46974575612E+03  0.26270954135E+03 0.  0.
         25    1    4    4    0    0  0.27409094930E+02 -0.20599276235E+01  0.20350377785E+03  0.24045123723E+03  0.12509000000E+03 0.  0.
         25    1    3    3    0    0 -0.80261331886E+02  0.73457980992E+02  0.22905359323E+03  0.28275610169E+03  0.12509000000E+03 0.  0.
         25    1    4    4    0    0  0.52852236956E+02 -0.71398053369E+02  0.17040371861E+03  0.22929451889E+03  0.12509000000E+03 0.  0.
<mgrwt>
<rscale>  2 0.45021880E+03</rscale>
<asrwt>0</asrwt>
<pdfrwt beam="1">  1       21 0.99666390E-01 0.45021880E+03</pdfrwt>
<pdfrwt beam="2">  1       21 0.10995645E-01 0.45021880E+03</pdfrwt>
<totfact> 0.52072651E+04</totfact>
</mgrwt>
</event>
<event>
 7    0  0.4691878E-002  0.4640623E+03  0.7546771E-02  0.1023610E+00
         21   -1    0    0  502  501  0.00000000000E+00  0.00000000000E+00  0.41244716797E+02  0.41244716797E+02  0.00000000000E+00 0.  1.
         21   -1    0    0  501  502 -0.00000000000E+00 -0.00000000000E+00 -0.13053420736E+04  0.13053420736E+04  0.00000000000E+00 0.  1.
      99926    2    1    2    0    0  0.00000000000E+00  0.00000000000E+00 -0.12640973568E+04  0.13465867904E+04  0.46406234129E+03 0.  0.
      99925    2    3    3    0    0  0.77533849715E+02  0.36210716512E+02 -0.10389168142E+04  0.10751526387E+04  0.26321537918E+03 0.  0.
         25    1    4    4    0    0  0.36921807870E+02  0.21184418236E+01 -0.36323987122E+03  0.38595131797E+03  0.12509000000E+03 0.  0.
         25    1    3    3    0    0 -0.77533849715E+02 -0.36210716512E+02 -0.22518054263E+03  0.27143415172E+03  0.12509000000E+03 0.  0.
         25    1    4    4    0    0  0.40612041846E+02  0.34092274688E+02 -0.67567694297E+03  0.68920132073E+03  0.12509000000E+03 0.  0.
<mgrwt>
<rscale>  2 0.46406234E+03</rscale>
<asrwt>0</asrwt>
<pdfrwt beam="1">  1       21 0.60653990E-02 0.46406234E+03</pdfrwt>
<pdfrwt beam="2">  1       21 0.19196208E+00 0.46406234E+03</pdfrwt>
<totfact> 0.25916388E+04</totfact>
</mgrwt>
</event>
<event>
 7    0  0.4691878E-002  0.4579747E+03  0.7546771E-02  0.1025370E+00
         21   -1    0    0  502  501  0.00000000000E+00  0.00000000000E+00  0.63985154438E+02  0.63985154438E+02  0.00000000000E+00 0. -1.
         21   -1    0    0  501  502 -0.00000000000E+00 -0.00000000000E+00 -0.81949016768E+03  0.81949016768E+03  0.00000000000E+00 0. -1.
      99926    2    1    2    0    0  0.00000000000E+00  0.00000000000E+00 -0.75550501325E+03  0.88347532212E+03  0.45797469336E+03 0.  0.
      99925    2    3    3    0    0  0.53599545429E+02  0.10062915921E+03 -0.43333416338E+03  0.51955128670E+03  0.26297510035E+03 0.  0.
         25    1    3    3    0    0 -0.53599545429E+02 -0.10062915921E+03 -0.32217084986E+03  0.36392403542E+03  0.12509000000E+03 0.  0.
         25    1    4    4    0    0  0.85932551164E+01  0.10328802939E+02 -0.19740533472E+03  0.23408738214E+03  0.12509000000E+03 0.  0.
         25    1    4    4    0    0  0.45006290313E+02  0.90300356274E+02 -0.23592882867E+03  0.28546390456E+03  0.12509000000E+03 0.  0.
<mgrwt>
<rscale>  2 0.45797469E+03</rscale>
<asrwt>0</asrwt>
<pdfrwt beam="1">  1       21 0.94095816E-02 0.45797469E+03</pdfrwt>
<pdfrwt beam="2">  1       21 0.12051326E+00 0.45797469E+03</pdfrwt>
<totfact> 0.42946621E+04</totfact>
</mgrwt>
</event>
<event>
 7    0  0.4691878E-002  0.4566858E+03  0.7546771E-02  0.1025747E+00
         21   -1    0    0  502  501  0.00000000000E+00  0.00000000000E+00  0.17485978885E+03  0.17485978885E+03  0.00000000000E+00 0. -1.
         21   -1    0    0  501  502 -0.00000000000E+00 -0.00000000000E+00 -0.29818454868E+03  0.29818454868E+03  0.00000000000E+00 0. -1.
      99926    2    1    2    0    0  0.35527136788E-14  0.00000000000E+00 -0.12332475982E+03  0.47304433753E+03  0.45668583171E+03 0.  0.
      99925    2    3    3    0    0 -0.16645207533E+02  0.98146853737E+02 -0.18244230094E+02  0.28173491889E+03  0.26292935317E+03 0.  0.
         25    1    3    3    0    0  0.16645207533E+02 -0.98146853737E+02 -0.10508052973E+03  0.19130941864E+03  0.12509000000E+03 0.  0.
         25    1    4    4    0    0 -0.81768140199E+01  0.63160344143E+02  0.28863922041E+02  0.14330639712E+03  0.12509000000E+03 0.  0.
         25    1    4    4    0    0 -0.84683935131E+01  0.34986509593E+02 -0.47108152135E+02  0.13842852177E+03  0.12509000000E+03 0.  0.
<mgrwt>
<rscale>  2 0.45668583E+03</rscale>
<asrwt>0</asrwt>
<pdfrwt beam="1">  1       21 0.25714675E-01 0.45668583E+03</pdfrwt>
<pdfrwt beam="2">  1       21 0.43850668E-01 0.45668583E+03</pdfrwt>
<totfact> 0.66318542E+04</totfact>
</mgrwt>
</event>
<event>
 7    0  0.4691878E-002  0.4715629E+03  0.7546771E-02  0.1021480E+00
         21   -1    0    0  502  501  0.00000000000E+00  0.00000000000E+00  0.10024630971E+03  0.10024630971E+03  0.00000000000E+00 0.  1.
         21   -1    0    0  501  502 -0.00000000000E+00 -0.00000000000E+00 -0.55456299840E+03  0.55456299840E+03  0.00000000000E+00 0.  1.
      99926    2    1    2    0    0  0.00000000000E+00  0.00000000000E+00 -0.45431668868E+03  0.65480930811E+03  0.47156290818E+03 0.  0.
      99925    2    3    3    0    0 -0.12064199217E+03  0.42148813874E+02 -0.28396450839E+03  0.40783079444E+03  0.26336116281E+03 0.  0.
         25    1    4    4    0    0 -0.67777853296E+02 -0.15313659775E+02 -0.16469652874E+03  0.21817607626E+03  0.12509000000E+03 0.  0.
         25    1    3    3    0    0  0.12064199217E+03 -0.42148813874E+02 -0.17035218029E+03  0.24697851367E+03  0.12509000000E+03 0.  0.
         25    1    4    4    0    0 -0.52864138877E+02  0.57462473649E+02 -0.11926797966E+03  0.18965471818E+03  0.12509000000E+03 0.  0.
<mgrwt>
<rscale>  2 0.47156291E+03</rscale>
<asrwt>0</asrwt>
<pdfrwt beam="1">  1       21 0.14742105E-01 0.47156291E+03</pdfrwt>
<pdfrwt beam="2">  1       21 0.81553380E-01 0.47156291E+03</pdfrwt>
<totfact> 0.48737973E+04</totfact>
</mgrwt>
</event>
<event>
 7    0  0.4691878E-002  0.4522325E+03  0.7546771E-02  0.1027058E+00
         21   -1    0    0  502  501  0.00000000000E+00  0.00000000000E+00  0.40087360566E+03  0.40087360566E+03  0.00000000000E+00 0.  1.
         21   -1    0    0  501  502 -0.00000000000E+00 -0.00000000000E+00 -0.12754284756E+03  0.12754284756E+03  0.00000000000E+00 0.  1.
      99926    2    1    2    0    0  0.35527136788E-14  0.00000000000E+00  0.27333075810E+03  0.52841645321E+03  0.45223251177E+03 0.  0.
      99925    2    3    3    0    0 -0.14598799429E+02 -0.10607790284E+03  0.14025674074E+03  0.31670474213E+03  0.26299105298E+03 0.  0.
         25    1    4    4    0    0 -0.31410792200E+02 -0.87406972391E+02  0.87011597013E+02  0.17845207425E+03  0.12509000000E+03 0.  0.
         25    1    4    4    0    0  0.16811992771E+02 -0.18670930445E+02  0.53245143728E+02  0.13825266788E+03  0.12509000000E+03 0.  0.
         25    1    3    3    0    0  0.14598799429E+02  0.10607790284E+03  0.13307401736E+03  0.21171171109E+03  0.12509000000E+03 0.  0.
<mgrwt>
<rscale>  2 0.45223251E+03</rscale>
<asrwt>0</asrwt>
<pdfrwt beam="1">  1       21 0.58952000E-01 0.45223251E+03</pdfrwt>
<pdfrwt beam="2">  1       21 0.18756301E-01 0.45223251E+03</pdfrwt>
<totfact> 0.64721920E+04</totfact>
</mgrwt>
</event>
<event>
 7    0  0.4691878E-002  0.4598414E+03  0.7546771E-02  0.1024827E+00
         21   -1    0    0  502  501  0.00000000000E+00  0.00000000000E+00  0.49592518531E+03  0.49592518531E+03  0.00000000000E+00 0. -1.
         21   -1    0    0  501  502 -0.00000000000E+00 -0.00000000000E+00 -0.10659576757E+03  0.10659576757E+03  0.00000000000E+00 0. -1.
      99926    2    1    2    0    0  0.00000000000E+00  0.00000000000E+00  0.38932941774E+03  0.60252095288E+03  0.45984138911E+03 0.  0.
      99925    2    3    3    0    0 -0.25655054304E+02  0.10533966568E+03  0.30366204701E+03  0.41613148568E+03  0.26305920931E+03 0.  0.
         25    1    3    3    0    0  0.25655054304E+02 -0.10533966568E+03  0.85667370733E+02  0.18638946720E+03  0.12509000000E+03 0.  0.
         25    1    4    4    0    0 -0.43502352022E+02  0.35083847257E+02  0.11799174245E+03  0.18081175392E+03  0.12509000000E+03 0.  0.
         25    1    4    4    0    0  0.17847297718E+02  0.70255818421E+02  0.18567030456E+03  0.23531973176E+03  0.12509000000E+03 0.  0.
<mgrwt>
<rscale>  2 0.45984139E+03</rscale>
<asrwt>0</asrwt>
<pdfrwt beam="1">  1       21 0.72930173E-01 0.45984139E+03</pdfrwt>
<pdfrwt beam="2">  1       21 0.15675848E-01 0.45984139E+03</pdfrwt>
<totfact> 0.56337272E+04</totfact>
</mgrwt>
</event>
<event>
 6    0  0.4691878E-002  0.4552511E+03  0.7546771E-02  0.1026168E+00
         21   -1    0    0  502  501  0.00000000000E+00  0.00000000000E+00  0.20683536478E+03  0.20683536478E+03  0.00000000000E+00 0.  1.
         21   -1    0    0  501  502 -0.00000000000E+00 -0.00000000000E+00 -0.25050551174E+03  0.25050551174E+03  0.00000000000E+00 0.  1.
      99926    2    1    2    0    0  0.71054273576E-14  0.00000000000E+00 -0.43670146955E+02  0.45734087652E+03  0.45525113465E+03 0.  0.
         25    1    3    3    0    0  0.16840484373E+02  0.49882189290E+02  0.36721102959E+02  0.14059794531E+03  0.12509000000E+03 0.  0.
         25    1    3    3    0    0 -0.63041014464E+02  0.17082941244E+02  0.11361573060E+02  0.14157185394E+03  0.12509000000E+03 0.  0.
         25    1    3    3    0    0  0.46200530091E+02 -0.66965130534E+02 -0.91752822973E+02  0.17517107727E+03  0.12509000000E+03 0.  0.
<mgrwt>
<rscale>  2 0.45525113E+03</rscale>
<asrwt>0</asrwt>
<pdfrwt beam="1">  1       21 0.30416966E-01 0.45525113E+03</pdfrwt>
<pdfrwt beam="2">  1       21 0.36839046E-01 0.45525113E+03</pdfrwt>
<totfact> 0.68237814E+04</totfact>
</mgrwt>
</event>
<event>
 7    0  0.4691878E-002  0.4605132E+03  0.7546771E-02  0.1024632E+00
         21   -1    0    0  502  501  0.00000000000E+00  0.00000000000E+00  0.59717830435E+03  0.59717830435E+03  0.00000000000E+00 0.  1.
         21   -1    0    0  501  502 -0.00000000000E+00 -0.00000000000E+00 -0.88781006677E+02  0.88781006677E+02  0.00000000000E+00 0.  1.
      99926    2    1    2    0    0 -0.35527136788E-14  0.00000000000E+00  0.50839729767E+03  0.68595931103E+03  0.46051315302E+03 0.  0.
      99925    2    3    3    0    0 -0.26927540485E+02  0.94634921209E+02  0.21949663798E+03  0.35612304859E+03  0.26260995964E+03 0.  0.
         25    1    4    4    0    0  0.21533324234E+02  0.57900518967E+02  0.89565995530E+02  0.16578820768E+03  0.12509000000E+03 0.  0.
         25    1    4    4    0    0 -0.48460864719E+02  0.36734402242E+02  0.12993064245E+03  0.19033484091E+03  0.12509000000E+03 0.  0.
         25    1    3    3    0    0  0.26927540485E+02 -0.94634921209E+02  0.28890065969E+03  0.32983626244E+03  0.12509000000E+03 0.  0.
<mgrwt>
<rscale>  2 0.46051315E+03</rscale>
<asrwt>0</asrwt>
<pdfrwt beam="1">  1       21 0.87820337E-01 0.46051315E+03</pdfrwt>
<pdfrwt beam="2">  1       21 0.13056031E-01 0.46051315E+03</pdfrwt>
<totfact> 0.51403613E+04</totfact>
</mgrwt>
</event>
<event>
 7    0  0.4691878E-002  0.4521195E+03  0.7546771E-02  0.1027092E+00
         21   -1    0    0  502  501  0.00000000000E+00  0.00000000000E+00  0.33915452428E+03  0.33915452428E+03  0.00000000000E+00 0. -1.
         21   -1    0    0  501  502 -0.00000000000E+00 -0.00000000000E+00 -0.15067767806E+03  0.15067767806E+03  0.00000000000E+00 0. -1.
      99926    2    1    2    0    0  0.00000000000E+00  0.00000000000E+00  0.18847684623E+03  0.48983220234E+03  0.45211952500E+03 0.  0.
      99925    2    3    3    0    0 -0.49808311877E+01  0.60167028651E+02  0.21912345460E+03  0.34759436377E+03  0.26298645089E+03 0.  0.
         25    1    3    3    0    0  0.49808311877E+01 -0.60167028651E+02 -0.30646608375E+02  0.14223783857E+03  0.12509000000E+03 0.  0.
         25    1    4    4    0    0  0.42215704978E+01  0.29141365356E+02  0.16077275031E+03  0.20582134529E+03  0.12509000000E+03 0.  0.
         25    1    4    4    0    0 -0.92024016855E+01  0.31025663294E+02  0.58350704289E+02  0.14177301849E+03  0.12509000000E+03 0.  0.
<mgrwt>
<rscale>  2 0.45211953E+03</rscale>
<asrwt>0</asrwt>
<pdfrwt beam="1">  1       21 0.49875665E-01 0.45211953E+03</pdfrwt>
<pdfrwt beam="2">  1       21 0.22158482E-01 0.45211953E+03</pdfrwt>
<totfact> 0.67521926E+04</totfact>
</mgrwt>
</event>
<event>
 7    0  0.4691878E-002  0.4605008E+03  0.7546771E-02  0.1024636E+00
         21   -1    0    0  502  501  0.00000000000E+00  0.00000000000E+00  0.47836589400E+03  0.47836589400E+03  0.00000000000E+00 0.  1.
         21   -1    0    0  501  502 -0.00000000000E+00 -0.00000000000E+00 -0.11082572669E+03  0.11082572669E+03  0.00000000000E+00 0.  1.
      99926    2    1    2    0    0  0.17763568394E-14 -0.14210854715E-13  0.36754016731E+03  0.58919162069E+03  0.46050080489E+03 0.  0.
      99925    2    3    3    0    0  0.10401930110E+02 -0.86163762523E+02  0.12756894367E+03  0.30499786566E+03  0.26309212939E+03 0.  0.
         25    1    4    4    0    0 -0.34707032618E+02 -0.36907202582E+02  0.68976406769E+02  0.15156507680E+03  0.12509000000E+03 0.  0.
         25    1    3    3    0    0 -0.10401930110E+02  0.86163762523E+02  0.23997122364E+03  0.28419375503E+03  0.12509000000E+03 0.  0.
         25    1    4    4    0    0  0.45108962728E+02 -0.49256559941E+02  0.58592536902E+02  0.15343278886E+03  0.12509000000E+03 0.  0.
<mgrwt>
<rscale>  2 0.46050080E+03</rscale>
<asrwt>0</asrwt>
<pdfrwt beam="1">  1       21 0.70347925E-01 0.46050080E+03</pdfrwt>
<pdfrwt beam="2">  1       21 0.16297901E-01 0.46050080E+03</pdfrwt>
<totfact> 0.56836796E+04</totfact>
</mgrwt>
</event>
<event>
 7    0  0.4691878E-002  0.5027622E+03  0.7546771E-02  0.1013060E+00
         21   -1    0    0  502  501  0.00000000000E+00  0.00000000000E+00  0.71894507397E+03  0.71894507397E+03  0.00000000000E+00 0. -1.
         21   -1    0    0  501  502 -0.00000000000E+00 -0.00000000000E+00 -0.87896070441E+02  0.87896070441E+02  0.00000000000E+00 0. -1.
      99926    2    1    2    0    0  0.00000000000E+00  0.00000000000E+00  0.63104900353E+03  0.80684114441E+03  0.50276215794E+03 0.  0.
      99925    2    3    3    0    0 -0.12448497518E+03 -0.58191410525E+02  0.27236845857E+03  0.40288323727E+03  0.26314934229E+03 0.  0.
         25    1    4    4    0    0 -0.76966140544E+02 -0.19475807875E+02  0.89823960383E+02  0.17325976406E+03  0.12509000000E+03 0.  0.
         25    1    3    3    0    0  0.12448497518E+03  0.58191410525E+02  0.35868054496E+03  0.40395790714E+03  0.12509000000E+03 0.  0.
         25    1    4    4    0    0 -0.47518834636E+02 -0.38715602650E+02  0.18254449818E+03  0.22962347321E+03  0.12509000000E+03 0.  0.
<mgrwt>
<rscale>  2 0.50276216E+03</rscale>
<asrwt>0</asrwt>
<pdfrwt beam="1">  1       21 0.10572721E+00 0.50276216E+03</pdfrwt>
<pdfrwt beam="2">  1       21 0.12925893E-01 0.50276216E+03</pdfrwt>
<totfact> 0.33152171E+04</totfact>
</mgrwt>
</event>
<event>
 7    0  0.4691878E-002  0.4575761E+03  0.7546771E-02  0.1025487E+00
         21   -1    0    0  502  501  0.00000000000E+00  0.00000000000E+00  0.10146141896E+03  0.10146141896E+03  0.00000000000E+00 0.  1.
         21   -1    0    0  501  502 -0.00000000000E+00 -0.00000000000E+00 -0.51590018484E+03  0.51590018484E+03  0.00000000000E+00 0.  1.
      99926    2    1    2    0    0  0.00000000000E+00 -0.71054273576E-14 -0.41443876588E+03  0.61736160381E+03  0.45757606930E+03 0.  0.
      99925    2    3    3    0    0  0.53331212569E+02  0.40059613412E+02 -0.13437339715E+03  0.30346176354E+03  0.26378749251E+03 0.  0.
         25    1    4    4    0    0  0.51113916007E+02 -0.13724492893E+02 -0.70866513468E+02  0.15320106052E+03  0.12509000000E+03 0.  0.
         25    1    3    3    0    0 -0.53331212569E+02 -0.40059613412E+02 -0.28006536873E+03  0.31389984027E+03  0.12509000000E+03 0.  0.
         25    1    4    4    0    0  0.22172965617E+01  0.53784106304E+02 -0.63506883683E+02  0.15026070301E+03  0.12509000000E+03 0.  0.
<mgrwt>
<rscale>  2 0.45757607E+03</rscale>
<asrwt>0</asrwt>
<pdfrwt beam="1">  1       21 0.14920797E-01 0.45757607E+03</pdfrwt>
<pdfrwt beam="2">  1       21 0.75867674E-01 0.45757607E+03</pdfrwt>
<totfact> 0.56464632E+04</totfact>
</mgrwt>
</event>
<event>
 7    0  0.4691878E-002  0.4523596E+03  0.7546771E-02  0.1027021E+00
         21   -1    0    0  502  501  0.00000000000E+00  0.00000000000E+00  0.53067305363E+02  0.53067305363E+02  0.00000000000E+00 0. -1.
         21   -1    0    0  501  502 -0.00000000000E+00 -0.00000000000E+00 -0.96400800899E+03  0.96400800899E+03  0.00000000000E+00 0. -1.
      99926    2    1    2    0    0  0.00000000000E+00  0.00000000000E+00 -0.91094070363E+03  0.10170753144E+04  0.45235962413E+03 0.  0.
      99925    2    3    3    0    0 -0.21697785190E+02  0.42990066392E+02 -0.79871623884E+03  0.84225890126E+03  0.26293247588E+03 0.  0.
         25    1    3    3    0    0  0.21697785190E+02 -0.42990066392E+02 -0.11222446479E+03  0.17481641310E+03  0.12509000000E+03 0.  0.
         25    1    4    4    0    0 -0.20116770649E+01 -0.14687584786E+02 -0.32604758789E+03  0.34953441842E+03  0.12509000000E+03 0.  0.
         25    1    4    4    0    0 -0.19686108125E+02  0.57677651178E+02 -0.47266865095E+03  0.49272448284E+03  0.12509000000E+03 0.  0.
<mgrwt>
<rscale>  2 0.45235962E+03</rscale>
<asrwt>0</asrwt>
<pdfrwt beam="1">  1       21 0.78040158E-02 0.45235962E+03</pdfrwt>
<pdfrwt beam="2">  1       21 0.14176588E+00 0.45235962E+03</pdfrwt>
<totfact> 0.39313387E+04</totfact>
</mgrwt>
</event>
<event>
 7    0  0.4691878E-002  0.4526672E+03  0.7546771E-02  0.1026930E+00
         21   -1    0    0  502  501  0.00000000000E+00  0.00000000000E+00  0.17654642896E+04  0.17654642896E+04  0.00000000000E+00 0. -1.
         21   -1    0    0  501  502 -0.00000000000E+00 -0.00000000000E+00 -0.29016106106E+02  0.29016106106E+02  0.00000000000E+00 0. -1.
      99926    2    1    2    0    0  0.00000000000E+00  0.00000000000E+00  0.17364481835E+04  0.17944803957E+04  0.45266720294E+03 0.  0.
      99925    2    3    3    0    0  0.91899545812E+02  0.60907794015E+02  0.11416273632E+04  0.11767307682E+04  0.26311020239E+03 0.  0.
         25    1    4    4    0    0  0.16564374021E+02  0.25918562205E+02  0.65170105367E+03  0.66431010967E+03  0.12509000000E+03 0.  0.
         25    1    4    4    0    0  0.75335171790E+02  0.34989231810E+02  0.48992630954E+03  0.51242065857E+03  0.12509000000E+03 0.  0.
         25    1    3    3    0    0 -0.91899545812E+02 -0.60907794015E+02  0.59482082030E+03  0.61774962748E+03  0.12509000000E+03 0.  0.
<mgrwt>
<rscale>  2 0.45266720E+03</rscale>
<asrwt>0</asrwt>
<pdfrwt beam="1">  1       21 0.25962703E+00 0.45266720E+03</pdfrwt>
<pdfrwt beam="2">  1       21 0.42670756E-02 0.45266720E+03</pdfrwt>
<totfact> 0.17683859E+04</totfact>
</mgrwt>
</event>
<event>
 7    0  0.4691878E-002  0.4532286E+03  0.7546771E-02  0.1026764E+00
         21   -1    0    0  502  501  0.00000000000E+00  0.00000000000E+00  0.12146569024E+03  0.12146569024E+03  0.00000000000E+00 0.  1.
         21   -1    0    0  501  502 -0.00000000000E+00 -0.00000000000E+00 -0.42278641202E+03  0.42278641202E+03  0.00000000000E+00 0.  1.
      99926    2    1    2    0    0  0.00000000000E+00 -0.35527136788E-14 -0.30132072178E+03  0.54425210227E+03  0.45322861058E+03 0.  0.
      99925    2    3    3    0    0 -0.95804274603E+02  0.22987036831E+02 -0.25262049428E+03  0.37774059169E+03  0.26299045151E+03 0.  0.
         25    1    4    4    0    0 -0.34602570142E+02  0.26325749862E+02 -0.17102096967E+03  0.21630086254E+03  0.12509000000E+03 0.  0.
         25    1    4    4    0    0 -0.61201704461E+02 -0.33387130313E+01 -0.81599524608E+02  0.16143972916E+03  0.12509000000E+03 0.  0.
         25    1    3    3    0    0  0.95804274603E+02 -0.22987036831E+02 -0.48700227500E+02  0.16651151057E+03  0.12509000000E+03 0.  0.
<mgrwt>
<rscale>  2 0.45322861E+03</rscale>
<asrwt>0</asrwt>
<pdfrwt beam="1">  1       21 0.17862601E-01 0.45322861E+03</pdfrwt>
<pdfrwt beam="2">  1       21 0.62174473E-01 0.45322861E+03</pdfrwt>
<totfact> 0.63128172E+04</totfact>
</mgrwt>
</event>
<event>
 7    0  0.4691878E-002  0.4348754E+03  0.7546771E-02  0.1032331E+00
         21   -1    0    0  502  501  0.00000000000E+00  0.00000000000E+00  0.40156827775E+02  0.40156827775E+02  0.00000000000E+00 0. -1.
         21   -1    0    0  501  502 -0.00000000000E+00 -0.00000000000E+00 -0.11773626935E+04  0.11773626935E+04  0.00000000000E+00 0. -1.
      99926    2    1    2    0    0  0.00000000000E+00  0.00000000000E+00 -0.11372058657E+04  0.12175195213E+04  0.43487538864E+03 0.  0.
      99925    2    3    3    0    0 -0.59733662921E+02 -0.42512737826E+02 -0.57016363668E+03  0.63223340237E+03  0.26316735952E+03 0.  0.
         25    1    4    4    0    0 -0.14688277646E+02 -0.48451397917E+02 -0.34811374251E+03  0.37335501776E+03  0.12509000000E+03 0.  0.
         25    1    4    4    0    0 -0.45045385275E+02  0.59386600911E+01 -0.22204989417E+03  0.25887838461E+03  0.12509000000E+03 0.  0.
         25    1    3    3    0    0  0.59733662921E+02  0.42512737826E+02 -0.56704222904E+03  0.58528611890E+03  0.12509000000E+03 0.  0.
<mgrwt>
<rscale>  2 0.43487539E+03</rscale>
<asrwt>0</asrwt>
<pdfrwt beam="1">  1       21 0.59054158E-02 0.43487539E+03</pdfrwt>
<pdfrwt beam="2">  1       21 0.17314157E+00 0.43487539E+03</pdfrwt>
<totfact> 0.37085083E+04</totfact>
</mgrwt>
</event>
<event>
 7    0  0.4691878E-002  0.4419203E+03  0.7546771E-02  0.1030159E+00
         21   -1    0    0  502  501  0.00000000000E+00  0.00000000000E+00  0.27435561696E+04  0.27435561696E+04  0.00000000000E+00 0. -1.
         21   -1    0    0  501  502 -0.00000000000E+00 -0.00000000000E+00 -0.17795655439E+02  0.17795655439E+02  0.00000000000E+00 0. -1.
      99926    2    1    2    0    0  0.00000000000E+00  0.71054273576E-14  0.27257605142E+04  0.27613518250E+04  0.44192026553E+03 0.  0.
      99925    2    3    3    0    0 -0.30839133729E+02  0.60946577990E+02  0.12738754293E+04  0.13024881079E+04  0.26277580601E+03 0.  0.
         25    1    3    3    0    0  0.30839133729E+02 -0.60946577990E+02  0.14518850849E+04  0.14588637172E+04  0.12509000000E+03 0.  0.
         25    1    4    4    0    0 -0.26510558454E+02  0.34522315947E+02  0.83170169024E+03  0.84218157761E+03  0.12509000000E+03 0.  0.
         25    1    4    4    0    0 -0.43285752745E+01  0.26424262043E+02  0.44217373907E+03  0.46030653027E+03  0.12509000000E+03 0.  0.
<mgrwt>
<rscale>  2 0.44192027E+03</rscale>
<asrwt>0</asrwt>
<pdfrwt beam="1">  1       21 0.40346385E+00 0.44192027E+03</pdfrwt>
<pdfrwt beam="2">  1       21 0.26170100E-02 0.44192027E+03</pdfrwt>
<totfact> 0.53326135E+03</totfact>
</mgrwt>
</event>
<event>
 7    0  0.4691878E-002  0.4494880E+03  0.7546771E-02  0.1027875E+00
         21   -1    0    0  502  501  0.00000000000E+00  0.00000000000E+00  0.57408479724E+03  0.57408479724E+03  0.00000000000E+00 0.  1.
         21   -1    0    0  501  502 -0.00000000000E+00 -0.00000000000E+00 -0.87983294958E+02  0.87983294958E+02  0.00000000000E+00 0.  1.
      99926    2    1    2    0    0  0.00000000000E+00  0.00000000000E+00  0.48610150229E+03  0.66206809220E+03  0.44948802897E+03 0.  0.
      99925    2    3    3    0    0 -0.61961148474E+02 -0.88253085107E+02  0.31564377491E+03  0.42472627989E+03  0.26293274660E+03 0.  0.
         25    1    4    4    0    0 -0.77827005853E+01 -0.53949594421E+02  0.10820594199E+03  0.17414695848E+03  0.12509000000E+03 0.  0.
         25    1    4    4    0    0 -0.54178447888E+02 -0.34303490686E+02  0.20743783292E+03  0.25057932141E+03  0.12509000000E+03 0.  0.
         25    1    3    3    0    0  0.61961148474E+02  0.88253085107E+02  0.17045772738E+03  0.23734181232E+03  0.12509000000E+03 0.  0.
<mgrwt>
<rscale>  2 0.44948803E+03</rscale>
<asrwt>0</asrwt>
<pdfrwt beam="1">  1       21 0.84424233E-01 0.44948803E+03</pdfrwt>
<pdfrwt beam="2">  1       21 0.12938720E-01 0.44948803E+03</pdfrwt>
<totfact> 0.57468027E+04</totfact>
</mgrwt>
</event>
<event>
 7    0  0.4691878E-002  0.4567333E+03  0.7546771E-02  0.1025733E+00
         21   -1    0    0  502  501  0.00000000000E+00  0.00000000000E+00  0.92173358474E+03  0.92173358474E+03  0.00000000000E+00 0. -1.
         21   -1    0    0  501  502 -0.00000000000E+00 -0.00000000000E+00 -0.56579605644E+02  0.56579605644E+02  0.00000000000E+00 0. -1.
      99926    2    1    2    0    0  0.00000000000E+00 -0.35527136788E-14  0.86515397910E+03  0.97831319038E+03  0.45673328205E+03 0.  0.
      99925    2    3    3    0    0 -0.51357987949E+02 -0.24156878365E+02  0.75730055475E+03  0.80366764380E+03  0.26297595663E+03 0.  0.
         25    1    4    4    0    0 -0.11157513227E+02  0.26251888746E+02  0.36212968290E+03  0.38418624013E+03  0.12509000000E+03 0.  0.
         25    1    4    4    0    0 -0.40200474722E+02 -0.50408767111E+02  0.39517087185E+03  0.41948140367E+03  0.12509000000E+03 0.  0.
         25    1    3    3    0    0  0.51357987949E+02  0.24156878365E+02  0.10785342434E+03  0.17464554658E+03  0.12509000000E+03 0.  0.
<mgrwt>
<rscale>  2 0.45673328E+03</rscale>
<asrwt>0</asrwt>
<pdfrwt beam="1">  1       21 0.13554905E+00 0.45673328E+03</pdfrwt>
<pdfrwt beam="2">  1       21 0.83205308E-02 0.45673328E+03</pdfrwt>
<totfact> 0.39477389E+04</totfact>
</mgrwt>
</event>
<event>
 7    0  0.4691878E-002  0.4543870E+03  0.7546771E-02  0.1026422E+00
         21   -1    0    0  502  501  0.00000000000E+00  0.00000000000E+00  0.15492075684E+03  0.15492075684E+03  0.00000000000E+00 0.  1.
         21   -1    0    0  501  502 -0.00000000000E+00 -0.00000000000E+00 -0.33318244298E+03  0.33318244298E+03  0.00000000000E+00 0.  1.
      99926    2    1    2    0    0  0.00000000000E+00  0.00000000000E+00 -0.17826168614E+03  0.48810319982E+03  0.45438695506E+03 0.  0.
      99925    2    3    3    0    0  0.36084166909E+02  0.58964979136E+02 -0.20757216057E+03  0.34220752518E+03  0.26313656641E+03 0.  0.
         25    1    4    4    0    0  0.53163256421E+02  0.22059003559E+02 -0.13074113500E+03  0.18987807655E+03  0.12509000000E+03 0.  0.
         25    1    4    4    0    0 -0.17079089512E+02  0.36905975576E+02 -0.76831025566E+02  0.15232944863E+03  0.12509000000E+03 0.  0.
         25    1    3    3    0    0 -0.36084166909E+02 -0.58964979136E+02  0.29310474431E+02  0.14589567464E+03  0.12509000000E+03 0.  0.
<mgrwt>
<rscale>  2 0.45438696E+03</rscale>
<asrwt>0</asrwt>
<pdfrwt beam="1">  1       21 0.22782465E-01 0.45438696E+03</pdfrwt>
<pdfrwt beam="2">  1       21 0.48997417E-01 0.45438696E+03</pdfrwt>
<totfact> 0.66437557E+04</totfact>
</mgrwt>
</event>
<event>
 7    0  0.4691878E-002  0.4577076E+03  0.7546771E-02  0.1025448E+00
         21   -1    0    0  502  501  0.00000000000E+00  0.00000000000E+00  0.41546921029E+03  0.41546921029E+03  0.00000000000E+00 0.  1.
         21   -1    0    0  501  502 -0.00000000000E+00 -0.00000000000E+00 -0.12606005081E+03  0.12606005081E+03  0.00000000000E+00 0.  1.
      99926    2    1    2    0    0  0.00000000000E+00  0.00000000000E+00  0.28940915948E+03  0.54152926110E+03  0.45770763489E+03 0.  0.
      99925    2    3    3    0    0 -0.96147341016E+02  0.25692040409E+02  0.11373123591E+03  0.30401161322E+03  0.26378755624E+03 0.  0.
         25    1    4    4    0    0 -0.83365099203E+02  0.19187961637E+02  0.35064312472E+02  0.15554720102E+03  0.12509000000E+03 0.  0.
         25    1    4    4    0    0 -0.12782241813E+02  0.65040787725E+01  0.78666923443E+02  0.14846441220E+03  0.12509000000E+03 0.  0.
         25    1    3    3    0    0  0.96147341016E+02 -0.25692040409E+02  0.17567792357E+03  0.23751764788E+03  0.12509000000E+03 0.  0.
<mgrwt>
<rscale>  2 0.45770763E+03</rscale>
<asrwt>0</asrwt>
<pdfrwt beam="1">  1       21 0.61098413E-01 0.45770763E+03</pdfrwt>
<pdfrwt beam="2">  1       21 0.18538243E-01 0.45770763E+03</pdfrwt>
<totfact> 0.61109776E+04</totfact>
</mgrwt>
</event>
<event>
 7    0  0.4691878E-002  0.4419380E+03  0.7546771E-02  0.1030154E+00
         21   -1    0    0  502  501  0.00000000000E+00  0.00000000000E+00  0.30473262154E+03  0.30473262154E+03  0.00000000000E+00 0. -1.
         21   -1    0    0  501  502 -0.00000000000E+00 -0.00000000000E+00 -0.16022997982E+03  0.16022997982E+03  0.00000000000E+00 0. -1.
      99926    2    1    2    0    0  0.00000000000E+00  0.00000000000E+00  0.14450264172E+03  0.46496260137E+03  0.44193801285E+03 0.  0.
      99925    2    3    3    0    0  0.54745394274E+02  0.61007459998E+02  0.31006346594E+02  0.27721839912E+03  0.26300129070E+03 0.  0.
         25    1    4    4    0    0  0.24660594688E+02  0.61240707366E+02 -0.11019202900E+02  0.14187142102E+03  0.12509000000E+03 0.  0.
         25    1    4    4    0    0  0.30084799587E+02 -0.23324736866E+00  0.42025549494E+02  0.13534697810E+03  0.12509000000E+03 0.  0.
         25    1    3    3    0    0 -0.54745394274E+02 -0.61007459998E+02  0.11349629513E+03  0.18774420225E+03  0.12509000000E+03 0.  0.
<mgrwt>
<rscale>  2 0.44193801E+03</rscale>
<asrwt>0</asrwt>
<pdfrwt beam="1">  1       21 0.44813621E-01 0.44193801E+03</pdfrwt>
<pdfrwt beam="2">  1       21 0.23563232E-01 0.44193801E+03</pdfrwt>
<totfact> 0.75321155E+04</totfact>
</mgrwt>
</event>
<event>
 7    0  0.4691878E-002  0.4481175E+03  0.7546771E-02  0.1028285E+00
         21   -1    0    0  502  501  0.00000000000E+00  0.00000000000E+00  0.10241000724E+03  0.10241000724E+03  0.00000000000E+00 0.  1.
         21   -1    0    0  501  502 -0.00000000000E+00 -0.00000000000E+00 -0.49020914253E+03  0.49020914253E+03  0.00000000000E+00 0.  1.
      99926    2    1    2    0    0  0.88817841970E-15  0.14210854715E-13 -0.38779913529E+03  0.59261914977E+03  0.44811749279E+03 0.  0.
      99925    2    3    3    0    0 -0.40822248275E+01 -0.10507332966E+03 -0.26837795775E+03  0.39021856946E+03  0.26303371377E+03 0.  0.
         25    1    4    4    0    0  0.20786814170E+01 -0.11497612017E+02 -0.13827080103E+03  0.18682301388E+03  0.12509000000E+03 0.  0.
         25    1    4    4    0    0 -0.61609062445E+01 -0.93575717646E+02 -0.13010715672E+03  0.20339555558E+03  0.12509000000E+03 0.  0.
         25    1    3    3    0    0  0.40822248275E+01  0.10507332966E+03 -0.11942117753E+03  0.20240058031E+03  0.12509000000E+03 0.  0.
<mgrwt>
<rscale>  2 0.44811749E+03</rscale>
<asrwt>0</asrwt>
<pdfrwt beam="1">  1       21 0.15060295E-01 0.44811749E+03</pdfrwt>
<pdfrwt beam="2">  1       21 0.72089580E-01 0.44811749E+03</pdfrwt>
<totfact> 0.62463615E+04</totfact>
</mgrwt>
</event>
<event>
 7    0  0.4691878E-002  0.4612589E+03  0.7546771E-02  0.1024417E+00
         21   -1    0    0  502  501  0.00000000000E+00  0.00000000000E+00  0.20860532294E+03  0.20860532294E+03  0.00000000000E+00 0.  1.
         21   -1    0    0  501  502 -0.00000000000E+00 -0.00000000000E+00 -0.25497883883E+03  0.25497883883E+03  0.00000000000E+00 0.  1.
      99926    2    1    2    0    0 -0.14210854715E-13 -0.71054273576E-14 -0.46373515886E+02  0.46358416177E+03  0.46125889918E+03 0.  0.
      99925    2    3    3    0    0 -0.10315217257E+03 -0.55636518438E+02 -0.92515177593E+01  0.28819504086E+03  0.26312544177E+03 0.  0.
         25    1    3    3    0    0  0.10315217257E+03  0.55636518438E+02 -0.37121998127E+02  0.17538912091E+03  0.12509000000E+03 0.  0.
         25    1    4    4    0    0 -0.42022975324E+02  0.12623880325E+02  0.35224675564E+01  0.13260923304E+03  0.12509000000E+03 0.  0.
         25    1    4    4    0    0 -0.61129197243E+02 -0.68260398762E+02 -0.12773985316E+02  0.15558580782E+03  0.12509000000E+03 0.  0.
<mgrwt>
<rscale>  2 0.46125890E+03</rscale>
<asrwt>0</asrwt>
<pdfrwt beam="1">  1       21 0.30677254E-01 0.46125890E+03</pdfrwt>
<pdfrwt beam="2">  1       21 0.37496888E-01 0.46125890E+03</pdfrwt>
<totfact> 0.64633044E+04</totfact>
</mgrwt>
</event>
<event>
 7    0  0.4691878E-002  0.4533056E+03  0.7546771E-02  0.1026741E+00
         21   -1    0    0  502  501  0.00000000000E+00  0.00000000000E+00  0.54245551683E+03  0.54245551683E+03  0.00000000000E+00 0.  1.
         21   -1    0    0  501  502 -0.00000000000E+00 -0.00000000000E+00 -0.94701766719E+02  0.94701766719E+02  0.00000000000E+00 0.  1.
      99926    2    1    2    0    0  0.00000000000E+00  0.00000000000E+00  0.44775375011E+03  0.63715728355E+03  0.45330561793E+03 0.  0.
      99925    2    3    3    0    0 -0.40083718295E+02 -0.22187815182E+02  0.42515574002E+03  0.50203814436E+03  0.26303211117E+03 0.  0.
         25    1    4    4    0    0 -0.59661768532E+02 -0.14621611416E+02  0.24185180912E+03  0.27912922423E+03  0.12509000000E+03 0.  0.
         25    1    4    4    0    0  0.19578050238E+02 -0.75662037661E+01  0.18330393090E+03  0.22290892013E+03  0.12509000000E+03 0.  0.
         25    1    3    3    0    0  0.40083718295E+02  0.22187815182E+02  0.22598010091E+02  0.13511913919E+03  0.12509000000E+03 0.  0.
<mgrwt>
<rscale>  2 0.45330562E+03</rscale>
<asrwt>0</asrwt>
<pdfrwt beam="1">  1       21 0.79772869E-01 0.45330562E+03</pdfrwt>
<pdfrwt beam="2">  1       21 0.13926731E-01 0.45330562E+03</pdfrwt>
<totfact> 0.57208673E+04</totfact>
</mgrwt>
</event>
<event>
 7    0  0.4691878E-002  0.4581511E+03  0.7546771E-02  0.1025319E+00
         21   -1    0    0  502  501  0.00000000000E+00  0.00000000000E+00  0.25537721565E+03  0.25537721565E+03  0.00000000000E+00 0.  1.
         21   -1    0    0  501  502 -0.00000000000E+00 -0.00000000000E+00 -0.20548273737E+03  0.20548273737E+03  0.00000000000E+00 0.  1.
      99926    2    1    2    0    0  0.00000000000E+00  0.00000000000E+00  0.49894478279E+02  0.46085995303E+03  0.45815110754E+03 0.  0.
      99925    2    3    3    0    0  0.72455159065E+02 -0.43772839294E+02  0.11134035737E+03  0.29779887339E+03  0.26291002697E+03 0.  0.
         25    1    3    3    0    0 -0.72455159065E+02  0.43772839294E+02 -0.61445879086E+02  0.16306107963E+03  0.12509000000E+03 0.  0.
         25    1    4    4    0    0  0.30072622452E+02 -0.55038232276E+02  0.81467893394E+02  0.16192002775E+03  0.12509000000E+03 0.  0.
         25    1    4    4    0    0  0.42382536613E+02  0.11265392982E+02  0.29872463972E+02  0.13587884564E+03  0.12509000000E+03 0.  0.
<mgrwt>
<rscale>  2 0.45815111E+03</rscale>
<asrwt>0</asrwt>
<pdfrwt beam="1">  1       21 0.37555473E-01 0.45815111E+03</pdfrwt>
<pdfrwt beam="2">  1       21 0.30218050E-01 0.45815111E+03</pdfrwt>
<totfact> 0.66432599E+04</totfact>
</mgrwt>
</event>
<event>
 7    0  0.4691878E-002  0.4501585E+03  0.7546771E-02  0.1027675E+00
         21   -1    0    0  502  501  0.00000000000E+00  0.00000000000E+00  0.44913122238E+02  0.44913122238E+02  0.00000000000E+00 0.  1.
         21   -1    0    0  501  502 -0.00000000000E+00 -0.00000000000E+00 -0.11279704100E+04  0.11279704100E+04  0.00000000000E+00 0.  1.
      99926    2    1    2    0    0  0.00000000000E+00  0.14210854715E-13 -0.10830572878E+04  0.11728835322E+04  0.45015851833E+03 0.  0.
      99925    2    3    3    0    0  0.40094885159E+02  0.97089474920E+02 -0.75531905860E+03  0.80669530070E+03  0.26309021636E+03 0.  0.
         25    1    4    4    0    0  0.38111254062E+02  0.23192557522E+02 -0.43799385461E+03  0.45768601376E+03  0.12509000000E+03 0.  0.
         25    1    3    3    0    0 -0.40094885159E+02 -0.97089474920E+02 -0.32773822918E+03  0.36618823154E+03  0.12509000000E+03 0.  0.
         25    1    4    4    0    0  0.19836310965E+01  0.73896917398E+02 -0.31732520398E+03  0.34900928695E+03  0.12509000000E+03 0.  0.
<mgrwt>
<rscale>  2 0.45015852E+03</rscale>
<asrwt>0</asrwt>
<pdfrwt beam="1">  1       21 0.66048727E-02 0.45015852E+03</pdfrwt>
<pdfrwt beam="2">  1       21 0.16587796E+00 0.45015852E+03</pdfrwt>
<totfact> 0.34303384E+04</totfact>
</mgrwt>
</event>
<event>
 7    0  0.4691878E-002  0.4461786E+03  0.7546771E-02  0.1028868E+00
         21   -1    0    0  502  501  0.00000000000E+00  0.00000000000E+00  0.81241529174E+02  0.81241529174E+02  0.00000000000E+00 0. -1.
         21   -1    0    0  501  502 -0.00000000000E+00 -0.00000000000E+00 -0.61260347337E+03  0.61260347337E+03  0.00000000000E+00 0. -1.
      99926    2    1    2    0    0  0.00000000000E+00  0.22204460493E-15 -0.53136194419E+03  0.69384500254E+03  0.44617863218E+03 0.  0.
      99925    2    3    3    0    0  0.17332951957E+02  0.41247470544E+00 -0.49767156313E+03  0.56314247298E+03  0.26296741008E+03 0.  0.
         25    1    4    4    0    0  0.24656611900E+02 -0.51158839294E+01 -0.32953783993E+03  0.35337914033E+03  0.12509000000E+03 0.  0.
         25    1    4    4    0    0 -0.73236599434E+01  0.55283586349E+01 -0.16813372320E+03  0.20976333264E+03  0.12509000000E+03 0.  0.
         25    1    3    3    0    0 -0.17332951957E+02 -0.41247470544E+00 -0.33690381069E+02  0.13070252957E+03  0.12509000000E+03 0.  0.
<mgrwt>
<rscale>  2 0.44617863E+03</rscale>
<asrwt>0</asrwt>
<pdfrwt beam="1">  1       21 0.11947284E-01 0.44617863E+03</pdfrwt>
<pdfrwt beam="2">  1       21 0.90088744E-01 0.44617863E+03</pdfrwt>
<totfact> 0.57101042E+04</totfact>
</mgrwt>
</event>
<event>
 7    0  0.4691878E-002  0.4529478E+03  0.7546771E-02  0.1026847E+00
         21   -1    0    0  502  501  0.00000000000E+00  0.00000000000E+00  0.92917530476E+03  0.92917530476E+03  0.00000000000E+00 0.  1.
         21   -1    0    0  501  502 -0.00000000000E+00 -0.00000000000E+00 -0.55199953531E+02  0.55199953531E+02  0.00000000000E+00 0.  1.
      99926    2    1    2    0    0  0.00000000000E+00  0.35527136788E-14  0.87397535123E+03  0.98437525829E+03  0.45294782766E+03 0.  0.
      99925    2    3    3    0    0 -0.10040132820E+03  0.25948518403E+02  0.63847747387E+03  0.69826249966E+03  0.26298912805E+03 0.  0.
         25    1    4    4    0    0 -0.69798757460E+02  0.46077487837E+02  0.38190750925E+03  0.41048246631E+03  0.12509000000E+03 0.  0.
         25    1    4    4    0    0 -0.30602570743E+02 -0.20128969434E+02  0.25656996462E+03  0.28778003335E+03  0.12509000000E+03 0.  0.
         25    1    3    3    0    0  0.10040132820E+03 -0.25948518403E+02  0.23549787736E+03  0.28611275863E+03  0.12509000000E+03 0.  0.
<mgrwt>
<rscale>  2 0.45294783E+03</rscale>
<asrwt>0</asrwt>
<pdfrwt beam="1">  1       21 0.13664342E+00 0.45294783E+03</pdfrwt>
<pdfrwt beam="2">  1       21 0.81176408E-02 0.45294783E+03</pdfrwt>
<totfact> 0.40423578E+04</totfact>
</mgrwt>
</event>
<event>
 7    0  0.4691878E-002  0.4527182E+03  0.7546771E-02  0.1026915E+00
         21   -1    0    0  502  501  0.00000000000E+00  0.00000000000E+00  0.48048039323E+03  0.48048039323E+03  0.00000000000E+00 0. -1.
         21   -1    0    0  501  502 -0.00000000000E+00 -0.00000000000E+00 -0.10664001590E+03  0.10664001590E+03  0.00000000000E+00 0. -1.
      99926    2    1    2    0    0 -0.14210854715E-13  0.00000000000E+00  0.37384037733E+03  0.58712040914E+03  0.45271817624E+03 0.  0.
      99925    2    3    3    0    0 -0.79311987874E+02  0.66406806298E+02  0.28802075110E+03  0.40351002901E+03  0.26299075099E+03 0.  0.
         25    1    3    3    0    0  0.79311987874E+02 -0.66406806298E+02  0.85819626231E+02  0.18361038013E+03  0.12509000000E+03 0.  0.
         25    1    4    4    0    0 -0.19081478566E+01  0.41077422152E+02  0.11330063550E+03  0.17371107548E+03  0.12509000000E+03 0.  0.
         25    1    4    4    0    0 -0.77403840017E+02  0.25329384147E+02  0.17472011560E+03  0.22979895353E+03  0.12509000000E+03 0.  0.
<mgrwt>
<rscale>  2 0.45271818E+03</rscale>
<asrwt>0</asrwt>
<pdfrwt beam="1">  1       21 0.70658880E-01 0.45271818E+03</pdfrwt>
<pdfrwt beam="2">  1       21 0.15682355E-01 0.45271818E+03</pdfrwt>
<totfact> 0.60563055E+04</totfact>
</mgrwt>
</event>
<event>
 7    0  0.4691878E-002  0.4505621E+03  0.7546771E-02  0.1027555E+00
         21   -1    0    0  502  501  0.00000000000E+00  0.00000000000E+00  0.19556635855E+03  0.19556635855E+03  0.00000000000E+00 0. -1.
         21   -1    0    0  501  502 -0.00000000000E+00 -0.00000000000E+00 -0.25951058646E+03  0.25951058646E+03  0.00000000000E+00 0. -1.
      99926    2    1    2    0    0  0.35527136788E-14  0.00000000000E+00 -0.63944227908E+02  0.45507694500E+03  0.45056205077E+03 0.  0.
      99925    2    3    3    0    0 -0.18338951495E+02  0.10432270725E+03 -0.66136204196E+02  0.29115056747E+03  0.26301161769E+03 0.  0.
         25    1    4    4    0    0 -0.16133707029E+02  0.85834504204E+02 -0.61810957373E+02  0.16460850879E+03  0.12509000000E+03 0.  0.
         25    1    3    3    0    0  0.18338951495E+02 -0.10432270725E+03  0.21919762877E+01  0.16392637753E+03  0.12509000000E+03 0.  0.
         25    1    4    4    0    0 -0.22052444666E+01  0.18488203050E+02 -0.43252468232E+01  0.12654205868E+03  0.12509000000E+03 0.  0.
<mgrwt>
<rscale>  2 0.45056205E+03</rscale>
<asrwt>0</asrwt>
<pdfrwt beam="1">  1       21 0.28759759E-01 0.45056205E+03</pdfrwt>
<pdfrwt beam="2">  1       21 0.38163321E-01 0.45056205E+03</pdfrwt>
<totfact> 0.71021311E+04</totfact>
</mgrwt>
</event>
<event>
 7    0  0.4691878E-002  0.4499255E+03  0.7546771E-02  0.1027744E+00
         21   -1    0    0  502  501  0.00000000000E+00  0.00000000000E+00  0.37858801969E+03  0.37858801969E+03  0.00000000000E+00 0. -1.
         21   -1    0    0  501  502 -0.00000000000E+00 -0.00000000000E+00 -0.13367629089E+03  0.13367629089E+03  0.00000000000E+00 0. -1.
      99926    2    1    2    0    0  0.00000000000E+00  0.00000000000E+00  0.24491172880E+03  0.51226431058E+03  0.44992551494E+03 0.  0.
      99925    2    3    3    0    0  0.91946762689E+02 -0.30294135762E+02  0.99435368596E+02  0.29736242295E+03  0.26299254024E+03 0.  0.
         25    1    4    4    0    0  0.99561287989E+01 -0.19733856519E+02  0.23100664671E+02  0.12911118620E+03  0.12509000000E+03 0.  0.
         25    1    4    4    0    0  0.81990633890E+02 -0.10560279243E+02  0.76334703925E+02  0.16825123675E+03  0.12509000000E+03 0.  0.
         25    1    3    3    0    0 -0.91946762689E+02  0.30294135762E+02  0.14547636020E+03  0.21490188763E+03  0.12509000000E+03 0.  0.
<mgrwt>
<rscale>  2 0.44992551E+03</rscale>
<asrwt>0</asrwt>
<pdfrwt beam="1">  1       21 0.55674709E-01 0.44992551E+03</pdfrwt>
<pdfrwt beam="2">  1       21 0.19658278E-01 0.44992551E+03</pdfrwt>
<totfact> 0.67077913E+04</totfact>
</mgrwt>
</event>
<event>
 7    0  0.4691878E-002  0.4527027E+03  0.7546771E-02  0.1026919E+00
         21   -1    0    0  502  501  0.00000000000E+00  0.00000000000E+00  0.46398390326E+02  0.46398390326E+02  0.00000000000E+00 0.  1.
         21   -1    0    0  501  502 -0.00000000000E+00 -0.00000000000E+00 -0.11042396621E+04  0.11042396621E+04  0.00000000000E+00 0.  1.
      99926    2    1    2    0    0  0.00000000000E+00  0.00000000000E+00 -0.10578412718E+04  0.11506380525E+04  0.45270274069E+03 0.  0.
      99925    2    3    3    0    0 -0.86044324034E+02  0.39633673178E+02 -0.51795161904E+03  0.58840785138E+03  0.26263180718E+03 0.  0.
         25    1    4    4    0    0 -0.43556325668E+02  0.48985537219E+02 -0.32520794856E+03  0.35454823969E+03  0.12509000000E+03 0.  0.
         25    1    3    3    0    0  0.86044324034E+02 -0.39633673178E+02 -0.53988965277E+03  0.56223020109E+03  0.12509000000E+03 0.  0.
         25    1    4    4    0    0 -0.42487998365E+02 -0.93518640413E+01 -0.19274367048E+03  0.23385961169E+03  0.12509000000E+03 0.  0.
<mgrwt>
<rscale>  2 0.45270274E+03</rscale>
<asrwt>0</asrwt>
<pdfrwt beam="1">  1       21 0.68232924E-02 0.45270274E+03</pdfrwt>
<pdfrwt beam="2">  1       21 0.16238819E+00 0.45270274E+03</pdfrwt>
<totfact> 0.34372357E+04</totfact>
</mgrwt>
</event>
<event>
 7    0  0.4691878E-002  0.4509006E+03  0.7546771E-02  0.1027454E+00
         21   -1    0    0  502  501  0.00000000000E+00  0.00000000000E+00  0.34561623307E+03  0.34561623307E+03  0.00000000000E+00 0. -1.
         21   -1    0    0  501  502 -0.00000000000E+00 -0.00000000000E+00 -0.14706437463E+03  0.14706437463E+03  0.00000000000E+00 0. -1.
      99926    2    1    2    0    0 -0.35527136788E-14  0.00000000000E+00  0.19855185843E+03  0.49268060770E+03  0.45090058851E+03 0.  0.
      99925    2    3    3    0    0  0.29733483118E+02  0.10441676872E+03  0.13882501878E+03  0.31660748345E+03  0.26302275781E+03 0.  0.
         25    1    3    3    0    0 -0.29733483118E+02 -0.10441676872E+03  0.59726839652E+02  0.17607312425E+03  0.12509000000E+03 0.  0.
         25    1    4    4    0    0 -0.24575042524E+02  0.51964518661E+02  0.79014707468E+02  0.15872956880E+03  0.12509000000E+03 0.  0.
         25    1    4    4    0    0  0.54308525642E+02  0.52452250062E+02  0.59810311314E+02  0.15787791465E+03  0.12509000000E+03 0.  0.
<mgrwt>
<rscale>  2 0.45090059E+03</rscale>
<asrwt>0</asrwt>
<pdfrwt beam="1">  1       21 0.50825917E-01 0.45090059E+03</pdfrwt>
<pdfrwt beam="2">  1       21 0.21627114E-01 0.45090059E+03</pdfrwt>
<totfact> 0.67973274E+04</totfact>
</mgrwt>
</event>
<event>
 7    0  0.4691878E-002  0.4337195E+03  0.7546771E-02  0.1032691E+00
         21   -1    0    0  502  501  0.00000000000E+00  0.00000000000E+00  0.10822172462E+03  0.10822172462E+03  0.00000000000E+00 0. -1.
         21   -1    0    0  501  502 -0.00000000000E+00 -0.00000000000E+00 -0.43455361103E+03  0.43455361103E+03  0.00000000000E+00 0. -1.
      99926    2    1    2    0    0 -0.62172489379E-14  0.14210854715E-13 -0.32633188641E+03  0.54277533566E+03  0.43371945415E+03 0.  0.
      99925    2    3    3    0    0 -0.67472465695E+01  0.83032373566E+02 -0.16153787836E+03  0.31974064422E+03  0.26305834529E+03 0.  0.
         25    1    4    4    0    0  0.33786483668E+02  0.55217034071E+02 -0.93894623389E+02  0.16927538431E+03  0.12509000000E+03 0.  0.
         25    1    4    4    0    0 -0.40533730238E+02  0.27815339495E+02 -0.67643254975E+02  0.15046525992E+03  0.12509000000E+03 0.  0.
         25    1    3    3    0    0  0.67472465695E+01 -0.83032373566E+02 -0.16479400805E+03  0.22303469144E+03  0.12509000000E+03 0.  0.
<mgrwt>
<rscale>  2 0.43371945E+03</rscale>
<asrwt>0</asrwt>
<pdfrwt beam="1">  1       21 0.15914960E-01 0.43371945E+03</pdfrwt>
<pdfrwt beam="2">  1       21 0.63904942E-01 0.43371945E+03</pdfrwt>
<totfact> 0.74050582E+04</totfact>
</mgrwt>
</event>
<event>
 7    0  0.4691878E-002  0.4587597E+03  0.7546771E-02  0.1025142E+00
         21   -1    0    0  502  501  0.00000000000E+00  0.00000000000E+00  0.10993618880E+03  0.10993618880E+03  0.00000000000E+00 0.  1.
         21   -1    0    0  501  502 -0.00000000000E+00 -0.00000000000E+00 -0.47859691222E+03  0.47859691222E+03  0.00000000000E+00 0.  1.
      99926    2    1    2    0    0  0.00000000000E+00  0.00000000000E+00 -0.36866072343E+03  0.58853310102E+03  0.45875972142E+03 0.  0.
      99925    2    3    3    0    0  0.72792011330E+02 -0.83213067933E+02 -0.27907525601E+03  0.39907029290E+03  0.26296579354E+03 0.  0.
         25    1    4    4    0    0  0.57353965381E+02 -0.75382943626E+02 -0.13053496625E+03  0.20410524503E+03  0.12509000000E+03 0.  0.
         25    1    4    4    0    0  0.15438045949E+02 -0.78301243077E+01 -0.14854028975E+03  0.19496504787E+03  0.12509000000E+03 0.  0.
         25    1    3    3    0    0 -0.72792011330E+02  0.83213067933E+02 -0.89585467421E+02  0.18946280812E+03  0.12509000000E+03 0.  0.
<mgrwt>
<rscale>  2 0.45875972E+03</rscale>
<asrwt>0</asrwt>
<pdfrwt beam="1">  1       21 0.16167087E-01 0.45875972E+03</pdfrwt>
<pdfrwt beam="2">  1       21 0.70381899E-01 0.45875972E+03</pdfrwt>
<totfact> 0.57657116E+04</totfact>
</mgrwt>
</event>
<event>
 7    0  0.4691878E-002  0.4556985E+03  0.7546771E-02  0.1026036E+00
         21   -1    0    0  502  501  0.00000000000E+00  0.00000000000E+00  0.32577543102E+02  0.32577543102E+02  0.00000000000E+00 0.  1.
         21   -1    0    0  501  502 -0.00000000000E+00 -0.00000000000E+00 -0.15935908585E+04  0.15935908585E+04  0.00000000000E+00 0.  1.
      99926    2    1    2    0    0  0.00000000000E+00  0.00000000000E+00 -0.15610133154E+04  0.16261684016E+04  0.45569847434E+03 0.  0.
      99925    2    3    3    0    0 -0.51625905759E+02  0.68556569980E+02 -0.12484167389E+04  0.12787070870E+04  0.26302513727E+03 0.  0.
         25    1    4    4    0    0 -0.29017538620E+02  0.19927908864E+01 -0.70865964897E+03  0.72020274572E+03  0.12509000000E+03 0.  0.
         25    1    3    3    0    0  0.51625905759E+02 -0.68556569980E+02 -0.31259657644E+03  0.34746131459E+03  0.12509000000E+03 0.  0.
         25    1    4    4    0    0 -0.22608367139E+02  0.66563779094E+02 -0.53975708995E+03  0.55850434126E+03  0.12509000000E+03 0.  0.
<mgrwt>
<rscale>  2 0.45569847E+03</rscale>
<asrwt>0</asrwt>
<pdfrwt beam="1">  1       21 0.47908159E-02 0.45569847E+03</pdfrwt>
<pdfrwt beam="2">  1       21 0.23435156E+00 0.45569847E+03</pdfrwt>
<totfact> 0.20732180E+04</totfact>
</mgrwt>
</event>
<event>
 7    0  0.4691878E-002  0.4507442E+03  0.7546771E-02  0.1027500E+00
         21   -1    0    0  502  501  0.00000000000E+00  0.00000000000E+00  0.36764429420E+03  0.36764429420E+03  0.00000000000E+00 0.  1.
         21   -1    0    0  501  502 -0.00000000000E+00 -0.00000000000E+00 -0.13815687130E+03  0.13815687130E+03  0.00000000000E+00 0.  1.
      99926    2    1    2    0    0  0.00000000000E+00  0.00000000000E+00  0.22948742290E+03  0.50580116550E+03  0.45074420879E+03 0.  0.
      99925    2    3    3    0    0  0.64836154233E+02 -0.60178144839E+02  0.21670034736E+03  0.35206062624E+03  0.26298765749E+03 0.  0.
         25    1    4    4    0    0  0.13442643619E+02 -0.29938326378E+02  0.59060576166E+02  0.14217126225E+03  0.12509000000E+03 0.  0.
         25    1    4    4    0    0  0.51393510613E+02 -0.30239818461E+02  0.15763977119E+03  0.20988936399E+03  0.12509000000E+03 0.  0.
         25    1    3    3    0    0 -0.64836154233E+02  0.60178144839E+02  0.12787075545E+02  0.15374053926E+03  0.12509000000E+03 0.  0.
<mgrwt>
<rscale>  2 0.45074421E+03</rscale>
<asrwt>0</asrwt>
<pdfrwt beam="1">  1       21 0.54065337E-01 0.45074421E+03</pdfrwt>
<pdfrwt beam="2">  1       21 0.20317187E-01 0.45074421E+03</pdfrwt>
<totfact> 0.67103044E+04</totfact>
</mgrwt>
</event>
<event>
 7    0  0.4691878E-002  0.4478180E+03  0.7546771E-02  0.1028375E+00
         21   -1    0    0  502  501  0.00000000000E+00  0.00000000000E+00  0.98887969118E+03  0.98887969118E+03  0.00000000000E+00 0.  1.
         21   -1    0    0  501  502 -0.00000000000E+00 -0.00000000000E+00 -0.50699039827E+02  0.50699039827E+02  0.00000000000E+00 0.  1.
      99926    2    1    2    0    0  0.00000000000E+00  0.71054273576E-14  0.93818065136E+03  0.10395787310E+04  0.44781804719E+03 0.  0.
      99925    2    3    3    0    0  0.19171664879E+02  0.57500720018E+02  0.38872031068E+03  0.47280888388E+03  0.26224201648E+03 0.  0.
         25    1    4    4    0    0  0.30174485375E+02  0.42553440022E+02  0.25488825044E+03  0.28868117905E+03  0.12509000000E+03 0.  0.
         25    1    4    4    0    0 -0.11002820497E+02  0.14947279996E+02  0.13383206023E+03  0.18412770483E+03  0.12509000000E+03 0.  0.
         25    1    3    3    0    0 -0.19171664879E+02 -0.57500720018E+02  0.54946034068E+03  0.56676984713E+03  0.12509000000E+03 0.  0.
<mgrwt>
<rscale>  2 0.44781805E+03</rscale>
<asrwt>0</asrwt>
<pdfrwt beam="1">  1       21 0.14542347E+00 0.44781805E+03</pdfrwt>
<pdfrwt beam="2">  1       21 0.74557418E-02 0.44781805E+03</pdfrwt>
<totfact> 0.39849770E+04</totfact>
</mgrwt>
</event>
<event>
 7    0  0.4691878E-002  0.4576974E+03  0.7546771E-02  0.1025451E+00
         21   -1    0    0  502  501  0.00000000000E+00  0.00000000000E+00  0.11334085586E+04  0.11334085586E+04  0.00000000000E+00 0. -1.
         21   -1    0    0  501  502 -0.00000000000E+00 -0.00000000000E+00 -0.46207280296E+02  0.46207280296E+02  0.00000000000E+00 0. -1.
      99926    2    1    2    0    0 -0.88817841970E-15  0.14210854715E-13  0.10872012783E+04  0.11796158389E+04  0.45769739766E+03 0.  0.
      99925    2    3    3    0    0 -0.22062971807E+01 -0.10640476487E+03  0.56553700350E+03  0.63270820004E+03  0.26298426252E+03 0.  0.
         25    1    4    4    0    0 -0.18776071384E+02 -0.16540100953E+02  0.22642367196E+03  0.25988709687E+03  0.12509000000E+03 0.  0.
         25    1    3    3    0    0  0.22062971807E+01  0.10640476487E+03  0.52166427479E+03  0.54690763885E+03  0.12509000000E+03 0.  0.
         25    1    4    4    0    0  0.16569774204E+02 -0.89864663917E+02  0.33911333154E+03  0.37282110316E+03  0.12509000000E+03 0.  0.
<mgrwt>
<rscale>  2 0.45769740E+03</rscale>
<asrwt>0</asrwt>
<pdfrwt beam="1">  1       21 0.16667771E+00 0.45769740E+03</pdfrwt>
<pdfrwt beam="2">  1       21 0.67951890E-02 0.45769740E+03</pdfrwt>
<totfact> 0.32128236E+04</totfact>
</mgrwt>
</event>
<event>
 7    0  0.4691878E-002  0.4527189E+03  0.7546771E-02  0.1026914E+00
         21   -1    0    0  502  501  0.00000000000E+00  0.00000000000E+00  0.16638346396E+03  0.16638346396E+03  0.00000000000E+00 0. -1.
         21   -1    0    0  501  502 -0.00000000000E+00 -0.00000000000E+00 -0.30795492441E+03  0.30795492441E+03  0.00000000000E+00 0. -1.
      99926    2    1    2    0    0  0.26645352591E-14 -0.14210854715E-13 -0.14157146045E+03  0.47433838837E+03  0.45271892856E+03 0.  0.
      99925    2    3    3    0    0 -0.60708256986E+01 -0.70483456631E+02  0.18495876261E+00  0.27247912287E+03  0.26313507103E+03 0.  0.
         25    1    3    3    0    0  0.60708256986E+01  0.70483456631E+02 -0.14175641921E+03  0.20185926551E+03  0.12509000000E+03 0.  0.
         25    1    4    4    0    0 -0.30519311985E+02 -0.66230450254E+02  0.47125510557E+01  0.14487103638E+03  0.12509000000E+03 0.  0.
         25    1    4    4    0    0  0.24448486286E+02 -0.42530063762E+01 -0.45275922931E+01  0.12760808649E+03  0.12509000000E+03 0.  0.
<mgrwt>
<rscale>  2 0.45271893E+03</rscale>
<asrwt>0</asrwt>
<pdfrwt beam="1">  1       21 0.24468157E-01 0.45271893E+03</pdfrwt>
<pdfrwt beam="2">  1       21 0.45287488E-01 0.45271893E+03</pdfrwt>
<totfact> 0.68343443E+04</totfact>
</mgrwt>
</event>
<event>
 7    0  0.4691878E-002  0.4603871E+03  0.7546771E-02  0.1024669E+00
         21   -1    0    0  502  501  0.00000000000E+00  0.00000000000E+00  0.12229457148E+03  0.12229457148E+03  0.00000000000E+00 0. -1.
         21   -1    0    0  501  502 -0.00000000000E+00 -0.00000000000E+00 -0.43329049284E+03  0.43329049284E+03  0.00000000000E+00 0. -1.
      99926    2    1    2    0    0  0.00000000000E+00  0.00000000000E+00 -0.31099592137E+03  0.55558506432E+03  0.46038712036E+03 0.  0.
      99925    2    3    3    0    0 -0.67824205934E+02 -0.59166004818E+02 -0.28727098754E+03  0.39966482952E+03  0.26288137369E+03 0.  0.
         25    1    4    4    0    0 -0.56531385679E+02 -0.60845395432E+02 -0.13179578155E+03  0.19978887819E+03  0.12509000000E+03 0.  0.
         25    1    4    4    0    0 -0.11292820255E+02  0.16793906147E+01 -0.15547520599E+03  0.19987595133E+03  0.12509000000E+03 0.  0.
         25    1    3    3    0    0  0.67824205934E+02  0.59166004818E+02 -0.23724933824E+02  0.15592023481E+03  0.12509000000E+03 0.  0.
<mgrwt>
<rscale>  2 0.46038712E+03</rscale>
<asrwt>0</asrwt>
<pdfrwt beam="1">  1       21 0.17984496E-01 0.46038712E+03</pdfrwt>
<pdfrwt beam="2">  1       21 0.63719190E-01 0.46038712E+03</pdfrwt>
<totfact> 0.58946383E+04</totfact>
</mgrwt>
</event>
<event>
 7    0  0.4691878E-002  0.4606064E+03  0.7546771E-02  0.1024606E+00
         21   -1    0    0  502  501  0.00000000000E+00  0.00000000000E+00  0.27823946484E+03  0.27823946484E+03  0.00000000000E+00 0. -1.
         21   -1    0    0  501  502 -0.00000000000E+00 -0.00000000000E+00 -0.19062555699E+03  0.19062555699E+03  0.00000000000E+00 0. -1.
      99926    2    1    2    0    0  0.00000000000E+00  0.00000000000E+00  0.87613907848E+02  0.46886502183E+03  0.46060635238E+03 0.  0.
      99925    2    3    3    0    0  0.17469218739E+02  0.93471147304E+02 -0.16260624291E+02  0.28050511233E+03  0.26339453517E+03 0.  0.
         25    1    4    4    0    0 -0.59823005524E+00  0.79962411419E+02 -0.33600946337E+02  0.15221983055E+03  0.12509000000E+03 0.  0.
         25    1    3    3    0    0 -0.17469218739E+02 -0.93471147304E+02  0.10387453214E+03  0.18835990950E+03  0.12509000000E+03 0.  0.
         25    1    4    4    0    0  0.18067448794E+02  0.13508735885E+02  0.17340322046E+02  0.12828528177E+03  0.12509000000E+03 0.  0.
<mgrwt>
<rscale>  2 0.46060635E+03</rscale>
<asrwt>0</asrwt>
<pdfrwt beam="1">  1       21 0.40917568E-01 0.46060635E+03</pdfrwt>
<pdfrwt beam="2">  1       21 0.28033170E-01 0.46060635E+03</pdfrwt>
<totfact> 0.64597026E+04</totfact>
</mgrwt>
</event>
<event>
 7    0  0.4691878E-002  0.4505942E+03  0.7546771E-02  0.1027545E+00
         21   -1    0    0  502  501  0.00000000000E+00  0.00000000000E+00  0.73651354301E+02  0.73651354301E+02  0.00000000000E+00 0. -1.
         21   -1    0    0  501  502 -0.00000000000E+00 -0.00000000000E+00 -0.68917645072E+03  0.68917645072E+03  0.00000000000E+00 0. -1.
      99926    2    1    2    0    0  0.00000000000E+00 -0.35527136788E-14 -0.61552509642E+03  0.76282780502E+03  0.45059418082E+03 0.  0.
      99925    2    3    3    0    0  0.71295338190E+02  0.16360772787E+02 -0.25217088325E+03  0.37164435386E+03  0.26301838579E+03 0.  0.
         25    1    3    3    0    0 -0.71295338190E+02 -0.16360772787E+02 -0.36335421317E+03  0.39118345116E+03  0.12509000000E+03 0.  0.
         25    1    4    4    0    0  0.40689178406E+02  0.45342927450E+02 -0.15102264516E+03  0.20534589784E+03  0.12509000000E+03 0.  0.
         25    1    4    4    0    0  0.30606159784E+02 -0.28982154663E+02 -0.10114823809E+03  0.16629845602E+03  0.12509000000E+03 0.  0.
<mgrwt>
<rscale>  2 0.45059418E+03</rscale>
<asrwt>0</asrwt>
<pdfrwt beam="1">  1       21 0.10831081E-01 0.45059418E+03</pdfrwt>
<pdfrwt beam="2">  1       21 0.10134948E+00 0.45059418E+03</pdfrwt>
<totfact> 0.51368988E+04</totfact>
</mgrwt>
</event>
<event>
 7    0  0.4691878E-002  0.4543308E+03  0.7546771E-02  0.1026438E+00
         21   -1    0    0  502  501  0.00000000000E+00  0.00000000000E+00  0.44545555333E+03  0.44545555333E+03  0.00000000000E+00 0. -1.
         21   -1    0    0  501  502 -0.00000000000E+00 -0.00000000000E+00 -0.11584571729E+03  0.11584571729E+03  0.00000000000E+00 0. -1.
      99926    2    1    2    0    0  0.17763568394E-14  0.00000000000E+00  0.32960983603E+03  0.56130127062E+03  0.45433079622E+03 0.  0.
      99925    2    3    3    0    0 -0.14084569557E+02 -0.11124850127E+03  0.21534240700E+03  0.35812854220E+03  0.26326620815E+03 0.  0.
         25    1    4    4    0    0  0.20710990712E+02 -0.84295534220E+02  0.13196826647E+03  0.20148899146E+03  0.12509000000E+03 0.  0.
         25    1    3    3    0    0  0.14084569557E+02  0.11124850127E+03  0.11426742903E+03  0.20317272842E+03  0.12509000000E+03 0.  0.
         25    1    4    4    0    0 -0.34795560269E+02 -0.26952967051E+02  0.83374140532E+02  0.15663955074E+03  0.12509000000E+03 0.  0.
<mgrwt>
<rscale>  2 0.45433080E+03</rscale>
<asrwt>0</asrwt>
<pdfrwt beam="1">  1       21 0.65508169E-01 0.45433080E+03</pdfrwt>
<pdfrwt beam="2">  1       21 0.17036135E-01 0.45433080E+03</pdfrwt>
<totfact> 0.61450456E+04</totfact>
</mgrwt>
</event>
<event>
 7    0  0.4691878E-002  0.4495674E+03  0.7546771E-02  0.1027851E+00
         21   -1    0    0  502  501  0.00000000000E+00  0.00000000000E+00  0.10025014746E+04  0.10025014746E+04  0.00000000000E+00 0.  1.
         21   -1    0    0  501  502 -0.00000000000E+00 -0.00000000000E+00 -0.50401626538E+02  0.50401626538E+02  0.00000000000E+00 0.  1.
      99926    2    1    2    0    0  0.00000000000E+00  0.00000000000E+00  0.95209984808E+03  0.10529031012E+04  0.44956736949E+03 0.  0.
      99925    2    3    3    0    0  0.57030200449E+02  0.88799454391E+02  0.54692082726E+03  0.61591873773E+03  0.26286063482E+03 0.  0.
         25    1    3    3    0    0 -0.57030200449E+02 -0.88799454391E+02  0.40517902083E+03  0.43698436343E+03  0.12509000000E+03 0.  0.
         25    1    4    4    0    0  0.15662457393E+02  0.80142720001E+02  0.32502139458E+03  0.35770739882E+03  0.12509000000E+03 0.  0.
         25    1    4    4    0    0  0.41367743056E+02  0.86567343896E+01  0.22189943268E+03  0.25821133891E+03  0.12509000000E+03 0.  0.
<mgrwt>
<rscale>  2 0.44956737E+03</rscale>
<asrwt>0</asrwt>
<pdfrwt beam="1">  1       21 0.14742668E+00 0.44956737E+03</pdfrwt>
<pdfrwt beam="2">  1       21 0.74120045E-02 0.44956737E+03</pdfrwt>
<totfact> 0.38789875E+04</totfact>
</mgrwt>
</event>
<event>
 7    0  0.4691878E-002  0.4525600E+03  0.7546771E-02  0.1026961E+00
         21   -1    0    0  502  501  0.00000000000E+00  0.00000000000E+00  0.85714607627E+02  0.85714607627E+02  0.00000000000E+00 0.  1.
         21   -1    0    0  501  502 -0.00000000000E+00 -0.00000000000E+00 -0.59736185344E+03  0.59736185344E+03  0.00000000000E+00 0.  1.
      99926    2    1    2    0    0  0.14210854715E-13  0.00000000000E+00 -0.51164724581E+03  0.68307646107E+03  0.45255999328E+03 0.  0.
      99925    2    3    3    0    0  0.91339665062E+02 -0.63513047486E+02 -0.32791271569E+03  0.43451514615E+03  0.26248775497E+03 0.  0.
         25    1    4    4    0    0  0.82288878530E+02 -0.54150989457E+02 -0.17736856772E+03  0.23835038516E+03  0.12509000000E+03 0.  0.
         25    1    3    3    0    0 -0.91339665062E+02  0.63513047486E+02 -0.18373453012E+03  0.24856131492E+03  0.12509000000E+03 0.  0.
         25    1    4    4    0    0  0.90507865325E+01 -0.93620580289E+01 -0.15054414797E+03  0.19616476099E+03  0.12509000000E+03 0.  0.
<mgrwt>
<rscale>  2 0.45255999E+03</rscale>
<asrwt>0</asrwt>
<pdfrwt beam="1">  1       21 0.12605089E-01 0.45255999E+03</pdfrwt>
<pdfrwt beam="2">  1       21 0.87847335E-01 0.45255999E+03</pdfrwt>
<totfact> 0.54878465E+04</totfact>
</mgrwt>
</event>
<event>
 7    0  0.4691878E-002  0.4645695E+03  0.7546771E-02  0.1023464E+00
         21   -1    0    0  502  501  0.00000000000E+00  0.00000000000E+00  0.35761822803E+03  0.35761822803E+03  0.00000000000E+00 0. -1.
         21   -1    0    0  501  502 -0.00000000000E+00 -0.00000000000E+00 -0.15087656513E+03  0.15087656513E+03  0.00000000000E+00 0. -1.
      99926    2    1    2    0    0 -0.35527136788E-14  0.00000000000E+00  0.20674166290E+03  0.50849479316E+03  0.46456952062E+03 0.  0.
      99925    2    3    3    0    0 -0.15172885879E+02 -0.37437703740E+02  0.30511041667E+01  0.26607130019E+03  0.26296925566E+03 0.  0.
         25    1    4    4    0    0  0.62415988738E+01  0.66952446448E+01  0.30159419441E+02  0.12899954472E+03  0.12509000000E+03 0.  0.
         25    1    4    4    0    0 -0.21414484752E+02 -0.44132948384E+02 -0.27108315274E+02  0.13707175547E+03  0.12509000000E+03 0.  0.
         25    1    3    3    0    0  0.15172885879E+02  0.37437703740E+02  0.20369055873E+03  0.24242349297E+03  0.12509000000E+03 0.  0.
<mgrwt>
<rscale>  2 0.46456952E+03</rscale>
<asrwt>0</asrwt>
<pdfrwt beam="1">  1       21 0.52590916E-01 0.46456952E+03</pdfrwt>
<pdfrwt beam="2">  1       21 0.22187730E-01 0.46456952E+03</pdfrwt>
<totfact> 0.59989982E+04</totfact>
</mgrwt>
</event>
<event>
 7    0  0.4691878E-002  0.4575878E+03  0.7546771E-02  0.1025483E+00
         21   -1    0    0  502  501  0.00000000000E+00  0.00000000000E+00  0.16999480032E+03  0.16999480032E+03  0.00000000000E+00 0.  1.
         21   -1    0    0  501  502 -0.00000000000E+00 -0.00000000000E+00 -0.30793086234E+03  0.30793086234E+03  0.00000000000E+00 0.  1.
      99926    2    1    2    0    0  0.00000000000E+00  0.00000000000E+00 -0.13793606202E+03  0.47792566266E+03  0.45758778592E+03 0.  0.
      99925    2    3    3    0    0 -0.50710394339E+02  0.10383417190E+03 -0.84740811119E+02  0.29951511878E+03  0.26301182856E+03 0.  0.
         25    1    4    4    0    0 -0.27679724868E+02  0.63835466081E+02 -0.84424945651E+02  0.16618126683E+03  0.12509000000E+03 0.  0.
         25    1    4    4    0    0 -0.23030669470E+02  0.39998705820E+02 -0.31586546725E+00  0.13333385195E+03  0.12509000000E+03 0.  0.
         25    1    3    3    0    0  0.50710394339E+02 -0.10383417190E+03 -0.53195250898E+02  0.17841054388E+03  0.12509000000E+03 0.  0.
<mgrwt>
<rscale>  2 0.45758779E+03</rscale>
<asrwt>0</asrwt>
<pdfrwt beam="1">  1       21 0.24999236E-01 0.45758779E+03</pdfrwt>
<pdfrwt beam="2">  1       21 0.45283950E-01 0.45758779E+03</pdfrwt>
<totfact> 0.65495908E+04</totfact>
</mgrwt>
</event>
<event>
 7    0  0.4691878E-002  0.4418534E+03  0.7546771E-02  0.1030180E+00
         21   -1    0    0  502  501  0.00000000000E+00  0.00000000000E+00  0.15407309566E+04  0.15407309566E+04  0.00000000000E+00 0.  1.
         21   -1    0    0  501  502 -0.00000000000E+00 -0.00000000000E+00 -0.31678857391E+02  0.31678857391E+02  0.00000000000E+00 0.  1.
      99926    2    1    2    0    0  0.00000000000E+00  0.00000000000E+00  0.15090520992E+04  0.15724098140E+04  0.44185335237E+03 0.  0.
      99925    2    3    3    0    0  0.19682631936E+02 -0.27275387815E+02  0.62480542228E+03  0.67872583934E+03  0.26297451683E+03 0.  0.
         25    1    3    3    0    0 -0.19682631936E+02  0.27275387815E+02  0.88424667689E+03  0.89368397461E+03  0.12509000000E+03 0.  0.
         25    1    4    4    0    0  0.18669290884E+02 -0.29231263727E+02  0.22452483357E+03  0.25934902775E+03  0.12509000000E+03 0.  0.
         25    1    4    4    0    0  0.10133410519E+01  0.19558759124E+01  0.40028058871E+03  0.41937681160E+03  0.12509000000E+03 0.  0.
<mgrwt>
<rscale>  2 0.44185335E+03</rscale>
<asrwt>0</asrwt>
<pdfrwt beam="1">  1       21 0.22657803E+00 0.44185335E+03</pdfrwt>
<pdfrwt beam="2">  1       21 0.46586565E-02 0.44185335E+03</pdfrwt>
<totfact> 0.24462929E+04</totfact>
</mgrwt>
</event>
<event>
 7    0  0.4691878E-002  0.4491397E+03  0.7546771E-02  0.1027979E+00
         21   -1    0    0  502  501  0.00000000000E+00  0.00000000000E+00  0.52664166433E+02  0.52664166433E+02  0.00000000000E+00 0.  1.
         21   -1    0    0  501  502 -0.00000000000E+00 -0.00000000000E+00 -0.95760795067E+03  0.95760795067E+03  0.00000000000E+00 0.  1.
      99926    2    1    2    0    0 -0.14210854715E-13  0.00000000000E+00 -0.90494378424E+03  0.10102721171E+04  0.44913973101E+03 0.  0.
      99925    2    3    3    0    0 -0.89584420300E+02  0.31454634626E+02 -0.45943756027E+03  0.53789719599E+03  0.26312688816E+03 0.  0.
         25    1    4    4    0    0 -0.57947435870E+02  0.21179766298E+02 -0.16362160715E+03  0.21500238662E+03  0.12509000000E+03 0.  0.
         25    1    3    3    0    0  0.89584420300E+02 -0.31454634626E+02 -0.44550622397E+03  0.47237492112E+03  0.12509000000E+03 0.  0.
         25    1    4    4    0    0 -0.31636984429E+02  0.10274868329E+02 -0.29581595311E+03  0.32289480937E+03  0.12509000000E+03 0.  0.
<mgrwt>
<rscale>  2 0.44913973E+03</rscale>
<asrwt>0</asrwt>
<pdfrwt beam="1">  1       21 0.77447305E-02 0.44913973E+03</pdfrwt>
<pdfrwt beam="2">  1       21 0.14082470E+00 0.44913973E+03</pdfrwt>
<totfact> 0.40595733E+04</totfact>
</mgrwt>
</event>
<event>
 7    0  0.4691878E-002  0.4596504E+03  0.7546771E-02  0.1024883E+00
         21   -1    0    0  502  501  0.00000000000E+00  0.00000000000E+00  0.32699104158E+02  0.32699104158E+02  0.00000000000E+00 0. -1.
         21   -1    0    0  501  502 -0.00000000000E+00 -0.00000000000E+00 -0.16153234082E+04  0.16153234082E+04  0.00000000000E+00 0. -1.
      99926    2    1    2    0    0  0.00000000000E+00  0.00000000000E+00 -0.15826243040E+04  0.16480225124E+04  0.45965042532E+03 0.  0.
      99925    2    3    3    0    0 -0.64128704608E+02  0.75443288980E+02 -0.12182353228E+04  0.12502398853E+04  0.26305567581E+03 0.  0.
         25    1    4    4    0    0 -0.50679935617E+02  0.11440082719E+02 -0.70794728844E+03  0.72078859777E+03  0.12509000000E+03 0.  0.
         25    1    3    3    0    0  0.64128704608E+02 -0.75443288980E+02 -0.36438898128E+03  0.39778262705E+03  0.12509000000E+03 0.  0.
         25    1    4    4    0    0 -0.13448768991E+02  0.64003206261E+02 -0.51028803432E+03  0.52945128754E+03  0.12509000000E+03 0.  0.
<mgrwt>
<rscale>  2 0.45965043E+03</rscale>
<asrwt>0</asrwt>
<pdfrwt beam="1">  1       21 0.48086896E-02 0.45965043E+03</pdfrwt>
<pdfrwt beam="2">  1       21 0.23754767E+00 0.45965043E+03</pdfrwt>
<totfact> 0.19646969E+04</totfact>
</mgrwt>
</event>
<event>
 7    0  0.4691878E-002  0.4450100E+03  0.7546771E-02  0.1029221E+00
         21   -1    0    0  502  501  0.00000000000E+00  0.00000000000E+00  0.56234580428E+02  0.56234580428E+02  0.00000000000E+00 0. -1.
         21   -1    0    0  501  502 -0.00000000000E+00 -0.00000000000E+00 -0.88039185513E+03  0.88039185513E+03  0.00000000000E+00 0. -1.
      99926    2    1    2    0    0  0.00000000000E+00  0.00000000000E+00 -0.82415727470E+03  0.93662643556E+03  0.44500996207E+03 0.  0.
      99925    2    3    3    0    0  0.42436449794E+02  0.89204274855E+02 -0.58819707354E+03  0.65187570324E+03  0.26307390640E+03 0.  0.
         25    1    3    3    0    0 -0.42436449794E+02 -0.89204274855E+02 -0.23596020116E+03  0.28475073232E+03  0.12509000000E+03 0.  0.
         25    1    4    4    0    0  0.25864515229E+02  0.86306929402E+02 -0.30152651248E+03  0.33864967893E+03  0.12509000000E+03 0.  0.
         25    1    4    4    0    0  0.16571934564E+02  0.28973454529E+01 -0.28667056107E+03  0.31322602431E+03  0.12509000000E+03 0.  0.
<mgrwt>
<rscale>  2 0.44500996E+03</rscale>
<asrwt>0</asrwt>
<pdfrwt beam="1">  1       21 0.82697916E-02 0.44500996E+03</pdfrwt>
<pdfrwt beam="2">  1       21 0.12946938E+00 0.44500996E+03</pdfrwt>
<totfact> 0.45109795E+04</totfact>
</mgrwt>
</event>
<event>
 7    0  0.4691878E-002  0.4535007E+03  0.7546771E-02  0.1026683E+00
         21   -1    0    0  502  501  0.00000000000E+00  0.00000000000E+00  0.33031428577E+03  0.33031428577E+03  0.00000000000E+00 0.  1.
         21   -1    0    0  501  502 -0.00000000000E+00 -0.00000000000E+00 -0.15565694909E+03  0.15565694909E+03  0.00000000000E+00 0.  1.
      99926    2    1    2    0    0  0.00000000000E+00  0.35527136788E-14  0.17465733669E+03  0.48597123486E+03  0.45350066797E+03 0.  0.
      99925    2    3    3    0    0  0.10582590349E+03 -0.26582890386E+02  0.13653173157E+03  0.31565728424E+03  0.26285516061E+03 0.  0.
         25    1    4    4    0    0  0.48016321287E+02 -0.46756592182E+02  0.93280137337E+02  0.16982472772E+03  0.12509000000E+03 0.  0.
         25    1    3    3    0    0 -0.10582590349E+03  0.26582890386E+02  0.38125605116E+02  0.17031395062E+03  0.12509000000E+03 0.  0.
         25    1    4    4    0    0  0.57809582200E+02  0.20173701796E+02  0.43251594234E+02  0.14583255652E+03  0.12509000000E+03 0.  0.
<mgrwt>
<rscale>  2 0.45350067E+03</rscale>
<asrwt>0</asrwt>
<pdfrwt beam="1">  1       21 0.48575630E-01 0.45350067E+03</pdfrwt>
<pdfrwt beam="2">  1       21 0.22890728E-01 0.45350067E+03</pdfrwt>
<totfact> 0.67062609E+04</totfact>
</mgrwt>
</event>
<event>
 7    0  0.4691878E-002  0.4505694E+03  0.7546771E-02  0.1027552E+00
         21   -1    0    0  502  501  0.00000000000E+00  0.00000000000E+00  0.70003275007E+02  0.70003275007E+02  0.00000000000E+00 0.  1.
         21   -1    0    0  501  502 -0.00000000000E+00 -0.00000000000E+00 -0.72501174213E+03  0.72501174213E+03  0.00000000000E+00 0.  1.
      99926    2    1    2    0    0  0.00000000000E+00 -0.71054273576E-14 -0.65500846712E+03  0.79501501713E+03  0.45056940139E+03 0.  0.
      99925    2    3    3    0    0  0.70571824834E+02 -0.59276668303E+02 -0.51489114402E+03  0.58579150460E+03  0.26371327384E+03 0.  0.
         25    1    3    3    0    0 -0.70571824834E+02  0.59276668303E+02 -0.14011732309E+03  0.20922351253E+03  0.12509000000E+03 0.  0.
         25    1    4    4    0    0  0.28547465913E+02 -0.68680396895E+02 -0.30013094644E+03  0.33355366561E+03  0.12509000000E+03 0.  0.
         25    1    4    4    0    0  0.42024358921E+02  0.94037285915E+01 -0.21476019758E+03  0.25223783899E+03  0.12509000000E+03 0.  0.
<mgrwt>
<rscale>  2 0.45056940E+03</rscale>
<asrwt>0</asrwt>
<pdfrwt beam="1">  1       21 0.10294599E-01 0.45056940E+03</pdfrwt>
<pdfrwt beam="2">  1       21 0.10661938E+00 0.45056940E+03</pdfrwt>
<totfact> 0.49713090E+04</totfact>
</mgrwt>
</event>
<event>
 7    0  0.4691878E-002  0.4617596E+03  0.7546771E-02  0.1024272E+00
         21   -1    0    0  502  501  0.00000000000E+00  0.00000000000E+00  0.13816951439E+03  0.13816951439E+03  0.00000000000E+00 0. -1.
         21   -1    0    0  501  502 -0.00000000000E+00 -0.00000000000E+00 -0.38579765987E+03  0.38579765987E+03  0.00000000000E+00 0. -1.
      99926    2    1    2    0    0 -0.14210854715E-13  0.00000000000E+00 -0.24762814548E+03  0.52396717426E+03  0.46175957085E+03 0.  0.
      99925    2    3    3    0    0 -0.92703852779E+02  0.68911363424E+02 -0.12075152655E+03  0.31162790597E+03  0.26303657595E+03 0.  0.
         25    1    4    4    0    0 -0.35681581998E+02 -0.17510612519E+01 -0.34360012979E+02  0.13455244368E+03  0.12509000000E+03 0.  0.
         25    1    3    3    0    0  0.92703852779E+02 -0.68911363424E+02 -0.12687661893E+03  0.21233926829E+03  0.12509000000E+03 0.  0.
         25    1    4    4    0    0 -0.57022270781E+02  0.70662424676E+02 -0.86391513576E+02  0.17707546229E+03  0.12509000000E+03 0.  0.
<mgrwt>
<rscale>  2 0.46175957E+03</rscale>
<asrwt>0</asrwt>
<pdfrwt beam="1">  1       21 0.20319047E-01 0.46175957E+03</pdfrwt>
<pdfrwt beam="2">  1       21 0.56734948E-01 0.46175957E+03</pdfrwt>
<totfact> 0.60317492E+04</totfact>
</mgrwt>
</event>
<event>
 7    0  0.4691878E-002  0.4562616E+03  0.7546771E-02  0.1025871E+00
         21   -1    0    0  502  501  0.00000000000E+00  0.00000000000E+00  0.98475256816E+03  0.98475256816E+03  0.00000000000E+00 0. -1.
         21   -1    0    0  501  502 -0.00000000000E+00 -0.00000000000E+00 -0.52849475742E+02  0.52849475742E+02  0.00000000000E+00 0. -1.
      99926    2    1    2    0    0  0.00000000000E+00 -0.71054273576E-14  0.93190309242E+03  0.10376020439E+04  0.45626157832E+03 0.  0.
      99925    2    3    3    0    0  0.86631976150E+02 -0.45649121325E+02  0.71986707646E+03  0.77265729167E+03  0.26306223795E+03 0.  0.
         25    1    4    4    0    0  0.62697335054E+02 -0.13006389319E+01  0.28746533016E+03  0.31971310831E+03  0.12509000000E+03 0.  0.
         25    1    4    4    0    0  0.23934641096E+02 -0.44348482393E+02  0.43240174630E+03  0.45294418336E+03  0.12509000000E+03 0.  0.
         25    1    3    3    0    0 -0.86631976150E+02  0.45649121325E+02  0.21203601596E+03  0.26494475223E+03  0.12509000000E+03 0.  0.
<mgrwt>
<rscale>  2 0.45626158E+03</rscale>
<asrwt>0</asrwt>
<pdfrwt beam="1">  1       21 0.14481654E+00 0.45626158E+03</pdfrwt>
<pdfrwt beam="2">  1       21 0.77719823E-02 0.45626158E+03</pdfrwt>
<totfact> 0.37366279E+04</totfact>
</mgrwt>
</event>
<event>
 7    0  0.4691878E-002  0.4651451E+03  0.7546771E-02  0.1023299E+00
         21   -1    0    0  502  501  0.00000000000E+00  0.00000000000E+00  0.12644763923E+03  0.12644763923E+03  0.00000000000E+00 0. -1.
         21   -1    0    0  501  502 -0.00000000000E+00 -0.00000000000E+00 -0.42776591645E+03  0.42776591645E+03  0.00000000000E+00 0. -1.
      99926    2    1    2    0    0 -0.14210854715E-13  0.35527136788E-14 -0.30131827722E+03  0.55421355568E+03  0.46514509684E+03 0.  0.
      99925    2    3    3    0    0 -0.11765593408E+03  0.25280986553E+02 -0.20793201991E+03  0.35710813145E+03  0.26421287921E+03 0.  0.
         25    1    4    4    0    0 -0.47731762693E+02  0.53580645035E+02 -0.10022368363E+03  0.17561748646E+03  0.12509000000E+03 0.  0.
         25    1    3    3    0    0  0.11765593408E+03 -0.25280986553E+02 -0.93386257312E+02  0.19710542423E+03  0.12509000000E+03 0.  0.
         25    1    4    4    0    0 -0.69924171384E+02 -0.28299658482E+02 -0.10770833628E+03  0.18149064499E+03  0.12509000000E+03 0.  0.
<mgrwt>
<rscale>  2 0.46514510E+03</rscale>
<asrwt>0</asrwt>
<pdfrwt beam="1">  1       21 0.18595241E-01 0.46514510E+03</pdfrwt>
<pdfrwt beam="2">  1       21 0.62906752E-01 0.46514510E+03</pdfrwt>
<totfact> 0.56884035E+04</totfact>
</mgrwt>
</event>
<event>
 7    0  0.4691878E-002  0.4499255E+03  0.7546771E-02  0.1027744E+00
         21   -1    0    0  502  501  0.00000000000E+00  0.00000000000E+00  0.75817370266E+03  0.75817370266E+03  0.00000000000E+00 0.  1.
         21   -1    0    0  501  502 -0.00000000000E+00 -0.00000000000E+00 -0.66750195791E+02  0.66750195791E+02  0.00000000000E+00 0.  1.
      99926    2    1    2    0    0  0.00000000000E+00  0.00000000000E+00  0.69142350687E+03  0.82492389845E+03  0.44992551871E+03 0.  0.
      99925    2    3    3    0    0  0.97325420054E+02 -0.11480256648E+02  0.52233798693E+03  0.59288628332E+03  0.26281769096E+03 0.  0.
         25    1    4    4    0    0  0.59636878655E+02 -0.29780176255E+02  0.33508273928E+03  0.36382875980E+03  0.12509000000E+03 0.  0.
         25    1    3    3    0    0 -0.97325420054E+02  0.11480256648E+02  0.16908551994E+03  0.23203761513E+03  0.12509000000E+03 0.  0.
         25    1    4    4    0    0  0.37688541399E+02  0.18299919607E+02  0.18725524764E+03  0.22905752352E+03  0.12509000000E+03 0.  0.
<mgrwt>
<rscale>  2 0.44992552E+03</rscale>
<asrwt>0</asrwt>
<pdfrwt beam="1">  1       21 0.11149613E+00 0.44992552E+03</pdfrwt>
<pdfrwt beam="2">  1       21 0.98162057E-02 0.44992552E+03</pdfrwt>
<totfact> 0.48484627E+04</totfact>
</mgrwt>
</event>
<event>
 7    0  0.4691878E-002  0.4564532E+03  0.7546771E-02  0.1025815E+00
         21   -1    0    0  502  501  0.00000000000E+00  0.00000000000E+00  0.13657984099E+03  0.13657984099E+03  0.00000000000E+00 0. -1.
         21   -1    0    0  501  502 -0.00000000000E+00 -0.00000000000E+00 -0.38136947501E+03  0.38136947501E+03  0.00000000000E+00 0. -1.
      99926    2    1    2    0    0  0.00000000000E+00  0.00000000000E+00 -0.24478963402E+03  0.51794931601E+03  0.45645320574E+03 0.  0.
      99925    2    3    3    0    0  0.23699118992E+02  0.79240473546E+01 -0.28038587315E+03  0.38551427869E+03  0.26340194086E+03 0.  0.
         25    1    4    4    0    0 -0.25252954883E+02 -0.71765890313E+01 -0.15744971687E+03  0.20279826578E+03  0.12509000000E+03 0.  0.
         25    1    4    4    0    0  0.48952073874E+02  0.15100636386E+02 -0.12293615627E+03  0.18271601291E+03  0.12509000000E+03 0.  0.
         25    1    3    3    0    0 -0.23699118992E+02 -0.79240473546E+01  0.35596239127E+02  0.13243503731E+03  0.12509000000E+03 0.  0.
<mgrwt>
<rscale>  2 0.45645321E+03</rscale>
<asrwt>0</asrwt>
<pdfrwt beam="1">  1       21 0.20085271E-01 0.45645321E+03</pdfrwt>
<pdfrwt beam="2">  1       21 0.56083746E-01 0.45645321E+03</pdfrwt>
<totfact> 0.63294234E+04</totfact>
</mgrwt>
</event>
<event>
 7    0  0.4691878E-002  0.4498221E+03  0.7546771E-02  0.1027775E+00
         21   -1    0    0  502  501  0.00000000000E+00  0.00000000000E+00  0.12504514277E+03  0.12504514277E+03  0.00000000000E+00 0. -1.
         21   -1    0    0  501  502 -0.00000000000E+00 -0.00000000000E+00 -0.40453375284E+03  0.40453375284E+03  0.00000000000E+00 0. -1.
      99926    2    1    2    0    0  0.00000000000E+00 -0.14210854715E-13 -0.27948861006E+03  0.52957889561E+03  0.44982210208E+03 0.  0.
      99925    2    3    3    0    0  0.35888433887E+02  0.76004383804E+02 -0.96499822058E+02  0.29251972435E+03  0.26304168383E+03 0.  0.
         25    1    4    4    0    0  0.28754962662E+02 -0.13263750972E+01 -0.35763369423E+02  0.13324839151E+03  0.12509000000E+03 0.  0.
         25    1    3    3    0    0 -0.35888433887E+02 -0.76004383804E+02 -0.18298878801E+03  0.23705917126E+03  0.12509000000E+03 0.  0.
         25    1    4    4    0    0  0.71334712248E+01  0.77330758902E+02 -0.60736452635E+02  0.15927133283E+03  0.12509000000E+03 0.  0.
<mgrwt>
<rscale>  2 0.44982210E+03</rscale>
<asrwt>0</asrwt>
<pdfrwt beam="1">  1       21 0.18388992E-01 0.44982210E+03</pdfrwt>
<pdfrwt beam="2">  1       21 0.59490257E-01 0.44982210E+03</pdfrwt>
<totfact> 0.65896160E+04</totfact>
</mgrwt>
</event>
<event>
 7    0  0.4691878E-002  0.4508181E+03  0.7546771E-02  0.1027478E+00
         21   -1    0    0  502  501  0.00000000000E+00  0.00000000000E+00  0.19296686232E+03  0.19296686232E+03  0.00000000000E+00 0. -1.
         21   -1    0    0  501  502 -0.00000000000E+00 -0.00000000000E+00 -0.26330555606E+03  0.26330555606E+03  0.00000000000E+00 0. -1.
      99926    2    1    2    0    0  0.00000000000E+00 -0.71054273576E-14 -0.70338693737E+02  0.45627241839E+03  0.45081813178E+03 0.  0.
      99925    2    3    3    0    0 -0.67322589950E+02 -0.56055111178E+02 -0.11039157188E+03  0.29839193272E+03  0.26301509417E+03 0.  0.
         25    1    4    4    0    0  0.23798321369E+01 -0.25715986949E+02 -0.29271140748E+02  0.13103924361E+03  0.12509000000E+03 0.  0.
         25    1    3    3    0    0  0.67322589950E+02  0.56055111178E+02  0.40052878146E+02  0.15788048567E+03  0.12509000000E+03 0.  0.
         25    1    4    4    0    0 -0.69702422087E+02 -0.30339124229E+02 -0.81120431135E+02  0.16735268911E+03  0.12509000000E+03 0.  0.
<mgrwt>
<rscale>  2 0.45081813E+03</rscale>
<asrwt>0</asrwt>
<pdfrwt beam="1">  1       21 0.28377480E-01 0.45081813E+03</pdfrwt>
<pdfrwt beam="2">  1       21 0.38721405E-01 0.45081813E+03</pdfrwt>
<totfact> 0.70784335E+04</totfact>
</mgrwt>
</event>
<event>
 7    0  0.4691878E-002  0.4581300E+03  0.7546771E-02  0.1025325E+00
         21   -1    0    0  502  501  0.00000000000E+00  0.00000000000E+00  0.25160279256E+03  0.25160279256E+03  0.00000000000E+00 0. -1.
         21   -1    0    0  501  502 -0.00000000000E+00 -0.00000000000E+00 -0.20854604148E+03  0.20854604148E+03  0.00000000000E+00 0. -1.
      99926    2    1    2    0    0  0.00000000000E+00  0.00000000000E+00  0.43056751083E+02  0.46014883403E+03  0.45812996589E+03 0.  0.
      99925    2    3    3    0    0 -0.98219855430E+02  0.47928963183E+02  0.66341291895E+02  0.29241689476E+03  0.26298697271E+03 0.  0.
         25    1    4    4    0    0 -0.40032289218E+02  0.42961009085E+02  0.68751037804E+02  0.15434521625E+03  0.12509000000E+03 0.  0.
         25    1    4    4    0    0 -0.58187566212E+02  0.49679540974E+01 -0.24097459087E+01  0.13807167850E+03  0.12509000000E+03 0.  0.
         25    1    3    3    0    0  0.98219855430E+02 -0.47928963183E+02 -0.23284540813E+02  0.16773193928E+03  0.12509000000E+03 0.  0.
<mgrwt>
<rscale>  2 0.45812997E+03</rscale>
<asrwt>0</asrwt>
<pdfrwt beam="1">  1       21 0.37000411E-01 0.45812997E+03</pdfrwt>
<pdfrwt beam="2">  1       21 0.30668535E-01 0.45812997E+03</pdfrwt>
<totfact> 0.66494114E+04</totfact>
</mgrwt>
</event>
<event>
 7    0  0.4691878E-002  0.4584872E+03  0.7546771E-02  0.1025221E+00
         21   -1    0    0  502  501  0.00000000000E+00  0.00000000000E+00  0.45674775069E+03  0.45674775069E+03  0.00000000000E+00 0.  1.
         21   -1    0    0  501  502 -0.00000000000E+00 -0.00000000000E+00 -0.11505831031E+03  0.11505831031E+03  0.00000000000E+00 0.  1.
      99926    2    1    2    0    0  0.00000000000E+00  0.00000000000E+00  0.34168944038E+03  0.57180606100E+03  0.45848718382E+03 0.  0.
      99925    2    3    3    0    0  0.19225928716E+02  0.84138906274E+02  0.31167839699E+03  0.41689588474E+03  0.26307748606E+03 0.  0.
         25    1    4    4    0    0 -0.22859402973E+01  0.10758681504E+01  0.14548571373E+03  0.19188534080E+03  0.12509000000E+03 0.  0.
         25    1    3    3    0    0 -0.19225928716E+02 -0.84138906274E+02  0.30011043389E+02  0.15491017626E+03  0.12509000000E+03 0.  0.
         25    1    4    4    0    0  0.21511869013E+02  0.83063038123E+02  0.16619268326E+03  0.22501054393E+03  0.12509000000E+03 0.  0.
<mgrwt>
<rscale>  2 0.45848718E+03</rscale>
<asrwt>0</asrwt>
<pdfrwt beam="1">  1       21 0.67168786E-01 0.45848718E+03</pdfrwt>
<pdfrwt beam="2">  1       21 0.16920340E-01 0.45848718E+03</pdfrwt>
<totfact> 0.58809602E+04</totfact>
</mgrwt>
</event>
<event>
 7    0  0.4691878E-002  0.4300181E+03  0.7546771E-02  0.1033854E+00
         21   -1    0    0  502  501  0.00000000000E+00  0.00000000000E+00  0.12457565973E+03  0.12457565973E+03  0.00000000000E+00 0.  1.
         21   -1    0    0  501  502 -0.00000000000E+00 -0.00000000000E+00 -0.37109083653E+03  0.37109083653E+03  0.00000000000E+00 0.  1.
      99926    2    1    2    0    0  0.00000000000E+00  0.00000000000E+00 -0.24651517680E+03  0.49566649625E+03  0.43001807301E+03 0.  0.
      99925    2    3    3    0    0 -0.53711619563E+02 -0.67728662868E+02 -0.17618592102E+03  0.32813792505E+03  0.26298461788E+03 0.  0.
         25    1    4    4    0    0 -0.39810935597E+02 -0.62542949409E+02 -0.61842657398E+02  0.15801440911E+03  0.12509000000E+03 0.  0.
         25    1    3    3    0    0  0.53711619563E+02  0.67728662868E+02 -0.70329255780E+02  0.16752857120E+03  0.12509000000E+03 0.  0.
         25    1    4    4    0    0 -0.13900683966E+02 -0.51857134596E+01 -0.11434326362E+03  0.17012351594E+03  0.12509000000E+03 0.  0.
<mgrwt>
<rscale>  2 0.43001807E+03</rscale>
<asrwt>0</asrwt>
<pdfrwt beam="1">  1       21 0.18319950E-01 0.43001807E+03</pdfrwt>
<pdfrwt beam="2">  1       21 0.54572183E-01 0.43001807E+03</pdfrwt>
<totfact> 0.80363392E+04</totfact>
</mgrwt>
</event>
<event>
 7    0  0.4691878E-002  0.4582533E+03  0.7546771E-02  0.1025289E+00
         21   -1    0    0  502  501  0.00000000000E+00  0.00000000000E+00  0.77558634916E+02  0.77558634916E+02  0.00000000000E+00 0.  1.
         21   -1    0    0  501  502 -0.00000000000E+00 -0.00000000000E+00 -0.67689468850E+03  0.67689468850E+03  0.00000000000E+00 0.  1.
      99926    2    1    2    0    0  0.00000000000E+00  0.00000000000E+00 -0.59933605359E+03  0.75445332342E+03  0.45825332742E+03 0.  0.
      99925    2    3    3    0    0  0.20312938289E+02  0.69228948546E+02 -0.52605401119E+03  0.59251806285E+03  0.26294404221E+03 0.  0.
         25    1    3    3    0    0 -0.20312938289E+02 -0.69228948546E+02 -0.73282042394E+02  0.16193526057E+03  0.12509000000E+03 0.  0.
         25    1    4    4    0    0  0.37138725366E+01  0.31313170051E+02 -0.17392213282E+03  0.21654266059E+03  0.12509000000E+03 0.  0.
         25    1    4    4    0    0  0.16599065752E+02  0.37915778496E+02 -0.35213187837E+03  0.37597540226E+03  0.12509000000E+03 0.  0.
<mgrwt>
<rscale>  2 0.45825333E+03</rscale>
<asrwt>0</asrwt>
<pdfrwt beam="1">  1       21 0.11405683E-01 0.45825333E+03</pdfrwt>
<pdfrwt beam="2">  1       21 0.99543327E-01 0.45825333E+03</pdfrwt>
<totfact> 0.48784961E+04</totfact>
</mgrwt>
</event>
<event>
 7    0  0.4691878E-002  0.4462510E+03  0.7546771E-02  0.1028846E+00
         21   -1    0    0  502  501  0.00000000000E+00  0.00000000000E+00  0.20289297018E+03  0.20289297018E+03  0.00000000000E+00 0. -1.
         21   -1    0    0  501  502 -0.00000000000E+00 -0.00000000000E+00 -0.24537561418E+03  0.24537561418E+03  0.00000000000E+00 0. -1.
      99926    2    1    2    0    0  0.00000000000E+00  0.00000000000E+00 -0.42482643997E+02  0.44826858436E+03  0.44625099292E+03 0.  0.
      99925    2    3    3    0    0  0.17222657731E+02 -0.68277486006E+02  0.50740223513E+02  0.27710653786E+03  0.26316350053E+03 0.  0.
         25    1    4    4    0    0 -0.24894235543E+02 -0.57419268116E+02  0.22063288925E+02  0.14160152588E+03  0.12509000000E+03 0.  0.
         25    1    3    3    0    0 -0.17222657731E+02  0.68277486006E+02 -0.93222867510E+02  0.17116204650E+03  0.12509000000E+03 0.  0.
         25    1    4    4    0    0  0.42116893274E+02 -0.10858217890E+02  0.28676934588E+02  0.13550501198E+03  0.12509000000E+03 0.  0.
<mgrwt>
<rscale>  2 0.44625099E+03</rscale>
<asrwt>0</asrwt>
<pdfrwt beam="1">  1       21 0.29837201E-01 0.44625099E+03</pdfrwt>
<pdfrwt beam="2">  1       21 0.36084649E-01 0.44625099E+03</pdfrwt>
<totfact> 0.74079381E+04</totfact>
</mgrwt>
</event>
<event>
 7    0  0.4691878E-002  0.4569010E+03  0.7546771E-02  0.1025684E+00
         21   -1    0    0  502  501  0.00000000000E+00  0.00000000000E+00  0.94447103811E+02  0.94447103811E+02  0.00000000000E+00 0.  1.
         21   -1    0    0  501  502 -0.00000000000E+00 -0.00000000000E+00 -0.55258051800E+03  0.55258051800E+03  0.00000000000E+00 0.  1.
      99926    2    1    2    0    0 -0.11102230246E-14 -0.17763568394E-14 -0.45813341419E+03  0.64702762181E+03  0.45690099386E+03 0.  0.
      99925    2    3    3    0    0 -0.14150737931E+01  0.14328934554E+02 -0.44924781891E+03  0.52079853363E+03  0.26305928807E+03 0.  0.
         25    1    4    4    0    0 -0.35454738988E+02 -0.11939670687E+02 -0.20538671573E+03  0.24337379758E+03  0.12509000000E+03 0.  0.
         25    1    3    3    0    0  0.14150737931E+01 -0.14328934554E+02 -0.88855952840E+01  0.12622908818E+03  0.12509000000E+03 0.  0.
         25    1    4    4    0    0  0.34039665195E+02  0.26268605240E+02 -0.24386110318E+03  0.27742473605E+03  0.12509000000E+03 0.  0.
<mgrwt>
<rscale>  2 0.45690099E+03</rscale>
<asrwt>0</asrwt>
<pdfrwt beam="1">  1       21 0.13889280E-01 0.45690099E+03</pdfrwt>
<pdfrwt beam="2">  1       21 0.81261840E-01 0.45690099E+03</pdfrwt>
<totfact> 0.55042832E+04</totfact>
</mgrwt>
</event>
<event>
 7    0  0.4691878E-002  0.4577507E+03  0.7546771E-02  0.1025436E+00
         21   -1    0    0  502  501  0.00000000000E+00  0.00000000000E+00  0.60181528277E+02  0.60181528277E+02  0.00000000000E+00 0. -1.
         21   -1    0    0  501  502 -0.00000000000E+00 -0.00000000000E+00 -0.87043181002E+03  0.87043181002E+03  0.00000000000E+00 0. -1.
      99926    2    1    2    0    0  0.00000000000E+00  0.35527136788E-14 -0.81025028175E+03  0.93061333830E+03  0.45775065959E+03 0.  0.
      99925    2    3    3    0    0 -0.10678517944E+03  0.24479774563E+02 -0.58517831009E+03  0.65077904013E+03  0.26282574181E+03 0.  0.
         25    1    4    4    0    0 -0.77638030275E+02  0.46316813071E+02 -0.32679876308E+03  0.36141091651E+03  0.12509000000E+03 0.  0.
         25    1    3    3    0    0  0.10678517944E+03 -0.24479774563E+02 -0.22507197165E+03  0.27983429817E+03  0.12509000000E+03 0.  0.
         25    1    4    4    0    0 -0.29147149160E+02 -0.21837038509E+02 -0.25837954701E+03  0.28936812362E+03  0.12509000000E+03 0.  0.
<mgrwt>
<rscale>  2 0.45775066E+03</rscale>
<asrwt>0</asrwt>
<pdfrwt beam="1">  1       21 0.88502249E-02 0.45775066E+03</pdfrwt>
<pdfrwt beam="2">  1       21 0.12800468E+00 0.45775066E+03</pdfrwt>
<totfact> 0.41045773E+04</totfact>
</mgrwt>
</event>
<event>
 7    0  0.4691878E-002  0.4642942E+03  0.7546771E-02  0.1023543E+00
         21   -1    0    0  502  501  0.00000000000E+00  0.00000000000E+00  0.40897036806E+03  0.40897036806E+03  0.00000000000E+00 0. -1.
         21   -1    0    0  501  502 -0.00000000000E+00 -0.00000000000E+00 -0.13177551090E+03  0.13177551090E+03  0.00000000000E+00 0. -1.
      99926    2    1    2    0    0  0.14210854715E-13  0.00000000000E+00  0.27719485716E+03  0.54074587896E+03  0.46429421359E+03 0.  0.
      99925    2    3    3    0    0 -0.11923070655E+03  0.23852175403E+02  0.16819284103E+03  0.33504260899E+03  0.26302058933E+03 0.  0.
         25    1    4    4    0    0 -0.17506211917E+02  0.21886656794E+02  0.82486703021E+02  0.15243706071E+03  0.12509000000E+03 0.  0.
         25    1    3    3    0    0  0.11923070655E+03 -0.23852175403E+02  0.10900201614E+03  0.20570326997E+03  0.12509000000E+03 0.  0.
         25    1    4    4    0    0 -0.10172449463E+03  0.19655186090E+01  0.85706138007E+02  0.18260554828E+03  0.12509000000E+03 0.  0.
<mgrwt>
<rscale>  2 0.46429421E+03</rscale>
<asrwt>0</asrwt>
<pdfrwt beam="1">  1       21 0.60142701E-01 0.46429421E+03</pdfrwt>
<pdfrwt beam="2">  1       21 0.19378752E-01 0.46429421E+03</pdfrwt>
<totfact> 0.58087033E+04</totfact>
</mgrwt>
</event>
<event>
 7    0  0.4691878E-002  0.4755514E+03  0.7546771E-02  0.1020365E+00
         21   -1    0    0  502  501  0.00000000000E+00  0.00000000000E+00  0.86507805516E+02  0.86507805516E+02  0.00000000000E+00 0.  1.
         21   -1    0    0  501  502 -0.00000000000E+00 -0.00000000000E+00 -0.65355134779E+03  0.65355134779E+03  0.00000000000E+00 0.  1.
      99926    2    1    2    0    0  0.00000000000E+00  0.00000000000E+00 -0.56704354227E+03  0.74005915330E+03  0.47555143944E+03 0.  0.
      99925    2    3    3    0    0  0.86011926408E+02 -0.98277006037E+02 -0.32606219326E+03  0.43876869532E+03  0.26295435482E+03 0.  0.
         25    1    4    4    0    0  0.32785692558E+02 -0.77118986523E+02 -0.21216411528E+03  0.26016025759E+03  0.12509000000E+03 0.  0.
         25    1    3    3    0    0 -0.86011926408E+02  0.98277006037E+02 -0.24098134901E+03  0.30129045798E+03  0.12509000000E+03 0.  0.
         25    1    4    4    0    0  0.53226233850E+02 -0.21158019514E+02 -0.11389807798E+03  0.17860843773E+03  0.12509000000E+03 0.  0.
<mgrwt>
<rscale>  2 0.47555144E+03</rscale>
<asrwt>0</asrwt>
<pdfrwt beam="1">  1       21 0.12721736E-01 0.47555144E+03</pdfrwt>
<pdfrwt beam="2">  1       21 0.96110496E-01 0.47555144E+03</pdfrwt>
<totfact> 0.43342221E+04</totfact>
</mgrwt>
</event>
<event>
 7    0  0.4691878E-002  0.4455442E+03  0.7546771E-02  0.1029059E+00
         21   -1    0    0  502  501  0.00000000000E+00  0.00000000000E+00  0.85793456089E+03  0.85793456089E+03  0.00000000000E+00 0. -1.
         21   -1    0    0  501  502 -0.00000000000E+00 -0.00000000000E+00 -0.57845225857E+02  0.57845225857E+02  0.00000000000E+00 0. -1.
      99926    2    1    2    0    0 -0.17763568394E-14  0.17763568394E-14  0.80008933503E+03  0.91577978674E+03  0.44554424447E+03 0.  0.
      99925    2    3    3    0    0  0.85679036428E+01 -0.10461869814E+02  0.29585138625E+03  0.39608153123E+03  0.26300128696E+03 0.  0.
         25    1    3    3    0    0 -0.85679036428E+01  0.10461869814E+02  0.50423794878E+03  0.51969825551E+03  0.12509000000E+03 0.  0.
         25    1    4    4    0    0 -0.32636539595E+02 -0.17467121521E+02  0.12980485015E+03  0.18403002818E+03  0.12509000000E+03 0.  0.
         25    1    4    4    0    0  0.41204443238E+02  0.70052517064E+01  0.16604653610E+03  0.21205150305E+03  0.12509000000E+03 0.  0.
<mgrwt>
<rscale>  2 0.44554424E+03</rscale>
<asrwt>0</asrwt>
<pdfrwt beam="1">  1       21 0.12616684E+00 0.44554424E+03</pdfrwt>
<pdfrwt beam="2">  1       21 0.85066514E-02 0.44554424E+03</pdfrwt>
<totfact> 0.45857792E+04</totfact>
</mgrwt>
</event>
<event>
 7    0  0.4691878E-002  0.4178493E+03  0.7546771E-02  0.1037769E+00
         21   -1    0    0  502  501  0.00000000000E+00  0.00000000000E+00  0.18289622947E+04  0.18289622947E+04  0.00000000000E+00 0. -1.
         21   -1    0    0  501  502 -0.00000000000E+00 -0.00000000000E+00 -0.23865723162E+02  0.23865723162E+02  0.00000000000E+00 0. -1.
      99926    2    1    2    0    0  0.00000000000E+00  0.00000000000E+00  0.18050965716E+04  0.18528280179E+04  0.41784929245E+03 0.  0.
      99925    2    3    3    0    0 -0.25091003896E+02  0.45482759154E+02  0.14071911840E+04  0.14325014241E+04  0.26301152444E+03 0.  0.
         25    1    3    3    0    0  0.25091003896E+02 -0.45482759154E+02  0.39790538757E+03  0.42032659375E+03  0.12509000000E+03 0.  0.
         25    1    4    4    0    0 -0.31343782979E+01  0.60223130764E+02  0.66010293806E+03  0.67455173764E+03  0.12509000000E+03 0.  0.
         25    1    4    4    0    0 -0.21956625598E+02 -0.14740371610E+02  0.74708824594E+03  0.75794968651E+03  0.12509000000E+03 0.  0.
<mgrwt>
<rscale>  2 0.41784929E+03</rscale>
<asrwt>0</asrwt>
<pdfrwt beam="1">  1       21 0.26896495E+00 0.41784929E+03</pdfrwt>
<pdfrwt beam="2">  1       21 0.35096664E-02 0.41784929E+03</pdfrwt>
<totfact> 0.21942486E+04</totfact>
</mgrwt>
</event>
<event>
 7    0  0.4691878E-002  0.4556823E+03  0.7546771E-02  0.1026041E+00
         21   -1    0    0  502  501  0.00000000000E+00  0.00000000000E+00  0.10001152342E+03  0.10001152342E+03  0.00000000000E+00 0. -1.
         21   -1    0    0  501  502 -0.00000000000E+00 -0.00000000000E+00 -0.51905619606E+03  0.51905619606E+03  0.00000000000E+00 0. -1.
      99926    2    1    2    0    0  0.00000000000E+00 -0.35527136788E-14 -0.41904467264E+03  0.61906771947E+03  0.45568234948E+03 0.  0.
      99925    2    3    3    0    0  0.34774351758E+02  0.19502791987E+02 -0.40831925712E+03  0.48734013286E+03  0.26303264993E+03 0.  0.
         25    1    3    3    0    0 -0.34774351758E+02 -0.19502791987E+02 -0.10725415521E+02  0.13172758661E+03  0.12509000000E+03 0.  0.
         25    1    4    4    0    0  0.23458395138E+01 -0.19858391391E+02 -0.24128235573E+03  0.27251521418E+03  0.12509000000E+03 0.  0.
         25    1    4    4    0    0  0.32428512244E+02  0.39361183378E+02 -0.16703690139E+03  0.21482491868E+03  0.12509000000E+03 0.  0.
<mgrwt>
<rscale>  2 0.45568235E+03</rscale>
<asrwt>0</asrwt>
<pdfrwt beam="1">  1       21 0.14707577E-01 0.45568235E+03</pdfrwt>
<pdfrwt beam="2">  1       21 0.76331792E-01 0.45568235E+03</pdfrwt>
<totfact> 0.57210792E+04</totfact>
</mgrwt>
</event>
<event>
 7    0  0.4691878E-002  0.4532442E+03  0.7546771E-02  0.1026759E+00
         21   -1    0    0  502  501  0.00000000000E+00  0.00000000000E+00  0.12259270689E+03  0.12259270689E+03  0.00000000000E+00 0. -1.
         21   -1    0    0  501  502 -0.00000000000E+00 -0.00000000000E+00 -0.41892848171E+03  0.41892848171E+03  0.00000000000E+00 0. -1.
      99926    2    1    2    0    0  0.14210854715E-13  0.26645352591E-14 -0.29633577482E+03  0.54152118860E+03  0.45324420158E+03 0.  0.
      99925    2    3    3    0    0  0.95605045292E+02 -0.60504764863E+01 -0.11860934903E+03  0.30401092887E+03  0.26301622430E+03 0.  0.
         25    1    4    4    0    0  0.82722795180E+02  0.20461121095E+02 -0.61430457054E+02  0.16334909695E+03  0.12509000000E+03 0.  0.
         25    1    3    3    0    0 -0.95605045292E+02  0.60504764863E+01 -0.17772642579E+03  0.23751025973E+03  0.12509000000E+03 0.  0.
         25    1    4    4    0    0  0.12882250112E+02 -0.26511597581E+02 -0.57178891973E+02  0.14066183193E+03  0.12509000000E+03 0.  0.
<mgrwt>
<rscale>  2 0.45324420E+03</rscale>
<asrwt>0</asrwt>
<pdfrwt beam="1">  1       21 0.18028339E-01 0.45324420E+03</pdfrwt>
<pdfrwt beam="2">  1       21 0.61607129E-01 0.45324420E+03</pdfrwt>
<totfact> 0.63305332E+04</totfact>
</mgrwt>
</event>
<event>
 7    0  0.4691878E-002  0.4561860E+03  0.7546771E-02  0.1025893E+00
         21   -1    0    0  502  501  0.00000000000E+00  0.00000000000E+00  0.79721580028E+03  0.79721580028E+03  0.00000000000E+00 0.  1.
         21   -1    0    0  501  502 -0.00000000000E+00 -0.00000000000E+00 -0.65260132118E+02  0.65260132118E+02  0.00000000000E+00 0.  1.
      99926    2    1    2    0    0  0.00000000000E+00 -0.35527136788E-14  0.73195566816E+03  0.86247593240E+03  0.45618596407E+03 0.  0.
      99925    2    3    3    0    0  0.10828016863E+03 -0.29831268754E+02  0.49883903139E+03  0.57506442610E+03  0.26314295622E+03 0.  0.
         25    1    3    3    0    0 -0.10828016863E+03  0.29831268754E+02  0.23311663677E+03  0.28741150630E+03  0.12509000000E+03 0.  0.
         25    1    4    4    0    0  0.91968497953E+02 -0.36439167166E+02  0.26502959941E+03  0.30931248630E+03  0.12509000000E+03 0.  0.
         25    1    4    4    0    0  0.16311670681E+02  0.66078984124E+01  0.23380943198E+03  0.26575193980E+03  0.12509000000E+03 0.  0.
<mgrwt>
<rscale>  2 0.45618596E+03</rscale>
<asrwt>0</asrwt>
<pdfrwt beam="1">  1       21 0.11723761E+00 0.45618596E+03</pdfrwt>
<pdfrwt beam="2">  1       21 0.95970788E-02 0.45618596E+03</pdfrwt>
<totfact> 0.44471179E+04</totfact>
</mgrwt>
</event>
<event>
 7    0  0.4691878E-002  0.4322811E+03  0.7546771E-02  0.1033142E+00
         21   -1    0    0  502  501  0.00000000000E+00  0.00000000000E+00  0.18866272607E+03  0.18866272607E+03  0.00000000000E+00 0.  1.
         21   -1    0    0  501  502 -0.00000000000E+00 -0.00000000000E+00 -0.24762040657E+03  0.24762040657E+03  0.00000000000E+00 0.  1.
      99926    2    1    2    0    0  0.00000000000E+00  0.00000000000E+00 -0.58957680499E+02  0.43628313264E+03  0.43228111657E+03 0.  0.
      99925    2    3    3    0    0 -0.57390926598E+02 -0.14604811573E+02 -0.10655017310E+03  0.28992886237E+03  0.26305662293E+03 0.  0.
         25    1    4    4    0    0 -0.41571110818E+02 -0.37155529883E+02 -0.28349468915E+02  0.13985668072E+03  0.12509000000E+03 0.  0.
         25    1    3    3    0    0  0.57390926598E+02  0.14604811573E+02  0.47592492599E+02  0.14635427028E+03  0.12509000000E+03 0.  0.
         25    1    4    4    0    0 -0.15819815780E+02  0.22550718310E+02 -0.78200704184E+02  0.15007218164E+03  0.12509000000E+03 0.  0.
<mgrwt>
<rscale>  2 0.43228112E+03</rscale>
<asrwt>0</asrwt>
<pdfrwt beam="1">  1       21 0.27744518E-01 0.43228112E+03</pdfrwt>
<pdfrwt beam="2">  1       21 0.36414766E-01 0.43228112E+03</pdfrwt>
<totfact> 0.84196005E+04</totfact>
</mgrwt>
</event>
<event>
 7    0  0.4691878E-002  0.4536141E+03  0.7546771E-02  0.1026650E+00
         21   -1    0    0  502  501  0.00000000000E+00  0.00000000000E+00  0.42990540551E+03  0.42990540551E+03  0.00000000000E+00 0.  1.
         21   -1    0    0  501  502 -0.00000000000E+00 -0.00000000000E+00 -0.11965754834E+03  0.11965754834E+03  0.00000000000E+00 0.  1.
      99926    2    1    2    0    0 -0.71054273576E-14 -0.17763568394E-14  0.31024785717E+03  0.54956295385E+03  0.45361405111E+03 0.  0.
      99925    2    3    3    0    0 -0.37184869246E+02 -0.12270526783E+02  0.32236827726E+03  0.41792825853E+03  0.26307687615E+03 0.  0.
         25    1    3    3    0    0  0.37184869246E+02  0.12270526783E+02 -0.12120420094E+02  0.13163469532E+03  0.12509000000E+03 0.  0.
         25    1    4    4    0    0 -0.64201111153E+01  0.27014860557E+02  0.12513496518E+03  0.17910133480E+03  0.12509000000E+03 0.  0.
         25    1    4    4    0    0 -0.30764758130E+02 -0.39285387340E+02  0.19723331209E+03  0.23882692373E+03  0.12509000000E+03 0.  0.
<mgrwt>
<rscale>  2 0.45361405E+03</rscale>
<asrwt>0</asrwt>
<pdfrwt beam="1">  1       21 0.63221382E-01 0.45361405E+03</pdfrwt>
<pdfrwt beam="2">  1       21 0.17596698E-01 0.45361405E+03</pdfrwt>
<totfact> 0.62578797E+04</totfact>
</mgrwt>
</event>
<event>
 7    0  0.4691878E-002  0.4598337E+03  0.7546771E-02  0.1024829E+00
         21   -1    0    0  502  501  0.00000000000E+00  0.00000000000E+00  0.59158299301E+02  0.59158299301E+02  0.00000000000E+00 0.  1.
         21   -1    0    0  501  502 -0.00000000000E+00 -0.00000000000E+00 -0.89356455074E+03  0.89356455074E+03  0.00000000000E+00 0.  1.
      99926    2    1    2    0    0  0.14210854715E-13 -0.35527136788E-14 -0.83440625144E+03  0.95272285004E+03  0.45983370532E+03 0.  0.
      99925    2    3    3    0    0  0.71765740349E+02 -0.22942678911E+02 -0.33544004099E+03  0.43282721121E+03  0.26294996798E+03 0.  0.
         25    1    4    4    0    0  0.14306491648E+02  0.15301415088E+02 -0.19405045499E+03  0.23182298460E+03  0.12509000000E+03 0.  0.
         25    1    4    4    0    0  0.57459248700E+02 -0.38244093999E+02 -0.14138958601E+03  0.20100422662E+03  0.12509000000E+03 0.  0.
         25    1    3    3    0    0 -0.71765740349E+02  0.22942678911E+02 -0.49896621045E+03  0.51989563883E+03  0.12509000000E+03 0.  0.
<mgrwt>
<rscale>  2 0.45983371E+03</rscale>
<asrwt>0</asrwt>
<pdfrwt beam="1">  1       21 0.86997499E-02 0.45983371E+03</pdfrwt>
<pdfrwt beam="2">  1       21 0.13140655E+00 0.45983371E+03</pdfrwt>
<totfact> 0.39515863E+04</totfact>
</mgrwt>
</event>
<event>
 7    0  0.4691878E-002  0.4558749E+03  0.7546771E-02  0.1025984E+00
         21   -1    0    0  502  501  0.00000000000E+00  0.00000000000E+00  0.37533017863E+03  0.37533017863E+03  0.00000000000E+00 0.  1.
         21   -1    0    0  501  502 -0.00000000000E+00 -0.00000000000E+00 -0.13842608666E+03  0.13842608666E+03  0.00000000000E+00 0.  1.
      99926    2    1    2    0    0  0.88817841970E-15  0.00000000000E+00  0.23690409197E+03  0.51375626529E+03  0.45587492948E+03 0.  0.
      99925    2    3    3    0    0 -0.51728362979E+01  0.98713202902E+02  0.21282683795E+03  0.35251645344E+03  0.26306184127E+03 0.  0.
         25    1    4    4    0    0  0.10749435358E+02  0.44458551585E+02  0.57077090065E+02  0.14490484975E+03  0.12509000000E+03 0.  0.
         25    1    3    3    0    0  0.51728362979E+01 -0.98713202902E+02  0.24077254021E+02  0.16123981184E+03  0.12509000000E+03 0.  0.
         25    1    4    4    0    0 -0.15922271656E+02  0.54254651317E+02  0.15574974788E+03  0.20761160370E+03  0.12509000000E+03 0.  0.
<mgrwt>
<rscale>  2 0.45587493E+03</rscale>
<asrwt>0</asrwt>
<pdfrwt beam="1">  1       21 0.55195615E-01 0.45587493E+03</pdfrwt>
<pdfrwt beam="2">  1       21 0.20356777E-01 0.45587493E+03</pdfrwt>
<totfact> 0.63870046E+04</totfact>
</mgrwt>
</event>
<event>
 7    0  0.4691878E-002  0.4479068E+03  0.7546771E-02  0.1028348E+00
         21   -1    0    0  502  501  0.00000000000E+00  0.00000000000E+00  0.15369940221E+03  0.15369940221E+03  0.00000000000E+00 0.  1.
         21   -1    0    0  501  502 -0.00000000000E+00 -0.00000000000E+00 -0.32631954860E+03  0.32631954860E+03  0.00000000000E+00 0.  1.
      99926    2    1    2    0    0  0.00000000000E+00 -0.14210854715E-13 -0.17262014639E+03  0.48001895081E+03  0.44790677400E+03 0.  0.
      99925    2    3    3    0    0 -0.30744233969E+02  0.95957841404E+02 -0.72863702189E+02  0.29093703336E+03  0.26302494755E+03 0.  0.
         25    1    3    3    0    0  0.30744233969E+02 -0.95957841404E+02 -0.99756444199E+02  0.18908191745E+03  0.12509000000E+03 0.  0.
         25    1    4    4    0    0 -0.11134114397E+02  0.90711701378E+02 -0.38394036003E+02  0.15960636382E+03  0.12509000000E+03 0.  0.
         25    1    4    4    0    0 -0.19610119572E+02  0.52461400263E+01 -0.34469666186E+02  0.13133066954E+03  0.12509000000E+03 0.  0.
<mgrwt>
<rscale>  2 0.44790677E+03</rscale>
<asrwt>0</asrwt>
<pdfrwt beam="1">  1       21 0.22602854E-01 0.44790677E+03</pdfrwt>
<pdfrwt beam="2">  1       21 0.47988168E-01 0.44790677E+03</pdfrwt>
<totfact> 0.70590547E+04</totfact>
</mgrwt>
</event>
<event>
 7    0  0.4691878E-002  0.4515699E+03  0.7546771E-02  0.1027255E+00
         21   -1    0    0  502  501  0.00000000000E+00  0.00000000000E+00  0.73168469073E+02  0.73168469073E+02  0.00000000000E+00 0. -1.
         21   -1    0    0  501  502 -0.00000000000E+00 -0.00000000000E+00 -0.69673233159E+03  0.69673233159E+03  0.00000000000E+00 0. -1.
      99926    2    1    2    0    0  0.00000000000E+00  0.14210854715E-13 -0.62356386251E+03  0.76990080066E+03  0.45156987524E+03 0.  0.
      99925    2    3    3    0    0 -0.58551057662E+02  0.66942125311E+02 -0.28347706803E+03  0.39678418300E+03  0.26299993400E+03 0.  0.
         25    1    4    4    0    0 -0.24975739024E+02 -0.31946360693E+01 -0.10404001069E+03  0.16463846806E+03  0.12509000000E+03 0.  0.
         25    1    4    4    0    0 -0.33575318638E+02  0.70136761380E+02 -0.17943705734E+03  0.23214571494E+03  0.12509000000E+03 0.  0.
         25    1    3    3    0    0  0.58551057662E+02 -0.66942125311E+02 -0.34008679448E+03  0.37311661766E+03  0.12509000000E+03 0.  0.
<mgrwt>
<rscale>  2 0.45156988E+03</rscale>
<asrwt>0</asrwt>
<pdfrwt beam="1">  1       21 0.10760069E-01 0.45156988E+03</pdfrwt>
<pdfrwt beam="2">  1       21 0.10246064E+00 0.45156988E+03</pdfrwt>
<totfact> 0.50603996E+04</totfact>
</mgrwt>
</event>
<event>
 7    0  0.4691878E-002  0.4559787E+03  0.7546771E-02  0.1025954E+00
         21   -1    0    0  502  501  0.00000000000E+00  0.00000000000E+00  0.23434785532E+03  0.23434785532E+03  0.00000000000E+00 0.  1.
         21   -1    0    0  501  502 -0.00000000000E+00 -0.00000000000E+00 -0.22180337958E+03  0.22180337958E+03  0.00000000000E+00 0.  1.
      99926    2    1    2    0    0  0.00000000000E+00  0.71054273576E-14  0.12544475737E+02  0.45615123489E+03  0.45597871137E+03 0.  0.
      99925    2    3    3    0    0  0.92009447268E+02  0.50853970567E+02 -0.36471816114E+02  0.28555824068E+03  0.26298564740E+03 0.  0.
         25    1    4    4    0    0  0.28273664702E+02  0.55304062645E+02 -0.39237531676E+02  0.14506905753E+03  0.12509000000E+03 0.  0.
         25    1    4    4    0    0  0.63735782567E+02 -0.44500920772E+01  0.27657155621E+01  0.14048918315E+03  0.12509000000E+03 0.  0.
         25    1    3    3    0    0 -0.92009447268E+02 -0.50853970567E+02  0.49016291851E+02  0.17059299422E+03  0.12509000000E+03 0.  0.
<mgrwt>
<rscale>  2 0.45597871E+03</rscale>
<asrwt>0</asrwt>
<pdfrwt beam="1">  1       21 0.34462920E-01 0.45597871E+03</pdfrwt>
<pdfrwt beam="2">  1       21 0.32618144E-01 0.45597871E+03</pdfrwt>
<totfact> 0.67929526E+04</totfact>
</mgrwt>
</event>
<event>
 7    0  0.4691878E-002  0.4607611E+03  0.7546771E-02  0.1024561E+00
         21   -1    0    0  502  501  0.00000000000E+00  0.00000000000E+00  0.37012732186E+03  0.37012732186E+03  0.00000000000E+00 0. -1.
         21   -1    0    0  501  502 -0.00000000000E+00 -0.00000000000E+00 -0.14339711091E+03  0.14339711091E+03  0.00000000000E+00 0. -1.
      99926    2    1    2    0    0  0.00000000000E+00 -0.35527136788E-14  0.22673021095E+03  0.51352443277E+03  0.46076106008E+03 0.  0.
      99925    2    3    3    0    0  0.10380566525E+03 -0.26809900217E+02  0.85615073945E+02  0.29660191923E+03  0.26296077790E+03 0.  0.
         25    1    4    4    0    0  0.37055229635E+02 -0.44193677386E+02  0.64871844639E+02  0.15225647931E+03  0.12509000000E+03 0.  0.
         25    1    3    3    0    0 -0.10380566525E+03  0.26809900217E+02  0.14111513701E+03  0.21692251354E+03  0.12509000000E+03 0.  0.
         25    1    4    4    0    0  0.66750435615E+02  0.17383777168E+02  0.20743229305E+02  0.14434543992E+03  0.12509000000E+03 0.  0.
<mgrwt>
<rscale>  2 0.46076106E+03</rscale>
<asrwt>0</asrwt>
<pdfrwt beam="1">  1       21 0.54430488E-01 0.46076106E+03</pdfrwt>
<pdfrwt beam="2">  1       21 0.21087810E-01 0.46076106E+03</pdfrwt>
<totfact> 0.61471598E+04</totfact>
</mgrwt>
</event>
<event>
 7    0  0.4691878E-002  0.4568883E+03  0.7546771E-02  0.1025688E+00
         21   -1    0    0  502  501  0.00000000000E+00  0.00000000000E+00  0.10145293169E+03  0.10145293169E+03  0.00000000000E+00 0. -1.
         21   -1    0    0  501  502 -0.00000000000E+00 -0.00000000000E+00 -0.51439344510E+03  0.51439344510E+03  0.00000000000E+00 0. -1.
      99926    2    1    2    0    0  0.00000000000E+00 -0.17763568394E-14 -0.41294051341E+03  0.61584637680E+03  0.45688827102E+03 0.  0.
      99925    2    3    3    0    0  0.11310266641E+03  0.95694490224E+01 -0.22865190437E+03  0.36585920308E+03  0.26208295557E+03 0.  0.
         25    1    3    3    0    0 -0.11310266641E+03 -0.95694490224E+01 -0.18428860904E+03  0.24998717372E+03  0.12509000000E+03 0.  0.
         25    1    4    4    0    0  0.73306631555E+02  0.38486244485E+02 -0.10393283911E+03  0.18249546950E+03  0.12509000000E+03 0.  0.
         25    1    4    4    0    0  0.39796034850E+02 -0.28916795462E+02 -0.12471906526E+03  0.18336373357E+03  0.12509000000E+03 0.  0.
<mgrwt>
<rscale>  2 0.45688827E+03</rscale>
<asrwt>0</asrwt>
<pdfrwt beam="1">  1       21 0.14919549E-01 0.45688827E+03</pdfrwt>
<pdfrwt beam="2">  1       21 0.75646094E-01 0.45688827E+03</pdfrwt>
<totfact> 0.56860624E+04</totfact>
</mgrwt>
</event>
<event>
 7    0  0.4691878E-002  0.4560975E+03  0.7546771E-02  0.1025919E+00
         21   -1    0    0  502  501  0.00000000000E+00  0.00000000000E+00  0.25462310367E+03  0.25462310367E+03  0.00000000000E+00 0.  1.
         21   -1    0    0  501  502 -0.00000000000E+00 -0.00000000000E+00 -0.20424791148E+03  0.20424791148E+03  0.00000000000E+00 0.  1.
      99926    2    1    2    0    0 -0.35527136788E-14  0.00000000000E+00  0.50375192190E+02  0.45887101516E+03  0.45609752089E+03 0.  0.
      99925    2    3    3    0    0  0.23165064987E+02  0.95896058065E+02 -0.26113106584E+02  0.28214908064E+03  0.26304664070E+03 0.  0.
         25    1    4    4    0    0  0.23276121489E+02  0.74107845230E+01 -0.57859597155E+01  0.12758402325E+03  0.12509000000E+03 0.  0.
         25    1    4    4    0    0 -0.11105650149E+00  0.88485273542E+02 -0.20327146868E+02  0.15456505739E+03  0.12509000000E+03 0.  0.
         25    1    3    3    0    0 -0.23165064987E+02 -0.95896058065E+02  0.76488298774E+02  0.17672193451E+03  0.12509000000E+03 0.  0.
<mgrwt>
<rscale>  2 0.45609752E+03</rscale>
<asrwt>0</asrwt>
<pdfrwt beam="1">  1       21 0.37444574E-01 0.45609752E+03</pdfrwt>
<pdfrwt beam="2">  1       21 0.30036457E-01 0.45609752E+03</pdfrwt>
<totfact> 0.67668587E+04</totfact>
</mgrwt>
</event>
<event>
 7    0  0.4691878E-002  0.4495840E+03  0.7546771E-02  0.1027846E+00
         21   -1    0    0  502  501  0.00000000000E+00  0.00000000000E+00  0.41302479955E+03  0.41302479955E+03  0.00000000000E+00 0.  1.
         21   -1    0    0  501  502 -0.00000000000E+00 -0.00000000000E+00 -0.12234480283E+03  0.12234480283E+03  0.00000000000E+00 0.  1.
      99926    2    1    2    0    0 -0.35527136788E-14  0.00000000000E+00  0.29067999672E+03  0.53536960238E+03  0.44958397510E+03 0.  0.
      99925    2    3    3    0    0  0.16888876096E+02 -0.10288446942E+03  0.14920931035E+03  0.31965703579E+03  0.26276749047E+03 0.  0.
         25    1    4    4    0    0  0.44837149993E+02 -0.58265487594E+02  0.58659677891E+02  0.15650464202E+03  0.12509000000E+03 0.  0.
         25    1    3    3    0    0 -0.16888876096E+02  0.10288446942E+03  0.14147068637E+03  0.21571256660E+03  0.12509000000E+03 0.  0.
         25    1    4    4    0    0 -0.27948273897E+02 -0.44618981830E+02  0.90549632461E+02  0.16315239377E+03  0.12509000000E+03 0.  0.
<mgrwt>
<rscale>  2 0.44958398E+03</rscale>
<asrwt>0</asrwt>
<pdfrwt beam="1">  1       21 0.60738941E-01 0.44958398E+03</pdfrwt>
<pdfrwt beam="2">  1       21 0.17991883E-01 0.44958398E+03</pdfrwt>
<totfact> 0.65611407E+04</totfact>
</mgrwt>
</event>
<event>
 7    0  0.4691878E-002  0.4556702E+03  0.7546771E-02  0.1026045E+00
         21   -1    0    0  502  501  0.00000000000E+00  0.00000000000E+00  0.39334553074E+03  0.39334553074E+03  0.00000000000E+00 0.  1.
         21   -1    0    0  501  502 -0.00000000000E+00 -0.00000000000E+00 -0.13196750508E+03  0.13196750508E+03  0.00000000000E+00 0.  1.
      99926    2    1    2    0    0  0.00000000000E+00 -0.14210854715E-13  0.26137802566E+03  0.52531303582E+03  0.45567018040E+03 0.  0.
      99925    2    3    3    0    0  0.52023679308E+02  0.78993420895E+02  0.91976747148E+02  0.29446519630E+03  0.26325578068E+03 0.  0.
         25    1    3    3    0    0 -0.52023679308E+02 -0.78993420895E+02  0.16940127851E+03  0.23084783953E+03  0.12509000000E+03 0.  0.
         25    1    4    4    0    0  0.51447269358E+02  0.13773527973E+02  0.24738737874E+02  0.13818843964E+03  0.12509000000E+03 0.  0.
         25    1    4    4    0    0  0.57640994974E+00  0.65219892921E+02  0.67238009275E+02  0.15627675666E+03  0.12509000000E+03 0.  0.
<mgrwt>
<rscale>  2 0.45567018E+03</rscale>
<asrwt>0</asrwt>
<pdfrwt beam="1">  1       21 0.57844931E-01 0.45567018E+03</pdfrwt>
<pdfrwt beam="2">  1       21 0.19406986E-01 0.45567018E+03</pdfrwt>
<totfact> 0.63188541E+04</totfact>
</mgrwt>
</event>
<event>
 7    0  0.4691878E-002  0.4576962E+03  0.7546771E-02  0.1025452E+00
         21   -1    0    0  502  501  0.00000000000E+00  0.00000000000E+00  0.11039404178E+04  0.11039404178E+04  0.00000000000E+00 0.  1.
         21   -1    0    0  501  502 -0.00000000000E+00 -0.00000000000E+00 -0.47440468321E+02  0.47440468321E+02  0.00000000000E+00 0.  1.
      99926    2    1    2    0    0 -0.71054273576E-14  0.00000000000E+00  0.10564999495E+04  0.11513808861E+04  0.45769618927E+03 0.  0.
      99925    2    3    3    0    0  0.62318876144E+02  0.15880186095E+02  0.42140664502E+03  0.50089888322E+03  0.26302149742E+03 0.  0.
         25    1    4    4    0    0  0.64512194835E+02  0.21612110755E+02  0.26181523406E+03  0.29803293694E+03  0.12509000000E+03 0.  0.
         25    1    3    3    0    0 -0.62318876144E+02 -0.15880186095E+02  0.63509330444E+03  0.65048200288E+03  0.12509000000E+03 0.  0.
         25    1    4    4    0    0 -0.21933186907E+01 -0.57319246606E+01  0.15959141096E+03  0.20286594628E+03  0.12509000000E+03 0.  0.
<mgrwt>
<rscale>  2 0.45769619E+03</rscale>
<asrwt>0</asrwt>
<pdfrwt beam="1">  1       21 0.16234416E+00 0.45769619E+03</pdfrwt>
<pdfrwt beam="2">  1       21 0.69765402E-02 0.45769619E+03</pdfrwt>
<totfact> 0.33036621E+04</totfact>
</mgrwt>
</event>
<event>
 7    0  0.4691878E-002  0.4570731E+03  0.7546771E-02  0.1025634E+00
         21   -1    0    0  502  501  0.00000000000E+00  0.00000000000E+00  0.15453035577E+03  0.15453035577E+03  0.00000000000E+00 0. -1.
         21   -1    0    0  501  502 -0.00000000000E+00 -0.00000000000E+00 -0.33798509911E+03  0.33798509911E+03  0.00000000000E+00 0. -1.
      99926    2    1    2    0    0  0.00000000000E+00  0.00000000000E+00 -0.18345474334E+03  0.49251545488E+03  0.45707311279E+03 0.  0.
      99925    2    3    3    0    0  0.84804094946E+02 -0.57014215422E+02 -0.17215155160E+03  0.33059687804E+03  0.26308892750E+03 0.  0.
         25    1    3    3    0    0 -0.84804094946E+02  0.57014215422E+02 -0.11303191738E+02  0.16191857683E+03  0.12509000000E+03 0.  0.
         25    1    4    4    0    0  0.37118589200E+02  0.11281163552E+02 -0.66441892987E+02  0.14685737148E+03  0.12509000000E+03 0.  0.
         25    1    4    4    0    0  0.47685505746E+02 -0.68295378975E+02 -0.10570965861E+03  0.18373950656E+03  0.12509000000E+03 0.  0.
<mgrwt>
<rscale>  2 0.45707311E+03</rscale>
<asrwt>0</asrwt>
<pdfrwt beam="1">  1       21 0.22725053E-01 0.45707311E+03</pdfrwt>
<pdfrwt beam="2">  1       21 0.49703690E-01 0.45707311E+03</pdfrwt>
<totfact> 0.64727880E+04</totfact>
</mgrwt>
</event>
<event>
 7    0  0.4691878E-002  0.4430703E+03  0.7546771E-02  0.1029809E+00
         21   -1    0    0  502  501  0.00000000000E+00  0.00000000000E+00  0.28251975798E+03  0.28251975798E+03  0.00000000000E+00 0.  1.
         21   -1    0    0  501  502 -0.00000000000E+00 -0.00000000000E+00 -0.17371465749E+03  0.17371465749E+03  0.00000000000E+00 0.  1.
      99926    2    1    2    0    0  0.00000000000E+00 -0.71054273576E-14  0.10880510048E+03  0.45623441547E+03  0.44307030139E+03 0.  0.
      99925    2    3    3    0    0 -0.67322466250E+02  0.61345155636E+02  0.11558797502E+03  0.30135040058E+03  0.26297517255E+03 0.  0.
         25    1    3    3    0    0  0.67322466250E+02 -0.61345155636E+02 -0.67828745365E+01  0.15488401489E+03  0.12509000000E+03 0.  0.
         25    1    4    4    0    0 -0.64301779016E+02  0.41769501572E+01  0.60349072610E+02  0.15310677438E+03  0.12509000000E+03 0.  0.
         25    1    4    4    0    0 -0.30206872340E+01  0.57168205478E+02  0.55238902411E+02  0.14824362620E+03  0.12509000000E+03 0.  0.
<mgrwt>
<rscale>  2 0.44307030E+03</rscale>
<asrwt>0</asrwt>
<pdfrwt beam="1">  1       21 0.41547023E-01 0.44307030E+03</pdfrwt>
<pdfrwt beam="2">  1       21 0.25546273E-01 0.44307030E+03</pdfrwt>
<totfact> 0.75355649E+04</totfact>
</mgrwt>
</event>
<event>
 7    0  0.4691878E-002  0.4578094E+03  0.7546771E-02  0.1025418E+00
         21   -1    0    0  502  501  0.00000000000E+00  0.00000000000E+00  0.25458331351E+03  0.25458331351E+03  0.00000000000E+00 0.  1.
         21   -1    0    0  501  502 -0.00000000000E+00 -0.00000000000E+00 -0.20581613958E+03  0.20581613958E+03  0.00000000000E+00 0.  1.
      99926    2    1    2    0    0  0.28865798640E-14  0.00000000000E+00  0.48767173929E+02  0.46039945309E+03  0.45780936988E+03 0.  0.
      99925    2    3    3    0    0 -0.13340785606E+01 -0.45318170135E+02  0.13774239881E+03  0.30033816778E+03  0.26301051365E+03 0.  0.
         25    1    3    3    0    0  0.13340785606E+01  0.45318170135E+02 -0.88975224882E+02  0.16006128530E+03  0.12509000000E+03 0.  0.
         25    1    4    4    0    0  0.38726281354E+02 -0.14195926476E+02  0.73692177344E+02  0.15092810970E+03  0.12509000000E+03 0.  0.
         25    1    4    4    0    0 -0.40060359914E+02 -0.31122243659E+02  0.64050221467E+02  0.14941005808E+03  0.12509000000E+03 0.  0.
<mgrwt>
<rscale>  2 0.45780937E+03</rscale>
<asrwt>0</asrwt>
<pdfrwt beam="1">  1       21 0.37438723E-01 0.45780937E+03</pdfrwt>
<pdfrwt beam="2">  1       21 0.30267079E-01 0.45780937E+03</pdfrwt>
<totfact> 0.66645585E+04</totfact>
</mgrwt>
</event>
<event>
 7    0  0.4691878E-002  0.4560903E+03  0.7546771E-02  0.1025921E+00
         21   -1    0    0  502  501  0.00000000000E+00  0.00000000000E+00  0.37874576688E+03  0.37874576688E+03  0.00000000000E+00 0. -1.
         21   -1    0    0  501  502 -0.00000000000E+00 -0.00000000000E+00 -0.13730740895E+03  0.13730740895E+03  0.00000000000E+00 0. -1.
      99926    2    1    2    0    0  0.00000000000E+00  0.00000000000E+00  0.24143835792E+03  0.51605317583E+03  0.45609034150E+03 0.  0.
      99925    2    3    3    0    0  0.56980208489E+02 -0.78617922079E+02  0.21986138441E+03  0.35623892203E+03  0.26294413739E+03 0.  0.
         25    1    4    4    0    0  0.56925245354E+02 -0.22984224348E+02  0.14105040423E+03  0.19827123533E+03  0.12509000000E+03 0.  0.
         25    1    4    4    0    0  0.54963135422E-01 -0.55633697730E+02  0.78810980178E+02  0.15796768670E+03  0.12509000000E+03 0.  0.
         25    1    3    3    0    0 -0.56980208489E+02  0.78617922079E+02  0.21576973515E+02  0.15981425380E+03  0.12509000000E+03 0.  0.
<mgrwt>
<rscale>  2 0.45609034E+03</rscale>
<asrwt>0</asrwt>
<pdfrwt beam="1">  1       21 0.55697907E-01 0.45609034E+03</pdfrwt>
<pdfrwt beam="2">  1       21 0.20192266E-01 0.45609034E+03</pdfrwt>
<totfact> 0.63604886E+04</totfact>
</mgrwt>
</event>
<event>
 7    0  0.4691878E-002  0.4515849E+03  0.7546771E-02  0.1027250E+00
         21   -1    0    0  502  501  0.00000000000E+00  0.00000000000E+00  0.11848633533E+03  0.11848633533E+03  0.00000000000E+00 0.  1.
         21   -1    0    0  501  502 -0.00000000000E+00 -0.00000000000E+00 -0.43027948359E+03  0.43027948359E+03  0.00000000000E+00 0.  1.
      99926    2    1    2    0    0 -0.14210854715E-13 -0.35527136788E-14 -0.31179314826E+03  0.54876581893E+03  0.45158493854E+03 0.  0.
      99925    2    3    3    0    0  0.10379327691E+03  0.23322844148E+02 -0.16281279235E+03  0.32704605449E+03  0.26293367418E+03 0.  0.
         25    1    3    3    0    0 -0.10379327691E+03 -0.23322844148E+02 -0.14898035591E+03  0.22171976443E+03  0.12509000000E+03 0.  0.
         25    1    4    4    0    0  0.45516227205E+02  0.33717539000E+02 -0.11950714380E+03  0.18203863572E+03  0.12509000000E+03 0.  0.
         25    1    4    4    0    0  0.58277049708E+02 -0.10394694852E+02 -0.43305648547E+02  0.14500741878E+03  0.12509000000E+03 0.  0.
<mgrwt>
<rscale>  2 0.45158494E+03</rscale>
<asrwt>0</asrwt>
<pdfrwt beam="1">  1       21 0.17424461E-01 0.45158494E+03</pdfrwt>
<pdfrwt beam="2">  1       21 0.63276395E-01 0.45158494E+03</pdfrwt>
<totfact> 0.63650645E+04</totfact>
</mgrwt>
</event>
<event>
 7    0  0.4691878E-002  0.4127941E+03  0.7546771E-02  0.1039437E+00
         21   -1    0    0  502  501  0.00000000000E+00  0.00000000000E+00  0.13761983115E+03  0.13761983115E+03  0.00000000000E+00 0.  1.
         21   -1    0    0  501  502 -0.00000000000E+00 -0.00000000000E+00 -0.30954651780E+03  0.30954651780E+03  0.00000000000E+00 0.  1.
      99926    2    1    2    0    0  0.00000000000E+00 -0.26645352591E-14 -0.17192668666E+03  0.44716634895E+03  0.41279408674E+03 0.  0.
      99925    2    3    3    0    0 -0.13685054962E+02 -0.38764846083E+01 -0.18310310215E+03  0.32077517748E+03  0.26299745362E+03 0.  0.
         25    1    4    4    0    0 -0.80788458638E+01 -0.27667834032E+02 -0.53712208939E+02  0.13915202578E+03  0.12509000000E+03 0.  0.
         25    1    3    3    0    0  0.13685054962E+02  0.38764846083E+01  0.11176415489E+02  0.12639117147E+03  0.12509000000E+03 0.  0.
         25    1    4    4    0    0 -0.56062090984E+01  0.23791349424E+02 -0.12939089321E+03  0.18162315170E+03  0.12509000000E+03 0.  0.
<mgrwt>
<rscale>  2 0.41279409E+03</rscale>
<asrwt>0</asrwt>
<pdfrwt beam="1">  1       21 0.20238211E-01 0.41279409E+03</pdfrwt>
<pdfrwt beam="2">  1       21 0.45521546E-01 0.41279409E+03</pdfrwt>
<totfact> 0.98151672E+04</totfact>
</mgrwt>
</event>
<event>
 7    0  0.4691878E-002  0.4550596E+03  0.7546771E-02  0.1026224E+00
         21   -1    0    0  502  501  0.00000000000E+00  0.00000000000E+00  0.41094013042E+02  0.41094013042E+02  0.00000000000E+00 0.  1.
         21   -1    0    0  501  502 -0.00000000000E+00 -0.00000000000E+00 -0.12597897944E+04  0.12597897944E+04  0.00000000000E+00 0.  1.
      99926    2    1    2    0    0 -0.71054273576E-14  0.14210854715E-13 -0.12186957814E+04  0.13008838075E+04  0.45505963672E+03 0.  0.
      99925    2    3    3    0    0  0.33427965400E+02 -0.86326461272E+02 -0.95285001461E+03  0.99283970901E+03  0.26313086220E+03 0.  0.
         25    1    4    4    0    0  0.14231581949E+02 -0.35984460531E+02 -0.61066379480E+03  0.62454399181E+03  0.12509000000E+03 0.  0.
         25    1    4    4    0    0  0.19196383451E+02 -0.50342000741E+02 -0.34218621981E+03  0.36829571720E+03  0.12509000000E+03 0.  0.
         25    1    3    3    0    0 -0.33427965400E+02  0.86326461272E+02 -0.26584576676E+03  0.30804409845E+03  0.12509000000E+03 0.  0.
<mgrwt>
<rscale>  2 0.45505964E+03</rscale>
<asrwt>0</asrwt>
<pdfrwt beam="1">  1       21 0.60432367E-02 0.45505964E+03</pdfrwt>
<pdfrwt beam="2">  1       21 0.18526322E+00 0.45505964E+03</pdfrwt>
<totfact> 0.29075538E+04</totfact>
</mgrwt>
</event>
<event>
 7    0  0.4691878E-002  0.4384180E+03  0.7546771E-02  0.1031233E+00
         21   -1    0    0  502  501  0.00000000000E+00  0.00000000000E+00  0.47374642625E+03  0.47374642625E+03  0.00000000000E+00 0. -1.
         21   -1    0    0  501  502 -0.00000000000E+00 -0.00000000000E+00 -0.10143104155E+03  0.10143104155E+03  0.00000000000E+00 0. -1.
      99926    2    1    2    0    0  0.00000000000E+00 -0.88817841970E-15  0.37231538470E+03  0.57517746780E+03  0.43841803542E+03 0.  0.
      99925    2    3    3    0    0 -0.96716931273E+02  0.43051149322E+01  0.23442545309E+03  0.36533505038E+03  0.26294810737E+03 0.  0.
         25    1    4    4    0    0 -0.68946010863E+02  0.33110334181E+02  0.14662897705E+03  0.20735817239E+03  0.12509000000E+03 0.  0.
         25    1    3    3    0    0  0.96716931273E+02 -0.43051149322E+01  0.13788993162E+03  0.20984241743E+03  0.12509000000E+03 0.  0.
         25    1    4    4    0    0 -0.27770920410E+02 -0.28805219249E+02  0.87796476031E+02  0.15797687799E+03  0.12509000000E+03 0.  0.
<mgrwt>
<rscale>  2 0.43841804E+03</rscale>
<asrwt>0</asrwt>
<pdfrwt beam="1">  1       21 0.69668591E-01 0.43841804E+03</pdfrwt>
<pdfrwt beam="2">  1       21 0.14916330E-01 0.43841804E+03</pdfrwt>
<totfact> 0.68821356E+04</totfact>
</mgrwt>
</event>
<event>
 7    0  0.4691878E-002  0.4582232E+03  0.7546771E-02  0.1025298E+00
         21   -1    0    0  502  501  0.00000000000E+00  0.00000000000E+00  0.15328723243E+04  0.15328723243E+04  0.00000000000E+00 0.  1.
         21   -1    0    0  501  502 -0.00000000000E+00 -0.00000000000E+00 -0.34244292398E+02  0.34244292398E+02  0.00000000000E+00 0.  1.
      99926    2    1    2    0    0  0.00000000000E+00  0.00000000000E+00  0.14986280319E+04  0.15671166167E+04  0.45822321234E+03 0.  0.
      99925    2    3    3    0    0 -0.65835514021E+02  0.94342979785E+02  0.88441771946E+03  0.92982804097E+03  0.26296496067E+03 0.  0.
         25    1    3    3    0    0  0.65835514021E+02 -0.94342979785E+02  0.61421031245E+03  0.63728857573E+03  0.12509000000E+03 0.  0.
         25    1    4    4    0    0  0.84829091758E+01  0.38208064597E+02  0.40139339391E+03  0.42225108730E+03  0.12509000000E+03 0.  0.
         25    1    4    4    0    0 -0.74318423197E+02  0.56134915188E+02  0.48302432555E+03  0.50757695367E+03  0.12509000000E+03 0.  0.
<mgrwt>
<rscale>  2 0.45822321E+03</rscale>
<asrwt>0</asrwt>
<pdfrwt beam="1">  1       21 0.22542235E+00 0.45822321E+03</pdfrwt>
<pdfrwt beam="2">  1       21 0.50359264E-02 0.45822321E+03</pdfrwt>
<totfact> 0.21634492E+04</totfact>
</mgrwt>
</event>
<event>
 7    0  0.4691878E-002  0.4184605E+03  0.7546771E-02  0.1037569E+00
         21   -1    0    0  502  501  0.00000000000E+00  0.00000000000E+00  0.85797932828E+03  0.85797932828E+03  0.00000000000E+00 0.  1.
         21   -1    0    0  501  502 -0.00000000000E+00 -0.00000000000E+00 -0.51023710274E+02  0.51023710274E+02  0.00000000000E+00 0.  1.
      99926    2    1    2    0    0  0.44408920985E-14  0.00000000000E+00  0.80695561801E+03  0.90900303856E+03  0.41846045771E+03 0.  0.
      99925    2    3    3    0    0 -0.44149524491E+01 -0.13855607133E+02  0.36935178637E+03  0.45363934741E+03  0.26297613155E+03 0.  0.
         25    1    4    4    0    0  0.29394377435E+02  0.93469224906E+01  0.21630702883E+03  0.25176900763E+03  0.12509000000E+03 0.  0.
         25    1    4    4    0    0 -0.33809329884E+02 -0.23202529623E+02  0.15304475754E+03  0.20187033977E+03  0.12509000000E+03 0.  0.
         25    1    3    3    0    0  0.44149524491E+01  0.13855607133E+02  0.43760383164E+03  0.45536369115E+03  0.12509000000E+03 0.  0.
<mgrwt>
<rscale>  2 0.41846046E+03</rscale>
<asrwt>0</asrwt>
<pdfrwt beam="1">  1       21 0.12617342E+00 0.41846046E+03</pdfrwt>
<pdfrwt beam="2">  1       21 0.75034873E-02 0.41846046E+03</pdfrwt>
<totfact> 0.57644231E+04</totfact>
</mgrwt>
</event>
<event>
 7    0  0.4691878E-002  0.4493042E+03  0.7546771E-02  0.1027930E+00
         21   -1    0    0  502  501  0.00000000000E+00  0.00000000000E+00  0.21405783597E+03  0.21405783597E+03  0.00000000000E+00 0. -1.
         21   -1    0    0  501  502 -0.00000000000E+00 -0.00000000000E+00 -0.23577067991E+03  0.23577067991E+03  0.00000000000E+00 0. -1.
      99926    2    1    2    0    0 -0.35527136788E-14  0.14210854715E-13 -0.21712843935E+02  0.44982851588E+03  0.44930417993E+03 0.  0.
      99925    2    3    3    0    0 -0.96789148641E+01 -0.82635098093E+02  0.54737509605E+02  0.28126278541E+03  0.26304052667E+03 0.  0.
         25    1    3    3    0    0  0.96789148641E+01  0.82635098093E+02 -0.76450353540E+02  0.16856573046E+03  0.12509000000E+03 0.  0.
         25    1    4    4    0    0  0.27018666141E+02 -0.40523197476E+02  0.13823292361E+01  0.13424439202E+03  0.12509000000E+03 0.  0.
         25    1    4    4    0    0 -0.36697581005E+02 -0.42111900617E+02  0.53355180369E+02  0.14701839340E+03  0.12509000000E+03 0.  0.
<mgrwt>
<rscale>  2 0.44930418E+03</rscale>
<asrwt>0</asrwt>
<pdfrwt beam="1">  1       21 0.31479094E-01 0.44930418E+03</pdfrwt>
<pdfrwt beam="2">  1       21 0.34672159E-01 0.44930418E+03</pdfrwt>
<totfact> 0.72149959E+04</totfact>
</mgrwt>
</event>
<event>
 7    0  0.4691878E-002  0.4652621E+03  0.7546771E-02  0.1023266E+00
         21   -1    0    0  502  501  0.00000000000E+00  0.00000000000E+00  0.75260826007E+02  0.75260826007E+02  0.00000000000E+00 0.  1.
         21   -1    0    0  501  502 -0.00000000000E+00 -0.00000000000E+00 -0.71906218652E+03  0.71906218652E+03  0.00000000000E+00 0.  1.
      99926    2    1    2    0    0  0.00000000000E+00  0.17763568394E-14 -0.64380136052E+03  0.79432301253E+03  0.46526213733E+03 0.  0.
      99925    2    3    3    0    0 -0.26733248299E+02 -0.50306742736E+01 -0.19747026035E+03  0.32999669051E+03  0.26298923509E+03 0.  0.
         25    1    3    3    0    0  0.26733248299E+02  0.50306742736E+01 -0.44633110016E+03  0.46432632202E+03  0.12509000000E+03 0.  0.
         25    1    4    4    0    0 -0.15740772978E+02 -0.42994105079E+02 -0.10001880906E+03  0.16657591444E+03  0.12509000000E+03 0.  0.
         25    1    4    4    0    0 -0.10992475321E+02  0.37963430805E+02 -0.97451451294E+02  0.16342077607E+03  0.12509000000E+03 0.  0.
<mgrwt>
<rscale>  2 0.46526214E+03</rscale>
<asrwt>0</asrwt>
<pdfrwt beam="1">  1       21 0.11067768E-01 0.46526214E+03</pdfrwt>
<pdfrwt beam="2">  1       21 0.10574444E+00 0.46526214E+03</pdfrwt>
<totfact> 0.44358703E+04</totfact>
</mgrwt>
</event>
<event>
 7    0  0.4691878E-002  0.4540989E+03  0.7546771E-02  0.1026507E+00
         21   -1    0    0  502  501  0.00000000000E+00  0.00000000000E+00  0.24929873274E+03  0.24929873274E+03  0.00000000000E+00 0. -1.
         21   -1    0    0  501  502 -0.00000000000E+00 -0.00000000000E+00 -0.20678583087E+03  0.20678583087E+03  0.00000000000E+00 0. -1.
      99926    2    1    2    0    0  0.00000000000E+00  0.00000000000E+00  0.42512901870E+02  0.45608456362E+03  0.45409886847E+03 0.  0.
      99925    2    3    3    0    0  0.57945880496E+02 -0.96354511180E+02  0.21492134674E+02  0.28658147325E+03  0.26272630638E+03 0.  0.
         25    1    4    4    0    0  0.60164342113E+02 -0.61055854375E+02 -0.12681704182E+02  0.15217062508E+03  0.12509000000E+03 0.  0.
         25    1    3    3    0    0 -0.57945880496E+02  0.96354511180E+02  0.21020767195E+02  0.16950309037E+03  0.12509000000E+03 0.  0.
         25    1    4    4    0    0 -0.22184616167E+01 -0.35298656806E+02  0.34173838856E+02  0.13441084817E+03  0.12509000000E+03 0.  0.
<mgrwt>
<rscale>  2 0.45409887E+03</rscale>
<asrwt>0</asrwt>
<pdfrwt beam="1">  1       21 0.36661578E-01 0.45409887E+03</pdfrwt>
<pdfrwt beam="2">  1       21 0.30409681E-01 0.45409887E+03</pdfrwt>
<totfact> 0.68960903E+04</totfact>
</mgrwt>
</event>
<event>
 7    0  0.4691878E-002  0.4543063E+03  0.7546771E-02  0.1026446E+00
         21   -1    0    0  502  501  0.00000000000E+00  0.00000000000E+00  0.14234186059E+03  0.14234186059E+03  0.00000000000E+00 0.  1.
         21   -1    0    0  501  502 -0.00000000000E+00 -0.00000000000E+00 -0.36249735567E+03  0.36249735567E+03  0.00000000000E+00 0.  1.
      99926    2    1    2    0    0  0.00000000000E+00 -0.66613381478E-15 -0.22015549507E+03  0.50483921626E+03  0.45430627584E+03 0.  0.
      99925    2    3    3    0    0 -0.11140117255E+03  0.13210090046E+01 -0.15627111525E+03  0.32556097331E+03  0.26297779293E+03 0.  0.
         25    1    4    4    0    0 -0.25089966708E+02  0.15385995014E+02 -0.43053163183E+02  0.13552607953E+03  0.12509000000E+03 0.  0.
         25    1    4    4    0    0 -0.86311205839E+02 -0.14064986009E+02 -0.11321795207E+03  0.19003489378E+03  0.12509000000E+03 0.  0.
         25    1    3    3    0    0  0.11140117255E+03 -0.13210090046E+01 -0.63884379821E+02  0.17927824295E+03  0.12509000000E+03 0.  0.
<mgrwt>
<rscale>  2 0.45430628E+03</rscale>
<asrwt>0</asrwt>
<pdfrwt beam="1">  1       21 0.20932627E-01 0.45430628E+03</pdfrwt>
<pdfrwt beam="2">  1       21 0.53308433E-01 0.45430628E+03</pdfrwt>
<totfact> 0.65290781E+04</totfact>
</mgrwt>
</event>
<event>
 7    0  0.4691878E-002  0.4554744E+03  0.7546771E-02  0.1026102E+00
         21   -1    0    0  502  501  0.00000000000E+00  0.00000000000E+00  0.79520492873E+03  0.79520492873E+03  0.00000000000E+00 0. -1.
         21   -1    0    0  501  502 -0.00000000000E+00 -0.00000000000E+00 -0.65221213160E+02  0.65221213160E+02  0.00000000000E+00 0. -1.
      99926    2    1    2    0    0  0.00000000000E+00  0.00000000000E+00  0.72998371557E+03  0.86042614189E+03  0.45547439077E+03 0.  0.
      99925    2    3    3    0    0  0.69471088654E+02 -0.51000487807E+02  0.31932425550E+03  0.42257230536E+03  0.26300587673E+03 0.  0.
         25    1    4    4    0    0  0.51397318942E+02 -0.64174704243E+02  0.17313675757E+03  0.22887534157E+03  0.12509000000E+03 0.  0.
         25    1    4    4    0    0  0.18073769711E+02  0.13174216436E+02  0.14618749793E+03  0.19369696379E+03  0.12509000000E+03 0.  0.
         25    1    3    3    0    0 -0.69471088654E+02  0.51000487807E+02  0.41065946007E+03  0.43785383653E+03  0.12509000000E+03 0.  0.
<mgrwt>
<rscale>  2 0.45547439E+03</rscale>
<asrwt>0</asrwt>
<pdfrwt beam="1">  1       21 0.11694190E+00 0.45547439E+03</pdfrwt>
<pdfrwt beam="2">  1       21 0.95913553E-02 0.45547439E+03</pdfrwt>
<totfact> 0.44809525E+04</totfact>
</mgrwt>
</event>
<event>
 7    0  0.4691878E-002  0.4580599E+03  0.7546771E-02  0.1025345E+00
         21   -1    0    0  502  501  0.00000000000E+00  0.00000000000E+00  0.68449327684E+03  0.68449327684E+03  0.00000000000E+00 0. -1.
         21   -1    0    0  501  502 -0.00000000000E+00 -0.00000000000E+00 -0.76632926921E+02  0.76632926921E+02  0.00000000000E+00 0. -1.
      99926    2    1    2    0    0  0.00000000000E+00  0.00000000000E+00  0.60786034991E+03  0.76112620376E+03  0.45805992299E+03 0.  0.
      99925    2    3    3    0    0  0.64280729507E+02  0.95748922314E+02  0.40252172635E+03  0.49445913279E+03  0.26299472524E+03 0.  0.
         25    1    4    4    0    0  0.67499327092E+02  0.28273353262E+02  0.19735748630E+03  0.24485307260E+03  0.12509000000E+03 0.  0.
         25    1    3    3    0    0 -0.64280729507E+02 -0.95748922314E+02  0.20533862356E+03  0.26666707096E+03  0.12509000000E+03 0.  0.
         25    1    4    4    0    0 -0.32185975843E+01  0.67475569052E+02  0.20516424006E+03  0.24960606020E+03  0.12509000000E+03 0.  0.
<mgrwt>
<rscale>  2 0.45805992E+03</rscale>
<asrwt>0</asrwt>
<pdfrwt beam="1">  1       21 0.10066077E+00 0.45805992E+03</pdfrwt>
<pdfrwt beam="2">  1       21 0.11269548E-01 0.45805992E+03</pdfrwt>
<totfact> 0.48525852E+04</totfact>
</mgrwt>
</event>
<event>
 7    0  0.4691878E-002  0.4576393E+03  0.7546771E-02  0.1025468E+00
         21   -1    0    0  502  501  0.00000000000E+00  0.00000000000E+00  0.17647504831E+03  0.17647504831E+03  0.00000000000E+00 0.  1.
         21   -1    0    0  501  502 -0.00000000000E+00 -0.00000000000E+00 -0.29669023579E+03  0.29669023579E+03  0.00000000000E+00 0.  1.
      99926    2    1    2    0    0  0.00000000000E+00  0.14210854715E-13 -0.12021518747E+03  0.47316528410E+03  0.45763926271E+03 0.  0.
      99925    2    3    3    0    0 -0.54536636880E+02  0.95585323858E+02 -0.11311122975E+03  0.30640565705E+03  0.26263944387E+03 0.  0.
         25    1    4    4    0    0 -0.40291901571E+02  0.17922121043E+02 -0.27378317941E+02  0.13543160690E+03  0.12509000000E+03 0.  0.
         25    1    3    3    0    0  0.54536636880E+02 -0.95585323858E+02 -0.71039577239E+01  0.16675962705E+03  0.12509000000E+03 0.  0.
         25    1    4    4    0    0 -0.14244735309E+02  0.77663202815E+02 -0.85732911808E+02  0.17097405014E+03  0.12509000000E+03 0.  0.
<mgrwt>
<rscale>  2 0.45763926E+03</rscale>
<asrwt>0</asrwt>
<pdfrwt beam="1">  1       21 0.25952213E-01 0.45763926E+03</pdfrwt>
<pdfrwt beam="2">  1       21 0.43630917E-01 0.45763926E+03</pdfrwt>
<totfact> 0.65812191E+04</totfact>
</mgrwt>
</event>
<event>
 7    0  0.4691878E-002  0.4514116E+03  0.7546771E-02  0.1027302E+00
         21   -1    0    0  502  501  0.00000000000E+00  0.00000000000E+00  0.10258943784E+04  0.10258943784E+04  0.00000000000E+00 0.  1.
         21   -1    0    0  501  502 -0.00000000000E+00 -0.00000000000E+00 -0.49657255715E+02  0.49657255715E+02  0.00000000000E+00 0.  1.
      99926    2    1    2    0    0  0.14210854715E-13  0.00000000000E+00  0.97623712272E+03  0.10755516341E+04  0.45141156160E+03 0.  0.
      99925    2    3    3    0    0 -0.85809542642E+02 -0.38769353991E+02  0.74981689371E+03  0.80027001722E+03  0.26332562720E+03 0.  0.
         25    1    4    4    0    0 -0.76444670176E+02 -0.32650767855E+02  0.47355022056E+03  0.49679692001E+03  0.12509000000E+03 0.  0.
         25    1    4    4    0    0 -0.93648724658E+01 -0.61185861355E+01  0.27626667315E+03  0.30347309720E+03  0.12509000000E+03 0.  0.
         25    1    3    3    0    0  0.85809542642E+02  0.38769353991E+02  0.22642022900E+03  0.27528161693E+03  0.12509000000E+03 0.  0.
<mgrwt>
<rscale>  2 0.45141156E+03</rscale>
<asrwt>0</asrwt>
<pdfrwt beam="1">  1       21 0.15086681E+00 0.45141156E+03</pdfrwt>
<pdfrwt beam="2">  1       21 0.73025382E-02 0.45141156E+03</pdfrwt>
<totfact> 0.37389596E+04</totfact>
</mgrwt>
</event>
<event>
 7    0  0.4691878E-002  0.4489743E+03  0.7546771E-02  0.1028028E+00
         21   -1    0    0  502  501  0.00000000000E+00  0.00000000000E+00  0.18496322452E+03  0.18496322452E+03  0.00000000000E+00 0.  1.
         21   -1    0    0  501  502 -0.00000000000E+00 -0.00000000000E+00 -0.27245675236E+03  0.27245675236E+03  0.00000000000E+00 0.  1.
      99926    2    1    2    0    0 -0.71054273576E-14  0.14210854715E-13 -0.87493527844E+02  0.45741997687E+03  0.44897429529E+03 0.  0.
      99925    2    3    3    0    0  0.55004251968E+02 -0.90373829209E+02 -0.36062041577E+02  0.28570625401E+03  0.26293477518E+03 0.  0.
         25    1    3    3    0    0 -0.55004251968E+02  0.90373829209E+02 -0.51431486266E+02  0.17171372286E+03  0.12509000000E+03 0.  0.
         25    1    4    4    0    0  0.24944655777E+02 -0.97817198085E+01 -0.39408085449E+02  0.13385971460E+03  0.12509000000E+03 0.  0.
         25    1    4    4    0    0  0.30059596191E+02 -0.80592109400E+02  0.33460438716E+01  0.15184653941E+03  0.12509000000E+03 0.  0.
<mgrwt>
<rscale>  2 0.44897430E+03</rscale>
<asrwt>0</asrwt>
<pdfrwt beam="1">  1       21 0.27200475E-01 0.44897430E+03</pdfrwt>
<pdfrwt beam="2">  1       21 0.40067169E-01 0.44897430E+03</pdfrwt>
<totfact> 0.71752458E+04</totfact>
</mgrwt>
</event>
<event>
 7    0  0.4691878E-002  0.4559811E+03  0.7546771E-02  0.1025953E+00
         21   -1    0    0  502  501  0.00000000000E+00  0.00000000000E+00  0.24601604888E+03  0.24601604888E+03  0.00000000000E+00 0.  1.
         21   -1    0    0  501  502 -0.00000000000E+00 -0.00000000000E+00 -0.21128578171E+03  0.21128578171E+03  0.00000000000E+00 0.  1.
      99926    2    1    2    0    0  0.35527136788E-14  0.14210854715E-13  0.34730267167E+02  0.45730183058E+03  0.45598111013E+03 0.  0.
      99925    2    3    3    0    0  0.19778520568E+02 -0.74106211092E+02 -0.62952398757E+02  0.28102837336E+03  0.26292778805E+03 0.  0.
         25    1    4    4    0    0  0.18162641299E+01  0.28548869710E+01 -0.18248819608E+02  0.12645938760E+03  0.12509000000E+03 0.  0.
         25    1    3    3    0    0 -0.19778520568E+02  0.74106211092E+02  0.97682665925E+02  0.17627345722E+03  0.12509000000E+03 0.  0.
         25    1    4    4    0    0  0.17962256438E+02 -0.76961098063E+02 -0.44703579149E+02  0.15456898576E+03  0.12509000000E+03 0.  0.
<mgrwt>
<rscale>  2 0.45598111E+03</rscale>
<asrwt>0</asrwt>
<pdfrwt beam="1">  1       21 0.36178831E-01 0.45598111E+03</pdfrwt>
<pdfrwt beam="2">  1       21 0.31071438E-01 0.45598111E+03</pdfrwt>
<totfact> 0.67844877E+04</totfact>
</mgrwt>
</event>
<event>
 7    0  0.4691878E-002  0.4581015E+03  0.7546771E-02  0.1025333E+00
         21   -1    0    0  502  501  0.00000000000E+00  0.00000000000E+00  0.19786376780E+03  0.19786376780E+03  0.00000000000E+00 0. -1.
         21   -1    0    0  501  502 -0.00000000000E+00 -0.00000000000E+00 -0.26515340706E+03  0.26515340706E+03  0.00000000000E+00 0. -1.
      99926    2    1    2    0    0  0.00000000000E+00  0.00000000000E+00 -0.67289639260E+02  0.46301717487E+03  0.45810152660E+03 0.  0.
      99925    2    3    3    0    0  0.20055437687E+02  0.10298361144E+03  0.79765839430E+01  0.28323854082E+03  0.26296882003E+03 0.  0.
         25    1    3    3    0    0 -0.20055437687E+02 -0.10298361144E+03 -0.75266223203E+02  0.17977863405E+03  0.12509000000E+03 0.  0.
         25    1    4    4    0    0  0.25140608681E+02  0.30443380601E+02 -0.28030871365E+02  0.13413458718E+03  0.12509000000E+03 0.  0.
         25    1    4    4    0    0 -0.50851709938E+01  0.72540230838E+02  0.36007455308E+02  0.14910395364E+03  0.12509000000E+03 0.  0.
<mgrwt>
<rscale>  2 0.45810153E+03</rscale>
<asrwt>0</asrwt>
<pdfrwt beam="1">  1       21 0.29097613E-01 0.45810153E+03</pdfrwt>
<pdfrwt beam="2">  1       21 0.38993148E-01 0.45810153E+03</pdfrwt>
<totfact> 0.66306013E+04</totfact>
</mgrwt>
</event>
<event>
 7    0  0.4691878E-002  0.4540341E+03  0.7546771E-02  0.1026526E+00
         21   -1    0    0  502  501  0.00000000000E+00  0.00000000000E+00  0.23771735244E+03  0.23771735244E+03  0.00000000000E+00 0. -1.
         21   -1    0    0  501  502 -0.00000000000E+00 -0.00000000000E+00 -0.21679841957E+03  0.21679841957E+03  0.00000000000E+00 0. -1.
      99926    2    1    2    0    0  0.00000000000E+00  0.00000000000E+00  0.20918932868E+02  0.45451577202E+03  0.45403412345E+03 0.  0.
      99925    2    3    3    0    0  0.69353685378E+02 -0.29368599294E+02 -0.70315257960E+02  0.28234250471E+03  0.26286994154E+03 0.  0.
         25    1    3    3    0    0 -0.69353685378E+02  0.29368599294E+02  0.91234190828E+02  0.17217326731E+03  0.12509000000E+03 0.  0.
         25    1    4    4    0    0  0.10510392226E+02  0.18967181158E+02 -0.35210633482E+02  0.13174793781E+03  0.12509000000E+03 0.  0.
         25    1    4    4    0    0  0.58843293152E+02 -0.48335780451E+02 -0.35104624478E+02  0.15059456690E+03  0.12509000000E+03 0.  0.
<mgrwt>
<rscale>  2 0.45403412E+03</rscale>
<asrwt>0</asrwt>
<pdfrwt beam="1">  1       21 0.34958434E-01 0.45403412E+03</pdfrwt>
<pdfrwt beam="2">  1       21 0.31882121E-01 0.45403412E+03</pdfrwt>
<totfact> 0.69112394E+04</totfact>
</mgrwt>
</event>
<event>
 7    0  0.4691878E-002  0.4591686E+03  0.7546771E-02  0.1025023E+00
         21   -1    0    0  502  501  0.00000000000E+00  0.00000000000E+00  0.16996126003E+04  0.16996126003E+04  0.00000000000E+00 0. -1.
         21   -1    0    0  501  502 -0.00000000000E+00 -0.00000000000E+00 -0.31012337499E+02  0.31012337499E+02  0.00000000000E+00 0. -1.
      99926    2    1    2    0    0  0.14210854715E-13  0.00000000000E+00  0.16686002628E+04  0.17306249378E+04  0.45916863820E+03 0.  0.
      99925    2    3    3    0    0  0.10473119218E+03 -0.49259242027E+02  0.11105407035E+04  0.11471242305E+04  0.26305560368E+03 0.  0.
         25    1    4    4    0    0  0.13216181156E+02 -0.11233900740E+02  0.43284084591E+03  0.45088754026E+03  0.12509000000E+03 0.  0.
         25    1    3    3    0    0 -0.10473119218E+03  0.49259242027E+02  0.55805955926E+03  0.58350070721E+03  0.12509000000E+03 0.  0.
         25    1    4    4    0    0  0.91515011020E+02 -0.38025341287E+02  0.67769985759E+03  0.69623669029E+03  0.12509000000E+03 0.  0.
<mgrwt>
<rscale>  2 0.45916864E+03</rscale>
<asrwt>0</asrwt>
<pdfrwt beam="1">  1       21 0.24994297E+00 0.45916864E+03</pdfrwt>
<pdfrwt beam="2">  1       21 0.45606390E-02 0.45916864E+03</pdfrwt>
<totfact> 0.18040444E+04</totfact>
</mgrwt>
</event>
<event>
 7    0  0.4691878E-002  0.4558615E+03  0.7546771E-02  0.1025988E+00
         21   -1    0    0  502  501  0.00000000000E+00  0.00000000000E+00  0.14472130841E+03  0.14472130841E+03  0.00000000000E+00 0.  1.
         21   -1    0    0  501  502 -0.00000000000E+00 -0.00000000000E+00 -0.35898261612E+03  0.35898261612E+03  0.00000000000E+00 0.  1.
      99926    2    1    2    0    0  0.00000000000E+00  0.00000000000E+00 -0.21426130770E+03  0.50370392453E+03  0.45586153118E+03 0.  0.
      99925    2    3    3    0    0  0.10970689091E+03  0.71674241801E+01 -0.16636254481E+03  0.33041580183E+03  0.26345992466E+03 0.  0.
         25    1    4    4    0    0  0.61717216684E+02  0.20729379397E+02 -0.42073149335E+02  0.14716106822E+03  0.12509000000E+03 0.  0.
         25    1    3    3    0    0 -0.10970689091E+03 -0.71674241801E+01 -0.47898762890E+02  0.17328812270E+03  0.12509000000E+03 0.  0.
         25    1    4    4    0    0  0.47989674224E+02 -0.13561955217E+02 -0.12428939548E+03  0.18325473361E+03  0.12509000000E+03 0.  0.
<mgrwt>
<rscale>  2 0.45586153E+03</rscale>
<asrwt>0</asrwt>
<pdfrwt beam="1">  1       21 0.21282545E-01 0.45586153E+03</pdfrwt>
<pdfrwt beam="2">  1       21 0.52791561E-01 0.45586153E+03</pdfrwt>
<totfact> 0.64568545E+04</totfact>
</mgrwt>
</event>
<event>
 7    0  0.4691878E-002  0.4400495E+03  0.7546771E-02  0.1030732E+00
         21   -1    0    0  502  501  0.00000000000E+00  0.00000000000E+00  0.91932074105E+02  0.91932074105E+02  0.00000000000E+00 0. -1.
         21   -1    0    0  501  502 -0.00000000000E+00 -0.00000000000E+00 -0.52659403396E+03  0.52659403396E+03  0.00000000000E+00 0. -1.
      99926    2    1    2    0    0  0.00000000000E+00  0.35527136788E-14 -0.43466195986E+03  0.61852610807E+03  0.44004945973E+03 0.  0.
      99925    2    3    3    0    0  0.39800669821E+02  0.31735677641E+02 -0.15894350046E+03  0.31150913214E+03  0.26302786262E+03 0.  0.
         25    1    4    4    0    0  0.51819693539E+02 -0.56501234932E+00 -0.10341536414E+03  0.17037560130E+03  0.12509000000E+03 0.  0.
         25    1    3    3    0    0 -0.39800669821E+02 -0.31735677641E+02 -0.27571845940E+03  0.30701697593E+03  0.12509000000E+03 0.  0.
         25    1    4    4    0    0 -0.12019023718E+02  0.32300689990E+02 -0.55528136320E+02  0.14113353084E+03  0.12509000000E+03 0.  0.
<mgrwt>
<rscale>  2 0.44004946E+03</rscale>
<asrwt>0</asrwt>
<pdfrwt beam="1">  1       21 0.13519423E-01 0.44004946E+03</pdfrwt>
<pdfrwt beam="2">  1       21 0.77440297E-01 0.44004946E+03</pdfrwt>
<totfact> 0.64878639E+04</totfact>
</mgrwt>
</event>
<event>
 7    0  0.4691878E-002  0.4720696E+03  0.7546771E-02  0.1021338E+00
         21   -1    0    0  502  501  0.00000000000E+00  0.00000000000E+00  0.53874577115E+03  0.53874577115E+03  0.00000000000E+00 0. -1.
         21   -1    0    0  501  502 -0.00000000000E+00 -0.00000000000E+00 -0.10341136865E+03  0.10341136865E+03  0.00000000000E+00 0. -1.
      99926    2    1    2    0    0  0.00000000000E+00 -0.17763568394E-14  0.43533440250E+03  0.64215713979E+03  0.47206964548E+03 0.  0.
      99925    2    3    3    0    0 -0.10882107799E+03  0.13533676152E+02  0.17876269317E+03  0.33637660161E+03  0.26299796622E+03 0.  0.
         25    1    3    3    0    0  0.10882107799E+03 -0.13533676152E+02  0.25657170933E+03  0.30578053819E+03  0.12509000000E+03 0.  0.
         25    1    4    4    0    0 -0.21630972892E+02 -0.29221306604E+01  0.11120943660E+03  0.16879420821E+03  0.12509000000E+03 0.  0.
         25    1    4    4    0    0 -0.87190105095E+02  0.16455806813E+02  0.67553256570E+02  0.16758239340E+03  0.12509000000E+03 0.  0.
<mgrwt>
<rscale>  2 0.47206965E+03</rscale>
<asrwt>0</asrwt>
<pdfrwt beam="1">  1       21 0.79227318E-01 0.47206965E+03</pdfrwt>
<pdfrwt beam="2">  1       21 0.15207554E-01 0.47206965E+03</pdfrwt>
<totfact> 0.49186860E+04</totfact>
</mgrwt>
</event>
<event>
 7    0  0.4691878E-002  0.4707943E+03  0.7546771E-02  0.1021696E+00
         21   -1    0    0  502  501  0.00000000000E+00  0.00000000000E+00  0.34959591211E+04  0.34959591211E+04  0.00000000000E+00 0.  1.
         21   -1    0    0  501  502 -0.00000000000E+00 -0.00000000000E+00 -0.15850246406E+02  0.15850246406E+02  0.00000000000E+00 0.  1.
      99926    2    1    2    0    0  0.00000000000E+00  0.00000000000E+00  0.34801088747E+04  0.35118093675E+04  0.47079427989E+03 0.  0.
      99925    2    3    3    0    0 -0.99787169897E+02 -0.16127564564E+02  0.15818919212E+04  0.16067916017E+04  0.26302019531E+03 0.  0.
         25    1    4    4    0    0 -0.70313292890E+02  0.14590193041E+02  0.98068540352E+03  0.99123569431E+03  0.12509000000E+03 0.  0.
         25    1    4    4    0    0 -0.29473877008E+02 -0.30717757605E+02  0.60120651771E+03  0.61555590736E+03  0.12509000000E+03 0.  0.
         25    1    3    3    0    0  0.99787169897E+02  0.16127564564E+02  0.18982169535E+04  0.19050177659E+04  0.12509000000E+03 0.  0.
<mgrwt>
<rscale>  2 0.47079428E+03</rscale>
<asrwt>0</asrwt>
<pdfrwt beam="1">  1       21 0.51411110E+00 0.47079428E+03</pdfrwt>
<pdfrwt beam="2">  1       21 0.23309210E-02 0.47079428E+03</pdfrwt>
<totfact> 0.11153038E+03</totfact>
</mgrwt>
</event>
<event>
 7    0  0.4691878E-002  0.4516735E+03  0.7546771E-02  0.1027224E+00
         21   -1    0    0  502  501  0.00000000000E+00  0.00000000000E+00  0.26414099858E+03  0.26414099858E+03  0.00000000000E+00 0. -1.
         21   -1    0    0  501  502 -0.00000000000E+00 -0.00000000000E+00 -0.19308713812E+03  0.19308713812E+03  0.00000000000E+00 0. -1.
      99926    2    1    2    0    0  0.00000000000E+00  0.14210854715E-13  0.71053860467E+02  0.45722813670E+03  0.45167346380E+03 0.  0.
      99925    2    3    3    0    0  0.71286384649E+02 -0.81377839654E+02  0.64764784162E+02  0.29172538142E+03  0.26306865924E+03 0.  0.
         25    1    4    4    0    0  0.44351740499E+02 -0.82058237440E+02  0.43715533069E+02  0.16204686714E+03  0.12509000000E+03 0.  0.
         25    1    4    4    0    0  0.26934644150E+02  0.68039778619E+00  0.21049251093E+02  0.12967851429E+03  0.12509000000E+03 0.  0.
         25    1    3    3    0    0 -0.71286384649E+02  0.81377839654E+02  0.62890763049E+01  0.16550275528E+03  0.12509000000E+03 0.  0.
<mgrwt>
<rscale>  2 0.45167346E+03</rscale>
<asrwt>0</asrwt>
<pdfrwt beam="1">  1       21 0.38844264E-01 0.45167346E+03</pdfrwt>
<pdfrwt beam="2">  1       21 0.28395167E-01 0.45167346E+03</pdfrwt>
<totfact> 0.70227590E+04</totfact>
</mgrwt>
</event>
<event>
 7    0  0.4691878E-002  0.4606622E+03  0.7546771E-02  0.1024589E+00
         21   -1    0    0  502  501  0.00000000000E+00  0.00000000000E+00  0.69535917918E+03  0.69535917918E+03  0.00000000000E+00 0. -1.
         21   -1    0    0  501  502 -0.00000000000E+00 -0.00000000000E+00 -0.76294996910E+02  0.76294996910E+02  0.00000000000E+00 0. -1.
      99926    2    1    2    0    0  0.00000000000E+00  0.00000000000E+00  0.61906418227E+03  0.77165417609E+03  0.46066224689E+03 0.  0.
      99925    2    3    3    0    0 -0.10462395464E+03  0.54173591513E+02  0.40582182478E+03  0.49779150789E+03  0.26310469772E+03 0.  0.
         25    1    4    4    0    0 -0.48502298705E+02  0.63332858645E+02  0.24330229371E+03  0.28496848631E+03  0.12509000000E+03 0.  0.
         25    1    3    3    0    0  0.10462395464E+03 -0.54173591513E+02  0.21324235750E+03  0.27386266820E+03  0.12509000000E+03 0.  0.
         25    1    4    4    0    0 -0.56121655935E+02 -0.91592671319E+01  0.16251953107E+03  0.21282302159E+03  0.12509000000E+03 0.  0.
<mgrwt>
<rscale>  2 0.46066225E+03</rscale>
<asrwt>0</asrwt>
<pdfrwt beam="1">  1       21 0.10225870E+00 0.46066225E+03</pdfrwt>
<pdfrwt beam="2">  1       21 0.11219853E-01 0.46066225E+03</pdfrwt>
<totfact> 0.47040431E+04</totfact>
</mgrwt>
</event>
<event>
 7    0  0.4691878E-002  0.4554291E+03  0.7546771E-02  0.1026115E+00
         21   -1    0    0  502  501  0.00000000000E+00  0.00000000000E+00  0.31980412924E+03  0.31980412924E+03  0.00000000000E+00 0. -1.
         21   -1    0    0  501  502 -0.00000000000E+00 -0.00000000000E+00 -0.16214271467E+03  0.16214271467E+03  0.00000000000E+00 0. -1.
      99926    2    1    2    0    0  0.17763568394E-14  0.14210854715E-13  0.15766141457E+03  0.48194684391E+03  0.45542907100E+03 0.  0.
      99925    2    3    3    0    0  0.12323652934E+02 -0.10184150827E+03  0.15171472625E+03  0.32006282237E+03  0.26248673657E+03 0.  0.
         25    1    4    4    0    0  0.40373372737E+02 -0.30110623029E+02  0.76225845026E+02  0.15490173141E+03  0.12509000000E+03 0.  0.
         25    1    3    3    0    0 -0.12323652934E+02  0.10184150827E+03  0.59466883248E+01  0.16188402154E+03  0.12509000000E+03 0.  0.
         25    1    4    4    0    0 -0.28049719803E+02 -0.71730885240E+02  0.75488881221E+02  0.16516109096E+03  0.12509000000E+03 0.  0.
<mgrwt>
<rscale>  2 0.45542907E+03</rscale>
<asrwt>0</asrwt>
<pdfrwt beam="1">  1       21 0.47030019E-01 0.45542907E+03</pdfrwt>
<pdfrwt beam="2">  1       21 0.23844517E-01 0.45542907E+03</pdfrwt>
<totfact> 0.66332447E+04</totfact>
</mgrwt>
</event>
<event>
 7    0  0.4691878E-002  0.4781669E+03  0.7546771E-02  0.1019640E+00
         21   -1    0    0  502  501  0.00000000000E+00  0.00000000000E+00  0.60398659339E+03  0.60398659339E+03  0.00000000000E+00 0.  1.
         21   -1    0    0  501  502 -0.00000000000E+00 -0.00000000000E+00 -0.94639347599E+02  0.94639347599E+02  0.00000000000E+00 0.  1.
      99926    2    1    2    0    0  0.71054273576E-14  0.00000000000E+00  0.50934724580E+03  0.69862594099E+03  0.47816690457E+03 0.  0.
      99925    2    3    3    0    0  0.62155517316E+02 -0.94843586498E+02  0.41798733311E+03  0.50665522453E+03  0.26292107498E+03 0.  0.
         25    1    4    4    0    0  0.50599236512E+02 -0.40133211836E+02  0.27304032375E+03  0.30719616521E+03  0.12509000000E+03 0.  0.
         25    1    3    3    0    0 -0.62155517316E+02  0.94843586498E+02  0.91359912681E+02  0.19197071646E+03  0.12509000000E+03 0.  0.
         25    1    4    4    0    0  0.11556280804E+02 -0.54710374662E+02  0.14494700936E+03  0.19945905932E+03  0.12509000000E+03 0.  0.
<mgrwt>
<rscale>  2 0.47816690E+03</rscale>
<asrwt>0</asrwt>
<pdfrwt beam="1">  1       21 0.88821556E-01 0.47816690E+03</pdfrwt>
<pdfrwt beam="2">  1       21 0.13917551E-01 0.47816690E+03</pdfrwt>
<totfact> 0.44320693E+04</totfact>
</mgrwt>
</event>
<event>
 7    0  0.4691878E-002  0.4651550E+03  0.7546771E-02  0.1023297E+00
         21   -1    0    0  502  501  0.00000000000E+00  0.00000000000E+00  0.75223621969E+02  0.75223621969E+02  0.00000000000E+00 0. -1.
         21   -1    0    0  501  502 -0.00000000000E+00 -0.00000000000E+00 -0.71908639701E+03  0.71908639701E+03  0.00000000000E+00 0. -1.
      99926    2    1    2    0    0 -0.35527136788E-14  0.00000000000E+00 -0.64386277504E+03  0.79431001898E+03  0.46515495608E+03 0.  0.
      99925    2    3    3    0    0 -0.27023249124E+02  0.11759601110E+03 -0.43210583531E+03  0.52036187161E+03  0.26363221863E+03 0.  0.
         25    1    4    4    0    0  0.26470143542E+02  0.55173352407E+02 -0.22979308734E+03  0.26869525192E+03  0.12509000000E+03 0.  0.
         25    1    3    3    0    0  0.27023249124E+02 -0.11759601110E+03 -0.21175693973E+03  0.27394814737E+03  0.12509000000E+03 0.  0.
         25    1    4    4    0    0 -0.53493392666E+02  0.62422658695E+02 -0.20231274797E+03  0.25166661969E+03  0.12509000000E+03 0.  0.
<mgrwt>
<rscale>  2 0.46515496E+03</rscale>
<asrwt>0</asrwt>
<pdfrwt beam="1">  1       21 0.11062297E-01 0.46515496E+03</pdfrwt>
<pdfrwt beam="2">  1       21 0.10574800E+00 0.46515496E+03</pdfrwt>
<totfact> 0.44395884E+04</totfact>
</mgrwt>
</event>
<event>
 7    0  0.4691878E-002  0.4566511E+03  0.7546771E-02  0.1025757E+00
         21   -1    0    0  502  501  0.00000000000E+00  0.00000000000E+00  0.10307655786E+03  0.10307655786E+03  0.00000000000E+00 0. -1.
         21   -1    0    0  501  502 -0.00000000000E+00 -0.00000000000E+00 -0.50576531349E+03  0.50576531349E+03  0.00000000000E+00 0. -1.
      99926    2    1    2    0    0  0.00000000000E+00 -0.88817841970E-15 -0.40268875563E+03  0.60884187135E+03  0.45665105978E+03 0.  0.
      99925    2    3    3    0    0 -0.10849752806E+03  0.62241186006E+01 -0.20220363650E+03  0.34874142087E+03  0.26253345457E+03 0.  0.
         25    1    3    3    0    0  0.10849752806E+03 -0.62241186006E+01 -0.20048511913E+03  0.26010045048E+03  0.12509000000E+03 0.  0.
         25    1    4    4    0    0 -0.96369577733E+02  0.78655614074E+01 -0.10405348478E+03  0.18927122962E+03  0.12509000000E+03 0.  0.
         25    1    4    4    0    0 -0.12127950324E+02 -0.16414428069E+01 -0.98150151724E+02  0.15947019125E+03  0.12509000000E+03 0.  0.
<mgrwt>
<rscale>  2 0.45665106E+03</rscale>
<asrwt>0</asrwt>
<pdfrwt beam="1">  1       21 0.15158317E-01 0.45665106E+03</pdfrwt>
<pdfrwt beam="2">  1       21 0.74377252E-01 0.45665106E+03</pdfrwt>
<totfact> 0.57385206E+04</totfact>
</mgrwt>
</event>
<event>
 7    0  0.4691878E-002  0.4490988E+03  0.7546771E-02  0.1027991E+00
         21   -1    0    0  502  501  0.00000000000E+00  0.00000000000E+00  0.18288402679E+03  0.18288402679E+03  0.00000000000E+00 0. -1.
         21   -1    0    0  501  502 -0.00000000000E+00 -0.00000000000E+00 -0.27570719675E+03  0.27570719675E+03  0.00000000000E+00 0. -1.
      99926    2    1    2    0    0  0.00000000000E+00  0.00000000000E+00 -0.92823169968E+02  0.45859122354E+03  0.44909884149E+03 0.  0.
      99925    2    3    3    0    0  0.81774213941E+02  0.68494760184E+02 -0.44641948408E+02  0.28728012510E+03  0.26297987087E+03 0.  0.
         25    1    4    4    0    0  0.79425585079E+02  0.39245605261E+02 -0.41301049857E+02  0.15875114462E+03  0.12509000000E+03 0.  0.
         25    1    4    4    0    0  0.23486288617E+01  0.29249154923E+02 -0.33408985509E+01  0.12852898048E+03  0.12509000000E+03 0.  0.
         25    1    3    3    0    0 -0.81774213941E+02 -0.68494760184E+02 -0.48181221560E+02  0.17131109844E+03  0.12509000000E+03 0.  0.
<mgrwt>
<rscale>  2 0.44909884E+03</rscale>
<asrwt>0</asrwt>
<pdfrwt beam="1">  1       21 0.26894710E-01 0.44909884E+03</pdfrwt>
<pdfrwt beam="2">  1       21 0.40545176E-01 0.44909884E+03</pdfrwt>
<totfact> 0.71587036E+04</totfact>
</mgrwt>
</event>
<event>
 6    0  0.4691878E-002  0.4678229E+03  0.7546771E-02  0.1022536E+00
         21   -1    0    0  502  501  0.00000000000E+00  0.00000000000E+00  0.13944912606E+03  0.13944912606E+03  0.00000000000E+00 0. -1.
         21   -1    0    0  501  502 -0.00000000000E+00 -0.00000000000E+00 -0.39236214108E+03  0.39236214108E+03  0.00000000000E+00 0. -1.
      99926    2    1    2    0    0 -0.14210854715E-13  0.00000000000E+00 -0.25291301502E+03  0.53181126714E+03  0.46782286251E+03 0.  0.
         25    1    3    3    0    0 -0.82970685295E+02 -0.21052776769E+02 -0.10844545509E+03  0.18637402946E+03  0.12509000000E+03 0.  0.
         25    1    3    3    0    0  0.86307105554E+02 -0.46034260495E+02 -0.26814664544E+02  0.16104224273E+03  0.12509000000E+03 0.  0.
         25    1    3    3    0    0 -0.33364202587E+01  0.67087037264E+02 -0.11765289539E+03  0.18439499495E+03  0.12509000000E+03 0.  0.
<mgrwt>
<rscale>  2 0.46782286E+03</rscale>
<asrwt>0</asrwt>
<pdfrwt beam="1">  1       21 0.20507224E-01 0.46782286E+03</pdfrwt>
<pdfrwt beam="2">  1       21 0.57700315E-01 0.46782286E+03</pdfrwt>
<totfact> 0.57059502E+04</totfact>
</mgrwt>
</event>
<event>
 7    0  0.4691878E-002  0.4538107E+03  0.7546771E-02  0.1026592E+00
         21   -1    0    0  502  501  0.00000000000E+00  0.00000000000E+00  0.55566019878E+02  0.55566019878E+02  0.00000000000E+00 0. -1.
         21   -1    0    0  501  502 -0.00000000000E+00 -0.00000000000E+00 -0.92657398672E+03  0.92657398672E+03  0.00000000000E+00 0. -1.
      99926    2    1    2    0    0  0.00000000000E+00  0.00000000000E+00 -0.87100796684E+03  0.98214000660E+03  0.45381065904E+03 0.  0.
      99925    2    3    3    0    0 -0.41807564878E+02  0.10227172146E+03 -0.51009198260E+03  0.58450294435E+03  0.26313966586E+03 0.  0.
         25    1    4    4    0    0 -0.58078202042E+02  0.51440115480E+02 -0.30114635270E+03  0.33519516237E+03  0.12509000000E+03 0.  0.
         25    1    4    4    0    0  0.16270637164E+02  0.50831605982E+02 -0.20894562990E+03  0.24930778198E+03  0.12509000000E+03 0.  0.
         25    1    3    3    0    0  0.41807564878E+02 -0.10227172146E+03 -0.36091598424E+03  0.39763706225E+03  0.12509000000E+03 0.  0.
<mgrwt>
<rscale>  2 0.45381066E+03</rscale>
<asrwt>0</asrwt>
<pdfrwt beam="1">  1       21 0.81714738E-02 0.45381066E+03</pdfrwt>
<pdfrwt beam="2">  1       21 0.13626088E+00 0.45381066E+03</pdfrwt>
<totfact> 0.40238634E+04</totfact>
</mgrwt>
</event>
<event>
 7    0  0.4691878E-002  0.4571253E+03  0.7546771E-02  0.1025618E+00
         21   -1    0    0  502  501  0.00000000000E+00  0.00000000000E+00  0.15275462351E+03  0.15275462351E+03  0.00000000000E+00 0.  1.
         21   -1    0    0  501  502 -0.00000000000E+00 -0.00000000000E+00 -0.34199211699E+03  0.34199211699E+03  0.00000000000E+00 0.  1.
      99926    2    1    2    0    0 -0.71054273576E-14  0.00000000000E+00 -0.18923749347E+03  0.49474674050E+03  0.45712526544E+03 0.  0.
      99925    2    3    3    0    0 -0.35671357656E+02 -0.78815893419E+02 -0.36706186931E+02  0.27934549076E+03  0.26306304993E+03 0.  0.
         25    1    4    4    0    0 -0.52429621512E+01 -0.62964772555E+02  0.12315303454E+02  0.14068129241E+03  0.12509000000E+03 0.  0.
         25    1    4    4    0    0 -0.30428395504E+02 -0.15851120864E+02 -0.49021490385E+02  0.13866419835E+03  0.12509000000E+03 0.  0.
         25    1    3    3    0    0  0.35671357656E+02  0.78815893419E+02 -0.15253130654E+03  0.21540124974E+03  0.12509000000E+03 0.  0.
<mgrwt>
<rscale>  2 0.45712527E+03</rscale>
<asrwt>0</asrwt>
<pdfrwt beam="1">  1       21 0.22463915E-01 0.45712527E+03</pdfrwt>
<pdfrwt beam="2">  1       21 0.50292958E-01 0.45712527E+03</pdfrwt>
<totfact> 0.64545430E+04</totfact>
</mgrwt>
</event>
<event>
 7    0  0.4691878E-002  0.4528568E+03  0.7546771E-02  0.1026874E+00
         21   -1    0    0  502  501  0.00000000000E+00  0.00000000000E+00  0.12446481466E+03  0.12446481466E+03  0.00000000000E+00 0.  1.
         21   -1    0    0  501  502 -0.00000000000E+00 -0.00000000000E+00 -0.41192217344E+03  0.41192217344E+03  0.00000000000E+00 0.  1.
      99926    2    1    2    0    0  0.17763568394E-14  0.00000000000E+00 -0.28745735879E+03  0.53638698810E+03  0.45285678518E+03 0.  0.
      99925    2    3    3    0    0 -0.14236200603E+02  0.18643716522E+02 -0.52192844505E+02  0.26890398424E+03  0.26274512774E+03 0.  0.
         25    1    4    4    0    0  0.13046585329E+01  0.37520664180E+02  0.14695349913E+01  0.13061075763E+03  0.12509000000E+03 0.  0.
         25    1    3    3    0    0  0.14236200603E+02 -0.18643716522E+02 -0.23526451428E+03  0.26748300386E+03  0.12509000000E+03 0.  0.
         25    1    4    4    0    0 -0.15540859135E+02 -0.18876947659E+02 -0.53662379496E+02  0.13829322662E+03  0.12509000000E+03 0.  0.
<mgrwt>
<rscale>  2 0.45285679E+03</rscale>
<asrwt>0</asrwt>
<pdfrwt beam="1">  1       21 0.18303649E-01 0.45285679E+03</pdfrwt>
<pdfrwt beam="2">  1       21 0.60576790E-01 0.45285679E+03</pdfrwt>
<totfact> 0.63851353E+04</totfact>
</mgrwt>
</event>
<event>
 7    0  0.4691878E-002  0.4556148E+03  0.7546771E-02  0.1026061E+00
         21   -1    0    0  502  501  0.00000000000E+00  0.00000000000E+00  0.57045641831E+03  0.57045641831E+03  0.00000000000E+00 0.  1.
         21   -1    0    0  501  502 -0.00000000000E+00 -0.00000000000E+00 -0.90973129152E+02  0.90973129152E+02  0.00000000000E+00 0.  1.
      99926    2    1    2    0    0  0.00000000000E+00  0.00000000000E+00  0.47948328916E+03  0.66142954747E+03  0.45561477333E+03 0.  0.
      99925    2    3    3    0    0  0.90965372008E+02  0.67478617099E+02  0.28597647944E+03  0.40467975452E+03  0.26297356189E+03 0.  0.
         25    1    4    4    0    0  0.47747422149E+02  0.71118325141E+01  0.93694339073E+02  0.16357423929E+03  0.12509000000E+03 0.  0.
         25    1    3    3    0    0 -0.90965372008E+02 -0.67478617099E+02  0.19350680972E+03  0.25674979295E+03  0.12509000000E+03 0.  0.
         25    1    4    4    0    0  0.43217949858E+02  0.60366784585E+02  0.19228214037E+03  0.24110551523E+03  0.12509000000E+03 0.  0.
<mgrwt>
<rscale>  2 0.45561477E+03</rscale>
<asrwt>0</asrwt>
<pdfrwt beam="1">  1       21 0.83890649E-01 0.45561477E+03</pdfrwt>
<pdfrwt beam="2">  1       21 0.13378402E-01 0.45561477E+03</pdfrwt>
<totfact> 0.54781173E+04</totfact>
</mgrwt>
</event>
<event>
 7    0  0.4691878E-002  0.4540080E+03  0.7546771E-02  0.1026534E+00
         21   -1    0    0  502  501  0.00000000000E+00  0.00000000000E+00  0.25652501356E+03  0.25652501356E+03  0.00000000000E+00 0. -1.
         21   -1    0    0  501  502 -0.00000000000E+00 -0.00000000000E+00 -0.20088025724E+03  0.20088025724E+03  0.00000000000E+00 0. -1.
      99926    2    1    2    0    0  0.00000000000E+00  0.14210854715E-13  0.55644756328E+02  0.45740527080E+03  0.45400797664E+03 0.  0.
      99925    2    3    3    0    0  0.53350455981E+02  0.96486895450E+02  0.14141746301E+02  0.28557395792E+03  0.26305228435E+03 0.  0.
         25    1    4    4    0    0  0.40888478061E+02  0.18847460135E+02 -0.18591113007E+02  0.13423945759E+03  0.12509000000E+03 0.  0.
         25    1    4    4    0    0  0.12461977921E+02  0.77639435315E+02  0.32732859308E+02  0.15133450032E+03  0.12509000000E+03 0.  0.
         25    1    3    3    0    0 -0.53350455981E+02 -0.96486895450E+02  0.41503010027E+02  0.17183131289E+03  0.12509000000E+03 0.  0.
<mgrwt>
<rscale>  2 0.45400798E+03</rscale>
<asrwt>0</asrwt>
<pdfrwt beam="1">  1       21 0.37724267E-01 0.45400798E+03</pdfrwt>
<pdfrwt beam="2">  1       21 0.29541214E-01 0.45400798E+03</pdfrwt>
<totfact> 0.68913622E+04</totfact>
</mgrwt>
</event>
<event>
 7    0  0.4691878E-002  0.4557275E+03  0.7546771E-02  0.1026028E+00
         21   -1    0    0  502  501  0.00000000000E+00  0.00000000000E+00  0.44291044925E+02  0.44291044925E+02  0.00000000000E+00 0.  1.
         21   -1    0    0  501  502 -0.00000000000E+00 -0.00000000000E+00 -0.11722885359E+04  0.11722885359E+04  0.00000000000E+00 0.  1.
      99926    2    1    2    0    0  0.00000000000E+00  0.00000000000E+00 -0.11279974910E+04  0.12165795808E+04  0.45572748089E+03 0.  0.
      99925    2    3    3    0    0  0.68442529470E+02  0.46010022564E+02 -0.50057729985E+03  0.57151764090E+03  0.26316055691E+03 0.  0.
         25    1    4    4    0    0  0.29697033276E+02 -0.24945437648E+01 -0.17421036390E+03  0.21652920247E+03  0.12509000000E+03 0.  0.
         25    1    3    3    0    0 -0.68442529470E+02 -0.46010022564E+02 -0.62742019111E+03  0.64506193992E+03  0.12509000000E+03 0.  0.
         25    1    4    4    0    0  0.38745496194E+02  0.48504566329E+02 -0.32636693596E+03  0.35498843843E+03  0.12509000000E+03 0.  0.
<mgrwt>
<rscale>  2 0.45572748E+03</rscale>
<asrwt>0</asrwt>
<pdfrwt beam="1">  1       21 0.65133880E-02 0.45572748E+03</pdfrwt>
<pdfrwt beam="2">  1       21 0.17239540E+00 0.45572748E+03</pdfrwt>
<totfact> 0.31456217E+04</totfact>
</mgrwt>
</event>
<event>
 7    0  0.4691878E-002  0.4501888E+03  0.7546771E-02  0.1027666E+00
         21   -1    0    0  502  501  0.00000000000E+00  0.00000000000E+00  0.10372836039E+04  0.10372836039E+04  0.00000000000E+00 0. -1.
         21   -1    0    0  501  502 -0.00000000000E+00 -0.00000000000E+00 -0.48846323149E+02  0.48846323149E+02  0.00000000000E+00 0. -1.
      99926    2    1    2    0    0  0.71054273576E-14  0.00000000000E+00  0.98843728079E+03  0.10861299271E+04  0.45018880535E+03 0.  0.
      99925    2    3    3    0    0 -0.36803904070E+02 -0.58337006254E+02  0.42233983468E+03  0.50228785919E+03  0.26299130001E+03 0.  0.
         25    1    4    4    0    0 -0.32209008206E+02 -0.65271918680E+02  0.19736936214E+03  0.24474479931E+03  0.12509000000E+03 0.  0.
         25    1    4    4    0    0 -0.45948958632E+01  0.69349124263E+01  0.22497047254E+03  0.25754305988E+03  0.12509000000E+03 0.  0.
         25    1    3    3    0    0  0.36803904070E+02  0.58337006254E+02  0.56609744611E+03  0.58384206789E+03  0.12509000000E+03 0.  0.
<mgrwt>
<rscale>  2 0.45018881E+03</rscale>
<asrwt>0</asrwt>
<pdfrwt beam="1">  1       21 0.15254169E+00 0.45018881E+03</pdfrwt>
<pdfrwt beam="2">  1       21 0.71832835E-02 0.45018881E+03</pdfrwt>
<totfact> 0.37361821E+04</totfact>
</mgrwt>
</event>
<event>
 7    0  0.4691878E-002  0.4549717E+03  0.7546771E-02  0.1026250E+00
         21   -1    0    0  502  501  0.00000000000E+00  0.00000000000E+00  0.36700800404E+03  0.36700800404E+03  0.00000000000E+00 0. -1.
         21   -1    0    0  501  502 -0.00000000000E+00 -0.00000000000E+00 -0.14100459486E+03  0.14100459486E+03  0.00000000000E+00 0. -1.
      99926    2    1    2    0    0 -0.14210854715E-13  0.00000000000E+00  0.22600340918E+03  0.50801259889E+03  0.45497171304E+03 0.  0.
      99925    2    3    3    0    0  0.10561089846E+03  0.39342227846E+02  0.13142329371E+03  0.31489507222E+03  0.26303108488E+03 0.  0.
         25    1    4    4    0    0  0.33024117940E+02 -0.15562380204E+02  0.46058037428E+02  0.13820865007E+03  0.12509000000E+03 0.  0.
         25    1    4    4    0    0  0.72586780517E+02  0.54904608051E+02  0.85365256279E+02  0.17668642215E+03  0.12509000000E+03 0.  0.
         25    1    3    3    0    0 -0.10561089846E+03 -0.39342227846E+02  0.94580115474E+02  0.19311752667E+03  0.12509000000E+03 0.  0.
<mgrwt>
<rscale>  2 0.45497171E+03</rscale>
<asrwt>0</asrwt>
<pdfrwt beam="1">  1       21 0.53971765E-01 0.45497171E+03</pdfrwt>
<pdfrwt beam="2">  1       21 0.20735970E-01 0.45497171E+03</pdfrwt>
<totfact> 0.64725869E+04</totfact>
</mgrwt>
</event>
<event>
 7    0  0.4691878E-002  0.4527381E+03  0.7546771E-02  0.1026909E+00
         21   -1    0    0  502  501  0.00000000000E+00  0.00000000000E+00  0.10929570140E+03  0.10929570140E+03  0.00000000000E+00 0.  1.
         21   -1    0    0  501  502 -0.00000000000E+00 -0.00000000000E+00 -0.46884693139E+03  0.46884693139E+03  0.00000000000E+00 0.  1.
      99926    2    1    2    0    0 -0.44408920985E-15  0.14210854715E-13 -0.35955122999E+03  0.57814263278E+03  0.45273813276E+03 0.  0.
      99925    2    3    3    0    0  0.32501645532E+01  0.80565535081E+02 -0.12892828759E+03  0.30366892062E+03  0.26285155696E+03 0.  0.
         25    1    4    4    0    0  0.84009445515E+01  0.54984654625E+02 -0.10758789827E+03  0.17411648993E+03  0.12509000000E+03 0.  0.
         25    1    3    3    0    0 -0.32501645532E+01 -0.80565535081E+02 -0.23062294239E+03  0.27447371217E+03  0.12509000000E+03 0.  0.
         25    1    4    4    0    0 -0.51507799982E+01  0.25580880456E+02 -0.21340389325E+02  0.12955243068E+03  0.12509000000E+03 0.  0.
<mgrwt>
<rscale>  2 0.45273813E+03</rscale>
<asrwt>0</asrwt>
<pdfrwt beam="1">  1       21 0.16072898E-01 0.45273813E+03</pdfrwt>
<pdfrwt beam="2">  1       21 0.68948077E-01 0.45273813E+03</pdfrwt>
<totfact> 0.61130070E+04</totfact>
</mgrwt>
</event>
<event>
 7    0  0.4691878E-002  0.4579886E+03  0.7546771E-02  0.1025366E+00
         21   -1    0    0  502  501  0.00000000000E+00  0.00000000000E+00  0.11926670201E+03  0.11926670201E+03  0.00000000000E+00 0. -1.
         21   -1    0    0  501  502 -0.00000000000E+00 -0.00000000000E+00 -0.43967338968E+03  0.43967338968E+03  0.00000000000E+00 0. -1.
      99926    2    1    2    0    0  0.00000000000E+00 -0.28421709430E-13 -0.32040668766E+03  0.55894009169E+03  0.45798862497E+03 0.  0.
      99925    2    3    3    0    0 -0.36545838303E+02  0.10775989740E+03 -0.22812155807E+03  0.36629573795E+03  0.26303104113E+03 0.  0.
         25    1    4    4    0    0 -0.14551383587E+02  0.82957960321E+02 -0.16070490253E+03  0.22037998943E+03  0.12509000000E+03 0.  0.
         25    1    3    3    0    0  0.36545838303E+02 -0.10775989740E+03 -0.92285129596E+02  0.19264435374E+03  0.12509000000E+03 0.  0.
         25    1    4    4    0    0 -0.21994454716E+02  0.24801937076E+02 -0.67416655538E+02  0.14591574852E+03  0.12509000000E+03 0.  0.
<mgrwt>
<rscale>  2 0.45798862E+03</rscale>
<asrwt>0</asrwt>
<pdfrwt beam="1">  1       21 0.17539221E-01 0.45798862E+03</pdfrwt>
<pdfrwt beam="2">  1       21 0.64657852E-01 0.45798862E+03</pdfrwt>
<totfact> 0.59852050E+04</totfact>
</mgrwt>
</event>
<event>
 7    0  0.4691878E-002  0.4582261E+03  0.7546771E-02  0.1025297E+00
         21   -1    0    0  502  501  0.00000000000E+00  0.00000000000E+00  0.12367431935E+04  0.12367431935E+04  0.00000000000E+00 0.  1.
         21   -1    0    0  501  502 -0.00000000000E+00 -0.00000000000E+00 -0.42444365601E+02  0.42444365601E+02  0.00000000000E+00 0.  1.
      99926    2    1    2    0    0  0.00000000000E+00  0.00000000000E+00  0.11942988279E+04  0.12791875591E+04  0.45822605888E+03 0.  0.
      99925    2    3    3    0    0 -0.40633374103E+02 -0.37109611534E+02  0.46385102214E+03  0.53606596784E+03  0.26302235034E+03 0.  0.
         25    1    4    4    0    0 -0.43065788651E+02 -0.40046802722E+01  0.29491991447E+03  0.32325835436E+03  0.12509000000E+03 0.  0.
         25    1    4    4    0    0  0.24324145477E+01 -0.33104931262E+02  0.16893110768E+03  0.21280761348E+03  0.12509000000E+03 0.  0.
         25    1    3    3    0    0  0.40633374103E+02  0.37109611534E+02  0.73044780574E+03  0.74312159124E+03  0.12509000000E+03 0.  0.
<mgrwt>
<rscale>  2 0.45822606E+03</rscale>
<asrwt>0</asrwt>
<pdfrwt beam="1">  1       21 0.18187398E+00 0.45822606E+03</pdfrwt>
<pdfrwt beam="2">  1       21 0.62418193E-02 0.45822606E+03</pdfrwt>
<totfact> 0.28990542E+04</totfact>
</mgrwt>
</event>
<event>
 7    0  0.4691878E-002  0.4596283E+03  0.7546771E-02  0.1024889E+00
         21   -1    0    0  502  501  0.00000000000E+00  0.00000000000E+00  0.74125486138E+02  0.74125486138E+02  0.00000000000E+00 0. -1.
         21   -1    0    0  501  502 -0.00000000000E+00 -0.00000000000E+00 -0.71250179994E+03  0.71250179994E+03  0.00000000000E+00 0. -1.
      99926    2    1    2    0    0  0.00000000000E+00  0.00000000000E+00 -0.63837631380E+03  0.78662728608E+03  0.45962829458E+03 0.  0.
      99925    2    3    3    0    0 -0.70792509300E+02 -0.51508127728E+02 -0.26586607321E+03  0.38404058232E+03  0.26294055106E+03 0.  0.
         25    1    4    4    0    0 -0.56094203989E+02 -0.62024942756E+02 -0.15297331259E+03  0.21457398657E+03  0.12509000000E+03 0.  0.
         25    1    3    3    0    0  0.70792509300E+02  0.51508127728E+02 -0.37251024059E+03  0.40258670376E+03  0.12509000000E+03 0.  0.
         25    1    4    4    0    0 -0.14698305312E+02  0.10516815028E+02 -0.11289276062E+03  0.16946659576E+03  0.12509000000E+03 0.  0.
<mgrwt>
<rscale>  2 0.45962829E+03</rscale>
<asrwt>0</asrwt>
<pdfrwt beam="1">  1       21 0.10900807E-01 0.45962829E+03</pdfrwt>
<pdfrwt beam="2">  1       21 0.10477968E+00 0.45962829E+03</pdfrwt>
<totfact> 0.46698842E+04</totfact>
</mgrwt>
</event>
<event>
 7    0  0.4691878E-002  0.4651061E+03  0.7546771E-02  0.1023311E+00
         21   -1    0    0  502  501  0.00000000000E+00  0.00000000000E+00  0.16032493928E+03  0.16032493928E+03  0.00000000000E+00 0.  1.
         21   -1    0    0  501  502 -0.00000000000E+00 -0.00000000000E+00 -0.33732075810E+03  0.33732075810E+03  0.00000000000E+00 0.  1.
      99926    2    1    2    0    0  0.00000000000E+00  0.14210854715E-13 -0.17699581882E+03  0.49764569738E+03  0.46510613868E+03 0.  0.
      99925    2    3    3    0    0  0.28543821810E+02 -0.81813937406E+02 -0.17959884302E+02  0.27753616400E+03  0.26305036546E+03 0.  0.
         25    1    3    3    0    0 -0.28543821810E+02  0.81813937406E+02 -0.15903593451E+03  0.22010953338E+03  0.12509000000E+03 0.  0.
         25    1    4    4    0    0  0.36478711979E+02 -0.44747875129E+02 -0.43261415799E+02  0.14440265563E+03  0.12509000000E+03 0.  0.
         25    1    4    4    0    0 -0.79348901689E+01 -0.37066062277E+02  0.25301531497E+02  0.13313350837E+03  0.12509000000E+03 0.  0.
<mgrwt>
<rscale>  2 0.46510614E+03</rscale>
<asrwt>0</asrwt>
<pdfrwt beam="1">  1       21 0.23577197E-01 0.46510614E+03</pdfrwt>
<pdfrwt beam="2">  1       21 0.49605993E-01 0.46510614E+03</pdfrwt>
<totfact> 0.60439870E+04</totfact>
</mgrwt>
</event>
<event>
 7    0  0.4691878E-002  0.4491700E+03  0.7546771E-02  0.1027970E+00
         21   -1    0    0  502  501  0.00000000000E+00  0.00000000000E+00  0.42842390653E+03  0.42842390653E+03  0.00000000000E+00 0. -1.
         21   -1    0    0  501  502 -0.00000000000E+00 -0.00000000000E+00 -0.11773015309E+03  0.11773015309E+03  0.00000000000E+00 0. -1.
      99926    2    1    2    0    0 -0.71054273576E-14  0.00000000000E+00  0.31069375344E+03  0.54615405962E+03  0.44916995494E+03 0.  0.
      99925    2    3    3    0    0 -0.50905906960E+02 -0.93633560677E+02  0.21290106711E+03  0.35492233462E+03  0.26321919418E+03 0.  0.
         25    1    3    3    0    0  0.50905906960E+02  0.93633560677E+02  0.97792686330E+02  0.19123172500E+03  0.12509000000E+03 0.  0.
         25    1    4    4    0    0 -0.64822639790E+02 -0.54101243932E+02  0.12935248191E+03  0.19876743169E+03  0.12509000000E+03 0.  0.
         25    1    4    4    0    0  0.13916732830E+02 -0.39532316745E+02  0.83548585198E+02  0.15615490293E+03  0.12509000000E+03 0.  0.
<mgrwt>
<rscale>  2 0.44916995E+03</rscale>
<asrwt>0</asrwt>
<pdfrwt beam="1">  1       21 0.63003515E-01 0.44916995E+03</pdfrwt>
<pdfrwt beam="2">  1       21 0.17313258E-01 0.44916995E+03</pdfrwt>
<totfact> 0.65071626E+04</totfact>
</mgrwt>
</event>
<event>
 7    0  0.4691878E-002  0.4526140E+03  0.7546771E-02  0.1026945E+00
         21   -1    0    0  502  501  0.00000000000E+00  0.00000000000E+00  0.11131315197E+04  0.11131315197E+04  0.00000000000E+00 0.  1.
         21   -1    0    0  501  502 -0.00000000000E+00 -0.00000000000E+00 -0.46009719443E+02  0.46009719443E+02  0.00000000000E+00 0.  1.
      99926    2    1    2    0    0  0.00000000000E+00  0.88817841970E-15  0.10671218002E+04  0.11591412391E+04  0.45261404717E+03 0.  0.
      99925    2    3    3    0    0 -0.74456414804E+02  0.78984904827E+01  0.46389833514E+03  0.53855103553E+03  0.26311482030E+03 0.  0.
         25    1    3    3    0    0  0.74456414804E+02 -0.78984904827E+01  0.60322346508E+03  0.62059020358E+03  0.12509000000E+03 0.  0.
         25    1    4    4    0    0 -0.61719015909E+02 -0.19888622405E+02  0.28730220303E+03  0.31999196582E+03  0.12509000000E+03 0.  0.
         25    1    4    4    0    0 -0.12737398896E+02  0.27787112887E+02  0.17659613212E+03  0.21855906971E+03  0.12509000000E+03 0.  0.
<mgrwt>
<rscale>  2 0.45261405E+03</rscale>
<asrwt>0</asrwt>
<pdfrwt beam="1">  1       21 0.16369579E+00 0.45261405E+03</pdfrwt>
<pdfrwt beam="2">  1       21 0.67661360E-02 0.45261405E+03</pdfrwt>
<totfact> 0.34108425E+04</totfact>
</mgrwt>
</event>
<event>
 7    0  0.4691878E-002  0.4508207E+03  0.7546771E-02  0.1027478E+00
         21   -1    0    0  502  501  0.00000000000E+00  0.00000000000E+00  0.18366285970E+04  0.18366285970E+04  0.00000000000E+00 0.  1.
         21   -1    0    0  501  502 -0.00000000000E+00 -0.00000000000E+00 -0.27664725979E+02  0.27664725979E+02  0.00000000000E+00 0.  1.
      99926    2    1    2    0    0  0.14210854715E-13  0.22204460493E-14  0.18089638710E+04  0.18642933230E+04  0.45082070432E+03 0.  0.
      99925    2    3    3    0    0  0.10491083684E+03 -0.27546527955E+01  0.10136687580E+04  0.10524092816E+04  0.26273003862E+03 0.  0.
         25    1    3    3    0    0 -0.10491083684E+03  0.27546527955E+01  0.79529511297E+03  0.81188404136E+03  0.12509000000E+03 0.  0.
         25    1    4    4    0    0  0.20506797693E+02  0.24225423712E+02  0.43035288203E+03  0.44928666915E+03  0.12509000000E+03 0.  0.
         25    1    4    4    0    0  0.84404039151E+02 -0.26980076508E+02  0.58331587601E+03  0.60312261246E+03  0.12509000000E+03 0.  0.
<mgrwt>
<rscale>  2 0.45082070E+03</rscale>
<asrwt>0</asrwt>
<pdfrwt beam="1">  1       21 0.27009236E+00 0.45082070E+03</pdfrwt>
<pdfrwt beam="2">  1       21 0.40683433E-02 0.45082070E+03</pdfrwt>
<totfact> 0.16586118E+04</totfact>
</mgrwt>
</event>
<event>
 7    0  0.4691878E-002  0.4551789E+03  0.7546771E-02  0.1026189E+00
         21   -1    0    0  502  501  0.00000000000E+00  0.00000000000E+00  0.23577991288E+03  0.23577991288E+03  0.00000000000E+00 0. -1.
         21   -1    0    0  501  502 -0.00000000000E+00 -0.00000000000E+00 -0.21968353631E+03  0.21968353631E+03  0.00000000000E+00 0. -1.
      99926    2    1    2    0    0  0.00000000000E+00  0.00000000000E+00  0.16096376565E+02  0.45546344919E+03  0.45517893208E+03 0.  0.
      99925    2    3    3    0    0 -0.60282757406E+02  0.92244359307E+02  0.36363877166E+02  0.28753098554E+03  0.26307547096E+03 0.  0.
         25    1    4    4    0    0 -0.45281837730E+02  0.85801644770E+02  0.30703670978E+02  0.16125318783E+03  0.12509000000E+03 0.  0.
         25    1    4    4    0    0 -0.15000919676E+02  0.64427145371E+01  0.56602061877E+01  0.12627779772E+03  0.12509000000E+03 0.  0.
         25    1    3    3    0    0  0.60282757406E+02 -0.92244359307E+02 -0.20267500601E+02  0.16793246364E+03  0.12509000000E+03 0.  0.
<mgrwt>
<rscale>  2 0.45517893E+03</rscale>
<asrwt>0</asrwt>
<pdfrwt beam="1">  1       21 0.34673517E-01 0.45517893E+03</pdfrwt>
<pdfrwt beam="2">  1       21 0.32306402E-01 0.45517893E+03</pdfrwt>
<totfact> 0.68414143E+04</totfact>
</mgrwt>
</event>
<event>
 7    0  0.4691878E-002  0.4521960E+03  0.7546771E-02  0.1027069E+00
         21   -1    0    0  502  501  0.00000000000E+00  0.00000000000E+00  0.33261121169E+03  0.33261121169E+03  0.00000000000E+00 0.  1.
         21   -1    0    0  501  502 -0.00000000000E+00 -0.00000000000E+00 -0.15369384195E+03  0.15369384195E+03  0.00000000000E+00 0.  1.
      99926    2    1    2    0    0  0.00000000000E+00 -0.71054273576E-14  0.17891736975E+03  0.48630505364E+03  0.45219595310E+03 0.  0.
      99925    2    3    3    0    0 -0.81506284394E+02  0.52282653020E+02  0.55789720840E+02  0.28584389474E+03  0.26309216827E+03 0.  0.
         25    1    4    4    0    0 -0.37191140095E+02  0.56818451223E+02  0.56281919831E+02  0.15305776655E+03  0.12509000000E+03 0.  0.
         25    1    4    4    0    0 -0.44315144299E+02 -0.45357982028E+01 -0.49219899033E+00  0.13278612819E+03  0.12509000000E+03 0.  0.
         25    1    3    3    0    0  0.81506284394E+02 -0.52282653020E+02  0.12312764891E+03  0.20046115890E+03  0.12509000000E+03 0.  0.
<mgrwt>
<rscale>  2 0.45219595E+03</rscale>
<asrwt>0</asrwt>
<pdfrwt beam="1">  1       21 0.48913414E-01 0.45219595E+03</pdfrwt>
<pdfrwt beam="2">  1       21 0.22602035E-01 0.45219595E+03</pdfrwt>
<totfact> 0.67739307E+04</totfact>
</mgrwt>
</event>
<event>
 7    0  0.4691878E-002  0.4590456E+03  0.7546771E-02  0.1025058E+00
         21   -1    0    0  502  501  0.00000000000E+00  0.00000000000E+00  0.71548342401E+02  0.71548342401E+02  0.00000000000E+00 0.  1.
         21   -1    0    0  501  502 -0.00000000000E+00 -0.00000000000E+00 -0.73629535875E+03  0.73629535875E+03  0.00000000000E+00 0.  1.
      99926    2    1    2    0    0  0.35527136788E-14  0.00000000000E+00 -0.66474701635E+03  0.80784370115E+03  0.45904558569E+03 0.  0.
      99925    2    3    3    0    0 -0.27584813096E+02  0.11343991268E+03 -0.40242130270E+03  0.49464755838E+03  0.26287595258E+03 0.  0.
         25    1    3    3    0    0  0.27584813096E+02 -0.11343991268E+03 -0.26232571365E+03  0.31319614277E+03  0.12509000000E+03 0.  0.
         25    1    4    4    0    0 -0.39342381769E+02  0.80942271421E+02 -0.25770654789E+03  0.30026596082E+03  0.12509000000E+03 0.  0.
         25    1    4    4    0    0  0.11757568672E+02  0.32497641264E+02 -0.14471475481E+03  0.19438159756E+03  0.12509000000E+03 0.  0.
<mgrwt>
<rscale>  2 0.45904559E+03</rscale>
<asrwt>0</asrwt>
<pdfrwt beam="1">  1       21 0.10521815E-01 0.45904559E+03</pdfrwt>
<pdfrwt beam="2">  1       21 0.10827873E+00 0.45904559E+03</pdfrwt>
<totfact> 0.45912715E+04</totfact>
</mgrwt>
</event>
<event>
 7    0  0.4691878E-002  0.4163289E+03  0.7546771E-02  0.1038268E+00
         21   -1    0    0  502  501  0.00000000000E+00  0.00000000000E+00  0.13613227603E+03  0.13613227603E+03  0.00000000000E+00 0. -1.
         21   -1    0    0  501  502 -0.00000000000E+00 -0.00000000000E+00 -0.31831123284E+03  0.31831123284E+03  0.00000000000E+00 0. -1.
      99926    2    1    2    0    0  0.00000000000E+00  0.00000000000E+00 -0.18217895682E+03  0.45444350887E+03  0.41632887294E+03 0.  0.
      99925    2    3    3    0    0 -0.21052153443E+02 -0.58773990580E+01 -0.45025622105E+02  0.26753100980E+03  0.26280752953E+03 0.  0.
         25    1    4    4    0    0 -0.30198962150E+02 -0.25848471089E+02  0.41992792556E+01  0.13132121999E+03  0.12509000000E+03 0.  0.
         25    1    3    3    0    0  0.21052153443E+02  0.58773990580E+01 -0.13715333471E+03  0.18691249907E+03  0.12509000000E+03 0.  0.
         25    1    4    4    0    0  0.91468087069E+01  0.19971072031E+02 -0.49224901361E+02  0.13620978982E+03  0.12509000000E+03 0.  0.
<mgrwt>
<rscale>  2 0.41632887E+03</rscale>
<asrwt>0</asrwt>
<pdfrwt beam="1">  1       21 0.20019452E-01 0.41632887E+03</pdfrwt>
<pdfrwt beam="2">  1       21 0.46810475E-01 0.41632887E+03</pdfrwt>
<totfact> 0.94430875E+04</totfact>
</mgrwt>
</event>
<event>
 7    0  0.4691878E-002  0.4617925E+03  0.7546771E-02  0.1024263E+00
         21   -1    0    0  502  501  0.00000000000E+00  0.00000000000E+00  0.18453547592E+03  0.18453547592E+03  0.00000000000E+00 0. -1.
         21   -1    0    0  501  502 -0.00000000000E+00 -0.00000000000E+00 -0.28890419309E+03  0.28890419309E+03  0.00000000000E+00 0. -1.
      99926    2    1    2    0    0 -0.35527136788E-14  0.00000000000E+00 -0.10436871717E+03  0.47343966902E+03  0.46179247620E+03 0.  0.
      99925    2    3    3    0    0  0.16081196742E+02  0.57022550064E+02  0.41285701543E+02  0.27250959687E+03  0.26276756864E+03 0.  0.
         25    1    4    4    0    0 -0.27025519407E+02  0.28842708391E+02  0.40274391873E+02  0.13722906131E+03  0.12509000000E+03 0.  0.
         25    1    3    3    0    0 -0.16081196742E+02 -0.57022550064E+02 -0.14565441871E+03  0.20093007215E+03  0.12509000000E+03 0.  0.
         25    1    4    4    0    0  0.43106716149E+02  0.28179841673E+02  0.10113096699E+01  0.13528053556E+03  0.12509000000E+03 0.  0.
<mgrwt>
<rscale>  2 0.46179248E+03</rscale>
<asrwt>0</asrwt>
<pdfrwt beam="1">  1       21 0.27137570E-01 0.46179248E+03</pdfrwt>
<pdfrwt beam="2">  1       21 0.42485910E-01 0.46179248E+03</pdfrwt>
<totfact> 0.63679944E+04</totfact>
</mgrwt>
</event>
<event>
 7    0  0.4691878E-002  0.4354113E+03  0.7546771E-02  0.1032164E+00
         21   -1    0    0  502  501  0.00000000000E+00  0.00000000000E+00  0.30235960021E+03  0.30235960021E+03  0.00000000000E+00 0. -1.
         21   -1    0    0  501  502 -0.00000000000E+00 -0.00000000000E+00 -0.15675292805E+03  0.15675292805E+03  0.00000000000E+00 0. -1.
      99926    2    1    2    0    0  0.00000000000E+00  0.00000000000E+00  0.14560667216E+03  0.45911252826E+03  0.43541131201E+03 0.  0.
      99925    2    3    3    0    0 -0.59738849888E+02 -0.72022479687E+02  0.92556607617E+02  0.29413439270E+03  0.26304438330E+03 0.  0.
         25    1    3    3    0    0  0.59738849888E+02  0.72022479687E+02  0.53050064544E+02  0.16497813556E+03  0.12509000000E+03 0.  0.
         25    1    4    4    0    0 -0.58083336133E+02 -0.48223439993E+02  0.78931904248E+02  0.16606302331E+03  0.12509000000E+03 0.  0.
         25    1    4    4    0    0 -0.16555137555E+01 -0.23799039693E+02  0.13624703369E+02  0.12807136939E+03  0.12509000000E+03 0.  0.
<mgrwt>
<rscale>  2 0.43541131E+03</rscale>
<asrwt>0</asrwt>
<pdfrwt beam="1">  1       21 0.44464647E-01 0.43541131E+03</pdfrwt>
<pdfrwt beam="2">  1       21 0.23051901E-01 0.43541131E+03</pdfrwt>
<totfact> 0.79980604E+04</totfact>
</mgrwt>
</event>
<event>
 7    0  0.4691878E-002  0.4554656E+03  0.7546771E-02  0.1026105E+00
         21   -1    0    0  502  501  0.00000000000E+00  0.00000000000E+00  0.64691640903E+02  0.64691640903E+02  0.00000000000E+00 0. -1.
         21   -1    0    0  501  502 -0.00000000000E+00 -0.00000000000E+00 -0.80168354152E+03  0.80168354152E+03  0.00000000000E+00 0. -1.
      99926    2    1    2    0    0 -0.14210854715E-13 -0.10269562978E-14 -0.73699190061E+03  0.86637518242E+03  0.45546558063E+03 0.  0.
      99925    2    3    3    0    0  0.11315729325E+03 -0.12459542427E+00 -0.48340960027E+03  0.56181635446E+03  0.26296042662E+03 0.  0.
         25    1    4    4    0    0  0.96469289892E+02  0.12768533939E+02 -0.29087681854E+03  0.33124943927E+03  0.12509000000E+03 0.  0.
         25    1    4    4    0    0  0.16688003358E+02 -0.12893129363E+02 -0.19253278173E+03  0.23056691519E+03  0.12509000000E+03 0.  0.
         25    1    3    3    0    0 -0.11315729325E+03  0.12459542427E+00 -0.25358230034E+03  0.30455882796E+03  0.12509000000E+03 0.  0.
<mgrwt>
<rscale>  2 0.45546558E+03</rscale>
<asrwt>0</asrwt>
<pdfrwt beam="1">  1       21 0.95134770E-02 0.45546558E+03</pdfrwt>
<pdfrwt beam="2">  1       21 0.11789463E+00 0.45546558E+03</pdfrwt>
<totfact> 0.44552501E+04</totfact>
</mgrwt>
</event>
<event>
 7    0  0.4691878E-002  0.4514080E+03  0.7546771E-02  0.1027303E+00
         21   -1    0    0  502  501  0.00000000000E+00  0.00000000000E+00  0.56232201278E+03  0.56232201278E+03  0.00000000000E+00 0.  1.
         21   -1    0    0  501  502 -0.00000000000E+00 -0.00000000000E+00 -0.90592761707E+02  0.90592761707E+02  0.00000000000E+00 0.  1.
      99926    2    1    2    0    0  0.00000000000E+00  0.35527136788E-14  0.47172925107E+03  0.65291477448E+03  0.45140803762E+03 0.  0.
      99925    2    3    3    0    0  0.10473028639E+03  0.28073532824E+02  0.27367658625E+03  0.39478898679E+03  0.26306446756E+03 0.  0.
         25    1    4    4    0    0  0.59059754205E+02 -0.25637486041E+02  0.12706534836E+03  0.18957438148E+03  0.12509000000E+03 0.  0.
         25    1    3    3    0    0 -0.10473028639E+03 -0.28073532824E+02  0.19805266482E+03  0.25812578770E+03  0.12509000000E+03 0.  0.
         25    1    4    4    0    0  0.45670532186E+02  0.53711018866E+02  0.14661123789E+03  0.20521460531E+03  0.12509000000E+03 0.  0.
<mgrwt>
<rscale>  2 0.45140804E+03</rscale>
<asrwt>0</asrwt>
<pdfrwt beam="1">  1       21 0.82694412E-01 0.45140804E+03</pdfrwt>
<pdfrwt beam="2">  1       21 0.13322465E-01 0.45140804E+03</pdfrwt>
<totfact> 0.57135593E+04</totfact>
</mgrwt>
</event>
<event>
 7    0  0.4691878E-002  0.4537933E+03  0.7546771E-02  0.1026597E+00
         21   -1    0    0  502  501  0.00000000000E+00  0.00000000000E+00  0.89986524671E+02  0.89986524671E+02  0.00000000000E+00 0. -1.
         21   -1    0    0  501  502 -0.00000000000E+00 -0.00000000000E+00 -0.57210883503E+03  0.57210883503E+03  0.00000000000E+00 0. -1.
      99926    2    1    2    0    0  0.00000000000E+00  0.00000000000E+00 -0.48212231036E+03  0.66209535971E+03  0.45379328245E+03 0.  0.
      99925    2    3    3    0    0  0.27769891302E+02 -0.71319961342E+02 -0.18397638751E+03  0.32983611881E+03  0.26284377558E+03 0.  0.
         25    1    3    3    0    0 -0.27769891302E+02  0.71319961342E+02 -0.29814592285E+03  0.33225924090E+03  0.12509000000E+03 0.  0.
         25    1    4    4    0    0 -0.47968172119E+01 -0.56658946963E+02 -0.59325932207E+02  0.14966736471E+03  0.12509000000E+03 0.  0.
         25    1    4    4    0    0  0.32566708514E+02 -0.14661014379E+02 -0.12465045530E+03  0.18016875410E+03  0.12509000000E+03 0.  0.
<mgrwt>
<rscale>  2 0.45379328E+03</rscale>
<asrwt>0</asrwt>
<pdfrwt beam="1">  1       21 0.13233312E-01 0.45379328E+03</pdfrwt>
<pdfrwt beam="2">  1       21 0.84133653E-01 0.45379328E+03</pdfrwt>
<totfact> 0.55535885E+04</totfact>
</mgrwt>
</event>
<event>
 7    0  0.4691878E-002  0.4486869E+03  0.7546771E-02  0.1028114E+00
         21   -1    0    0  502  501  0.00000000000E+00  0.00000000000E+00  0.35926127131E+03  0.35926127131E+03  0.00000000000E+00 0. -1.
         21   -1    0    0  501  502 -0.00000000000E+00 -0.00000000000E+00 -0.14009299708E+03  0.14009299708E+03  0.00000000000E+00 0. -1.
      99926    2    1    2    0    0  0.14210854715E-13  0.00000000000E+00  0.21916827422E+03  0.49935426839E+03  0.44868692084E+03 0.  0.
      99925    2    3    3    0    0 -0.75018832827E+02 -0.74614939781E+02  0.15682572345E+03  0.32405647532E+03  0.26310278817E+03 0.  0.
         25    1    3    3    0    0  0.75018832827E+02  0.74614939781E+02  0.62342550769E+02  0.17529779307E+03  0.12509000000E+03 0.  0.
         25    1    4    4    0    0 -0.74861779941E+02 -0.59451898614E+02  0.82063606175E+02  0.17754086263E+03  0.12509000000E+03 0.  0.
         25    1    4    4    0    0 -0.15705288594E+00 -0.15163041167E+02  0.74762117279E+02  0.14651561269E+03  0.12509000000E+03 0.  0.
<mgrwt>
<rscale>  2 0.44868692E+03</rscale>
<asrwt>0</asrwt>
<pdfrwt beam="1">  1       21 0.52832540E-01 0.44868692E+03</pdfrwt>
<pdfrwt beam="2">  1       21 0.20601911E-01 0.44868692E+03</pdfrwt>
<totfact> 0.68694377E+04</totfact>
</mgrwt>
</event>
<event>
 7    0  0.4691878E-002  0.4505402E+03  0.7546771E-02  0.1027561E+00
         21   -1    0    0  502  501  0.00000000000E+00  0.00000000000E+00  0.32382374496E+03  0.32382374496E+03  0.00000000000E+00 0. -1.
         21   -1    0    0  501  502 -0.00000000000E+00 -0.00000000000E+00 -0.15671063245E+03  0.15671063245E+03  0.00000000000E+00 0. -1.
      99926    2    1    2    0    0  0.00000000000E+00  0.00000000000E+00  0.16711311251E+03  0.48053437741E+03  0.45054022629E+03 0.  0.
      99925    2    3    3    0    0 -0.50096772970E+02 -0.90354668377E+02  0.68728315942E+02  0.29079579658E+03  0.26299232145E+03 0.  0.
         25    1    3    3    0    0  0.50096772970E+02  0.90354668377E+02  0.98384796568E+02  0.18973858083E+03  0.12509000000E+03 0.  0.
         25    1    4    4    0    0 -0.38318906721E+02 -0.30852063301E+02 -0.28160028190E+01  0.13444562616E+03  0.12509000000E+03 0.  0.
         25    1    4    4    0    0 -0.11777866249E+02 -0.59502605075E+02  0.71544318761E+02  0.15635017042E+03  0.12509000000E+03 0.  0.
<mgrwt>
<rscale>  2 0.45054023E+03</rscale>
<asrwt>0</asrwt>
<pdfrwt beam="1">  1       21 0.47621139E-01 0.45054023E+03</pdfrwt>
<pdfrwt beam="2">  1       21 0.23045681E-01 0.45054023E+03</pdfrwt>
<totfact> 0.69074398E+04</totfact>
</mgrwt>
</event>
<event>
 7    0  0.4691878E-002  0.4483605E+03  0.7546771E-02  0.1028212E+00
         21   -1    0    0  502  501  0.00000000000E+00  0.00000000000E+00  0.10272695297E+03  0.10272695297E+03  0.00000000000E+00 0. -1.
         21   -1    0    0  501  502 -0.00000000000E+00 -0.00000000000E+00 -0.48922676522E+03  0.48922676522E+03  0.00000000000E+00 0. -1.
      99926    2    1    2    0    0  0.00000000000E+00 -0.35527136788E-14 -0.38649981224E+03  0.59195371819E+03  0.44836045724E+03 0.  0.
      99925    2    3    3    0    0  0.49173703365E+02 -0.28655625611E+02 -0.12545015714E+03  0.29693909396E+03  0.26305110837E+03 0.  0.
         25    1    4    4    0    0  0.48975630180E+02 -0.29086401347E+01 -0.30467407950E+02  0.13777824061E+03  0.12509000000E+03 0.  0.
         25    1    4    4    0    0  0.19807318439E+00 -0.25746985476E+02 -0.94982749187E+02  0.15916085334E+03  0.12509000000E+03 0.  0.
         25    1    3    3    0    0 -0.49173703365E+02  0.28655625611E+02 -0.26104965511E+03  0.29501462424E+03  0.12509000000E+03 0.  0.
<mgrwt>
<rscale>  2 0.44836046E+03</rscale>
<asrwt>0</asrwt>
<pdfrwt beam="1">  1       21 0.15106905E-01 0.44836046E+03</pdfrwt>
<pdfrwt beam="2">  1       21 0.71945114E-01 0.44836046E+03</pdfrwt>
<totfact> 0.62385886E+04</totfact>
</mgrwt>
</event>
<event>
 7    0  0.4691878E-002  0.4544665E+03  0.7546771E-02  0.1026398E+00
         21   -1    0    0  502  501  0.00000000000E+00  0.00000000000E+00  0.12685946477E+04  0.12685946477E+04  0.00000000000E+00 0. -1.
         21   -1    0    0  501  502 -0.00000000000E+00 -0.00000000000E+00 -0.40702486605E+02  0.40702486605E+02  0.00000000000E+00 0. -1.
      99926    2    1    2    0    0  0.00000000000E+00  0.35527136788E-14  0.12278921611E+04  0.13092971343E+04  0.45446652970E+03 0.  0.
      99925    2    3    3    0    0  0.44652592132E+02  0.22834864030E+02  0.10633896146E+04  0.10966380623E+04  0.26325326637E+03 0.  0.
         25    1    4    4    0    0 -0.44540314336E+00 -0.23060393681E+02  0.52140749796E+03  0.53669848813E+03  0.12509000000E+03 0.  0.
         25    1    3    3    0    0 -0.44652592132E+02 -0.22834864030E+02  0.16450254647E+03  0.21265907198E+03  0.12509000000E+03 0.  0.
         25    1    4    4    0    0  0.45097995275E+02  0.45895257711E+02  0.54198211663E+03  0.55993957415E+03  0.12509000000E+03 0.  0.
<mgrwt>
<rscale>  2 0.45446653E+03</rscale>
<asrwt>0</asrwt>
<pdfrwt beam="1">  1       21 0.18655801E+00 0.45446653E+03</pdfrwt>
<pdfrwt beam="2">  1       21 0.59856606E-02 0.45446653E+03</pdfrwt>
<totfact> 0.28965850E+04</totfact>
</mgrwt>
</event>
<event>
 7    0  0.4691878E-002  0.4721012E+03  0.7546771E-02  0.1021329E+00
         21   -1    0    0  502  501  0.00000000000E+00  0.00000000000E+00  0.20311758898E+02  0.20311758898E+02  0.00000000000E+00 0. -1.
         21   -1    0    0  501  502 -0.00000000000E+00 -0.00000000000E+00 -0.27432324171E+04  0.27432324171E+04  0.00000000000E+00 0. -1.
      99926    2    1    2    0    0  0.00000000000E+00  0.00000000000E+00 -0.27229206582E+04  0.27635441760E+04  0.47210115635E+03 0.  0.
      99925    2    3    3    0    0  0.12383736798E+03  0.34689889270E+02 -0.16723189486E+04  0.16977343701E+04  0.26289207537E+03 0.  0.
         25    1    4    4    0    0  0.96906906986E+02  0.12451430997E+02 -0.77716193781E+03  0.79320500026E+03  0.12509000000E+03 0.  0.
         25    1    4    4    0    0  0.26930460995E+02  0.22238458273E+02 -0.89515701079E+03  0.90452936980E+03  0.12509000000E+03 0.  0.
         25    1    3    3    0    0 -0.12383736798E+03 -0.34689889270E+02 -0.10506017096E+04  0.10658098059E+04  0.12509000000E+03 0.  0.
<mgrwt>
<rscale>  2 0.47210116E+03</rscale>
<asrwt>0</asrwt>
<pdfrwt beam="1">  1       21 0.29870236E-02 0.47210116E+03</pdfrwt>
<pdfrwt beam="2">  1       21 0.40341650E+00 0.47210116E+03</pdfrwt>
<totfact> 0.42060786E+03</totfact>
</mgrwt>
</event>
<event>
 7    0  0.4691878E-002  0.4600590E+03  0.7546771E-02  0.1024764E+00
         21   -1    0    0  502  501  0.00000000000E+00  0.00000000000E+00  0.11802158431E+03  0.11802158431E+03  0.00000000000E+00 0.  1.
         21   -1    0    0  501  502 -0.00000000000E+00 -0.00000000000E+00 -0.44833807637E+03  0.44833807637E+03  0.00000000000E+00 0.  1.
      99926    2    1    2    0    0  0.00000000000E+00 -0.35527136788E-14 -0.33031649206E+03  0.56635966069E+03  0.46005899657E+03 0.  0.
      99925    2    3    3    0    0 -0.10077733581E+03 -0.16240091290E+02 -0.27932010167E+03  0.39704353059E+03  0.26306659615E+03 0.  0.
         25    1    3    3    0    0  0.10077733581E+03  0.16240091290E+02 -0.50996390394E+02  0.16931613010E+03  0.12509000000E+03 0.  0.
         25    1    4    4    0    0 -0.22533088429E+02  0.22489975644E+02 -0.14047312451E+03  0.19077144935E+03  0.12509000000E+03 0.  0.
         25    1    4    4    0    0 -0.78244247377E+02 -0.38730066934E+02 -0.13884697716E+03  0.20627208124E+03  0.12509000000E+03 0.  0.
<mgrwt>
<rscale>  2 0.46005900E+03</rscale>
<asrwt>0</asrwt>
<pdfrwt beam="1">  1       21 0.17356115E-01 0.46005900E+03</pdfrwt>
<pdfrwt beam="2">  1       21 0.65932070E-01 0.46005900E+03</pdfrwt>
<totfact> 0.58425299E+04</totfact>
</mgrwt>
</event>
<event>
 7    0  0.4691878E-002  0.4550779E+03  0.7546771E-02  0.1026218E+00
         21   -1    0    0  502  501  0.00000000000E+00  0.00000000000E+00  0.10707413086E+03  0.10707413086E+03  0.00000000000E+00 0.  1.
         21   -1    0    0  501  502 -0.00000000000E+00 -0.00000000000E+00 -0.48353395370E+03  0.48353395370E+03  0.00000000000E+00 0.  1.
      99926    2    1    2    0    0 -0.71054273576E-14  0.00000000000E+00 -0.37645982284E+03  0.59060808457E+03  0.45507791788E+03 0.  0.
      99925    2    3    3    0    0  0.61101531397E+02  0.52109063963E+02 -0.13317700515E+03  0.30550671809E+03  0.26296290311E+03 0.  0.
         25    1    4    4    0    0  0.13541522767E+02  0.18745594317E+01 -0.30414784248E+02  0.12945830994E+03  0.12509000000E+03 0.  0.
         25    1    4    4    0    0  0.47560008630E+02  0.50234504532E+02 -0.10276222091E+03  0.17604840815E+03  0.12509000000E+03 0.  0.
         25    1    3    3    0    0 -0.61101531397E+02 -0.52109063963E+02 -0.24328281769E+03  0.28510136648E+03  0.12509000000E+03 0.  0.
<mgrwt>
<rscale>  2 0.45507792E+03</rscale>
<asrwt>0</asrwt>
<pdfrwt beam="1">  1       21 0.15746195E-01 0.45507792E+03</pdfrwt>
<pdfrwt beam="2">  1       21 0.71107936E-01 0.45507792E+03</pdfrwt>
<totfact> 0.59223639E+04</totfact>
</mgrwt>
</event>
<event>
 7    0  0.4691878E-002  0.4501260E+03  0.7546771E-02  0.1027684E+00
         21   -1    0    0  502  501  0.00000000000E+00  0.00000000000E+00  0.50366508580E+03  0.50366508580E+03  0.00000000000E+00 0.  1.
         21   -1    0    0  501  502 -0.00000000000E+00 -0.00000000000E+00 -0.10056953492E+03  0.10056953492E+03  0.00000000000E+00 0.  1.
      99926    2    1    2    0    0  0.00000000000E+00  0.00000000000E+00  0.40309555088E+03  0.60423462072E+03  0.45012604206E+03 0.  0.
      99925    2    3    3    0    0  0.97858652840E+02 -0.41160016357E+02  0.28223451319E+03  0.40045689521E+03  0.26351269724E+03 0.  0.
         25    1    3    3    0    0 -0.97858652840E+02  0.41160016357E+02  0.12086103769E+03  0.20377772551E+03  0.12509000000E+03 0.  0.
         25    1    4    4    0    0  0.26920709730E+02 -0.27864788722E+02  0.85452598195E+02  0.15636759799E+03  0.12509000000E+03 0.  0.
         25    1    4    4    0    0  0.70937943109E+02 -0.13295227635E+02  0.19678191499E+03  0.24408929722E+03  0.12509000000E+03 0.  0.
<mgrwt>
<rscale>  2 0.45012604E+03</rscale>
<asrwt>0</asrwt>
<pdfrwt beam="1">  1       21 0.74068394E-01 0.45012604E+03</pdfrwt>
<pdfrwt beam="2">  1       21 0.14789638E-01 0.45012604E+03</pdfrwt>
<totfact> 0.60722927E+04</totfact>
</mgrwt>
</event>
<event>
 7    0  0.4691878E-002  0.4567700E+03  0.7546771E-02  0.1025722E+00
         21   -1    0    0  502  501  0.00000000000E+00  0.00000000000E+00  0.94612360569E+03  0.94612360569E+03  0.00000000000E+00 0. -1.
         21   -1    0    0  501  502 -0.00000000000E+00 -0.00000000000E+00 -0.55129903237E+02  0.55129903237E+02  0.00000000000E+00 0. -1.
      99926    2    1    2    0    0  0.00000000000E+00  0.00000000000E+00  0.89099370245E+03  0.10012535089E+04  0.45676997639E+03 0.  0.
      99925    2    3    3    0    0 -0.50580636498E+02 -0.86508877665E+02  0.43740213199E+03  0.52017658410E+03  0.26309858775E+03 0.  0.
         25    1    4    4    0    0 -0.19928154428E+02 -0.17751400772E+02  0.26507009181E+03  0.29431599555E+03  0.12509000000E+03 0.  0.
         25    1    4    4    0    0 -0.30652482071E+02 -0.68757476894E+02  0.17233204018E+03  0.22586058855E+03  0.12509000000E+03 0.  0.
         25    1    3    3    0    0  0.50580636498E+02  0.86508877665E+02  0.45359157047E+03  0.48107692483E+03  0.12509000000E+03 0.  0.
<mgrwt>
<rscale>  2 0.45676998E+03</rscale>
<asrwt>0</asrwt>
<pdfrwt beam="1">  1       21 0.13913581E+00 0.45676998E+03</pdfrwt>
<pdfrwt beam="2">  1       21 0.81073393E-02 0.45676998E+03</pdfrwt>
<totfact> 0.38581998E+04</totfact>
</mgrwt>
</event>
<event>
 6    0  0.4691878E-002  0.4562697E+03  0.7546771E-02  0.1025869E+00
         21   -1    0    0  502  501  0.00000000000E+00  0.00000000000E+00  0.43268298603E+03  0.43268298603E+03  0.00000000000E+00 0. -1.
         21   -1    0    0  501  502 -0.00000000000E+00 -0.00000000000E+00 -0.12028553675E+03  0.12028553675E+03  0.00000000000E+00 0. -1.
      99926    2    1    2    0    0  0.00000000000E+00  0.00000000000E+00  0.31239744928E+03  0.55296852278E+03  0.45626967999E+03 0.  0.
         25    1    3    3    0    0 -0.79349152722E+02  0.28701864844E+02  0.55662739085E+02  0.16082889574E+03  0.12509000000E+03 0.  0.
         25    1    3    3    0    0  0.77133739664E+02 -0.58154154142E+02  0.90885084384E+02  0.18231600616E+03  0.12509000000E+03 0.  0.
         25    1    3    3    0    0  0.22154130579E+01  0.29452289298E+02  0.16584962581E+03  0.20982362088E+03  0.12509000000E+03 0.  0.
<mgrwt>
<rscale>  2 0.45626968E+03</rscale>
<asrwt>0</asrwt>
<pdfrwt beam="1">  1       21 0.63629850E-01 0.45626968E+03</pdfrwt>
<pdfrwt beam="2">  1       21 0.17689050E-01 0.45626968E+03</pdfrwt>
<totfact> 0.61055170E+04</totfact>
</mgrwt>
</event>
<event>
 7    0  0.4691878E-002  0.4541654E+03  0.7546771E-02  0.1026487E+00
         21   -1    0    0  502  501  0.00000000000E+00  0.00000000000E+00  0.56826472825E+03  0.56826472825E+03  0.00000000000E+00 0. -1.
         21   -1    0    0  501  502 -0.00000000000E+00 -0.00000000000E+00 -0.90743906735E+02  0.90743906735E+02  0.00000000000E+00 0. -1.
      99926    2    1    2    0    0  0.00000000000E+00  0.00000000000E+00  0.47752082151E+03  0.65900863498E+03  0.45416543902E+03 0.  0.
      99925    2    3    3    0    0  0.96795953131E+02  0.16414946424E+02  0.38005333290E+03  0.47249770650E+03  0.26301072181E+03 0.  0.
         25    1    4    4    0    0  0.85291432484E+02 -0.45600343590E+01  0.17881820565E+03  0.23434777819E+03  0.12509000000E+03 0.  0.
         25    1    3    3    0    0 -0.96795953131E+02 -0.16414946424E+02  0.97467488610E+02  0.18651092849E+03  0.12509000000E+03 0.  0.
         25    1    4    4    0    0  0.11504520648E+02  0.20974980783E+02  0.20123512725E+03  0.23814992831E+03  0.12509000000E+03 0.  0.
<mgrwt>
<rscale>  2 0.45416544E+03</rscale>
<asrwt>0</asrwt>
<pdfrwt beam="1">  1       21 0.83568341E-01 0.45416544E+03</pdfrwt>
<pdfrwt beam="2">  1       21 0.13344692E-01 0.45416544E+03</pdfrwt>
<totfact> 0.55549833E+04</totfact>
</mgrwt>
</event>
<event>
 7    0  0.4691878E-002  0.4555188E+03  0.7546771E-02  0.1026089E+00
         21   -1    0    0  502  501  0.00000000000E+00  0.00000000000E+00  0.59459735560E+03  0.59459735560E+03  0.00000000000E+00 0.  1.
         21   -1    0    0  501  502 -0.00000000000E+00 -0.00000000000E+00 -0.87242818327E+02  0.87242818327E+02  0.00000000000E+00 0.  1.
      99926    2    1    2    0    0 -0.71054273576E-14  0.14210854715E-13  0.50735453727E+03  0.68184017392E+03  0.45551882100E+03 0.  0.
      99925    2    3    3    0    0 -0.47243339448E+02  0.77225725452E+02  0.21632046398E+03  0.35237987934E+03  0.26302336480E+03 0.  0.
         25    1    4    4    0    0 -0.19495692769E+02  0.64645522818E+02  0.15320864652E+03  0.20899646678E+03  0.12509000000E+03 0.  0.
         25    1    4    4    0    0 -0.27747646678E+02  0.12580202634E+02  0.63111817464E+02  0.14338341256E+03  0.12509000000E+03 0.  0.
         25    1    3    3    0    0  0.47243339448E+02 -0.77225725452E+02  0.29103407329E+03  0.32946029459E+03  0.12509000000E+03 0.  0.
<mgrwt>
<rscale>  2 0.45551882E+03</rscale>
<asrwt>0</asrwt>
<pdfrwt beam="1">  1       21 0.87440785E-01 0.45551882E+03</pdfrwt>
<pdfrwt beam="2">  1       21 0.12829827E-01 0.45551882E+03</pdfrwt>
<totfact> 0.53680770E+04</totfact>
</mgrwt>
</event>
<event>
 7    0  0.4691878E-002  0.4515822E+03  0.7546771E-02  0.1027251E+00
         21   -1    0    0  502  501  0.00000000000E+00  0.00000000000E+00  0.40830467010E+02  0.40830467010E+02  0.00000000000E+00 0. -1.
         21   -1    0    0  501  502 -0.00000000000E+00 -0.00000000000E+00 -0.12486169535E+04  0.12486169535E+04  0.00000000000E+00 0. -1.
      99926    2    1    2    0    0  0.00000000000E+00  0.00000000000E+00 -0.12077864865E+04  0.12894474205E+04  0.45158216673E+03 0.  0.
      99925    2    3    3    0    0  0.61695693320E+02 -0.77556508235E+02 -0.62474570825E+03  0.68495968057E+03  0.26275690949E+03 0.  0.
         25    1    3    3    0    0 -0.61695693320E+02  0.77556508235E+02 -0.58304077820E+03  0.60448773990E+03  0.12509000000E+03 0.  0.
         25    1    4    4    0    0  0.55324939506E+02 -0.63596956706E+02 -0.28252271822E+03  0.32026866260E+03  0.12509000000E+03 0.  0.
         25    1    4    4    0    0  0.63707538137E+01 -0.13959551529E+02 -0.34222299003E+03  0.36469101797E+03  0.12509000000E+03 0.  0.
<mgrwt>
<rscale>  2 0.45158217E+03</rscale>
<asrwt>0</asrwt>
<pdfrwt beam="1">  1       21 0.60044812E-02 0.45158217E+03</pdfrwt>
<pdfrwt beam="2">  1       21 0.18362012E+00 0.45158217E+03</pdfrwt>
<totfact> 0.30218088E+04</totfact>
</mgrwt>
</event>
<event>
 7    0  0.4691878E-002  0.4577207E+03  0.7546771E-02  0.1025444E+00
         21   -1    0    0  502  501  0.00000000000E+00  0.00000000000E+00  0.14732276035E+03  0.14732276035E+03  0.00000000000E+00 0.  1.
         21   -1    0    0  501  502 -0.00000000000E+00 -0.00000000000E+00 -0.35552598026E+03  0.35552598026E+03  0.00000000000E+00 0.  1.
      99926    2    1    2    0    0 -0.14210854715E-13 -0.71054273576E-14 -0.20820321991E+03  0.50284874060E+03  0.45772073926E+03 0.  0.
      99925    2    3    3    0    0  0.72430588598E+02  0.41908136249E+02 -0.43065326726E+02  0.27941974984E+03  0.26309369469E+03 0.  0.
         25    1    4    4    0    0  0.80466209321E+01  0.37170190626E+02 -0.46064550553E+02  0.13862114592E+03  0.12509000000E+03 0.  0.
         25    1    4    4    0    0  0.64383967666E+02  0.47379456231E+01  0.29992238270E+01  0.14079860392E+03  0.12509000000E+03 0.  0.
         25    1    3    3    0    0 -0.72430588598E+02 -0.41908136249E+02 -0.16513789318E+03  0.22342899076E+03  0.12509000000E+03 0.  0.
<mgrwt>
<rscale>  2 0.45772074E+03</rscale>
<asrwt>0</asrwt>
<pdfrwt beam="1">  1       21 0.21665112E-01 0.45772074E+03</pdfrwt>
<pdfrwt beam="2">  1       21 0.52283231E-01 0.45772074E+03</pdfrwt>
<totfact> 0.63684451E+04</totfact>
</mgrwt>
</event>
<event>
 7    0  0.4691878E-002  0.4546220E+03  0.7546771E-02  0.1026353E+00
         21   -1    0    0  502  501  0.00000000000E+00  0.00000000000E+00  0.22531546197E+02  0.22531546197E+02  0.00000000000E+00 0. -1.
         21   -1    0    0  501  502 -0.00000000000E+00 -0.00000000000E+00 -0.22932422050E+04  0.22932422050E+04  0.00000000000E+00 0. -1.
      99926    2    1    2    0    0 -0.14210854715E-13  0.71054273576E-14 -0.22707106588E+04  0.23157737512E+04  0.45462200863E+03 0.  0.
      99925    2    3    3    0    0  0.77012199254E+02 -0.47135565731E+02 -0.17738995717E+04  0.17955609056E+04  0.26299550324E+03 0.  0.
         25    1    4    4    0    0  0.66857614276E+02 -0.55333663308E+02 -0.98784290708E+03  0.99950631416E+03  0.12509000000E+03 0.  0.
         25    1    4    4    0    0  0.10154584978E+02  0.81980975762E+01 -0.78605666463E+03  0.79605459141E+03  0.12509000000E+03 0.  0.
         25    1    3    3    0    0 -0.77012199254E+02  0.47135565731E+02 -0.49681108706E+03  0.52021284559E+03  0.12509000000E+03 0.  0.
<mgrwt>
<rscale>  2 0.45462201E+03</rscale>
<asrwt>0</asrwt>
<pdfrwt beam="1">  1       21 0.33134637E-02 0.45462201E+03</pdfrwt>
<pdfrwt beam="2">  1       21 0.33724139E+00 0.45462201E+03</pdfrwt>
<totfact> 0.92325455E+03</totfact>
</mgrwt>
</event>
<event>
 7    0  0.4691878E-002  0.4469243E+03  0.7546771E-02  0.1028643E+00
         21   -1    0    0  502  501  0.00000000000E+00  0.00000000000E+00  0.11628457898E+03  0.11628457898E+03  0.00000000000E+00 0.  1.
         21   -1    0    0  501  502 -0.00000000000E+00 -0.00000000000E+00 -0.42942358110E+03  0.42942358110E+03  0.00000000000E+00 0.  1.
      99926    2    1    2    0    0  0.00000000000E+00  0.00000000000E+00 -0.31313900212E+03  0.54570816007E+03  0.44692433512E+03 0.  0.
      99925    2    3    3    0    0 -0.85998699460E+02  0.13670670782E+02 -0.27091793952E+03  0.38755383741E+03  0.26309462821E+03 0.  0.
         25    1    4    4    0    0 -0.22269779777E+02 -0.27515192138E+02 -0.11261098582E+03  0.17199352057E+03  0.12509000000E+03 0.  0.
         25    1    4    4    0    0 -0.63728919684E+02  0.41185862920E+02 -0.15830695370E+03  0.21556031685E+03  0.12509000000E+03 0.  0.
         25    1    3    3    0    0  0.85998699460E+02 -0.13670670782E+02 -0.42221062597E+02  0.15815432266E+03  0.12509000000E+03 0.  0.
<mgrwt>
<rscale>  2 0.44692434E+03</rscale>
<asrwt>0</asrwt>
<pdfrwt beam="1">  1       21 0.17100674E-01 0.44692434E+03</pdfrwt>
<pdfrwt beam="2">  1       21 0.63150526E-01 0.44692434E+03</pdfrwt>
<totfact> 0.66286246E+04</totfact>
</mgrwt>
</event>
<event>
 7    0  0.4691878E-002  0.4537040E+03  0.7546771E-02  0.1026623E+00
         21   -1    0    0  502  501  0.00000000000E+00  0.00000000000E+00  0.41931257111E+03  0.41931257111E+03  0.00000000000E+00 0. -1.
         21   -1    0    0  501  502 -0.00000000000E+00 -0.00000000000E+00 -0.12272904421E+03  0.12272904421E+03  0.00000000000E+00 0. -1.
      99926    2    1    2    0    0  0.00000000000E+00  0.00000000000E+00  0.29658352690E+03  0.54204161532E+03  0.45370400517E+03 0.  0.
      99925    2    3    3    0    0 -0.69538106679E+02 -0.67914376734E+02  0.12070776631E+03  0.30533989983E+03  0.26308587711E+03 0.  0.
         25    1    4    4    0    0 -0.18689156434E+01 -0.62401825184E+01  0.59555212448E+02  0.13869666237E+03  0.12509000000E+03 0.  0.
         25    1    3    3    0    0  0.69538106679E+02  0.67914376734E+02  0.17587576060E+03  0.23670171548E+03  0.12509000000E+03 0.  0.
         25    1    4    4    0    0 -0.67669191036E+02 -0.61674194215E+02  0.61152553859E+02  0.16664323746E+03  0.12509000000E+03 0.  0.
<mgrwt>
<rscale>  2 0.45370401E+03</rscale>
<asrwt>0</asrwt>
<pdfrwt beam="1">  1       21 0.61663613E-01 0.45370401E+03</pdfrwt>
<pdfrwt beam="2">  1       21 0.18048389E-01 0.45370401E+03</pdfrwt>
<totfact> 0.63039532E+04</totfact>
</mgrwt>
</event>
<event>
 7    0  0.4691878E-002  0.4524808E+03  0.7546771E-02  0.1026985E+00
         21   -1    0    0  502  501  0.00000000000E+00  0.00000000000E+00  0.17922971460E+03  0.17922971460E+03  0.00000000000E+00 0. -1.
         21   -1    0    0  501  502 -0.00000000000E+00 -0.00000000000E+00 -0.28558165911E+03  0.28558165911E+03  0.00000000000E+00 0. -1.
      99926    2    1    2    0    0  0.00000000000E+00  0.00000000000E+00 -0.10635194451E+03  0.46481137371E+03  0.45248080295E+03 0.  0.
      99925    2    3    3    0    0  0.96826476937E+02  0.43043218001E+02 -0.34225894537E+02  0.28570872037E+03  0.26311589801E+03 0.  0.
         25    1    3    3    0    0 -0.96826476937E+02 -0.43043218001E+02 -0.72126049968E+02  0.17910265335E+03  0.12509000000E+03 0.  0.
         25    1    4    4    0    0  0.66384035364E+02  0.45175215304E+02 -0.48031714771E+02  0.15621201603E+03  0.12509000000E+03 0.  0.
         25    1    4    4    0    0  0.30442441573E+02 -0.21319973031E+01  0.13805820234E+02  0.12949670434E+03  0.12509000000E+03 0.  0.
<mgrwt>
<rscale>  2 0.45248080E+03</rscale>
<asrwt>0</asrwt>
<pdfrwt beam="1">  1       21 0.26357311E-01 0.45248080E+03</pdfrwt>
<pdfrwt beam="2">  1       21 0.41997303E-01 0.45248080E+03</pdfrwt>
<totfact> 0.69196231E+04</totfact>
</mgrwt>
</event>
<event>
 7    0  0.4691878E-002  0.4515806E+03  0.7546771E-02  0.1027252E+00
         21   -1    0    0  502  501  0.00000000000E+00  0.00000000000E+00  0.65862201515E+02  0.65862201515E+02  0.00000000000E+00 0.  1.
         21   -1    0    0  501  502 -0.00000000000E+00 -0.00000000000E+00 -0.77405959469E+03  0.77405959469E+03  0.00000000000E+00 0.  1.
      99926    2    1    2    0    0  0.00000000000E+00  0.00000000000E+00 -0.70819739317E+03  0.83992179620E+03  0.45158064179E+03 0.  0.
      99925    2    3    3    0    0  0.10857072689E+03 -0.16084664567E+02 -0.45789166765E+03  0.53934437939E+03  0.26302330904E+03 0.  0.
         25    1    4    4    0    0  0.59535926934E+02  0.28755925369E+02 -0.25969469474E+03  0.29573682966E+03  0.12509000000E+03 0.  0.
         25    1    3    3    0    0 -0.10857072689E+03  0.16084664567E+02 -0.25030572552E+03  0.30057741682E+03  0.12509000000E+03 0.  0.
         25    1    4    4    0    0  0.49034799959E+02 -0.44840589936E+02 -0.19819697291E+03  0.24360754973E+03  0.12509000000E+03 0.  0.
<mgrwt>
<rscale>  2 0.45158064E+03</rscale>
<asrwt>0</asrwt>
<pdfrwt beam="1">  1       21 0.96856184E-02 0.45158064E+03</pdfrwt>
<pdfrwt beam="2">  1       21 0.11383229E+00 0.45158064E+03</pdfrwt>
<totfact> 0.47145694E+04</totfact>
</mgrwt>
</event>
<event>
 7    0  0.4691878E-002  0.4542635E+03  0.7546771E-02  0.1026458E+00
         21   -1    0    0  502  501  0.00000000000E+00  0.00000000000E+00  0.27472545623E+03  0.27472545623E+03  0.00000000000E+00 0.  1.
         21   -1    0    0  501  502 -0.00000000000E+00 -0.00000000000E+00 -0.18778323777E+03  0.18778323777E+03  0.00000000000E+00 0.  1.
      99926    2    1    2    0    0  0.14210854715E-13 -0.71054273576E-14  0.86942218464E+02  0.46250869400E+03  0.45426351678E+03 0.  0.
      99925    2    3    3    0    0  0.60907028741E+02 -0.36521561588E+02  0.14350753538E+03  0.30794274113E+03  0.26304149576E+03 0.  0.
         25    1    4    4    0    0  0.92534086971E+00 -0.34259430310E+02  0.43089174341E+02  0.13667022304E+03  0.12509000000E+03 0.  0.
         25    1    4    4    0    0  0.59981687871E+02 -0.22621312779E+01  0.10041836104E+03  0.17127251808E+03  0.12509000000E+03 0.  0.
         25    1    3    3    0    0 -0.60907028741E+02  0.36521561588E+02 -0.56565316913E+02  0.15456595288E+03  0.12509000000E+03 0.  0.
<mgrwt>
<rscale>  2 0.45426352E+03</rscale>
<asrwt>0</asrwt>
<pdfrwt beam="1">  1       21 0.40400802E-01 0.45426352E+03</pdfrwt>
<pdfrwt beam="2">  1       21 0.27615182E-01 0.45426352E+03</pdfrwt>
<totfact> 0.68395057E+04</totfact>
</mgrwt>
</event>
<event>
 7    0  0.4691878E-002  0.4345986E+03  0.7546771E-02  0.1032417E+00
         21   -1    0    0  502  501  0.00000000000E+00  0.00000000000E+00  0.77473796665E+02  0.77473796665E+02  0.00000000000E+00 0. -1.
         21   -1    0    0  501  502 -0.00000000000E+00 -0.00000000000E+00 -0.60948341830E+03  0.60948341830E+03  0.00000000000E+00 0. -1.
      99926    2    1    2    0    0  0.00000000000E+00  0.00000000000E+00 -0.53200962163E+03  0.68695721496E+03  0.43459863976E+03 0.  0.
      99925    2    3    3    0    0 -0.14874845965E+02 -0.74174279162E+02 -0.42622238632E+03  0.50650907286E+03  0.26298827647E+03 0.  0.
         25    1    3    3    0    0  0.14874845965E+02  0.74174279162E+02 -0.10578723532E+03  0.18044814210E+03  0.12509000000E+03 0.  0.
         25    1    4    4    0    0 -0.31030398122E+02 -0.62206804673E+02 -0.26796310699E+03  0.30378332239E+03  0.12509000000E+03 0.  0.
         25    1    4    4    0    0  0.16155552158E+02 -0.11967474489E+02 -0.15825927933E+03  0.20272575047E+03  0.12509000000E+03 0.  0.
<mgrwt>
<rscale>  2 0.43459864E+03</rscale>
<asrwt>0</asrwt>
<pdfrwt beam="1">  1       21 0.11393205E-01 0.43459864E+03</pdfrwt>
<pdfrwt beam="2">  1       21 0.89629917E-01 0.43459864E+03</pdfrwt>
<totfact> 0.63167029E+04</totfact>
</mgrwt>
</event>
<event>
 7    0  0.4691878E-002  0.4463894E+03  0.7546771E-02  0.1028804E+00
         21   -1    0    0  502  501  0.00000000000E+00  0.00000000000E+00  0.40007972969E+03  0.40007972969E+03  0.00000000000E+00 0.  1.
         21   -1    0    0  501  502 -0.00000000000E+00 -0.00000000000E+00 -0.12451485549E+03  0.12451485549E+03  0.00000000000E+00 0.  1.
      99926    2    1    2    0    0  0.88817841970E-15  0.71054273576E-14  0.27556487420E+03  0.52459458518E+03  0.44638938037E+03 0.  0.
      99925    2    3    3    0    0 -0.56438537313E+01 -0.41905520373E+02  0.62011353309E+02  0.27351583238E+03  0.26301630539E+03 0.  0.
         25    1    4    4    0    0  0.12662313772E+02 -0.58226933413E+02  0.25151100835E+02  0.14082185888E+03  0.12509000000E+03 0.  0.
         25    1    4    4    0    0 -0.18306167503E+02  0.16321413040E+02  0.36860252474E+02  0.13269397351E+03  0.12509000000E+03 0.  0.
         25    1    3    3    0    0  0.56438537313E+01  0.41905520373E+02  0.21355352089E+03  0.25107875280E+03  0.12509000000E+03 0.  0.
<mgrwt>
<rscale>  2 0.44638938E+03</rscale>
<asrwt>0</asrwt>
<pdfrwt beam="1">  1       21 0.58835254E-01 0.44638938E+03</pdfrwt>
<pdfrwt beam="2">  1       21 0.18311008E-01 0.44638938E+03</pdfrwt>
<totfact> 0.68102304E+04</totfact>
</mgrwt>
</event>
<event>
 7    0  0.4691878E-002  0.4386029E+03  0.7546771E-02  0.1031176E+00
         21   -1    0    0  502  501  0.00000000000E+00  0.00000000000E+00  0.78991118841E+02  0.78991118841E+02  0.00000000000E+00 0.  1.
         21   -1    0    0  501  502 -0.00000000000E+00 -0.00000000000E+00 -0.60884207631E+03  0.60884207631E+03  0.00000000000E+00 0.  1.
      99926    2    1    2    0    0  0.00000000000E+00  0.00000000000E+00 -0.52985095747E+03  0.68783319515E+03  0.43860285820E+03 0.  0.
      99925    2    3    3    0    0  0.72953891822E+02  0.32031600201E+02 -0.42484364479E+03  0.50611270220E+03  0.26326726166E+03 0.  0.
         25    1    3    3    0    0 -0.72953891822E+02 -0.32031600201E+02 -0.10500731268E+03  0.18172049295E+03  0.12509000000E+03 0.  0.
         25    1    4    4    0    0  0.69390297854E+02  0.12507114491E+02 -0.17823507416E+03  0.22888139092E+03  0.12509000000E+03 0.  0.
         25    1    4    4    0    0  0.35635939677E+01  0.19524485709E+02 -0.24660857063E+03  0.27723131128E+03  0.12509000000E+03 0.  0.
<mgrwt>
<rscale>  2 0.43860286E+03</rscale>
<asrwt>0</asrwt>
<pdfrwt beam="1">  1       21 0.11616341E-01 0.43860286E+03</pdfrwt>
<pdfrwt beam="2">  1       21 0.89535601E-01 0.43860286E+03</pdfrwt>
<totfact> 0.61079222E+04</totfact>
</mgrwt>
</event>
<event>
 7    0  0.4691878E-002  0.4513249E+03  0.7546771E-02  0.1027328E+00
         21   -1    0    0  502  501  0.00000000000E+00  0.00000000000E+00  0.14622781215E+03  0.14622781215E+03  0.00000000000E+00 0. -1.
         21   -1    0    0  501  502 -0.00000000000E+00 -0.00000000000E+00 -0.34824803007E+03  0.34824803007E+03  0.00000000000E+00 0. -1.
      99926    2    1    2    0    0  0.00000000000E+00  0.00000000000E+00 -0.20202021792E+03  0.49447584223E+03  0.45132492740E+03 0.  0.
      99925    2    3    3    0    0  0.51741045628E+02 -0.34494947279E+02 -0.28991951759E+02  0.27209480396E+03  0.26330213042E+03 0.  0.
         25    1    3    3    0    0 -0.51741045628E+02  0.34494947279E+02 -0.17302826616E+03  0.22238103827E+03  0.12509000000E+03 0.  0.
         25    1    4    4    0    0  0.56971383619E+02 -0.19454267468E+02 -0.42727834241E+02  0.14524938207E+03  0.12509000000E+03 0.  0.
         25    1    4    4    0    0 -0.52303379907E+01 -0.15040679811E+02  0.13735882482E+02  0.12684542188E+03  0.12509000000E+03 0.  0.
<mgrwt>
<rscale>  2 0.45132493E+03</rscale>
<asrwt>0</asrwt>
<pdfrwt beam="1">  1       21 0.21504090E-01 0.45132493E+03</pdfrwt>
<pdfrwt beam="2">  1       21 0.51212946E-01 0.45132493E+03</pdfrwt>
<totfact> 0.67611606E+04</totfact>
</mgrwt>
</event>
<event>
 7    0  0.4691878E-002  0.4570093E+03  0.7546771E-02  0.1025652E+00
         21   -1    0    0  502  501  0.00000000000E+00  0.00000000000E+00  0.22048743400E+03  0.22048743400E+03  0.00000000000E+00 0.  1.
         21   -1    0    0  501  502 -0.00000000000E+00 -0.00000000000E+00 -0.23681341535E+03  0.23681341535E+03  0.00000000000E+00 0.  1.
      99926    2    1    2    0    0 -0.36082248300E-15 -0.14210854715E-13 -0.16325981350E+02  0.45730084934E+03  0.45700933157E+03 0.  0.
      99925    2    3    3    0    0  0.18931822973E+00  0.11490778229E+03 -0.43997890959E+01  0.28702584697E+03  0.26298411437E+03 0.  0.
         25    1    4    4    0    0 -0.56266885031E+01  0.20432690653E+02  0.19458338668E+02  0.12835610431E+03  0.12509000000E+03 0.  0.
         25    1    4    4    0    0  0.58160067328E+01  0.94475091636E+02 -0.23858127764E+02  0.15866974266E+03  0.12509000000E+03 0.  0.
         25    1    3    3    0    0 -0.18931822973E+00 -0.11490778229E+03 -0.11926192254E+02  0.17027500237E+03  0.12509000000E+03 0.  0.
<mgrwt>
<rscale>  2 0.45700933E+03</rscale>
<asrwt>0</asrwt>
<pdfrwt beam="1">  1       21 0.32424623E-01 0.45700933E+03</pdfrwt>
<pdfrwt beam="2">  1       21 0.34825502E-01 0.45700933E+03</pdfrwt>
<totfact> 0.67292241E+04</totfact>
</mgrwt>
</event>
<event>
 7    0  0.4691878E-002  0.4304089E+03  0.7546771E-02  0.1033731E+00
         21   -1    0    0  502  501  0.00000000000E+00  0.00000000000E+00  0.62771142360E+03  0.62771142360E+03  0.00000000000E+00 0. -1.
         21   -1    0    0  501  502 -0.00000000000E+00 -0.00000000000E+00 -0.73780659009E+02  0.73780659009E+02  0.00000000000E+00 0. -1.
      99926    2    1    2    0    0  0.00000000000E+00  0.00000000000E+00  0.55393076459E+03  0.70149208261E+03  0.43040893346E+03 0.  0.
      99925    2    3    3    0    0  0.76801931189E+02 -0.42805430167E+02  0.35434974310E+03  0.45007423574E+03  0.26319619252E+03 0.  0.
         25    1    4    4    0    0  0.10091371420E+02 -0.27324883263E+02  0.21650355580E+03  0.25173355516E+03  0.12509000000E+03 0.  0.
         25    1    4    4    0    0  0.66710559769E+02 -0.15480546903E+02  0.13784618730E+03  0.19834068057E+03  0.12509000000E+03 0.  0.
         25    1    3    3    0    0 -0.76801931189E+02  0.42805430167E+02  0.19958102150E+03  0.25141784688E+03  0.12509000000E+03 0.  0.
<mgrwt>
<rscale>  2 0.43040893E+03</rscale>
<asrwt>0</asrwt>
<pdfrwt beam="1">  1       21 0.92310501E-01 0.43040893E+03</pdfrwt>
<pdfrwt beam="2">  1       21 0.10850097E-01 0.43040893E+03</pdfrwt>
<totfact> 0.64410418E+04</totfact>
</mgrwt>
</event>
<event>
 7    0  0.4691878E-002  0.4501333E+03  0.7546771E-02  0.1027682E+00
         21   -1    0    0  502  501  0.00000000000E+00  0.00000000000E+00  0.14358024533E+04  0.14358024533E+04  0.00000000000E+00 0.  1.
         21   -1    0    0  501  502 -0.00000000000E+00 -0.00000000000E+00 -0.35279915903E+02  0.35279915903E+02  0.00000000000E+00 0.  1.
      99926    2    1    2    0    0  0.88817841970E-15  0.00000000000E+00  0.14005225374E+04  0.14710823692E+04  0.45013326829E+03 0.  0.
      99925    2    3    3    0    0  0.79598519302E+01  0.10498799460E+03  0.79963859158E+03  0.84835059493E+03  0.26304185316E+03 0.  0.
         25    1    4    4    0    0 -0.26656854004E+02  0.61103503822E+02  0.48231529371E+03  0.50271241947E+03  0.12509000000E+03 0.  0.
         25    1    4    4    0    0  0.34616705934E+02  0.43884490775E+02  0.31732329787E+03  0.34563817546E+03  0.12509000000E+03 0.  0.
         25    1    3    3    0    0 -0.79598519302E+01 -0.10498799460E+03  0.60088394579E+03  0.62273177425E+03  0.12509000000E+03 0.  0.
<mgrwt>
<rscale>  2 0.45013327E+03</rscale>
<asrwt>0</asrwt>
<pdfrwt beam="1">  1       21 0.21114738E+00 0.45013327E+03</pdfrwt>
<pdfrwt beam="2">  1       21 0.51882239E-02 0.45013327E+03</pdfrwt>
<totfact> 0.25445285E+04</totfact>
</mgrwt>
</event>
<event>
 7    0  0.4691878E-002  0.4561755E+03  0.7546771E-02  0.1025896E+00
         21   -1    0    0  502  501  0.00000000000E+00  0.00000000000E+00  0.33525516282E+03  0.33525516282E+03  0.00000000000E+00 0. -1.
         21   -1    0    0  501  502 -0.00000000000E+00 -0.00000000000E+00 -0.15517739660E+03  0.15517739660E+03  0.00000000000E+00 0. -1.
      99926    2    1    2    0    0  0.35527136788E-14  0.00000000000E+00  0.18007776622E+03  0.49043255942E+03  0.45617550729E+03 0.  0.
      99925    2    3    3    0    0  0.24486995372E+02  0.58479435289E+02  0.21547146206E+03  0.34579619090E+03  0.26292127603E+03 0.  0.
         25    1    3    3    0    0 -0.24486995372E+02 -0.58479435289E+02 -0.35393695833E+02  0.14463636852E+03  0.12509000000E+03 0.  0.
         25    1    4    4    0    0 -0.23673738754E+01  0.17437460571E+02  0.15068820309E+03  0.19663192045E+03  0.12509000000E+03 0.  0.
         25    1    4    4    0    0  0.26854369247E+02  0.41041974718E+02  0.64783258966E+02  0.14916427045E+03  0.12509000000E+03 0.  0.
<mgrwt>
<rscale>  2 0.45617551E+03</rscale>
<asrwt>0</asrwt>
<pdfrwt beam="1">  1       21 0.49302230E-01 0.45617551E+03</pdfrwt>
<pdfrwt beam="2">  1       21 0.22820205E-01 0.45617551E+03</pdfrwt>
<totfact> 0.65336320E+04</totfact>
</mgrwt>
</event>
<event>
 7    0  0.4691878E-002  0.4536971E+03  0.7546771E-02  0.1026625E+00
         21   -1    0    0  502  501  0.00000000000E+00  0.00000000000E+00  0.40543454762E+02  0.40543454762E+02  0.00000000000E+00 0.  1.
         21   -1    0    0  501  502 -0.00000000000E+00 -0.00000000000E+00 -0.12692621222E+04  0.12692621222E+04  0.00000000000E+00 0.  1.
      99926    2    1    2    0    0  0.00000000000E+00  0.00000000000E+00 -0.12287186674E+04  0.13098055770E+04  0.45369712996E+03 0.  0.
      99925    2    3    3    0    0 -0.11079609152E+03  0.62755812996E+01 -0.81752266578E+03  0.86590827274E+03  0.26294233382E+03 0.  0.
         25    1    4    4    0    0 -0.94661808855E+02  0.36282474307E+01 -0.50739773611E+03  0.53110638571E+03  0.12509000000E+03 0.  0.
         25    1    3    3    0    0  0.11079609152E+03 -0.62755812996E+01 -0.41119600166E+03  0.44389730422E+03  0.12509000000E+03 0.  0.
         25    1    4    4    0    0 -0.16134282667E+02  0.26473338688E+01 -0.31012492967E+03  0.33480188703E+03  0.12509000000E+03 0.  0.
<mgrwt>
<rscale>  2 0.45369713E+03</rscale>
<asrwt>0</asrwt>
<pdfrwt beam="1">  1       21 0.59622720E-02 0.45369713E+03</pdfrwt>
<pdfrwt beam="2">  1       21 0.18665622E+00 0.45369713E+03</pdfrwt>
<totfact> 0.29125204E+04</totfact>
</mgrwt>
</event>
<event>
 7    0  0.4691878E-002  0.4573939E+03  0.7546771E-02  0.1025540E+00
         21   -1    0    0  502  501  0.00000000000E+00  0.00000000000E+00  0.15865606071E+03  0.15865606071E+03  0.00000000000E+00 0. -1.
         21   -1    0    0  501  502 -0.00000000000E+00 -0.00000000000E+00 -0.32965830533E+03  0.32965830533E+03  0.00000000000E+00 0. -1.
      99926    2    1    2    0    0 -0.14210854715E-13  0.00000000000E+00 -0.17100224462E+03  0.48831436605E+03  0.45739387012E+03 0.  0.
      99925    2    3    3    0    0 -0.65933272231E+02 -0.23423702997E+02 -0.92409857188E+01  0.27218921890E+03  0.26287964702E+03 0.  0.
         25    1    4    4    0    0 -0.30827218877E+02 -0.48943318769E+02 -0.20385477645E+02  0.13931561892E+03  0.12509000000E+03 0.  0.
         25    1    4    4    0    0 -0.35106053355E+02  0.25519615772E+02  0.11144491926E+02  0.13287359998E+03  0.12509000000E+03 0.  0.
         25    1    3    3    0    0  0.65933272231E+02  0.23423702997E+02 -0.16176125890E+03  0.21612514715E+03  0.12509000000E+03 0.  0.
<mgrwt>
<rscale>  2 0.45739387E+03</rscale>
<asrwt>0</asrwt>
<pdfrwt beam="1">  1       21 0.23331774E-01 0.45739387E+03</pdfrwt>
<pdfrwt beam="2">  1       21 0.48479161E-01 0.45739387E+03</pdfrwt>
<totfact> 0.64858329E+04</totfact>
</mgrwt>
</event>
<event>
 7    0  0.4691878E-002  0.4441112E+03  0.7546771E-02  0.1029493E+00
         21   -1    0    0  502  501  0.00000000000E+00  0.00000000000E+00  0.68238931764E+02  0.68238931764E+02  0.00000000000E+00 0.  1.
         21   -1    0    0  501  502 -0.00000000000E+00 -0.00000000000E+00 -0.72258891771E+03  0.72258891771E+03  0.00000000000E+00 0.  1.
      99926    2    1    2    0    0  0.00000000000E+00  0.00000000000E+00 -0.65434998595E+03  0.79082784948E+03  0.44411122863E+03 0.  0.
      99925    2    3    3    0    0  0.62765497477E+02  0.73571986971E+02 -0.47707925278E+03  0.55328887188E+03  0.26300497594E+03 0.  0.
         25    1    4    4    0    0  0.16829065227E+02  0.53479169764E+02 -0.30758890885E+03  0.33675166515E+03  0.12509000000E+03 0.  0.
         25    1    3    3    0    0 -0.62765497477E+02 -0.73571986971E+02 -0.17727073316E+03  0.23753897760E+03  0.12509000000E+03 0.  0.
         25    1    4    4    0    0  0.45936432250E+02  0.20092817207E+02 -0.16949034393E+03  0.21653720673E+03  0.12509000000E+03 0.  0.
<mgrwt>
<rscale>  2 0.44411123E+03</rscale>
<asrwt>0</asrwt>
<pdfrwt beam="1">  1       21 0.10035138E-01 0.44411123E+03</pdfrwt>
<pdfrwt beam="2">  1       21 0.10626307E+00 0.44411123E+03</pdfrwt>
<totfact> 0.52561725E+04</totfact>
</mgrwt>
</event>
<event>
 7    0  0.4691878E-002  0.4536582E+03  0.7546771E-02  0.1026637E+00
         21   -1    0    0  502  501  0.00000000000E+00  0.00000000000E+00  0.97852232713E+02  0.97852232713E+02  0.00000000000E+00 0.  1.
         21   -1    0    0  501  502 -0.00000000000E+00 -0.00000000000E+00 -0.52580764237E+03  0.52580764237E+03  0.00000000000E+00 0.  1.
      99926    2    1    2    0    0  0.17763568394E-14 -0.14210854715E-13 -0.42795540965E+03  0.62365987508E+03  0.45365824927E+03 0.  0.
      99925    2    3    3    0    0  0.80997960433E+01  0.11096315582E+03 -0.28571349623E+03  0.40398124918E+03  0.26304033742E+03 0.  0.
         25    1    3    3    0    0 -0.80997960433E+01 -0.11096315582E+03 -0.14224191342E+03  0.21967862590E+03  0.12509000000E+03 0.  0.
         25    1    4    4    0    0 -0.18190834727E+02  0.82272725679E+02 -0.11997527837E+03  0.19272073936E+03  0.12509000000E+03 0.  0.
         25    1    4    4    0    0  0.26290630770E+02  0.28690430140E+02 -0.16573821787E+03  0.21126050982E+03  0.12509000000E+03 0.  0.
<mgrwt>
<rscale>  2 0.45365825E+03</rscale>
<asrwt>0</asrwt>
<pdfrwt beam="1">  1       21 0.14390034E-01 0.45365825E+03</pdfrwt>
<pdfrwt beam="2">  1       21 0.77324652E-01 0.45365825E+03</pdfrwt>
<totfact> 0.57855555E+04</totfact>
</mgrwt>
</event>
<event>
 7    0  0.4691878E-002  0.4559604E+03  0.7546771E-02  0.1025959E+00
         21   -1    0    0  502  501  0.00000000000E+00  0.00000000000E+00  0.56406961485E+03  0.56406961485E+03  0.00000000000E+00 0. -1.
         21   -1    0    0  501  502 -0.00000000000E+00 -0.00000000000E+00 -0.92142819138E+02  0.92142819138E+02  0.00000000000E+00 0. -1.
      99926    2    1    2    0    0  0.00000000000E+00  0.00000000000E+00  0.47192679572E+03  0.65621243399E+03  0.45596036890E+03 0.  0.
      99925    2    3    3    0    0  0.98551550298E+02 -0.46406184208E+02  0.34552576970E+03  0.44766826726E+03  0.26296934800E+03 0.  0.
         25    1    3    3    0    0 -0.98551550298E+02  0.46406184208E+02  0.12640102602E+03  0.20854416673E+03  0.12509000000E+03 0.  0.
         25    1    4    4    0    0  0.88441941907E+02 -0.37854470683E+02  0.17309148502E+03  0.23422875213E+03  0.12509000000E+03 0.  0.
         25    1    4    4    0    0  0.10109608390E+02 -0.85517135248E+01  0.17243428468E+03  0.21343951513E+03  0.12509000000E+03 0.  0.
<mgrwt>
<rscale>  2 0.45596037E+03</rscale>
<asrwt>0</asrwt>
<pdfrwt beam="1">  1       21 0.82951412E-01 0.45596037E+03</pdfrwt>
<pdfrwt beam="2">  1       21 0.13550415E-01 0.45596037E+03</pdfrwt>
<totfact> 0.54927759E+04</totfact>
</mgrwt>
</event>
<event>
 7    0  0.4691878E-002  0.4576174E+03  0.7546771E-02  0.1025475E+00
         21   -1    0    0  502  501  0.00000000000E+00  0.00000000000E+00  0.23727594652E+03  0.23727594652E+03  0.00000000000E+00 0.  1.
         21   -1    0    0  501  502 -0.00000000000E+00 -0.00000000000E+00 -0.22064358038E+03  0.22064358038E+03  0.00000000000E+00 0.  1.
      99926    2    1    2    0    0  0.14210854715E-13  0.00000000000E+00  0.16632366146E+02  0.45791952690E+03  0.45761737020E+03 0.  0.
      99925    2    3    3    0    0 -0.89921477307E+02  0.68787992100E+02 -0.12233563877E+02  0.28675174385E+03  0.26317150791E+03 0.  0.
         25    1    4    4    0    0 -0.13280205444E+02  0.45144566730E+02  0.18761279775E+02  0.13495884365E+03  0.12509000000E+03 0.  0.
         25    1    4    4    0    0 -0.76641271863E+02  0.23643425370E+02 -0.30994843652E+02  0.15179290019E+03  0.12509000000E+03 0.  0.
         25    1    3    3    0    0  0.89921477307E+02 -0.68787992100E+02  0.28865930023E+02  0.17116778305E+03  0.12509000000E+03 0.  0.
<mgrwt>
<rscale>  2 0.45761737E+03</rscale>
<asrwt>0</asrwt>
<pdfrwt beam="1">  1       21 0.34893522E-01 0.45761737E+03</pdfrwt>
<pdfrwt beam="2">  1       21 0.32447585E-01 0.45761737E+03</pdfrwt>
<totfact> 0.66923873E+04</totfact>
</mgrwt>
</event>
<event>
 7    0  0.4691878E-002  0.4140197E+03  0.7546771E-02  0.1039030E+00
         21   -1    0    0  502  501  0.00000000000E+00  0.00000000000E+00  0.42030222035E+02  0.42030222035E+02  0.00000000000E+00 0.  1.
         21   -1    0    0  501  502 -0.00000000000E+00 -0.00000000000E+00 -0.10195777680E+04  0.10195777680E+04  0.00000000000E+00 0.  1.
      99926    2    1    2    0    0  0.00000000000E+00  0.00000000000E+00 -0.97754754596E+03  0.10616079900E+04  0.41401970953E+03 0.  0.
      99925    2    3    3    0    0 -0.83793093801E+01  0.66614555458E+02 -0.66995319437E+03  0.72283150759E+03  0.26294561014E+03 0.  0.
         25    1    4    4    0    0 -0.97286613445E+01  0.11374641754E+02 -0.41255202654E+03  0.43135914506E+03  0.12509000000E+03 0.  0.
         25    1    4    4    0    0  0.13493519644E+01  0.55239913703E+02 -0.25740116784E+03  0.29147236253E+03  0.12509000000E+03 0.  0.
         25    1    3    3    0    0  0.83793093801E+01 -0.66614555458E+02 -0.30759435159E+03  0.33877648244E+03  0.12509000000E+03 0.  0.
<mgrwt>
<rscale>  2 0.41401971E+03</rscale>
<asrwt>0</asrwt>
<pdfrwt beam="1">  1       21 0.61809162E-02 0.41401971E+03</pdfrwt>
<pdfrwt beam="2">  1       21 0.14993788E+00 0.41401971E+03</pdfrwt>
<totfact> 0.51439794E+04</totfact>
</mgrwt>
</event>
<event>
 7    0  0.4691878E-002  0.4553185E+03  0.7546771E-02  0.1026148E+00
         21   -1    0    0  502  501  0.00000000000E+00  0.00000000000E+00  0.15025469725E+02  0.15025469725E+02  0.00000000000E+00 0.  1.
         21   -1    0    0  501  502 -0.00000000000E+00 -0.00000000000E+00 -0.34493920845E+04  0.34493920845E+04  0.00000000000E+00 0.  1.
      99926    2    1    2    0    0 -0.35527136788E-14  0.00000000000E+00 -0.34343666148E+04  0.34644175543E+04  0.45531850978E+03 0.  0.
      99925    2    3    3    0    0  0.16703856101E+02  0.10886015450E+03 -0.23674016513E+04  0.23845141819E+04  0.26303565034E+03 0.  0.
         25    1    4    4    0    0  0.32584459658E+02  0.19769448145E+02 -0.10804607602E+04  0.10883453222E+04  0.12509000000E+03 0.  0.
         25    1    4    4    0    0 -0.15880603556E+02  0.89090706357E+02 -0.12869408911E+04  0.12961688597E+04  0.12509000000E+03 0.  0.
         25    1    3    3    0    0 -0.16703856101E+02 -0.10886015450E+03 -0.10669649635E+04  0.10799033723E+04  0.12509000000E+03 0.  0.
<mgrwt>
<rscale>  2 0.45531851E+03</rscale>
<asrwt>0</asrwt>
<pdfrwt beam="1">  1       21 0.22096264E-02 0.45531851E+03</pdfrwt>
<pdfrwt beam="2">  1       21 0.50726390E+00 0.45531851E+03</pdfrwt>
<totfact> 0.13784430E+03</totfact>
</mgrwt>
</event>
<event>
 7    0  0.4691878E-002  0.4579442E+03  0.7546771E-02  0.1025379E+00
         21   -1    0    0  502  501  0.00000000000E+00  0.00000000000E+00  0.58921349032E+03  0.58921349032E+03  0.00000000000E+00 0. -1.
         21   -1    0    0  501  502 -0.00000000000E+00 -0.00000000000E+00 -0.88980015919E+02  0.88980015919E+02  0.00000000000E+00 0. -1.
      99926    2    1    2    0    0  0.00000000000E+00 -0.14210854715E-13  0.50023347440E+03  0.67819350624E+03  0.45794421384E+03 0.  0.
      99925    2    3    3    0    0  0.55130054071E+01  0.82743396730E+02  0.19411330470E+03  0.33726253180E+03  0.26303835721E+03 0.  0.
         25    1    4    4    0    0 -0.25765711163E+02  0.36948183254E+02  0.13074483688E+03  0.18646919475E+03  0.12509000000E+03 0.  0.
         25    1    4    4    0    0  0.31278716570E+02  0.45795213476E+02  0.63368467815E+02  0.15079333706E+03  0.12509000000E+03 0.  0.
         25    1    3    3    0    0 -0.55130054071E+01 -0.82743396730E+02  0.30612016970E+03  0.34093097444E+03  0.12509000000E+03 0.  0.
<mgrwt>
<rscale>  2 0.45794421E+03</rscale>
<asrwt>0</asrwt>
<pdfrwt beam="1">  1       21 0.86649042E-01 0.45794421E+03</pdfrwt>
<pdfrwt beam="2">  1       21 0.13085297E-01 0.45794421E+03</pdfrwt>
<totfact> 0.52866209E+04</totfact>
</mgrwt>
</event>
<event>
 7    0  0.4691878E-002  0.4701517E+03  0.7546771E-02  0.1021877E+00
         21   -1    0    0  502  501  0.00000000000E+00  0.00000000000E+00  0.99956743984E+02  0.99956743984E+02  0.00000000000E+00 0.  1.
         21   -1    0    0  501  502 -0.00000000000E+00 -0.00000000000E+00 -0.55284565094E+03  0.55284565094E+03  0.00000000000E+00 0.  1.
      99926    2    1    2    0    0  0.00000000000E+00 -0.71054273576E-14 -0.45288890695E+03  0.65280239492E+03  0.47015168273E+03 0.  0.
      99925    2    3    3    0    0  0.92252124252E+02 -0.57952116196E+02 -0.37135643462E+03  0.46796745681E+03  0.26309510999E+03 0.  0.
         25    1    3    3    0    0 -0.92252124252E+02  0.57952116196E+02 -0.81532472329E+02  0.18483493811E+03  0.12509000000E+03 0.  0.
         25    1    4    4    0    0  0.44432593665E+02  0.71838555046E+01 -0.20861631928E+03  0.24737449329E+03  0.12509000000E+03 0.  0.
         25    1    4    4    0    0  0.47819530587E+02 -0.65135971701E+02 -0.16274011534E+03  0.22059296353E+03  0.12509000000E+03 0.  0.
<mgrwt>
<rscale>  2 0.47015168E+03</rscale>
<asrwt>0</asrwt>
<pdfrwt beam="1">  1       21 0.14699521E-01 0.47015168E+03</pdfrwt>
<pdfrwt beam="2">  1       21 0.81300830E-01 0.47015168E+03</pdfrwt>
<totfact> 0.49368971E+04</totfact>
</mgrwt>
</event>
<event>
 7    0  0.4691878E-002  0.4536986E+03  0.7546771E-02  0.1026625E+00
         21   -1    0    0  502  501  0.00000000000E+00  0.00000000000E+00  0.58190287905E+02  0.58190287905E+02  0.00000000000E+00 0.  1.
         21   -1    0    0  501  502 -0.00000000000E+00 -0.00000000000E+00 -0.88435032846E+03  0.88435032846E+03  0.00000000000E+00 0.  1.
      99926    2    1    2    0    0  0.00000000000E+00  0.71054273576E-14 -0.82616004055E+03  0.94254061636E+03  0.45369857933E+03 0.  0.
      99925    2    3    3    0    0  0.40567988841E+02  0.62685669003E+02 -0.34733599402E+03  0.44204563092E+03  0.26303382341E+03 0.  0.
         25    1    3    3    0    0 -0.40567988841E+02 -0.62685669003E+02 -0.47882404653E+03  0.50049498544E+03  0.12509000000E+03 0.  0.
         25    1    4    4    0    0  0.12515961285E+01  0.66609751361E+02 -0.19396314569E+03  0.24022413587E+03  0.12509000000E+03 0.  0.
         25    1    4    4    0    0  0.39316392713E+02 -0.39240823574E+01 -0.15337284833E+03  0.20182149505E+03  0.12509000000E+03 0.  0.
<mgrwt>
<rscale>  2 0.45369858E+03</rscale>
<asrwt>0</asrwt>
<pdfrwt beam="1">  1       21 0.85573955E-02 0.45369858E+03</pdfrwt>
<pdfrwt beam="2">  1       21 0.13005152E+00 0.45369858E+03</pdfrwt>
<totfact> 0.41868840E+04</totfact>
</mgrwt>
</event>
<event>
 7    0  0.4691878E-002  0.4437183E+03  0.7546771E-02  0.1029612E+00
         21   -1    0    0  502  501  0.00000000000E+00  0.00000000000E+00  0.75593717579E+03  0.75593717579E+03  0.00000000000E+00 0.  1.
         21   -1    0    0  501  502 -0.00000000000E+00 -0.00000000000E+00 -0.65113190702E+02  0.65113190702E+02  0.00000000000E+00 0.  1.
      99926    2    1    2    0    0  0.00000000000E+00 -0.14210854715E-13  0.69082398509E+03  0.82105036649E+03  0.44371829571E+03 0.  0.
      99925    2    3    3    0    0  0.31598425040E+02 -0.76737091034E+02  0.32884577651E+03  0.42917950359E+03  0.26299897332E+03 0.  0.
         25    1    4    4    0    0 -0.34111041957E+01 -0.40315286256E+01  0.12656265202E+03  0.17802668857E+03  0.12509000000E+03 0.  0.
         25    1    4    4    0    0  0.35009529236E+02 -0.72705562409E+02  0.20228312448E+03  0.25115281502E+03  0.12509000000E+03 0.  0.
         25    1    3    3    0    0 -0.31598425040E+02  0.76737091034E+02  0.36197820858E+03  0.39187086290E+03  0.12509000000E+03 0.  0.
<mgrwt>
<rscale>  2 0.44371830E+03</rscale>
<asrwt>0</asrwt>
<pdfrwt beam="1">  1       21 0.11116723E+00 0.44371830E+03</pdfrwt>
<pdfrwt beam="2">  1       21 0.95754697E-02 0.44371830E+03</pdfrwt>
<totfact> 0.51142643E+04</totfact>
</mgrwt>
</event>
<event>
 7    0  0.4691878E-002  0.4624857E+03  0.7546771E-02  0.1024063E+00
         21   -1    0    0  502  501  0.00000000000E+00  0.00000000000E+00  0.32724119311E+03  0.32724119311E+03  0.00000000000E+00 0. -1.
         21   -1    0    0  501  502 -0.00000000000E+00 -0.00000000000E+00 -0.16340627220E+03  0.16340627220E+03  0.00000000000E+00 0. -1.
      99926    2    1    2    0    0  0.00000000000E+00  0.17763568394E-14  0.16383492091E+03  0.49064746531E+03  0.46248573373E+03 0.  0.
      99925    2    3    3    0    0 -0.81769903244E+02  0.72122457768E+01  0.19537299975E+03  0.33774065682E+03  0.26298252542E+03 0.  0.
         25    1    3    3    0    0  0.81769903244E+02 -0.72122457768E+01 -0.31538078837E+02  0.15290680849E+03  0.12509000000E+03 0.  0.
         25    1    4    4    0    0 -0.25056024829E+02 -0.33803406687E+02  0.87573495079E+02  0.15838907735E+03  0.12509000000E+03 0.  0.
         25    1    4    4    0    0 -0.56713878415E+02  0.41015652464E+02  0.10779950467E+03  0.17935157947E+03  0.12509000000E+03 0.  0.
<mgrwt>
<rscale>  2 0.46248573E+03</rscale>
<asrwt>0</asrwt>
<pdfrwt beam="1">  1       21 0.48123705E-01 0.46248573E+03</pdfrwt>
<pdfrwt beam="2">  1       21 0.24030334E-01 0.46248573E+03</pdfrwt>
<totfact> 0.62156254E+04</totfact>
</mgrwt>
</event>
<event>
 7    0  0.4691878E-002  0.4532597E+03  0.7546771E-02  0.1026754E+00
         21   -1    0    0  502  501  0.00000000000E+00  0.00000000000E+00  0.80083813262E+02  0.80083813262E+02  0.00000000000E+00 0.  1.
         21   -1    0    0  501  502 -0.00000000000E+00 -0.00000000000E+00 -0.64134174431E+03  0.64134174431E+03  0.00000000000E+00 0.  1.
      99926    2    1    2    0    0  0.00000000000E+00  0.35527136788E-14 -0.56125793104E+03  0.72142555757E+03  0.45325971578E+03 0.  0.
      99925    2    3    3    0    0 -0.21319778520E+02  0.21908856090E+02 -0.52450291277E+03  0.58751151648E+03  0.26292954486E+03 0.  0.
         25    1    3    3    0    0  0.21319778520E+02 -0.21908856090E+02 -0.36755018269E+02  0.13391404108E+03  0.12509000000E+03 0.  0.
         25    1    4    4    0    0  0.72557949151E+01  0.41812213427E+02 -0.22213395028E+03  0.25844130421E+03  0.12509000000E+03 0.  0.
         25    1    4    4    0    0 -0.28575573435E+02 -0.19903357336E+02 -0.30236896249E+03  0.32907021228E+03  0.12509000000E+03 0.  0.
<mgrwt>
<rscale>  2 0.45325972E+03</rscale>
<asrwt>0</asrwt>
<pdfrwt beam="1">  1       21 0.11777032E-01 0.45325972E+03</pdfrwt>
<pdfrwt beam="2">  1       21 0.94314961E-01 0.45325972E+03</pdfrwt>
<totfact> 0.52469634E+04</totfact>
</mgrwt>
</event>
<event>
 7    0  0.4691878E-002  0.4590149E+03  0.7546771E-02  0.1025067E+00
         21   -1    0    0  502  501  0.00000000000E+00  0.00000000000E+00  0.47898093655E+03  0.47898093655E+03  0.00000000000E+00 0.  1.
         21   -1    0    0  501  502 -0.00000000000E+00 -0.00000000000E+00 -0.10997029294E+03  0.10997029294E+03  0.00000000000E+00 0.  1.
      99926    2    1    2    0    0 -0.71054273576E-14 -0.14210854715E-13  0.36901064360E+03  0.58895122949E+03  0.45901491874E+03 0.  0.
      99925    2    3    3    0    0 -0.36535339095E+02  0.10711136443E+03  0.19334271639E+03  0.34540574268E+03  0.26289930716E+03 0.  0.
         25    1    4    4    0    0 -0.52792843375E+02  0.32292689899E+02  0.94196759438E+02  0.16837588818E+03  0.12509000000E+03 0.  0.
         25    1    4    4    0    0  0.16257504279E+02  0.74818674533E+02  0.99145956949E+02  0.17702985450E+03  0.12509000000E+03 0.  0.
         25    1    3    3    0    0  0.36535339095E+02 -0.10711136443E+03  0.17566792722E+03  0.24354548681E+03  0.12509000000E+03 0.  0.
<mgrwt>
<rscale>  2 0.45901492E+03</rscale>
<asrwt>0</asrwt>
<pdfrwt beam="1">  1       21 0.70438372E-01 0.45901492E+03</pdfrwt>
<pdfrwt beam="2">  1       21 0.16172102E-01 0.45901492E+03</pdfrwt>
<totfact> 0.57516511E+04</totfact>
</mgrwt>
</event>
<event>
 7    0  0.4691878E-002  0.4592974E+03  0.7546771E-02  0.1024985E+00
         21   -1    0    0  502  501  0.00000000000E+00  0.00000000000E+00  0.29061716425E+03  0.29061716425E+03  0.00000000000E+00 0. -1.
         21   -1    0    0  501  502 -0.00000000000E+00 -0.00000000000E+00 -0.18147077372E+03  0.18147077372E+03  0.00000000000E+00 0. -1.
      99926    2    1    2    0    0  0.00000000000E+00  0.00000000000E+00  0.10914639053E+03  0.47208793798E+03  0.45929738364E+03 0.  0.
      99925    2    3    3    0    0 -0.43129261190E+02  0.98444818862E+02  0.20002621919E+02  0.28461624648E+03  0.26278277596E+03 0.  0.
         25    1    4    4    0    0 -0.43466938074E+02  0.84571289711E+02 -0.32199891534E+00  0.15712825822E+03  0.12509000000E+03 0.  0.
         25    1    4    4    0    0  0.33767688412E+00  0.13873529151E+02  0.20324620835E+02  0.12748798825E+03  0.12509000000E+03 0.  0.
         25    1    3    3    0    0  0.43129261190E+02 -0.98444818862E+02  0.89143768611E+02  0.18747169150E+03  0.12509000000E+03 0.  0.
<mgrwt>
<rscale>  2 0.45929738E+03</rscale>
<asrwt>0</asrwt>
<pdfrwt beam="1">  1       21 0.42737818E-01 0.45929738E+03</pdfrwt>
<pdfrwt beam="2">  1       21 0.26686878E-01 0.45929738E+03</pdfrwt>
<totfact> 0.65035341E+04</totfact>
</mgrwt>
</event>
<event>
 7    0  0.4691878E-002  0.4577492E+03  0.7546771E-02  0.1025436E+00
         21   -1    0    0  502  501  0.00000000000E+00  0.00000000000E+00  0.37185379435E+03  0.37185379435E+03  0.00000000000E+00 0. -1.
         21   -1    0    0  501  502 -0.00000000000E+00 -0.00000000000E+00 -0.14087146689E+03  0.14087146689E+03  0.00000000000E+00 0. -1.
      99926    2    1    2    0    0  0.00000000000E+00  0.00000000000E+00  0.23098232746E+03  0.51272526124E+03  0.45774923038E+03 0.  0.
      99925    2    3    3    0    0 -0.47472615111E+02  0.10046699236E+03  0.10910557890E+03  0.30572594800E+03  0.26309135712E+03 0.  0.
         25    1    4    4    0    0 -0.40418983792E+01  0.53193976092E+02  0.91775512791E+02  0.16406153993E+03  0.12509000000E+03 0.  0.
         25    1    3    3    0    0  0.47472615111E+02 -0.10046699236E+03  0.12187674856E+03  0.20699931324E+03  0.12509000000E+03 0.  0.
         25    1    4    4    0    0 -0.43430716732E+02  0.47273016272E+02  0.17330066105E+02  0.14166440807E+03  0.12509000000E+03 0.  0.
<mgrwt>
<rscale>  2 0.45774923E+03</rscale>
<asrwt>0</asrwt>
<pdfrwt beam="1">  1       21 0.54684382E-01 0.45774923E+03</pdfrwt>
<pdfrwt beam="2">  1       21 0.20716392E-01 0.45774923E+03</pdfrwt>
<totfact> 0.62999814E+04</totfact>
</mgrwt>
</event>
<event>
 7    0  0.4691878E-002  0.4554911E+03  0.7546771E-02  0.1026097E+00
         21   -1    0    0  502  501  0.00000000000E+00  0.00000000000E+00  0.50807604271E+03  0.50807604271E+03  0.00000000000E+00 0. -1.
         21   -1    0    0  501  502 -0.00000000000E+00 -0.00000000000E+00 -0.10208716127E+03  0.10208716127E+03  0.00000000000E+00 0. -1.
      99926    2    1    2    0    0  0.17763568394E-14  0.00000000000E+00  0.40598888144E+03  0.61016320398E+03  0.45549112356E+03 0.  0.
      99925    2    3    3    0    0  0.95969352191E+01  0.11314506378E+03  0.24784176522E+03  0.37875031520E+03  0.26293032167E+03 0.  0.
         25    1    4    4    0    0 -0.32794072002E+02  0.72275163937E+02  0.12885947618E+03  0.19634516338E+03  0.12509000000E+03 0.  0.
         25    1    3    3    0    0 -0.95969352191E+01 -0.11314506378E+03  0.15814711622E+03  0.23141288878E+03  0.12509000000E+03 0.  0.
         25    1    4    4    0    0  0.42391007221E+02  0.40869899845E+02  0.11898228905E+03  0.18240515183E+03  0.12509000000E+03 0.  0.
<mgrwt>
<rscale>  2 0.45549112E+03</rscale>
<asrwt>0</asrwt>
<pdfrwt beam="1">  1       21 0.74717064E-01 0.45549112E+03</pdfrwt>
<pdfrwt beam="2">  1       21 0.15012818E-01 0.45549112E+03</pdfrwt>
<totfact> 0.57832341E+04</totfact>
</mgrwt>
</event>
<event>
 7    0  0.4691878E-002  0.4557475E+03  0.7546771E-02  0.1026022E+00
         21   -1    0    0  502  501  0.00000000000E+00  0.00000000000E+00  0.18573931919E+04  0.18573931919E+04  0.00000000000E+00 0. -1.
         21   -1    0    0  501  502 -0.00000000000E+00 -0.00000000000E+00 -0.27956630504E+02  0.27956630504E+02  0.00000000000E+00 0. -1.
      99926    2    1    2    0    0  0.00000000000E+00  0.17763568394E-14  0.18294365614E+04  0.18853498224E+04  0.45574754050E+03 0.  0.
      99925    2    3    3    0    0 -0.11025762357E+03  0.87491106825E+01  0.10415644590E+04  0.10799783254E+04  0.26317935026E+03 0.  0.
         25    1    4    4    0    0 -0.59352987742E+02  0.85740491875E+01  0.37419047869E+03  0.39907682708E+03  0.12509000000E+03 0.  0.
         25    1    4    4    0    0 -0.50904635831E+02  0.17506149495E+00  0.66737398036E+03  0.68090149828E+03  0.12509000000E+03 0.  0.
         25    1    3    3    0    0  0.11025762357E+03 -0.87491106825E+01  0.78787210238E+03  0.80537149707E+03  0.12509000000E+03 0.  0.
<mgrwt>
<rscale>  2 0.45574754E+03</rscale>
<asrwt>0</asrwt>
<pdfrwt beam="1">  1       21 0.27314597E+00 0.45574754E+03</pdfrwt>
<pdfrwt beam="2">  1       21 0.41112705E-02 0.45574754E+03</pdfrwt>
<totfact> 0.15582705E+04</totfact>
</mgrwt>
</event>
<event>
 7    0  0.4691878E-002  0.4588896E+03  0.7546771E-02  0.1025104E+00
         21   -1    0    0  502  501  0.00000000000E+00  0.00000000000E+00  0.14904105720E+03  0.14904105720E+03  0.00000000000E+00 0. -1.
         21   -1    0    0  501  502 -0.00000000000E+00 -0.00000000000E+00 -0.35322425473E+03  0.35322425473E+03  0.00000000000E+00 0. -1.
      99926    2    1    2    0    0  0.00000000000E+00  0.00000000000E+00 -0.20418319753E+03  0.50226531193E+03  0.45888960046E+03 0.  0.
      99925    2    3    3    0    0  0.18633863479E+02  0.11519080921E+03 -0.13090060006E+03  0.31616321472E+03  0.26307426300E+03 0.  0.
         25    1    4    4    0    0  0.35597079571E+02  0.64250988438E+02 -0.33778699348E+02  0.14894243928E+03  0.12509000000E+03 0.  0.
         25    1    4    4    0    0 -0.16963216092E+02  0.50939820770E+02 -0.97121900711E+02  0.16722077544E+03  0.12509000000E+03 0.  0.
         25    1    3    3    0    0 -0.18633863479E+02 -0.11519080921E+03 -0.73282597475E+02  0.18610209721E+03  0.12509000000E+03 0.  0.
<mgrwt>
<rscale>  2 0.45888960E+03</rscale>
<asrwt>0</asrwt>
<pdfrwt beam="1">  1       21 0.21917803E-01 0.45888960E+03</pdfrwt>
<pdfrwt beam="2">  1       21 0.51944743E-01 0.45888960E+03</pdfrwt>
<totfact> 0.63139684E+04</totfact>
</mgrwt>
</event>
<event>
 7    0  0.4691878E-002  0.4529922E+03  0.7546771E-02  0.1026833E+00
         21   -1    0    0  502  501  0.00000000000E+00  0.00000000000E+00  0.15277870723E+03  0.15277870723E+03  0.00000000000E+00 0.  1.
         21   -1    0    0  501  502 -0.00000000000E+00 -0.00000000000E+00 -0.33578295717E+03  0.33578295717E+03  0.00000000000E+00 0.  1.
      99926    2    1    2    0    0  0.71054273576E-14 -0.71054273576E-14 -0.18300424994E+03  0.48856166440E+03  0.45299221232E+03 0.  0.
      99925    2    3    3    0    0  0.62535375623E+02 -0.38497360539E+02 -0.20555315508E+03  0.34176697377E+03  0.26298259415E+03 0.  0.
         25    1    4    4    0    0 -0.72993891750E+01 -0.27506444160E+01 -0.97775093087E+02  0.15896013354E+03  0.12509000000E+03 0.  0.
         25    1    4    4    0    0  0.69834764798E+02 -0.35746716123E+02 -0.10777806200E+03  0.18280684023E+03  0.12509000000E+03 0.  0.
         25    1    3    3    0    0 -0.62535375623E+02  0.38497360539E+02  0.22548905147E+02  0.14679469063E+03  0.12509000000E+03 0.  0.
<mgrwt>
<rscale>  2 0.45299221E+03</rscale>
<asrwt>0</asrwt>
<pdfrwt beam="1">  1       21 0.22467457E-01 0.45299221E+03</pdfrwt>
<pdfrwt beam="2">  1       21 0.49379846E-01 0.45299221E+03</pdfrwt>
<totfact> 0.67145840E+04</totfact>
</mgrwt>
</event>
<event>
 7    0  0.4691878E-002  0.4342765E+03  0.7546771E-02  0.1032518E+00
         21   -1    0    0  502  501  0.00000000000E+00  0.00000000000E+00  0.33443051340E+03  0.33443051340E+03  0.00000000000E+00 0. -1.
         21   -1    0    0  501  502 -0.00000000000E+00 -0.00000000000E+00 -0.14098301654E+03  0.14098301654E+03  0.00000000000E+00 0. -1.
      99926    2    1    2    0    0 -0.71054273576E-14  0.00000000000E+00  0.19344749686E+03  0.47541352994E+03  0.43427651376E+03 0.  0.
      99925    2    3    3    0    0  0.29528546530E+02  0.69474096470E+02  0.65791806595E+02  0.28139789011E+03  0.26297837478E+03 0.  0.
         25    1    3    3    0    0 -0.29528546530E+02 -0.69474096470E+02  0.12765569026E+03  0.19401563983E+03  0.12509000000E+03 0.  0.
         25    1    4    4    0    0 -0.25904727133E+01  0.21138983312E+02 -0.37775329515E+01  0.12694622885E+03  0.12509000000E+03 0.  0.
         25    1    4    4    0    0  0.32119019244E+02  0.48335113159E+02  0.69569339547E+02  0.15445166126E+03  0.12509000000E+03 0.  0.
<mgrwt>
<rscale>  2 0.43427651E+03</rscale>
<asrwt>0</asrwt>
<pdfrwt beam="1">  1       21 0.49180958E-01 0.43427651E+03</pdfrwt>
<pdfrwt beam="2">  1       21 0.20732797E-01 0.43427651E+03</pdfrwt>
<totfact> 0.79299893E+04</totfact>
</mgrwt>
</event>
<event>
 7    0  0.4691878E-002  0.4468990E+03  0.7546771E-02  0.1028651E+00
         21   -1    0    0  502  501  0.00000000000E+00  0.00000000000E+00  0.10498041593E+04  0.10498041593E+04  0.00000000000E+00 0.  1.
         21   -1    0    0  501  502 -0.00000000000E+00 -0.00000000000E+00 -0.47560936031E+02  0.47560936031E+02  0.00000000000E+00 0.  1.
      99926    2    1    2    0    0  0.35527136788E-14  0.00000000000E+00  0.10022432233E+04  0.10973650953E+04  0.44689895263E+03 0.  0.
      99925    2    3    3    0    0  0.29331973588E+02 -0.95697759841E+02  0.55456903204E+03  0.62188837087E+03  0.26302073799E+03 0.  0.
         25    1    4    4    0    0  0.44540793261E+02 -0.31591006565E+02  0.32176450617E+03  0.34951649388E+03  0.12509000000E+03 0.  0.
         25    1    3    3    0    0 -0.29331973588E+02  0.95697759841E+02  0.44767419124E+03  0.47547672448E+03  0.12509000000E+03 0.  0.
         25    1    4    4    0    0 -0.15208819673E+02 -0.64106753276E+02  0.23280452587E+03  0.27237187699E+03  0.12509000000E+03 0.  0.
<mgrwt>
<rscale>  2 0.44689895E+03</rscale>
<asrwt>0</asrwt>
<pdfrwt beam="1">  1       21 0.15438295E+00 0.44689895E+03</pdfrwt>
<pdfrwt beam="2">  1       21 0.69942560E-02 0.44689895E+03</pdfrwt>
<totfact> 0.37926520E+04</totfact>
</mgrwt>
</event>
<event>
 7    0  0.4691878E-002  0.4580025E+03  0.7546771E-02  0.1025362E+00
         21   -1    0    0  502  501  0.00000000000E+00  0.00000000000E+00  0.80072149120E+02  0.80072149120E+02  0.00000000000E+00 0.  1.
         21   -1    0    0  501  502 -0.00000000000E+00 -0.00000000000E+00 -0.65492907480E+03  0.65492907480E+03  0.00000000000E+00 0.  1.
      99926    2    1    2    0    0  0.00000000000E+00 -0.71054273576E-14 -0.57485692568E+03  0.73500122392E+03  0.45800252637E+03 0.  0.
      99925    2    3    3    0    0  0.90096442994E+02 -0.61574871934E+02 -0.42382387713E+03  0.51057456831E+03  0.26296554353E+03 0.  0.
         25    1    4    4    0    0  0.85024953625E+02 -0.32849466395E+02 -0.20546095556E+03  0.25723538353E+03  0.12509000000E+03 0.  0.
         25    1    4    4    0    0  0.50714893692E+01 -0.28725405538E+02 -0.21836292157E+03  0.25333918478E+03  0.12509000000E+03 0.  0.
         25    1    3    3    0    0 -0.90096442994E+02  0.61574871934E+02 -0.15103304855E+03  0.22442665561E+03  0.12509000000E+03 0.  0.
<mgrwt>
<rscale>  2 0.45800253E+03</rscale>
<asrwt>0</asrwt>
<pdfrwt beam="1">  1       21 0.11775316E-01 0.45800253E+03</pdfrwt>
<pdfrwt beam="2">  1       21 0.96313098E-01 0.45800253E+03</pdfrwt>
<totfact> 0.49856053E+04</totfact>
</mgrwt>
</event>
<event>
 7    0  0.4691878E-002  0.4557243E+03  0.7546771E-02  0.1026029E+00
         21   -1    0    0  502  501  0.00000000000E+00  0.00000000000E+00  0.47503253682E+02  0.47503253682E+02  0.00000000000E+00 0. -1.
         21   -1    0    0  501  502 -0.00000000000E+00 -0.00000000000E+00 -0.10930022074E+04  0.10930022074E+04  0.00000000000E+00 0. -1.
      99926    2    1    2    0    0  0.00000000000E+00  0.00000000000E+00 -0.10454989537E+04  0.11405054611E+04  0.45572430760E+03 0.  0.
      99925    2    3    3    0    0 -0.71568509157E+02  0.86759142267E+02 -0.69724489829E+03  0.75375283279E+03  0.26333189035E+03 0.  0.
         25    1    3    3    0    0  0.71568509157E+02 -0.86759142267E+02 -0.34825405544E+03  0.38675262831E+03  0.12509000000E+03 0.  0.
         25    1    4    4    0    0 -0.52676942507E+02  0.68338716467E+02 -0.45711529048E+03  0.48171250485E+03  0.12509000000E+03 0.  0.
         25    1    4    4    0    0 -0.18891566650E+02  0.18420425799E+02 -0.24012960781E+03  0.27204032794E+03  0.12509000000E+03 0.  0.
<mgrwt>
<rscale>  2 0.45572431E+03</rscale>
<asrwt>0</asrwt>
<pdfrwt beam="1">  1       21 0.69857723E-02 0.45572431E+03</pdfrwt>
<pdfrwt beam="2">  1       21 0.16073562E+00 0.45572431E+03</pdfrwt>
<totfact> 0.33909114E+04</totfact>
</mgrwt>
</event>
<event>
 7    0  0.4691878E-002  0.3991016E+03  0.7546771E-02  0.1044091E+00
         21   -1    0    0  502  501  0.00000000000E+00  0.00000000000E+00  0.24649907305E+04  0.24649907305E+04  0.00000000000E+00 0. -1.
         21   -1    0    0  501  502 -0.00000000000E+00 -0.00000000000E+00 -0.16154430007E+02  0.16154430007E+02  0.00000000000E+00 0. -1.
      99926    2    1    2    0    0  0.00000000000E+00  0.71054273576E-14  0.24488363005E+04  0.24811451605E+04  0.39910159221E+03 0.  0.
      99925    2    3    3    0    0  0.17516289993E+02 -0.36675830876E+02  0.16763591288E+04  0.16975506060E+04  0.26428430562E+03 0.  0.
         25    1    4    4    0    0  0.35108417160E+02 -0.25648685222E+02  0.64726201257E+03  0.66067092945E+03  0.12509000000E+03 0.  0.
         25    1    3    3    0    0 -0.17516289993E+02  0.36675830876E+02  0.77247717176E+03  0.78359455459E+03  0.12509000000E+03 0.  0.
         25    1    4    4    0    0 -0.17592127167E+02 -0.11027145654E+02  0.10290971162E+04  0.10368796765E+04  0.12509000000E+03 0.  0.
<mgrwt>
<rscale>  2 0.39910159E+03</rscale>
<asrwt>0</asrwt>
<pdfrwt beam="1">  1       21 0.36249838E+00 0.39910159E+03</pdfrwt>
<pdfrwt beam="2">  1       21 0.23756532E-02 0.39910159E+03</pdfrwt>
<totfact> 0.11615214E+04</totfact>
</mgrwt>
</event>
<event>
 7    0  0.4691878E-002  0.4602881E+03  0.7546771E-02  0.1024698E+00
         21   -1    0    0  502  501  0.00000000000E+00  0.00000000000E+00  0.38706366036E+03  0.38706366036E+03  0.00000000000E+00 0.  1.
         21   -1    0    0  501  502 -0.00000000000E+00 -0.00000000000E+00 -0.13684128320E+03  0.13684128320E+03  0.00000000000E+00 0.  1.
      99926    2    1    2    0    0 -0.88817841970E-15  0.14210854715E-13  0.25022237716E+03  0.52390494356E+03  0.46028811831E+03 0.  0.
      99925    2    3    3    0    0  0.64373665457E+01 -0.11714208544E+03  0.14273405251E+03  0.32150692997E+03  0.26311592198E+03 0.  0.
         25    1    4    4    0    0  0.25181985485E+02 -0.86056794081E+02  0.10351600183E+03  0.18548038962E+03  0.12509000000E+03 0.  0.
         25    1    3    3    0    0 -0.64373665457E+01  0.11714208544E+03  0.10748832465E+03  0.20239801360E+03  0.12509000000E+03 0.  0.
         25    1    4    4    0    0 -0.18744618939E+02 -0.31085291363E+02  0.39218050675E+02  0.13602654034E+03  0.12509000000E+03 0.  0.
<mgrwt>
<rscale>  2 0.46028812E+03</rscale>
<asrwt>0</asrwt>
<pdfrwt beam="1">  1       21 0.56921126E-01 0.46028812E+03</pdfrwt>
<pdfrwt beam="2">  1       21 0.20123718E-01 0.46028812E+03</pdfrwt>
<totfact> 0.61021422E+04</totfact>
</mgrwt>
</event>
<event>
 7    0  0.4691878E-002  0.4486786E+03  0.7546771E-02  0.1028117E+00
         21   -1    0    0  502  501  0.00000000000E+00  0.00000000000E+00  0.63956612834E+02  0.63956612834E+02  0.00000000000E+00 0. -1.
         21   -1    0    0  501  502 -0.00000000000E+00 -0.00000000000E+00 -0.78691019133E+03  0.78691019133E+03  0.00000000000E+00 0. -1.
      99926    2    1    2    0    0  0.00000000000E+00  0.00000000000E+00 -0.72295357850E+03  0.85086680417E+03  0.44867855060E+03 0.  0.
      99925    2    3    3    0    0  0.37716693271E+02  0.56561246181E+02 -0.61456202626E+03  0.67193117267E+03  0.26302717193E+03 0.  0.
         25    1    4    4    0    0  0.54512771963E+02  0.44917224111E+02 -0.29396254343E+03  0.32718600882E+03  0.12509000000E+03 0.  0.
         25    1    3    3    0    0 -0.37716693271E+02 -0.56561246181E+02 -0.10839155224E+03  0.17893563149E+03  0.12509000000E+03 0.  0.
         25    1    4    4    0    0 -0.16796078692E+02  0.11644022070E+02 -0.32059948283E+03  0.34474516385E+03  0.12509000000E+03 0.  0.
<mgrwt>
<rscale>  2 0.44867855E+03</rscale>
<asrwt>0</asrwt>
<pdfrwt beam="1">  1       21 0.94053845E-02 0.44867855E+03</pdfrwt>
<pdfrwt beam="2">  1       21 0.11572208E+00 0.44867855E+03</pdfrwt>
<totfact> 0.47723468E+04</totfact>
</mgrwt>
</event>
<event>
 7    0  0.4691878E-002  0.4579416E+03  0.7546771E-02  0.1025380E+00
         21   -1    0    0  502  501  0.00000000000E+00  0.00000000000E+00  0.11722088311E+03  0.11722088311E+03  0.00000000000E+00 0. -1.
         21   -1    0    0  501  502 -0.00000000000E+00 -0.00000000000E+00 -0.44725507775E+03  0.44725507775E+03  0.00000000000E+00 0. -1.
      99926    2    1    2    0    0  0.00000000000E+00  0.00000000000E+00 -0.33003419464E+03  0.56447596086E+03  0.45794163466E+03 0.  0.
      99925    2    3    3    0    0 -0.49867664828E+02  0.48649910403E+02 -0.92469951990E+02  0.28709918594E+03  0.26271972284E+03 0.  0.
         25    1    3    3    0    0  0.49867664828E+02 -0.48649910403E+02 -0.23756424265E+03  0.27737677492E+03  0.12509000000E+03 0.  0.
         25    1    4    4    0    0 -0.59291043934E+02  0.11260282644E+02 -0.30146448608E+02  0.14212156177E+03  0.12509000000E+03 0.  0.
         25    1    4    4    0    0  0.94233791060E+01  0.37389627759E+02 -0.62323503382E+02  0.14497762418E+03  0.12509000000E+03 0.  0.
<mgrwt>
<rscale>  2 0.45794163E+03</rscale>
<asrwt>0</asrwt>
<pdfrwt beam="1">  1       21 0.17238365E-01 0.45794163E+03</pdfrwt>
<pdfrwt beam="2">  1       21 0.65772806E-01 0.45794163E+03</pdfrwt>
<totfact> 0.59522979E+04</totfact>
</mgrwt>
</event>
<event>
 7    0  0.4691878E-002  0.4525110E+03  0.7546771E-02  0.1026976E+00
         21   -1    0    0  502  501  0.00000000000E+00  0.00000000000E+00  0.13181806182E+04  0.13181806182E+04  0.00000000000E+00 0. -1.
         21   -1    0    0  501  502 -0.00000000000E+00 -0.00000000000E+00 -0.38834999160E+02  0.38834999160E+02  0.00000000000E+00 0. -1.
      99926    2    1    2    0    0  0.00000000000E+00  0.00000000000E+00  0.12793456190E+04  0.13570156173E+04  0.45251096428E+03 0.  0.
      99925    2    3    3    0    0  0.97468958595E+02 -0.50617257433E+02  0.76263229257E+03  0.81415055632E+03  0.26300344114E+03 0.  0.
         25    1    3    3    0    0 -0.97468958595E+02  0.50617257433E+02  0.51671332644E+03  0.54286506100E+03  0.12509000000E+03 0.  0.
         25    1    4    4    0    0  0.36449267548E+02 -0.63842334659E+02  0.39995473565E+03  0.42545938874E+03  0.12509000000E+03 0.  0.
         25    1    4    4    0    0  0.61019691047E+02  0.13225077226E+02  0.36267755692E+03  0.38869116758E+03  0.12509000000E+03 0.  0.
<mgrwt>
<rscale>  2 0.45251096E+03</rscale>
<asrwt>0</asrwt>
<pdfrwt beam="1">  1       21 0.19385006E+00 0.45251096E+03</pdfrwt>
<pdfrwt beam="2">  1       21 0.57110302E-02 0.45251096E+03</pdfrwt>
<totfact> 0.28038887E+04</totfact>
</mgrwt>
</event>
<event>
 7    0  0.4691878E-002  0.4562667E+03  0.7546771E-02  0.1025870E+00
         21   -1    0    0  502  501  0.00000000000E+00  0.00000000000E+00  0.14195953460E+04  0.14195953460E+04  0.00000000000E+00 0. -1.
         21   -1    0    0  501  502 -0.00000000000E+00 -0.00000000000E+00 -0.36661731785E+02  0.36661731785E+02  0.00000000000E+00 0. -1.
      99926    2    1    2    0    0  0.00000000000E+00  0.71054273576E-14  0.13829336142E+04  0.14562570778E+04  0.45626669315E+03 0.  0.
      99925    2    3    3    0    0 -0.19385378598E+02 -0.47037583024E+02  0.11961131912E+04  0.12257409055E+04  0.26299367710E+03 0.  0.
         25    1    4    4    0    0 -0.28054772354E+02 -0.41423685444E+02  0.47288166510E+03  0.49169865696E+03  0.12509000000E+03 0.  0.
         25    1    4    4    0    0  0.86693937561E+01 -0.56138975806E+01  0.72323152611E+03  0.73404224857E+03  0.12509000000E+03 0.  0.
         25    1    3    3    0    0  0.19385378598E+02  0.47037583024E+02  0.18682042304E+03  0.23051617229E+03  0.12509000000E+03 0.  0.
<mgrwt>
<rscale>  2 0.45626669E+03</rscale>
<asrwt>0</asrwt>
<pdfrwt beam="1">  1       21 0.20876399E+00 0.45626669E+03</pdfrwt>
<pdfrwt beam="2">  1       21 0.53914321E-02 0.45626669E+03</pdfrwt>
<totfact> 0.24627327E+04</totfact>
</mgrwt>
</event>
<event>
 7    0  0.4691878E-002  0.4550776E+03  0.7546771E-02  0.1026219E+00
         21   -1    0    0  502  501  0.00000000000E+00  0.00000000000E+00  0.27802054587E+03  0.27802054587E+03  0.00000000000E+00 0.  1.
         21   -1    0    0  501  502 -0.00000000000E+00 -0.00000000000E+00 -0.18622330469E+03  0.18622330469E+03  0.00000000000E+00 0.  1.
      99926    2    1    2    0    0  0.00000000000E+00 -0.88817841970E-15  0.91797241172E+02  0.46424385056E+03  0.45507759701E+03 0.  0.
      99925    2    3    3    0    0 -0.11318754612E+03 -0.46224216647E+01  0.59798818733E+02  0.29247599991E+03  0.26293254729E+03 0.  0.
         25    1    4    4    0    0 -0.86847589661E+02  0.10135846076E+02  0.52511597647E+01  0.15270992759E+03  0.12509000000E+03 0.  0.
         25    1    3    3    0    0  0.11318754612E+03  0.46224216647E+01  0.31998422439E+02  0.17176785065E+03  0.12509000000E+03 0.  0.
         25    1    4    4    0    0 -0.26339956458E+02 -0.14758267741E+02  0.54547658968E+02  0.13976607232E+03  0.12509000000E+03 0.  0.
<mgrwt>
<rscale>  2 0.45507760E+03</rscale>
<asrwt>0</asrwt>
<pdfrwt beam="1">  1       21 0.40885374E-01 0.45507760E+03</pdfrwt>
<pdfrwt beam="2">  1       21 0.27385780E-01 0.45507760E+03</pdfrwt>
<totfact> 0.67824568E+04</totfact>
</mgrwt>
</event>
<event>
 7    0  0.4691878E-002  0.4550625E+03  0.7546771E-02  0.1026223E+00
         21   -1    0    0  502  501  0.00000000000E+00  0.00000000000E+00  0.28159901591E+03  0.28159901591E+03  0.00000000000E+00 0. -1.
         21   -1    0    0  501  502 -0.00000000000E+00 -0.00000000000E+00 -0.18384465636E+03  0.18384465636E+03  0.00000000000E+00 0. -1.
      99926    2    1    2    0    0  0.00000000000E+00  0.00000000000E+00  0.97754359549E+02  0.46544367228E+03  0.45506252016E+03 0.  0.
      99925    2    3    3    0    0  0.18548273017E+02  0.93328053883E+02 -0.12407090911E+01  0.27969735121E+03  0.26301122570E+03 0.  0.
         25    1    4    4    0    0 -0.18083462624E+02  0.52317376578E+02  0.28804514633E+02  0.13979029893E+03  0.12509000000E+03 0.  0.
         25    1    4    4    0    0  0.36631735642E+02  0.41010677305E+02 -0.30045223724E+02  0.13990705228E+03  0.12509000000E+03 0.  0.
         25    1    3    3    0    0 -0.18548273017E+02 -0.93328053883E+02  0.98995068640E+02  0.18574632106E+03  0.12509000000E+03 0.  0.
<mgrwt>
<rscale>  2 0.45506252E+03</rscale>
<asrwt>0</asrwt>
<pdfrwt beam="1">  1       21 0.41411620E-01 0.45506252E+03</pdfrwt>
<pdfrwt beam="2">  1       21 0.27035979E-01 0.45506252E+03</pdfrwt>
<totfact> 0.67743091E+04</totfact>
</mgrwt>
</event>
<event>
 7    0  0.4691878E-002  0.4526835E+03  0.7546771E-02  0.1026925E+00
         21   -1    0    0  502  501  0.00000000000E+00  0.00000000000E+00  0.66403821936E+02  0.66403821936E+02  0.00000000000E+00 0.  1.
         21   -1    0    0  501  502 -0.00000000000E+00 -0.00000000000E+00 -0.77150057535E+03  0.77150057535E+03  0.00000000000E+00 0.  1.
      99926    2    1    2    0    0  0.71054273576E-14  0.00000000000E+00 -0.70509675342E+03  0.83790439729E+03  0.45268349574E+03 0.  0.
      99925    2    3    3    0    0 -0.37022388588E+02  0.10458505303E+03 -0.44800208766E+03  0.53122237004E+03  0.26302594038E+03 0.  0.
         25    1    3    3    0    0  0.37022388588E+02 -0.10458505303E+03 -0.25709466576E+03  0.30668202725E+03  0.12509000000E+03 0.  0.
         25    1    4    4    0    0 -0.11396194784E+01  0.33462675246E+02 -0.27066843253E+03  0.30004992557E+03  0.12509000000E+03 0.  0.
         25    1    4    4    0    0 -0.35882769110E+02  0.71122377787E+02 -0.17733365513E+03  0.23117244447E+03  0.12509000000E+03 0.  0.
<mgrwt>
<rscale>  2 0.45268350E+03</rscale>
<asrwt>0</asrwt>
<pdfrwt beam="1">  1       21 0.97652679E-02 0.45268350E+03</pdfrwt>
<pdfrwt beam="2">  1       21 0.11345597E+00 0.45268350E+03</pdfrwt>
<totfact> 0.46830722E+04</totfact>
</mgrwt>
</event>
<event>
 7    0  0.4691878E-002  0.4520174E+03  0.7546771E-02  0.1027122E+00
         21   -1    0    0  502  501  0.00000000000E+00  0.00000000000E+00  0.46417592223E+02  0.46417592223E+02  0.00000000000E+00 0.  1.
         21   -1    0    0  501  502 -0.00000000000E+00 -0.00000000000E+00 -0.11004433860E+04  0.11004433860E+04  0.00000000000E+00 0.  1.
      99926    2    1    2    0    0  0.00000000000E+00  0.00000000000E+00 -0.10540257938E+04  0.11468609782E+04  0.45201739947E+03 0.  0.
      99925    2    3    3    0    0 -0.78073537338E+02 -0.54583628635E+02 -0.52368979045E+03  0.59370762311E+03  0.26298839398E+03 0.  0.
         25    1    3    3    0    0  0.78073537338E+02  0.54583628635E+02 -0.53033600333E+03  0.55315335512E+03  0.12509000000E+03 0.  0.
         25    1    4    4    0    0 -0.42278837238E+02 -0.37546618371E+02 -0.35047344609E+03  0.37639924700E+03  0.12509000000E+03 0.  0.
         25    1    4    4    0    0 -0.35794700100E+02 -0.17037010263E+02 -0.17321634437E+03  0.21730837612E+03  0.12509000000E+03 0.  0.
<mgrwt>
<rscale>  2 0.45201740E+03</rscale>
<asrwt>0</asrwt>
<pdfrwt beam="1">  1       21 0.68261170E-02 0.45201740E+03</pdfrwt>
<pdfrwt beam="2">  1       21 0.16182990E+00 0.45201740E+03</pdfrwt>
<totfact> 0.34686689E+04</totfact>
</mgrwt>
</event>
<event>
 7    0  0.4691878E-002  0.4392710E+03  0.7546771E-02  0.1030971E+00
         21   -1    0    0  502  501  0.00000000000E+00  0.00000000000E+00  0.17958289076E+04  0.17958289076E+04  0.00000000000E+00 0. -1.
         21   -1    0    0  501  502 -0.00000000000E+00 -0.00000000000E+00 -0.26862106429E+02  0.26862106429E+02  0.00000000000E+00 0. -1.
      99926    2    1    2    0    0  0.00000000000E+00  0.61062266354E-15  0.17689668012E+04  0.18226910140E+04  0.43927097443E+03 0.  0.
      99925    2    3    3    0    0 -0.34385626507E+02 -0.41886872539E+00  0.15090771379E+04  0.15322212360E+04  0.26306949882E+03 0.  0.
         25    1    3    3    0    0  0.34385626507E+02  0.41886872539E+00  0.25988966325E+03  0.29046977799E+03  0.12509000000E+03 0.  0.
         25    1    4    4    0    0 -0.30353805538E+02 -0.26487479760E+02  0.60182477146E+03  0.61600609067E+03  0.12509000000E+03 0.  0.
         25    1    4    4    0    0 -0.40318209689E+01  0.26068611035E+02  0.90725236645E+03  0.91621514536E+03  0.12509000000E+03 0.  0.
<mgrwt>
<rscale>  2 0.43927097E+03</rscale>
<asrwt>0</asrwt>
<pdfrwt beam="1">  1       21 0.26409240E+00 0.43927097E+03</pdfrwt>
<pdfrwt beam="2">  1       21 0.39503110E-02 0.43927097E+03</pdfrwt>
<totfact> 0.19048848E+04</totfact>
</mgrwt>
</event>
<event>
 7    0  0.4691878E-002  0.4528884E+03  0.7546771E-02  0.1026864E+00
         21   -1    0    0  502  501  0.00000000000E+00  0.00000000000E+00  0.44822201832E+03  0.44822201832E+03  0.00000000000E+00 0.  1.
         21   -1    0    0  501  502 -0.00000000000E+00 -0.00000000000E+00 -0.11440082656E+03  0.11440082656E+03  0.00000000000E+00 0.  1.
      99926    2    1    2    0    0  0.00000000000E+00 -0.35527136788E-14  0.33382119176E+03  0.56262284487E+03  0.45288837201E+03 0.  0.
      99925    2    3    3    0    0 -0.83028786057E+02  0.23833409093E+02  0.29521234367E+03  0.40577909475E+03  0.26465928129E+03 0.  0.
         25    1    4    4    0    0 -0.15473901762E+02  0.77827518760E+00  0.89201793545E+02  0.15441669411E+03  0.12509000000E+03 0.  0.
         25    1    3    3    0    0  0.83028786057E+02 -0.23833409093E+02  0.38608848093E+02  0.15684375013E+03  0.12509000000E+03 0.  0.
         25    1    4    4    0    0 -0.67554884296E+02  0.23055133905E+02  0.20601055012E+03  0.25136240064E+03  0.12509000000E+03 0.  0.
<mgrwt>
<rscale>  2 0.45288837E+03</rscale>
<asrwt>0</asrwt>
<pdfrwt beam="1">  1       21 0.65915002E-01 0.45288837E+03</pdfrwt>
<pdfrwt beam="2">  1       21 0.16823651E-01 0.45288837E+03</pdfrwt>
<totfact> 0.62070200E+04</totfact>
</mgrwt>
</event>
<event>
 7    0  0.4691878E-002  0.4514582E+03  0.7546771E-02  0.1027288E+00
         21   -1    0    0  502  501  0.00000000000E+00  0.00000000000E+00  0.28425108683E+02  0.28425108683E+02  0.00000000000E+00 0. -1.
         21   -1    0    0  501  502 -0.00000000000E+00 -0.00000000000E+00 -0.17925573306E+04  0.17925573306E+04  0.00000000000E+00 0. -1.
      99926    2    1    2    0    0  0.00000000000E+00  0.14210854715E-13 -0.17641322219E+04  0.18209824393E+04  0.45145824587E+03 0.  0.
      99925    2    3    3    0    0  0.44654369064E+02  0.96905400461E+02 -0.12176641876E+04  0.12503166089E+04  0.26306060035E+03 0.  0.
         25    1    4    4    0    0 -0.43492249904E+01  0.19694395303E+02 -0.47112272328E+03  0.48786362178E+03  0.12509000000E+03 0.  0.
         25    1    4    4    0    0  0.49003594054E+02  0.77211005158E+02 -0.74654146430E+03  0.76245298712E+03  0.12509000000E+03 0.  0.
         25    1    3    3    0    0 -0.44654369064E+02 -0.96905400461E+02 -0.54646803431E+03  0.57066583036E+03  0.12509000000E+03 0.  0.
<mgrwt>
<rscale>  2 0.45145825E+03</rscale>
<asrwt>0</asrwt>
<pdfrwt beam="1">  1       21 0.41801629E-02 0.45145825E+03</pdfrwt>
<pdfrwt beam="2">  1       21 0.26361138E+00 0.45145825E+03</pdfrwt>
<totfact> 0.17331303E+04</totfact>
</mgrwt>
</event>
<event>
 7    0  0.4691878E-002  0.4491746E+03  0.7546771E-02  0.1027968E+00
         21   -1    0    0  502  501  0.00000000000E+00  0.00000000000E+00  0.87384143248E+02  0.87384143248E+02  0.00000000000E+00 0. -1.
         21   -1    0    0  501  502 -0.00000000000E+00 -0.00000000000E+00 -0.57721530577E+03  0.57721530577E+03  0.00000000000E+00 0. -1.
      99926    2    1    2    0    0  0.00000000000E+00  0.17763568394E-14 -0.48983116253E+03  0.66459944902E+03  0.44917464294E+03 0.  0.
      99925    2    3    3    0    0  0.10609440413E+03  0.13973335466E+02 -0.29358380633E+03  0.40845142618E+03  0.26303961587E+03 0.  0.
         25    1    3    3    0    0 -0.10609440413E+03 -0.13973335466E+02 -0.19624735619E+03  0.25614802284E+03  0.12509000000E+03 0.  0.
         25    1    4    4    0    0  0.22649751825E+02  0.11437786503E+02 -0.93834569766E+02  0.15841801918E+03  0.12509000000E+03 0.  0.
         25    1    4    4    0    0  0.83444652309E+02  0.25355489630E+01 -0.19974923657E+03  0.25003340700E+03  0.12509000000E+03 0.  0.
<mgrwt>
<rscale>  2 0.44917464E+03</rscale>
<asrwt>0</asrwt>
<pdfrwt beam="1">  1       21 0.12850610E-01 0.44917464E+03</pdfrwt>
<pdfrwt beam="2">  1       21 0.84884601E-01 0.44917464E+03</pdfrwt>
<totfact> 0.57460778E+04</totfact>
</mgrwt>
</event>
<event>
 7    0  0.4691878E-002  0.4586298E+03  0.7546771E-02  0.1025179E+00
         21   -1    0    0  502  501  0.00000000000E+00  0.00000000000E+00  0.14070656842E+03  0.14070656842E+03  0.00000000000E+00 0. -1.
         21   -1    0    0  501  502 -0.00000000000E+00 -0.00000000000E+00 -0.37372324713E+03  0.37372324713E+03  0.00000000000E+00 0. -1.
      99926    2    1    2    0    0  0.00000000000E+00  0.00000000000E+00 -0.23301667871E+03  0.51442981556E+03  0.45862976634E+03 0.  0.
      99925    2    3    3    0    0 -0.18002767490E+02  0.10941574095E+03 -0.18670000337E+03  0.34096902310E+03  0.26288225396E+03 0.  0.
         25    1    3    3    0    0  0.18002767490E+02 -0.10941574095E+03 -0.46316675339E+02  0.17346079246E+03  0.12509000000E+03 0.  0.
         25    1    4    4    0    0 -0.24717818977E+02  0.20444605736E+02 -0.62856438319E+02  0.14362239525E+03  0.12509000000E+03 0.  0.
         25    1    4    4    0    0  0.67150514874E+01  0.88971135219E+02 -0.12384356505E+03  0.19734662785E+03  0.12509000000E+03 0.  0.
<mgrwt>
<rscale>  2 0.45862977E+03</rscale>
<asrwt>0</asrwt>
<pdfrwt beam="1">  1       21 0.20692142E-01 0.45862977E+03</pdfrwt>
<pdfrwt beam="2">  1       21 0.54959301E-01 0.45862977E+03</pdfrwt>
<totfact> 0.62450008E+04</totfact>
</mgrwt>
</event>
<event>
 7    0  0.4691878E-002  0.4519672E+03  0.7546771E-02  0.1027137E+00
         21   -1    0    0  502  501  0.00000000000E+00  0.00000000000E+00  0.29178579146E+03  0.29178579146E+03  0.00000000000E+00 0.  1.
         21   -1    0    0  501  502 -0.00000000000E+00 -0.00000000000E+00 -0.17502080922E+03  0.17502080922E+03  0.00000000000E+00 0.  1.
      99926    2    1    2    0    0  0.00000000000E+00  0.71054273576E-14  0.11676498225E+03  0.46680660068E+03  0.45196719058E+03 0.  0.
      99925    2    3    3    0    0 -0.71657521456E+02 -0.41931070569E+02  0.14871871670E+03  0.31330883423E+03  0.26296797114E+03 0.  0.
         25    1    4    4    0    0 -0.75773472447E+02 -0.99751208656E+01  0.79037056109E+02  0.16653974451E+03  0.12509000000E+03 0.  0.
         25    1    3    3    0    0  0.71657521456E+02  0.41931070569E+02 -0.31953734452E+02  0.15349776645E+03  0.12509000000E+03 0.  0.
         25    1    4    4    0    0  0.41159509907E+01 -0.31955949703E+02  0.69681660592E+02  0.14676908972E+03  0.12509000000E+03 0.  0.
<mgrwt>
<rscale>  2 0.45196719E+03</rscale>
<asrwt>0</asrwt>
<pdfrwt beam="1">  1       21 0.42909675E-01 0.45196719E+03</pdfrwt>
<pdfrwt beam="2">  1       21 0.25738354E-01 0.45196719E+03</pdfrwt>
<totfact> 0.69326935E+04</totfact>
</mgrwt>
</event>
<event>
 7    0  0.4691878E-002  0.4489475E+03  0.7546771E-02  0.1028036E+00
         21   -1    0    0  502  501  0.00000000000E+00  0.00000000000E+00  0.56997751749E+02  0.56997751749E+02  0.00000000000E+00 0. -1.
         21   -1    0    0  501  502 -0.00000000000E+00 -0.00000000000E+00 -0.88404308176E+03  0.88404308176E+03  0.00000000000E+00 0. -1.
      99926    2    1    2    0    0  0.00000000000E+00  0.00000000000E+00 -0.82704533001E+03  0.94104083351E+03  0.44894751635E+03 0.  0.
      99925    2    3    3    0    0  0.43227278549E+02  0.90337333137E+02 -0.60482704477E+03  0.66707385418E+03  0.26294931350E+03 0.  0.
         25    1    4    4    0    0 -0.71483804338E+01  0.17320291595E+02 -0.23903382847E+03  0.27043626069E+03  0.12509000000E+03 0.  0.
         25    1    4    4    0    0  0.50375658983E+02  0.73017041543E+02 -0.36579321631E+03  0.39663759349E+03  0.12509000000E+03 0.  0.
         25    1    3    3    0    0 -0.43227278549E+02 -0.90337333137E+02 -0.22221828524E+03  0.27396697933E+03  0.12509000000E+03 0.  0.
<mgrwt>
<rscale>  2 0.44894752E+03</rscale>
<asrwt>0</asrwt>
<pdfrwt beam="1">  1       21 0.83820214E-02 0.44894752E+03</pdfrwt>
<pdfrwt beam="2">  1       21 0.13000635E+00 0.44894752E+03</pdfrwt>
<totfact> 0.43529900E+04</totfact>
</mgrwt>
</event>
<event>
 7    0  0.4691878E-002  0.4542890E+03  0.7546771E-02  0.1026451E+00
         21   -1    0    0  502  501  0.00000000000E+00  0.00000000000E+00  0.88043027355E+02  0.88043027355E+02  0.00000000000E+00 0. -1.
         21   -1    0    0  501  502 -0.00000000000E+00 -0.00000000000E+00 -0.58601603808E+03  0.58601603808E+03  0.00000000000E+00 0. -1.
      99926    2    1    2    0    0  0.14210854715E-13 -0.35527136788E-14 -0.49797301073E+03  0.67405906544E+03  0.45428900965E+03 0.  0.
      99925    2    3    3    0    0 -0.10214529599E+03 -0.24564461162E+02 -0.37305374830E+03  0.46841518765E+03  0.26307150103E+03 0.  0.
         25    1    3    3    0    0  0.10214529599E+03  0.24564461162E+02 -0.12491926242E+03  0.20564387778E+03  0.12509000000E+03 0.  0.
         25    1    4    4    0    0 -0.24105864178E+02  0.10981286915E+02 -0.20890223758E+03  0.24492720208E+03  0.12509000000E+03 0.  0.
         25    1    4    4    0    0 -0.78039431817E+02 -0.35545748077E+02 -0.16415151072E+03  0.22348798558E+03  0.12509000000E+03 0.  0.
<mgrwt>
<rscale>  2 0.45428901E+03</rscale>
<asrwt>0</asrwt>
<pdfrwt beam="1">  1       21 0.12947504E-01 0.45428901E+03</pdfrwt>
<pdfrwt beam="2">  1       21 0.86178829E-01 0.45428901E+03</pdfrwt>
<totfact> 0.54640035E+04</totfact>
</mgrwt>
</event>
<event>
 7    0  0.4691878E-002  0.4567744E+03  0.7546771E-02  0.1025721E+00
         21   -1    0    0  502  501  0.00000000000E+00  0.00000000000E+00  0.81940879136E+02  0.81940879136E+02  0.00000000000E+00 0. -1.
         21   -1    0    0  501  502 -0.00000000000E+00 -0.00000000000E+00 -0.63656531125E+03  0.63656531125E+03  0.00000000000E+00 0. -1.
      99926    2    1    2    0    0  0.00000000000E+00  0.00000000000E+00 -0.55462443212E+03  0.71850619039E+03  0.45677443550E+03 0.  0.
      99925    2    3    3    0    0  0.44488853732E+02 -0.88783410876E+02 -0.25715307273E+03  0.38086959594E+03  0.26281589401E+03 0.  0.
         25    1    4    4    0    0  0.61629124101E+02 -0.36060955237E+02 -0.13675806771E+03  0.19861726665E+03  0.12509000000E+03 0.  0.
         25    1    3    3    0    0 -0.44488853732E+02  0.88783410876E+02 -0.29747135939E+03  0.33763659445E+03  0.12509000000E+03 0.  0.
         25    1    4    4    0    0 -0.17140270369E+02 -0.52722455639E+02 -0.12039500502E+03  0.18225232929E+03  0.12509000000E+03 0.  0.
<mgrwt>
<rscale>  2 0.45677444E+03</rscale>
<asrwt>0</asrwt>
<pdfrwt beam="1">  1       21 0.12050129E-01 0.45677444E+03</pdfrwt>
<pdfrwt beam="2">  1       21 0.93612547E-01 0.45677444E+03</pdfrwt>
<totfact> 0.51191460E+04</totfact>
</mgrwt>
</event>
<event>
 7    0  0.4691878E-002  0.4547674E+03  0.7546771E-02  0.1026310E+00
         21   -1    0    0  502  501  0.00000000000E+00  0.00000000000E+00  0.60720185450E+02  0.60720185450E+02  0.00000000000E+00 0. -1.
         21   -1    0    0  501  502 -0.00000000000E+00 -0.00000000000E+00 -0.85150190629E+03  0.85150190629E+03  0.00000000000E+00 0. -1.
      99926    2    1    2    0    0  0.00000000000E+00  0.00000000000E+00 -0.79078172084E+03  0.91222209174E+03  0.45476742918E+03 0.  0.
      99925    2    3    3    0    0  0.45467944683E+02  0.98510289735E+02 -0.43509394877E+03  0.51987924361E+03  0.26305146360E+03 0.  0.
         25    1    4    4    0    0  0.56892604065E+02  0.69042347580E+02 -0.26494553860E+03  0.30634500270E+03  0.12509000000E+03 0.  0.
         25    1    3    3    0    0 -0.45467944683E+02 -0.98510289735E+02 -0.35568777207E+03  0.39234284813E+03  0.12509000000E+03 0.  0.
         25    1    4    4    0    0 -0.11424659382E+02  0.29467942155E+02 -0.17014841017E+03  0.21353424091E+03  0.12509000000E+03 0.  0.
<mgrwt>
<rscale>  2 0.45476743E+03</rscale>
<asrwt>0</asrwt>
<pdfrwt beam="1">  1       21 0.89294387E-02 0.45476743E+03</pdfrwt>
<pdfrwt beam="2">  1       21 0.12522087E+00 0.45476743E+03</pdfrwt>
<totfact> 0.42787382E+04</totfact>
</mgrwt>
</event>
<event>
 7    0  0.4691878E-002  0.4593342E+03  0.7546771E-02  0.1024975E+00
         21   -1    0    0  502  501  0.00000000000E+00  0.00000000000E+00  0.72304896346E+02  0.72304896346E+02  0.00000000000E+00 0.  1.
         21   -1    0    0  501  502 -0.00000000000E+00 -0.00000000000E+00 -0.72950754889E+03  0.72950754889E+03  0.00000000000E+00 0.  1.
      99926    2    1    2    0    0  0.71054273576E-14  0.71054273576E-14 -0.65720265254E+03  0.80181244524E+03  0.45933416031E+03 0.  0.
      99925    2    3    3    0    0 -0.51968576024E+02 -0.36186484243E+02 -0.58411048459E+03  0.64369803206E+03  0.26296749560E+03 0.  0.
         25    1    4    4    0    0 -0.19886817085E+02 -0.63876376441E+01 -0.19478426471E+03  0.23243215201E+03  0.12509000000E+03 0.  0.
         25    1    4    4    0    0 -0.32081758939E+02 -0.29798846599E+02 -0.38932621987E+03  0.41126588005E+03  0.12509000000E+03 0.  0.
         25    1    3    3    0    0  0.51968576024E+02  0.36186484243E+02 -0.73092167958E+02  0.15811441317E+03  0.12509000000E+03 0.  0.
<mgrwt>
<rscale>  2 0.45933416E+03</rscale>
<asrwt>0</asrwt>
<pdfrwt beam="1">  1       21 0.10633073E-01 0.45933416E+03</pdfrwt>
<pdfrwt beam="2">  1       21 0.10728052E+00 0.45933416E+03</pdfrwt>
<totfact> 0.46089510E+04</totfact>
</mgrwt>
</event>
<event>
 6    0  0.5632477E-002  0.4372967E+03  0.7546771E-02  0.1031579E+00
         21   -1    0    0  502  501  0.00000000000E+00  0.00000000000E+00  0.54633867866E+03  0.54633867866E+03  0.00000000000E+00 0. -1.
         21   -1    0    0  501  502 -0.00000000000E+00 -0.00000000000E+00 -0.87504503895E+02  0.87504503895E+02  0.00000000000E+00 0. -1.
      99926    2    1    2    0    0  0.88817841970E-15  0.17763568394E-14  0.45883417477E+03  0.63384318256E+03  0.43729667291E+03 0.  0.
         25    1    3    3    0    0 -0.72747895140E+01 -0.61689675960E+01  0.30034305975E+02  0.12899824169E+03  0.12509000000E+03 0.  0.
         25    1    3    3    0    0 -0.46634414131E+01  0.16277972324E+02  0.29572254882E+03  0.32153701817E+03  0.12509000000E+03 0.  0.
         25    1    3    3    0    0  0.11938230927E+02 -0.10109004728E+02  0.13307731997E+03  0.18330792270E+03  0.12509000000E+03 0.  0.
<mgrwt>
<rscale>  2 0.43729667E+03</rscale>
<asrwt>0</asrwt>
<pdfrwt beam="1">  1       21 0.80343922E-01 0.43729667E+03</pdfrwt>
<pdfrwt beam="2">  1       21 0.12868310E-01 0.43729667E+03</pdfrwt>
<totfact> 0.65297727E+04</totfact>
</mgrwt>
</event>
<event>
 7    0  0.4691878E-002  0.4504300E+03  0.7546771E-02  0.1027594E+00
         21   -1    0    0  502  501  0.00000000000E+00  0.00000000000E+00  0.11000606244E+04  0.11000606244E+04  0.00000000000E+00 0.  1.
         21   -1    0    0  501  502 -0.00000000000E+00 -0.00000000000E+00 -0.46108184306E+02  0.46108184306E+02  0.00000000000E+00 0.  1.
      99926    2    1    2    0    0  0.00000000000E+00 -0.17763568394E-14  0.10539524401E+04  0.11461688087E+04  0.45043000797E+03 0.  0.
      99925    2    3    3    0    0 -0.91310812637E+02  0.97014516105E+01  0.81466342441E+03  0.86096971370E+03  0.26298397322E+03 0.  0.
         25    1    3    3    0    0  0.91310812637E+02 -0.97014516105E+01  0.23928901572E+03  0.28519909504E+03  0.12509000000E+03 0.  0.
         25    1    4    4    0    0 -0.54742879788E+02  0.17557201650E+02  0.53341206202E+03  0.55089107292E+03  0.12509000000E+03 0.  0.
         25    1    4    4    0    0 -0.36567932849E+02 -0.78557500391E+01  0.28125136240E+03  0.31007864078E+03  0.12509000000E+03 0.  0.
<mgrwt>
<rscale>  2 0.45043001E+03</rscale>
<asrwt>0</asrwt>
<pdfrwt beam="1">  1       21 0.16177360E+00 0.45043001E+03</pdfrwt>
<pdfrwt beam="2">  1       21 0.67806160E-02 0.45043001E+03</pdfrwt>
<totfact> 0.35145789E+04</totfact>
</mgrwt>
</event>
<event>
 7    0  0.4691878E-002  0.4524346E+03  0.7546771E-02  0.1026998E+00
         21   -1    0    0  502  501  0.00000000000E+00  0.00000000000E+00  0.32878803781E+03  0.32878803781E+03  0.00000000000E+00 0.  1.
         21   -1    0    0  501  502 -0.00000000000E+00 -0.00000000000E+00 -0.15564518088E+03  0.15564518088E+03  0.00000000000E+00 0.  1.
      99926    2    1    2    0    0  0.00000000000E+00 -0.35527136788E-14  0.17314285693E+03  0.48443321869E+03  0.45243463004E+03 0.  0.
      99925    2    3    3    0    0  0.97741727273E+02  0.19476123327E+02  0.16081809573E+03  0.32402071148E+03  0.26304789853E+03 0.  0.
         25    1    4    4    0    0  0.52081724638E+02  0.50251969022E+02  0.87071046069E+02  0.16872060217E+03  0.12509000000E+03 0.  0.
         25    1    4    4    0    0  0.45660002635E+02 -0.30775845695E+02  0.73747049658E+02  0.15530010931E+03  0.12509000000E+03 0.  0.
         25    1    3    3    0    0 -0.97741727273E+02 -0.19476123327E+02  0.12324761199E+02  0.16041250721E+03  0.12509000000E+03 0.  0.
<mgrwt>
<rscale>  2 0.45243463E+03</rscale>
<asrwt>0</asrwt>
<pdfrwt beam="1">  1       21 0.48351182E-01 0.45243463E+03</pdfrwt>
<pdfrwt beam="2">  1       21 0.22888997E-01 0.45243463E+03</pdfrwt>
<totfact> 0.67748004E+04</totfact>
</mgrwt>
</event>
<event>
 7    0  0.4691878E-002  0.4717791E+03  0.7546771E-02  0.1021419E+00
         21   -1    0    0  502  501  0.00000000000E+00  0.00000000000E+00  0.31428058749E+03  0.31428058749E+03  0.00000000000E+00 0.  1.
         21   -1    0    0  501  502 -0.00000000000E+00 -0.00000000000E+00 -0.17705158540E+03  0.17705158540E+03  0.00000000000E+00 0.  1.
      99926    2    1    2    0    0  0.00000000000E+00 -0.14210854715E-13  0.13722900209E+03  0.49133217289E+03  0.47177908507E+03 0.  0.
      99925    2    3    3    0    0 -0.16199088698E+02 -0.12018291193E+03  0.40600312388E+02  0.29210628459E+03  0.26262397708E+03 0.  0.
         25    1    4    4    0    0 -0.71253393468E+01 -0.43239170088E+02  0.56551779092E+02  0.14410415715E+03  0.12509000000E+03 0.  0.
         25    1    4    4    0    0 -0.90737493509E+01 -0.76943741845E+02 -0.15951466705E+02  0.14800212744E+03  0.12509000000E+03 0.  0.
         25    1    3    3    0    0  0.16199088698E+02  0.12018291193E+03  0.96628689702E+02  0.19922588830E+03  0.12509000000E+03 0.  0.
<mgrwt>
<rscale>  2 0.47177909E+03</rscale>
<asrwt>0</asrwt>
<pdfrwt beam="1">  1       21 0.46217734E-01 0.47177909E+03</pdfrwt>
<pdfrwt beam="2">  1       21 0.26036998E-01 0.47177909E+03</pdfrwt>
<totfact> 0.57794467E+04</totfact>
</mgrwt>
</event>
<event>
 7    0  0.4691878E-002  0.4581431E+03  0.7546771E-02  0.1025321E+00
         21   -1    0    0  502  501  0.00000000000E+00  0.00000000000E+00  0.43488674774E+03  0.43488674774E+03  0.00000000000E+00 0.  1.
         21   -1    0    0  501  502 -0.00000000000E+00 -0.00000000000E+00 -0.12066077964E+03  0.12066077964E+03  0.00000000000E+00 0.  1.
      99926    2    1    2    0    0 -0.14210854715E-13  0.00000000000E+00  0.31422596811E+03  0.55554752738E+03  0.45814309571E+03 0.  0.
      99925    2    3    3    0    0 -0.77334788006E+02  0.78014015089E+02  0.15193401896E+03  0.32305442890E+03  0.26308432475E+03 0.  0.
         25    1    4    4    0    0 -0.70594268625E+02  0.15384256444E+02  0.66795650550E+02  0.15915210693E+03  0.12509000000E+03 0.  0.
         25    1    3    3    0    0  0.77334788006E+02 -0.78014015089E+02  0.16229194914E+03  0.23249309848E+03  0.12509000000E+03 0.  0.
         25    1    4    4    0    0 -0.67405193810E+01  0.62629758646E+02  0.85138368414E+02  0.16390232197E+03  0.12509000000E+03 0.  0.
<mgrwt>
<rscale>  2 0.45814310E+03</rscale>
<asrwt>0</asrwt>
<pdfrwt beam="1">  1       21 0.63953933E-01 0.45814310E+03</pdfrwt>
<pdfrwt beam="2">  1       21 0.17744232E-01 0.45814310E+03</pdfrwt>
<totfact> 0.59995670E+04</totfact>
</mgrwt>
</event>
<event>
 7    0  0.4691878E-002  0.4626713E+03  0.7546771E-02  0.1024009E+00
         21   -1    0    0  502  501  0.00000000000E+00  0.00000000000E+00  0.58728371269E+03  0.58728371269E+03  0.00000000000E+00 0. -1.
         21   -1    0    0  501  502 -0.00000000000E+00 -0.00000000000E+00 -0.91124939587E+02  0.91124939587E+02  0.00000000000E+00 0. -1.
      99926    2    1    2    0    0 -0.26645352591E-14  0.00000000000E+00  0.49615877311E+03  0.67840865228E+03  0.46267134270E+03 0.  0.
      99925    2    3    3    0    0  0.20277919327E+01  0.80588071294E+02  0.44081101801E+03  0.51963387069E+03  0.26307120100E+03 0.  0.
         25    1    3    3    0    0 -0.20277919327E+01 -0.80588071294E+02  0.55347755094E+02  0.15877478159E+03  0.12509000000E+03 0.  0.
         25    1    4    4    0    0 -0.22344020467E+02  0.21703457999E+02  0.26463790425E+03  0.29436545960E+03  0.12509000000E+03 0.  0.
         25    1    4    4    0    0  0.24371812400E+02  0.58884613295E+02  0.17617311376E+03  0.22526841109E+03  0.12509000000E+03 0.  0.
<mgrwt>
<rscale>  2 0.46267134E+03</rscale>
<asrwt>0</asrwt>
<pdfrwt beam="1">  1       21 0.86365250E-01 0.46267134E+03</pdfrwt>
<pdfrwt beam="2">  1       21 0.13400727E-01 0.46267134E+03</pdfrwt>
<totfact> 0.50941102E+04</totfact>
</mgrwt>
</event>
<event>
 7    0  0.4691878E-002  0.4537111E+03  0.7546771E-02  0.1026621E+00
         21   -1    0    0  502  501  0.00000000000E+00  0.00000000000E+00  0.16648050499E+04  0.16648050499E+04  0.00000000000E+00 0.  1.
         21   -1    0    0  501  502 -0.00000000000E+00 -0.00000000000E+00 -0.30912598853E+02  0.30912598853E+02  0.00000000000E+00 0.  1.
      99926    2    1    2    0    0  0.00000000000E+00  0.35527136788E-14  0.16338924510E+04  0.16957176487E+04  0.45371114456E+03 0.  0.
      99925    2    3    3    0    0  0.70956961202E+02  0.19680471457E+02  0.13438076949E+04  0.13713430425E+04  0.26332566944E+03 0.  0.
         25    1    4    4    0    0  0.40845997490E+02 -0.67531482013E+01  0.85942785651E+03  0.86946980923E+03  0.12509000000E+03 0.  0.
         25    1    4    4    0    0  0.30110963712E+02  0.26433619659E+02  0.48437983834E+03  0.50187323327E+03  0.12509000000E+03 0.  0.
         25    1    3    3    0    0 -0.70956961202E+02 -0.19680471457E+02  0.29008475618E+03  0.32437460623E+03  0.12509000000E+03 0.  0.
<mgrwt>
<rscale>  2 0.45371114E+03</rscale>
<asrwt>0</asrwt>
<pdfrwt beam="1">  1       21 0.24482421E+00 0.45371114E+03</pdfrwt>
<pdfrwt beam="2">  1       21 0.45459716E-02 0.45371114E+03</pdfrwt>
<totfact> 0.19545717E+04</totfact>
</mgrwt>
</event>
<event>
 7    0  0.4691878E-002  0.4631969E+03  0.7546771E-02  0.1023858E+00
         21   -1    0    0  502  501  0.00000000000E+00  0.00000000000E+00  0.46395130021E+03  0.46395130021E+03  0.00000000000E+00 0. -1.
         21   -1    0    0  501  502 -0.00000000000E+00 -0.00000000000E+00 -0.11561091318E+03  0.11561091318E+03  0.00000000000E+00 0. -1.
      99926    2    1    2    0    0  0.00000000000E+00 -0.88817841970E-15  0.34834038703E+03  0.57956221339E+03  0.46319686306E+03 0.  0.
      99925    2    3    3    0    0 -0.11361252936E+03  0.24905273584E+01  0.26896690878E+03  0.39284942136E+03  0.26281830281E+03 0.  0.
         25    1    3    3    0    0  0.11361252936E+03 -0.24905273584E+01  0.79373478252E+02  0.18671279202E+03  0.12509000000E+03 0.  0.
         25    1    4    4    0    0 -0.18018544069E+02  0.90878968368E+01  0.14344000630E+03  0.19138913581E+03  0.12509000000E+03 0.  0.
         25    1    4    4    0    0 -0.95593985294E+02 -0.65973694784E+01  0.12552690248E+03  0.20146028555E+03  0.12509000000E+03 0.  0.
<mgrwt>
<rscale>  2 0.46319686E+03</rscale>
<asrwt>0</asrwt>
<pdfrwt beam="1">  1       21 0.68228132E-01 0.46319686E+03</pdfrwt>
<pdfrwt beam="2">  1       21 0.17001605E-01 0.46319686E+03</pdfrwt>
<totfact> 0.56221289E+04</totfact>
</mgrwt>
</event>
<event>
 7    0  0.4691878E-002  0.4416872E+03  0.7546771E-02  0.1030230E+00
         21   -1    0    0  502  501  0.00000000000E+00  0.00000000000E+00  0.55346346646E+03  0.55346346646E+03  0.00000000000E+00 0.  1.
         21   -1    0    0  501  502 -0.00000000000E+00 -0.00000000000E+00 -0.88121260771E+02  0.88121260771E+02  0.00000000000E+00 0.  1.
      99926    2    1    2    0    0 -0.14210854715E-13  0.00000000000E+00  0.46534220569E+03  0.64158472723E+03  0.44168721265E+03 0.  0.
      99925    2    3    3    0    0  0.98126607137E+02  0.18344436965E+02  0.28238789007E+03  0.39851037832E+03  0.26287307160E+03 0.  0.
         25    1    3    3    0    0 -0.98126607137E+02 -0.18344436965E+02  0.18295431562E+03  0.24307434891E+03  0.12509000000E+03 0.  0.
         25    1    4    4    0    0  0.73102884115E+02  0.17369551929E+02  0.10395777912E+03  0.17916601503E+03  0.12509000000E+03 0.  0.
         25    1    4    4    0    0  0.25023723022E+02  0.97488503550E+00  0.17843011095E+03  0.21934436329E+03  0.12509000000E+03 0.  0.
<mgrwt>
<rscale>  2 0.44168721E+03</rscale>
<asrwt>0</asrwt>
<pdfrwt beam="1">  1       21 0.81391685E-01 0.44168721E+03</pdfrwt>
<pdfrwt beam="2">  1       21 0.12959009E-01 0.44168721E+03</pdfrwt>
<totfact> 0.62499781E+04</totfact>
</mgrwt>
</event>
<event>
 7    0  0.4691878E-002  0.4586615E+03  0.7546771E-02  0.1025170E+00
         21   -1    0    0  502  501  0.00000000000E+00  0.00000000000E+00  0.18305821178E+03  0.18305821178E+03  0.00000000000E+00 0.  1.
         21   -1    0    0  501  502 -0.00000000000E+00 -0.00000000000E+00 -0.28729986991E+03  0.28729986991E+03  0.00000000000E+00 0.  1.
      99926    2    1    2    0    0  0.00000000000E+00  0.14210854715E-13 -0.10424165813E+03  0.47035808169E+03  0.45866153286E+03 0.  0.
      99925    2    3    3    0    0 -0.20443569138E+02  0.10755496305E+03 -0.24384827952E+02  0.28593836739E+03  0.26302114081E+03 0.  0.
         25    1    4    4    0    0 -0.14871443311E+02  0.88728347260E+02  0.10973729840E+02  0.15447268458E+03  0.12509000000E+03 0.  0.
         25    1    3    3    0    0  0.20443569138E+02 -0.10755496305E+03 -0.79856830180E+02  0.18441971430E+03  0.12509000000E+03 0.  0.
         25    1    4    4    0    0 -0.55721258271E+01  0.18826615794E+02 -0.35358557793E+02  0.13146568281E+03  0.12509000000E+03 0.  0.
<mgrwt>
<rscale>  2 0.45866153E+03</rscale>
<asrwt>0</asrwt>
<pdfrwt beam="1">  1       21 0.26920326E-01 0.45866153E+03</pdfrwt>
<pdfrwt beam="2">  1       21 0.42249980E-01 0.45866153E+03</pdfrwt>
<totfact> 0.65486532E+04</totfact>
</mgrwt>
</event>
<event>
 7    0  0.4691878E-002  0.4551631E+03  0.7546771E-02  0.1026193E+00
         21   -1    0    0  502  501  0.00000000000E+00  0.00000000000E+00  0.27848360992E+03  0.27848360992E+03  0.00000000000E+00 0.  1.
         21   -1    0    0  501  502 -0.00000000000E+00 -0.00000000000E+00 -0.18598349869E+03  0.18598349869E+03  0.00000000000E+00 0.  1.
      99926    2    1    2    0    0  0.00000000000E+00  0.00000000000E+00  0.92500111230E+02  0.46446710861E+03  0.45516307451E+03 0.  0.
      99925    2    3    3    0    0 -0.10780170041E+03  0.21807444985E+02  0.86130531409E+02  0.29777922388E+03  0.26297761590E+03 0.  0.
         25    1    3    3    0    0  0.10780170041E+03 -0.21807444985E+02  0.63695798208E+01  0.16668788473E+03  0.12509000000E+03 0.  0.
         25    1    4    4    0    0 -0.62731000599E+02  0.42562598539E+02  0.19329948316E+02  0.14753951414E+03  0.12509000000E+03 0.  0.
         25    1    4    4    0    0 -0.45070699814E+02 -0.20755153554E+02  0.66800583093E+02  0.15023970974E+03  0.12509000000E+03 0.  0.
<mgrwt>
<rscale>  2 0.45516307E+03</rscale>
<asrwt>0</asrwt>
<pdfrwt beam="1">  1       21 0.40953472E-01 0.45516307E+03</pdfrwt>
<pdfrwt beam="2">  1       21 0.27350514E-01 0.45516307E+03</pdfrwt>
<totfact> 0.67761950E+04</totfact>
</mgrwt>
</event>
<event>
 7    0  0.4691878E-002  0.4575805E+03  0.7546771E-02  0.1025485E+00
         21   -1    0    0  502  501  0.00000000000E+00  0.00000000000E+00  0.11043678746E+03  0.11043678746E+03  0.00000000000E+00 0. -1.
         21   -1    0    0  501  502 -0.00000000000E+00 -0.00000000000E+00 -0.47398137516E+03  0.47398137516E+03  0.00000000000E+00 0. -1.
      99926    2    1    2    0    0  0.00000000000E+00  0.00000000000E+00 -0.36354458770E+03  0.58441816262E+03  0.45758050828E+03 0.  0.
      99925    2    3    3    0    0 -0.29852890155E+02 -0.10855560972E+03 -0.19445258093E+03  0.34584924112E+03  0.26291514963E+03 0.  0.
         25    1    3    3    0    0  0.29852890155E+02  0.10855560972E+03 -0.16909200677E+03  0.23856892150E+03  0.12509000000E+03 0.  0.
         25    1    4    4    0    0 -0.33773927357E+01 -0.73640504996E+02 -0.14264227186E+03  0.20354030701E+03  0.12509000000E+03 0.  0.
         25    1    4    4    0    0 -0.26475497420E+02 -0.34915104723E+02 -0.51810309072E+02  0.14230893411E+03  0.12509000000E+03 0.  0.
<mgrwt>
<rscale>  2 0.45758051E+03</rscale>
<asrwt>0</asrwt>
<pdfrwt beam="1">  1       21 0.16240704E-01 0.45758051E+03</pdfrwt>
<pdfrwt beam="2">  1       21 0.69703142E-01 0.45758051E+03</pdfrwt>
<totfact> 0.58446396E+04</totfact>
</mgrwt>
</event>
<event>
 7    0  0.4691878E-002  0.4590095E+03  0.7546771E-02  0.1025069E+00
         21   -1    0    0  502  501  0.00000000000E+00  0.00000000000E+00  0.15357807737E+04  0.15357807737E+04  0.00000000000E+00 0.  1.
         21   -1    0    0  501  502 -0.00000000000E+00 -0.00000000000E+00 -0.34296835919E+02  0.34296835919E+02  0.00000000000E+00 0.  1.
      99926    2    1    2    0    0  0.00000000000E+00  0.00000000000E+00  0.15014839378E+04  0.15700776096E+04  0.45900946048E+03 0.  0.
      99925    2    3    3    0    0 -0.46056361353E+02  0.84493170302E+02  0.71447056953E+03  0.76739595781E+03  0.26299824540E+03 0.  0.
         25    1    4    4    0    0 -0.56228564040E+02  0.35922265956E+02  0.30412011412E+03  0.33554226637E+03  0.12509000000E+03 0.  0.
         25    1    4    4    0    0  0.10172202687E+02  0.48570904346E+02  0.41035045541E+03  0.43185369144E+03  0.12509000000E+03 0.  0.
         25    1    3    3    0    0  0.46056361353E+02 -0.84493170302E+02  0.78701336826E+03  0.80268165182E+03  0.12509000000E+03 0.  0.
<mgrwt>
<rscale>  2 0.45900946E+03</rscale>
<asrwt>0</asrwt>
<pdfrwt beam="1">  1       21 0.22585007E+00 0.45900946E+03</pdfrwt>
<pdfrwt beam="2">  1       21 0.50436534E-02 0.45900946E+03</pdfrwt>
<totfact> 0.21437413E+04</totfact>
</mgrwt>
</event>
<event>
 7    0  0.4691878E-002  0.4609679E+03  0.7546771E-02  0.1024501E+00
         21   -1    0    0  502  501  0.00000000000E+00  0.00000000000E+00  0.17127261258E+03  0.17127261258E+03  0.00000000000E+00 0. -1.
         21   -1    0    0  501  502 -0.00000000000E+00 -0.00000000000E+00 -0.31016544446E+03  0.31016544446E+03  0.00000000000E+00 0. -1.
      99926    2    1    2    0    0 -0.14210854715E-13 -0.17763568394E-14 -0.13889283188E+03  0.48143805704E+03  0.46096787743E+03 0.  0.
      99925    2    3    3    0    0  0.10879877345E+03  0.95600694515E+01 -0.13538011765E+03  0.31534044931E+03  0.26302709876E+03 0.  0.
         25    1    4    4    0    0  0.10941401990E+02  0.39092636034E+01 -0.53184027097E+02  0.13642230557E+03  0.12509000000E+03 0.  0.
         25    1    3    3    0    0 -0.10879877345E+03 -0.95600694515E+01 -0.35127142308E+01  0.16609760773E+03  0.12509000000E+03 0.  0.
         25    1    4    4    0    0  0.97857371461E+02  0.56508058481E+01 -0.82196090557E+02  0.17891814374E+03  0.12509000000E+03 0.  0.
<mgrwt>
<rscale>  2 0.46096788E+03</rscale>
<asrwt>0</asrwt>
<pdfrwt beam="1">  1       21 0.25187149E-01 0.46096788E+03</pdfrwt>
<pdfrwt beam="2">  1       21 0.45612565E-01 0.46096788E+03</pdfrwt>
<totfact> 0.63532525E+04</totfact>
</mgrwt>
</event>
<event>
 7    0  0.4691878E-002  0.4591700E+03  0.7546771E-02  0.1025022E+00
         21   -1    0    0  502  501  0.00000000000E+00  0.00000000000E+00  0.74161535656E+03  0.74161535656E+03  0.00000000000E+00 0. -1.
         21   -1    0    0  501  502 -0.00000000000E+00 -0.00000000000E+00 -0.71073601640E+02  0.71073601640E+02  0.00000000000E+00 0. -1.
      99926    2    1    2    0    0  0.00000000000E+00  0.88817841970E-15  0.67054175492E+03  0.81268895821E+03  0.45917000957E+03 0.  0.
      99925    2    3    3    0    0  0.73273007746E+02  0.54154634626E+01  0.25923677625E+03  0.37654958313E+03  0.26303539968E+03 0.  0.
         25    1    4    4    0    0  0.28741239682E+02 -0.62293021695E+01  0.73818331540E+02  0.14819418759E+03  0.12509000000E+03 0.  0.
         25    1    3    3    0    0 -0.73273007746E+02 -0.54154634626E+01  0.41130497868E+03  0.43613937508E+03  0.12509000000E+03 0.  0.
         25    1    4    4    0    0  0.44531768064E+02  0.11644765632E+02  0.18541844471E+03  0.22835539554E+03  0.12509000000E+03 0.  0.
<mgrwt>
<rscale>  2 0.45917001E+03</rscale>
<asrwt>0</asrwt>
<pdfrwt beam="1">  1       21 0.10906108E+00 0.45917001E+03</pdfrwt>
<pdfrwt beam="2">  1       21 0.10452001E-01 0.45917001E+03</pdfrwt>
<totfact> 0.45645132E+04</totfact>
</mgrwt>
</event>
<event>
 7    0  0.4691878E-002  0.4499334E+03  0.7546771E-02  0.1027742E+00
         21   -1    0    0  502  501  0.00000000000E+00  0.00000000000E+00  0.13186606644E+03  0.13186606644E+03  0.00000000000E+00 0. -1.
         21   -1    0    0  501  502 -0.00000000000E+00 -0.00000000000E+00 -0.38379855119E+03  0.38379855119E+03  0.00000000000E+00 0. -1.
      99926    2    1    2    0    0  0.00000000000E+00  0.00000000000E+00 -0.25193248475E+03  0.51566461762E+03  0.44993335173E+03 0.  0.
      99925    2    3    3    0    0  0.18905977140E+02  0.10627505177E+03 -0.16964651725E+03  0.33108316908E+03  0.26302908857E+03 0.  0.
         25    1    4    4    0    0  0.48216385057E+02  0.49478846836E+02 -0.72063117601E+02  0.16004242278E+03  0.12509000000E+03 0.  0.
         25    1    3    3    0    0 -0.18905977140E+02 -0.10627505177E+03 -0.82285967497E+02  0.18458144854E+03  0.12509000000E+03 0.  0.
         25    1    4    4    0    0 -0.29310407918E+02  0.56796204929E+02 -0.97583399651E+02  0.17104074630E+03  0.12509000000E+03 0.  0.
<mgrwt>
<rscale>  2 0.44993335E+03</rscale>
<asrwt>0</asrwt>
<pdfrwt beam="1">  1       21 0.19392069E-01 0.44993335E+03</pdfrwt>
<pdfrwt beam="2">  1       21 0.56440964E-01 0.44993335E+03</pdfrwt>
<totfact> 0.66829992E+04</totfact>
</mgrwt>
</event>
<event>
 7    0  0.4691878E-002  0.4527403E+03  0.7546771E-02  0.1026908E+00
         21   -1    0    0  502  501  0.00000000000E+00  0.00000000000E+00  0.10882763899E+03  0.10882763899E+03  0.00000000000E+00 0. -1.
         21   -1    0    0  501  502 -0.00000000000E+00 -0.00000000000E+00 -0.47086796441E+03  0.47086796441E+03  0.00000000000E+00 0. -1.
      99926    2    1    2    0    0 -0.71054273576E-14 -0.14210854715E-13 -0.36204032543E+03  0.57969560340E+03  0.45274031781E+03 0.  0.
      99925    2    3    3    0    0 -0.35728433241E+02 -0.99630819699E+02 -0.18523783106E+03  0.33863658306E+03  0.26298072202E+03 0.  0.
         25    1    3    3    0    0  0.35728433241E+02  0.99630819699E+02 -0.17680249437E+03  0.24105902034E+03  0.12509000000E+03 0.  0.
         25    1    4    4    0    0 -0.10813418094E+02 -0.21449502095E+02 -0.12147538129E+03  0.17601360036E+03  0.12509000000E+03 0.  0.
         25    1    4    4    0    0 -0.24915015148E+02 -0.78181317604E+02 -0.63762449767E+02  0.16262298270E+03  0.12509000000E+03 0.  0.
<mgrwt>
<rscale>  2 0.45274032E+03</rscale>
<asrwt>0</asrwt>
<pdfrwt beam="1">  1       21 0.16004064E-01 0.45274032E+03</pdfrwt>
<pdfrwt beam="2">  1       21 0.69245289E-01 0.45274032E+03</pdfrwt>
<totfact> 0.61028747E+04</totfact>
</mgrwt>
</event>
<event>
 7    0  0.4691878E-002  0.4534130E+03  0.7546771E-02  0.1026709E+00
         21   -1    0    0  502  501  0.00000000000E+00  0.00000000000E+00  0.60063918301E+02  0.60063918301E+02  0.00000000000E+00 0.  1.
         21   -1    0    0  501  502 -0.00000000000E+00 -0.00000000000E+00 -0.85568576620E+03  0.85568576620E+03  0.00000000000E+00 0.  1.
      99926    2    1    2    0    0  0.00000000000E+00 -0.44408920985E-15 -0.79562184790E+03  0.91574968450E+03  0.45341301239E+03 0.  0.
      99925    2    3    3    0    0 -0.88591791407E+02  0.10343061045E+01 -0.63879753054E+03  0.69645319590E+03  0.26293572175E+03 0.  0.
         25    1    4    4    0    0 -0.10977643648E+02 -0.20421369185E+01 -0.35803744054E+03  0.37942455892E+03  0.12509000000E+03 0.  0.
         25    1    4    4    0    0 -0.77614147759E+02  0.30764430230E+01 -0.28076009000E+03  0.31702863699E+03  0.12509000000E+03 0.  0.
         25    1    3    3    0    0  0.88591791407E+02 -0.10343061045E+01 -0.15682431736E+03  0.21929648860E+03  0.12509000000E+03 0.  0.
<mgrwt>
<rscale>  2 0.45341301E+03</rscale>
<asrwt>0</asrwt>
<pdfrwt beam="1">  1       21 0.88329289E-02 0.45341301E+03</pdfrwt>
<pdfrwt beam="2">  1       21 0.12583615E+00 0.45341301E+03</pdfrwt>
<totfact> 0.43092317E+04</totfact>
</mgrwt>
</event>
<event>
 7    0  0.4691878E-002  0.4574654E+03  0.7546771E-02  0.1025519E+00
         21   -1    0    0  502  501  0.00000000000E+00  0.00000000000E+00  0.13366294722E+03  0.13366294722E+03  0.00000000000E+00 0.  1.
         21   -1    0    0  501  502 -0.00000000000E+00 -0.00000000000E+00 -0.39142222448E+03  0.39142222448E+03  0.00000000000E+00 0.  1.
      99926    2    1    2    0    0  0.17763568394E-14  0.00000000000E+00 -0.25775927725E+03  0.52508517170E+03  0.45746540036E+03 0.  0.
      99925    2    3    3    0    0  0.91077606657E+01 -0.79498935891E+02 -0.25738048816E+03  0.37659044555E+03  0.26300687422E+03 0.  0.
         25    1    4    4    0    0  0.13497953075E+02 -0.52648737789E+02 -0.80921876768E+02  0.15858733420E+03  0.12509000000E+03 0.  0.
         25    1    4    4    0    0 -0.43901924093E+01 -0.26850198102E+02 -0.17645861139E+03  0.21800311136E+03  0.12509000000E+03 0.  0.
         25    1    3    3    0    0 -0.91077606657E+01  0.79498935891E+02 -0.37878909509E+00  0.14849472615E+03  0.12509000000E+03 0.  0.
<mgrwt>
<rscale>  2 0.45746540E+03</rscale>
<asrwt>0</asrwt>
<pdfrwt beam="1">  1       21 0.19656316E-01 0.45746540E+03</pdfrwt>
<pdfrwt beam="2">  1       21 0.57562093E-01 0.45746540E+03</pdfrwt>
<totfact> 0.62313594E+04</totfact>
</mgrwt>
</event>
<event>
 7    0  0.4691878E-002  0.4594260E+03  0.7546771E-02  0.1024948E+00
         21   -1    0    0  502  501  0.00000000000E+00  0.00000000000E+00  0.27414632862E+02  0.27414632862E+02  0.00000000000E+00 0. -1.
         21   -1    0    0  501  502 -0.00000000000E+00 -0.00000000000E+00 -0.19248139315E+04  0.19248139315E+04  0.00000000000E+00 0. -1.
      99926    2    1    2    0    0  0.00000000000E+00  0.00000000000E+00 -0.18973992987E+04  0.19522285644E+04  0.45942602130E+03 0.  0.
      99925    2    3    3    0    0  0.86033284717E+02 -0.59013733248E+02 -0.14149852573E+04  0.14430575105E+04  0.26333885626E+03 0.  0.
         25    1    4    4    0    0  0.77857208954E+02 -0.77488005379E+01 -0.76938101831E+03  0.78340056697E+03  0.12509000000E+03 0.  0.
         25    1    4    4    0    0  0.81760757636E+01 -0.51264932710E+02 -0.64560423903E+03  0.65965694348E+03  0.12509000000E+03 0.  0.
         25    1    3    3    0    0 -0.86033284717E+02  0.59013733248E+02 -0.48241404133E+03  0.50917105393E+03  0.12509000000E+03 0.  0.
<mgrwt>
<rscale>  2 0.45942602E+03</rscale>
<asrwt>0</asrwt>
<pdfrwt beam="1">  1       21 0.40315644E-02 0.45942602E+03</pdfrwt>
<pdfrwt beam="2">  1       21 0.28306082E+00 0.45942602E+03</pdfrwt>
<totfact> 0.14017970E+04</totfact>
</mgrwt>
</event>
<event>
 7    0  0.4691878E-002  0.4520958E+03  0.7546771E-02  0.1027099E+00
         21   -1    0    0  502  501  0.00000000000E+00  0.00000000000E+00  0.65918965950E+02  0.65918965950E+02  0.00000000000E+00 0.  1.
         21   -1    0    0  501  502 -0.00000000000E+00 -0.00000000000E+00 -0.77515874441E+03  0.77515874441E+03  0.00000000000E+00 0.  1.
      99926    2    1    2    0    0  0.00000000000E+00  0.71054273576E-14 -0.70923977846E+03  0.84107771036E+03  0.45209584328E+03 0.  0.
      99925    2    3    3    0    0 -0.20707721321E+02 -0.54888466817E+02 -0.62149651217E+03  0.67740748585E+03  0.26302363722E+03 0.  0.
         25    1    4    4    0    0 -0.44714289884E+02 -0.44916160692E+02 -0.36062633868E+03  0.38693112237E+03  0.12509000000E+03 0.  0.
         25    1    4    4    0    0  0.24006568563E+02 -0.99723061249E+01 -0.26087017349E+03  0.29047636348E+03  0.12509000000E+03 0.  0.
         25    1    3    3    0    0  0.20707721321E+02  0.54888466817E+02 -0.87743266295E+02  0.16367022451E+03  0.12509000000E+03 0.  0.
<mgrwt>
<rscale>  2 0.45209584E+03</rscale>
<asrwt>0</asrwt>
<pdfrwt beam="1">  1       21 0.96939662E-02 0.45209584E+03</pdfrwt>
<pdfrwt beam="2">  1       21 0.11399393E+00 0.45209584E+03</pdfrwt>
<totfact> 0.46900660E+04</totfact>
</mgrwt>
</event>
<event>
 7    0  0.4691878E-002  0.4458236E+03  0.7546771E-02  0.1028975E+00
         21   -1    0    0  502  501  0.00000000000E+00  0.00000000000E+00  0.77297263547E+03  0.77297263547E+03  0.00000000000E+00 0. -1.
         21   -1    0    0  501  502 -0.00000000000E+00 -0.00000000000E+00 -0.64283868677E+02  0.64283868677E+02  0.00000000000E+00 0. -1.
      99926    2    1    2    0    0  0.14210854715E-13  0.00000000000E+00  0.70868876680E+03  0.83725650415E+03  0.44582360364E+03 0.  0.
      99925    2    3    3    0    0 -0.88109023073E+02  0.54967424653E+02  0.47361504073E+03  0.55143876064E+03  0.26265734752E+03 0.  0.
         25    1    4    4    0    0 -0.16257591877E+02  0.38810905255E+02  0.27909439810E+03  0.30872607083E+03  0.12509000000E+03 0.  0.
         25    1    3    3    0    0  0.88109023073E+02 -0.54967424653E+02  0.23507372606E+03  0.28581774351E+03  0.12509000000E+03 0.  0.
         25    1    4    4    0    0 -0.71851431196E+02  0.16156519398E+02  0.19452064263E+03  0.24271268981E+03  0.12509000000E+03 0.  0.
<mgrwt>
<rscale>  2 0.44582360E+03</rscale>
<asrwt>0</asrwt>
<pdfrwt beam="1">  1       21 0.11367244E+00 0.44582360E+03</pdfrwt>
<pdfrwt beam="2">  1       21 0.94535105E-02 0.44582360E+03</pdfrwt>
<totfact> 0.49482282E+04</totfact>
</mgrwt>
</event>
<event>
 7    0  0.4691878E-002  0.5059509E+03  0.7546771E-02  0.1012237E+00
         21   -1    0    0  502  501  0.00000000000E+00  0.00000000000E+00  0.22208572937E+03  0.22208572937E+03  0.00000000000E+00 0.  1.
         21   -1    0    0  501  502 -0.00000000000E+00 -0.00000000000E+00 -0.28816163354E+03  0.28816163354E+03  0.00000000000E+00 0.  1.
      99926    2    1    2    0    0  0.00000000000E+00  0.00000000000E+00 -0.66075904172E+02  0.51024736290E+03  0.50595093264E+03 0.  0.
      99925    2    3    3    0    0 -0.15206123963E+03 -0.35202188431E+02 -0.34201365291E+02  0.30770030912E+03  0.26295994405E+03 0.  0.
         25    1    4    4    0    0 -0.76780811377E+02 -0.27549809724E+02  0.22245735419E+02  0.15098564785E+03  0.12509000000E+03 0.  0.
         25    1    4    4    0    0 -0.75280428255E+02 -0.76523787070E+01 -0.56447100710E+02  0.15671466127E+03  0.12509000000E+03 0.  0.
         25    1    3    3    0    0  0.15206123963E+03  0.35202188431E+02 -0.31874538881E+02  0.20254705379E+03  0.12509000000E+03 0.  0.
<mgrwt>
<rscale>  2 0.50595093E+03</rscale>
<asrwt>0</asrwt>
<pdfrwt beam="1">  1       21 0.32659666E-01 0.50595093E+03</pdfrwt>
<pdfrwt beam="2">  1       21 0.42376710E-01 0.50595093E+03</pdfrwt>
<totfact> 0.43911256E+04</totfact>
</mgrwt>
</event>
<event>
 7    0  0.4691878E-002  0.4590568E+03  0.7546771E-02  0.1025055E+00
         21   -1    0    0  502  501  0.00000000000E+00  0.00000000000E+00  0.46241240304E+03  0.46241240304E+03  0.00000000000E+00 0. -1.
         21   -1    0    0  501  502 -0.00000000000E+00 -0.00000000000E+00 -0.11393140119E+03  0.11393140119E+03  0.00000000000E+00 0. -1.
      99926    2    1    2    0    0  0.00000000000E+00  0.35527136788E-14  0.34848100184E+03  0.57634380423E+03  0.45905682876E+03 0.  0.
      99925    2    3    3    0    0 -0.10940965634E+03 -0.30664586792E+02  0.25335565394E+03  0.38241822650E+03  0.26295213023E+03 0.  0.
         25    1    3    3    0    0  0.10940965634E+03  0.30664586792E+02  0.95125347903E+02  0.19392557773E+03  0.12509000000E+03 0.  0.
         25    1    4    4    0    0 -0.52453833023E+02  0.23736197243E+02  0.13758298456E+03  0.19465712779E+03  0.12509000000E+03 0.  0.
         25    1    4    4    0    0 -0.56955823319E+02 -0.54400784036E+02  0.11577266938E+03  0.18776109871E+03  0.12509000000E+03 0.  0.
<mgrwt>
<rscale>  2 0.45905683E+03</rscale>
<asrwt>0</asrwt>
<pdfrwt beam="1">  1       21 0.68001823E-01 0.45905683E+03</pdfrwt>
<pdfrwt beam="2">  1       21 0.16754618E-01 0.45905683E+03</pdfrwt>
<totfact> 0.58266954E+04</totfact>
</mgrwt>
</event>
<event>
 7    0  0.4691878E-002  0.4573743E+03  0.7546771E-02  0.1025545E+00
         21   -1    0    0  502  501  0.00000000000E+00  0.00000000000E+00  0.16148246029E+03  0.16148246029E+03  0.00000000000E+00 0.  1.
         21   -1    0    0  501  502 -0.00000000000E+00 -0.00000000000E+00 -0.32386069379E+03  0.32386069379E+03  0.00000000000E+00 0.  1.
      99926    2    1    2    0    0  0.00000000000E+00  0.44408920985E-14 -0.16237823349E+03  0.48534315408E+03  0.45737433957E+03 0.  0.
      99925    2    3    3    0    0  0.10135851826E+03  0.59573980216E+01 -0.43953191297E+02  0.28539056336E+03  0.26307194989E+03 0.  0.
         25    1    3    3    0    0 -0.10135851826E+03 -0.59573980216E+01 -0.11842504220E+03  0.19995259071E+03  0.12509000000E+03 0.  0.
         25    1    4    4    0    0  0.74891528227E+02 -0.30622304218E+02 -0.24926019798E+02  0.15104728094E+03  0.12509000000E+03 0.  0.
         25    1    4    4    0    0  0.26466990028E+02  0.36579702239E+02 -0.19027171500E+02  0.13434328242E+03  0.12509000000E+03 0.  0.
<mgrwt>
<rscale>  2 0.45737434E+03</rscale>
<asrwt>0</asrwt>
<pdfrwt beam="1">  1       21 0.23747421E-01 0.45737434E+03</pdfrwt>
<pdfrwt beam="2">  1       21 0.47626572E-01 0.45737434E+03</pdfrwt>
<totfact> 0.65077904E+04</totfact>
</mgrwt>
</event>
<event>
 7    0  0.4691878E-002  0.4601444E+03  0.7546771E-02  0.1024739E+00
         21   -1    0    0  502  501  0.00000000000E+00  0.00000000000E+00  0.10168468410E+04  0.10168468410E+04  0.00000000000E+00 0.  1.
         21   -1    0    0  501  502 -0.00000000000E+00 -0.00000000000E+00 -0.52056239818E+02  0.52056239818E+02  0.00000000000E+00 0.  1.
      99926    2    1    2    0    0  0.00000000000E+00  0.35527136788E-14  0.96479060123E+03  0.10689030809E+04  0.46014442522E+03 0.  0.
      99925    2    3    3    0    0 -0.11341657496E+03  0.28893454625E+02  0.63846896130E+03  0.70034986628E+03  0.26296229665E+03 0.  0.
         25    1    4    4    0    0 -0.10064593314E+03  0.19662800505E+02  0.35990710021E+03  0.39458441234E+03  0.12509000000E+03 0.  0.
         25    1    4    4    0    0 -0.12770641814E+02  0.92306541199E+01  0.27856186109E+03  0.30576545394E+03  0.12509000000E+03 0.  0.
         25    1    3    3    0    0  0.11341657496E+03 -0.28893454625E+02  0.32632163993E+03  0.36855321458E+03  0.12509000000E+03 0.  0.
<mgrwt>
<rscale>  2 0.46014443E+03</rscale>
<asrwt>0</asrwt>
<pdfrwt beam="1">  1       21 0.14953629E+00 0.46014443E+03</pdfrwt>
<pdfrwt beam="2">  1       21 0.76553300E-02 0.46014443E+03</pdfrwt>
<totfact> 0.35158525E+04</totfact>
</mgrwt>
</event>
<event>
 7    0  0.4691878E-002  0.4525384E+03  0.7546771E-02  0.1026968E+00
         21   -1    0    0  502  501  0.00000000000E+00  0.00000000000E+00  0.21668496161E+03  0.21668496161E+03  0.00000000000E+00 0.  1.
         21   -1    0    0  501  502 -0.00000000000E+00 -0.00000000000E+00 -0.23627732160E+03  0.23627732160E+03  0.00000000000E+00 0.  1.
      99926    2    1    2    0    0  0.00000000000E+00  0.00000000000E+00 -0.19592359993E+02  0.45296228321E+03  0.45253836240E+03 0.  0.
      99925    2    3    3    0    0 -0.76826094585E+02 -0.13799580256E+02 -0.91213941043E+02  0.28904207032E+03  0.26293089995E+03 0.  0.
         25    1    4    4    0    0 -0.16180143014E+02  0.25700962708E+02 -0.55479675532E+02  0.14017074948E+03  0.12509000000E+03 0.  0.
         25    1    3    3    0    0  0.76826094585E+02  0.13799580256E+02  0.71621581050E+02  0.16392021290E+03  0.12509000000E+03 0.  0.
         25    1    4    4    0    0 -0.60645951571E+02 -0.39500542964E+02 -0.35734265511E+02  0.14887132084E+03  0.12509000000E+03 0.  0.
<mgrwt>
<rscale>  2 0.45253836E+03</rscale>
<asrwt>0</asrwt>
<pdfrwt beam="1">  1       21 0.31865436E-01 0.45253836E+03</pdfrwt>
<pdfrwt beam="2">  1       21 0.34746665E-01 0.45253836E+03</pdfrwt>
<totfact> 0.70061359E+04</totfact>
</mgrwt>
</event>
<event>
 7    0  0.4691878E-002  0.4502646E+03  0.7546771E-02  0.1027643E+00
         21   -1    0    0  502  501  0.00000000000E+00  0.00000000000E+00  0.96618629884E+03  0.96618629884E+03  0.00000000000E+00 0.  1.
         21   -1    0    0  501  502 -0.00000000000E+00 -0.00000000000E+00 -0.52458366709E+02  0.52458366709E+02  0.00000000000E+00 0.  1.
      99926    2    1    2    0    0  0.14210854715E-13  0.00000000000E+00  0.91372793214E+03  0.10186446656E+04  0.45026461186E+03 0.  0.
      99925    2    3    3    0    0 -0.86339821416E+02  0.24116550106E+02  0.44065969729E+03  0.52117382654E+03  0.26344831732E+03 0.  0.
         25    1    3    3    0    0  0.86339821416E+02 -0.24116550106E+02  0.47306823485E+03  0.49747083902E+03  0.12509000000E+03 0.  0.
         25    1    4    4    0    0 -0.62556106193E+02 -0.24372606016E+02  0.23043505049E+03  0.27065681395E+03  0.12509000000E+03 0.  0.
         25    1    4    4    0    0 -0.23783715223E+02  0.48489156122E+02  0.21022464680E+03  0.25051701258E+03  0.12509000000E+03 0.  0.
<mgrwt>
<rscale>  2 0.45026461E+03</rscale>
<asrwt>0</asrwt>
<pdfrwt beam="1">  1       21 0.14208621E+00 0.45026461E+03</pdfrwt>
<pdfrwt beam="2">  1       21 0.77144663E-02 0.45026461E+03</pdfrwt>
<totfact> 0.39904447E+04</totfact>
</mgrwt>
</event>
<event>
 7    0  0.4691878E-002  0.4576103E+03  0.7546771E-02  0.1025477E+00
         21   -1    0    0  502  501  0.00000000000E+00  0.00000000000E+00  0.41000443516E+03  0.41000443516E+03  0.00000000000E+00 0.  1.
         21   -1    0    0  501  502 -0.00000000000E+00 -0.00000000000E+00 -0.12768591242E+03  0.12768591242E+03  0.00000000000E+00 0.  1.
      99926    2    1    2    0    0 -0.17763568394E-14 -0.71054273576E-14  0.28231852274E+03  0.53769034757E+03  0.45761027260E+03 0.  0.
      99925    2    3    3    0    0 -0.99114271843E+01  0.43422216383E+02  0.30263146613E+03  0.40336295262E+03  0.26292991840E+03 0.  0.
         25    1    4    4    0    0 -0.18864681612E+02  0.10575669705E+02  0.94895903294E+02  0.15849435815E+03  0.12509000000E+03 0.  0.
         25    1    4    4    0    0  0.89532544280E+01  0.32846546678E+02  0.20773556284E+03  0.24486859448E+03  0.12509000000E+03 0.  0.
         25    1    3    3    0    0  0.99114271843E+01 -0.43422216383E+02 -0.20312943391E+02  0.13432739495E+03  0.12509000000E+03 0.  0.
<mgrwt>
<rscale>  2 0.45761027E+03</rscale>
<asrwt>0</asrwt>
<pdfrwt beam="1">  1       21 0.60294769E-01 0.45761027E+03</pdfrwt>
<pdfrwt beam="2">  1       21 0.18777340E-01 0.45761027E+03</pdfrwt>
<totfact> 0.61408648E+04</totfact>
</mgrwt>
</event>
<event>
 7    0  0.4691878E-002  0.4491892E+03  0.7546771E-02  0.1027964E+00
         21   -1    0    0  502  501  0.00000000000E+00  0.00000000000E+00  0.31390836924E+02  0.31390836924E+02  0.00000000000E+00 0.  1.
         21   -1    0    0  501  502 -0.00000000000E+00 -0.00000000000E+00 -0.16069254707E+04  0.16069254707E+04  0.00000000000E+00 0.  1.
      99926    2    1    2    0    0  0.35527136788E-14 -0.71054273576E-14 -0.15755346338E+04  0.16383163076E+04  0.44918920468E+03 0.  0.
      99925    2    3    3    0    0 -0.28006492602E+02  0.34969680423E+02 -0.13535934227E+04  0.13796415090E+04  0.26303668406E+03 0.  0.
         25    1    4    4    0    0 -0.52333041183E+02  0.22702468692E+02 -0.76913904454E+03  0.78132997333E+03  0.12509000000E+03 0.  0.
         25    1    4    4    0    0  0.24326548581E+02  0.12267211731E+02 -0.58445437816E+03  0.59831153565E+03  0.12509000000E+03 0.  0.
         25    1    3    3    0    0  0.28006492602E+02 -0.34969680423E+02 -0.22194121107E+03  0.25867479863E+03  0.12509000000E+03 0.  0.
<mgrwt>
<rscale>  2 0.44918920E+03</rscale>
<asrwt>0</asrwt>
<pdfrwt beam="1">  1       21 0.46163000E-02 0.44918920E+03</pdfrwt>
<pdfrwt beam="2">  1       21 0.23631255E+00 0.44918920E+03</pdfrwt>
<totfact> 0.21532874E+04</totfact>
</mgrwt>
</event>
<event>
 7    0  0.4691878E-002  0.4465876E+03  0.7546771E-02  0.1028745E+00
         21   -1    0    0  502  501  0.00000000000E+00  0.00000000000E+00  0.36674443140E+02  0.36674443140E+02  0.00000000000E+00 0.  1.
         21   -1    0    0  501  502 -0.00000000000E+00 -0.00000000000E+00 -0.13595330560E+04  0.13595330560E+04  0.00000000000E+00 0.  1.
      99926    2    1    2    0    0  0.00000000000E+00  0.00000000000E+00 -0.13228586129E+04  0.13962074992E+04  0.44658758496E+03 0.  0.
      99925    2    3    3    0    0  0.73783138974E+02  0.65526605938E+02 -0.94807942108E+03  0.98896722808E+03  0.26356005361E+03 0.  0.
         25    1    4    4    0    0 -0.27546364771E+01  0.15645227327E+02 -0.45290695527E+03  0.47013251259E+03  0.12509000000E+03 0.  0.
         25    1    4    4    0    0  0.76537775451E+02  0.49881378611E+02 -0.49517246581E+03  0.51883471549E+03  0.12509000000E+03 0.  0.
         25    1    3    3    0    0 -0.73783138974E+02 -0.65526605938E+02 -0.37477919179E+03  0.40724027107E+03  0.12509000000E+03 0.  0.
<mgrwt>
<rscale>  2 0.44658758E+03</rscale>
<asrwt>0</asrwt>
<pdfrwt beam="1">  1       21 0.53933020E-02 0.44658758E+03</pdfrwt>
<pdfrwt beam="2">  1       21 0.19993128E+00 0.44658758E+03</pdfrwt>
<totfact> 0.28234497E+04</totfact>
</mgrwt>
</event>
<event>
 7    0  0.4691878E-002  0.4518725E+03  0.7546771E-02  0.1027165E+00
         21   -1    0    0  502  501  0.00000000000E+00  0.00000000000E+00  0.13620162625E+03  0.13620162625E+03  0.00000000000E+00 0.  1.
         21   -1    0    0  501  502 -0.00000000000E+00 -0.00000000000E+00 -0.37479125715E+03  0.37479125715E+03  0.00000000000E+00 0.  1.
      99926    2    1    2    0    0  0.14210854715E-13  0.00000000000E+00 -0.23858963090E+03  0.51099288340E+03  0.45187245425E+03 0.  0.
      99925    2    3    3    0    0  0.84219088636E+02 -0.66395127395E+02 -0.12193815218E+03  0.30911112737E+03  0.26302016704E+03 0.  0.
         25    1    4    4    0    0  0.62275634710E+02 -0.70748888360E+02 -0.74873996229E+02  0.17360093114E+03  0.12509000000E+03 0.  0.
         25    1    3    3    0    0 -0.84219088636E+02  0.66395127395E+02 -0.11665147871E+03  0.20188175603E+03  0.12509000000E+03 0.  0.
         25    1    4    4    0    0  0.21943453926E+02  0.43537609656E+01 -0.47064155955E+02  0.13551019622E+03  0.12509000000E+03 0.  0.
<mgrwt>
<rscale>  2 0.45187245E+03</rscale>
<asrwt>0</asrwt>
<pdfrwt beam="1">  1       21 0.20029651E-01 0.45187245E+03</pdfrwt>
<pdfrwt beam="2">  1       21 0.55116362E-01 0.45187245E+03</pdfrwt>
<totfact> 0.66131209E+04</totfact>
</mgrwt>
</event>
<event>
 7    0  0.4691878E-002  0.4609526E+03  0.7546771E-02  0.1024505E+00
         21   -1    0    0  502  501  0.00000000000E+00  0.00000000000E+00  0.74006153909E+02  0.74006153909E+02  0.00000000000E+00 0. -1.
         21   -1    0    0  501  502 -0.00000000000E+00 -0.00000000000E+00 -0.71776888550E+03  0.71776888550E+03  0.00000000000E+00 0. -1.
      99926    2    1    2    0    0 -0.14210854715E-13  0.00000000000E+00 -0.64376273159E+03  0.79177503941E+03  0.46095255553E+03 0.  0.
      99925    2    3    3    0    0 -0.10689210045E+03 -0.48871759410E+02 -0.37466325124E+03  0.47259419970E+03  0.26297976303E+03 0.  0.
         25    1    3    3    0    0  0.10689210045E+03  0.48871759410E+02 -0.26909948036E+03  0.31918083971E+03  0.12509000000E+03 0.  0.
         25    1    4    4    0    0 -0.39437259224E+02 -0.35923407351E+02 -0.24281343837E+03  0.27830138801E+03  0.12509000000E+03 0.  0.
         25    1    4    4    0    0 -0.67454841228E+02 -0.12948352059E+02 -0.13184981286E+03  0.19429281170E+03  0.12509000000E+03 0.  0.
<mgrwt>
<rscale>  2 0.46095256E+03</rscale>
<asrwt>0</asrwt>
<pdfrwt beam="1">  1       21 0.10883257E-01 0.46095256E+03</pdfrwt>
<pdfrwt beam="2">  1       21 0.10555426E+00 0.46095256E+03</pdfrwt>
<totfact> 0.45979274E+04</totfact>
</mgrwt>
</event>
<event>
 7    0  0.4691878E-002  0.4717395E+03  0.7546771E-02  0.1021430E+00
         21   -1    0    0  502  501  0.00000000000E+00  0.00000000000E+00  0.55906818125E+03  0.55906818125E+03  0.00000000000E+00 0.  1.
         21   -1    0    0  501  502 -0.00000000000E+00 -0.00000000000E+00 -0.99512969534E+02  0.99512969534E+02  0.00000000000E+00 0.  1.
      99926    2    1    2    0    0  0.00000000000E+00  0.44408920985E-15  0.45955521172E+03  0.65858115078E+03  0.47173948271E+03 0.  0.
      99925    2    3    3    0    0 -0.75815824273E+01 -0.10734962370E+01  0.10636695560E+03  0.28381711149E+03  0.26302013373E+03 0.  0.
         25    1    4    4    0    0  0.29228110999E+02  0.68589438747E+01  0.28586109375E+02  0.13178012495E+03  0.12509000000E+03 0.  0.
         25    1    4    4    0    0 -0.36809693426E+02 -0.79324401118E+01  0.77780846221E+02  0.15203698654E+03  0.12509000000E+03 0.  0.
         25    1    3    3    0    0  0.75815824273E+01  0.10734962370E+01  0.35318825612E+03  0.37476403929E+03  0.12509000000E+03 0.  0.
<mgrwt>
<rscale>  2 0.47173948E+03</rscale>
<asrwt>0</asrwt>
<pdfrwt beam="1">  1       21 0.82215908E-01 0.47173948E+03</pdfrwt>
<pdfrwt beam="2">  1       21 0.14634260E-01 0.47173948E+03</pdfrwt>
<totfact> 0.48483827E+04</totfact>
</mgrwt>
</event>
<event>
 7    0  0.4691878E-002  0.4551394E+03  0.7546771E-02  0.1026200E+00
         21   -1    0    0  502  501  0.00000000000E+00  0.00000000000E+00  0.97473444189E+02  0.97473444189E+02  0.00000000000E+00 0.  1.
         21   -1    0    0  501  502 -0.00000000000E+00 -0.00000000000E+00 -0.53130344191E+03  0.53130344191E+03  0.00000000000E+00 0.  1.
      99926    2    1    2    0    0  0.00000000000E+00  0.00000000000E+00 -0.43382999772E+03  0.62877688610E+03  0.45513943531E+03 0.  0.
      99925    2    3    3    0    0  0.22375214909E+02  0.10299902892E+03 -0.32978080353E+03  0.43491303410E+03  0.26321952559E+03 0.  0.
         25    1    4    4    0    0  0.46273821336E+02  0.74973800684E+02 -0.18473944700E+03  0.23987185894E+03  0.12509000000E+03 0.  0.
         25    1    4    4    0    0 -0.23898606427E+02  0.28025228232E+02 -0.14504135652E+03  0.19504117516E+03  0.12509000000E+03 0.  0.
         25    1    3    3    0    0 -0.22375214909E+02 -0.10299902892E+03 -0.10404919419E+03  0.19386385200E+03  0.12509000000E+03 0.  0.
<mgrwt>
<rscale>  2 0.45513944E+03</rscale>
<asrwt>0</asrwt>
<pdfrwt beam="1">  1       21 0.14334330E-01 0.45513944E+03</pdfrwt>
<pdfrwt beam="2">  1       21 0.78132860E-01 0.45513944E+03</pdfrwt>
<totfact> 0.56878397E+04</totfact>
</mgrwt>
</event>
<event>
 7    0  0.4691878E-002  0.4589100E+03  0.7546771E-02  0.1025098E+00
         21   -1    0    0  502  501  0.00000000000E+00  0.00000000000E+00  0.21882748228E+04  0.21882748228E+04  0.00000000000E+00 0.  1.
         21   -1    0    0  501  502 -0.00000000000E+00 -0.00000000000E+00 -0.24059865403E+02  0.24059865403E+02  0.00000000000E+00 0.  1.
      99926    2    1    2    0    0  0.00000000000E+00  0.00000000000E+00  0.21642149574E+04  0.22123346882E+04  0.45891000294E+03 0.  0.
      99925    2    3    3    0    0 -0.97210115555E+02  0.51921153423E+02  0.11713871268E+04  0.12056072067E+04  0.26305003941E+03 0.  0.
         25    1    3    3    0    0  0.97210115555E+02 -0.51921153423E+02  0.99282783057E+03  0.10067274815E+04  0.12509000000E+03 0.  0.
         25    1    4    4    0    0 -0.83448624950E+02  0.75928059211E+01  0.67628564690E+03  0.69284277294E+03  0.12509000000E+03 0.  0.
         25    1    4    4    0    0 -0.13761490604E+02  0.44328347502E+02  0.49510147992E+03  0.51276443377E+03  0.12509000000E+03 0.  0.
<mgrwt>
<rscale>  2 0.45891000E+03</rscale>
<asrwt>0</asrwt>
<pdfrwt beam="1">  1       21 0.32180498E+00 0.45891000E+03</pdfrwt>
<pdfrwt beam="2">  1       21 0.35382170E-02 0.45891000E+03</pdfrwt>
<totfact> 0.10228541E+04</totfact>
</mgrwt>
</event>
<event>
 7    0  0.4691878E-002  0.4550384E+03  0.7546771E-02  0.1026230E+00
         21   -1    0    0  502  501  0.00000000000E+00  0.00000000000E+00  0.94415647313E+02  0.94415647313E+02  0.00000000000E+00 0.  1.
         21   -1    0    0  501  502 -0.00000000000E+00 -0.00000000000E+00 -0.54826692768E+03  0.54826692768E+03  0.00000000000E+00 0.  1.
      99926    2    1    2    0    0  0.00000000000E+00  0.00000000000E+00 -0.45385128036E+03  0.64268257499E+03  0.45503835828E+03 0.  0.
      99925    2    3    3    0    0 -0.64930645731E+02  0.82134720840E+02 -0.22445021110E+03  0.36119641227E+03  0.26291224744E+03 0.  0.
         25    1    3    3    0    0  0.64930645731E+02 -0.82134720840E+02 -0.22940106926E+03  0.28148616272E+03  0.12509000000E+03 0.  0.
         25    1    4    4    0    0 -0.40795798912E+02  0.64447314363E+02 -0.76929750412E+02  0.16547944929E+03  0.12509000000E+03 0.  0.
         25    1    4    4    0    0 -0.24134846818E+02  0.17687406477E+02 -0.14752046069E+03  0.19571696299E+03  0.12509000000E+03 0.  0.
<mgrwt>
<rscale>  2 0.45503836E+03</rscale>
<asrwt>0</asrwt>
<pdfrwt beam="1">  1       21 0.13884654E-01 0.45503836E+03</pdfrwt>
<pdfrwt beam="2">  1       21 0.80627489E-01 0.45503836E+03</pdfrwt>
<totfact> 0.56108040E+04</totfact>
</mgrwt>
</event>
<event>
 7    0  0.4691878E-002  0.4161979E+03  0.7546771E-02  0.1038311E+00
         21   -1    0    0  502  501  0.00000000000E+00  0.00000000000E+00  0.14165589667E+03  0.14165589667E+03  0.00000000000E+00 0. -1.
         21   -1    0    0  501  502 -0.00000000000E+00 -0.00000000000E+00 -0.30570678581E+03  0.30570678581E+03  0.00000000000E+00 0. -1.
      99926    2    1    2    0    0  0.00000000000E+00  0.17763568394E-14 -0.16405088914E+03  0.44736268248E+03  0.41619788016E+03 0.  0.
      99925    2    3    3    0    0 -0.65409863907E+02  0.12438102309E+02 -0.13347319647E+03  0.30239489270E+03  0.26304832307E+03 0.  0.
         25    1    4    4    0    0 -0.21363098928E+02 -0.29383229716E+02 -0.83036110820E+02  0.15447414018E+03  0.12509000000E+03 0.  0.
         25    1    3    3    0    0  0.65409863907E+02 -0.12438102309E+02 -0.30577692667E+02  0.14496778978E+03  0.12509000000E+03 0.  0.
         25    1    4    4    0    0 -0.44046764979E+02  0.41821332025E+02 -0.50437085650E+02  0.14792075252E+03  0.12509000000E+03 0.  0.
<mgrwt>
<rscale>  2 0.41619788E+03</rscale>
<asrwt>0</asrwt>
<pdfrwt beam="1">  1       21 0.20831749E-01 0.41619788E+03</pdfrwt>
<pdfrwt beam="2">  1       21 0.44956880E-01 0.41619788E+03</pdfrwt>
<totfact> 0.95285810E+04</totfact>
</mgrwt>
</event>
<event>
 7    0  0.4691878E-002  0.4527719E+03  0.7546771E-02  0.1026899E+00
         21   -1    0    0  502  501  0.00000000000E+00  0.00000000000E+00  0.16908391129E+03  0.16908391129E+03  0.00000000000E+00 0. -1.
         21   -1    0    0  501  502 -0.00000000000E+00 -0.00000000000E+00 -0.30310746249E+03  0.30310746249E+03  0.00000000000E+00 0. -1.
      99926    2    1    2    0    0  0.00000000000E+00  0.00000000000E+00 -0.13402355120E+03  0.47219137378E+03  0.45277188649E+03 0.  0.
      99925    2    3    3    0    0  0.10576701147E+03  0.27027747930E+02 -0.62618716458E+02  0.29146141390E+03  0.26289064698E+03 0.  0.
         25    1    4    4    0    0  0.59764193226E+02  0.62787822246E+01  0.83843574550E+01  0.13902872886E+03  0.12509000000E+03 0.  0.
         25    1    4    4    0    0  0.46002818240E+02  0.20748965706E+02 -0.71003073913E+02  0.15243268504E+03  0.12509000000E+03 0.  0.
         25    1    3    3    0    0 -0.10576701147E+03 -0.27027747930E+02 -0.71404834745E+02  0.18072995988E+03  0.12509000000E+03 0.  0.
<mgrwt>
<rscale>  2 0.45277189E+03</rscale>
<asrwt>0</asrwt>
<pdfrwt beam="1">  1       21 0.24865281E-01 0.45277189E+03</pdfrwt>
<pdfrwt beam="2">  1       21 0.44574627E-01 0.45277189E+03</pdfrwt>
<totfact> 0.68475783E+04</totfact>
</mgrwt>
</event>
<event>
 7    0  0.4691878E-002  0.4570984E+03  0.7546771E-02  0.1025626E+00
         21   -1    0    0  502  501  0.00000000000E+00  0.00000000000E+00  0.33813766000E+03  0.33813766000E+03  0.00000000000E+00 0. -1.
         21   -1    0    0  501  502 -0.00000000000E+00 -0.00000000000E+00 -0.15447773092E+03  0.15447773092E+03  0.00000000000E+00 0. -1.
      99926    2    1    2    0    0  0.00000000000E+00 -0.71054273576E-14  0.18365992907E+03  0.49261539092E+03  0.45709840716E+03 0.  0.
      99925    2    3    3    0    0  0.96398123210E+02  0.62868560150E+02  0.11291755670E+03  0.30850388839E+03  0.26301942995E+03 0.  0.
         25    1    3    3    0    0 -0.96398123210E+02 -0.62868560150E+02  0.70742372377E+02  0.18411150253E+03  0.12509000000E+03 0.  0.
         25    1    4    4    0    0  0.68138976245E+02  0.69262965245E+02  0.55299086005E+02  0.16776702731E+03  0.12509000000E+03 0.  0.
         25    1    4    4    0    0  0.28259146965E+02 -0.63944050952E+01  0.57618470691E+02  0.14073686109E+03  0.12509000000E+03 0.  0.
<mgrwt>
<rscale>  2 0.45709841E+03</rscale>
<asrwt>0</asrwt>
<pdfrwt beam="1">  1       21 0.49726126E-01 0.45709841E+03</pdfrwt>
<pdfrwt beam="2">  1       21 0.22717313E-01 0.45709841E+03</pdfrwt>
<totfact> 0.64707946E+04</totfact>
</mgrwt>
</event>
<event>
 7    0  0.4691878E-002  0.4703663E+03  0.7546771E-02  0.1021817E+00
         21   -1    0    0  502  501  0.00000000000E+00  0.00000000000E+00  0.17736405958E+03  0.17736405958E+03  0.00000000000E+00 0. -1.
         21   -1    0    0  501  502 -0.00000000000E+00 -0.00000000000E+00 -0.31185077666E+03  0.31185077666E+03  0.00000000000E+00 0. -1.
      99926    2    1    2    0    0  0.00000000000E+00  0.00000000000E+00 -0.13448671708E+03  0.48921483624E+03  0.47036632418E+03 0.  0.
      99925    2    3    3    0    0  0.77869509968E+02 -0.43767718335E+02  0.10456593613E+02  0.27794404989E+03  0.26299102792E+03 0.  0.
         25    1    4    4    0    0  0.22000914447E+02  0.12836422339E+02 -0.11159436902E+02  0.12814388439E+03  0.12509000000E+03 0.  0.
         25    1    4    4    0    0  0.55868595521E+02 -0.56604140674E+02  0.21616030515E+02  0.14980016549E+03  0.12509000000E+03 0.  0.
         25    1    3    3    0    0 -0.77869509968E+02  0.43767718335E+02 -0.14494331070E+03  0.21127078635E+03  0.12509000000E+03 0.  0.
<mgrwt>
<rscale>  2 0.47036632E+03</rscale>
<asrwt>0</asrwt>
<pdfrwt beam="1">  1       21 0.26082950E-01 0.47036632E+03</pdfrwt>
<pdfrwt beam="2">  1       21 0.45860408E-01 0.47036632E+03</pdfrwt>
<totfact> 0.58560153E+04</totfact>
</mgrwt>
</event>
<event>
 7    0  0.4691878E-002  0.4049994E+03  0.7546771E-02  0.1042062E+00
         21   -1    0    0  502  501  0.00000000000E+00  0.00000000000E+00  0.27634373922E+02  0.27634373922E+02  0.00000000000E+00 0.  1.
         21   -1    0    0  501  502 -0.00000000000E+00 -0.00000000000E+00 -0.14838814465E+04  0.14838814465E+04  0.00000000000E+00 0.  1.
      99926    2    1    2    0    0  0.35527136788E-14  0.00000000000E+00 -0.14562470726E+04  0.15115158204E+04  0.40499943085E+03 0.  0.
      99925    2    3    3    0    0 -0.24602512200E+02  0.48445276380E+02 -0.97719278660E+03  0.10134267266E+04  0.26301285047E+03 0.  0.
         25    1    3    3    0    0  0.24602512200E+02 -0.48445276380E+02 -0.47905428598E+03  0.49808909386E+03  0.12509000000E+03 0.  0.
         25    1    4    4    0    0 -0.44934091949E+02  0.38836999387E+02 -0.43363405393E+03  0.45520697048E+03  0.12509000000E+03 0.  0.
         25    1    4    4    0    0  0.20331579749E+02  0.96082769931E+01 -0.54355873266E+03  0.55821975608E+03  0.12509000000E+03 0.  0.
<mgrwt>
<rscale>  2 0.40499943E+03</rscale>
<asrwt>0</asrwt>
<pdfrwt beam="1">  1       21 0.40638776E-02 0.40499943E+03</pdfrwt>
<pdfrwt beam="2">  1       21 0.21821791E+00 0.40499943E+03</pdfrwt>
<totfact> 0.35368799E+04</totfact>
</mgrwt>
</event>
<event>
 7    0  0.4691878E-002  0.4345395E+03  0.7546771E-02  0.1032436E+00
         21   -1    0    0  502  501  0.00000000000E+00  0.00000000000E+00  0.26981230231E+03  0.26981230231E+03  0.00000000000E+00 0.  1.
         21   -1    0    0  501  502 -0.00000000000E+00 -0.00000000000E+00 -0.17495916679E+03  0.17495916679E+03  0.00000000000E+00 0.  1.
      99926    2    1    2    0    0  0.00000000000E+00  0.00000000000E+00  0.94853135525E+02  0.44477146910E+03  0.43453946013E+03 0.  0.
      99925    2    3    3    0    0  0.80631362315E+02  0.35210169168E+02  0.91148529637E+02  0.29179302354E+03  0.26285726455E+03 0.  0.
         25    1    4    4    0    0  0.52346544464E+02  0.88579801206E+00  0.82547046366E+02  0.15875285295E+03  0.12509000000E+03 0.  0.
         25    1    4    4    0    0  0.28284817852E+02  0.34324371156E+02  0.86014832715E+01  0.13304017059E+03  0.12509000000E+03 0.  0.
         25    1    3    3    0    0 -0.80631362315E+02 -0.35210169168E+02  0.37046058877E+01  0.15297844556E+03  0.12509000000E+03 0.  0.
<mgrwt>
<rscale>  2 0.43453946E+03</rscale>
<asrwt>0</asrwt>
<pdfrwt beam="1">  1       21 0.39678280E-01 0.43453946E+03</pdfrwt>
<pdfrwt beam="2">  1       21 0.25729289E-01 0.43453946E+03</pdfrwt>
<totfact> 0.81858331E+04</totfact>
</mgrwt>
</event>
<event>
 7    0  0.4691878E-002  0.4541604E+03  0.7546771E-02  0.1026489E+00
         21   -1    0    0  502  501  0.00000000000E+00  0.00000000000E+00  0.22679322476E+03  0.22679322476E+03  0.00000000000E+00 0.  1.
         21   -1    0    0  501  502 -0.00000000000E+00 -0.00000000000E+00 -0.22736755428E+03  0.22736755428E+03  0.00000000000E+00 0.  1.
      99926    2    1    2    0    0  0.00000000000E+00  0.35527136788E-14 -0.57432951915E+00  0.45416077903E+03  0.45416041588E+03 0.  0.
      99925    2    3    3    0    0  0.67059230819E+02  0.22349094564E+02  0.87019653073E+02  0.28588530146E+03  0.26298586103E+03 0.  0.
         25    1    4    4    0    0  0.30794923610E+02 -0.27535952055E+02  0.55210793313E+02  0.14283660516E+03  0.12509000000E+03 0.  0.
         25    1    4    4    0    0  0.36264307208E+02  0.49885046619E+02  0.31808859761E+02  0.14304869630E+03  0.12509000000E+03 0.  0.
         25    1    3    3    0    0 -0.67059230819E+02 -0.22349094564E+02 -0.87593982592E+02  0.16827547757E+03  0.12509000000E+03 0.  0.
<mgrwt>
<rscale>  2 0.45416042E+03</rscale>
<asrwt>0</asrwt>
<pdfrwt beam="1">  1       21 0.33351945E-01 0.45416042E+03</pdfrwt>
<pdfrwt beam="2">  1       21 0.33436405E-01 0.45416042E+03</pdfrwt>
<totfact> 0.69068848E+04</totfact>
</mgrwt>
</event>
<event>
 7    0  0.4691878E-002  0.4608873E+03  0.7546771E-02  0.1024524E+00
         21   -1    0    0  502  501  0.00000000000E+00  0.00000000000E+00  0.48075934714E+02  0.48075934714E+02  0.00000000000E+00 0.  1.
         21   -1    0    0  501  502 -0.00000000000E+00 -0.00000000000E+00 -0.11045918707E+04  0.11045918707E+04  0.00000000000E+00 0.  1.
      99926    2    1    2    0    0 -0.71054273576E-14  0.14210854715E-13 -0.10565159360E+04  0.11526678054E+04  0.46088734702E+03 0.  0.
      99925    2    3    3    0    0 -0.39425120374E+02  0.11161302191E+03 -0.64975566787E+03  0.71095157230E+03  0.26316896370E+03 0.  0.
         25    1    3    3    0    0  0.39425120374E+02 -0.11161302191E+03 -0.40676026812E+03  0.44171623311E+03  0.12509000000E+03 0.  0.
         25    1    4    4    0    0 -0.30794932031E+02  0.28268576013E+02 -0.37694471815E+03  0.39935231171E+03  0.12509000000E+03 0.  0.
         25    1    4    4    0    0 -0.86301883426E+01  0.83344445900E+02 -0.27281094972E+03  0.31159926059E+03  0.12509000000E+03 0.  0.
<mgrwt>
<rscale>  2 0.46088735E+03</rscale>
<asrwt>0</asrwt>
<pdfrwt beam="1">  1       21 0.70699903E-02 0.46088735E+03</pdfrwt>
<pdfrwt beam="2">  1       21 0.16243998E+00 0.46088735E+03</pdfrwt>
<totfact> 0.32190846E+04</totfact>
</mgrwt>
</event>
<event>
 7    0  0.4691878E-002  0.4561215E+03  0.7546771E-02  0.1025912E+00
         21   -1    0    0  502  501  0.00000000000E+00  0.00000000000E+00  0.10587837086E+04  0.10587837086E+04  0.00000000000E+00 0. -1.
         21   -1    0    0  501  502 -0.00000000000E+00 -0.00000000000E+00 -0.49124011367E+02  0.49124011367E+02  0.00000000000E+00 0. -1.
      99926    2    1    2    0    0 -0.71054273576E-14  0.00000000000E+00  0.10096596972E+04  0.11079077199E+04  0.45612148792E+03 0.  0.
      99925    2    3    3    0    0 -0.54470715056E+02 -0.57480180272E+02  0.43438538761E+03  0.51388830165E+03  0.26290586087E+03 0.  0.
         25    1    4    4    0    0  0.12355574119E+02 -0.25999387575E+02  0.22507048551E+03  0.25910009632E+03  0.12509000000E+03 0.  0.
         25    1    3    3    0    0  0.54470715056E+02  0.57480180272E+02  0.57527430960E+03  0.59401941829E+03  0.12509000000E+03 0.  0.
         25    1    4    4    0    0 -0.66826289175E+02 -0.31480792697E+02  0.20931490210E+03  0.25478820533E+03  0.12509000000E+03 0.  0.
<mgrwt>
<rscale>  2 0.45612149E+03</rscale>
<asrwt>0</asrwt>
<pdfrwt beam="1">  1       21 0.15570347E+00 0.45612149E+03</pdfrwt>
<pdfrwt beam="2">  1       21 0.72241200E-02 0.45612149E+03</pdfrwt>
<totfact> 0.34912806E+04</totfact>
</mgrwt>
</event>
<event>
 7    0  0.4691878E-002  0.4615511E+03  0.7546771E-02  0.1024332E+00
         21   -1    0    0  502  501  0.00000000000E+00  0.00000000000E+00  0.51955769280E+03  0.51955769280E+03  0.00000000000E+00 0.  1.
         21   -1    0    0  501  502 -0.00000000000E+00 -0.00000000000E+00 -0.10250516219E+03  0.10250516219E+03  0.00000000000E+00 0.  1.
      99926    2    1    2    0    0  0.71054273576E-14  0.00000000000E+00  0.41705253061E+03  0.62206285499E+03  0.46155106139E+03 0.  0.
      99925    2    3    3    0    0  0.60301172866E+02  0.95270626434E+02  0.20824684152E+03  0.35380915491E+03  0.26287154161E+03 0.  0.
         25    1    3    3    0    0 -0.60301172866E+02 -0.95270626434E+02  0.20880568909E+03  0.26825370008E+03  0.12509000000E+03 0.  0.
         25    1    4    4    0    0  0.90535693307E+01  0.46883253646E+02  0.14362865542E+03  0.19635861415E+03  0.12509000000E+03 0.  0.
         25    1    4    4    0    0  0.51247603536E+02  0.48387372787E+02  0.64618186097E+02  0.15745054077E+03  0.12509000000E+03 0.  0.
<mgrwt>
<rscale>  2 0.46155106E+03</rscale>
<asrwt>0</asrwt>
<pdfrwt beam="1">  1       21 0.76405542E-01 0.46155106E+03</pdfrwt>
<pdfrwt beam="2">  1       21 0.15074289E-01 0.46155106E+03</pdfrwt>
<totfact> 0.54467639E+04</totfact>
</mgrwt>
</event>
<event>
 7    0  0.4691878E-002  0.4813587E+03  0.7546771E-02  0.1018762E+00
         21   -1    0    0  502  501  0.00000000000E+00  0.00000000000E+00  0.82711439399E+03  0.82711439399E+03  0.00000000000E+00 0. -1.
         21   -1    0    0  501  502 -0.00000000000E+00 -0.00000000000E+00 -0.70034505206E+02  0.70034505206E+02  0.00000000000E+00 0. -1.
      99926    2    1    2    0    0  0.00000000000E+00  0.00000000000E+00  0.75707988878E+03  0.89714889920E+03  0.48135869092E+03 0.  0.
      99925    2    3    3    0    0 -0.11131407619E+03  0.81648731975E+01  0.31967390181E+03  0.42871641286E+03  0.26296172810E+03 0.  0.
         25    1    4    4    0    0 -0.40297936785E+02  0.40571374029E+02  0.13954223615E+03  0.19593239617E+03  0.12509000000E+03 0.  0.
         25    1    4    4    0    0 -0.71016139408E+02 -0.32406500831E+02  0.18013166567E+03  0.23278401669E+03  0.12509000000E+03 0.  0.
         25    1    3    3    0    0  0.11131407619E+03 -0.81648731975E+01  0.43740598697E+03  0.46843248633E+03  0.12509000000E+03 0.  0.
<mgrwt>
<rscale>  2 0.48135869E+03</rscale>
<asrwt>0</asrwt>
<pdfrwt beam="1">  1       21 0.12163446E+00 0.48135869E+03</pdfrwt>
<pdfrwt beam="2">  1       21 0.10299192E-01 0.48135869E+03</pdfrwt>
<totfact> 0.35453572E+04</totfact>
</mgrwt>
</event>
<event>
 7    0  0.4691878E-002  0.4519916E+03  0.7546771E-02  0.1027130E+00
         21   -1    0    0  502  501  0.00000000000E+00  0.00000000000E+00  0.29458213731E+03  0.29458213731E+03  0.00000000000E+00 0. -1.
         21   -1    0    0  501  502 -0.00000000000E+00 -0.00000000000E+00 -0.17337809733E+03  0.17337809733E+03  0.00000000000E+00 0. -1.
      99926    2    1    2    0    0 -0.13322676296E-14  0.00000000000E+00  0.12120403998E+03  0.46796023464E+03  0.45199155069E+03 0.  0.
      99925    2    3    3    0    0 -0.17728525313E+01 -0.10922611824E+03  0.60499156705E+02  0.29113806729E+03  0.26299760142E+03 0.  0.
         25    1    4    4    0    0  0.26822345591E+02 -0.46675597274E+02  0.58912106682E+02  0.14837854972E+03  0.12509000000E+03 0.  0.
         25    1    4    4    0    0 -0.28595198122E+02 -0.62550520964E+02  0.15870500232E+01  0.14275951757E+03  0.12509000000E+03 0.  0.
         25    1    3    3    0    0  0.17728525313E+01  0.10922611824E+03  0.60704883279E+02  0.17682216735E+03  0.12509000000E+03 0.  0.
<mgrwt>
<rscale>  2 0.45199155E+03</rscale>
<asrwt>0</asrwt>
<pdfrwt beam="1">  1       21 0.43320903E-01 0.45199155E+03</pdfrwt>
<pdfrwt beam="2">  1       21 0.25496779E-01 0.45199155E+03</pdfrwt>
<totfact> 0.69225173E+04</totfact>
</mgrwt>
</event>
<event>
 7    0  0.4691878E-002  0.4515439E+03  0.7546771E-02  0.1027263E+00
         21   -1    0    0  502  501  0.00000000000E+00  0.00000000000E+00  0.15812474762E+04  0.15812474762E+04  0.00000000000E+00 0.  1.
         21   -1    0    0  501  502 -0.00000000000E+00 -0.00000000000E+00 -0.32235922348E+02  0.32235922348E+02  0.00000000000E+00 0.  1.
      99926    2    1    2    0    0 -0.14210854715E-13  0.17763568394E-14  0.15490115539E+04  0.16134833986E+04  0.45154388871E+03 0.  0.
      99925    2    3    3    0    0 -0.71237853941E+02  0.12366946586E+02  0.68242317168E+03  0.73493305541E+03  0.26305405813E+03 0.  0.
         25    1    4    4    0    0 -0.72119779312E+02 -0.12643163272E+02  0.38004249267E+03  0.40674428881E+03  0.12509000000E+03 0.  0.
         25    1    4    4    0    0  0.88192537121E+00  0.25010109858E+02  0.30238067901E+03  0.32818876660E+03  0.12509000000E+03 0.  0.
         25    1    3    3    0    0  0.71237853941E+02 -0.12366946586E+02  0.86658838220E+03  0.87855034316E+03  0.12509000000E+03 0.  0.
<mgrwt>
<rscale>  2 0.45154389E+03</rscale>
<asrwt>0</asrwt>
<pdfrwt beam="1">  1       21 0.23253634E+00 0.45154389E+03</pdfrwt>
<pdfrwt beam="2">  1       21 0.47405779E-02 0.45154389E+03</pdfrwt>
<totfact> 0.21703426E+04</totfact>
</mgrwt>
</event>
<event>
 7    0  0.4691878E-002  0.4549518E+03  0.7546771E-02  0.1026256E+00
         21   -1    0    0  502  501  0.00000000000E+00  0.00000000000E+00  0.65763023689E+03  0.65763023689E+03  0.00000000000E+00 0.  1.
         21   -1    0    0  501  502 -0.00000000000E+00 -0.00000000000E+00 -0.78684451553E+02  0.78684451553E+02  0.00000000000E+00 0.  1.
      99926    2    1    2    0    0  0.35527136788E-14  0.00000000000E+00  0.57894578534E+03  0.73631468845E+03  0.45495175355E+03 0.  0.
      99925    2    3    3    0    0 -0.26611186250E+02  0.63742633826E+02  0.50941109355E+03  0.57740005708E+03  0.26290660904E+03 0.  0.
         25    1    3    3    0    0  0.26611186250E+02 -0.63742633826E+02  0.69534691787E+02  0.15891463137E+03  0.12509000000E+03 0.  0.
         25    1    4    4    0    0  0.15184732325E+02  0.21458286049E+02  0.30267339231E+03  0.32855703409E+03  0.12509000000E+03 0.  0.
         25    1    4    4    0    0 -0.41795918576E+02  0.42284347777E+02  0.20673770125E+03  0.24884302299E+03  0.12509000000E+03 0.  0.
<mgrwt>
<rscale>  2 0.45495175E+03</rscale>
<asrwt>0</asrwt>
<pdfrwt beam="1">  1       21 0.96710326E-01 0.45495175E+03</pdfrwt>
<pdfrwt beam="2">  1       21 0.11571243E-01 0.45495175E+03</pdfrwt>
<totfact> 0.50994615E+04</totfact>
</mgrwt>
</event>
<event>
 7    0  0.4691878E-002  0.4598172E+03  0.7546771E-02  0.1024834E+00
         21   -1    0    0  502  501  0.00000000000E+00  0.00000000000E+00  0.15050339303E+03  0.15050339303E+03  0.00000000000E+00 0. -1.
         21   -1    0    0  501  502 -0.00000000000E+00 -0.00000000000E+00 -0.35120780793E+03  0.35120780793E+03  0.00000000000E+00 0. -1.
      99926    2    1    2    0    0  0.00000000000E+00  0.00000000000E+00 -0.20070441490E+03  0.50171120096E+03  0.45981721043E+03 0.  0.
      99925    2    3    3    0    0  0.89687681574E+02 -0.54439197385E+02 -0.18389844414E+03  0.33758486185E+03  0.26293990711E+03 0.  0.
         25    1    4    4    0    0  0.64386975291E+02 -0.78019115989E+01 -0.12899800045E+03  0.19103545386E+03  0.12509000000E+03 0.  0.
         25    1    4    4    0    0  0.25300706283E+02 -0.46637285786E+02 -0.54900443692E+02  0.14654940799E+03  0.12509000000E+03 0.  0.
         25    1    3    3    0    0 -0.89687681574E+02  0.54439197385E+02 -0.16805970761E+02  0.16412633912E+03  0.12509000000E+03 0.  0.
<mgrwt>
<rscale>  2 0.45981721E+03</rscale>
<asrwt>0</asrwt>
<pdfrwt beam="1">  1       21 0.22132852E-01 0.45981721E+03</pdfrwt>
<pdfrwt beam="2">  1       21 0.51648207E-01 0.45981721E+03</pdfrwt>
<totfact> 0.62717765E+04</totfact>
</mgrwt>
</event>
<event>
 6    0  0.4691878E-002  0.4560280E+03  0.7546771E-02  0.1025940E+00
         21   -1    0    0  502  501  0.00000000000E+00  0.00000000000E+00  0.77229342889E+03  0.77229342889E+03  0.00000000000E+00 0. -1.
         21   -1    0    0  501  502 -0.00000000000E+00 -0.00000000000E+00 -0.67319456771E+02  0.67319456771E+02  0.00000000000E+00 0. -1.
      99926    2    1    2    0    0  0.00000000000E+00  0.71054273576E-14  0.70497397212E+03  0.83961288567E+03  0.45602795573E+03 0.  0.
         25    1    3    3    0    0  0.41476085576E+02 -0.58572367278E+02  0.14971896298E+03  0.20788040759E+03  0.12509000000E+03 0.  0.
         25    1    3    3    0    0  0.54026743310E+02  0.11007258279E+02  0.24121584528E+03  0.27725915826E+03  0.12509000000E+03 0.  0.
         25    1    3    3    0    0 -0.95502828886E+02  0.47565109000E+02  0.31403916386E+03  0.35447331981E+03  0.12509000000E+03 0.  0.
<mgrwt>
<rscale>  2 0.45602796E+03</rscale>
<asrwt>0</asrwt>
<pdfrwt beam="1">  1       21 0.11357256E+00 0.45602796E+03</pdfrwt>
<pdfrwt beam="2">  1       21 0.98999206E-02 0.45602796E+03</pdfrwt>
<totfact> 0.45539290E+04</totfact>
</mgrwt>
</event>
<event>
 7    0  0.4691878E-002  0.4575008E+03  0.7546771E-02  0.1025509E+00
         21   -1    0    0  502  501  0.00000000000E+00  0.00000000000E+00  0.12505106529E+04  0.12505106529E+04  0.00000000000E+00 0.  1.
         21   -1    0    0  501  502 -0.00000000000E+00 -0.00000000000E+00 -0.41844307274E+02  0.41844307274E+02  0.00000000000E+00 0.  1.
      99926    2    1    2    0    0 -0.28421709430E-13 -0.88817841970E-15  0.12086663456E+04  0.12923549602E+04  0.45750082845E+03 0.  0.
      99925    2    3    3    0    0  0.11441007576E+03  0.49396386503E+01  0.79735418104E+03  0.84745129610E+03  0.26322223269E+03 0.  0.
         25    1    4    4    0    0  0.10055875102E+03  0.50712860705E+01  0.47445988225E+03  0.50089666431E+03  0.12509000000E+03 0.  0.
         25    1    3    3    0    0 -0.11441007576E+03 -0.49396386503E+01  0.41131216456E+03  0.44490366405E+03  0.12509000000E+03 0.  0.
         25    1    4    4    0    0  0.13851324737E+02 -0.13164742024E+00  0.32289429879E+03  0.34655463179E+03  0.12509000000E+03 0.  0.
<mgrwt>
<rscale>  2 0.45750083E+03</rscale>
<asrwt>0</asrwt>
<pdfrwt beam="1">  1       21 0.18389860E+00 0.45750083E+03</pdfrwt>
<pdfrwt beam="2">  1       21 0.61535754E-02 0.45750083E+03</pdfrwt>
<totfact> 0.28773746E+04</totfact>
</mgrwt>
</event>
<event>
 7    0  0.4691878E-002  0.4488405E+03  0.7546771E-02  0.1028068E+00
         21   -1    0    0  502  501  0.00000000000E+00  0.00000000000E+00  0.49140851469E+03  0.49140851469E+03  0.00000000000E+00 0.  1.
         21   -1    0    0  501  502 -0.00000000000E+00 -0.00000000000E+00 -0.10248998538E+03  0.10248998538E+03  0.00000000000E+00 0.  1.
      99926    2    1    2    0    0  0.14210854715E-13  0.00000000000E+00  0.38891852931E+03  0.59389850008E+03  0.44884051282E+03 0.  0.
      99925    2    3    3    0    0  0.68803518947E+02  0.41318289804E+02  0.15202609652E+03  0.31424396658E+03  0.26305172726E+03 0.  0.
         25    1    4    4    0    0  0.29065234925E+02 -0.18735349217E+02  0.59292506968E+02  0.14268465466E+03  0.12509000000E+03 0.  0.
         25    1    4    4    0    0  0.39738284021E+02  0.60053639021E+02  0.92733589553E+02  0.17155931192E+03  0.12509000000E+03 0.  0.
         25    1    3    3    0    0 -0.68803518947E+02 -0.41318289804E+02  0.23689243279E+03  0.27965453350E+03  0.12509000000E+03 0.  0.
<mgrwt>
<rscale>  2 0.44884051E+03</rscale>
<asrwt>0</asrwt>
<pdfrwt beam="1">  1       21 0.72265957E-01 0.44884051E+03</pdfrwt>
<pdfrwt beam="2">  1       21 0.15072057E-01 0.44884051E+03</pdfrwt>
<totfact> 0.62019527E+04</totfact>
</mgrwt>
</event>
<event>
 7    0  0.4691878E-002  0.4644265E+03  0.7546771E-02  0.1023505E+00
         21   -1    0    0  502  501  0.00000000000E+00  0.00000000000E+00  0.50652556338E+02  0.50652556338E+02  0.00000000000E+00 0. -1.
         21   -1    0    0  501  502 -0.00000000000E+00 -0.00000000000E+00 -0.10645660194E+04  0.10645660194E+04  0.00000000000E+00 0. -1.
      99926    2    1    2    0    0 -0.35527136788E-14  0.14210854715E-13 -0.10139134631E+04  0.11152185758E+04  0.46442648622E+03 0.  0.
      99925    2    3    3    0    0 -0.25391160854E+02  0.95190367523E+02 -0.80454533549E+03  0.85218162385E+03  0.26308630913E+03 0.  0.
         25    1    3    3    0    0  0.25391160854E+02 -0.95190367523E+02 -0.20936812760E+03  0.26303695191E+03  0.12509000000E+03 0.  0.
         25    1    4    4    0    0 -0.19202866150E+02  0.51399173976E+01 -0.35883729623E+03  0.38053499456E+03  0.12509000000E+03 0.  0.
         25    1    4    4    0    0 -0.61882947033E+01  0.90050450126E+02 -0.44570803925E+03  0.47164662928E+03  0.12509000000E+03 0.  0.
<mgrwt>
<rscale>  2 0.46442649E+03</rscale>
<asrwt>0</asrwt>
<pdfrwt beam="1">  1       21 0.74489055E-02 0.46442649E+03</pdfrwt>
<pdfrwt beam="2">  1       21 0.15655382E+00 0.46442649E+03</pdfrwt>
<totfact> 0.32509246E+04</totfact>
</mgrwt>
</event>
<event>
 7    0  0.4691878E-002  0.4616597E+03  0.7546771E-02  0.1024301E+00
         21   -1    0    0  502  501  0.00000000000E+00  0.00000000000E+00  0.86193347465E+02  0.86193347465E+02  0.00000000000E+00 0.  1.
         21   -1    0    0  501  502 -0.00000000000E+00 -0.00000000000E+00 -0.61817312039E+03  0.61817312039E+03  0.00000000000E+00 0.  1.
      99926    2    1    2    0    0  0.14210854715E-13  0.00000000000E+00 -0.53197977293E+03  0.70436646786E+03  0.46165966061E+03 0.  0.
      99925    2    3    3    0    0 -0.96483062268E+02  0.53448759337E+02 -0.26339764472E+03  0.38821837143E+03  0.26300082414E+03 0.  0.
         25    1    3    3    0    0  0.96483062268E+02 -0.53448759337E+02 -0.26858212821E+03  0.31614809642E+03  0.12509000000E+03 0.  0.
         25    1    4    4    0    0 -0.45892993918E+02  0.29208696851E+02 -0.76381941965E+02  0.15633625306E+03  0.12509000000E+03 0.  0.
         25    1    4    4    0    0 -0.50590068350E+02  0.24240062486E+02 -0.18701570275E+03  0.23188211837E+03  0.12509000000E+03 0.  0.
<mgrwt>
<rscale>  2 0.46165966E+03</rscale>
<asrwt>0</asrwt>
<pdfrwt beam="1">  1       21 0.12675492E-01 0.46165966E+03</pdfrwt>
<pdfrwt beam="2">  1       21 0.90907812E-01 0.46165966E+03</pdfrwt>
<totfact> 0.49994584E+04</totfact>
</mgrwt>
</event>
<event>
 7    0  0.4691878E-002  0.4581947E+03  0.7546771E-02  0.1025306E+00
         21   -1    0    0  502  501  0.00000000000E+00  0.00000000000E+00  0.36486604337E+02  0.36486604337E+02  0.00000000000E+00 0. -1.
         21   -1    0    0  501  502 -0.00000000000E+00 -0.00000000000E+00 -0.14384895356E+04  0.14384895356E+04  0.00000000000E+00 0. -1.
      99926    2    1    2    0    0  0.00000000000E+00  0.00000000000E+00 -0.14020029313E+04  0.14749761400E+04  0.45819471201E+03 0.  0.
      99925    2    3    3    0    0 -0.38693727010E+02  0.95159381102E+02 -0.10541977165E+04  0.10913506874E+04  0.26298476207E+03 0.  0.
         25    1    3    3    0    0  0.38693727010E+02 -0.95159381102E+02 -0.34780521476E+03  0.38362545254E+03  0.12509000000E+03 0.  0.
         25    1    4    4    0    0 -0.96923010757E+01  0.45940530696E+02 -0.67229555702E+03  0.68544386870E+03  0.12509000000E+03 0.  0.
         25    1    4    4    0    0 -0.29001425934E+02  0.49218850406E+02 -0.38190215952E+03  0.40590681872E+03  0.12509000000E+03 0.  0.
<mgrwt>
<rscale>  2 0.45819471E+03</rscale>
<asrwt>0</asrwt>
<pdfrwt beam="1">  1       21 0.53656769E-02 0.45819471E+03</pdfrwt>
<pdfrwt beam="2">  1       21 0.21154259E+00 0.45819471E+03</pdfrwt>
<totfact> 0.23802925E+04</totfact>
</mgrwt>
</event>
<event>
 7    0  0.4691878E-002  0.4330583E+03  0.7546771E-02  0.1032898E+00
         21   -1    0    0  502  501  0.00000000000E+00  0.00000000000E+00  0.39041553224E+03  0.39041553224E+03  0.00000000000E+00 0. -1.
         21   -1    0    0  501  502 -0.00000000000E+00 -0.00000000000E+00 -0.12008965046E+03  0.12008965046E+03  0.00000000000E+00 0. -1.
      99926    2    1    2    0    0 -0.35527136788E-14  0.00000000000E+00  0.27032588178E+03  0.51050518271E+03  0.43305826307E+03 0.  0.
      99925    2    3    3    0    0  0.22804845903E+02  0.70153333233E+02  0.23660376882E+03  0.36142050824E+03  0.26306251955E+03 0.  0.
         25    1    3    3    0    0 -0.22804845903E+02 -0.70153333233E+02  0.33722112963E+02  0.14908467447E+03  0.12509000000E+03 0.  0.
         25    1    4    4    0    0 -0.69818224484E+01  0.48740359984E+02  0.16452318899E+03  0.21246118787E+03  0.12509000000E+03 0.  0.
         25    1    4    4    0    0  0.29786668352E+02  0.21412973250E+02  0.72080579825E+02  0.14895932036E+03  0.12509000000E+03 0.  0.
<mgrwt>
<rscale>  2 0.43305826E+03</rscale>
<asrwt>0</asrwt>
<pdfrwt beam="1">  1       21 0.57414048E-01 0.43305826E+03</pdfrwt>
<pdfrwt beam="2">  1       21 0.17660243E-01 0.43305826E+03</pdfrwt>
<totfact> 0.77104558E+04</totfact>
</mgrwt>
</event>
<event>
 7    0  0.4691878E-002  0.4538376E+03  0.7546771E-02  0.1026584E+00
         21   -1    0    0  502  501  0.00000000000E+00  0.00000000000E+00  0.10348191586E+03  0.10348191586E+03  0.00000000000E+00 0.  1.
         21   -1    0    0  501  502 -0.00000000000E+00 -0.00000000000E+00 -0.49759558386E+03  0.49759558386E+03  0.00000000000E+00 0.  1.
      99926    2    1    2    0    0  0.00000000000E+00  0.00000000000E+00 -0.39411366800E+03  0.60107749972E+03  0.45383761123E+03 0.  0.
      99925    2    3    3    0    0  0.76475640294E+02  0.12398133440E+02 -0.35549939818E+03  0.44895647157E+03  0.26302063415E+03 0.  0.
         25    1    4    4    0    0  0.77307784953E+01  0.13556810303E+02 -0.21137299902E+03  0.24610892884E+03  0.12509000000E+03 0.  0.
         25    1    3    3    0    0 -0.76475640294E+02 -0.12398133440E+02 -0.38614269816E+02  0.15212102815E+03  0.12509000000E+03 0.  0.
         25    1    4    4    0    0  0.68744861799E+02 -0.11586768627E+01 -0.14412639916E+03  0.20284754273E+03  0.12509000000E+03 0.  0.
<mgrwt>
<rscale>  2 0.45383761E+03</rscale>
<asrwt>0</asrwt>
<pdfrwt beam="1">  1       21 0.15217929E-01 0.45383761E+03</pdfrwt>
<pdfrwt beam="2">  1       21 0.73175820E-01 0.45383761E+03</pdfrwt>
<totfact> 0.59153389E+04</totfact>
</mgrwt>
</event>
<event>
 7    0  0.4691878E-002  0.4525658E+03  0.7546771E-02  0.1026960E+00
         21   -1    0    0  502  501  0.00000000000E+00  0.00000000000E+00  0.27723244648E+02  0.27723244648E+02  0.00000000000E+00 0.  1.
         21   -1    0    0  501  502 -0.00000000000E+00 -0.00000000000E+00 -0.18469677993E+04  0.18469677993E+04  0.00000000000E+00 0.  1.
      99926    2    1    2    0    0  0.35527136788E-14 -0.14210854715E-13 -0.18192445547E+04  0.18746910440E+04  0.45256575283E+03 0.  0.
      99925    2    3    3    0    0 -0.31832815152E+02  0.10557772476E+03 -0.10966466332E+04  0.11331013674E+04  0.26291612113E+03 0.  0.
         25    1    4    4    0    0 -0.15579922171E+02  0.63935263365E+02 -0.40879780825E+03  0.43254318629E+03  0.12509000000E+03 0.  0.
         25    1    4    4    0    0 -0.16252892980E+02  0.41642461392E+02 -0.68784882491E+03  0.70055818113E+03  0.12509000000E+03 0.  0.
         25    1    3    3    0    0  0.31832815152E+02 -0.10557772476E+03 -0.72259792149E+03  0.74158967653E+03  0.12509000000E+03 0.  0.
<mgrwt>
<rscale>  2 0.45256575E+03</rscale>
<asrwt>0</asrwt>
<pdfrwt beam="1">  1       21 0.40769469E-02 0.45256575E+03</pdfrwt>
<pdfrwt beam="2">  1       21 0.27161297E+00 0.45256575E+03</pdfrwt>
<totfact> 0.16168783E+04</totfact>
</mgrwt>
</event>
<event>
 7    0  0.4691878E-002  0.4086878E+03  0.7546771E-02  0.1040812E+00
         21   -1    0    0  502  501  0.00000000000E+00  0.00000000000E+00  0.39935783599E+03  0.39935783599E+03  0.00000000000E+00 0. -1.
         21   -1    0    0  501  502 -0.00000000000E+00 -0.00000000000E+00 -0.10455891419E+03  0.10455891419E+03  0.00000000000E+00 0. -1.
      99926    2    1    2    0    0  0.00000000000E+00  0.00000000000E+00  0.29479892180E+03  0.50391675018E+03  0.40868776202E+03 0.  0.
      99925    2    3    3    0    0 -0.54099638147E+02  0.18791622790E+02  0.17222700546E+03  0.31965802255E+03  0.26313345290E+03 0.  0.
         25    1    3    3    0    0  0.54099638147E+02 -0.18791622790E+02  0.12257191634E+03  0.18425872764E+03  0.12509000000E+03 0.  0.
         25    1    4    4    0    0 -0.15951478276E+02 -0.26170657911E+02  0.62666008215E+02  0.14322670729E+03  0.12509000000E+03 0.  0.
         25    1    4    4    0    0 -0.38148159871E+02  0.44962280701E+02  0.10956099724E+03  0.17643131526E+03  0.12509000000E+03 0.  0.
<mgrwt>
<rscale>  2 0.40868776E+03</rscale>
<asrwt>0</asrwt>
<pdfrwt beam="1">  1       21 0.58729093E-01 0.40868776E+03</pdfrwt>
<pdfrwt beam="2">  1       21 0.15376311E-01 0.40868776E+03</pdfrwt>
<totfact> 0.95531592E+04</totfact>
</mgrwt>
</event>
<event>
 6    0  0.4691878E-002  0.4542093E+03  0.7546771E-02  0.1026474E+00
         21   -1    0    0  502  501  0.00000000000E+00  0.00000000000E+00  0.27626628852E+02  0.27626628852E+02  0.00000000000E+00 0. -1.
         21   -1    0    0  501  502 -0.00000000000E+00 -0.00000000000E+00 -0.18669136222E+04  0.18669136222E+04  0.00000000000E+00 0. -1.
      99926    2    1    2    0    0  0.35527136788E-14  0.00000000000E+00 -0.18392869934E+04  0.18945402511E+04  0.45420933385E+03 0.  0.
         25    1    3    3    0    0  0.36098720504E+02  0.79434271727E+02 -0.39747031818E+03  0.42572653556E+03  0.12509000000E+03 0.  0.
         25    1    3    3    0    0 -0.18420502398E+02 -0.23785971225E+02 -0.47196098213E+03  0.48918275122E+03  0.12509000000E+03 0.  0.
         25    1    3    3    0    0 -0.17678218106E+02 -0.55648300502E+02 -0.96985569306E+03  0.97963096430E+03  0.12509000000E+03 0.  0.
<mgrwt>
<rscale>  2 0.45420933E+03</rscale>
<asrwt>0</asrwt>
<pdfrwt beam="1">  1       21 0.40627388E-02 0.45420933E+03</pdfrwt>
<pdfrwt beam="2">  1       21 0.27454617E+00 0.45420933E+03</pdfrwt>
<totfact> 0.15604444E+04</totfact>
</mgrwt>
</event>
<event>
 7    0  0.4691878E-002  0.4625550E+03  0.7546771E-02  0.1024043E+00
         21   -1    0    0  502  501  0.00000000000E+00  0.00000000000E+00  0.33387792228E+02  0.33387792228E+02  0.00000000000E+00 0. -1.
         21   -1    0    0  501  502 -0.00000000000E+00 -0.00000000000E+00 -0.16020608130E+04  0.16020608130E+04  0.00000000000E+00 0. -1.
      99926    2    1    2    0    0 -0.14210854715E-13  0.00000000000E+00 -0.15686730207E+04  0.16354486052E+04  0.46255496348E+03 0.  0.
      99925    2    3    3    0    0  0.87285374245E+02 -0.73989882772E+02 -0.85604471665E+03  0.90293249807E+03  0.26340330267E+03 0.  0.
         25    1    3    3    0    0 -0.87285374245E+02  0.73989882772E+02 -0.71262830410E+03  0.73251610713E+03  0.12509000000E+03 0.  0.
         25    1    4    4    0    0  0.21235882995E+02 -0.90360272764E+01 -0.30856967281E+03  0.33375943971E+03  0.12509000000E+03 0.  0.
         25    1    4    4    0    0  0.66049491250E+02 -0.64953855495E+02 -0.54747504384E+03  0.56917305836E+03  0.12509000000E+03 0.  0.
<mgrwt>
<rscale>  2 0.46255496E+03</rscale>
<asrwt>0</asrwt>
<pdfrwt beam="1">  1       21 0.49099689E-02 0.46255496E+03</pdfrwt>
<pdfrwt beam="2">  1       21 0.23559721E+00 0.46255496E+03</pdfrwt>
<totfact> 0.19472875E+04</totfact>
</mgrwt>
</event>
<event>
 7    0  0.4691878E-002  0.4561915E+03  0.7546771E-02  0.1025892E+00
         21   -1    0    0  502  501  0.00000000000E+00  0.00000000000E+00  0.64725257382E+03  0.64725257382E+03  0.00000000000E+00 0.  1.
         21   -1    0    0  501  502 -0.00000000000E+00 -0.00000000000E+00 -0.80382329056E+02  0.80382329056E+02  0.00000000000E+00 0.  1.
      99926    2    1    2    0    0  0.00000000000E+00  0.00000000000E+00  0.56687024477E+03  0.72763490288E+03  0.45619149212E+03 0.  0.
      99925    2    3    3    0    0 -0.10302781089E+03  0.46217673073E+02  0.32838276354E+03  0.43561677002E+03  0.26301317040E+03 0.  0.
         25    1    4    4    0    0 -0.24729477959E+02 -0.95301679718E+01  0.13296123060E+03  0.18446833908E+03  0.12509000000E+03 0.  0.
         25    1    3    3    0    0  0.10302781089E+03 -0.46217673073E+02  0.23848748122E+03  0.29201813286E+03  0.12509000000E+03 0.  0.
         25    1    4    4    0    0 -0.78298332932E+02  0.55747841045E+02  0.19542153294E+03  0.25114843093E+03  0.12509000000E+03 0.  0.
<mgrwt>
<rscale>  2 0.45619149E+03</rscale>
<asrwt>0</asrwt>
<pdfrwt beam="1">  1       21 0.95184200E-01 0.45619149E+03</pdfrwt>
<pdfrwt beam="2">  1       21 0.11820931E-01 0.45619149E+03</pdfrwt>
<totfact> 0.50949083E+04</totfact>
</mgrwt>
</event>
<event>
 7    0  0.4691878E-002  0.4482141E+03  0.7546771E-02  0.1028256E+00
         21   -1    0    0  502  501  0.00000000000E+00  0.00000000000E+00  0.25366365510E+03  0.25366365510E+03  0.00000000000E+00 0. -1.
         21   -1    0    0  501  502 -0.00000000000E+00 -0.00000000000E+00 -0.19799438938E+03  0.19799438938E+03  0.00000000000E+00 0. -1.
      99926    2    1    2    0    0  0.00000000000E+00  0.00000000000E+00  0.55669265719E+02  0.45165804448E+03  0.44821414747E+03 0.  0.
      99925    2    3    3    0    0  0.11820117886E+02 -0.10601360218E+03  0.37744665172E+02  0.28628755606E+03  0.26297776707E+03 0.  0.
         25    1    4    4    0    0  0.73225274006E+01 -0.55746584593E+02 -0.21756063383E+02  0.13886012925E+03  0.12509000000E+03 0.  0.
         25    1    4    4    0    0  0.44975904855E+01 -0.50267017590E+02  0.59500728555E+02  0.14742742681E+03  0.12509000000E+03 0.  0.
         25    1    3    3    0    0 -0.11820117886E+02  0.10601360218E+03  0.17924600548E+02  0.16537048842E+03  0.12509000000E+03 0.  0.
<mgrwt>
<rscale>  2 0.44821415E+03</rscale>
<asrwt>0</asrwt>
<pdfrwt beam="1">  1       21 0.37303479E-01 0.44821415E+03</pdfrwt>
<pdfrwt beam="2">  1       21 0.29116822E-01 0.44821415E+03</pdfrwt>
<totfact> 0.72645214E+04</totfact>
</mgrwt>
</event>
<event>
 7    0  0.4691878E-002  0.4417097E+03  0.7546771E-02  0.1030224E+00
         21   -1    0    0  502  501  0.00000000000E+00  0.00000000000E+00  0.75007692030E+02  0.75007692030E+02  0.00000000000E+00 0.  1.
         21   -1    0    0  501  502 -0.00000000000E+00 -0.00000000000E+00 -0.65029141912E+03  0.65029141912E+03  0.00000000000E+00 0.  1.
      99926    2    1    2    0    0  0.00000000000E+00  0.00000000000E+00 -0.57528372709E+03  0.72529911115E+03  0.44170967160E+03 0.  0.
      99925    2    3    3    0    0  0.80117130133E+02  0.53305829232E+02 -0.32114340670E+03  0.42614183392E+03  0.26306559825E+03 0.  0.
         25    1    4    4    0    0  0.65356323605E+01  0.48671123942E+02 -0.16746272262E+03  0.21471577576E+03  0.12509000000E+03 0.  0.
         25    1    4    4    0    0  0.73581497772E+02  0.46347052897E+01 -0.15368068408E+03  0.21142605816E+03  0.12509000000E+03 0.  0.
         25    1    3    3    0    0 -0.80117130133E+02 -0.53305829232E+02 -0.25414032039E+03  0.29915727723E+03  0.12509000000E+03 0.  0.
<mgrwt>
<rscale>  2 0.44170967E+03</rscale>
<asrwt>0</asrwt>
<pdfrwt beam="1">  1       21 0.11030543E-01 0.44170967E+03</pdfrwt>
<pdfrwt beam="2">  1       21 0.95631092E-01 0.44170967E+03</pdfrwt>
<totfact> 0.57310108E+04</totfact>
</mgrwt>
</event>
<event>
 7    0  0.4691878E-002  0.4573013E+03  0.7546771E-02  0.1025567E+00
         21   -1    0    0  502  501  0.00000000000E+00  0.00000000000E+00  0.26897228728E+03  0.26897228728E+03  0.00000000000E+00 0. -1.
         21   -1    0    0  501  502 -0.00000000000E+00 -0.00000000000E+00 -0.19437364790E+03  0.19437364790E+03  0.00000000000E+00 0. -1.
      99926    2    1    2    0    0  0.00000000000E+00  0.00000000000E+00  0.74598639387E+02  0.46334593518E+03  0.45730132151E+03 0.  0.
      99925    2    3    3    0    0  0.11293075190E+03 -0.23272304189E+02  0.43993009876E+02  0.29049001968E+03  0.26297169381E+03 0.  0.
         25    1    3    3    0    0 -0.11293075190E+03  0.23272304189E+02  0.30605629510E+02  0.17285591550E+03  0.12509000000E+03 0.  0.
         25    1    4    4    0    0  0.71196826715E+02  0.94881759338E+01 -0.92806418106E+01  0.14454290723E+03  0.12509000000E+03 0.  0.
         25    1    4    4    0    0  0.41733925186E+02 -0.32760480122E+02  0.53273651687E+02  0.14594711245E+03  0.12509000000E+03 0.  0.
<mgrwt>
<rscale>  2 0.45730132E+03</rscale>
<asrwt>0</asrwt>
<pdfrwt beam="1">  1       21 0.39554748E-01 0.45730132E+03</pdfrwt>
<pdfrwt beam="2">  1       21 0.28584360E-01 0.45730132E+03</pdfrwt>
<totfact> 0.66704366E+04</totfact>
</mgrwt>
</event>
<event>
 6    0  0.4691878E-002  0.4461968E+03  0.7546771E-02  0.1028862E+00
         21   -1    0    0  502  501  0.00000000000E+00  0.00000000000E+00  0.21700554710E+03  0.21700554710E+03  0.00000000000E+00 0.  1.
         21   -1    0    0  501  502 -0.00000000000E+00 -0.00000000000E+00 -0.22936231772E+03  0.22936231772E+03  0.00000000000E+00 0.  1.
      99926    2    1    2    0    0  0.00000000000E+00 -0.71054273576E-14 -0.12356770621E+02  0.44636786481E+03  0.44619679622E+03 0.  0.
         25    1    3    3    0    0  0.96259007274E+00  0.24001671774E+00 -0.18357592846E+02  0.12643375144E+03  0.12509000000E+03 0.  0.
         25    1    3    3    0    0  0.82050678306E+02 -0.41967998961E+02  0.40015942201E+02  0.16044441554E+03  0.12509000000E+03 0.  0.
         25    1    3    3    0    0 -0.83013268379E+02  0.41727982244E+02 -0.34015119976E+02  0.15948969784E+03  0.12509000000E+03 0.  0.
<mgrwt>
<rscale>  2 0.44619680E+03</rscale>
<asrwt>0</asrwt>
<pdfrwt beam="1">  1       21 0.31912580E-01 0.44619680E+03</pdfrwt>
<pdfrwt beam="2">  1       21 0.33729753E-01 0.44619680E+03</pdfrwt>
<totfact> 0.74263679E+04</totfact>
</mgrwt>
</event>
<event>
 7    0  0.4691878E-002  0.4564550E+03  0.7546771E-02  0.1025814E+00
         21   -1    0    0  502  501  0.00000000000E+00  0.00000000000E+00  0.61313634569E+03  0.61313634569E+03  0.00000000000E+00 0.  1.
         21   -1    0    0  501  502 -0.00000000000E+00 -0.00000000000E+00 -0.84953045752E+02  0.84953045752E+02  0.00000000000E+00 0.  1.
      99926    2    1    2    0    0  0.00000000000E+00  0.00000000000E+00  0.52818329994E+03  0.69808939145E+03  0.45645503624E+03 0.  0.
      99925    2    3    3    0    0  0.80147175771E+02 -0.77566925101E+02  0.29251795121E+03  0.40890802561E+03  0.26305669346E+03 0.  0.
         25    1    4    4    0    0  0.77637915597E+02 -0.40323311693E+02  0.13036757016E+03  0.20074069556E+03  0.12509000000E+03 0.  0.
         25    1    3    3    0    0 -0.80147175771E+02  0.77566925101E+02  0.23566534873E+03  0.28918136584E+03  0.12509000000E+03 0.  0.
         25    1    4    4    0    0  0.25092601744E+01 -0.37243613408E+02  0.16215038105E+03  0.20816733005E+03  0.12509000000E+03 0.  0.
<mgrwt>
<rscale>  2 0.45645504E+03</rscale>
<asrwt>0</asrwt>
<pdfrwt beam="1">  1       21 0.90167108E-01 0.45645504E+03</pdfrwt>
<pdfrwt beam="2">  1       21 0.12493095E-01 0.45645504E+03</pdfrwt>
<totfact> 0.52404133E+04</totfact>
</mgrwt>
</event>
<event>
 7    0  0.4691878E-002  0.5199370E+03  0.7546771E-02  0.1008702E+00
         21   -1    0    0  502  501  0.00000000000E+00  0.00000000000E+00  0.32479536375E+03  0.32479536375E+03  0.00000000000E+00 0. -1.
         21   -1    0    0  501  502 -0.00000000000E+00 -0.00000000000E+00 -0.20808061669E+03  0.20808061669E+03  0.00000000000E+00 0. -1.
      99926    2    1    2    0    0  0.00000000000E+00  0.00000000000E+00  0.11671474706E+03  0.53287598043E+03  0.51993699459E+03 0.  0.
      99925    2    3    3    0    0 -0.11740102701E+03  0.11730179189E+03  0.87442963943E+02  0.32300207326E+03  0.26294743936E+03 0.  0.
         25    1    3    3    0    0  0.11740102701E+03 -0.11730179189E+03  0.29271783117E+02  0.20987390717E+03  0.12509000000E+03 0.  0.
         25    1    4    4    0    0 -0.80872886170E+02  0.97264588222E+02  0.64162222811E+02  0.18911669090E+03  0.12509000000E+03 0.  0.
         25    1    4    4    0    0 -0.36528140838E+02  0.20037203673E+02  0.23280741132E+02  0.13388538237E+03  0.12509000000E+03 0.  0.
<mgrwt>
<rscale>  2 0.51993699E+03</rscale>
<asrwt>0</asrwt>
<pdfrwt beam="1">  1       21 0.47764024E-01 0.51993699E+03</pdfrwt>
<pdfrwt beam="2">  1       21 0.30600090E-01 0.51993699E+03</pdfrwt>
<totfact> 0.38806957E+04</totfact>
</mgrwt>
</event>
<event>
 7    0  0.4691878E-002  0.4557175E+03  0.7546771E-02  0.1026031E+00
         21   -1    0    0  502  501  0.00000000000E+00  0.00000000000E+00  0.10225024053E+03  0.10225024053E+03  0.00000000000E+00 0.  1.
         21   -1    0    0  501  502 -0.00000000000E+00 -0.00000000000E+00 -0.50777011763E+03  0.50777011763E+03  0.00000000000E+00 0.  1.
      99926    2    1    2    0    0  0.14210854715E-13  0.35527136788E-14 -0.40551987709E+03  0.61002035816E+03  0.45571752946E+03 0.  0.
      99925    2    3    3    0    0 -0.91684182277E+02 -0.16777604037E+02 -0.16686615575E+03  0.32490532158E+03  0.26273879953E+03 0.  0.
         25    1    4    4    0    0 -0.43384389872E+02 -0.19986998425E+02 -0.12804895779E+03  0.18527204074E+03  0.12509000000E+03 0.  0.
         25    1    4    4    0    0 -0.48299792405E+02  0.32093943874E+01 -0.38817197966E+02  0.13963328083E+03  0.12509000000E+03 0.  0.
         25    1    3    3    0    0  0.91684182277E+02  0.16777604037E+02 -0.23865372134E+03  0.28511503658E+03  0.12509000000E+03 0.  0.
<mgrwt>
<rscale>  2 0.45571753E+03</rscale>
<asrwt>0</asrwt>
<pdfrwt beam="1">  1       21 0.15036800E-01 0.45571753E+03</pdfrwt>
<pdfrwt beam="2">  1       21 0.74672075E-01 0.45571753E+03</pdfrwt>
<totfact> 0.57737753E+04</totfact>
</mgrwt>
</event>
<event>
 7    0  0.4691878E-002  0.4554508E+03  0.7546771E-02  0.1026109E+00
         21   -1    0    0  502  501  0.00000000000E+00  0.00000000000E+00  0.46056332824E+03  0.46056332824E+03  0.00000000000E+00 0.  1.
         21   -1    0    0  501  502 -0.00000000000E+00 -0.00000000000E+00 -0.11259877052E+03  0.11259877052E+03  0.00000000000E+00 0.  1.
      99926    2    1    2    0    0  0.00000000000E+00  0.00000000000E+00  0.34796455772E+03  0.57316209876E+03  0.45545082943E+03 0.  0.
      99925    2    3    3    0    0 -0.57409148776E+02 -0.76768670726E+02  0.14219983929E+03  0.31397902328E+03  0.26300721206E+03 0.  0.
         25    1    4    4    0    0 -0.37408329928E+02 -0.13084399401E+02  0.10316930807E+03  0.16691913876E+03  0.12509000000E+03 0.  0.
         25    1    4    4    0    0 -0.20000818848E+02 -0.63684271325E+02  0.39030531226E+02  0.14705988453E+03  0.12509000000E+03 0.  0.
         25    1    3    3    0    0  0.57409148776E+02  0.76768670726E+02  0.20576471842E+03  0.25918307548E+03  0.12509000000E+03 0.  0.
<mgrwt>
<rscale>  2 0.45545083E+03</rscale>
<asrwt>0</asrwt>
<pdfrwt beam="1">  1       21 0.67729901E-01 0.45545083E+03</pdfrwt>
<pdfrwt beam="2">  1       21 0.16558643E-01 0.45545083E+03</pdfrwt>
<totfact> 0.60146692E+04</totfact>
</mgrwt>
</event>
<event>
 7    0  0.4691878E-002  0.4596918E+03  0.7546771E-02  0.1024871E+00
         21   -1    0    0  502  501  0.00000000000E+00  0.00000000000E+00  0.83347634953E+02  0.83347634953E+02  0.00000000000E+00 0. -1.
         21   -1    0    0  501  502 -0.00000000000E+00 -0.00000000000E+00 -0.63384087813E+03  0.63384087813E+03  0.00000000000E+00 0. -1.
      99926    2    1    2    0    0  0.00000000000E+00  0.00000000000E+00 -0.55049324318E+03  0.71718851309E+03  0.45969180166E+03 0.  0.
      99925    2    3    3    0    0  0.11016295956E+03 -0.37535821765E+02 -0.37128768629E+03  0.46958609934E+03  0.26289112409E+03 0.  0.
         25    1    4    4    0    0  0.67284796591E+02 -0.54556517006E+02 -0.16999442166E+03  0.22814308864E+03  0.12509000000E+03 0.  0.
         25    1    3    3    0    0 -0.11016295956E+03  0.37535821765E+02 -0.17920555689E+03  0.24760241375E+03  0.12509000000E+03 0.  0.
         25    1    4    4    0    0  0.42878162971E+02  0.17020695241E+02 -0.20129326464E+03  0.24144301070E+03  0.12509000000E+03 0.  0.
<mgrwt>
<rscale>  2 0.45969180E+03</rscale>
<asrwt>0</asrwt>
<pdfrwt beam="1">  1       21 0.12257005E-01 0.45969180E+03</pdfrwt>
<pdfrwt beam="2">  1       21 0.93211897E-01 0.45969180E+03</pdfrwt>
<totfact> 0.50104706E+04</totfact>
</mgrwt>
</event>
<event>
 7    0  0.4691878E-002  0.4508410E+03  0.7546771E-02  0.1027472E+00
         21   -1    0    0  502  501  0.00000000000E+00  0.00000000000E+00  0.10175664013E+03  0.10175664013E+03  0.00000000000E+00 0. -1.
         21   -1    0    0  501  502 -0.00000000000E+00 -0.00000000000E+00 -0.49937189668E+03  0.49937189668E+03  0.00000000000E+00 0. -1.
      99926    2    1    2    0    0  0.00000000000E+00  0.00000000000E+00 -0.39761525655E+03  0.60112853682E+03  0.45084102025E+03 0.  0.
      99925    2    3    3    0    0 -0.28667044601E+02  0.93558215841E+02 -0.18799967489E+03  0.33814348140E+03  0.26348092352E+03 0.  0.
         25    1    4    4    0    0 -0.51951704783E+02  0.34841236159E+02 -0.10866352995E+03  0.17711059316E+03  0.12509000000E+03 0.  0.
         25    1    3    3    0    0  0.28667044601E+02 -0.93558215841E+02 -0.20961558166E+03  0.26298505542E+03  0.12509000000E+03 0.  0.
         25    1    4    4    0    0  0.23284660182E+02  0.58716979683E+02 -0.79336144935E+02  0.16103288824E+03  0.12509000000E+03 0.  0.
<mgrwt>
<rscale>  2 0.45084102E+03</rscale>
<asrwt>0</asrwt>
<pdfrwt beam="1">  1       21 0.14964212E-01 0.45084102E+03</pdfrwt>
<pdfrwt beam="2">  1       21 0.73437043E-01 0.45084102E+03</pdfrwt>
<totfact> 0.60574910E+04</totfact>
</mgrwt>
</event>
<event>
 7    0  0.4691878E-002  0.4549861E+03  0.7546771E-02  0.1026246E+00
         21   -1    0    0  502  501  0.00000000000E+00  0.00000000000E+00  0.17104430612E+04  0.17104430612E+04  0.00000000000E+00 0. -1.
         21   -1    0    0  501  502 -0.00000000000E+00 -0.00000000000E+00 -0.30257119505E+02  0.30257119505E+02  0.00000000000E+00 0. -1.
      99926    2    1    2    0    0 -0.35527136788E-14  0.14210854715E-13  0.16801859417E+04  0.17407001807E+04  0.45498606621E+03 0.  0.
      99925    2    3    3    0    0  0.25832075041E+02 -0.10582170400E+03  0.93961217164E+03  0.98177821757E+03  0.26296750038E+03 0.  0.
         25    1    4    4    0    0 -0.33456106749E+01 -0.16143808501E+02  0.47473761134E+03  0.49121799986E+03  0.12509000000E+03 0.  0.
         25    1    4    4    0    0  0.29177685716E+02 -0.89677895504E+02  0.46487456029E+03  0.49056021770E+03  0.12509000000E+03 0.  0.
         25    1    3    3    0    0 -0.25832075041E+02  0.10582170400E+03  0.74057377006E+03  0.75892196315E+03  0.12509000000E+03 0.  0.
<mgrwt>
<rscale>  2 0.45498607E+03</rscale>
<asrwt>0</asrwt>
<pdfrwt beam="1">  1       21 0.25153568E+00 0.45498607E+03</pdfrwt>
<pdfrwt beam="2">  1       21 0.44495775E-02 0.45498607E+03</pdfrwt>
<totfact> 0.18429234E+04</totfact>
</mgrwt>
</event>
<event>
 7    0  0.4691878E-002  0.4518942E+03  0.7546771E-02  0.1027159E+00
         21   -1    0    0  502  501  0.00000000000E+00  0.00000000000E+00  0.21688974446E+03  0.21688974446E+03  0.00000000000E+00 0.  1.
         21   -1    0    0  501  502 -0.00000000000E+00 -0.00000000000E+00 -0.23538268221E+03  0.23538268221E+03  0.00000000000E+00 0.  1.
      99926    2    1    2    0    0  0.00000000000E+00  0.00000000000E+00 -0.18492937747E+02  0.45227242667E+03  0.45189419025E+03 0.  0.
      99925    2    3    3    0    0  0.55635772895E+02  0.58787036632E+02  0.63085680748E+02  0.28240826330E+03  0.26310334313E+03 0.  0.
         25    1    4    4    0    0  0.39515743995E+02 -0.72033242253E+00  0.48360168044E+01  0.13127417134E+03  0.12509000000E+03 0.  0.
         25    1    3    3    0    0 -0.55635772895E+02 -0.58787036632E+02 -0.81578618495E+02  0.16986416337E+03  0.12509000000E+03 0.  0.
         25    1    4    4    0    0  0.16120028901E+02  0.59507369054E+02  0.58249663944E+02  0.15113409196E+03  0.12509000000E+03 0.  0.
<mgrwt>
<rscale>  2 0.45189419E+03</rscale>
<asrwt>0</asrwt>
<pdfrwt beam="1">  1       21 0.31895551E-01 0.45189419E+03</pdfrwt>
<pdfrwt beam="2">  1       21 0.34615100E-01 0.45189419E+03</pdfrwt>
<totfact> 0.70476441E+04</totfact>
</mgrwt>
</event>
<event>
 7    0  0.4691878E-002  0.4618877E+03  0.7546771E-02  0.1024235E+00
         21   -1    0    0  502  501  0.00000000000E+00  0.00000000000E+00  0.43070549772E+03  0.43070549772E+03  0.00000000000E+00 0.  1.
         21   -1    0    0  501  502 -0.00000000000E+00 -0.00000000000E+00 -0.12383185251E+03  0.12383185251E+03  0.00000000000E+00 0.  1.
      99926    2    1    2    0    0  0.00000000000E+00  0.00000000000E+00  0.30687364521E+03  0.55453735023E+03  0.46188769054E+03 0.  0.
      99925    2    3    3    0    0  0.10129699353E+02  0.74994193067E+02  0.30327113736E+03  0.40829362912E+03  0.26268529654E+03 0.  0.
         25    1    4    4    0    0 -0.16288878470E+01  0.62934833970E+02  0.20530133175E+03  0.24851477124E+03  0.12509000000E+03 0.  0.
         25    1    3    3    0    0 -0.10129699353E+02 -0.74994193067E+02  0.36025078516E+01  0.14624372112E+03  0.12509000000E+03 0.  0.
         25    1    4    4    0    0  0.11758587200E+02  0.12059359097E+02  0.97969805608E+02  0.15977885788E+03  0.12509000000E+03 0.  0.
<mgrwt>
<rscale>  2 0.46188769E+03</rscale>
<asrwt>0</asrwt>
<pdfrwt beam="1">  1       21 0.63339043E-01 0.46188769E+03</pdfrwt>
<pdfrwt beam="2">  1       21 0.18210567E-01 0.46188769E+03</pdfrwt>
<totfact> 0.58324062E+04</totfact>
</mgrwt>
</event>
<event>
 7    0  0.4691878E-002  0.4540138E+03  0.7546771E-02  0.1026532E+00
         21   -1    0    0  502  501  0.00000000000E+00  0.00000000000E+00  0.53946788578E+03  0.53946788578E+03  0.00000000000E+00 0.  1.
         21   -1    0    0  501  502 -0.00000000000E+00 -0.00000000000E+00 -0.95523998220E+02  0.95523998220E+02  0.00000000000E+00 0.  1.
      99926    2    1    2    0    0  0.00000000000E+00  0.00000000000E+00  0.44394388756E+03  0.63499188400E+03  0.45401378552E+03 0.  0.
      99925    2    3    3    0    0 -0.28993952389E+02 -0.10465979441E+03  0.31949761519E+03  0.42779945014E+03  0.26294357111E+03 0.  0.
         25    1    4    4    0    0 -0.33692941681E+02 -0.38161092899E+02  0.10670378294E+03  0.17211824053E+03  0.12509000000E+03 0.  0.
         25    1    3    3    0    0  0.28993952389E+02  0.10465979441E+03  0.12444627237E+03  0.20719243386E+03  0.12509000000E+03 0.  0.
         25    1    4    4    0    0  0.46989892915E+01 -0.66498701514E+02  0.21279383225E+03  0.25568120961E+03  0.12509000000E+03 0.  0.
<mgrwt>
<rscale>  2 0.45401379E+03</rscale>
<asrwt>0</asrwt>
<pdfrwt beam="1">  1       21 0.79333512E-01 0.45401379E+03</pdfrwt>
<pdfrwt beam="2">  1       21 0.14047647E-01 0.45401379E+03</pdfrwt>
<totfact> 0.57017020E+04</totfact>
</mgrwt>
</event>
<event>
 6    0  0.4691878E-002  0.4675316E+03  0.7546771E-02  0.1022619E+00
         21   -1    0    0  502  501  0.00000000000E+00  0.00000000000E+00  0.62580970237E+02  0.62580970237E+02  0.00000000000E+00 0. -1.
         21   -1    0    0  501  502 -0.00000000000E+00 -0.00000000000E+00 -0.87321200422E+03  0.87321200422E+03  0.00000000000E+00 0. -1.
      99926    2    1    2    0    0  0.00000000000E+00  0.00000000000E+00 -0.81063103398E+03  0.93579297445E+03  0.46753162223E+03 0.  0.
         25    1    3    3    0    0 -0.14216081749E+02  0.46844467278E+02 -0.15845287682E+03  0.20772896613E+03  0.12509000000E+03 0.  0.
         25    1    3    3    0    0  0.43149238475E+01 -0.16736978989E+02 -0.10020021028E+03  0.16120277688E+03  0.12509000000E+03 0.  0.
         25    1    3    3    0    0  0.99011579011E+01 -0.30107488289E+02 -0.55197794688E+03  0.56686123145E+03  0.12509000000E+03 0.  0.
<mgrwt>
<rscale>  2 0.46753162E+03</rscale>
<asrwt>0</asrwt>
<pdfrwt beam="1">  1       21 0.92030837E-02 0.46753162E+03</pdfrwt>
<pdfrwt beam="2">  1       21 0.12841353E+00 0.46753162E+03</pdfrwt>
<totfact> 0.37869740E+04</totfact>
</mgrwt>
</event>
<event>
 7    0  0.4691878E-002  0.4577540E+03  0.7546771E-02  0.1025435E+00
         21   -1    0    0  502  501  0.00000000000E+00  0.00000000000E+00  0.20264621507E+03  0.20264621507E+03  0.00000000000E+00 0. -1.
         21   -1    0    0  501  502 -0.00000000000E+00 -0.00000000000E+00 -0.25850309111E+03  0.25850309111E+03  0.00000000000E+00 0. -1.
      99926    2    1    2    0    0 -0.22204460493E-15  0.00000000000E+00 -0.55856876033E+02  0.46114930618E+03  0.45775396447E+03 0.  0.
      99925    2    3    3    0    0  0.10344464033E+01 -0.97370332141E+02 -0.98261505133E+02  0.29705265073E+03  0.26287430885E+03 0.  0.
         25    1    3    3    0    0 -0.10344464033E+01  0.97370332141E+02  0.42404629101E+02  0.16409665545E+03  0.12509000000E+03 0.  0.
         25    1    4    4    0    0 -0.10392964861E+02 -0.63902237175E+02 -0.89251102641E+02  0.16674764483E+03  0.12509000000E+03 0.  0.
         25    1    4    4    0    0  0.11427411264E+02 -0.33468094966E+02 -0.90104024926E+01  0.13030500590E+03  0.12509000000E+03 0.  0.
<mgrwt>
<rscale>  2 0.45775396E+03</rscale>
<asrwt>0</asrwt>
<pdfrwt beam="1">  1       21 0.29800914E-01 0.45775396E+03</pdfrwt>
<pdfrwt beam="2">  1       21 0.38015160E-01 0.45775396E+03</pdfrwt>
<totfact> 0.66621592E+04</totfact>
</mgrwt>
</event>
<event>
 7    0  0.4691878E-002  0.4533933E+03  0.7546771E-02  0.1026715E+00
         21   -1    0    0  502  501  0.00000000000E+00  0.00000000000E+00  0.86403720638E+03  0.86403720638E+03  0.00000000000E+00 0.  1.
         21   -1    0    0  501  502 -0.00000000000E+00 -0.00000000000E+00 -0.59478196770E+02  0.59478196770E+02  0.00000000000E+00 0.  1.
      99926    2    1    2    0    0  0.00000000000E+00  0.00000000000E+00  0.80455900961E+03  0.92351540315E+03  0.45339331701E+03 0.  0.
      99925    2    3    3    0    0 -0.57679631004E+01  0.10488843205E+03  0.42973372076E+03  0.51464334756E+03  0.26296739695E+03 0.  0.
         25    1    4    4    0    0 -0.13375503278E+02  0.75411174028E+02  0.28779878039E+03  0.32301918727E+03  0.12509000000E+03 0.  0.
         25    1    3    3    0    0  0.57679631004E+01 -0.10488843205E+03  0.37482528885E+03  0.40887205558E+03  0.12509000000E+03 0.  0.
         25    1    4    4    0    0  0.76075401779E+01  0.29477258019E+02  0.14193494037E+03  0.19162416029E+03  0.12509000000E+03 0.  0.
<mgrwt>
<rscale>  2 0.45339332E+03</rscale>
<asrwt>0</asrwt>
<pdfrwt beam="1">  1       21 0.12706429E+00 0.45339332E+03</pdfrwt>
<pdfrwt beam="2">  1       21 0.87467942E-02 0.45339332E+03</pdfrwt>
<totfact> 0.42767289E+04</totfact>
</mgrwt>
</event>
<event>
 7    0  0.4691878E-002  0.4578376E+03  0.7546771E-02  0.1025410E+00
         21   -1    0    0  502  501  0.00000000000E+00  0.00000000000E+00  0.94843066010E+02  0.94843066010E+02  0.00000000000E+00 0.  1.
         21   -1    0    0  501  502 -0.00000000000E+00 -0.00000000000E+00 -0.55253184351E+03  0.55253184351E+03  0.00000000000E+00 0.  1.
      99926    2    1    2    0    0  0.00000000000E+00  0.71054273576E-14 -0.45768877750E+03  0.64737490952E+03  0.45783758739E+03 0.  0.
      99925    2    3    3    0    0  0.10298726393E+03  0.55510540365E+02 -0.28556530000E+03  0.40455440744E+03  0.26158924174E+03 0.  0.
         25    1    4    4    0    0  0.71091041888E+02  0.59786298794E+02 -0.17716991486E+03  0.23593436501E+03  0.12509000000E+03 0.  0.
         25    1    3    3    0    0 -0.10298726393E+03 -0.55510540365E+02 -0.17212347750E+03  0.24282050208E+03  0.12509000000E+03 0.  0.
         25    1    4    4    0    0  0.31896222039E+02 -0.42757584286E+01 -0.10839538514E+03  0.16862004243E+03  0.12509000000E+03 0.  0.
<mgrwt>
<rscale>  2 0.45783759E+03</rscale>
<asrwt>0</asrwt>
<pdfrwt beam="1">  1       21 0.13947509E-01 0.45783759E+03</pdfrwt>
<pdfrwt beam="2">  1       21 0.81254684E-01 0.45783759E+03</pdfrwt>
<totfact> 0.54619830E+04</totfact>
</mgrwt>
</event>
<event>
 7    0  0.4691878E-002  0.4547721E+03  0.7546771E-02  0.1026308E+00
         21   -1    0    0  502  501  0.00000000000E+00  0.00000000000E+00  0.32176982307E+03  0.32176982307E+03  0.00000000000E+00 0.  1.
         21   -1    0    0  501  502 -0.00000000000E+00 -0.00000000000E+00 -0.16068755095E+03  0.16068755095E+03  0.00000000000E+00 0.  1.
      99926    2    1    2    0    0 -0.71054273576E-14  0.35527136788E-14  0.16108227212E+03  0.48245737402E+03  0.45477205208E+03 0.  0.
      99925    2    3    3    0    0  0.35848998415E+02 -0.13594107609E+02 -0.11328484200E+02  0.26602510414E+03  0.26300393729E+03 0.  0.
         25    1    4    4    0    0  0.58483147043E+01 -0.31254821415E+02 -0.35698482849E+02  0.13391398890E+03  0.12509000000E+03 0.  0.
         25    1    3    3    0    0 -0.35848998415E+02  0.13594107609E+02  0.17241075632E+03  0.21643226988E+03  0.12509000000E+03 0.  0.
         25    1    4    4    0    0  0.30000683710E+02  0.17660713806E+02  0.24369998649E+02  0.13211111524E+03  0.12509000000E+03 0.  0.
<mgrwt>
<rscale>  2 0.45477205E+03</rscale>
<asrwt>0</asrwt>
<pdfrwt beam="1">  1       21 0.47319092E-01 0.45477205E+03</pdfrwt>
<pdfrwt beam="2">  1       21 0.23630522E-01 0.45477205E+03</pdfrwt>
<totfact> 0.66642158E+04</totfact>
</mgrwt>
</event>
<event>
 7    0  0.4691878E-002  0.4654116E+03  0.7546771E-02  0.1023223E+00
         21   -1    0    0  502  501  0.00000000000E+00  0.00000000000E+00  0.47226351321E+02  0.47226351321E+02  0.00000000000E+00 0.  1.
         21   -1    0    0  501  502 -0.00000000000E+00 -0.00000000000E+00 -0.11466478742E+04  0.11466478742E+04  0.00000000000E+00 0.  1.
      99926    2    1    2    0    0  0.00000000000E+00 -0.71054273576E-14 -0.10994215229E+04  0.11938742255E+04  0.46541162576E+03 0.  0.
      99925    2    3    3    0    0 -0.40913323758E+02 -0.40771201187E+02 -0.40824149731E+03  0.48909516315E+03  0.26309079723E+03 0.  0.
         25    1    4    4    0    0  0.33144200602E+01 -0.31442909216E+02 -0.14454206328E+03  0.19375127891E+03  0.12509000000E+03 0.  0.
         25    1    3    3    0    0  0.40913323758E+02  0.40771201187E+02 -0.69118002557E+03  0.70477906237E+03  0.12509000000E+03 0.  0.
         25    1    4    4    0    0 -0.44227743818E+02 -0.93282919712E+01 -0.26369943402E+03  0.29534388424E+03  0.12509000000E+03 0.  0.
<mgrwt>
<rscale>  2 0.46541163E+03</rscale>
<asrwt>0</asrwt>
<pdfrwt beam="1">  1       21 0.69450528E-02 0.46541163E+03</pdfrwt>
<pdfrwt beam="2">  1       21 0.16862466E+00 0.46541163E+03</pdfrwt>
<totfact> 0.29854640E+04</totfact>
</mgrwt>
</event>
<event>
 7    0  0.4691878E-002  0.4492442E+03  0.7546771E-02  0.1027948E+00
         21   -1    0    0  502  501  0.00000000000E+00  0.00000000000E+00  0.67697887842E+03  0.67697887842E+03  0.00000000000E+00 0. -1.
         21   -1    0    0  501  502 -0.00000000000E+00 -0.00000000000E+00 -0.74529792101E+02  0.74529792101E+02  0.00000000000E+00 0. -1.
      99926    2    1    2    0    0  0.00000000000E+00  0.14210854715E-13  0.60244908632E+03  0.75150867052E+03  0.44924423231E+03 0.  0.
      99925    2    3    3    0    0 -0.64360890475E+02 -0.76899113152E+02  0.31507961123E+03  0.42244253562E+03  0.26291963917E+03 0.  0.
         25    1    4    4    0    0 -0.15948207430E+02 -0.75038956383E+02  0.17726645541E+03  0.23012191249E+03  0.12509000000E+03 0.  0.
         25    1    3    3    0    0  0.64360890475E+02  0.76899113152E+02  0.28736947509E+03  0.32906613490E+03  0.12509000000E+03 0.  0.
         25    1    4    4    0    0 -0.48412683046E+02 -0.18601567686E+01  0.13781315582E+03  0.19232062313E+03  0.12509000000E+03 0.  0.
<mgrwt>
<rscale>  2 0.44924423E+03</rscale>
<asrwt>0</asrwt>
<pdfrwt beam="1">  1       21 0.99555714E-01 0.44924423E+03</pdfrwt>
<pdfrwt beam="2">  1       21 0.10960264E-01 0.44924423E+03</pdfrwt>
<totfact> 0.52530191E+04</totfact>
</mgrwt>
</event>
<event>
 7    0  0.4691878E-002  0.4653190E+03  0.7546771E-02  0.1023250E+00
         21   -1    0    0  502  501  0.00000000000E+00  0.00000000000E+00  0.11360501532E+03  0.11360501532E+03  0.00000000000E+00 0. -1.
         21   -1    0    0  501  502 -0.00000000000E+00 -0.00000000000E+00 -0.47647930401E+03  0.47647930401E+03  0.00000000000E+00 0. -1.
      99926    2    1    2    0    0  0.71054273576E-14  0.00000000000E+00 -0.36287428869E+03  0.59008431933E+03  0.46531898148E+03 0.  0.
      99925    2    3    3    0    0 -0.46545318158E+02 -0.11373271063E+03 -0.22144242459E+03  0.36480210434E+03  0.26256852784E+03 0.  0.
         25    1    4    4    0    0 -0.33328557812E+02 -0.93561980300E+02 -0.14801417238E+03  0.21776211849E+03  0.12509000000E+03 0.  0.
         25    1    4    4    0    0 -0.13216760346E+02 -0.20170730330E+02 -0.73428252206E+02  0.14703998585E+03  0.12509000000E+03 0.  0.
         25    1    3    3    0    0  0.46545318158E+02  0.11373271063E+03 -0.14143186410E+03  0.22528221499E+03  0.12509000000E+03 0.  0.
<mgrwt>
<rscale>  2 0.46531898E+03</rscale>
<asrwt>0</asrwt>
<pdfrwt beam="1">  1       21 0.16706620E-01 0.46531898E+03</pdfrwt>
<pdfrwt beam="2">  1       21 0.70070485E-01 0.46531898E+03</pdfrwt>
<totfact> 0.54693626E+04</totfact>
</mgrwt>
</event>
<event>
 7    0  0.4691878E-002  0.4570339E+03  0.7546771E-02  0.1025645E+00
         21   -1    0    0  502  501  0.00000000000E+00  0.00000000000E+00  0.29116043340E+03  0.29116043340E+03  0.00000000000E+00 0. -1.
         21   -1    0    0  501  502 -0.00000000000E+00 -0.00000000000E+00 -0.17935129448E+03  0.17935129448E+03  0.00000000000E+00 0. -1.
      99926    2    1    2    0    0  0.00000000000E+00  0.88817841970E-15  0.11180913892E+03  0.47051172788E+03  0.45703391835E+03 0.  0.
      99925    2    3    3    0    0 -0.16464067290E+02 -0.79266695845E+01 -0.46877099403E+02  0.26762573049E+03  0.26285389776E+03 0.  0.
         25    1    4    4    0    0 -0.90105574782E+00  0.16305455978E+01  0.16543482172E+02  0.12619296923E+03  0.12509000000E+03 0.  0.
         25    1    3    3    0    0  0.16464067290E+02  0.79266695845E+01  0.15868623833E+03  0.20288599739E+03  0.12509000000E+03 0.  0.
         25    1    4    4    0    0 -0.15563011542E+02 -0.95572151823E+01 -0.63420581575E+02  0.14143276126E+03  0.12509000000E+03 0.  0.
<mgrwt>
<rscale>  2 0.45703392E+03</rscale>
<asrwt>0</asrwt>
<pdfrwt beam="1">  1       21 0.42817711E-01 0.45703392E+03</pdfrwt>
<pdfrwt beam="2">  1       21 0.26375190E-01 0.45703392E+03</pdfrwt>
<totfact> 0.66321191E+04</totfact>
</mgrwt>
</event>
<event>
 7    0  0.4691878E-002  0.4649160E+03  0.7546771E-02  0.1023365E+00
         21   -1    0    0  502  501  0.00000000000E+00  0.00000000000E+00  0.59718403800E+02  0.59718403800E+02  0.00000000000E+00 0. -1.
         21   -1    0    0  501  502 -0.00000000000E+00 -0.00000000000E+00 -0.90485870600E+03  0.90485870600E+03  0.00000000000E+00 0. -1.
      99926    2    1    2    0    0 -0.35527136788E-14  0.00000000000E+00 -0.84514030220E+03  0.96457710980E+03  0.46491598203E+03 0.  0.
      99925    2    3    3    0    0 -0.25943569394E+02  0.11922480012E+03 -0.51168238482E+03  0.58810757250E+03  0.26299055521E+03 0.  0.
         25    1    4    4    0    0  0.17748685843E+02  0.76499697807E+02 -0.30541716909E+03  0.33925561880E+03  0.12509000000E+03 0.  0.
         25    1    3    3    0    0  0.25943569394E+02 -0.11922480012E+03 -0.33345791738E+03  0.37646953731E+03  0.12509000000E+03 0.  0.
         25    1    4    4    0    0 -0.43692255237E+02  0.42725102317E+02 -0.20626521573E+03  0.24885195369E+03  0.12509000000E+03 0.  0.
<mgrwt>
<rscale>  2 0.46491598E+03</rscale>
<asrwt>0</asrwt>
<pdfrwt beam="1">  1       21 0.87821182E-02 0.46491598E+03</pdfrwt>
<pdfrwt beam="2">  1       21 0.13306746E+00 0.46491598E+03</pdfrwt>
<totfact> 0.37558570E+04</totfact>
</mgrwt>
</event>
<event>
 7    0  0.4691878E-002  0.4621299E+03  0.7546771E-02  0.1024165E+00
         21   -1    0    0  502  501  0.00000000000E+00  0.00000000000E+00  0.23666626265E+03  0.23666626265E+03  0.00000000000E+00 0. -1.
         21   -1    0    0  501  502 -0.00000000000E+00 -0.00000000000E+00 -0.22559621016E+03  0.22559621016E+03  0.00000000000E+00 0. -1.
      99926    2    1    2    0    0  0.00000000000E+00  0.00000000000E+00  0.11070052491E+02  0.46226247281E+03  0.46212990349E+03 0.  0.
      99925    2    3    3    0    0 -0.19131145826E+02  0.77040018375E+02 -0.82769529595E+02  0.28689274783E+03  0.26297431159E+03 0.  0.
         25    1    4    4    0    0 -0.20125273990E+02  0.71446705323E+02 -0.20004879166E+02  0.14682425428E+03  0.12509000000E+03 0.  0.
         25    1    3    3    0    0  0.19131145826E+02 -0.77040018375E+02  0.93839582086E+02  0.17536972498E+03  0.12509000000E+03 0.  0.
         25    1    4    4    0    0  0.99412816425E+00  0.55933130523E+01 -0.62764650429E+02  0.14006849355E+03  0.12509000000E+03 0.  0.
<mgrwt>
<rscale>  2 0.46212990E+03</rscale>
<asrwt>0</asrwt>
<pdfrwt beam="1">  1       21 0.34803862E-01 0.46212990E+03</pdfrwt>
<pdfrwt beam="2">  1       21 0.33175913E-01 0.46212990E+03</pdfrwt>
<totfact> 0.64281509E+04</totfact>
</mgrwt>
</event>
<event>
 7    0  0.4691878E-002  0.4558981E+03  0.7546771E-02  0.1025978E+00
         21   -1    0    0  502  501  0.00000000000E+00  0.00000000000E+00  0.33448771175E+03  0.33448771175E+03  0.00000000000E+00 0.  1.
         21   -1    0    0  501  502 -0.00000000000E+00 -0.00000000000E+00 -0.15534431870E+03  0.15534431870E+03  0.00000000000E+00 0.  1.
      99926    2    1    2    0    0  0.00000000000E+00  0.00000000000E+00  0.17914339305E+03  0.48983203045E+03  0.45589808377E+03 0.  0.
      99925    2    3    3    0    0 -0.99644722909E+02  0.43309954375E+02  0.75603969867E+02  0.29445356898E+03  0.26302494383E+03 0.  0.
         25    1    4    4    0    0 -0.50760646771E+02  0.10333424562E+02 -0.29200919709E+01  0.13542325487E+03  0.12509000000E+03 0.  0.
         25    1    4    4    0    0 -0.48884076138E+02  0.32976529813E+02  0.78524061838E+02  0.15903031411E+03  0.12509000000E+03 0.  0.
         25    1    3    3    0    0  0.99644722909E+02 -0.43309954375E+02  0.10353942319E+03  0.19537846147E+03  0.12509000000E+03 0.  0.
<mgrwt>
<rscale>  2 0.45589808E+03</rscale>
<asrwt>0</asrwt>
<pdfrwt beam="1">  1       21 0.49189370E-01 0.45589808E+03</pdfrwt>
<pdfrwt beam="2">  1       21 0.22844753E-01 0.45589808E+03</pdfrwt>
<totfact> 0.65522667E+04</totfact>
</mgrwt>
</event>
<event>
 7    0  0.4691878E-002  0.4640687E+03  0.7546771E-02  0.1023608E+00
         21   -1    0    0  502  501  0.00000000000E+00  0.00000000000E+00  0.27582507664E+02  0.27582507664E+02  0.00000000000E+00 0.  1.
         21   -1    0    0  501  502 -0.00000000000E+00 -0.00000000000E+00 -0.19519599138E+04  0.19519599138E+04  0.00000000000E+00 0.  1.
      99926    2    1    2    0    0  0.00000000000E+00  0.00000000000E+00 -0.19243774062E+04  0.19795424215E+04  0.46406874182E+03 0.  0.
      99925    2    3    3    0    0 -0.11522773294E+03 -0.37800956474E+02 -0.12281551340E+04  0.12618521659E+04  0.26305800203E+03 0.  0.
         25    1    4    4    0    0 -0.30613863125E+02  0.15062746811E+02 -0.54852250118E+03  0.56363865850E+03  0.12509000000E+03 0.  0.
         25    1    4    4    0    0 -0.84613869813E+02 -0.52863703285E+02 -0.67963263287E+03  0.69821350735E+03  0.12509000000E+03 0.  0.
         25    1    3    3    0    0  0.11522773294E+03  0.37800956474E+02 -0.69622227211E+03  0.71769025563E+03  0.12509000000E+03 0.  0.
<mgrwt>
<rscale>  2 0.46406874E+03</rscale>
<asrwt>0</asrwt>
<pdfrwt beam="1">  1       21 0.40562504E-02 0.46406874E+03</pdfrwt>
<pdfrwt beam="2">  1       21 0.28705298E+00 0.46406874E+03</pdfrwt>
<totfact> 0.13100070E+04</totfact>
</mgrwt>
</event>
<event>
 7    0  0.4691878E-002  0.4608922E+03  0.7546771E-02  0.1024523E+00
         21   -1    0    0  502  501  0.00000000000E+00  0.00000000000E+00  0.94666603761E+02  0.94666603761E+02  0.00000000000E+00 0.  1.
         21   -1    0    0  501  502 -0.00000000000E+00 -0.00000000000E+00 -0.56097286927E+03  0.56097286927E+03  0.00000000000E+00 0.  1.
      99926    2    1    2    0    0  0.35527136788E-14  0.71054273576E-14 -0.46630626551E+03  0.65563947303E+03  0.46089216238E+03 0.  0.
      99925    2    3    3    0    0  0.23384966374E+02  0.54967063196E+02 -0.14581731058E+03  0.30645626464E+03  0.26283934139E+03 0.  0.
         25    1    4    4    0    0 -0.57160215745E+01  0.50495483438E+02 -0.42449439360E+02  0.14153419994E+03  0.12509000000E+03 0.  0.
         25    1    4    4    0    0  0.29100987948E+02  0.44715797578E+01 -0.10336787122E+03  0.16492206470E+03  0.12509000000E+03 0.  0.
         25    1    3    3    0    0 -0.23384966374E+02 -0.54967063196E+02 -0.32048895493E+03  0.34918320839E+03  0.12509000000E+03 0.  0.
<mgrwt>
<rscale>  2 0.46089216E+03</rscale>
<asrwt>0</asrwt>
<pdfrwt beam="1">  1       21 0.13921560E-01 0.46089216E+03</pdfrwt>
<pdfrwt beam="2">  1       21 0.82496007E-01 0.46089216E+03</pdfrwt>
<totfact> 0.52877028E+04</totfact>
</mgrwt>
</event>
<event>
 7    0  0.4691878E-002  0.4555283E+03  0.7546771E-02  0.1026086E+00
         21   -1    0    0  502  501  0.00000000000E+00  0.00000000000E+00  0.61678577905E+02  0.61678577905E+02  0.00000000000E+00 0.  1.
         21   -1    0    0  501  502 -0.00000000000E+00 -0.00000000000E+00 -0.84107813345E+03  0.84107813345E+03  0.00000000000E+00 0.  1.
      99926    2    1    2    0    0  0.35527136788E-14 -0.14210854715E-13 -0.77939955555E+03  0.90275671136E+03  0.45552827872E+03 0.  0.
      99925    2    3    3    0    0 -0.31525013756E+02 -0.10366008467E+03 -0.42283528852E+03  0.50966025467E+03  0.26310578541E+03 0.  0.
         25    1    4    4    0    0  0.20768872275E+02 -0.32290795455E+02 -0.20948690493E+03  0.24699456059E+03  0.12509000000E+03 0.  0.
         25    1    4    4    0    0 -0.52293886030E+02 -0.71369289212E+02 -0.21334838360E+03  0.26266569407E+03  0.12509000000E+03 0.  0.
         25    1    3    3    0    0  0.31525013756E+02  0.10366008467E+03 -0.35656426702E+03  0.39309645669E+03  0.12509000000E+03 0.  0.
<mgrwt>
<rscale>  2 0.45552828E+03</rscale>
<asrwt>0</asrwt>
<pdfrwt beam="1">  1       21 0.90703794E-02 0.45552828E+03</pdfrwt>
<pdfrwt beam="2">  1       21 0.12368796E+00 0.45552828E+03</pdfrwt>
<totfact> 0.42936859E+04</totfact>
</mgrwt>
</event>
<event>
 7    0  0.4691878E-002  0.4241617E+03  0.7546771E-02  0.1035720E+00
         21   -1    0    0  502  501  0.00000000000E+00  0.00000000000E+00  0.36127231140E+03  0.36127231140E+03  0.00000000000E+00 0. -1.
         21   -1    0    0  501  502 -0.00000000000E+00 -0.00000000000E+00 -0.12449969904E+03  0.12449969904E+03  0.00000000000E+00 0. -1.
      99926    2    1    2    0    0  0.00000000000E+00 -0.71054273576E-14  0.23677261236E+03  0.48577201044E+03  0.42416173349E+03 0.  0.
      99925    2    3    3    0    0 -0.70553389118E+02  0.36615932917E+02  0.13646875336E+03  0.30681145755E+03  0.26304190271E+03 0.  0.
         25    1    3    3    0    0  0.70553389118E+02 -0.36615932917E+02  0.10030385900E+03  0.17896055289E+03  0.12509000000E+03 0.  0.
         25    1    4    4    0    0 -0.32261478762E+02 -0.18430209428E+02  0.45333220301E+02  0.13814153827E+03  0.12509000000E+03 0.  0.
         25    1    4    4    0    0 -0.38291910356E+02  0.55046142346E+02  0.91135533056E+02  0.16866991928E+03  0.12509000000E+03 0.  0.
<mgrwt>
<rscale>  2 0.42416173E+03</rscale>
<asrwt>0</asrwt>
<pdfrwt beam="1">  1       21 0.53128281E-01 0.42416173E+03</pdfrwt>
<pdfrwt beam="2">  1       21 0.18308779E-01 0.42416173E+03</pdfrwt>
<totfact> 0.85330280E+04</totfact>
</mgrwt>
</event>
<event>
 7    0  0.4691878E-002  0.4634762E+03  0.7546771E-02  0.1023778E+00
         21   -1    0    0  502  501  0.00000000000E+00  0.00000000000E+00  0.26479407904E+03  0.26479407904E+03  0.00000000000E+00 0. -1.
         21   -1    0    0  501  502 -0.00000000000E+00 -0.00000000000E+00 -0.20280872828E+03  0.20280872828E+03  0.00000000000E+00 0. -1.
      99926    2    1    2    0    0  0.00000000000E+00 -0.14210854715E-13  0.61985350760E+02  0.46760280732E+03  0.46347621482E+03 0.  0.
      99925    2    3    3    0    0 -0.97892135758E+01 -0.11162712216E+03 -0.71415088872E+01  0.28599203140E+03  0.26302851133E+03 0.  0.
         25    1    3    3    0    0  0.97892135758E+01  0.11162712216E+03  0.69126859647E+02  0.18161077592E+03  0.12509000000E+03 0.  0.
         25    1    4    4    0    0 -0.60449824017E+01 -0.11765052967E+02 -0.42918446274E+01  0.12586058284E+03  0.12509000000E+03 0.  0.
         25    1    4    4    0    0 -0.37442311741E+01 -0.99862069194E+02 -0.28496642597E+01  0.16013144856E+03  0.12509000000E+03 0.  0.
<mgrwt>
<rscale>  2 0.46347621E+03</rscale>
<asrwt>0</asrwt>
<pdfrwt beam="1">  1       21 0.38940305E-01 0.46347621E+03</pdfrwt>
<pdfrwt beam="2">  1       21 0.29824813E-01 0.46347621E+03</pdfrwt>
<totfact> 0.63245493E+04</totfact>
</mgrwt>
</event>
<event>
 7    0  0.4691878E-002  0.4538359E+03  0.7546771E-02  0.1026584E+00
         21   -1    0    0  502  501  0.00000000000E+00  0.00000000000E+00  0.35817944762E+03  0.35817944762E+03  0.00000000000E+00 0. -1.
         21   -1    0    0  501  502 -0.00000000000E+00 -0.00000000000E+00 -0.14375968164E+03  0.14375968164E+03  0.00000000000E+00 0. -1.
      99926    2    1    2    0    0  0.14210854715E-13  0.35527136788E-14  0.21441976598E+03  0.50193912927E+03  0.45383593230E+03 0.  0.
      99925    2    3    3    0    0  0.10825753319E+03  0.20435154900E+02  0.11280119671E+03  0.30671840606E+03  0.26308702284E+03 0.  0.
         25    1    3    3    0    0 -0.10825753319E+03 -0.20435154900E+02  0.10161856927E+03  0.19522072321E+03  0.12509000000E+03 0.  0.
         25    1    4    4    0    0  0.96143387433E+02  0.11796969797E+02  0.75762979761E+02  0.17541452803E+03  0.12509000000E+03 0.  0.
         25    1    4    4    0    0  0.12114145760E+02  0.86381851029E+01  0.37038216945E+02  0.13130387802E+03  0.12509000000E+03 0.  0.
<mgrwt>
<rscale>  2 0.45383593E+03</rscale>
<asrwt>0</asrwt>
<pdfrwt beam="1">  1       21 0.52673448E-01 0.45383593E+03</pdfrwt>
<pdfrwt beam="2">  1       21 0.21141130E-01 0.45383593E+03</pdfrwt>
<totfact> 0.65739987E+04</totfact>
</mgrwt>
</event>
<event>
 7    0  0.4691878E-002  0.4583325E+03  0.7546771E-02  0.1025266E+00
         21   -1    0    0  502  501  0.00000000000E+00  0.00000000000E+00  0.36566539448E+02  0.36566539448E+02  0.00000000000E+00 0.  1.
         21   -1    0    0  501  502 -0.00000000000E+00 -0.00000000000E+00 -0.14362082443E+04  0.14362082443E+04  0.00000000000E+00 0.  1.
      99926    2    1    2    0    0  0.00000000000E+00  0.71054273576E-14 -0.13996417048E+04  0.14727747837E+04  0.45833247941E+03 0.  0.
      99925    2    3    3    0    0  0.10326500680E+03 -0.47631856761E+02 -0.95554927216E+03  0.99759265836E+03  0.26302898147E+03 0.  0.
         25    1    4    4    0    0  0.34509095832E+02 -0.77371785420E+01 -0.32895373625E+03  0.35370723815E+03  0.12509000000E+03 0.  0.
         25    1    4    4    0    0  0.68755910966E+02 -0.39894678219E+02 -0.62659553591E+03  0.64388542021E+03  0.12509000000E+03 0.  0.
         25    1    3    3    0    0 -0.10326500680E+03  0.47631856761E+02 -0.44409243268E+03  0.47518212537E+03  0.12509000000E+03 0.  0.
<mgrwt>
<rscale>  2 0.45833248E+03</rscale>
<asrwt>0</asrwt>
<pdfrwt beam="1">  1       21 0.53774327E-02 0.45833248E+03</pdfrwt>
<pdfrwt beam="2">  1       21 0.21120708E+00 0.45833248E+03</pdfrwt>
<totfact> 0.23831407E+04</totfact>
</mgrwt>
</event>
<event>
 7    0  0.4691878E-002  0.4526800E+03  0.7546771E-02  0.1026926E+00
         21   -1    0    0  502  501  0.00000000000E+00  0.00000000000E+00  0.50012645394E+02  0.50012645394E+02  0.00000000000E+00 0. -1.
         21   -1    0    0  501  502 -0.00000000000E+00 -0.00000000000E+00 -0.10243367982E+04  0.10243367982E+04  0.00000000000E+00 0. -1.
      99926    2    1    2    0    0  0.00000000000E+00  0.00000000000E+00 -0.97432415279E+03  0.10743494436E+04  0.45267998874E+03 0.  0.
      99925    2    3    3    0    0 -0.86277320832E+02  0.58149166660E+02 -0.70574606831E+03  0.76033225100E+03  0.26306371338E+03 0.  0.
         25    1    4    4    0    0 -0.58468730715E+02  0.67183294618E+02 -0.35435543078E+03  0.38619615090E+03  0.12509000000E+03 0.  0.
         25    1    4    4    0    0 -0.27808590117E+02 -0.90341279582E+01 -0.35139063753E+03  0.37413610009E+03  0.12509000000E+03 0.  0.
         25    1    3    3    0    0  0.86277320832E+02 -0.58149166660E+02 -0.26857808448E+03  0.31401719258E+03  0.12509000000E+03 0.  0.
<mgrwt>
<rscale>  2 0.45267999E+03</rscale>
<asrwt>0</asrwt>
<pdfrwt beam="1">  1       21 0.73548012E-02 0.45267999E+03</pdfrwt>
<pdfrwt beam="2">  1       21 0.15063776E+00 0.45267999E+03</pdfrwt>
<totfact> 0.37062869E+04</totfact>
</mgrwt>
</event>
<event>
 7    0  0.4691878E-002  0.4568434E+03  0.7546771E-02  0.1025701E+00
         21   -1    0    0  502  501  0.00000000000E+00  0.00000000000E+00  0.83351189627E+03  0.83351189627E+03  0.00000000000E+00 0. -1.
         21   -1    0    0  501  502 -0.00000000000E+00 -0.00000000000E+00 -0.62598354839E+02  0.62598354839E+02  0.00000000000E+00 0. -1.
      99926    2    1    2    0    0  0.14210854715E-13  0.00000000000E+00  0.77091354143E+03  0.89611025111E+03  0.45684340181E+03 0.  0.
      99925    2    3    3    0    0  0.10068905604E+03  0.22753195871E+02  0.58325203425E+03  0.64807730308E+03  0.26299289228E+03 0.  0.
         25    1    3    3    0    0 -0.10068905604E+03 -0.22753195871E+02  0.18766150719E+03  0.24803294803E+03  0.12509000000E+03 0.  0.
         25    1    4    4    0    0  0.84555767484E+02  0.18921658639E+02  0.37330922102E+03  0.40313147927E+03  0.12509000000E+03 0.  0.
         25    1    4    4    0    0  0.16133288553E+02  0.38315372319E+01  0.20994281322E+03  0.24494582381E+03  0.12509000000E+03 0.  0.
<mgrwt>
<rscale>  2 0.45684340E+03</rscale>
<asrwt>0</asrwt>
<pdfrwt beam="1">  1       21 0.12257527E+00 0.45684340E+03</pdfrwt>
<pdfrwt beam="2">  1       21 0.92056410E-02 0.45684340E+03</pdfrwt>
<totfact> 0.42781445E+04</totfact>
</mgrwt>
</event>
<event>
 7    0  0.4691878E-002  0.4563074E+03  0.7546771E-02  0.1025858E+00
         21   -1    0    0  502  501  0.00000000000E+00  0.00000000000E+00  0.35807024526E+03  0.35807024526E+03  0.00000000000E+00 0. -1.
         21   -1    0    0  501  502 -0.00000000000E+00 -0.00000000000E+00 -0.14537401833E+03  0.14537401833E+03  0.00000000000E+00 0. -1.
      99926    2    1    2    0    0  0.00000000000E+00  0.00000000000E+00  0.21269622692E+03  0.50344426359E+03  0.45630739814E+03 0.  0.
      99925    2    3    3    0    0  0.32138410427E+02  0.10823305542E+03  0.11336023305E+03  0.30783644297E+03  0.26299327267E+03 0.  0.
         25    1    3    3    0    0 -0.32138410427E+02 -0.10823305542E+03  0.99335993878E+02  0.19560782063E+03  0.12509000000E+03 0.  0.
         25    1    4    4    0    0  0.26636986758E+01  0.46055093387E+02  0.95406094318E+02  0.16394510621E+03  0.12509000000E+03 0.  0.
         25    1    4    4    0    0  0.29474711752E+02  0.62177962033E+02  0.17954138728E+02  0.14389133675E+03  0.12509000000E+03 0.  0.
<mgrwt>
<rscale>  2 0.45630740E+03</rscale>
<asrwt>0</asrwt>
<pdfrwt beam="1">  1       21 0.52657389E-01 0.45630740E+03</pdfrwt>
<pdfrwt beam="2">  1       21 0.21378532E-01 0.45630740E+03</pdfrwt>
<totfact> 0.64358869E+04</totfact>
</mgrwt>
</event>
<event>
 7    0  0.4691878E-002  0.4613098E+03  0.7546771E-02  0.1024402E+00
         21   -1    0    0  502  501  0.00000000000E+00  0.00000000000E+00  0.76999251182E+02  0.76999251182E+02  0.00000000000E+00 0.  1.
         21   -1    0    0  501  502 -0.00000000000E+00 -0.00000000000E+00 -0.69093753926E+03  0.69093753926E+03  0.00000000000E+00 0.  1.
      99926    2    1    2    0    0  0.35527136788E-14  0.00000000000E+00 -0.61393828808E+03  0.76793679045E+03  0.46130975770E+03 0.  0.
      99925    2    3    3    0    0  0.29900231181E+02  0.11201445696E+03 -0.33944256134E+03  0.44477015465E+03  0.26297904028E+03 0.  0.
         25    1    4    4    0    0 -0.12927531549E+02  0.74813204988E+02 -0.21060627762E+03  0.25645009063E+03  0.12509000000E+03 0.  0.
         25    1    3    3    0    0 -0.29900231181E+02 -0.11201445696E+03 -0.27449572674E+03  0.32316663579E+03  0.12509000000E+03 0.  0.
         25    1    4    4    0    0  0.42827762730E+02  0.37201251973E+02 -0.12883628373E+03  0.18832006402E+03  0.12509000000E+03 0.  0.
<mgrwt>
<rscale>  2 0.46130976E+03</rscale>
<asrwt>0</asrwt>
<pdfrwt beam="1">  1       21 0.11323420E-01 0.46130976E+03</pdfrwt>
<pdfrwt beam="2">  1       21 0.10160846E+00 0.46130976E+03</pdfrwt>
<totfact> 0.46983807E+04</totfact>
</mgrwt>
</event>
<event>
 7    0  0.4691878E-002  0.4496447E+03  0.7546771E-02  0.1027828E+00
         21   -1    0    0  502  501  0.00000000000E+00  0.00000000000E+00  0.69301123573E+03  0.69301123573E+03  0.00000000000E+00 0. -1.
         21   -1    0    0  501  502 -0.00000000000E+00 -0.00000000000E+00 -0.72935446069E+02  0.72935446069E+02  0.00000000000E+00 0. -1.
      99926    2    1    2    0    0  0.00000000000E+00  0.17763568394E-14  0.62007578966E+03  0.76594668180E+03  0.44964467576E+03 0.  0.
      99925    2    3    3    0    0  0.67511130224E+02  0.67307955415E+01  0.24884709913E+03  0.36837743615E+03  0.26300950631E+03 0.  0.
         25    1    4    4    0    0  0.26127285589E+02 -0.23868926003E+02  0.16167147841E+03  0.20745490043E+03  0.12509000000E+03 0.  0.
         25    1    3    3    0    0 -0.67511130224E+02 -0.67307955415E+01  0.37122869053E+03  0.39756924564E+03  0.12509000000E+03 0.  0.
         25    1    4    4    0    0  0.41383844635E+02  0.30599721545E+02  0.87175620724E+02  0.16092253572E+03  0.12509000000E+03 0.  0.
<mgrwt>
<rscale>  2 0.44964468E+03</rscale>
<asrwt>0</asrwt>
<pdfrwt beam="1">  1       21 0.10191341E+00 0.44964468E+03</pdfrwt>
<pdfrwt beam="2">  1       21 0.10725801E-01 0.44964468E+03</pdfrwt>
<totfact> 0.51590940E+04</totfact>
</mgrwt>
</event>
<event>
 7    0  0.4691878E-002  0.4859381E+03  0.7546771E-02  0.1017516E+00
         21   -1    0    0  502  501  0.00000000000E+00  0.00000000000E+00  0.16292058093E+03  0.16292058093E+03  0.00000000000E+00 0. -1.
         21   -1    0    0  501  502 -0.00000000000E+00 -0.00000000000E+00 -0.36234801104E+03  0.36234801104E+03  0.00000000000E+00 0. -1.
      99926    2    1    2    0    0  0.00000000000E+00  0.00000000000E+00 -0.19942743011E+03  0.52526859197E+03  0.48593805555E+03 0.  0.
      99925    2    3    3    0    0 -0.22178144416E+02 -0.99746068162E+02 -0.22578232711E+03  0.36161274301E+03  0.26333432832E+03 0.  0.
         25    1    4    4    0    0 -0.48149859276E+01 -0.76305044392E+02 -0.78894009571E+02  0.16648548506E+03  0.12509000000E+03 0.  0.
         25    1    3    3    0    0  0.22178144416E+02  0.99746068162E+02  0.26354897000E+02  0.16365584896E+03  0.12509000000E+03 0.  0.
         25    1    4    4    0    0 -0.17363158488E+02 -0.23441023770E+02 -0.14688831753E+03  0.19512725795E+03  0.12509000000E+03 0.  0.
<mgrwt>
<rscale>  2 0.48593806E+03</rscale>
<asrwt>0</asrwt>
<pdfrwt beam="1">  1       21 0.23958909E-01 0.48593806E+03</pdfrwt>
<pdfrwt beam="2">  1       21 0.53286472E-01 0.48593806E+03</pdfrwt>
<totfact> 0.50061327E+04</totfact>
</mgrwt>
</event>
<event>
 7    0  0.4691878E-002  0.4552086E+03  0.7546771E-02  0.1026180E+00
         21   -1    0    0  502  501  0.00000000000E+00  0.00000000000E+00  0.11062217590E+03  0.11062217590E+03  0.00000000000E+00 0.  1.
         21   -1    0    0  501  502 -0.00000000000E+00 -0.00000000000E+00 -0.46829406971E+03  0.46829406971E+03  0.00000000000E+00 0.  1.
      99926    2    1    2    0    0  0.00000000000E+00  0.00000000000E+00 -0.35767189381E+03  0.57891624561E+03  0.45520856298E+03 0.  0.
      99925    2    3    3    0    0 -0.32619899214E+02 -0.96184198478E+02 -0.16074060238E+03  0.32446605499E+03  0.26291675817E+03 0.  0.
         25    1    4    4    0    0  0.73254481558E+01 -0.79278009647E+02 -0.99672607470E+02  0.17866393532E+03  0.12509000000E+03 0.  0.
         25    1    3    3    0    0  0.32619899214E+02  0.96184198478E+02 -0.19693129143E+03  0.25445019062E+03  0.12509000000E+03 0.  0.
         25    1    4    4    0    0 -0.39945347370E+02 -0.16906188831E+02 -0.61067994906E+02  0.14580211967E+03  0.12509000000E+03 0.  0.
<mgrwt>
<rscale>  2 0.45520856E+03</rscale>
<asrwt>0</asrwt>
<pdfrwt beam="1">  1       21 0.16267967E-01 0.45520856E+03</pdfrwt>
<pdfrwt beam="2">  1       21 0.68866774E-01 0.45520856E+03</pdfrwt>
<totfact> 0.59896341E+04</totfact>
</mgrwt>
</event>
<event>
 7    0  0.4691878E-002  0.4592752E+03  0.7546771E-02  0.1024992E+00
         21   -1    0    0  502  501  0.00000000000E+00  0.00000000000E+00  0.34524246409E+03  0.34524246409E+03  0.00000000000E+00 0.  1.
         21   -1    0    0  501  502 -0.00000000000E+00 -0.00000000000E+00 -0.15274314696E+03  0.15274314696E+03  0.00000000000E+00 0.  1.
      99926    2    1    2    0    0  0.00000000000E+00  0.00000000000E+00  0.19249931713E+03  0.49798561105E+03  0.45927516993E+03 0.  0.
      99925    2    3    3    0    0 -0.49907255898E+02 -0.91170817189E+02  0.17694078143E+03  0.33460743554E+03  0.26429385859E+03 0.  0.
         25    1    3    3    0    0  0.49907255898E+02  0.91170817189E+02  0.15558535696E+02  0.16337817550E+03  0.12509000000E+03 0.  0.
         25    1    4    4    0    0 -0.32472116363E+02 -0.19101093109E+01  0.76387873699E+02  0.15013561272E+03  0.12509000000E+03 0.  0.
         25    1    4    4    0    0 -0.17435139535E+02 -0.89260707878E+02  0.10055290774E+03  0.18447182282E+03  0.12509000000E+03 0.  0.
<mgrwt>
<rscale>  2 0.45927517E+03</rscale>
<asrwt>0</asrwt>
<pdfrwt beam="1">  1       21 0.50770951E-01 0.45927517E+03</pdfrwt>
<pdfrwt beam="2">  1       21 0.22462228E-01 0.45927517E+03</pdfrwt>
<totfact> 0.63238782E+04</totfact>
</mgrwt>
</event>
<event>
 7    0  0.4691878E-002  0.4586842E+03  0.7546771E-02  0.1025164E+00
         21   -1    0    0  502  501  0.00000000000E+00  0.00000000000E+00  0.21056470959E+03  0.21056470959E+03  0.00000000000E+00 0.  1.
         21   -1    0    0  501  502 -0.00000000000E+00 -0.00000000000E+00 -0.24979396932E+03  0.24979396932E+03  0.00000000000E+00 0.  1.
      99926    2    1    2    0    0  0.00000000000E+00  0.00000000000E+00 -0.39229259736E+02  0.46035867891E+03  0.45868418158E+03 0.  0.
      99925    2    3    3    0    0  0.10938432485E+03 -0.31232618131E+02 -0.50502035781E+02  0.29090369805E+03  0.26293363985E+03 0.  0.
         25    1    4    4    0    0  0.28907620632E+02  0.16953764592E+02 -0.13266805370E+02  0.13017909544E+03  0.12509000000E+03 0.  0.
         25    1    4    4    0    0  0.80476704218E+02 -0.48186382723E+02 -0.37235230411E+02  0.16072460261E+03  0.12509000000E+03 0.  0.
         25    1    3    3    0    0 -0.10938432485E+03  0.31232618131E+02  0.11272776045E+02  0.16945498086E+03  0.12509000000E+03 0.  0.
<mgrwt>
<rscale>  2 0.45868418E+03</rscale>
<asrwt>0</asrwt>
<pdfrwt beam="1">  1       21 0.30965399E-01 0.45868418E+03</pdfrwt>
<pdfrwt beam="2">  1       21 0.36734407E-01 0.45868418E+03</pdfrwt>
<totfact> 0.66187928E+04</totfact>
</mgrwt>
</event>
<event>
 7    0  0.4691878E-002  0.4561390E+03  0.7546771E-02  0.1025907E+00
         21   -1    0    0  502  501  0.00000000000E+00  0.00000000000E+00  0.11156131199E+03  0.11156131199E+03  0.00000000000E+00 0. -1.
         21   -1    0    0  501  502 -0.00000000000E+00 -0.00000000000E+00 -0.46625212900E+03  0.46625212900E+03  0.00000000000E+00 0. -1.
      99926    2    1    2    0    0  0.00000000000E+00 -0.35527136788E-14 -0.35469081700E+03  0.57781344099E+03  0.45613901053E+03 0.  0.
      99925    2    3    3    0    0 -0.65310330327E+02  0.29007562156E+02 -0.11110257593E+03  0.29481235054E+03  0.26355959808E+03 0.  0.
         25    1    3    3    0    0  0.65310330327E+02 -0.29007562156E+02 -0.24358824107E+03  0.28300109045E+03  0.12509000000E+03 0.  0.
         25    1    4    4    0    0 -0.18209809015E+02  0.47071481141E+02 -0.78431600931E+02  0.15603315547E+03  0.12509000000E+03 0.  0.
         25    1    4    4    0    0 -0.47100521312E+02 -0.18063918985E+02 -0.32670975003E+02  0.13877919507E+03  0.12509000000E+03 0.  0.
<mgrwt>
<rscale>  2 0.45613901E+03</rscale>
<asrwt>0</asrwt>
<pdfrwt beam="1">  1       21 0.16406076E-01 0.45613901E+03</pdfrwt>
<pdfrwt beam="2">  1       21 0.68566488E-01 0.45613901E+03</pdfrwt>
<totfact> 0.59527250E+04</totfact>
</mgrwt>
</event>
<event>
 7    0  0.4691878E-002  0.4591503E+03  0.7546771E-02  0.1025028E+00
         21   -1    0    0  502  501  0.00000000000E+00  0.00000000000E+00  0.88595961408E+02  0.88595961408E+02  0.00000000000E+00 0. -1.
         21   -1    0    0  501  502 -0.00000000000E+00 -0.00000000000E+00 -0.59488875426E+03  0.59488875426E+03  0.00000000000E+00 0. -1.
      99926    2    1    2    0    0  0.00000000000E+00  0.00000000000E+00 -0.50629279285E+03  0.68348471566E+03  0.45915026348E+03 0.  0.
      99925    2    3    3    0    0  0.92255366009E+02  0.65393123369E+02 -0.27274002467E+03  0.39541924261E+03  0.26302460575E+03 0.  0.
         25    1    4    4    0    0  0.65758504983E+02  0.75387224476E+01 -0.17158867786E+03  0.22242121253E+03  0.12509000000E+03 0.  0.
         25    1    4    4    0    0  0.26496861026E+02  0.57854400922E+02 -0.10115134681E+03  0.17299803008E+03  0.12509000000E+03 0.  0.
         25    1    3    3    0    0 -0.92255366009E+02 -0.65393123369E+02 -0.23355276818E+03  0.28806547306E+03  0.12509000000E+03 0.  0.
<mgrwt>
<rscale>  2 0.45915026E+03</rscale>
<asrwt>0</asrwt>
<pdfrwt beam="1">  1       21 0.13028818E-01 0.45915026E+03</pdfrwt>
<pdfrwt beam="2">  1       21 0.87483639E-01 0.45915026E+03</pdfrwt>
<totfact> 0.52085536E+04</totfact>
</mgrwt>
</event>
<event>
 7    0  0.4691878E-002  0.4576263E+03  0.7546771E-02  0.1025472E+00
         21   -1    0    0  502  501  0.00000000000E+00  0.00000000000E+00  0.12284459633E+04  0.12284459633E+04  0.00000000000E+00 0.  1.
         21   -1    0    0  501  502 -0.00000000000E+00 -0.00000000000E+00 -0.42619256665E+02  0.42619256665E+02  0.00000000000E+00 0.  1.
      99926    2    1    2    0    0  0.00000000000E+00  0.00000000000E+00  0.11858267066E+04  0.12710652200E+04  0.45762628338E+03 0.  0.
      99925    2    3    3    0    0 -0.58089681981E+02  0.75706060162E+02  0.92570967884E+03  0.96706818882E+03  0.26301455022E+03 0.  0.
         25    1    3    3    0    0  0.58089681981E+02 -0.75706060162E+02  0.26011702781E+03  0.30399703116E+03  0.12509000000E+03 0.  0.
         25    1    4    4    0    0 -0.35018218255E+02  0.55817413982E+02  0.60887835449E+03  0.62507776955E+03  0.12509000000E+03 0.  0.
         25    1    4    4    0    0 -0.23071463726E+02  0.19888646180E+02  0.31683132434E+03  0.34199041927E+03  0.12509000000E+03 0.  0.
<mgrwt>
<rscale>  2 0.45762628E+03</rscale>
<asrwt>0</asrwt>
<pdfrwt beam="1">  1       21 0.18065379E+00 0.45762628E+03</pdfrwt>
<pdfrwt beam="2">  1       21 0.62675385E-02 0.45762628E+03</pdfrwt>
<totfact> 0.29361992E+04</totfact>
</mgrwt>
</event>
<event>
 7    0  0.4691878E-002  0.4617383E+03  0.7546771E-02  0.1024278E+00
         21   -1    0    0  502  501  0.00000000000E+00  0.00000000000E+00  0.49357826946E+02  0.49357826946E+02  0.00000000000E+00 0.  1.
         21   -1    0    0  501  502 -0.00000000000E+00 -0.00000000000E+00 -0.10798808812E+04  0.10798808812E+04  0.00000000000E+00 0.  1.
      99926    2    1    2    0    0  0.00000000000E+00  0.00000000000E+00 -0.10305230542E+04  0.11292387081E+04  0.46173833999E+03 0.  0.
      99925    2    3    3    0    0  0.69242761702E+02 -0.93122092845E+02 -0.57190240360E+03  0.63990580149E+03  0.26256578474E+03 0.  0.
         25    1    4    4    0    0 -0.59489535313E+01 -0.44979670015E+02 -0.28043726915E+03  0.31040478538E+03  0.12509000000E+03 0.  0.
         25    1    3    3    0    0 -0.69242761702E+02  0.93122092845E+02 -0.45862065063E+03  0.48933290663E+03  0.12509000000E+03 0.  0.
         25    1    4    4    0    0  0.75191715233E+02 -0.48142422830E+02 -0.29146513445E+03  0.32950101611E+03  0.12509000000E+03 0.  0.
<mgrwt>
<rscale>  2 0.46173834E+03</rscale>
<asrwt>0</asrwt>
<pdfrwt beam="1">  1       21 0.72585040E-02 0.46173834E+03</pdfrwt>
<pdfrwt beam="2">  1       21 0.15880601E+00 0.46173834E+03</pdfrwt>
<totfact> 0.32729824E+04</totfact>
</mgrwt>
</event>
<event>
 7    0  0.4691878E-002  0.4507318E+03  0.7546771E-02  0.1027504E+00
         21   -1    0    0  502  501  0.00000000000E+00  0.00000000000E+00  0.20106299239E+03  0.20106299239E+03  0.00000000000E+00 0.  1.
         21   -1    0    0  501  502 -0.00000000000E+00 -0.00000000000E+00 -0.25260636468E+03  0.25260636468E+03  0.00000000000E+00 0.  1.
      99926    2    1    2    0    0  0.00000000000E+00  0.00000000000E+00 -0.51543372286E+02  0.45366935707E+03  0.45073181196E+03 0.  0.
      99925    2    3    3    0    0 -0.48156835609E+02 -0.67697743962E+02 -0.10403322231E+03  0.29459466452E+03  0.26279467207E+03 0.  0.
         25    1    4    4    0    0 -0.27506858870E+02 -0.14833975233E+02 -0.12523601713E+02  0.12954158717E+03  0.12509000000E+03 0.  0.
         25    1    3    3    0    0  0.48156835609E+02  0.67697743962E+02  0.52489850019E+02  0.15907469255E+03  0.12509000000E+03 0.  0.
         25    1    4    4    0    0 -0.20649976739E+02 -0.52863768728E+02 -0.91509620593E+02  0.16505307736E+03  0.12509000000E+03 0.  0.
<mgrwt>
<rscale>  2 0.45073181E+03</rscale>
<asrwt>0</asrwt>
<pdfrwt beam="1">  1       21 0.29568087E-01 0.45073181E+03</pdfrwt>
<pdfrwt beam="2">  1       21 0.37147994E-01 0.45073181E+03</pdfrwt>
<totfact> 0.71031531E+04</totfact>
</mgrwt>
</event>
<event>
 7    0  0.4691878E-002  0.4561947E+03  0.7546771E-02  0.1025891E+00
         21   -1    0    0  502  501  0.00000000000E+00  0.00000000000E+00  0.29584101062E+04  0.29584101062E+04  0.00000000000E+00 0. -1.
         21   -1    0    0  501  502 -0.00000000000E+00 -0.00000000000E+00 -0.17586608810E+02  0.17586608810E+02  0.00000000000E+00 0. -1.
      99926    2    1    2    0    0  0.00000000000E+00 -0.71054273576E-14  0.29408234974E+04  0.29759967150E+04  0.45619470070E+03 0.  0.
      99925    2    3    3    0    0 -0.41586258586E+02 -0.34842738992E+02  0.11945131777E+04  0.12243715627E+04  0.26321200304E+03 0.  0.
         25    1    4    4    0    0 -0.23806615162E+02 -0.58149327639E+02  0.59478593670E+03  0.61103675653E+03  0.12509000000E+03 0.  0.
         25    1    3    3    0    0  0.41586258586E+02  0.34842738992E+02  0.17463103197E+04  0.17516251523E+04  0.12509000000E+03 0.  0.
         25    1    4    4    0    0 -0.17779643424E+02  0.23306588647E+02  0.59972724095E+03  0.61333480615E+03  0.12509000000E+03 0.  0.
<mgrwt>
<rscale>  2 0.45619470E+03</rscale>
<asrwt>0</asrwt>
<pdfrwt beam="1">  1       21 0.43505997E+00 0.45619470E+03</pdfrwt>
<pdfrwt beam="2">  1       21 0.25862680E-02 0.45619470E+03</pdfrwt>
<totfact> 0.33519407E+03</totfact>
</mgrwt>
</event>
<event>
 7    0  0.4691878E-002  0.4474124E+03  0.7546771E-02  0.1028496E+00
         21   -1    0    0  502  501  0.00000000000E+00  0.00000000000E+00  0.56117224321E+03  0.56117224321E+03  0.00000000000E+00 0. -1.
         21   -1    0    0  501  502 -0.00000000000E+00 -0.00000000000E+00 -0.89178450224E+02  0.89178450224E+02  0.00000000000E+00 0. -1.
      99926    2    1    2    0    0  0.00000000000E+00  0.00000000000E+00  0.47199379298E+03  0.65035069343E+03  0.44741243147E+03 0.  0.
      99925    2    3    3    0    0  0.92481483636E+02 -0.51579867200E+02  0.28817291406E+03  0.40407659584E+03  0.26271840322E+03 0.  0.
         25    1    4    4    0    0  0.72785179408E+02 -0.22711888545E+02  0.10814829905E+03  0.18209084247E+03  0.12509000000E+03 0.  0.
         25    1    4    4    0    0  0.19696304228E+02 -0.28867978655E+02  0.18002461501E+03  0.22198575337E+03  0.12509000000E+03 0.  0.
         25    1    3    3    0    0 -0.92481483636E+02  0.51579867200E+02  0.18382087892E+03  0.24627409759E+03  0.12509000000E+03 0.  0.
<mgrwt>
<rscale>  2 0.44741243E+03</rscale>
<asrwt>0</asrwt>
<pdfrwt beam="1">  1       21 0.82525328E-01 0.44741243E+03</pdfrwt>
<pdfrwt beam="2">  1       21 0.13114478E-01 0.44741243E+03</pdfrwt>
<totfact> 0.59142470E+04</totfact>
</mgrwt>
</event>
<event>
 7    0  0.4691878E-002  0.4613344E+03  0.7546771E-02  0.1024395E+00
         21   -1    0    0  502  501  0.00000000000E+00  0.00000000000E+00  0.16023385564E+04  0.16023385564E+04  0.00000000000E+00 0. -1.
         21   -1    0    0  501  502 -0.00000000000E+00 -0.00000000000E+00 -0.33206065609E+02  0.33206065609E+02  0.00000000000E+00 0. -1.
      99926    2    1    2    0    0  0.17763568394E-14  0.14210854715E-13  0.15691324908E+04  0.16355446220E+04  0.46133440900E+03 0.  0.
      99925    2    3    3    0    0 -0.15590303389E+02 -0.11737862343E+03  0.93944991201E+03  0.98272883106E+03  0.26300003691E+03 0.  0.
         25    1    4    4    0    0 -0.34548636142E+02 -0.78504869725E+02  0.58600331802E+03  0.60531315834E+03  0.12509000000E+03 0.  0.
         25    1    3    3    0    0  0.15590303389E+02  0.11737862343E+03  0.62968257880E+03  0.65281579097E+03  0.12509000000E+03 0.  0.
         25    1    4    4    0    0  0.18958332753E+02 -0.38873753708E+02  0.35344659399E+03  0.37741567272E+03  0.12509000000E+03 0.  0.
<mgrwt>
<rscale>  2 0.46133441E+03</rscale>
<asrwt>0</asrwt>
<pdfrwt beam="1">  1       21 0.23563797E+00 0.46133441E+03</pdfrwt>
<pdfrwt beam="2">  1       21 0.48832460E-02 0.46133441E+03</pdfrwt>
<totfact> 0.19653796E+04</totfact>
</mgrwt>
</event>
<event>
 7    0  0.4691878E-002  0.4544256E+03  0.7546771E-02  0.1026410E+00
         21   -1    0    0  502  501  0.00000000000E+00  0.00000000000E+00  0.16032964741E+03  0.16032964741E+03  0.00000000000E+00 0. -1.
         21   -1    0    0  501  502 -0.00000000000E+00 -0.00000000000E+00 -0.32199697798E+03  0.32199697798E+03  0.00000000000E+00 0. -1.
      99926    2    1    2    0    0 -0.17763568394E-14 -0.53290705182E-14 -0.16166733057E+03  0.48232662539E+03  0.45442562405E+03 0.  0.
      99925    2    3    3    0    0  0.12275168682E+02 -0.11469523880E+02  0.16306656633E+02  0.26414212098E+03  0.26310249577E+03 0.  0.
         25    1    4    4    0    0 -0.23792166510E+01  0.34023968597E+02  0.49416804081E+01  0.12975060469E+03  0.12509000000E+03 0.  0.
         25    1    3    3    0    0 -0.12275168682E+02  0.11469523880E+02 -0.17797398721E+03  0.21818450441E+03  0.12509000000E+03 0.  0.
         25    1    4    4    0    0  0.14654385333E+02 -0.45493492477E+02  0.11364976225E+02  0.13439151629E+03  0.12509000000E+03 0.  0.
<mgrwt>
<rscale>  2 0.45442562E+03</rscale>
<asrwt>0</asrwt>
<pdfrwt beam="1">  1       21 0.23577890E-01 0.45442562E+03</pdfrwt>
<pdfrwt beam="2">  1       21 0.47352496E-01 0.45442562E+03</pdfrwt>
<totfact> 0.66835337E+04</totfact>
</mgrwt>
</event>
<event>
 7    0  0.4691878E-002  0.4362033E+03  0.7546771E-02  0.1031918E+00
         21   -1    0    0  502  501  0.00000000000E+00  0.00000000000E+00  0.10976499634E+04  0.10976499634E+04  0.00000000000E+00 0.  1.
         21   -1    0    0  501  502 -0.00000000000E+00 -0.00000000000E+00 -0.43336524354E+02  0.43336524354E+02  0.00000000000E+00 0.  1.
      99926    2    1    2    0    0 -0.14210854715E-13  0.00000000000E+00  0.10543134391E+04  0.11409864878E+04  0.43620332127E+03 0.  0.
      99925    2    3    3    0    0 -0.69327199159E+02  0.54523834213E+02  0.58695127816E+03  0.64919994202E+03  0.26300124095E+03 0.  0.
         25    1    4    4    0    0 -0.33556979216E+02  0.53272161875E+02  0.23005135228E+03  0.26932346142E+03  0.12509000000E+03 0.  0.
         25    1    3    3    0    0  0.69327199159E+02 -0.54523834213E+02  0.46736216091E+03  0.49178654576E+03  0.12509000000E+03 0.  0.
         25    1    4    4    0    0 -0.35770219943E+02  0.12516723382E+01  0.35689992588E+03  0.37987648060E+03  0.12509000000E+03 0.  0.
<mgrwt>
<rscale>  2 0.43620332E+03</rscale>
<asrwt>0</asrwt>
<pdfrwt beam="1">  1       21 0.16141909E+00 0.43620332E+03</pdfrwt>
<pdfrwt beam="2">  1       21 0.63730190E-02 0.43620332E+03</pdfrwt>
<totfact> 0.39572237E+04</totfact>
</mgrwt>
</event>
<event>
 7    0  0.4691878E-002  0.4568602E+03  0.7546771E-02  0.1025696E+00
         21   -1    0    0  502  501  0.00000000000E+00  0.00000000000E+00  0.23038099946E+03  0.23038099946E+03  0.00000000000E+00 0.  1.
         21   -1    0    0  501  502 -0.00000000000E+00 -0.00000000000E+00 -0.22649574024E+03  0.22649574024E+03  0.00000000000E+00 0.  1.
      99926    2    1    2    0    0  0.00000000000E+00 -0.14210854715E-13  0.38852592177E+01  0.45687673970E+03  0.45686021937E+03 0.  0.
      99925    2    3    3    0    0 -0.51622651113E+02  0.98226633270E+02  0.31364080420E+02  0.28741888858E+03  0.26327275283E+03 0.  0.
         25    1    4    4    0    0 -0.60506720301E+02  0.39508839835E+02  0.35961561075E+02  0.14887160106E+03  0.12509000000E+03 0.  0.
         25    1    4    4    0    0  0.88840691878E+01  0.58717793435E+02 -0.45974806549E+01  0.13854728752E+03  0.12509000000E+03 0.  0.
         25    1    3    3    0    0  0.51622651113E+02 -0.98226633270E+02 -0.27478821202E+02  0.16945785112E+03  0.12509000000E+03 0.  0.
<mgrwt>
<rscale>  2 0.45686022E+03</rscale>
<asrwt>0</asrwt>
<pdfrwt beam="1">  1       21 0.33879559E-01 0.45686022E+03</pdfrwt>
<pdfrwt beam="2">  1       21 0.33308197E-01 0.45686022E+03</pdfrwt>
<totfact> 0.67402522E+04</totfact>
</mgrwt>
</event>
<event>
 7    0  0.4691878E-002  0.4541768E+03  0.7546771E-02  0.1026484E+00
         21   -1    0    0  502  501  0.00000000000E+00  0.00000000000E+00  0.77317430587E+02  0.77317430587E+02  0.00000000000E+00 0. -1.
         21   -1    0    0  501  502 -0.00000000000E+00 -0.00000000000E+00 -0.66697937840E+03  0.66697937840E+03  0.00000000000E+00 0. -1.
      99926    2    1    2    0    0  0.71054273576E-14  0.35527136788E-14 -0.58966194782E+03  0.74429680899E+03  0.45417675763E+03 0.  0.
      99925    2    3    3    0    0  0.47551032036E+02  0.21983564338E+02 -0.20840740480E+03  0.33964027263E+03  0.26301614146E+03 0.  0.
         25    1    3    3    0    0 -0.47551032036E+02 -0.21983564338E+02 -0.38125454301E+03  0.40465653636E+03  0.12509000000E+03 0.  0.
         25    1    4    4    0    0  0.34374341159E+02  0.45871619293E+01 -0.15422940396E+03  0.20158584903E+03  0.12509000000E+03 0.  0.
         25    1    4    4    0    0  0.13176690877E+02  0.17396402409E+02 -0.54178000840E+02  0.13805442360E+03  0.12509000000E+03 0.  0.
<mgrwt>
<rscale>  2 0.45417676E+03</rscale>
<asrwt>0</asrwt>
<pdfrwt beam="1">  1       21 0.11370211E-01 0.45417676E+03</pdfrwt>
<pdfrwt beam="2">  1       21 0.98085197E-01 0.45417676E+03</pdfrwt>
<totfact> 0.50891561E+04</totfact>
</mgrwt>
</event>
<event>
 7    0  0.4691878E-002  0.4593919E+03  0.7546771E-02  0.1024958E+00
         21   -1    0    0  502  501  0.00000000000E+00  0.00000000000E+00  0.13021956894E+04  0.13021956894E+04  0.00000000000E+00 0. -1.
         21   -1    0    0  501  502 -0.00000000000E+00 -0.00000000000E+00 -0.40516363901E+02  0.40516363901E+02  0.00000000000E+00 0. -1.
      99926    2    1    2    0    0 -0.71054273576E-14  0.00000000000E+00  0.12616793255E+04  0.13427120533E+04  0.45939192165E+03 0.  0.
      99925    2    3    3    0    0  0.34784877582E+02  0.77707811504E+02  0.55491224874E+03  0.61992875205E+03  0.26293642224E+03 0.  0.
         25    1    4    4    0    0 -0.78846193399E-01  0.25390450961E+02  0.34267750267E+03  0.36567753575E+03  0.12509000000E+03 0.  0.
         25    1    4    4    0    0  0.34863723775E+02  0.52317360543E+02  0.21223474607E+03  0.25425121630E+03  0.12509000000E+03 0.  0.
         25    1    3    3    0    0 -0.34784877582E+02 -0.77707811504E+02  0.70676707672E+03  0.72278330122E+03  0.12509000000E+03 0.  0.
<mgrwt>
<rscale>  2 0.45939192E+03</rscale>
<asrwt>0</asrwt>
<pdfrwt beam="1">  1       21 0.19149934E+00 0.45939192E+03</pdfrwt>
<pdfrwt beam="2">  1       21 0.59582897E-02 0.45939192E+03</pdfrwt>
<totfact> 0.26966458E+04</totfact>
</mgrwt>
</event>
<event>
 7    0  0.4691878E-002  0.4513420E+03  0.7546771E-02  0.1027323E+00
         21   -1    0    0  502  501  0.00000000000E+00  0.00000000000E+00  0.22533336465E+03  0.22533336465E+03  0.00000000000E+00 0. -1.
         21   -1    0    0  501  502 -0.00000000000E+00 -0.00000000000E+00 -0.22600910106E+03  0.22600910106E+03  0.00000000000E+00 0. -1.
      99926    2    1    2    0    0  0.00000000000E+00 -0.35527136788E-14 -0.67573641068E+00  0.45134246572E+03  0.45134195987E+03 0.  0.
      99925    2    3    3    0    0  0.10742859004E+03 -0.19852932547E+02  0.84923109801E+01  0.28500966053E+03  0.26310329979E+03 0.  0.
         25    1    4    4    0    0  0.96238415691E+02 -0.46309063463E+01  0.12928383633E+02  0.15842325950E+03  0.12509000000E+03 0.  0.
         25    1    3    3    0    0 -0.10742859004E+03  0.19852932547E+02 -0.91680473908E+01  0.16633280519E+03  0.12509000000E+03 0.  0.
         25    1    4    4    0    0  0.11190174351E+02 -0.15222026201E+02 -0.44360726526E+01  0.12658640102E+03  0.12509000000E+03 0.  0.
<mgrwt>
<rscale>  2 0.45134196E+03</rscale>
<asrwt>0</asrwt>
<pdfrwt beam="1">  1       21 0.33137260E-01 0.45134196E+03</pdfrwt>
<pdfrwt beam="2">  1       21 0.33236632E-01 0.45134196E+03</pdfrwt>
<totfact> 0.70860323E+04</totfact>
</mgrwt>
</event>
<event>
 7    0  0.4691878E-002  0.4611882E+03  0.7546771E-02  0.1024437E+00
         21   -1    0    0  502  501  0.00000000000E+00  0.00000000000E+00  0.32715420525E+03  0.32715420525E+03  0.00000000000E+00 0.  1.
         21   -1    0    0  501  502 -0.00000000000E+00 -0.00000000000E+00 -0.16253388055E+03  0.16253388055E+03  0.00000000000E+00 0.  1.
      99926    2    1    2    0    0  0.00000000000E+00  0.00000000000E+00  0.16462032470E+03  0.48968808580E+03  0.46118821545E+03 0.  0.
      99925    2    3    3    0    0 -0.71341721585E+02 -0.83167164338E+02  0.15221315246E+03  0.32293118344E+03  0.26288645266E+03 0.  0.
         25    1    4    4    0    0 -0.15669975843E+02 -0.62655737501E+02  0.44907963002E+02  0.14776847710E+03  0.12509000000E+03 0.  0.
         25    1    3    3    0    0  0.71341721585E+02  0.83167164338E+02  0.12407172244E+02  0.16675690236E+03  0.12509000000E+03 0.  0.
         25    1    4    4    0    0 -0.55671745741E+02 -0.20511426837E+02  0.10730518946E+03  0.17516270633E+03  0.12509000000E+03 0.  0.
<mgrwt>
<rscale>  2 0.46118822E+03</rscale>
<asrwt>0</asrwt>
<pdfrwt beam="1">  1       21 0.48110913E-01 0.46118822E+03</pdfrwt>
<pdfrwt beam="2">  1       21 0.23902041E-01 0.46118822E+03</pdfrwt>
<totfact> 0.62856334E+04</totfact>
</mgrwt>
</event>
<event>
 7    0  0.4691878E-002  0.4565037E+03  0.7546771E-02  0.1025800E+00
         21   -1    0    0  502  501  0.00000000000E+00  0.00000000000E+00  0.23791729201E+02  0.23791729201E+02  0.00000000000E+00 0.  1.
         21   -1    0    0  501  502 -0.00000000000E+00 -0.00000000000E+00 -0.21897909461E+04  0.21897909461E+04  0.00000000000E+00 0.  1.
      99926    2    1    2    0    0  0.35527136788E-14  0.00000000000E+00 -0.21659992169E+04  0.22135826753E+04  0.45650372703E+03 0.  0.
      99925    2    3    3    0    0 -0.24484543208E+02 -0.44929568735E+02 -0.18581847355E+04  0.18774050109E+04  0.26302263136E+03 0.  0.
         25    1    4    4    0    0 -0.28063524259E+02  0.80378023651E+01 -0.75007240947E+03  0.76099165252E+03  0.12509000000E+03 0.  0.
         25    1    3    3    0    0  0.24484543208E+02  0.44929568735E+02 -0.30781448144E+03  0.33617766447E+03  0.12509000000E+03 0.  0.
         25    1    4    4    0    0  0.35789810515E+01 -0.52967371100E+02 -0.11081123260E+04  0.11164133584E+04  0.12509000000E+03 0.  0.
<mgrwt>
<rscale>  2 0.45650373E+03</rscale>
<asrwt>0</asrwt>
<pdfrwt beam="1">  1       21 0.34987811E-02 0.45650373E+03</pdfrwt>
<pdfrwt beam="2">  1       21 0.32202832E+00 0.45650373E+03</pdfrwt>
<totfact> 0.10403716E+04</totfact>
</mgrwt>
</event>
<event>
 7    0  0.4691878E-002  0.4529394E+03  0.7546771E-02  0.1026849E+00
         21   -1    0    0  502  501  0.00000000000E+00  0.00000000000E+00  0.27145231849E+03  0.27145231849E+03  0.00000000000E+00 0. -1.
         21   -1    0    0  501  502 -0.00000000000E+00 -0.00000000000E+00 -0.18894120205E+03  0.18894120205E+03  0.00000000000E+00 0. -1.
      99926    2    1    2    0    0  0.00000000000E+00 -0.35527136788E-14  0.82511116447E+02  0.46039352054E+03  0.45293941031E+03 0.  0.
      99925    2    3    3    0    0  0.97978080020E+02  0.17567285473E+02  0.18277350878E+01  0.28132473540E+03  0.26311965424E+03 0.  0.
         25    1    4    4    0    0  0.41851046026E+02 -0.21865512486E+02  0.27144508419E+02  0.13643292538E+03  0.12509000000E+03 0.  0.
         25    1    3    3    0    0 -0.97978080020E+02 -0.17567285473E+02  0.80683381359E+02  0.17906878514E+03  0.12509000000E+03 0.  0.
         25    1    4    4    0    0  0.56127033993E+02  0.39432797959E+02 -0.25316773331E+02  0.14489181002E+03  0.12509000000E+03 0.  0.
<mgrwt>
<rscale>  2 0.45293941E+03</rscale>
<asrwt>0</asrwt>
<pdfrwt beam="1">  1       21 0.39919459E-01 0.45293941E+03</pdfrwt>
<pdfrwt beam="2">  1       21 0.27785471E-01 0.45293941E+03</pdfrwt>
<totfact> 0.69281363E+04</totfact>
</mgrwt>
</event>
<event>
 7    0  0.4691878E-002  0.4568745E+03  0.7546771E-02  0.1025692E+00
         21   -1    0    0  502  501  0.00000000000E+00  0.00000000000E+00  0.46607281749E+02  0.46607281749E+02  0.00000000000E+00 0.  1.
         21   -1    0    0  501  502 -0.00000000000E+00 -0.00000000000E+00 -0.11196444052E+04  0.11196444052E+04  0.00000000000E+00 0.  1.
      99926    2    1    2    0    0 -0.88817841970E-15  0.00000000000E+00 -0.10730371234E+04  0.11662516869E+04  0.45687452217E+03 0.  0.
      99925    2    3    3    0    0 -0.21312343551E+01 -0.11389752603E+03 -0.63742480816E+03  0.69893724685E+03  0.26310777331E+03 0.  0.
         25    1    4    4    0    0 -0.15754916799E+02 -0.77879842684E+02 -0.41740646467E+03  0.44293244648E+03  0.12509000000E+03 0.  0.
         25    1    3    3    0    0  0.21312343551E+01  0.11389752603E+03 -0.43561231528E+03  0.46731444009E+03  0.12509000000E+03 0.  0.
         25    1    4    4    0    0  0.13623682444E+02 -0.36017683343E+02 -0.22001834349E+03  0.25600480036E+03  0.12509000000E+03 0.  0.
<mgrwt>
<rscale>  2 0.45687452E+03</rscale>
<asrwt>0</asrwt>
<pdfrwt beam="1">  1       21 0.68540140E-02 0.45687452E+03</pdfrwt>
<pdfrwt beam="2">  1       21 0.16465354E+00 0.45687452E+03</pdfrwt>
<totfact> 0.32763180E+04</totfact>
</mgrwt>
</event>
<event>
 7    0  0.4691878E-002  0.4524866E+03  0.7546771E-02  0.1026983E+00
         21   -1    0    0  502  501  0.00000000000E+00  0.00000000000E+00  0.15739555672E+03  0.15739555672E+03  0.00000000000E+00 0. -1.
         21   -1    0    0  501  502 -0.00000000000E+00 -0.00000000000E+00 -0.32520631033E+03  0.32520631033E+03  0.00000000000E+00 0. -1.
      99926    2    1    2    0    0  0.71054273576E-14  0.14210854715E-13 -0.16781075361E+03  0.48260186706E+03  0.45248658882E+03 0.  0.
      99925    2    3    3    0    0  0.57282526856E+02  0.92825385250E+02 -0.84864228549E+02  0.29706083615E+03  0.26295505901E+03 0.  0.
         25    1    3    3    0    0 -0.57282526856E+02 -0.92825385250E+02 -0.82946525058E+02  0.18554103090E+03  0.12509000000E+03 0.  0.
         25    1    4    4    0    0  0.64654981779E+02  0.69560424231E+02 -0.41635501204E+02  0.16248059068E+03  0.12509000000E+03 0.  0.
         25    1    4    4    0    0 -0.73724549237E+01  0.23264961019E+02 -0.43228727344E+02  0.13458024547E+03  0.12509000000E+03 0.  0.
<mgrwt>
<rscale>  2 0.45248659E+03</rscale>
<asrwt>0</asrwt>
<pdfrwt beam="1">  1       21 0.23146406E-01 0.45248659E+03</pdfrwt>
<pdfrwt beam="2">  1       21 0.47824457E-01 0.45248659E+03</pdfrwt>
<totfact> 0.67854961E+04</totfact>
</mgrwt>
</event>
<event>
 7    0  0.4691878E-002  0.4501992E+03  0.7546771E-02  0.1027663E+00
         21   -1    0    0  502  501  0.00000000000E+00  0.00000000000E+00  0.12377937806E+03  0.12377937806E+03  0.00000000000E+00 0.  1.
         21   -1    0    0  501  502 -0.00000000000E+00 -0.00000000000E+00 -0.40935599870E+03  0.40935599870E+03  0.00000000000E+00 0.  1.
      99926    2    1    2    0    0  0.14210854715E-13  0.17763568394E-14 -0.28557662063E+03  0.53313537676E+03  0.45019920447E+03 0.  0.
      99925    2    3    3    0    0  0.10681689630E+03  0.14328732188E+02 -0.19599529532E+03  0.34528574581E+03  0.26304548765E+03 0.  0.
         25    1    4    4    0    0  0.61443203425E+02  0.12966635238E+02 -0.52252802186E+02  0.14940302645E+03  0.12509000000E+03 0.  0.
         25    1    4    4    0    0  0.45373692877E+02  0.13620969503E+01 -0.14374249313E+03  0.19588271936E+03  0.12509000000E+03 0.  0.
         25    1    3    3    0    0 -0.10681689630E+03 -0.14328732188E+02 -0.89581325317E+02  0.18784963095E+03  0.12509000000E+03 0.  0.
<mgrwt>
<rscale>  2 0.45019920E+03</rscale>
<asrwt>0</asrwt>
<pdfrwt beam="1">  1       21 0.18202850E-01 0.45019920E+03</pdfrwt>
<pdfrwt beam="2">  1       21 0.60199411E-01 0.45019920E+03</pdfrwt>
<totfact> 0.65446588E+04</totfact>
</mgrwt>
</event>
<event>
 7    0  0.4691878E-002  0.4665939E+03  0.7546771E-02  0.1022886E+00
         21   -1    0    0  502  501  0.00000000000E+00  0.00000000000E+00  0.25421460214E+03  0.25421460214E+03  0.00000000000E+00 0. -1.
         21   -1    0    0  501  502 -0.00000000000E+00 -0.00000000000E+00 -0.21410043495E+03  0.21410043495E+03  0.00000000000E+00 0. -1.
      99926    2    1    2    0    0  0.00000000000E+00 -0.66613381478E-15  0.40114167188E+02  0.46831503709E+03  0.46659385718E+03 0.  0.
      99925    2    3    3    0    0  0.10969382899E+03 -0.19668461418E+01  0.82731788615E+02  0.29655830692E+03  0.26280349304E+03 0.  0.
         25    1    3    3    0    0 -0.10969382899E+03  0.19668461418E+01 -0.42617621427E+02  0.17175673017E+03  0.12509000000E+03 0.  0.
         25    1    4    4    0    0  0.37278609640E+02 -0.25845795703E+02  0.67693649591E+02  0.14929044908E+03  0.12509000000E+03 0.  0.
         25    1    4    4    0    0  0.72415219355E+02  0.23878949562E+02  0.15038139024E+02  0.14726785784E+03  0.12509000000E+03 0.  0.
<mgrwt>
<rscale>  2 0.46659386E+03</rscale>
<asrwt>0</asrwt>
<pdfrwt beam="1">  1       21 0.37384500E-01 0.46659386E+03</pdfrwt>
<pdfrwt beam="2">  1       21 0.31485358E-01 0.46659386E+03</pdfrwt>
<totfact> 0.61675454E+04</totfact>
</mgrwt>
</event>
<event>
 7    0  0.4691878E-002  0.4522104E+03  0.7546771E-02  0.1027065E+00
         21   -1    0    0  502  501  0.00000000000E+00  0.00000000000E+00  0.47142004389E+03  0.47142004389E+03  0.00000000000E+00 0. -1.
         21   -1    0    0  501  502 -0.00000000000E+00 -0.00000000000E+00 -0.10844587552E+03  0.10844587552E+03  0.00000000000E+00 0. -1.
      99926    2    1    2    0    0  0.00000000000E+00  0.00000000000E+00  0.36297416837E+03  0.57986591941E+03  0.45221039085E+03 0.  0.
      99925    2    3    3    0    0 -0.19797704889E+02 -0.10357885954E+03  0.18651119326E+03  0.33922673111E+03  0.26299775783E+03 0.  0.
         25    1    3    3    0    0  0.19797704889E+02  0.10357885954E+03  0.17646297510E+03  0.24063918830E+03  0.12509000000E+03 0.  0.
         25    1    4    4    0    0 -0.26391402904E+02 -0.59545097288E+02  0.52249325996E+02  0.15039822115E+03  0.12509000000E+03 0.  0.
         25    1    4    4    0    0  0.65936980152E+01 -0.44033762251E+02  0.13426186727E+03  0.18882850996E+03  0.12509000000E+03 0.  0.
<mgrwt>
<rscale>  2 0.45221039E+03</rscale>
<asrwt>0</asrwt>
<pdfrwt beam="1">  1       21 0.69326476E-01 0.45221039E+03</pdfrwt>
<pdfrwt beam="2">  1       21 0.15947923E-01 0.45221039E+03</pdfrwt>
<totfact> 0.61275214E+04</totfact>
</mgrwt>
</event>
<event>
 7    0  0.4691878E-002  0.4582618E+03  0.7546771E-02  0.1025287E+00
         21   -1    0    0  502  501  0.00000000000E+00  0.00000000000E+00  0.13411263810E+03  0.13411263810E+03  0.00000000000E+00 0. -1.
         21   -1    0    0  501  502 -0.00000000000E+00 -0.00000000000E+00 -0.39146921930E+03  0.39146921930E+03  0.00000000000E+00 0. -1.
      99926    2    1    2    0    0  0.00000000000E+00  0.00000000000E+00 -0.25735658120E+03  0.52558185741E+03  0.45826180176E+03 0.  0.
      99925    2    3    3    0    0 -0.65236542352E+02  0.93322754048E+02 -0.13652048445E+03  0.31770253362E+03  0.26330992065E+03 0.  0.
         25    1    3    3    0    0  0.65236542352E+02 -0.93322754048E+02 -0.12083609675E+03  0.20787932379E+03  0.12509000000E+03 0.  0.
         25    1    4    4    0    0 -0.87637735545E+01  0.95542170761E+01 -0.52451742210E+02  0.13625997267E+03  0.12509000000E+03 0.  0.
         25    1    4    4    0    0 -0.56472768798E+02  0.83768536972E+02 -0.84068742241E+02  0.18144256095E+03  0.12509000000E+03 0.  0.
<mgrwt>
<rscale>  2 0.45826180E+03</rscale>
<asrwt>0</asrwt>
<pdfrwt beam="1">  1       21 0.19722447E-01 0.45826180E+03</pdfrwt>
<pdfrwt beam="2">  1       21 0.57569003E-01 0.45826180E+03</pdfrwt>
<totfact> 0.61890643E+04</totfact>
</mgrwt>
</event>
<event>
 7    0  0.4691878E-002  0.4543607E+03  0.7546771E-02  0.1026430E+00
         21   -1    0    0  502  501  0.00000000000E+00  0.00000000000E+00  0.11387581916E+04  0.11387581916E+04  0.00000000000E+00 0.  1.
         21   -1    0    0  501  502 -0.00000000000E+00 -0.00000000000E+00 -0.45322090035E+02  0.45322090035E+02  0.00000000000E+00 0.  1.
      99926    2    1    2    0    0  0.00000000000E+00  0.00000000000E+00  0.10934361016E+04  0.11840802817E+04  0.45436065538E+03 0.  0.
      99925    2    3    3    0    0  0.90831444500E+02 -0.66412579068E+02  0.70504994963E+03  0.76081642412E+03  0.26284066992E+03 0.  0.
         25    1    4    4    0    0  0.17337121971E+02 -0.50567829304E+02  0.27762252895E+03  0.30915927585E+03  0.12509000000E+03 0.  0.
         25    1    4    4    0    0  0.73494322530E+02 -0.15844749764E+02  0.42742742068E+03  0.45165714827E+03  0.12509000000E+03 0.  0.
         25    1    3    3    0    0 -0.90831444500E+02  0.66412579068E+02  0.38838615197E+03  0.42326385755E+03  0.12509000000E+03 0.  0.
<mgrwt>
<rscale>  2 0.45436066E+03</rscale>
<asrwt>0</asrwt>
<pdfrwt beam="1">  1       21 0.16746442E+00 0.45436066E+03</pdfrwt>
<pdfrwt beam="2">  1       21 0.66650140E-02 0.45436066E+03</pdfrwt>
<totfact> 0.32827850E+04</totfact>
</mgrwt>
</event>
<event>
 7    0  0.4691878E-002  0.4200342E+03  0.7546771E-02  0.1037055E+00
         21   -1    0    0  502  501  0.00000000000E+00  0.00000000000E+00  0.85577128039E+03  0.85577128039E+03  0.00000000000E+00 0.  1.
         21   -1    0    0  501  502 -0.00000000000E+00 -0.00000000000E+00 -0.51540861657E+02  0.51540861657E+02  0.00000000000E+00 0.  1.
      99926    2    1    2    0    0 -0.71054273576E-14  0.38857805862E-15  0.80423041874E+03  0.90731214205E+03  0.42003423276E+03 0.  0.
      99925    2    3    3    0    0  0.61679415370E+02  0.43884792946E+00  0.42864163285E+03  0.50666393345E+03  0.26300218475E+03 0.  0.
         25    1    4    4    0    0  0.35542673066E+02 -0.27588080051E+02  0.27065776313E+03  0.30154189860E+03  0.12509000000E+03 0.  0.
         25    1    3    3    0    0 -0.61679415370E+02 -0.43884792946E+00  0.37558878589E+03  0.40064820860E+03  0.12509000000E+03 0.  0.
         25    1    4    4    0    0  0.26136742304E+02  0.28026927980E+02  0.15798386972E+03  0.20512203485E+03  0.12509000000E+03 0.  0.
<mgrwt>
<rscale>  2 0.42003423E+03</rscale>
<asrwt>0</asrwt>
<pdfrwt beam="1">  1       21 0.12584871E+00 0.42003423E+03</pdfrwt>
<pdfrwt beam="2">  1       21 0.75795390E-02 0.42003423E+03</pdfrwt>
<totfact> 0.56982253E+04</totfact>
</mgrwt>
</event>
<event>
 7    0  0.4691878E-002  0.4475814E+03  0.7546771E-02  0.1028446E+00
         21   -1    0    0  502  501  0.00000000000E+00  0.00000000000E+00  0.25966672439E+03  0.25966672439E+03  0.00000000000E+00 0. -1.
         21   -1    0    0  501  502 -0.00000000000E+00 -0.00000000000E+00 -0.19287136610E+03  0.19287136610E+03  0.00000000000E+00 0. -1.
      99926    2    1    2    0    0  0.00000000000E+00 -0.14210854715E-13  0.66795358291E+02  0.45253809050E+03  0.44758139311E+03 0.  0.
      99925    2    3    3    0    0  0.38034953069E+02  0.94206401331E+02  0.11405939414E+02  0.28213562710E+03  0.26296180886E+03 0.  0.
         25    1    4    4    0    0  0.21850459891E+02  0.82541090357E+02  0.29135670643E+02  0.15422992446E+03  0.12509000000E+03 0.  0.
         25    1    4    4    0    0  0.16184493178E+02  0.11665310974E+02 -0.17729731229E+02  0.12790570264E+03  0.12509000000E+03 0.  0.
         25    1    3    3    0    0 -0.38034953069E+02 -0.94206401331E+02  0.55389418877E+02  0.17040246339E+03  0.12509000000E+03 0.  0.
<mgrwt>
<rscale>  2 0.44758139E+03</rscale>
<asrwt>0</asrwt>
<pdfrwt beam="1">  1       21 0.38186283E-01 0.44758139E+03</pdfrwt>
<pdfrwt beam="2">  1       21 0.28363436E-01 0.44758139E+03</pdfrwt>
<totfact> 0.72948955E+04</totfact>
</mgrwt>
</event>
<event>
 7    0  0.4691878E-002  0.4553152E+03  0.7546771E-02  0.1026149E+00
         21   -1    0    0  502  501  0.00000000000E+00  0.00000000000E+00  0.15376569727E+03  0.15376569727E+03  0.00000000000E+00 0. -1.
         21   -1    0    0  501  502 -0.00000000000E+00 -0.00000000000E+00 -0.33705821952E+03  0.33705821952E+03  0.00000000000E+00 0. -1.
      99926    2    1    2    0    0  0.71054273576E-14  0.00000000000E+00 -0.18329252225E+03  0.49082391679E+03  0.45531524089E+03 0.  0.
      99925    2    3    3    0    0  0.54942501540E+02 -0.99226055377E+02 -0.12309715438E+03  0.31156020336E+03  0.26277816188E+03 0.  0.
         25    1    4    4    0    0 -0.87649192397E+01 -0.26723658654E+02 -0.55794655167E+02  0.13982678351E+03  0.12509000000E+03 0.  0.
         25    1    4    4    0    0  0.63707420780E+02 -0.72502396723E+02 -0.67302499212E+02  0.17173341985E+03  0.12509000000E+03 0.  0.
         25    1    3    3    0    0 -0.54942501540E+02  0.99226055377E+02 -0.60195367870E+02  0.17926371343E+03  0.12509000000E+03 0.  0.
<mgrwt>
<rscale>  2 0.45531524E+03</rscale>
<asrwt>0</asrwt>
<pdfrwt beam="1">  1       21 0.22612603E-01 0.45531524E+03</pdfrwt>
<pdfrwt beam="2">  1       21 0.49567385E-01 0.45531524E+03</pdfrwt>
<totfact> 0.65755523E+04</totfact>
</mgrwt>
</event>
<event>
 7    0  0.4691878E-002  0.4498274E+03  0.7546771E-02  0.1027774E+00
         21   -1    0    0  502  501  0.00000000000E+00  0.00000000000E+00  0.22110164929E+03  0.22110164929E+03  0.00000000000E+00 0. -1.
         21   -1    0    0  501  502 -0.00000000000E+00 -0.00000000000E+00 -0.22879147576E+03  0.22879147576E+03  0.00000000000E+00 0. -1.
      99926    2    1    2    0    0  0.00000000000E+00  0.00000000000E+00 -0.76898264719E+01  0.44989312505E+03  0.44982740083E+03 0.  0.
      99925    2    3    3    0    0 -0.45250061003E+02 -0.34130266169E+02 -0.97041151588E+02  0.28605292702E+03  0.26305293929E+03 0.  0.
         25    1    4    4    0    0 -0.40027942346E+02 -0.44296869095E+02 -0.77881785595E+02  0.15898908581E+03  0.12509000000E+03 0.  0.
         25    1    4    4    0    0 -0.52221186566E+01  0.10166602926E+02 -0.19159365993E+02  0.12706384121E+03  0.12509000000E+03 0.  0.
         25    1    3    3    0    0  0.45250061003E+02  0.34130266169E+02  0.89351325116E+02  0.16384019803E+03  0.12509000000E+03 0.  0.
<mgrwt>
<rscale>  2 0.44982740E+03</rscale>
<asrwt>0</asrwt>
<pdfrwt beam="1">  1       21 0.32514949E-01 0.44982740E+03</pdfrwt>
<pdfrwt beam="2">  1       21 0.33645805E-01 0.44982740E+03</pdfrwt>
<totfact> 0.71841101E+04</totfact>
</mgrwt>
</event>
<event>
 7    0  0.4691878E-002  0.4544451E+03  0.7546771E-02  0.1026405E+00
         21   -1    0    0  502  501  0.00000000000E+00  0.00000000000E+00  0.14498862507E+03  0.14498862507E+03  0.00000000000E+00 0. -1.
         21   -1    0    0  501  502 -0.00000000000E+00 -0.00000000000E+00 -0.35609753523E+03  0.35609753523E+03  0.00000000000E+00 0. -1.
      99926    2    1    2    0    0  0.00000000000E+00  0.35527136788E-14 -0.21110891016E+03  0.50108616030E+03  0.45444512111E+03 0.  0.
      99925    2    3    3    0    0 -0.71022960054E+02  0.23431060695E+02 -0.39979105416E+02  0.27630583725E+03  0.26297017201E+03 0.  0.
         25    1    4    4    0    0 -0.64097719678E+02 -0.13710027061E+02 -0.35217004767E+02  0.14554802656E+03  0.12509000000E+03 0.  0.
         25    1    4    4    0    0 -0.69252403762E+01  0.37141087756E+02 -0.47621006488E+01  0.13075781069E+03  0.12509000000E+03 0.  0.
         25    1    3    3    0    0  0.71022960054E+02 -0.23431060695E+02 -0.17112980475E+03  0.22478032305E+03  0.12509000000E+03 0.  0.
<mgrwt>
<rscale>  2 0.45444512E+03</rscale>
<asrwt>0</asrwt>
<pdfrwt beam="1">  1       21 0.21321857E-01 0.45444512E+03</pdfrwt>
<pdfrwt beam="2">  1       21 0.52367284E-01 0.45444512E+03</pdfrwt>
<totfact> 0.65482369E+04</totfact>
</mgrwt>
</event>
<event>
 7    0  0.4691878E-002  0.4585301E+03  0.7546771E-02  0.1025208E+00
         21   -1    0    0  502  501  0.00000000000E+00  0.00000000000E+00  0.55553915690E+03  0.55553915690E+03  0.00000000000E+00 0.  1.
         21   -1    0    0  501  502 -0.00000000000E+00 -0.00000000000E+00 -0.94615228213E+02  0.94615228213E+02  0.00000000000E+00 0.  1.
      99926    2    1    2    0    0  0.00000000000E+00  0.00000000000E+00  0.46092392868E+03  0.65015438511E+03  0.45853010419E+03 0.  0.
      99925    2    3    3    0    0  0.46960715560E+02  0.28950292744E+02  0.14393938501E+03  0.30494410531E+03  0.26311391553E+03 0.  0.
         25    1    4    4    0    0 -0.33168904687E+01 -0.17245415665E+02  0.68767976064E+02  0.14382262950E+03  0.12509000000E+03 0.  0.
         25    1    4    4    0    0  0.50277606028E+02  0.46195708409E+02  0.75171408948E+02  0.16112147581E+03  0.12509000000E+03 0.  0.
         25    1    3    3    0    0 -0.46960715560E+02 -0.28950292744E+02  0.31698454367E+03  0.34521027980E+03  0.12509000000E+03 0.  0.
<mgrwt>
<rscale>  2 0.45853010E+03</rscale>
<asrwt>0</asrwt>
<pdfrwt beam="1">  1       21 0.81696933E-01 0.45853010E+03</pdfrwt>
<pdfrwt beam="2">  1       21 0.13914004E-01 0.45853010E+03</pdfrwt>
<totfact> 0.54168201E+04</totfact>
</mgrwt>
</event>
<event>
 7    0  0.4691878E-002  0.4697976E+03  0.7546771E-02  0.1021977E+00
         21   -1    0    0  502  501  0.00000000000E+00  0.00000000000E+00  0.95358090179E+02  0.95358090179E+02  0.00000000000E+00 0. -1.
         21   -1    0    0  501  502 -0.00000000000E+00 -0.00000000000E+00 -0.57863417813E+03  0.57863417813E+03  0.00000000000E+00 0. -1.
      99926    2    1    2    0    0  0.17763568394E-14  0.17763568394E-14 -0.48327608795E+03  0.67399226831E+03  0.46979761659E+03 0.  0.
      99925    2    3    3    0    0 -0.14747031141E+02 -0.15066513460E+02 -0.12117319297E+03  0.29031207674E+03  0.26297088137E+03 0.  0.
         25    1    4    4    0    0 -0.17573841435E+02  0.20091191537E+02 -0.90754283605E+02  0.15683221599E+03  0.12509000000E+03 0.  0.
         25    1    3    3    0    0  0.14747031141E+02  0.15066513460E+02 -0.36210289498E+03  0.38368019158E+03  0.12509000000E+03 0.  0.
         25    1    4    4    0    0  0.28268102935E+01 -0.35157704997E+02 -0.30418909368E+02  0.13347986074E+03  0.12509000000E+03 0.  0.
<mgrwt>
<rscale>  2 0.46979762E+03</rscale>
<asrwt>0</asrwt>
<pdfrwt beam="1">  1       21 0.14023248E-01 0.46979762E+03</pdfrwt>
<pdfrwt beam="2">  1       21 0.85093263E-01 0.46979762E+03</pdfrwt>
<totfact> 0.48435970E+04</totfact>
</mgrwt>
</event>
<event>
 7    0  0.4691878E-002  0.4481075E+03  0.7546771E-02  0.1028288E+00
         21   -1    0    0  502  501  0.00000000000E+00  0.00000000000E+00  0.15705233604E+03  0.15705233604E+03  0.00000000000E+00 0.  1.
         21   -1    0    0  501  502 -0.00000000000E+00 -0.00000000000E+00 -0.31963921271E+03  0.31963921271E+03  0.00000000000E+00 0.  1.
      99926    2    1    2    0    0  0.00000000000E+00  0.00000000000E+00 -0.16258687667E+03  0.47669154875E+03  0.44810750962E+03 0.  0.
      99925    2    3    3    0    0  0.77899027541E+02 -0.43513270904E+02 -0.16522045683E+03  0.32301621865E+03  0.26283077240E+03 0.  0.
         25    1    3    3    0    0 -0.77899027541E+02  0.43513270904E+02  0.26335801622E+01  0.15367533010E+03  0.12509000000E+03 0.  0.
         25    1    4    4    0    0  0.76495403393E+02 -0.74526205378E+01 -0.77335707170E+02  0.16593796430E+03  0.12509000000E+03 0.  0.
         25    1    4    4    0    0  0.14036241475E+01 -0.36060650366E+02 -0.87884749659E+02  0.15707825435E+03  0.12509000000E+03 0.  0.
<mgrwt>
<rscale>  2 0.44810751E+03</rscale>
<asrwt>0</asrwt>
<pdfrwt beam="1">  1       21 0.23095932E-01 0.44810751E+03</pdfrwt>
<pdfrwt beam="2">  1       21 0.47005766E-01 0.44810751E+03</pdfrwt>
<totfact> 0.70733013E+04</totfact>
</mgrwt>
</event>
<event>
 7    0  0.4691878E-002  0.4532968E+03  0.7546771E-02  0.1026743E+00
         21   -1    0    0  502  501  0.00000000000E+00  0.00000000000E+00  0.38815746476E+02  0.38815746476E+02  0.00000000000E+00 0. -1.
         21   -1    0    0  501  502 -0.00000000000E+00 -0.00000000000E+00 -0.13234191590E+04  0.13234191590E+04  0.00000000000E+00 0. -1.
      99926    2    1    2    0    0  0.35527136788E-14  0.00000000000E+00 -0.12846034125E+04  0.13622349055E+04  0.45329682354E+03 0.  0.
      99925    2    3    3    0    0  0.63925657691E+01 -0.92806098221E+02 -0.62484437154E+03  0.68430914477E+03  0.26304881717E+03 0.  0.
         25    1    4    4    0    0 -0.21174645699E+02 -0.15097047686E+02 -0.32232178452E+03  0.34672053205E+03  0.12509000000E+03 0.  0.
         25    1    3    3    0    0 -0.63925657691E+01  0.92806098221E+02 -0.65975904099E+03  0.67792576071E+03  0.12509000000E+03 0.  0.
         25    1    4    4    0    0  0.27567211468E+02 -0.77709050535E+02 -0.30252258702E+03  0.33758861272E+03  0.12509000000E+03 0.  0.
<mgrwt>
<rscale>  2 0.45329682E+03</rscale>
<asrwt>0</asrwt>
<pdfrwt beam="1">  1       21 0.57081979E-02 0.45329682E+03</pdfrwt>
<pdfrwt beam="2">  1       21 0.19462047E+00 0.45329682E+03</pdfrwt>
<totfact> 0.27721164E+04</totfact>
</mgrwt>
</event>
<event>
 7    0  0.4691878E-002  0.4453323E+03  0.7546771E-02  0.1029123E+00
         21   -1    0    0  502  501  0.00000000000E+00  0.00000000000E+00  0.11020201325E+03  0.11020201325E+03  0.00000000000E+00 0.  1.
         21   -1    0    0  501  502 -0.00000000000E+00 -0.00000000000E+00 -0.44990303872E+03  0.44990303872E+03  0.00000000000E+00 0.  1.
      99926    2    1    2    0    0  0.00000000000E+00  0.17763568394E-14 -0.33970102547E+03  0.56010505197E+03  0.44533232820E+03 0.  0.
      99925    2    3    3    0    0  0.89691036701E+02  0.75474352392E+01 -0.28087608673E+03  0.39515255165E+03  0.26296904217E+03 0.  0.
         25    1    4    4    0    0  0.37844417585E+02  0.38060975714E+02 -0.11003626766E+03  0.17503235734E+03  0.12509000000E+03 0.  0.
         25    1    3    3    0    0 -0.89691036701E+02 -0.75474352392E+01 -0.58824938743E+02  0.16495250032E+03  0.12509000000E+03 0.  0.
         25    1    4    4    0    0  0.51846619117E+02 -0.30513540475E+02 -0.17083981907E+03  0.22012019431E+03  0.12509000000E+03 0.  0.
<mgrwt>
<rscale>  2 0.44533233E+03</rscale>
<asrwt>0</asrwt>
<pdfrwt beam="1">  1       21 0.16206178E-01 0.44533233E+03</pdfrwt>
<pdfrwt beam="2">  1       21 0.66162212E-01 0.44533233E+03</pdfrwt>
<totfact> 0.66116281E+04</totfact>
</mgrwt>
</event>
<event>
 7    0  0.4691878E-002  0.4556932E+03  0.7546771E-02  0.1026038E+00
         21   -1    0    0  502  501  0.00000000000E+00  0.00000000000E+00  0.11487443238E+03  0.11487443238E+03  0.00000000000E+00 0. -1.
         21   -1    0    0  501  502 -0.00000000000E+00 -0.00000000000E+00 -0.45192014504E+03  0.45192014504E+03  0.00000000000E+00 0. -1.
      99926    2    1    2    0    0  0.00000000000E+00 -0.26645352591E-14 -0.33704571266E+03  0.56679457741E+03  0.45569318687E+03 0.  0.
      99925    2    3    3    0    0 -0.92066182221E+02  0.64001699540E+01 -0.29433541081E+03  0.40558408747E+03  0.26334003468E+03 0.  0.
         25    1    3    3    0    0  0.92066182221E+02 -0.64001699540E+01 -0.42710301853E+02  0.16121048995E+03  0.12509000000E+03 0.  0.
         25    1    4    4    0    0 -0.12389593343E+02  0.21134321737E+02 -0.16309358493E+03  0.20699562103E+03  0.12509000000E+03 0.  0.
         25    1    4    4    0    0 -0.79676588878E+02 -0.14734151783E+02 -0.13124182587E+03  0.19858846644E+03  0.12509000000E+03 0.  0.
<mgrwt>
<rscale>  2 0.45569319E+03</rscale>
<asrwt>0</asrwt>
<pdfrwt beam="1">  1       21 0.16893299E-01 0.45569319E+03</pdfrwt>
<pdfrwt beam="2">  1       21 0.66458844E-01 0.45569319E+03</pdfrwt>
<totfact> 0.60438158E+04</totfact>
</mgrwt>
</event>
<event>
 7    0  0.4691878E-002  0.4536201E+03  0.7546771E-02  0.1026648E+00
         21   -1    0    0  502  501  0.00000000000E+00  0.00000000000E+00  0.89485116125E+02  0.89485116125E+02  0.00000000000E+00 0.  1.
         21   -1    0    0  501  502 -0.00000000000E+00 -0.00000000000E+00 -0.57487536653E+03  0.57487536653E+03  0.00000000000E+00 0.  1.
      99926    2    1    2    0    0  0.35527136788E-14  0.00000000000E+00 -0.48539025040E+03  0.66436048265E+03  0.45362005657E+03 0.  0.
      99925    2    3    3    0    0 -0.21966084579E+02 -0.70758593210E+02 -0.18305155422E+03  0.32888249128E+03  0.26299531210E+03 0.  0.
         25    1    3    3    0    0  0.21966084579E+02  0.70758593210E+02 -0.30233869618E+03  0.33547799137E+03  0.12509000000E+03 0.  0.
         25    1    4    4    0    0  0.94646612460E+01 -0.61339785212E+02 -0.12386346965E+03  0.18665962680E+03  0.12509000000E+03 0.  0.
         25    1    4    4    0    0 -0.31430745826E+02 -0.94188079978E+01 -0.59188084570E+02  0.14222286448E+03  0.12509000000E+03 0.  0.
<mgrwt>
<rscale>  2 0.45362006E+03</rscale>
<asrwt>0</asrwt>
<pdfrwt beam="1">  1       21 0.13159576E-01 0.45362006E+03</pdfrwt>
<pdfrwt beam="2">  1       21 0.84540495E-01 0.45362006E+03</pdfrwt>
<totfact> 0.55481965E+04</totfact>
</mgrwt>
</event>
<event>
 7    0  0.4691878E-002  0.4576195E+03  0.7546771E-02  0.1025474E+00
         21   -1    0    0  502  501  0.00000000000E+00  0.00000000000E+00  0.16427901374E+03  0.16427901374E+03  0.00000000000E+00 0.  1.
         21   -1    0    0  501  502 -0.00000000000E+00 -0.00000000000E+00 -0.31868898963E+03  0.31868898963E+03  0.00000000000E+00 0.  1.
      99926    2    1    2    0    0  0.71054273576E-14  0.00000000000E+00 -0.15440997589E+03  0.48296800337E+03  0.45761954900E+03 0.  0.
      99925    2    3    3    0    0  0.48543856720E+02  0.10408846548E+03 -0.10971486629E+03  0.30736596582E+03  0.26314553082E+03 0.  0.
         25    1    4    4    0    0  0.24332127306E+02  0.90142529966E+02 -0.38636645752E+02  0.16080431158E+03  0.12509000000E+03 0.  0.
         25    1    3    3    0    0 -0.48543856720E+02 -0.10408846548E+03 -0.44695109598E+02  0.17560203755E+03  0.12509000000E+03 0.  0.
         25    1    4    4    0    0  0.24211729414E+02  0.13945935509E+02 -0.71078220540E+02  0.14656165424E+03  0.12509000000E+03 0.  0.
<mgrwt>
<rscale>  2 0.45761955E+03</rscale>
<asrwt>0</asrwt>
<pdfrwt beam="1">  1       21 0.24158679E-01 0.45761955E+03</pdfrwt>
<pdfrwt beam="2">  1       21 0.46866027E-01 0.45761955E+03</pdfrwt>
<totfact> 0.65120042E+04</totfact>
</mgrwt>
</event>
<event>
 7    0  0.4691878E-002  0.4551688E+03  0.7546771E-02  0.1026192E+00
         21   -1    0    0  502  501  0.00000000000E+00  0.00000000000E+00  0.12901329013E+03  0.12901329013E+03  0.00000000000E+00 0.  1.
         21   -1    0    0  501  502 -0.00000000000E+00 -0.00000000000E+00 -0.40146768968E+03  0.40146768968E+03  0.00000000000E+00 0.  1.
      99926    2    1    2    0    0  0.00000000000E+00  0.00000000000E+00 -0.27245439955E+03  0.53048097981E+03  0.45516883692E+03 0.  0.
      99925    2    3    3    0    0 -0.71748768136E+02  0.87378655796E+02 -0.18076673154E+03  0.33855117029E+03  0.26297788587E+03 0.  0.
         25    1    3    3    0    0  0.71748768136E+02 -0.87378655796E+02 -0.91687668009E+02  0.19192980952E+03  0.12509000000E+03 0.  0.
         25    1    4    4    0    0 -0.59491261983E+02  0.16009771724E+02 -0.67486791108E+02  0.15491125885E+03  0.12509000000E+03 0.  0.
         25    1    4    4    0    0 -0.12257506154E+02  0.71368884072E+02 -0.11327994044E+03  0.18363991145E+03  0.12509000000E+03 0.  0.
<mgrwt>
<rscale>  2 0.45516884E+03</rscale>
<asrwt>0</asrwt>
<pdfrwt beam="1">  1       21 0.18972543E-01 0.45516884E+03</pdfrwt>
<pdfrwt beam="2">  1       21 0.59039365E-01 0.45516884E+03</pdfrwt>
<totfact> 0.63089511E+04</totfact>
</mgrwt>
</event>
<event>
 7    0  0.4691878E-002  0.4613051E+03  0.7546771E-02  0.1024403E+00
         21   -1    0    0  502  501  0.00000000000E+00  0.00000000000E+00  0.43407639682E+02  0.43407639682E+02  0.00000000000E+00 0. -1.
         21   -1    0    0  501  502 -0.00000000000E+00 -0.00000000000E+00 -0.12256044736E+04  0.12256044736E+04  0.00000000000E+00 0. -1.
      99926    2    1    2    0    0  0.00000000000E+00  0.00000000000E+00 -0.11821968340E+04  0.12690121133E+04  0.46130509377E+03 0.  0.
      99925    2    3    3    0    0  0.11397905533E+03 -0.25288369671E+02 -0.67384391408E+03  0.73263451690E+03  0.26278696337E+03 0.  0.
         25    1    4    4    0    0  0.70378414973E+02 -0.10526772910E+02 -0.25159630676E+03  0.28984848441E+03  0.12509000000E+03 0.  0.
         25    1    4    4    0    0  0.43600640352E+02 -0.14761596761E+02 -0.42224760732E+03  0.44278603249E+03  0.12509000000E+03 0.  0.
         25    1    3    3    0    0 -0.11397905533E+03  0.25288369671E+02 -0.50835291988E+03  0.53637759642E+03  0.12509000000E+03 0.  0.
<mgrwt>
<rscale>  2 0.46130509E+03</rscale>
<asrwt>0</asrwt>
<pdfrwt beam="1">  1       21 0.63834764E-02 0.46130509E+03</pdfrwt>
<pdfrwt beam="2">  1       21 0.18023595E+00 0.46130509E+03</pdfrwt>
<totfact> 0.28598692E+04</totfact>
</mgrwt>
</event>
<event>
 7    0  0.4691878E-002  0.4448597E+03  0.7546771E-02  0.1029266E+00
         21   -1    0    0  502  501  0.00000000000E+00  0.00000000000E+00  0.11868644982E+03  0.11868644982E+03  0.00000000000E+00 0. -1.
         21   -1    0    0  501  502 -0.00000000000E+00 -0.00000000000E+00 -0.41685507341E+03  0.41685507341E+03  0.00000000000E+00 0. -1.
      99926    2    1    2    0    0  0.00000000000E+00  0.00000000000E+00 -0.29816862359E+03  0.53554152322E+03  0.44485974756E+03 0.  0.
      99925    2    3    3    0    0  0.68624136698E+02  0.76505479189E+02 -0.17566559228E+03  0.33252216143E+03  0.26296430755E+03 0.  0.
         25    1    4    4    0    0  0.37214800836E+02  0.22467396268E+02 -0.41618163561E+02  0.13881392198E+03  0.12509000000E+03 0.  0.
         25    1    4    4    0    0  0.31409335862E+02  0.54038082921E+02 -0.13404742872E+03  0.19370823945E+03  0.12509000000E+03 0.  0.
         25    1    3    3    0    0 -0.68624136698E+02 -0.76505479189E+02 -0.12250303131E+03  0.20301936180E+03  0.12509000000E+03 0.  0.
<mgrwt>
<rscale>  2 0.44485975E+03</rscale>
<asrwt>0</asrwt>
<pdfrwt beam="1">  1       21 0.17453890E-01 0.44485975E+03</pdfrwt>
<pdfrwt beam="2">  1       21 0.61302216E-01 0.44485975E+03</pdfrwt>
<totfact> 0.68138289E+04</totfact>
</mgrwt>
</event>
<event>
 7    0  0.4691878E-002  0.4784597E+03  0.7546771E-02  0.1019559E+00
         21   -1    0    0  502  501  0.00000000000E+00  0.00000000000E+00  0.43602768640E+02  0.43602768640E+02  0.00000000000E+00 0. -1.
         21   -1    0    0  501  502 -0.00000000000E+00 -0.00000000000E+00 -0.13125526393E+04  0.13125526393E+04  0.00000000000E+00 0. -1.
      99926    2    1    2    0    0  0.00000000000E+00 -0.14210854715E-13 -0.12689498707E+04  0.13561554080E+04  0.47845973315E+03 0.  0.
      99925    2    3    3    0    0 -0.29538761557E+02  0.12140709724E+03 -0.92009282715E+03  0.96505316223E+03  0.26295355800E+03 0.  0.
         25    1    4    4    0    0 -0.28906987147E+02  0.70438078555E+02 -0.60029106314E+03  0.61789481742E+03  0.12509000000E+03 0.  0.
         25    1    3    3    0    0  0.29538761557E+02 -0.12140709724E+03 -0.34885704354E+03  0.39110224574E+03  0.12509000000E+03 0.  0.
         25    1    4    4    0    0 -0.63177440922E+00  0.50969018685E+02 -0.31980176401E+03  0.34715834480E+03  0.12509000000E+03 0.  0.
<mgrwt>
<rscale>  2 0.47845973E+03</rscale>
<asrwt>0</asrwt>
<pdfrwt beam="1">  1       21 0.64121714E-02 0.47845973E+03</pdfrwt>
<pdfrwt beam="2">  1       21 0.19302246E+00 0.47845973E+03</pdfrwt>
<totfact> 0.23028531E+04</totfact>
</mgrwt>
</event>
<event>
 7    0  0.4691878E-002  0.4365121E+03  0.7546771E-02  0.1031822E+00
         21   -1    0    0  502  501  0.00000000000E+00  0.00000000000E+00  0.68624332087E+03  0.68624332087E+03  0.00000000000E+00 0. -1.
         21   -1    0    0  501  502 -0.00000000000E+00 -0.00000000000E+00 -0.69415167858E+02  0.69415167858E+02  0.00000000000E+00 0. -1.
      99926    2    1    2    0    0 -0.14210854715E-13  0.00000000000E+00  0.61682815301E+03  0.75565848872E+03  0.43651206311E+03 0.  0.
      99925    2    3    3    0    0 -0.48013388621E+02  0.68281869066E+02  0.47304767616E+03  0.54760072570E+03  0.26291586438E+03 0.  0.
         25    1    4    4    0    0 -0.11625703705E+02  0.93663938941E+00  0.17499290156E+03  0.21542065355E+03  0.12509000000E+03 0.  0.
         25    1    4    4    0    0 -0.36387684916E+02  0.67345229677E+02  0.29805477460E+03  0.33218007215E+03  0.12509000000E+03 0.  0.
         25    1    3    3    0    0  0.48013388621E+02 -0.68281869066E+02  0.14378047685E+03  0.20805776302E+03  0.12509000000E+03 0.  0.
<mgrwt>
<rscale>  2 0.43651206E+03</rscale>
<asrwt>0</asrwt>
<pdfrwt beam="1">  1       21 0.10091813E+00 0.43651206E+03</pdfrwt>
<pdfrwt beam="2">  1       21 0.10208113E-01 0.43651206E+03</pdfrwt>
<totfact> 0.57949157E+04</totfact>
</mgrwt>
</event>
<event>
 7    0  0.4691878E-002  0.4563329E+03  0.7546771E-02  0.1025850E+00
         21   -1    0    0  502  501  0.00000000000E+00  0.00000000000E+00  0.62527377203E+03  0.62527377203E+03  0.00000000000E+00 0.  1.
         21   -1    0    0  501  502 -0.00000000000E+00 -0.00000000000E+00 -0.83259425177E+02  0.83259425177E+02  0.00000000000E+00 0.  1.
      99926    2    1    2    0    0  0.00000000000E+00  0.00000000000E+00  0.54201434686E+03  0.70853319721E+03  0.45633292600E+03 0.  0.
      99925    2    3    3    0    0 -0.15119641805E+02 -0.91312479408E+02  0.44501498518E+03  0.52516756049E+03  0.26305143431E+03 0.  0.
         25    1    3    3    0    0  0.15119641805E+02  0.91312479408E+02  0.96999361674E+02  0.18336563672E+03  0.12509000000E+03 0.  0.
         25    1    4    4    0    0 -0.35815729146E+01 -0.15602693766E+02  0.15208451691E+03  0.19756892494E+03  0.12509000000E+03 0.  0.
         25    1    4    4    0    0 -0.11538068890E+02 -0.75709785642E+02  0.29293046827E+03  0.32759863555E+03  0.12509000000E+03 0.  0.
<mgrwt>
<rscale>  2 0.45633293E+03</rscale>
<asrwt>0</asrwt>
<pdfrwt beam="1">  1       21 0.91952023E-01 0.45633293E+03</pdfrwt>
<pdfrwt beam="2">  1       21 0.12244033E-01 0.45633293E+03</pdfrwt>
<totfact> 0.51895714E+04</totfact>
</mgrwt>
</event>
<event>
 7    0  0.4691878E-002  0.4529638E+03  0.7546771E-02  0.1026842E+00
         21   -1    0    0  502  501  0.00000000000E+00  0.00000000000E+00  0.71136873901E+02  0.71136873901E+02  0.00000000000E+00 0.  1.
         21   -1    0    0  501  502 -0.00000000000E+00 -0.00000000000E+00 -0.72106143493E+03  0.72106143493E+03  0.00000000000E+00 0.  1.
      99926    2    1    2    0    0  0.00000000000E+00  0.00000000000E+00 -0.64992456103E+03  0.79219830884E+03  0.45296382360E+03 0.  0.
      99925    2    3    3    0    0 -0.40842059494E+02 -0.54256057901E+02 -0.56399431129E+03  0.62593553620E+03  0.26285722107E+03 0.  0.
         25    1    4    4    0    0 -0.15468222238E+02 -0.56531635238E+02 -0.35635053079E+03  0.38218882843E+03  0.12509000000E+03 0.  0.
         25    1    3    3    0    0  0.40842059494E+02  0.54256057901E+02 -0.85930249742E+02  0.16626277263E+03  0.12509000000E+03 0.  0.
         25    1    4    4    0    0 -0.25373837256E+02  0.22755773369E+01 -0.20764378050E+03  0.24374670777E+03  0.12509000000E+03 0.  0.
<mgrwt>
<rscale>  2 0.45296382E+03</rscale>
<asrwt>0</asrwt>
<pdfrwt beam="1">  1       21 0.10461305E-01 0.45296382E+03</pdfrwt>
<pdfrwt beam="2">  1       21 0.10603845E+00 0.45296382E+03</pdfrwt>
<totfact> 0.48921617E+04</totfact>
</mgrwt>
</event>
<event>
 7    0  0.4691878E-002  0.4576263E+03  0.7546771E-02  0.1025472E+00
         21   -1    0    0  502  501  0.00000000000E+00  0.00000000000E+00  0.22581532406E+04  0.22581532406E+04  0.00000000000E+00 0.  1.
         21   -1    0    0  501  502 -0.00000000000E+00 -0.00000000000E+00 -0.23185075587E+02  0.23185075587E+02  0.00000000000E+00 0.  1.
      99926    2    1    2    0    0  0.00000000000E+00  0.14210854715E-13  0.22349681650E+04  0.22813383162E+04  0.45762628233E+03 0.  0.
      99925    2    3    3    0    0 -0.15821567376E+02  0.11056308431E+03  0.12554482554E+04  0.12875670754E+04  0.26306678626E+03 0.  0.
         25    1    4    4    0    0 -0.10795743933E+02  0.44741322335E+02  0.43317407013E+03  0.45321696476E+03  0.12509000000E+03 0.  0.
         25    1    4    4    0    0 -0.50258234436E+01  0.65821761978E+02  0.82227418525E+03  0.83435011061E+03  0.12509000000E+03 0.  0.
         25    1    3    3    0    0  0.15821567376E+02 -0.11056308431E+03  0.97951990960E+03  0.99377124078E+03  0.12509000000E+03 0.  0.
<mgrwt>
<rscale>  2 0.45762628E+03</rscale>
<asrwt>0</asrwt>
<pdfrwt beam="1">  1       21 0.33208121E+00 0.45762628E+03</pdfrwt>
<pdfrwt beam="2">  1       21 0.34095715E-02 0.45762628E+03</pdfrwt>
<totfact> 0.94420532E+03</totfact>
</mgrwt>
</event>
<event>
 7    0  0.4691878E-002  0.4492021E+03  0.7546771E-02  0.1027960E+00
         21   -1    0    0  502  501  0.00000000000E+00  0.00000000000E+00  0.14797765968E+04  0.14797765968E+04  0.00000000000E+00 0.  1.
         21   -1    0    0  501  502 -0.00000000000E+00 -0.00000000000E+00 -0.34090025782E+02  0.34090025782E+02  0.00000000000E+00 0.  1.
      99926    2    1    2    0    0 -0.71054273576E-14  0.71054273576E-14  0.14456865710E+04  0.15138666226E+04  0.44920205848E+03 0.  0.
      99925    2    3    3    0    0 -0.25067816933E+02  0.58414689026E+02  0.62215583589E+03  0.67846788477E+03  0.26305914770E+03 0.  0.
         25    1    4    4    0    0  0.28118001955E+02  0.24414460757E+02  0.29977688653E+03  0.32695623212E+03  0.12509000000E+03 0.  0.
         25    1    3    3    0    0  0.25067816933E+02 -0.58414689026E+02  0.82353073513E+03  0.83539873782E+03  0.12509000000E+03 0.  0.
         25    1    4    4    0    0 -0.53185818889E+02  0.34000228269E+02  0.32237894936E+03  0.35151165265E+03  0.12509000000E+03 0.  0.
<mgrwt>
<rscale>  2 0.44920206E+03</rscale>
<asrwt>0</asrwt>
<pdfrwt beam="1">  1       21 0.21761416E+00 0.44920206E+03</pdfrwt>
<pdfrwt beam="2">  1       21 0.50132401E-02 0.44920206E+03</pdfrwt>
<totfact> 0.24527407E+04</totfact>
</mgrwt>
</event>
<event>
 7    0  0.4691878E-002  0.4514254E+03  0.7546771E-02  0.1027298E+00
         21   -1    0    0  502  501  0.00000000000E+00  0.00000000000E+00  0.60750940259E+02  0.60750940259E+02  0.00000000000E+00 0. -1.
         21   -1    0    0  501  502 -0.00000000000E+00 -0.00000000000E+00 -0.83860813620E+03  0.83860813620E+03  0.00000000000E+00 0. -1.
      99926    2    1    2    0    0  0.00000000000E+00  0.00000000000E+00 -0.77785719594E+03  0.89935907646E+03  0.45142544360E+03 0.  0.
      99925    2    3    3    0    0  0.31528430037E+02  0.42721515546E+02 -0.29961158529E+03  0.40218150053E+03  0.26298990008E+03 0.  0.
         25    1    4    4    0    0  0.36950864334E+02 -0.71096287070E+00 -0.18855977914E+03  0.22927749618E+03  0.12509000000E+03 0.  0.
         25    1    3    3    0    0 -0.31528430037E+02 -0.42721515546E+02 -0.47824561066E+03  0.49717757592E+03  0.12509000000E+03 0.  0.
         25    1    4    4    0    0 -0.54224342972E+01  0.43432478417E+02 -0.11105180614E+03  0.17290400436E+03  0.12509000000E+03 0.  0.
<mgrwt>
<rscale>  2 0.45142544E+03</rscale>
<asrwt>0</asrwt>
<pdfrwt beam="1">  1       21 0.89339627E-02 0.45142544E+03</pdfrwt>
<pdfrwt beam="2">  1       21 0.12332471E+00 0.45142544E+03</pdfrwt>
<totfact> 0.44493647E+04</totfact>
</mgrwt>
</event>
<event>
 7    0  0.4691878E-002  0.4442311E+03  0.7546771E-02  0.1029456E+00
         21   -1    0    0  502  501  0.00000000000E+00  0.00000000000E+00  0.49113418210E+02  0.49113418210E+02  0.00000000000E+00 0.  1.
         21   -1    0    0  501  502 -0.00000000000E+00 -0.00000000000E+00 -0.10045181428E+04  0.10045181428E+04  0.00000000000E+00 0.  1.
      99926    2    1    2    0    0  0.14210854715E-13 -0.71054273576E-14 -0.95540472460E+03  0.10536315610E+04  0.44423110943E+03 0.  0.
      99925    2    3    3    0    0  0.79152164519E+02  0.37392819216E+02 -0.47998599619E+03  0.55429824199E+03  0.26305264958E+03 0.  0.
         25    1    3    3    0    0 -0.79152164519E+02 -0.37392819216E+02 -0.47541872841E+03  0.49933331903E+03  0.12509000000E+03 0.  0.
         25    1    4    4    0    0  0.80789478242E+02  0.15921654506E+02 -0.24237775304E+03  0.28491213057E+03  0.12509000000E+03 0.  0.
         25    1    4    4    0    0 -0.16373137233E+01  0.21471164710E+02 -0.23760824315E+03  0.26938611142E+03  0.12509000000E+03 0.  0.
<mgrwt>
<rscale>  2 0.44423111E+03</rscale>
<asrwt>0</asrwt>
<pdfrwt beam="1">  1       21 0.72225616E-02 0.44423111E+03</pdfrwt>
<pdfrwt beam="2">  1       21 0.14772325E+00 0.44423111E+03</pdfrwt>
<totfact> 0.40437783E+04</totfact>
</mgrwt>
</event>
<event>
 7    0  0.4691878E-002  0.4658867E+03  0.7546771E-02  0.1023088E+00
         21   -1    0    0  502  501  0.00000000000E+00  0.00000000000E+00  0.64233076849E+02  0.64233076849E+02  0.00000000000E+00 0.  1.
         21   -1    0    0  501  502 -0.00000000000E+00 -0.00000000000E+00 -0.84477651947E+03  0.84477651947E+03  0.00000000000E+00 0.  1.
      99926    2    1    2    0    0  0.00000000000E+00  0.71054273576E-14 -0.78054344262E+03  0.90900959632E+03  0.46588666045E+03 0.  0.
      99925    2    3    3    0    0  0.68237215256E+02 -0.56723993042E+02 -0.65330022175E+03  0.70973020880E+03  0.26275817897E+03 0.  0.
         25    1    4    4    0    0  0.66119270110E+02 -0.53701865899E+02 -0.32969270400E+03  0.36276774313E+03  0.12509000000E+03 0.  0.
         25    1    3    3    0    0 -0.68237215256E+02  0.56723993042E+02 -0.12724322087E+03  0.19927938752E+03  0.12509000000E+03 0.  0.
         25    1    4    4    0    0  0.21179451453E+01 -0.30221271425E+01 -0.32360751774E+03  0.34696246567E+03  0.12509000000E+03 0.  0.
<mgrwt>
<rscale>  2 0.46588666E+03</rscale>
<asrwt>0</asrwt>
<pdfrwt beam="1">  1       21 0.94460414E-02 0.46588666E+03</pdfrwt>
<pdfrwt beam="2">  1       21 0.12423183E+00 0.46588666E+03</pdfrwt>
<totfact> 0.39381278E+04</totfact>
</mgrwt>
</event>
<event>
 7    0  0.4691878E-002  0.4505055E+03  0.7546771E-02  0.1027571E+00
         21   -1    0    0  502  501  0.00000000000E+00  0.00000000000E+00  0.66676384707E+02  0.66676384707E+02  0.00000000000E+00 0. -1.
         21   -1    0    0  501  502 -0.00000000000E+00 -0.00000000000E+00 -0.76097098414E+03  0.76097098414E+03  0.00000000000E+00 0. -1.
      99926    2    1    2    0    0  0.00000000000E+00  0.17763568394E-14 -0.69429459943E+03  0.82764736885E+03  0.45050546762E+03 0.  0.
      99925    2    3    3    0    0  0.10729567361E+03  0.12018194963E+02 -0.45468332785E+03  0.53658402839E+03  0.26368293900E+03 0.  0.
         25    1    4    4    0    0  0.81691962829E+02 -0.10071174682E+02 -0.29595135108E+03  0.33167712561E+03  0.12509000000E+03 0.  0.
         25    1    3    3    0    0 -0.10729567361E+03 -0.12018194963E+02 -0.23961127159E+03  0.29106334046E+03  0.12509000000E+03 0.  0.
         25    1    4    4    0    0  0.25603710781E+02  0.22089369645E+02 -0.15873197677E+03  0.20490690278E+03  0.12509000000E+03 0.  0.
<mgrwt>
<rscale>  2 0.45050547E+03</rscale>
<asrwt>0</asrwt>
<pdfrwt beam="1">  1       21 0.98053504E-02 0.45050547E+03</pdfrwt>
<pdfrwt beam="2">  1       21 0.11190750E+00 0.45050547E+03</pdfrwt>
<totfact> 0.48131474E+04</totfact>
</mgrwt>
</event>
<event>
 7    0  0.4691878E-002  0.4550363E+03  0.7546771E-02  0.1026231E+00
         21   -1    0    0  502  501  0.00000000000E+00  0.00000000000E+00  0.71664672797E+02  0.71664672797E+02  0.00000000000E+00 0. -1.
         21   -1    0    0  501  502 -0.00000000000E+00 -0.00000000000E+00 -0.72231550271E+03  0.72231550271E+03  0.00000000000E+00 0. -1.
      99926    2    1    2    0    0 -0.88817841970E-15  0.00000000000E+00 -0.65065082991E+03  0.79398017550E+03  0.45503628056E+03 0.  0.
      99925    2    3    3    0    0  0.41697231797E+01 -0.29765059044E+02 -0.59986753182E+03  0.65566966688E+03  0.26297967793E+03 0.  0.
         25    1    3    3    0    0 -0.41697231797E+01  0.29765059044E+02 -0.50783298094E+02  0.13831050863E+03  0.12509000000E+03 0.  0.
         25    1    4    4    0    0  0.39715962443E+02 -0.24306702814E+02 -0.27438139063E+03  0.30512428468E+03  0.12509000000E+03 0.  0.
         25    1    4    4    0    0 -0.35546239263E+02 -0.54583562296E+01 -0.32548614118E+03  0.35054538220E+03  0.12509000000E+03 0.  0.
<mgrwt>
<rscale>  2 0.45503628E+03</rscale>
<asrwt>0</asrwt>
<pdfrwt beam="1">  1       21 0.10538923E-01 0.45503628E+03</pdfrwt>
<pdfrwt beam="2">  1       21 0.10622286E+00 0.45503628E+03</pdfrwt>
<totfact> 0.48043688E+04</totfact>
</mgrwt>
</event>
<event>
 7    0  0.4691878E-002  0.4563439E+03  0.7546771E-02  0.1025847E+00
         21   -1    0    0  502  501  0.00000000000E+00  0.00000000000E+00  0.13157628726E+03  0.13157628726E+03  0.00000000000E+00 0.  1.
         21   -1    0    0  501  502 -0.00000000000E+00 -0.00000000000E+00 -0.39568260715E+03  0.39568260715E+03  0.00000000000E+00 0.  1.
      99926    2    1    2    0    0  0.71054273576E-14  0.00000000000E+00 -0.26410631989E+03  0.52725889442E+03  0.45634394215E+03 0.  0.
      99925    2    3    3    0    0  0.55804636692E+02 -0.98199124334E+02 -0.18748405435E+03  0.34212190413E+03  0.26294467318E+03 0.  0.
         25    1    4    4    0    0  0.67458602887E+02 -0.57574701576E+02 -0.87949758728E+02  0.17677154048E+03  0.12509000000E+03 0.  0.
         25    1    4    4    0    0 -0.11653966195E+02 -0.40624422758E+02 -0.99534295621E+02  0.16535036364E+03  0.12509000000E+03 0.  0.
         25    1    3    3    0    0 -0.55804636692E+02  0.98199124334E+02 -0.76622265536E+02  0.18513699029E+03  0.12509000000E+03 0.  0.
<mgrwt>
<rscale>  2 0.45634394E+03</rscale>
<asrwt>0</asrwt>
<pdfrwt beam="1">  1       21 0.19349454E-01 0.45634394E+03</pdfrwt>
<pdfrwt beam="2">  1       21 0.58188619E-01 0.45634394E+03</pdfrwt>
<totfact> 0.62721614E+04</totfact>
</mgrwt>
</event>
<event>
 7    0  0.4691878E-002  0.4527218E+03  0.7546771E-02  0.1026913E+00
         21   -1    0    0  502  501  0.00000000000E+00  0.00000000000E+00  0.30329552082E+02  0.30329552082E+02  0.00000000000E+00 0.  1.
         21   -1    0    0  501  502 -0.00000000000E+00 -0.00000000000E+00 -0.16894168501E+04  0.16894168501E+04  0.00000000000E+00 0.  1.
      99926    2    1    2    0    0 -0.19428902931E-14  0.00000000000E+00 -0.16590872980E+04  0.17197464021E+04  0.45272179688E+03 0.  0.
      99925    2    3    3    0    0  0.47275341146E+00  0.76076113817E+02 -0.73831578915E+03  0.78740768785E+03  0.26289325552E+03 0.  0.
         25    1    4    4    0    0  0.40575073470E+02  0.39929186828E+02 -0.36925394551E+03  0.39400083873E+03  0.12509000000E+03 0.  0.
         25    1    3    3    0    0 -0.47275341146E+00 -0.76076113817E+02 -0.92077150882E+03  0.93233871428E+03  0.12509000000E+03 0.  0.
         25    1    4    4    0    0 -0.40102320059E+02  0.36146926989E+02 -0.36906184364E+03  0.39340684912E+03  0.12509000000E+03 0.  0.
<mgrwt>
<rscale>  2 0.45272180E+03</rscale>
<asrwt>0</asrwt>
<pdfrwt beam="1">  1       21 0.44602271E-02 0.45272180E+03</pdfrwt>
<pdfrwt beam="2">  1       21 0.24844372E+00 0.45272180E+03</pdfrwt>
<totfact> 0.19190883E+04</totfact>
</mgrwt>
</event>
<event>
 7    0  0.4691878E-002  0.4495785E+03  0.7546771E-02  0.1027848E+00
         21   -1    0    0  502  501  0.00000000000E+00  0.00000000000E+00  0.15917998443E+02  0.15917998443E+02  0.00000000000E+00 0.  1.
         21   -1    0    0  501  502 -0.00000000000E+00 -0.00000000000E+00 -0.31744067900E+04  0.31744067900E+04  0.00000000000E+00 0.  1.
      99926    2    1    2    0    0 -0.71054273576E-14  0.71054273576E-14 -0.31584887916E+04  0.31903247885E+04  0.44957847966E+03 0.  0.
      99925    2    3    3    0    0 -0.53219324444E+02  0.51290346084E+02 -0.25560350217E+04  0.25705981963E+04  0.26305333788E+03 0.  0.
         25    1    4    4    0    0 -0.15926200152E+02 -0.14144502324E+02 -0.11251534824E+04  0.11322859965E+04  0.12509000000E+03 0.  0.
         25    1    3    3    0    0  0.53219324444E+02 -0.51290346084E+02 -0.60245376989E+03  0.61972659218E+03  0.12509000000E+03 0.  0.
         25    1    4    4    0    0 -0.37293124292E+02  0.65434848409E+02 -0.14308815393E+04  0.14383121998E+04  0.12509000000E+03 0.  0.
<mgrwt>
<rscale>  2 0.44957848E+03</rscale>
<asrwt>0</asrwt>
<pdfrwt beam="1">  1       21 0.23408824E-02 0.44957848E+03</pdfrwt>
<pdfrwt beam="2">  1       21 0.46682446E+00 0.44957848E+03</pdfrwt>
<totfact> 0.24206035E+03</totfact>
</mgrwt>
</event>
<event>
 7    0  0.4691878E-002  0.4528865E+03  0.7546771E-02  0.1026865E+00
         21   -1    0    0  502  501  0.00000000000E+00  0.00000000000E+00  0.54378326002E+03  0.54378326002E+03  0.00000000000E+00 0.  1.
         21   -1    0    0  501  502 -0.00000000000E+00 -0.00000000000E+00 -0.94295940293E+02  0.94295940293E+02  0.00000000000E+00 0.  1.
      99926    2    1    2    0    0 -0.14210854715E-13  0.00000000000E+00  0.44948731973E+03  0.63807920032E+03  0.45288653687E+03 0.  0.
      99925    2    3    3    0    0 -0.10772209501E+03  0.94677098408E+01  0.24702732739E+03  0.37667674455E+03  0.26300034625E+03 0.  0.
         25    1    4    4    0    0 -0.49067616063E+02  0.39848950456E+02  0.14908296836E+03  0.20461869258E+03  0.12509000000E+03 0.  0.
         25    1    3    3    0    0  0.10772209501E+03 -0.94677098408E+01  0.20245999234E+03  0.26140245577E+03  0.12509000000E+03 0.  0.
         25    1    4    4    0    0 -0.58654478942E+02 -0.30381240615E+02  0.97944359025E+02  0.17205805196E+03  0.12509000000E+03 0.  0.
<mgrwt>
<rscale>  2 0.45288654E+03</rscale>
<asrwt>0</asrwt>
<pdfrwt beam="1">  1       21 0.79968125E-01 0.45288654E+03</pdfrwt>
<pdfrwt beam="2">  1       21 0.13867050E-01 0.45288654E+03</pdfrwt>
<totfact> 0.57344009E+04</totfact>
</mgrwt>
</event>
<event>
 7    0  0.4691878E-002  0.4510730E+03  0.7546771E-02  0.1027403E+00
         21   -1    0    0  502  501  0.00000000000E+00  0.00000000000E+00  0.20800009014E+02  0.20800009014E+02  0.00000000000E+00 0. -1.
         21   -1    0    0  501  502 -0.00000000000E+00 -0.00000000000E+00 -0.24455140491E+04  0.24455140491E+04  0.00000000000E+00 0. -1.
      99926    2    1    2    0    0  0.00000000000E+00 -0.14210854715E-13 -0.24247140400E+04  0.24663140581E+04  0.45107300635E+03 0.  0.
      99925    2    3    3    0    0 -0.69382566608E+02  0.81918385078E+02 -0.16490086023E+04  0.16732875790E+04  0.26293989618E+03 0.  0.
         25    1    4    4    0    0 -0.23537977566E+02  0.80108168174E+02 -0.91721849290E+03  0.92946685084E+03  0.12509000000E+03 0.  0.
         25    1    3    3    0    0  0.69382566608E+02 -0.81918385078E+02 -0.77570543772E+03  0.79302647911E+03  0.12509000000E+03 0.  0.
         25    1    4    4    0    0 -0.45844589041E+02  0.18102169037E+01 -0.73179010942E+03  0.74382072812E+03  0.12509000000E+03 0.  0.
<mgrwt>
<rscale>  2 0.45107301E+03</rscale>
<asrwt>0</asrwt>
<pdfrwt beam="1">  1       21 0.30588242E-02 0.45107301E+03</pdfrwt>
<pdfrwt beam="2">  1       21 0.35963449E+00 0.45107301E+03</pdfrwt>
<totfact> 0.77155174E+03</totfact>
</mgrwt>
</event>
<event>
 7    0  0.4691878E-002  0.4427781E+03  0.7546771E-02  0.1029898E+00
         21   -1    0    0  502  501  0.00000000000E+00  0.00000000000E+00  0.52557240965E+03  0.52557240965E+03  0.00000000000E+00 0. -1.
         21   -1    0    0  501  502 -0.00000000000E+00 -0.00000000000E+00 -0.93256645849E+02  0.93256645849E+02  0.00000000000E+00 0. -1.
      99926    2    1    2    0    0  0.00000000000E+00 -0.88817841970E-15  0.43231576380E+03  0.61882905549E+03  0.44277813891E+03 0.  0.
      99925    2    3    3    0    0 -0.91483321855E+02 -0.52087299286E+01  0.21397567449E+03  0.35103019115E+03  0.26275516509E+03 0.  0.
         25    1    4    4    0    0 -0.55500893104E+02  0.10010725461E+02  0.62633416662E+02  0.15083440172E+03  0.12509000000E+03 0.  0.
         25    1    3    3    0    0  0.91483321855E+02  0.52087299286E+01  0.21834008931E+03  0.26779886435E+03  0.12509000000E+03 0.  0.
         25    1    4    4    0    0 -0.35982428751E+02 -0.15219455390E+02  0.15134225783E+03  0.20019578943E+03  0.12509000000E+03 0.  0.
<mgrwt>
<rscale>  2 0.44277814E+03</rscale>
<asrwt>0</asrwt>
<pdfrwt beam="1">  1       21 0.77290059E-01 0.44277814E+03</pdfrwt>
<pdfrwt beam="2">  1       21 0.13714213E-01 0.44277814E+03</pdfrwt>
<totfact> 0.63438068E+04</totfact>
</mgrwt>
</event>
<event>
 7    0  0.4691878E-002  0.4546108E+03  0.7546771E-02  0.1026356E+00
         21   -1    0    0  502  501  0.00000000000E+00  0.00000000000E+00  0.11238690338E+04  0.11238690338E+04  0.00000000000E+00 0.  1.
         21   -1    0    0  501  502 -0.00000000000E+00 -0.00000000000E+00 -0.45973108385E+02  0.45973108385E+02  0.00000000000E+00 0.  1.
      99926    2    1    2    0    0  0.00000000000E+00  0.00000000000E+00  0.10778959254E+04  0.11698421422E+04  0.45461083533E+03 0.  0.
      99925    2    3    3    0    0 -0.70242190515E+02 -0.48345043013E+02  0.86861943930E+03  0.91154896718E+03  0.26296498002E+03 0.  0.
         25    1    3    3    0    0  0.70242190515E+02  0.48345043013E+02  0.20927648609E+03  0.25829317498E+03  0.12509000000E+03 0.  0.
         25    1    4    4    0    0  0.55252752344E+01 -0.19523922056E+02  0.43067584956E+03  0.44893307708E+03  0.12509000000E+03 0.  0.
         25    1    4    4    0    0 -0.75767465749E+02 -0.28821120957E+02  0.43794358974E+03  0.46261589010E+03  0.12509000000E+03 0.  0.
<mgrwt>
<rscale>  2 0.45461084E+03</rscale>
<asrwt>0</asrwt>
<pdfrwt beam="1">  1       21 0.16527484E+00 0.45461084E+03</pdfrwt>
<pdfrwt beam="2">  1       21 0.67607519E-02 0.45461084E+03</pdfrwt>
<totfact> 0.33227394E+04</totfact>
</mgrwt>
</event>
<event>
 7    0  0.4691878E-002  0.4558295E+03  0.7546771E-02  0.1025998E+00
         21   -1    0    0  502  501  0.00000000000E+00  0.00000000000E+00  0.42384350346E+03  0.42384350346E+03  0.00000000000E+00 0. -1.
         21   -1    0    0  501  502 -0.00000000000E+00 -0.00000000000E+00 -0.12255734065E+03  0.12255734065E+03  0.00000000000E+00 0. -1.
      99926    2    1    2    0    0  0.14210854715E-13  0.00000000000E+00  0.30128616281E+03  0.54640084412E+03  0.45582949724E+03 0.  0.
      99925    2    3    3    0    0  0.10768802904E+03  0.36241159077E+02  0.19471248060E+03  0.34661197794E+03  0.26328080055E+03 0.  0.
         25    1    3    3    0    0 -0.10768802904E+03 -0.36241159077E+02  0.10657368221E+03  0.19978886618E+03  0.12509000000E+03 0.  0.
         25    1    4    4    0    0  0.76798261726E+02 -0.12545410648E+02  0.11918241170E+03  0.18949225760E+03  0.12509000000E+03 0.  0.
         25    1    4    4    0    0  0.30889767311E+02  0.48786569725E+02  0.75530068900E+02  0.15711972033E+03  0.12509000000E+03 0.  0.
<mgrwt>
<rscale>  2 0.45582950E+03</rscale>
<asrwt>0</asrwt>
<pdfrwt beam="1">  1       21 0.62329926E-01 0.45582950E+03</pdfrwt>
<pdfrwt beam="2">  1       21 0.18023139E-01 0.45582950E+03</pdfrwt>
<totfact> 0.61699015E+04</totfact>
</mgrwt>
</event>
<event>
 7    0  0.4691878E-002  0.4530058E+03  0.7546771E-02  0.1026829E+00
         21   -1    0    0  502  501  0.00000000000E+00  0.00000000000E+00  0.30217683813E+03  0.30217683813E+03  0.00000000000E+00 0.  1.
         21   -1    0    0  501  502 -0.00000000000E+00 -0.00000000000E+00 -0.16977990872E+03  0.16977990872E+03  0.00000000000E+00 0.  1.
      99926    2    1    2    0    0  0.00000000000E+00  0.14210854715E-13  0.13239692941E+03  0.47195674685E+03  0.45300576594E+03 0.  0.
      99925    2    3    3    0    0 -0.48531121275E+02  0.82894176759E+02  0.24988456491E+02  0.28114059861E+03  0.26303782800E+03 0.  0.
         25    1    4    4    0    0 -0.36789261947E+02  0.45599739660E+01 -0.27923477805E+01  0.13049731209E+03  0.12509000000E+03 0.  0.
         25    1    4    4    0    0 -0.11741859328E+02  0.78334202793E+02  0.27780804271E+02  0.15064328652E+03  0.12509000000E+03 0.  0.
         25    1    3    3    0    0  0.48531121275E+02 -0.82894176759E+02  0.10740847292E+03  0.19081614824E+03  0.12509000000E+03 0.  0.
<mgrwt>
<rscale>  2 0.45300577E+03</rscale>
<asrwt>0</asrwt>
<pdfrwt beam="1">  1       21 0.44437771E-01 0.45300577E+03</pdfrwt>
<pdfrwt beam="2">  1       21 0.24967633E-01 0.45300577E+03</pdfrwt>
<totfact> 0.68365905E+04</totfact>
</mgrwt>
</event>
<event>
 6    0  0.4691878E-002  0.4568432E+03  0.7546771E-02  0.1025701E+00
         21   -1    0    0  502  501  0.00000000000E+00  0.00000000000E+00  0.44953929208E+03  0.44953929208E+03  0.00000000000E+00 0.  1.
         21   -1    0    0  501  502 -0.00000000000E+00 -0.00000000000E+00 -0.11606643360E+03  0.11606643360E+03  0.00000000000E+00 0.  1.
      99926    2    1    2    0    0  0.00000000000E+00 -0.14210854715E-13  0.33347285848E+03  0.56560572567E+03  0.45684317831E+03 0.  0.
         25    1    3    3    0    0 -0.31141274639E+02  0.61780262974E+02  0.22051867333E+03  0.26279758992E+03  0.12509000000E+03 0.  0.
         25    1    3    3    0    0  0.13884518192E+02  0.21481382226E+02  0.69830116122E+02  0.14552657093E+03  0.12509000000E+03 0.  0.
         25    1    3    3    0    0  0.17256756447E+02 -0.83261645200E+02  0.43124069026E+02  0.15728156483E+03  0.12509000000E+03 0.  0.
<mgrwt>
<rscale>  2 0.45684318E+03</rscale>
<asrwt>0</asrwt>
<pdfrwt beam="1">  1       21 0.66108719E-01 0.45684318E+03</pdfrwt>
<pdfrwt beam="2">  1       21 0.17068593E-01 0.45684318E+03</pdfrwt>
<totfact> 0.59967939E+04</totfact>
</mgrwt>
</event>
<event>
 7    0  0.4691878E-002  0.4452470E+03  0.7546771E-02  0.1029149E+00
         21   -1    0    0  502  501  0.00000000000E+00  0.00000000000E+00  0.44568037632E+03  0.44568037632E+03  0.00000000000E+00 0. -1.
         21   -1    0    0  501  502 -0.00000000000E+00 -0.00000000000E+00 -0.11120351175E+03  0.11120351175E+03  0.00000000000E+00 0. -1.
      99926    2    1    2    0    0  0.00000000000E+00 -0.35527136788E-14  0.33447686457E+03  0.55688388807E+03  0.44524700095E+03 0.  0.
      99925    2    3    3    0    0  0.36751195892E+02  0.60994111386E+01  0.90854191875E+02  0.28050124033E+03  0.26275199035E+03 0.  0.
         25    1    3    3    0    0 -0.36751195892E+02 -0.60994111386E+01  0.24362267270E+03  0.27638264773E+03  0.12509000000E+03 0.  0.
         25    1    4    4    0    0  0.37349565854E+02  0.38012961474E+02  0.53408969136E+02  0.14608217343E+03  0.12509000000E+03 0.  0.
         25    1    4    4    0    0 -0.59836996143E+00 -0.31913550335E+02  0.37445222739E+02  0.13441906690E+03  0.12509000000E+03 0.  0.
<mgrwt>
<rscale>  2 0.44524700E+03</rscale>
<asrwt>0</asrwt>
<pdfrwt beam="1">  1       21 0.65541231E-01 0.44524700E+03</pdfrwt>
<pdfrwt beam="2">  1       21 0.16353458E-01 0.44524700E+03</pdfrwt>
<totfact> 0.66389501E+04</totfact>
</mgrwt>
</event>
<event>
 7    0  0.4691878E-002  0.4373073E+03  0.7546771E-02  0.1031576E+00
         21   -1    0    0  502  501  0.00000000000E+00  0.00000000000E+00  0.34143497056E+03  0.34143497056E+03  0.00000000000E+00 0. -1.
         21   -1    0    0  501  502 -0.00000000000E+00 -0.00000000000E+00 -0.14002496787E+03  0.14002496787E+03  0.00000000000E+00 0. -1.
      99926    2    1    2    0    0  0.00000000000E+00  0.00000000000E+00  0.20141000269E+03  0.48145993843E+03  0.43730730971E+03 0.  0.
      99925    2    3    3    0    0  0.21516037827E+02  0.77371950270E+02  0.71566448457E+02  0.28408664933E+03  0.26293365933E+03 0.  0.
         25    1    4    4    0    0  0.11689219251E+02  0.49009244716E+02 -0.39586034876E+01  0.13491375970E+03  0.12509000000E+03 0.  0.
         25    1    4    4    0    0  0.98268185762E+01  0.28362705555E+02  0.75525051945E+02  0.14917288963E+03  0.12509000000E+03 0.  0.
         25    1    3    3    0    0 -0.21516037827E+02 -0.77371950270E+02  0.12984355423E+03  0.19737328910E+03  0.12509000000E+03 0.  0.
<mgrwt>
<rscale>  2 0.43730731E+03</rscale>
<asrwt>0</asrwt>
<pdfrwt beam="1">  1       21 0.50211025E-01 0.43730731E+03</pdfrwt>
<pdfrwt beam="2">  1       21 0.20591907E-01 0.43730731E+03</pdfrwt>
<totfact> 0.76831320E+04</totfact>
</mgrwt>
</event>
<event>
 7    0  0.4691878E-002  0.4516813E+03  0.7546771E-02  0.1027222E+00
         21   -1    0    0  502  501  0.00000000000E+00  0.00000000000E+00  0.15741638910E+03  0.15741638910E+03  0.00000000000E+00 0.  1.
         21   -1    0    0  501  502 -0.00000000000E+00 -0.00000000000E+00 -0.32400690178E+03  0.32400690178E+03  0.00000000000E+00 0.  1.
      99926    2    1    2    0    0  0.00000000000E+00  0.00000000000E+00 -0.16659051268E+03  0.48142329088E+03  0.45168128817E+03 0.  0.
      99925    2    3    3    0    0  0.10299944585E+03 -0.33836164542E+02 -0.85231992607E+02  0.29697685214E+03  0.26301518258E+03 0.  0.
         25    1    3    3    0    0 -0.10299944585E+03  0.33836164542E+02 -0.81358520075E+02  0.18444643874E+03  0.12509000000E+03 0.  0.
         25    1    4    4    0    0  0.71116206406E+02 -0.86931543437E+01 -0.81088922942E+02  0.16539651529E+03  0.12509000000E+03 0.  0.
         25    1    4    4    0    0  0.31883239439E+02 -0.25143010199E+02 -0.41430696653E+01  0.13158033685E+03  0.12509000000E+03 0.  0.
<mgrwt>
<rscale>  2 0.45168129E+03</rscale>
<asrwt>0</asrwt>
<pdfrwt beam="1">  1       21 0.23149469E-01 0.45168129E+03</pdfrwt>
<pdfrwt beam="2">  1       21 0.47648074E-01 0.45168129E+03</pdfrwt>
<totfact> 0.68380400E+04</totfact>
</mgrwt>
</event>
<event>
 7    0  0.4691878E-002  0.4400920E+03  0.7546771E-02  0.1030719E+00
         21   -1    0    0  502  501  0.00000000000E+00  0.00000000000E+00  0.41249457331E+03  0.41249457331E+03  0.00000000000E+00 0. -1.
         21   -1    0    0  501  502 -0.00000000000E+00 -0.00000000000E+00 -0.11738397439E+03  0.11738397439E+03  0.00000000000E+00 0. -1.
      99926    2    1    2    0    0  0.00000000000E+00  0.00000000000E+00  0.29511059892E+03  0.52987854770E+03  0.44009204688E+03 0.  0.
      99925    2    3    3    0    0 -0.41065982122E+02  0.78422007240E+02  0.13328117014E+03  0.30700482062E+03  0.26201462452E+03 0.  0.
         25    1    4    4    0    0 -0.55856636422E+02  0.36133145131E+02  0.87232562070E+02  0.16638087629E+03  0.12509000000E+03 0.  0.
         25    1    4    4    0    0  0.14790654300E+02  0.42288862109E+02  0.46048608071E+02  0.14062394433E+03  0.12509000000E+03 0.  0.
         25    1    3    3    0    0  0.41065982122E+02 -0.78422007240E+02  0.16182942878E+03  0.22287372709E+03  0.12509000000E+03 0.  0.
<mgrwt>
<rscale>  2 0.44009205E+03</rscale>
<asrwt>0</asrwt>
<pdfrwt beam="1">  1       21 0.60660966E-01 0.44009205E+03</pdfrwt>
<pdfrwt beam="2">  1       21 0.17262349E-01 0.44009205E+03</pdfrwt>
<totfact> 0.71260400E+04</totfact>
</mgrwt>
</event>
<event>
 7    0  0.4691878E-002  0.4549229E+03  0.7546771E-02  0.1026264E+00
         21   -1    0    0  502  501  0.00000000000E+00  0.00000000000E+00  0.69707050837E+02  0.69707050837E+02  0.00000000000E+00 0.  1.
         21   -1    0    0  501  502 -0.00000000000E+00 -0.00000000000E+00 -0.74223079787E+03  0.74223079787E+03  0.00000000000E+00 0.  1.
      99926    2    1    2    0    0 -0.35527136788E-14  0.14210854715E-13 -0.67252374703E+03  0.81193784871E+03  0.45492293835E+03 0.  0.
      99925    2    3    3    0    0  0.28163332997E+02 -0.95523213265E+02 -0.32446764402E+03  0.42891250158E+03  0.26223810630E+03 0.  0.
         25    1    4    4    0    0 -0.81926415102E+00 -0.72142098682E+02 -0.12755166820E+03  0.19267093646E+03  0.12509000000E+03 0.  0.
         25    1    4    4    0    0  0.28982597148E+02 -0.23381114583E+02 -0.19691597582E+03  0.23624156512E+03  0.12509000000E+03 0.  0.
         25    1    3    3    0    0 -0.28163332997E+02  0.95523213265E+02 -0.34805610301E+03  0.38302534713E+03  0.12509000000E+03 0.  0.
<mgrwt>
<rscale>  2 0.45492294E+03</rscale>
<asrwt>0</asrwt>
<pdfrwt beam="1">  1       21 0.10251036E-01 0.45492294E+03</pdfrwt>
<pdfrwt beam="2">  1       21 0.10915159E+00 0.45492294E+03</pdfrwt>
<totfact> 0.47221353E+04</totfact>
</mgrwt>
</event>
<event>
 7    0  0.4691878E-002  0.4549100E+03  0.7546771E-02  0.1026268E+00
         21   -1    0    0  502  501  0.00000000000E+00  0.00000000000E+00  0.20957392334E+03  0.20957392334E+03  0.00000000000E+00 0. -1.
         21   -1    0    0  501  502 -0.00000000000E+00 -0.00000000000E+00 -0.24686166909E+03  0.24686166909E+03  0.00000000000E+00 0. -1.
      99926    2    1    2    0    0  0.00000000000E+00  0.00000000000E+00 -0.37287745747E+02  0.45643559243E+03  0.45490996258E+03 0.  0.
      99925    2    3    3    0    0 -0.48403903980E+02 -0.52634802235E+02 -0.11134342262E+03  0.29443216129E+03  0.26302011237E+03 0.  0.
         25    1    3    3    0    0  0.48403903980E+02  0.52634802235E+02  0.74055676873E+02  0.16200343115E+03  0.12509000000E+03 0.  0.
         25    1    4    4    0    0 -0.49439956607E+02 -0.19135449912E+02 -0.23320077097E+02  0.13784704875E+03  0.12509000000E+03 0.  0.
         25    1    4    4    0    0  0.10360526269E+01 -0.33499352322E+02 -0.88023345524E+02  0.15658511254E+03  0.12509000000E+03 0.  0.
<mgrwt>
<rscale>  2 0.45490996E+03</rscale>
<asrwt>0</asrwt>
<pdfrwt beam="1">  1       21 0.30819695E-01 0.45490996E+03</pdfrwt>
<pdfrwt beam="2">  1       21 0.36303186E-01 0.45490996E+03</pdfrwt>
<totfact> 0.68489969E+04</totfact>
</mgrwt>
</event>
<event>
 7    0  0.4691878E-002  0.4715575E+03  0.7546771E-02  0.1021482E+00
         21   -1    0    0  502  501  0.00000000000E+00  0.00000000000E+00  0.25616841630E+03  0.25616841630E+03  0.00000000000E+00 0.  1.
         21   -1    0    0  501  502 -0.00000000000E+00 -0.00000000000E+00 -0.21701195658E+03  0.21701195658E+03  0.00000000000E+00 0.  1.
      99926    2    1    2    0    0  0.71054273576E-14  0.00000000000E+00  0.39156459714E+02  0.47318037288E+03  0.47155745879E+03 0.  0.
      99925    2    3    3    0    0 -0.63677084841E+02 -0.10813939447E+03  0.51189337871E+02  0.29558195502E+03  0.26267745250E+03 0.  0.
         25    1    4    4    0    0  0.63483050766E+01 -0.52999980382E+02  0.90119093826E+01  0.13630121609E+03  0.12509000000E+03 0.  0.
         25    1    4    4    0    0 -0.70025389918E+02 -0.55139414089E+02  0.42177428488E+02  0.15928073893E+03  0.12509000000E+03 0.  0.
         25    1    3    3    0    0  0.63677084841E+02  0.10813939447E+03 -0.12032878157E+02  0.17759841786E+03  0.12509000000E+03 0.  0.
<mgrwt>
<rscale>  2 0.47155746E+03</rscale>
<asrwt>0</asrwt>
<pdfrwt beam="1">  1       21 0.37671826E-01 0.47155746E+03</pdfrwt>
<pdfrwt beam="2">  1       21 0.31913523E-01 0.47155746E+03</pdfrwt>
<totfact> 0.59040248E+04</totfact>
</mgrwt>
</event>
<event>
 7    0  0.4691878E-002  0.4387695E+03  0.7546771E-02  0.1031125E+00
         21   -1    0    0  502  501  0.00000000000E+00  0.00000000000E+00  0.11825843835E+03  0.11825843835E+03  0.00000000000E+00 0.  1.
         21   -1    0    0  501  502 -0.00000000000E+00 -0.00000000000E+00 -0.40698709175E+03  0.40698709175E+03  0.00000000000E+00 0.  1.
      99926    2    1    2    0    0 -0.88817841970E-15  0.00000000000E+00 -0.28872865340E+03  0.52524553011E+03  0.43876945154E+03 0.  0.
      99925    2    3    3    0    0  0.54109195389E+01  0.49465400544E+02 -0.84619551519E+02  0.28073758040E+03  0.26301524033E+03 0.  0.
         25    1    3    3    0    0 -0.54109195389E+01 -0.49465400544E+02 -0.20410910188E+03  0.24450794971E+03  0.12509000000E+03 0.  0.
         25    1    4    4    0    0  0.19111162852E+02 -0.12351623743E+02 -0.47274198644E+02  0.13564717878E+03  0.12509000000E+03 0.  0.
         25    1    4    4    0    0 -0.13700243313E+02  0.61817024287E+02 -0.37345352875E+02  0.14509040161E+03  0.12509000000E+03 0.  0.
<mgrwt>
<rscale>  2 0.43876945E+03</rscale>
<asrwt>0</asrwt>
<pdfrwt beam="1">  1       21 0.17390947E-01 0.43876945E+03</pdfrwt>
<pdfrwt beam="2">  1       21 0.59851043E-01 0.43876945E+03</pdfrwt>
<totfact> 0.72396088E+04</totfact>
</mgrwt>
</event>
<event>
 7    0  0.4691878E-002  0.4257612E+03  0.7546771E-02  0.1035207E+00
         21   -1    0    0  502  501  0.00000000000E+00  0.00000000000E+00  0.90149556054E+02  0.90149556054E+02  0.00000000000E+00 0.  1.
         21   -1    0    0  501  502 -0.00000000000E+00 -0.00000000000E+00 -0.50269954297E+03  0.50269954297E+03  0.00000000000E+00 0.  1.
      99926    2    1    2    0    0  0.00000000000E+00  0.00000000000E+00 -0.41254998692E+03  0.59284909903E+03  0.42576115665E+03 0.  0.
      99925    2    3    3    0    0  0.48187332361E+02  0.70723415932E+01 -0.17417696369E+03  0.31927782254E+03  0.26311342853E+03 0.  0.
         25    1    4    4    0    0  0.53180875497E+02  0.31666626843E+02 -0.81890893142E+02  0.16181658522E+03  0.12509000000E+03 0.  0.
         25    1    4    4    0    0 -0.49935431353E+01 -0.24594285250E+02 -0.92286070552E+02  0.15746123732E+03  0.12509000000E+03 0.  0.
         25    1    3    3    0    0 -0.48187332361E+02 -0.70723415932E+01 -0.23837302322E+03  0.27357127648E+03  0.12509000000E+03 0.  0.
<mgrwt>
<rscale>  2 0.42576116E+03</rscale>
<asrwt>0</asrwt>
<pdfrwt beam="1">  1       21 0.13257288E-01 0.42576116E+03</pdfrwt>
<pdfrwt beam="2">  1       21 0.73926403E-01 0.42576116E+03</pdfrwt>
<totfact> 0.75005084E+04</totfact>
</mgrwt>
</event>
<event>
 7    0  0.4691878E-002  0.4547519E+03  0.7546771E-02  0.1026314E+00
         21   -1    0    0  502  501  0.00000000000E+00  0.00000000000E+00  0.36858082160E+02  0.36858082160E+02  0.00000000000E+00 0.  1.
         21   -1    0    0  501  502 -0.00000000000E+00 -0.00000000000E+00 -0.14026723130E+04  0.14026723130E+04  0.00000000000E+00 0.  1.
      99926    2    1    2    0    0  0.00000000000E+00  0.00000000000E+00 -0.13658142309E+04  0.14395303952E+04  0.45475185039E+03 0.  0.
      99925    2    3    3    0    0  0.97163592272E+02  0.11416862819E+02 -0.68195873936E+03  0.73747843858E+03  0.26312661734E+03 0.  0.
         25    1    4    4    0    0  0.86249754153E+02 -0.12236571693E+02 -0.34859044527E+03  0.38046229828E+03  0.12509000000E+03 0.  0.
         25    1    3    3    0    0 -0.97163592272E+02 -0.11416862819E+02 -0.68385549153E+03  0.70205195663E+03  0.12509000000E+03 0.  0.
         25    1    4    4    0    0  0.10913838119E+02  0.23653434512E+02 -0.33336829409E+03  0.35701614029E+03  0.12509000000E+03 0.  0.
<mgrwt>
<rscale>  2 0.45475185E+03</rscale>
<asrwt>0</asrwt>
<pdfrwt beam="1">  1       21 0.54203061E-02 0.45475185E+03</pdfrwt>
<pdfrwt beam="2">  1       21 0.20627534E+00 0.45475185E+03</pdfrwt>
<totfact> 0.25346214E+04</totfact>
</mgrwt>
</event>
<event>
 7    0  0.4691878E-002  0.4002392E+03  0.7546771E-02  0.1043697E+00
         21   -1    0    0  502  501  0.00000000000E+00  0.00000000000E+00  0.15462436479E+03  0.15462436479E+03  0.00000000000E+00 0. -1.
         21   -1    0    0  501  502 -0.00000000000E+00 -0.00000000000E+00 -0.25900088596E+03  0.25900088596E+03  0.00000000000E+00 0. -1.
      99926    2    1    2    0    0  0.00000000000E+00  0.71054273576E-14 -0.10437652117E+03  0.41362525075E+03  0.40023916586E+03 0.  0.
      99925    2    3    3    0    0  0.10899653520E+02 -0.42199687611E+02 -0.85340002421E+02  0.27979882127E+03  0.26287801028E+03 0.  0.
         25    1    4    4    0    0 -0.42493263501E+01 -0.32155573380E+02 -0.82591563691E+02  0.15336528997E+03  0.12509000000E+03 0.  0.
         25    1    3    3    0    0 -0.10899653520E+02  0.42199687611E+02 -0.19036518751E+02  0.13382642948E+03  0.12509000000E+03 0.  0.
         25    1    4    4    0    0  0.15148979870E+02 -0.10044114231E+02 -0.27484387303E+01  0.12643353130E+03  0.12509000000E+03 0.  0.
<mgrwt>
<rscale>  2 0.40023917E+03</rscale>
<asrwt>0</asrwt>
<pdfrwt beam="1">  1       21 0.22738877E-01 0.40023917E+03</pdfrwt>
<pdfrwt beam="2">  1       21 0.38088365E-01 0.40023917E+03</pdfrwt>
<totfact> 0.11384325E+05</totfact>
</mgrwt>
</event>
<event>
 7    0  0.4691878E-002  0.4518447E+03  0.7546771E-02  0.1027173E+00
         21   -1    0    0  502  501  0.00000000000E+00  0.00000000000E+00  0.50773718172E+03  0.50773718172E+03  0.00000000000E+00 0. -1.
         21   -1    0    0  501  502 -0.00000000000E+00 -0.00000000000E+00 -0.10052625498E+03  0.10052625498E+03  0.00000000000E+00 0. -1.
      99926    2    1    2    0    0 -0.71054273576E-14  0.00000000000E+00  0.40721092673E+03  0.60826343670E+03  0.45184474056E+03 0.  0.
      99925    2    3    3    0    0  0.52571046995E+02 -0.85600057790E+02  0.19601716711E+03  0.34304391049E+03  0.26299298441E+03 0.  0.
         25    1    3    3    0    0 -0.52571046995E+02  0.85600057790E+02  0.21119375963E+03  0.26521952621E+03  0.12509000000E+03 0.  0.
         25    1    4    4    0    0  0.62615103315E+02 -0.34938779413E+02  0.80624030323E+02  0.16519416405E+03  0.12509000000E+03 0.  0.
         25    1    4    4    0    0 -0.10044056320E+02 -0.50661278377E+02  0.11539313678E+03  0.17784974645E+03  0.12509000000E+03 0.  0.
<mgrwt>
<rscale>  2 0.45184474E+03</rscale>
<asrwt>0</asrwt>
<pdfrwt beam="1">  1       21 0.74667232E-01 0.45184474E+03</pdfrwt>
<pdfrwt beam="2">  1       21 0.14783273E-01 0.45184474E+03</pdfrwt>
<totfact> 0.59645252E+04</totfact>
</mgrwt>
</event>
<event>
 7    0  0.4691878E-002  0.4547789E+03  0.7546771E-02  0.1026306E+00
         21   -1    0    0  502  501  0.00000000000E+00  0.00000000000E+00  0.54478990722E+02  0.54478990722E+02  0.00000000000E+00 0. -1.
         21   -1    0    0  501  502 -0.00000000000E+00 -0.00000000000E+00 -0.94909918675E+03  0.94909918675E+03  0.00000000000E+00 0. -1.
      99926    2    1    2    0    0 -0.35527136788E-14 -0.14210854715E-13 -0.89462019603E+03  0.10035781775E+04  0.45477891679E+03 0.  0.
      99925    2    3    3    0    0 -0.24242236485E+02  0.93037937468E+02 -0.43520276774E+03  0.51782553944E+03  0.26362491614E+03 0.  0.
         25    1    4    4    0    0 -0.23945205737E+02  0.87942085509E+02 -0.22307116930E+03  0.27150587094E+03  0.12509000000E+03 0.  0.
         25    1    3    3    0    0  0.24242236485E+02 -0.93037937468E+02 -0.45941742829E+03  0.48575263803E+03  0.12509000000E+03 0.  0.
         25    1    4    4    0    0 -0.29703074797E+00  0.50958519589E+01 -0.21213159844E+03  0.24631966851E+03  0.12509000000E+03 0.  0.
<mgrwt>
<rscale>  2 0.45477892E+03</rscale>
<asrwt>0</asrwt>
<pdfrwt beam="1">  1       21 0.80116166E-02 0.45477892E+03</pdfrwt>
<pdfrwt beam="2">  1       21 0.13957340E+00 0.45477892E+03</pdfrwt>
<totfact> 0.39095365E+04</totfact>
</mgrwt>
</event>
<event>
 7    0  0.4691878E-002  0.4690115E+03  0.7546771E-02  0.1022200E+00
         21   -1    0    0  502  501  0.00000000000E+00  0.00000000000E+00  0.17207558197E+03  0.17207558197E+03  0.00000000000E+00 0. -1.
         21   -1    0    0  501  502 -0.00000000000E+00 -0.00000000000E+00 -0.31958595180E+03  0.31958595180E+03  0.00000000000E+00 0. -1.
      99926    2    1    2    0    0  0.71054273576E-14  0.00000000000E+00 -0.14751036983E+03  0.49166153377E+03  0.46901146530E+03 0.  0.
      99925    2    3    3    0    0  0.41659870043E+02  0.56290207853E+02 -0.20136066599E+03  0.33852272494E+03  0.26295890406E+03 0.  0.
         25    1    3    3    0    0 -0.41659870043E+02 -0.56290207853E+02  0.53850296154E+02  0.15313880882E+03  0.12509000000E+03 0.  0.
         25    1    4    4    0    0 -0.12047724825E+02  0.51190309142E+02 -0.10699349496E+03  0.17280252164E+03  0.12509000000E+03 0.  0.
         25    1    4    4    0    0  0.53707594868E+02  0.50998987102E+01 -0.94367171031E+02  0.16572020330E+03  0.12509000000E+03 0.  0.
<mgrwt>
<rscale>  2 0.46901147E+03</rscale>
<asrwt>0</asrwt>
<pdfrwt beam="1">  1       21 0.25305233E-01 0.46901147E+03</pdfrwt>
<pdfrwt beam="2">  1       21 0.46997934E-01 0.46901147E+03</pdfrwt>
<totfact> 0.59018100E+04</totfact>
</mgrwt>
</event>
<event>
 7    0  0.4691878E-002  0.4710457E+03  0.7546771E-02  0.1021625E+00
         21   -1    0    0  502  501  0.00000000000E+00  0.00000000000E+00  0.44971027045E+03  0.44971027045E+03  0.00000000000E+00 0.  1.
         21   -1    0    0  501  502 -0.00000000000E+00 -0.00000000000E+00 -0.12334835193E+03  0.12334835193E+03  0.00000000000E+00 0.  1.
      99926    2    1    2    0    0  0.00000000000E+00  0.00000000000E+00  0.32636191853E+03  0.57305862238E+03  0.47104573326E+03 0.  0.
      99925    2    3    3    0    0  0.66103299424E+02  0.88328162506E+02  0.12446980386E+03  0.31118184878E+03  0.26300171188E+03 0.  0.
         25    1    4    4    0    0 -0.58743888609E+01  0.36544383596E+02  0.72744780230E+02  0.14936301941E+03  0.12509000000E+03 0.  0.
         25    1    4    4    0    0  0.71977688285E+02  0.51783778910E+02  0.51725023632E+02  0.16181882937E+03  0.12509000000E+03 0.  0.
         25    1    3    3    0    0 -0.66103299424E+02 -0.88328162506E+02  0.20189211466E+03  0.26187677360E+03  0.12509000000E+03 0.  0.
<mgrwt>
<rscale>  2 0.47104573E+03</rscale>
<asrwt>0</asrwt>
<pdfrwt beam="1">  1       21 0.66133863E-01 0.47104573E+03</pdfrwt>
<pdfrwt beam="2">  1       21 0.18139464E-01 0.47104573E+03</pdfrwt>
<totfact> 0.53279040E+04</totfact>
</mgrwt>
</event>
<event>
 7    0  0.4691878E-002  0.4557465E+03  0.7546771E-02  0.1026022E+00
         21   -1    0    0  502  501  0.00000000000E+00  0.00000000000E+00  0.57170672266E+02  0.57170672266E+02  0.00000000000E+00 0. -1.
         21   -1    0    0  501  502 -0.00000000000E+00 -0.00000000000E+00 -0.90826664104E+03  0.90826664104E+03  0.00000000000E+00 0. -1.
      99926    2    1    2    0    0  0.00000000000E+00  0.14210854715E-13 -0.85109596877E+03  0.96543731330E+03  0.45574648420E+03 0.  0.
      99925    2    3    3    0    0 -0.17975533804E+02 -0.11020518405E+03 -0.58286025599E+03  0.64910488038E+03  0.26295011944E+03 0.  0.
         25    1    4    4    0    0 -0.24749141052E+02 -0.93597439240E+02 -0.35239157958E+03  0.38626459076E+03  0.12509000000E+03 0.  0.
         25    1    3    3    0    0  0.17975533804E+02  0.11020518405E+03 -0.26823571278E+03  0.31633243292E+03  0.12509000000E+03 0.  0.
         25    1    4    4    0    0  0.67736072475E+01 -0.16607744809E+02 -0.23046867641E+03  0.26284028962E+03  0.12509000000E+03 0.  0.
<mgrwt>
<rscale>  2 0.45574648E+03</rscale>
<asrwt>0</asrwt>
<pdfrwt beam="1">  1       21 0.84074518E-02 0.45574648E+03</pdfrwt>
<pdfrwt beam="2">  1       21 0.13356862E+00 0.45574648E+03</pdfrwt>
<totfact> 0.40286338E+04</totfact>
</mgrwt>
</event>
<event>
 6    0  0.4691878E-002  0.4703282E+03  0.7546771E-02  0.1021828E+00
         21   -1    0    0  502  501  0.00000000000E+00  0.00000000000E+00  0.24532252565E+03  0.24532252565E+03  0.00000000000E+00 0. -1.
         21   -1    0    0  501  502 -0.00000000000E+00 -0.00000000000E+00 -0.22542633972E+03  0.22542633972E+03  0.00000000000E+00 0. -1.
      99926    2    1    2    0    0  0.00000000000E+00  0.00000000000E+00  0.19896185931E+02  0.47074886537E+03  0.47032822159E+03 0.  0.
         25    1    3    3    0    0 -0.31188142422E+02  0.33679998561E+02 -0.36244850349E+02  0.13808779746E+03  0.12509000000E+03 0.  0.
         25    1    3    3    0    0  0.90080650998E+02 -0.69663116603E+02 -0.20733792693E+02  0.17042556075E+03  0.12509000000E+03 0.  0.
         25    1    3    3    0    0 -0.58892508576E+02  0.35983118042E+02  0.76874828973E+02  0.16223550715E+03  0.12509000000E+03 0.  0.
<mgrwt>
<rscale>  2 0.47032822E+03</rscale>
<asrwt>0</asrwt>
<pdfrwt beam="1">  1       21 0.36076842E-01 0.47032822E+03</pdfrwt>
<pdfrwt beam="2">  1       21 0.33150932E-01 0.47032822E+03</pdfrwt>
<totfact> 0.59757381E+04</totfact>
</mgrwt>
</event>
<event>
 7    0  0.4691878E-002  0.4646122E+03  0.7546771E-02  0.1023452E+00
         21   -1    0    0  502  501  0.00000000000E+00  0.00000000000E+00  0.97581810009E+02  0.97581810009E+02  0.00000000000E+00 0.  1.
         21   -1    0    0  501  502 -0.00000000000E+00 -0.00000000000E+00 -0.55303466311E+03  0.55303466311E+03  0.00000000000E+00 0.  1.
      99926    2    1    2    0    0  0.71054273576E-14  0.00000000000E+00 -0.45545285310E+03  0.65061647312E+03  0.46461219710E+03 0.  0.
      99925    2    3    3    0    0  0.58250541841E+02  0.39157614622E+02 -0.14396012635E+03  0.30768547229E+03  0.26271541157E+03 0.  0.
         25    1    4    4    0    0  0.70167151258E+02  0.20074662916E+02 -0.77917150049E+02  0.16445367609E+03  0.12509000000E+03 0.  0.
         25    1    3    3    0    0 -0.58250541841E+02 -0.39157614622E+02 -0.31149272675E+03  0.34293100083E+03  0.12509000000E+03 0.  0.
         25    1    4    4    0    0 -0.11916609417E+02  0.19082951706E+02 -0.66042976300E+02  0.14323179621E+03  0.12509000000E+03 0.  0.
<mgrwt>
<rscale>  2 0.46461220E+03</rscale>
<asrwt>0</asrwt>
<pdfrwt beam="1">  1       21 0.14350267E-01 0.46461220E+03</pdfrwt>
<pdfrwt beam="2">  1       21 0.81328624E-01 0.46461220E+03</pdfrwt>
<totfact> 0.51637243E+04</totfact>
</mgrwt>
</event>
<event>
 7    0  0.4691878E-002  0.4553609E+03  0.7546771E-02  0.1026135E+00
         21   -1    0    0  502  501  0.00000000000E+00  0.00000000000E+00  0.60153406194E+03  0.60153406194E+03  0.00000000000E+00 0. -1.
         21   -1    0    0  501  502 -0.00000000000E+00 -0.00000000000E+00 -0.86176977810E+02  0.86176977810E+02  0.00000000000E+00 0. -1.
      99926    2    1    2    0    0  0.14210854715E-13 -0.35527136788E-14  0.51535708413E+03  0.68771103975E+03  0.45536090086E+03 0.  0.
      99925    2    3    3    0    0 -0.11036299931E+03  0.16874647841E+02  0.35529442397E+03  0.45590873469E+03  0.26297129368E+03 0.  0.
         25    1    4    4    0    0 -0.79541260082E+02  0.17221253076E+02  0.24217153587E+03  0.28446079607E+03  0.12509000000E+03 0.  0.
         25    1    3    3    0    0  0.11036299931E+03 -0.16874647841E+02  0.16006266015E+03  0.23180230506E+03  0.12509000000E+03 0.  0.
         25    1    4    4    0    0 -0.30821739227E+02 -0.34660523471E+00  0.11312288810E+03  0.17144793862E+03  0.12509000000E+03 0.  0.
<mgrwt>
<rscale>  2 0.45536090E+03</rscale>
<asrwt>0</asrwt>
<pdfrwt beam="1">  1       21 0.88460890E-01 0.45536090E+03</pdfrwt>
<pdfrwt beam="2">  1       21 0.12673085E-01 0.45536090E+03</pdfrwt>
<totfact> 0.53423468E+04</totfact>
</mgrwt>
</event>
<event>
 7    0  0.4691878E-002  0.4482327E+03  0.7546771E-02  0.1028250E+00
         21   -1    0    0  502  501  0.00000000000E+00  0.00000000000E+00  0.26638490241E+03  0.26638490241E+03  0.00000000000E+00 0. -1.
         21   -1    0    0  501  502 -0.00000000000E+00 -0.00000000000E+00 -0.18855471624E+03  0.18855471624E+03  0.00000000000E+00 0. -1.
      99926    2    1    2    0    0  0.88817841970E-15 -0.14210854715E-13  0.77830186170E+02  0.45493961865E+03  0.44823266139E+03 0.  0.
      99925    2    3    3    0    0  0.79086275552E+01 -0.91305459041E+02  0.10441105077E+03  0.29760785547E+03  0.26319106154E+03 0.  0.
         25    1    3    3    0    0 -0.79086275552E+01  0.91305459041E+02 -0.26580864599E+02  0.15733176317E+03  0.12509000000E+03 0.  0.
         25    1    4    4    0    0 -0.32690946956E+02 -0.37225590660E+02  0.68342531360E+02  0.15090610427E+03  0.12509000000E+03 0.  0.
         25    1    4    4    0    0  0.40599574511E+02 -0.54079868381E+02  0.36068519409E+02  0.14670175121E+03  0.12509000000E+03 0.  0.
<mgrwt>
<rscale>  2 0.44823266E+03</rscale>
<asrwt>0</asrwt>
<pdfrwt beam="1">  1       21 0.39174251E-01 0.44823266E+03</pdfrwt>
<pdfrwt beam="2">  1       21 0.27728634E-01 0.44823266E+03</pdfrwt>
<totfact> 0.72378560E+04</totfact>
</mgrwt>
</event>
<event>
 7    0  0.4691878E-002  0.4563900E+03  0.7546771E-02  0.1025833E+00
         21   -1    0    0  502  501  0.00000000000E+00  0.00000000000E+00  0.19738052516E+03  0.19738052516E+03  0.00000000000E+00 0.  1.
         21   -1    0    0  501  502 -0.00000000000E+00 -0.00000000000E+00 -0.26382012185E+03  0.26382012185E+03  0.00000000000E+00 0.  1.
      99926    2    1    2    0    0  0.71054273576E-14  0.00000000000E+00 -0.66439596683E+02  0.46120064701E+03  0.45638998323E+03 0.  0.
      99925    2    3    3    0    0  0.42836766651E+02  0.73905361433E+02 -0.11851436843E+03  0.30102486551E+03  0.26319825818E+03 0.  0.
         25    1    3    3    0    0 -0.42836766651E+02 -0.73905361433E+02  0.52074771742E+02  0.16017578150E+03  0.12509000000E+03 0.  0.
         25    1    4    4    0    0  0.48057034965E+02  0.70188032520E+02 -0.59318124001E+02  0.16248688087E+03  0.12509000000E+03 0.  0.
         25    1    4    4    0    0 -0.52202683136E+01  0.37173289132E+01 -0.59196244425E+02  0.13853798465E+03  0.12509000000E+03 0.  0.
<mgrwt>
<rscale>  2 0.45638998E+03</rscale>
<asrwt>0</asrwt>
<pdfrwt beam="1">  1       21 0.29026548E-01 0.45638998E+03</pdfrwt>
<pdfrwt beam="2">  1       21 0.38797076E-01 0.45638998E+03</pdfrwt>
<totfact> 0.67343578E+04</totfact>
</mgrwt>
</event>
<event>
 7    0  0.4691878E-002  0.4525809E+03  0.7546771E-02  0.1026955E+00
         21   -1    0    0  502  501  0.00000000000E+00  0.00000000000E+00  0.57662931697E+03  0.57662931697E+03  0.00000000000E+00 0. -1.
         21   -1    0    0  501  502 -0.00000000000E+00 -0.00000000000E+00 -0.88804655088E+02  0.88804655088E+02  0.00000000000E+00 0. -1.
      99926    2    1    2    0    0  0.00000000000E+00  0.00000000000E+00  0.48782466188E+03  0.66543397205E+03  0.45258089932E+03 0.  0.
      99925    2    3    3    0    0  0.21686952030E+02 -0.95027363965E+02  0.38507846442E+03  0.47647679970E+03  0.26314291384E+03 0.  0.
         25    1    4    4    0    0  0.42020465411E+02 -0.60887209406E+02  0.24227135512E+03  0.28251706036E+03  0.12509000000E+03 0.  0.
         25    1    4    4    0    0 -0.20333513381E+02 -0.34140154559E+02  0.14280710929E+03  0.19395973934E+03  0.12509000000E+03 0.  0.
         25    1    3    3    0    0 -0.21686952030E+02  0.95027363965E+02  0.10274619746E+03  0.18895717235E+03  0.12509000000E+03 0.  0.
<mgrwt>
<rscale>  2 0.45258090E+03</rscale>
<asrwt>0</asrwt>
<pdfrwt beam="1">  1       21 0.84798427E-01 0.45258090E+03</pdfrwt>
<pdfrwt beam="2">  1       21 0.13059508E-01 0.45258090E+03</pdfrwt>
<totfact> 0.55878099E+04</totfact>
</mgrwt>
</event>
<event>
 7    0  0.4691878E-002  0.4521421E+03  0.7546771E-02  0.1027085E+00
         21   -1    0    0  502  501  0.00000000000E+00  0.00000000000E+00  0.93691046240E+02  0.93691046240E+02  0.00000000000E+00 0.  1.
         21   -1    0    0  501  502 -0.00000000000E+00 -0.00000000000E+00 -0.54549626291E+03  0.54549626291E+03  0.00000000000E+00 0.  1.
      99926    2    1    2    0    0  0.00000000000E+00  0.00000000000E+00 -0.45180521667E+03  0.63918730915E+03  0.45214208206E+03 0.  0.
      99925    2    3    3    0    0 -0.27696531238E+02  0.84672680516E+02 -0.37741435469E+03  0.46854713476E+03  0.26297958420E+03 0.  0.
         25    1    4    4    0    0 -0.82994133309E+01  0.51134019943E+01 -0.20487257052E+03  0.24024009947E+03  0.12509000000E+03 0.  0.
         25    1    3    3    0    0  0.27696531238E+02 -0.84672680516E+02 -0.74390861985E+02  0.17064017439E+03  0.12509000000E+03 0.  0.
         25    1    4    4    0    0 -0.19397117907E+02  0.79559278522E+02 -0.17254178417E+03  0.22830703530E+03  0.12509000000E+03 0.  0.
<mgrwt>
<rscale>  2 0.45214208E+03</rscale>
<asrwt>0</asrwt>
<pdfrwt beam="1">  1       21 0.13778095E-01 0.45214208E+03</pdfrwt>
<pdfrwt beam="2">  1       21 0.80220038E-01 0.45214208E+03</pdfrwt>
<totfact> 0.57617258E+04</totfact>
</mgrwt>
</event>
<event>
 7    0  0.4691878E-002  0.4535980E+03  0.7546771E-02  0.1026655E+00
         21   -1    0    0  502  501  0.00000000000E+00  0.00000000000E+00  0.89590411576E+02  0.89590411576E+02  0.00000000000E+00 0. -1.
         21   -1    0    0  501  502 -0.00000000000E+00 -0.00000000000E+00 -0.57414377336E+03  0.57414377336E+03  0.00000000000E+00 0. -1.
      99926    2    1    2    0    0  0.00000000000E+00  0.35527136788E-14 -0.48455336178E+03  0.66373418493E+03  0.45359795837E+03 0.  0.
      99925    2    3    3    0    0  0.94828040018E+02 -0.13749179510E+02 -0.38972921589E+03  0.47983061277E+03  0.26299649831E+03 0.  0.
         25    1    4    4    0    0  0.60009229171E+02  0.31726638213E+02 -0.20005039893E+03  0.24551040176E+03  0.12509000000E+03 0.  0.
         25    1    3    3    0    0 -0.94828040018E+02  0.13749179510E+02 -0.94824145895E+02  0.18390357217E+03  0.12509000000E+03 0.  0.
         25    1    4    4    0    0  0.34818810847E+02 -0.45475817723E+02 -0.18967881695E+03  0.23432021101E+03  0.12509000000E+03 0.  0.
<mgrwt>
<rscale>  2 0.45359796E+03</rscale>
<asrwt>0</asrwt>
<pdfrwt beam="1">  1       21 0.13175060E-01 0.45359796E+03</pdfrwt>
<pdfrwt beam="2">  1       21 0.84432909E-01 0.45359796E+03</pdfrwt>
<totfact> 0.55527578E+04</totfact>
</mgrwt>
</event>
<event>
 7    0  0.4691878E-002  0.4567893E+03  0.7546771E-02  0.1025717E+00
         21   -1    0    0  502  501  0.00000000000E+00  0.00000000000E+00  0.51904728839E+02  0.51904728839E+02  0.00000000000E+00 0.  1.
         21   -1    0    0  501  502 -0.00000000000E+00 -0.00000000000E+00 -0.10049972848E+04  0.10049972848E+04  0.00000000000E+00 0.  1.
      99926    2    1    2    0    0  0.00000000000E+00  0.00000000000E+00 -0.95309255598E+03  0.10569020137E+04  0.45678927988E+03 0.  0.
      99925    2    3    3    0    0  0.66672169784E+02 -0.83385573491E+02 -0.69924002263E+03  0.75443391802E+03  0.26236538515E+03 0.  0.
         25    1    3    3    0    0 -0.66672169784E+02  0.83385573491E+02 -0.25385253336E+03  0.30246809564E+03  0.12509000000E+03 0.  0.
         25    1    4    4    0    0  0.71873023729E+02 -0.46313102269E+02 -0.40945219535E+03  0.43658818509E+03  0.12509000000E+03 0.  0.
         25    1    4    4    0    0 -0.52008539449E+01 -0.37072471223E+02 -0.28978782728E+03  0.31784573293E+03  0.12509000000E+03 0.  0.
<mgrwt>
<rscale>  2 0.45678928E+03</rscale>
<asrwt>0</asrwt>
<pdfrwt beam="1">  1       21 0.76330489E-02 0.45678928E+03</pdfrwt>
<pdfrwt beam="2">  1       21 0.14779371E+00 0.45678928E+03</pdfrwt>
<totfact> 0.36512587E+04</totfact>
</mgrwt>
</event>
<event>
 7    0  0.4691878E-002  0.4502847E+03  0.7546771E-02  0.1027637E+00
         21   -1    0    0  502  501  0.00000000000E+00  0.00000000000E+00  0.31639315386E+03  0.31639315386E+03  0.00000000000E+00 0.  1.
         21   -1    0    0  501  502 -0.00000000000E+00 -0.00000000000E+00 -0.16020912052E+03  0.16020912052E+03  0.00000000000E+00 0.  1.
      99926    2    1    2    0    0 -0.14210854715E-13  0.00000000000E+00  0.15618403333E+03  0.47660227438E+03  0.45028466072E+03 0.  0.
      99925    2    3    3    0    0 -0.86942958521E+02 -0.35095166235E+02  0.15658837437E+03  0.32027434879E+03  0.26318242869E+03 0.  0.
         25    1    3    3    0    0  0.86942958521E+02  0.35095166235E+02 -0.40434104087E+00  0.15632792560E+03  0.12509000000E+03 0.  0.
         25    1    4    4    0    0 -0.76329932079E+02 -0.45426284064E+02  0.85380681914E+02  0.17557669196E+03  0.12509000000E+03 0.  0.
         25    1    4    4    0    0 -0.10613026442E+02  0.10331117830E+02  0.71207692458E+02  0.14469765683E+03  0.12509000000E+03 0.  0.
<mgrwt>
<rscale>  2 0.45028466E+03</rscale>
<asrwt>0</asrwt>
<pdfrwt beam="1">  1       21 0.46528405E-01 0.45028466E+03</pdfrwt>
<pdfrwt beam="2">  1       21 0.23560165E-01 0.45028466E+03</pdfrwt>
<totfact> 0.69513744E+04</totfact>
</mgrwt>
</event>
<event>
 7    0  0.4691878E-002  0.4540393E+03  0.7546771E-02  0.1026524E+00
         21   -1    0    0  502  501  0.00000000000E+00  0.00000000000E+00  0.12553976364E+03  0.12553976364E+03  0.00000000000E+00 0.  1.
         21   -1    0    0  501  502 -0.00000000000E+00 -0.00000000000E+00 -0.41053064892E+03  0.41053064892E+03  0.00000000000E+00 0.  1.
      99926    2    1    2    0    0  0.35527136788E-14  0.00000000000E+00 -0.28499088527E+03  0.53607041256E+03  0.45403929624E+03 0.  0.
      99925    2    3    3    0    0 -0.29627448221E+02  0.22178178242E+02 -0.54468246993E+02  0.27119713694E+03  0.26308067180E+03 0.  0.
         25    1    4    4    0    0 -0.24120455713E+02 -0.28440356042E+01  0.10638627958E+02  0.12786936078E+03  0.12509000000E+03 0.  0.
         25    1    3    3    0    0  0.29627448221E+02 -0.22178178242E+02 -0.23052263828E+03  0.26487327562E+03  0.12509000000E+03 0.  0.
         25    1    4    4    0    0 -0.55069925088E+01  0.25022213846E+02 -0.65106874952E+02  0.14332777616E+03  0.12509000000E+03 0.  0.
<mgrwt>
<rscale>  2 0.45403930E+03</rscale>
<asrwt>0</asrwt>
<pdfrwt beam="1">  1       21 0.18461730E-01 0.45403930E+03</pdfrwt>
<pdfrwt beam="2">  1       21 0.60372154E-01 0.45403930E+03</pdfrwt>
<totfact> 0.63276243E+04</totfact>
</mgrwt>
</event>
<event>
 7    0  0.4691878E-002  0.4490028E+03  0.7546771E-02  0.1028020E+00
         21   -1    0    0  502  501  0.00000000000E+00  0.00000000000E+00  0.10758137095E+04  0.10758137095E+04  0.00000000000E+00 0.  1.
         21   -1    0    0  501  502 -0.00000000000E+00 -0.00000000000E+00 -0.46849083683E+02  0.46849083683E+02  0.00000000000E+00 0.  1.
      99926    2    1    2    0    0  0.00000000000E+00  0.00000000000E+00  0.10289646258E+04  0.11226627932E+04  0.44900283519E+03 0.  0.
      99925    2    3    3    0    0  0.45191721654E+02 -0.62592241946E+02  0.84120854453E+03  0.88420958054E+03  0.26121769938E+03 0.  0.
         25    1    4    4    0    0  0.12714175134E+02 -0.44434145942E+02  0.31512697756E+03  0.34218206216E+03  0.12509000000E+03 0.  0.
         25    1    3    3    0    0 -0.45191721654E+02  0.62592241946E+02  0.18775608126E+03  0.23845321262E+03  0.12509000000E+03 0.  0.
         25    1    4    4    0    0  0.32477546520E+02 -0.18158096004E+02  0.52608156697E+03  0.54202751838E+03  0.12509000000E+03 0.  0.
<mgrwt>
<rscale>  2 0.44900284E+03</rscale>
<asrwt>0</asrwt>
<pdfrwt beam="1">  1       21 0.15820788E+00 0.44900284E+03</pdfrwt>
<pdfrwt beam="2">  1       21 0.68895718E-02 0.44900284E+03</pdfrwt>
<totfact> 0.36379656E+04</totfact>
</mgrwt>
</event>
<event>
 7    0  0.4691878E-002  0.4549157E+03  0.7546771E-02  0.1026266E+00
         21   -1    0    0  502  501  0.00000000000E+00  0.00000000000E+00  0.10195508695E+03  0.10195508695E+03  0.00000000000E+00 0.  1.
         21   -1    0    0  501  502 -0.00000000000E+00 -0.00000000000E+00 -0.50744965713E+03  0.50744965713E+03  0.00000000000E+00 0.  1.
      99926    2    1    2    0    0  0.14210854715E-13  0.35527136788E-14 -0.40549457018E+03  0.60940474407E+03  0.45491570170E+03 0.  0.
      99925    2    3    3    0    0  0.75008139581E+02  0.23033279110E+02 -0.14598585766E+03  0.31082639100E+03  0.26295326915E+03 0.  0.
         25    1    3    3    0    0 -0.75008139581E+02 -0.23033279110E+02 -0.25950871253E+03  0.29857835308E+03  0.12509000000E+03 0.  0.
         25    1    4    4    0    0  0.23192756710E+02 -0.36178285872E+01 -0.30484848936E+02  0.13087332334E+03  0.12509000000E+03 0.  0.
         25    1    4    4    0    0  0.51815382871E+02  0.26651107697E+02 -0.11550100872E+03  0.17995306766E+03  0.12509000000E+03 0.  0.
<mgrwt>
<rscale>  2 0.45491570E+03</rscale>
<asrwt>0</asrwt>
<pdfrwt beam="1">  1       21 0.14993395E-01 0.45491570E+03</pdfrwt>
<pdfrwt beam="2">  1       21 0.74624950E-01 0.45491570E+03</pdfrwt>
<totfact> 0.58141791E+04</totfact>
</mgrwt>
</event>
<event>
 7    0  0.4691878E-002  0.4555251E+03  0.7546771E-02  0.1026087E+00
         21   -1    0    0  502  501  0.00000000000E+00  0.00000000000E+00  0.10878490767E+03  0.10878490767E+03  0.00000000000E+00 0. -1.
         21   -1    0    0  501  502 -0.00000000000E+00 -0.00000000000E+00 -0.47686550232E+03  0.47686550232E+03  0.00000000000E+00 0. -1.
      99926    2    1    2    0    0  0.00000000000E+00  0.00000000000E+00 -0.36808059465E+03  0.58565040999E+03  0.45552505812E+03 0.  0.
      99925    2    3    3    0    0 -0.26781862804E+02  0.79406206579E+02 -0.13281478259E+03  0.30632958327E+03  0.26301223031E+03 0.  0.
         25    1    4    4    0    0  0.34745595845E+01  0.53739125072E+01 -0.80593405855E+02  0.14894212523E+03  0.12509000000E+03 0.  0.
         25    1    4    4    0    0 -0.30256422388E+02  0.74032294072E+02 -0.52221376732E+02  0.15738745804E+03  0.12509000000E+03 0.  0.
         25    1    3    3    0    0  0.26781862804E+02 -0.79406206579E+02 -0.23526581206E+03  0.27932082672E+03  0.12509000000E+03 0.  0.
<mgrwt>
<rscale>  2 0.45552506E+03</rscale>
<asrwt>0</asrwt>
<pdfrwt beam="1">  1       21 0.15997780E-01 0.45552506E+03</pdfrwt>
<pdfrwt beam="2">  1       21 0.70127281E-01 0.45552506E+03</pdfrwt>
<totfact> 0.59323733E+04</totfact>
</mgrwt>
</event>
<event>
 7    0  0.4691878E-002  0.4567753E+03  0.7546771E-02  0.1025721E+00
         21   -1    0    0  502  501  0.00000000000E+00  0.00000000000E+00  0.11162024708E+04  0.11162024708E+04  0.00000000000E+00 0. -1.
         21   -1    0    0  501  502 -0.00000000000E+00 -0.00000000000E+00 -0.46730695247E+02  0.46730695247E+02  0.00000000000E+00 0. -1.
      99926    2    1    2    0    0 -0.71054273576E-14  0.00000000000E+00  0.10694717756E+04  0.11629331661E+04  0.45677529486E+03 0.  0.
      99925    2    3    3    0    0  0.62457791352E+02 -0.71588899085E+02  0.50727657326E+03  0.57920643225E+03  0.26291561993E+03 0.  0.
         25    1    4    4    0    0  0.69770899274E+02 -0.51319936218E+02  0.29325277796E+03  0.33037314376E+03  0.12509000000E+03 0.  0.
         25    1    3    3    0    0 -0.62457791352E+02  0.71588899085E+02  0.56219520234E+03  0.58372673384E+03  0.12509000000E+03 0.  0.
         25    1    4    4    0    0 -0.73131079219E+01 -0.20268962867E+02  0.21402379530E+03  0.24883328849E+03  0.12509000000E+03 0.  0.
<mgrwt>
<rscale>  2 0.45677529E+03</rscale>
<asrwt>0</asrwt>
<pdfrwt beam="1">  1       21 0.16414740E+00 0.45677529E+03</pdfrwt>
<pdfrwt beam="2">  1       21 0.68721618E-02 0.45677529E+03</pdfrwt>
<totfact> 0.32896026E+04</totfact>
</mgrwt>
</event>
<event>
 7    0  0.4691878E-002  0.4175765E+03  0.7546771E-02  0.1037858E+00
         21   -1    0    0  502  501  0.00000000000E+00  0.00000000000E+00  0.25443584139E+04  0.25443584139E+04  0.00000000000E+00 0.  1.
         21   -1    0    0  501  502 -0.00000000000E+00 -0.00000000000E+00 -0.17133011953E+02  0.17133011953E+02  0.00000000000E+00 0.  1.
      99926    2    1    2    0    0  0.00000000000E+00  0.71054273576E-14  0.25272254019E+04  0.25614914258E+04  0.41757645105E+03 0.  0.
      99925    2    3    3    0    0 -0.20309197802E+02  0.48786969673E+02  0.13444658209E+04  0.13709619779E+04  0.26297484517E+03 0.  0.
         25    1    3    3    0    0  0.20309197802E+02 -0.48786969673E+02  0.11827595810E+04  0.11905294480E+04  0.12509000000E+03 0.  0.
         25    1    4    4    0    0 -0.17297674403E+02  0.44178592050E+02  0.51474374131E+03  0.53184545204E+03  0.12509000000E+03 0.  0.
         25    1    4    4    0    0 -0.30115233993E+01  0.46083776224E+01  0.82972207960E+03  0.83911652581E+03  0.12509000000E+03 0.  0.
<mgrwt>
<rscale>  2 0.41757645E+03</rscale>
<asrwt>0</asrwt>
<pdfrwt beam="1">  1       21 0.37417009E+00 0.41757645E+03</pdfrwt>
<pdfrwt beam="2">  1       21 0.25195623E-02 0.41757645E+03</pdfrwt>
<totfact> 0.88244351E+03</totfact>
</mgrwt>
</event>
<event>
 7    0  0.4691878E-002  0.4496892E+03  0.7546771E-02  0.1027815E+00
         21   -1    0    0  502  501  0.00000000000E+00  0.00000000000E+00  0.28385632779E+03  0.28385632779E+03  0.00000000000E+00 0. -1.
         21   -1    0    0  501  502 -0.00000000000E+00 -0.00000000000E+00 -0.17810097191E+03  0.17810097191E+03  0.00000000000E+00 0. -1.
      99926    2    1    2    0    0  0.14210854715E-13  0.00000000000E+00  0.10575535587E+03  0.46195729970E+03  0.44968917204E+03 0.  0.
      99925    2    3    3    0    0 -0.84727152314E+02  0.28551766763E+02  0.45727382312E+01  0.27789393035E+03  0.26307837780E+03 0.  0.
         25    1    4    4    0    0 -0.68866863028E+02  0.18327613824E+01  0.31455254401E+02  0.14622908386E+03  0.12509000000E+03 0.  0.
         25    1    4    4    0    0 -0.15860289286E+02  0.26719005381E+02 -0.26882516170E+02  0.13166484649E+03  0.12509000000E+03 0.  0.
         25    1    3    3    0    0  0.84727152314E+02 -0.28551766763E+02  0.10118261764E+03  0.18406336935E+03  0.12509000000E+03 0.  0.
<mgrwt>
<rscale>  2 0.44968917E+03</rscale>
<asrwt>0</asrwt>
<pdfrwt beam="1">  1       21 0.41743578E-01 0.44968917E+03</pdfrwt>
<pdfrwt beam="2">  1       21 0.26191319E-01 0.44968917E+03</pdfrwt>
<totfact> 0.70982235E+04</totfact>
</mgrwt>
</event>
<event>
 7    0  0.4691878E-002  0.4526728E+03  0.7546771E-02  0.1026928E+00
         21   -1    0    0  502  501  0.00000000000E+00  0.00000000000E+00  0.27331182046E+03  0.27331182046E+03  0.00000000000E+00 0. -1.
         21   -1    0    0  501  502 -0.00000000000E+00 -0.00000000000E+00 -0.18743487121E+03  0.18743487121E+03  0.00000000000E+00 0. -1.
      99926    2    1    2    0    0  0.14210854715E-13 -0.88817841970E-15  0.85876949246E+02  0.46074669167E+03  0.45267279958E+03 0.  0.
      99925    2    3    3    0    0  0.95664796662E+02 -0.48596897608E+01  0.11124153686E+03  0.30116523815E+03  0.26296473383E+03 0.  0.
         25    1    4    4    0    0  0.68852161790E+01  0.98068490576E+01  0.54222554829E+02  0.13686187944E+03  0.12509000000E+03 0.  0.
         25    1    3    3    0    0 -0.95664796662E+02  0.48596897608E+01 -0.25364587617E+02  0.15958145353E+03  0.12509000000E+03 0.  0.
         25    1    4    4    0    0  0.88779580483E+02 -0.14666538818E+02  0.57018982034E+02  0.16430335871E+03  0.12509000000E+03 0.  0.
<mgrwt>
<rscale>  2 0.45267280E+03</rscale>
<asrwt>0</asrwt>
<pdfrwt beam="1">  1       21 0.40192915E-01 0.45267280E+03</pdfrwt>
<pdfrwt beam="2">  1       21 0.27563951E-01 0.45267280E+03</pdfrwt>
<totfact> 0.69402122E+04</totfact>
</mgrwt>
</event>
<event>
 7    0  0.4691878E-002  0.4536880E+03  0.7546771E-02  0.1026628E+00
         21   -1    0    0  502  501  0.00000000000E+00  0.00000000000E+00  0.16523479800E+04  0.16523479800E+04  0.00000000000E+00 0.  1.
         21   -1    0    0  501  502 -0.00000000000E+00 -0.00000000000E+00 -0.31142465742E+02  0.31142465742E+02  0.00000000000E+00 0.  1.
      99926    2    1    2    0    0  0.14210854715E-13  0.71054273576E-14  0.16212055143E+04  0.16834904458E+04  0.45368795603E+03 0.  0.
      99925    2    3    3    0    0 -0.75439921825E+02 -0.60030018383E+02  0.12327462900E+04  0.12641542299E+04  0.26292150261E+03 0.  0.
         25    1    4    4    0    0 -0.22031447645E+02 -0.45923458284E+02  0.46063959491E+03  0.48003197103E+03  0.12509000000E+03 0.  0.
         25    1    4    4    0    0 -0.53408474180E+02 -0.14106560099E+02  0.77210669511E+03  0.78412225889E+03  0.12509000000E+03 0.  0.
         25    1    3    3    0    0  0.75439921825E+02  0.60030018383E+02  0.38845922428E+03  0.41933621587E+03  0.12509000000E+03 0.  0.
<mgrwt>
<rscale>  2 0.45368796E+03</rscale>
<asrwt>0</asrwt>
<pdfrwt beam="1">  1       21 0.24299229E+00 0.45368796E+03</pdfrwt>
<pdfrwt beam="2">  1       21 0.45797755E-02 0.45368796E+03</pdfrwt>
<totfact> 0.19808308E+04</totfact>
</mgrwt>
</event>
<event>
 7    0  0.4691878E-002  0.4506970E+03  0.7546771E-02  0.1027514E+00
         21   -1    0    0  502  501  0.00000000000E+00  0.00000000000E+00  0.26533683303E+02  0.26533683303E+02  0.00000000000E+00 0. -1.
         21   -1    0    0  501  502 -0.00000000000E+00 -0.00000000000E+00 -0.19138671458E+04  0.19138671458E+04  0.00000000000E+00 0. -1.
      99926    2    1    2    0    0  0.00000000000E+00  0.00000000000E+00 -0.18873334625E+04  0.19404008291E+04  0.45069699236E+03 0.  0.
      99925    2    3    3    0    0  0.86690907716E+02  0.44312909410E+02 -0.14036530381E+04  0.14314084829E+04  0.26307688270E+03 0.  0.
         25    1    3    3    0    0 -0.86690907716E+02 -0.44312909410E+02 -0.48368042444E+03  0.50899234622E+03  0.12509000000E+03 0.  0.
         25    1    4    4    0    0  0.14517417281E+02 -0.94714490358E+01 -0.65318152513E+03  0.66527744335E+03  0.12509000000E+03 0.  0.
         25    1    4    4    0    0  0.72173490434E+02  0.53784358446E+02 -0.75047151295E+03  0.76613103957E+03  0.12509000000E+03 0.  0.
<mgrwt>
<rscale>  2 0.45069699E+03</rscale>
<asrwt>0</asrwt>
<pdfrwt beam="1">  1       21 0.39020117E-02 0.45069699E+03</pdfrwt>
<pdfrwt beam="2">  1       21 0.28145109E+00 0.45069699E+03</pdfrwt>
<totfact> 0.15209076E+04</totfact>
</mgrwt>
</event>
<event>
 7    0  0.4691878E-002  0.4620984E+03  0.7546771E-02  0.1024174E+00
         21   -1    0    0  502  501  0.00000000000E+00  0.00000000000E+00  0.45955942920E+03  0.45955942920E+03  0.00000000000E+00 0.  1.
         21   -1    0    0  501  502 -0.00000000000E+00 -0.00000000000E+00 -0.11616283844E+03  0.11616283844E+03  0.00000000000E+00 0.  1.
      99926    2    1    2    0    0  0.00000000000E+00  0.00000000000E+00  0.34339659076E+03  0.57572226764E+03  0.46209837796E+03 0.  0.
      99925    2    3    3    0    0  0.45622726220E+02 -0.68333948590E+02  0.10625014892E+03  0.29529954272E+03  0.26298624319E+03 0.  0.
         25    1    4    4    0    0  0.43353276309E+02 -0.21831075921E+02  0.18216057470E+02  0.13540840185E+03  0.12509000000E+03 0.  0.
         25    1    3    3    0    0 -0.45622726220E+02  0.68333948590E+02  0.23714644184E+03  0.28042272492E+03  0.12509000000E+03 0.  0.
         25    1    4    4    0    0  0.22694499108E+01 -0.46502872668E+02  0.88034091449E+02  0.15989114086E+03  0.12509000000E+03 0.  0.
<mgrwt>
<rscale>  2 0.46209838E+03</rscale>
<asrwt>0</asrwt>
<pdfrwt beam="1">  1       21 0.67582268E-01 0.46209838E+03</pdfrwt>
<pdfrwt beam="2">  1       21 0.17082771E-01 0.46209838E+03</pdfrwt>
<totfact> 0.56934669E+04</totfact>
</mgrwt>
</event>
<event>
 7    0  0.4691878E-002  0.4582179E+03  0.7546771E-02  0.1025299E+00
         21   -1    0    0  502  501  0.00000000000E+00  0.00000000000E+00  0.16676893395E+04  0.16676893395E+04  0.00000000000E+00 0. -1.
         21   -1    0    0  501  502 -0.00000000000E+00 -0.00000000000E+00 -0.31475228430E+02  0.31475228430E+02  0.00000000000E+00 0. -1.
      99926    2    1    2    0    0  0.00000000000E+00  0.00000000000E+00  0.16362141110E+04  0.16991645679E+04  0.45821786482E+03 0.  0.
      99925    2    3    3    0    0  0.79618744278E+02 -0.64712407701E+02  0.82126601168E+03  0.86831274422E+03  0.26260677770E+03 0.  0.
         25    1    4    4    0    0  0.79603940099E+01 -0.55922579277E+02  0.41871834260E+03  0.44063960475E+03  0.12509000000E+03 0.  0.
         25    1    4    4    0    0  0.71658350268E+02 -0.87898284242E+01  0.40254766907E+03  0.42767313947E+03  0.12509000000E+03 0.  0.
         25    1    3    3    0    0 -0.79618744278E+02  0.64712407701E+02  0.81494809935E+03  0.83085182366E+03  0.12509000000E+03 0.  0.
<mgrwt>
<rscale>  2 0.45821786E+03</rscale>
<asrwt>0</asrwt>
<pdfrwt beam="1">  1       21 0.24524837E+00 0.45821786E+03</pdfrwt>
<pdfrwt beam="2">  1       21 0.46287112E-02 0.45821786E+03</pdfrwt>
<totfact> 0.18804812E+04</totfact>
</mgrwt>
</event>
