<event>
 5    0  0.1116919E-004  0.7613963E+03  0.7546771E-02  0.9617639E-01
         21   -1    0    0  502  501  0.00000000000E+00  0.00000000000E+00  0.50542534027E+03  0.50542534027E+03  0.00000000000E+00 0. -1.
         21   -1    0    0  501  502 -0.00000000000E+00 -0.00000000000E+00 -0.28675072027E+03  0.28675072027E+03  0.00000000000E+00 0.  1.
         25    1    1    2    0    0 -0.57696063557E+02 -0.21936386009E+03  0.10123611811E+03  0.27811076674E+03  0.12509000000E+03 0.  0.
         25    1    1    2    0    0  0.26409976064E+02  0.31206012462E+03  0.47577425646E+02  0.34057323404E+03  0.12509000000E+03 0.  0.
         25    1    1    2    0    0  0.31286087493E+02 -0.92696264525E+02  0.69861076243E+02  0.17349205976E+03  0.12509000000E+03 0.  0.
<mgrwt>
<rscale>  2 0.76139630E+03</rscale>
<asrwt>0</asrwt>
<pdfrwt beam="1">  1       21 0.74327256E-01 0.76139630E+03</pdfrwt>
<pdfrwt beam="2">  1       21 0.42169223E-01 0.76139630E+03</pdfrwt>
<totfact> 0.72532008E+03</totfact>
</mgrwt>
</event>
<event>
 6    0  0.1116919E-004  0.8828126E+03  0.7546771E-02  0.9447325E-01
         21   -1    0    0  502  501  0.00000000000E+00  0.00000000000E+00  0.13149305328E+03  0.13149305328E+03  0.00000000000E+00 0.  1.
         21   -1    0    0  501  502 -0.00000000000E+00 -0.00000000000E+00 -0.14817477040E+04  0.14817477040E+04  0.00000000000E+00 0.  1.
      99926    2    1    2    0    0  0.15770962770E+03  0.10135822029E+03 -0.12619359489E+04  0.13711797801E+04  0.50249958675E+03 0.  0.
         25    1    3    3    0    0  0.26318303053E+03 -0.33197931807E+02 -0.49343046679E+03  0.57401092664E+03  0.12509000000E+03 0.  0.
         25    1    1    2    0    0 -0.15770962770E+03 -0.10135822029E+03 -0.88318701815E+02  0.24206097719E+03  0.12509000000E+03 0.  0.
         25    1    3    3    0    0 -0.10547340283E+03  0.13455615209E+03 -0.76850548216E+03  0.79716885349E+03  0.12509000000E+03 0.  0.
<mgrwt>
<rscale>  2 0.88281262E+03</rscale>
<asrwt>0</asrwt>
<pdfrwt beam="1">  1       21 0.19337214E-01 0.88281262E+03</pdfrwt>
<pdfrwt beam="2">  1       21 0.21790407E+00 0.88281262E+03</pdfrwt>
<totfact> 0.18840716E+03</totfact>
</mgrwt>
</event>
<event>
 6    0  0.1116919E-004  0.5227891E+03  0.7546771E-02  0.1007996E+00
         21   -1    0    0  502  501  0.00000000000E+00  0.00000000000E+00  0.40207931920E+03  0.40207931920E+03  0.00000000000E+00 0.  1.
         21   -1    0    0  501  502 -0.00000000000E+00 -0.00000000000E+00 -0.16993440334E+03  0.16993440334E+03  0.00000000000E+00 0.  1.
      99926    2    1    2    0    0  0.55068465784E+02 -0.55704190005E+02  0.14618209456E+03  0.40121381781E+03  0.36533249257E+03 0.  0.
         25    1    3    3    0    0  0.14492483267E+03  0.19522477947E+02  0.12264697470E+03  0.22819755208E+03  0.12509000000E+03 0.  0.
         25    1    3    3    0    0 -0.89856366888E+02 -0.75226667952E+02  0.23535119853E+02  0.17301626573E+03  0.12509000000E+03 0.  0.
         25    1    1    2    0    0 -0.55068465784E+02  0.55704190005E+02  0.85962821314E+02  0.17079990473E+03  0.12509000000E+03 0.  0.
<mgrwt>
<rscale>  2 0.52278909E+03</rscale>
<asrwt>0</asrwt>
<pdfrwt beam="1">  1       21 0.59129312E-01 0.52278909E+03</pdfrwt>
<pdfrwt beam="2">  1       21 0.24990353E-01 0.52278909E+03</pdfrwt>
<totfact> 0.36521226E+04</totfact>
</mgrwt>
</event>
<event>
 6    0  0.1116919E-004  0.5555911E+03  0.7546771E-02  0.1000208E+00
         21   -1    0    0  502  501  0.00000000000E+00  0.00000000000E+00  0.27793369700E+03  0.27793369700E+03  0.00000000000E+00 0. -1.
         21   -1    0    0  501  502 -0.00000000000E+00 -0.00000000000E+00 -0.27765749322E+03  0.27765749322E+03  0.00000000000E+00 0. -1.
      99926    2    1    2    0    0 -0.23660605871E+02 -0.10580520298E+03  0.68452818342E+02  0.37656570566E+03  0.35406408614E+03 0.  0.
         25    1    3    3    0    0  0.69261742297E+02 -0.11741920715E+03 -0.36162368865E+02  0.18851971827E+03  0.12509000000E+03 0.  0.
         25    1    3    3    0    0 -0.92922348168E+02  0.11614004171E+02  0.10461518721E+03  0.18804598740E+03  0.12509000000E+03 0.  0.
         25    1    1    2    0    0  0.23660605871E+02  0.10580520298E+03 -0.68176614559E+02  0.17902548455E+03  0.12509000000E+03 0.  0.
<mgrwt>
<rscale>  2 0.55559112E+03</rscale>
<asrwt>0</asrwt>
<pdfrwt beam="1">  1       21 0.40872603E-01 0.55559112E+03</pdfrwt>
<pdfrwt beam="2">  1       21 0.40831984E-01 0.55559112E+03</pdfrwt>
<totfact> 0.29712430E+04</totfact>
</mgrwt>
</event>
<event>
 6    0  0.1116919E-004  0.9259202E+03  0.7546771E-02  0.9393748E-01
         21   -1    0    0  502  501  0.00000000000E+00  0.00000000000E+00  0.46316562209E+03  0.46316562209E+03  0.00000000000E+00 0.  1.
         21   -1    0    0  501  502 -0.00000000000E+00 -0.00000000000E+00 -0.46275470368E+03  0.46275470368E+03  0.00000000000E+00 0.  1.
      99926    2    1    2    0    0 -0.22596797528E+03 -0.16301019067E+03 -0.23787345223E+03  0.53854350985E+03  0.39472963483E+03 0.  0.
         25    1    3    3    0    0 -0.33766227013E+01  0.50884034747E+02 -0.10997308209E+02  0.13553241480E+03  0.12509000000E+03 0.  0.
         25    1    1    2    0    0  0.22596797528E+03  0.16301019067E+03  0.23828437064E+03  0.38737681592E+03  0.12509000000E+03 0.  0.
         25    1    3    3    0    0 -0.22259135258E+03 -0.21389422542E+03 -0.22687614402E+03  0.40301109506E+03  0.12509000000E+03 0.  0.
<mgrwt>
<rscale>  2 0.92592023E+03</rscale>
<asrwt>0</asrwt>
<pdfrwt beam="1">  1       21 0.68112592E-01 0.92592023E+03</pdfrwt>
<pdfrwt beam="2">  1       21 0.68052162E-01 0.92592023E+03</pdfrwt>
<totfact> 0.30329787E+03</totfact>
</mgrwt>
</event>
<event>
 6    0  0.1116919E-004  0.5587955E+03  0.7546771E-02  0.9994784E-01
         21   -1    0    0  502  501  0.00000000000E+00  0.00000000000E+00  0.46462758020E+03  0.46462758020E+03  0.00000000000E+00 0. -1.
         21   -1    0    0  501  502 -0.00000000000E+00 -0.00000000000E+00 -0.16801218015E+03  0.16801218015E+03  0.00000000000E+00 0. -1.
      99926    2    1    2    0    0  0.27437308621E+02 -0.17848959644E+02  0.30935948623E+03  0.50271166063E+03  0.39489787382E+03 0.  0.
         25    1    1    2    0    0 -0.27437308621E+02  0.17848959644E+02 -0.12744086180E+02  0.12992809972E+03  0.12509000000E+03 0.  0.
         25    1    3    3    0    0  0.10759346580E+02  0.14392410354E+03  0.14385342630E+03  0.23910505532E+03  0.12509000000E+03 0.  0.
         25    1    3    3    0    0  0.16677962041E+02 -0.16177306319E+03  0.16550605993E+03  0.26360660531E+03  0.12509000000E+03 0.  0.
<mgrwt>
<rscale>  2 0.55879546E+03</rscale>
<asrwt>0</asrwt>
<pdfrwt beam="1">  1       21 0.68327585E-01 0.55879546E+03</pdfrwt>
<pdfrwt beam="2">  1       21 0.24707674E-01 0.55879546E+03</pdfrwt>
<totfact> 0.26884475E+04</totfact>
</mgrwt>
</event>
<event>
 5    0  0.1116919E-004  0.5050501E+03  0.7546771E-02  0.1012469E+00
         21   -1    0    0  502  501  0.00000000000E+00  0.00000000000E+00  0.42135260955E+03  0.42135260955E+03  0.00000000000E+00 0.  1.
         21   -1    0    0  501  502 -0.00000000000E+00 -0.00000000000E+00 -0.15134331305E+03  0.15134331305E+03  0.00000000000E+00 0.  1.
         25    1    1    2    0    0  0.85222991572E+02 -0.11939571726E+02  0.11061615145E+03  0.18785354063E+03  0.12509000000E+03 0.  0.
         25    1    1    2    0    0 -0.76145555667E+02  0.11488654406E+03  0.65169968372E+02  0.19720977798E+03  0.12509000000E+03 0.  0.
         25    1    1    2    0    0 -0.90774359051E+01 -0.10294697233E+03  0.94223176674E+02  0.18763260398E+03  0.12509000000E+03 0.  0.
<mgrwt>
<rscale>  2 0.50505010E+03</rscale>
<asrwt>0</asrwt>
<pdfrwt beam="1">  1       21 0.61963619E-01 0.50505010E+03</pdfrwt>
<pdfrwt beam="2">  1       21 0.22256370E-01 0.50505010E+03</pdfrwt>
<totfact> 0.41391328E+04</totfact>
</mgrwt>
</event>
<event>
 6    0  0.1116919E-004  0.6024894E+03  0.7546771E-02  0.9900255E-01
         21   -1    0    0  502  501  0.00000000000E+00  0.00000000000E+00  0.96630286313E+02  0.96630286313E+02  0.00000000000E+00 0. -1.
         21   -1    0    0  501  502 -0.00000000000E+00 -0.00000000000E+00 -0.93912972606E+03  0.93912972606E+03  0.00000000000E+00 0. -1.
      99926    2    1    2    0    0 -0.95207013415E+02  0.77816044642E+02 -0.54128055076E+03  0.68719145472E+03  0.40512683025E+03 0.  0.
         25    1    3    3    0    0  0.56839054023E+02  0.14640939073E+03 -0.17796239421E+03  0.26829929111E+03  0.12509000000E+03 0.  0.
         25    1    1    2    0    0  0.95207013415E+02 -0.77816044642E+02 -0.30121888899E+03  0.34856855766E+03  0.12509000000E+03 0.  0.
         25    1    3    3    0    0 -0.15204606744E+03 -0.68593346087E+02 -0.36331815655E+03  0.41889216361E+03  0.12509000000E+03 0.  0.
<mgrwt>
<rscale>  2 0.60248942E+03</rscale>
<asrwt>0</asrwt>
<pdfrwt beam="1">  1       21 0.14210337E-01 0.60248942E+03</pdfrwt>
<pdfrwt beam="2">  1       21 0.13810730E+00 0.60248942E+03</pdfrwt>
<totfact> 0.13734288E+04</totfact>
</mgrwt>
</event>
<event>
 6    0  0.1116919E-004  0.5257991E+03  0.7546771E-02  0.1007256E+00
         21   -1    0    0  502  501  0.00000000000E+00  0.00000000000E+00  0.25805059204E+03  0.25805059204E+03  0.00000000000E+00 0.  1.
         21   -1    0    0  501  502 -0.00000000000E+00 -0.00000000000E+00 -0.26783962602E+03  0.26783962602E+03  0.00000000000E+00 0.  1.
      99926    2    1    2    0    0 -0.17496774355E+02  0.43945297891E+02 -0.96683268875E+02  0.36640528937E+03  0.35023971116E+03 0.  0.
         25    1    1    2    0    0  0.17496774355E+02 -0.43945297891E+02  0.86894234897E+02  0.15948492869E+03  0.12509000000E+03 0.  0.
         25    1    3    3    0    0  0.35331159584E+02  0.84802293308E+02  0.49345878418E+02  0.16285651232E+03  0.12509000000E+03 0.  0.
         25    1    3    3    0    0 -0.52827933939E+02 -0.40856995417E+02 -0.14602914729E+03  0.20354877705E+03  0.12509000000E+03 0.  0.
<mgrwt>
<rscale>  2 0.52579910E+03</rscale>
<asrwt>0</asrwt>
<pdfrwt beam="1">  1       21 0.37948617E-01 0.52579910E+03</pdfrwt>
<pdfrwt beam="2">  1       21 0.39388180E-01 0.52579910E+03</pdfrwt>
<totfact> 0.37525502E+04</totfact>
</mgrwt>
</event>
