<event>
 6    0  0.1422886E-003  0.4599936E+03  0.7546771E-02  0.1024783E+00
         21   -1    0    0  502  501  0.00000000000E+00  0.00000000000E+00  0.48348424629E+03  0.48348424629E+03  0.00000000000E+00 0. -1.
         21   -1    0    0  501  502 -0.00000000000E+00 -0.00000000000E+00 -0.10941108071E+03  0.10941108071E+03  0.00000000000E+00 0. -1.
      99926    2    1    2    0    0  0.00000000000E+00  0.71054273576E-14  0.37407316558E+03  0.59289532701E+03  0.45999362559E+03 0.  0.
         25    1    3    3    0    0  0.95813116311E+02  0.34365003574E+02  0.13837067421E+03  0.21249719600E+03  0.12509000000E+03 0.  0.
         25    1    3    3    0    0 -0.11059779626E+02  0.33879375529E+02  0.78482162794E+02  0.15191145049E+03  0.12509000000E+03 0.  0.
         25    1    3    3    0    0 -0.84753336685E+02 -0.68244379102E+02  0.15722032857E+03  0.22848668052E+03  0.12509000000E+03 0.  0.
<mgrwt>
<rscale>  2 0.45999363E+03</rscale>
<asrwt>0</asrwt>
<pdfrwt beam="1">  1       21 0.71100624E-01 0.45999363E+03</pdfrwt>
<pdfrwt beam="2">  1       21 0.16089865E-01 0.45999363E+03</pdfrwt>
<totfact> 0.56841065E+04</totfact>
</mgrwt>
</event>
<event>
 6    0  0.1422886E-003  0.4567205E+03  0.7546771E-02  0.1025737E+00
         21   -1    0    0  502  501  0.00000000000E+00  0.00000000000E+00  0.95153603613E+02  0.95153603613E+02  0.00000000000E+00 0.  1.
         21   -1    0    0  501  502 -0.00000000000E+00 -0.00000000000E+00 -0.54804440567E+03  0.54804440567E+03  0.00000000000E+00 0.  1.
      99926    2    1    2    0    0  0.00000000000E+00  0.00000000000E+00 -0.45289080206E+03  0.64319800929E+03  0.45672048406E+03 0.  0.
         25    1    3    3    0    0  0.47600449424E+02  0.94381416388E+02 -0.14959721415E+03  0.22181183270E+03  0.12509000000E+03 0.  0.
         25    1    3    3    0    0 -0.38358474567E+02 -0.91709489514E+02 -0.12254095083E+03  0.20135986633E+03  0.12509000000E+03 0.  0.
         25    1    3    3    0    0 -0.92419748571E+01 -0.26719268743E+01 -0.18075263708E+03  0.22002631026E+03  0.12509000000E+03 0.  0.
<mgrwt>
<rscale>  2 0.45672048E+03</rscale>
<asrwt>0</asrwt>
<pdfrwt beam="1">  1       21 0.13993177E-01 0.45672048E+03</pdfrwt>
<pdfrwt beam="2">  1       21 0.80594767E-01 0.45672048E+03</pdfrwt>
<totfact> 0.55339927E+04</totfact>
</mgrwt>
</event>
<event>
 5    0  0.1422886E-003  0.6379041E+03  0.7546771E-02  0.9829745E-01
         21   -1    0    0  502  501  0.00000000000E+00  0.00000000000E+00  0.17157775114E+04  0.17157775114E+04  0.00000000000E+00 0. -1.
         21   -1    0    0  501  502 -0.00000000000E+00 -0.00000000000E+00 -0.59291144699E+02  0.59291144699E+02  0.00000000000E+00 0. -1.
         25    1    1    2    0    0 -0.70904223861E+02  0.41968189184E+02  0.52379103460E+03  0.54478738412E+03  0.12509000000E+03 0.  0.
         25    1    1    2    0    0  0.85317799474E+02 -0.21670531941E+03  0.65080535179E+03  0.70244959704E+03  0.12509000000E+03 0.  0.
         25    1    1    2    0    0 -0.14413575614E+02  0.17473713023E+03  0.48188998027E+03  0.52783167489E+03  0.12509000000E+03 0.  0.
<mgrwt>
<rscale>  2 0.63790411E+03</rscale>
<asrwt>0</asrwt>
<pdfrwt beam="1">  1       21 0.25232019E+00 0.63790411E+03</pdfrwt>
<pdfrwt beam="2">  1       21 0.87192871E-02 0.63790411E+03</pdfrwt>
<totfact> 0.52797559E+03</totfact>
</mgrwt>
</event>
<event>
 6    0  0.1422886E-003  0.4486040E+03  0.7546771E-02  0.1028139E+00
         21   -1    0    0  502  501  0.00000000000E+00  0.00000000000E+00  0.87399590481E+02  0.87399590481E+02  0.00000000000E+00 0. -1.
         21   -1    0    0  501  502 -0.00000000000E+00 -0.00000000000E+00 -0.57564795201E+03  0.57564795201E+03  0.00000000000E+00 0. -1.
      99926    2    1    2    0    0  0.00000000000E+00  0.00000000000E+00 -0.48824836153E+03  0.66304754249E+03  0.44860403595E+03 0.  0.
         25    1    3    3    0    0 -0.33813141911E+02 -0.67264576119E+02 -0.17371471959E+03  0.22691884820E+03  0.12509000000E+03 0.  0.
         25    1    3    3    0    0 -0.33903628475E+02  0.84878297298E+02 -0.19797999563E+03  0.25139086727E+03  0.12509000000E+03 0.  0.
         25    1    3    3    0    0  0.67716770385E+02 -0.17613721179E+02 -0.11655364631E+03  0.18473782702E+03  0.12509000000E+03 0.  0.
<mgrwt>
<rscale>  2 0.44860404E+03</rscale>
<asrwt>0</asrwt>
<pdfrwt beam="1">  1       21 0.12852880E-01 0.44860404E+03</pdfrwt>
<pdfrwt beam="2">  1       21 0.84654114E-01 0.44860404E+03</pdfrwt>
<totfact> 0.57815761E+04</totfact>
</mgrwt>
</event>
<event>
 6    0  0.1422886E-003  0.4534105E+03  0.7546771E-02  0.1026710E+00
         21   -1    0    0  502  501  0.00000000000E+00  0.00000000000E+00  0.86791054516E+02  0.86791054516E+02  0.00000000000E+00 0.  1.
         21   -1    0    0  501  502 -0.00000000000E+00 -0.00000000000E+00 -0.59217243099E+03  0.59217243099E+03  0.00000000000E+00 0.  1.
      99926    2    1    2    0    0  0.17763568394E-14  0.00000000000E+00 -0.50538137647E+03  0.67896348550E+03  0.45341049719E+03 0.  0.
         25    1    3    3    0    0 -0.93569887384E+01  0.65941006594E+02 -0.46493998010E+02  0.14914747581E+03  0.12509000000E+03 0.  0.
         25    1    3    3    0    0 -0.18318305342E+02 -0.48481849262E+02 -0.24253934639E+03  0.27777489568E+03  0.12509000000E+03 0.  0.
         25    1    3    3    0    0  0.27675294080E+02 -0.17459157331E+02 -0.21634803207E+03  0.25204111402E+03  0.12509000000E+03 0.  0.
<mgrwt>
<rscale>  2 0.45341050E+03</rscale>
<asrwt>0</asrwt>
<pdfrwt beam="1">  1       21 0.12763390E-01 0.45341050E+03</pdfrwt>
<pdfrwt beam="2">  1       21 0.87084181E-01 0.45341050E+03</pdfrwt>
<totfact> 0.54742490E+04</totfact>
</mgrwt>
</event>
<event>
 6    0  0.1422886E-003  0.4558394E+03  0.7546771E-02  0.1025995E+00
         21   -1    0    0  502  501  0.00000000000E+00  0.00000000000E+00  0.16870207512E+03  0.16870207512E+03  0.00000000000E+00 0.  1.
         21   -1    0    0  501  502 -0.00000000000E+00 -0.00000000000E+00 -0.30792379328E+03  0.30792379328E+03  0.00000000000E+00 0.  1.
      99926    2    1    2    0    0  0.00000000000E+00  0.00000000000E+00 -0.13922171816E+03  0.47662586840E+03  0.45583937042E+03 0.  0.
         25    1    3    3    0    0 -0.78188520002E+02 -0.32838473821E+02  0.11864629698E+02  0.15159184530E+03  0.12509000000E+03 0.  0.
         25    1    3    3    0    0  0.89544018710E+02  0.39581151546E+02 -0.10795774030E+03  0.19206035675E+03  0.12509000000E+03 0.  0.
         25    1    3    3    0    0 -0.11355498708E+02 -0.67426777252E+01 -0.43128607556E+02  0.13297366635E+03  0.12509000000E+03 0.  0.
<mgrwt>
<rscale>  2 0.45583937E+03</rscale>
<asrwt>0</asrwt>
<pdfrwt beam="1">  1       21 0.24809129E-01 0.45583937E+03</pdfrwt>
<pdfrwt beam="2">  1       21 0.45282910E-01 0.45583937E+03</pdfrwt>
<totfact> 0.66502433E+04</totfact>
</mgrwt>
</event>
<event>
 6    0  0.1422886E-003  0.4503240E+03  0.7546771E-02  0.1027625E+00
         21   -1    0    0  502  501  0.00000000000E+00  0.00000000000E+00  0.42176881674E+03  0.42176881674E+03  0.00000000000E+00 0. -1.
         21   -1    0    0  501  502 -0.00000000000E+00 -0.00000000000E+00 -0.12020310129E+03  0.12020310129E+03  0.00000000000E+00 0. -1.
      99926    2    1    2    0    0 -0.14210854715E-13  0.00000000000E+00  0.30156571545E+03  0.54197191802E+03  0.45032397137E+03 0.  0.
         25    1    3    3    0    0  0.66916415942E+01  0.25225085364E+01  0.10669300324E+03  0.16456623638E+03  0.12509000000E+03 0.  0.
         25    1    3    3    0    0  0.78122790006E+02  0.51161494386E+02  0.57909264308E+02  0.16649822767E+03  0.12509000000E+03 0.  0.
         25    1    3    3    0    0 -0.84814431600E+02 -0.53684002923E+02  0.13696344790E+03  0.21090745397E+03  0.12509000000E+03 0.  0.
<mgrwt>
<rscale>  2 0.45032397E+03</rscale>
<asrwt>0</asrwt>
<pdfrwt beam="1">  1       21 0.62024826E-01 0.45032397E+03</pdfrwt>
<pdfrwt beam="2">  1       21 0.17676927E-01 0.45032397E+03</pdfrwt>
<totfact> 0.64763568E+04</totfact>
</mgrwt>
</event>
<event>
 6    0  0.1422886E-003  0.5487580E+03  0.7546771E-02  0.1001782E+00
         21   -1    0    0  502  501  0.00000000000E+00  0.00000000000E+00  0.41020078901E+03  0.41020078901E+03  0.00000000000E+00 0.  1.
         21   -1    0    0  501  502 -0.00000000000E+00 -0.00000000000E+00 -0.18352920235E+03  0.18352920235E+03  0.00000000000E+00 0.  1.
      99926    2    1    2    0    0 -0.14210854715E-13  0.00000000000E+00  0.22667158666E+03  0.59372999136E+03  0.54875795615E+03 0.  0.
         25    1    3    3    0    0  0.66385837852E+01  0.22177253777E+02  0.32885441659E+02  0.13139582091E+03  0.12509000000E+03 0.  0.
         25    1    3    3    0    0  0.93713052214E+02 -0.10477064009E+03  0.20909818101E+03  0.28129802804E+03  0.12509000000E+03 0.  0.
         25    1    3    3    0    0 -0.10035163600E+03  0.82593386308E+02 -0.15312036006E+02  0.18103614240E+03  0.12509000000E+03 0.  0.
<mgrwt>
<rscale>  2 0.54875796E+03</rscale>
<asrwt>0</asrwt>
<pdfrwt beam="1">  1       21 0.60323646E-01 0.54875796E+03</pdfrwt>
<pdfrwt beam="2">  1       21 0.26989589E-01 0.54875796E+03</pdfrwt>
<totfact> 0.29901392E+04</totfact>
</mgrwt>
</event>
<event>
 6    0  0.1422886E-003  0.4552846E+03  0.7546771E-02  0.1026158E+00
         21   -1    0    0  502  501  0.00000000000E+00  0.00000000000E+00  0.11216520402E+03  0.11216520402E+03  0.00000000000E+00 0.  1.
         21   -1    0    0  501  502 -0.00000000000E+00 -0.00000000000E+00 -0.46200621282E+03  0.46200621282E+03  0.00000000000E+00 0.  1.
      99926    2    1    2    0    0  0.00000000000E+00 -0.35527136788E-14 -0.34984100880E+03  0.57417141684E+03  0.45528461919E+03 0.  0.
         25    1    3    3    0    0  0.85863456583E+02 -0.28918350020E+02 -0.68716900518E+02  0.16905124862E+03  0.12509000000E+03 0.  0.
         25    1    3    3    0    0 -0.30822163473E+02  0.52825495798E+02 -0.20219300609E+03  0.24549961014E+03  0.12509000000E+03 0.  0.
         25    1    3    3    0    0 -0.55041293110E+02 -0.23907145779E+02 -0.78931102194E+02  0.15962055807E+03  0.12509000000E+03 0.  0.
<mgrwt>
<rscale>  2 0.45528462E+03</rscale>
<asrwt>0</asrwt>
<pdfrwt beam="1">  1       21 0.16494883E-01 0.45528462E+03</pdfrwt>
<pdfrwt beam="2">  1       21 0.67942091E-01 0.45528462E+03</pdfrwt>
<totfact> 0.60161427E+04</totfact>
</mgrwt>
</event>
