<event>
 6    0  0.1191266E-005  0.6236447E+03  0.7546771E-02  0.9857530E-01
         21   -1    0    0  502  501  0.00000000000E+00  0.00000000000E+00  0.31549317183E+03  0.31549317183E+03  0.00000000000E+00 0. -1.
         21   -1    0    0  501  502 -0.00000000000E+00 -0.00000000000E+00 -0.30819426174E+03  0.30819426174E+03  0.00000000000E+00 0. -1.
      99926    2    1    2    0    0  0.46250603036E+02 -0.29287892786E+02  0.11378828127E+03  0.45052741156E+03  0.43246997198E+03 0.  0.
         25    1    3    3    0    0  0.12943784913E+03 -0.83967617257E+02 -0.66599257083E+02  0.20949388220E+03  0.12509000000E+03 0.  0.
         25    1    3    3    0    0 -0.83187246094E+02  0.54679724471E+02  0.18038753836E+03  0.24103352936E+03  0.12509000000E+03 0.  0.
         25    1    1    2    0    0 -0.46250603036E+02  0.29287892786E+02 -0.10648937119E+03  0.17316002200E+03  0.12509000000E+03 0.  0.
<mgrwt>
<rscale>  2 0.62364472E+03</rscale>
<asrwt>0</asrwt>
<pdfrwt beam="1">  1       21 0.46396055E-01 0.62364472E+03</pdfrwt>
<pdfrwt beam="2">  1       21 0.45322685E-01 0.62364472E+03</pdfrwt>
<totfact> 0.18071560E+04</totfact>
</mgrwt>
</event>
<event>
 6    0  0.1191266E-005  0.6518812E+03  0.7546771E-02  0.9803256E-01
         21   -1    0    0  502  501  0.00000000000E+00  0.00000000000E+00  0.14114856168E+04  0.14114856168E+04  0.00000000000E+00 0.  1.
         21   -1    0    0  501  502 -0.00000000000E+00 -0.00000000000E+00 -0.75266291606E+02  0.75266291606E+02  0.00000000000E+00 0.  1.
      99926    2    1    2    0    0  0.43387711370E+02 -0.26860090493E+02  0.67824655977E+03  0.81505284923E+03  0.44909775466E+03 0.  0.
         25    1    1    2    0    0 -0.43387711370E+02  0.26860090493E+02  0.65797276540E+03  0.67169905915E+03  0.12509000000E+03 0.  0.
         25    1    3    3    0    0  0.91441011245E+02 -0.12555553992E+03  0.59782963491E+03  0.63021697265E+03  0.12509000000E+03 0.  0.
         25    1    3    3    0    0 -0.48053299875E+02  0.98695449426E+02  0.80416924863E+02  0.18483587658E+03  0.12509000000E+03 0.  0.
<mgrwt>
<rscale>  2 0.65188124E+03</rscale>
<asrwt>0</asrwt>
<pdfrwt beam="1">  1       21 0.20757140E+00 0.65188124E+03</pdfrwt>
<pdfrwt beam="2">  1       21 0.11068573E-01 0.65188124E+03</pdfrwt>
<totfact> 0.66106124E+03</totfact>
</mgrwt>
</event>
<event>
 6    0  0.1191266E-005  0.6356159E+03  0.7546771E-02  0.9834151E-01
         21   -1    0    0  502  501  0.00000000000E+00  0.00000000000E+00  0.33136148082E+03  0.33136148082E+03  0.00000000000E+00 0. -1.
         21   -1    0    0  501  502 -0.00000000000E+00 -0.00000000000E+00 -0.30480881646E+03  0.30480881646E+03  0.00000000000E+00 0. -1.
      99926    2    1    2    0    0  0.83938583460E+02  0.76565254643E+02  0.19594416524E+02  0.46704357165E+03  0.45259013759E+03 0.  0.
         25    1    1    2    0    0 -0.83938583460E+02 -0.76565254643E+02  0.69582478313E+01  0.16912672564E+03  0.12509000000E+03 0.  0.
         25    1    3    3    0    0  0.10207059030E+03 -0.13007763115E+03 -0.53311981221E+02  0.21407538619E+03  0.12509000000E+03 0.  0.
         25    1    3    3    0    0 -0.18132006838E+02  0.20664288579E+03  0.72906397745E+02  0.25296818546E+03  0.12509000000E+03 0.  0.
<mgrwt>
<rscale>  2 0.63561592E+03</rscale>
<asrwt>0</asrwt>
<pdfrwt beam="1">  1       21 0.48729630E-01 0.63561592E+03</pdfrwt>
<pdfrwt beam="2">  1       21 0.44824826E-01 0.63561592E+03</pdfrwt>
<totfact> 0.16627523E+04</totfact>
</mgrwt>
</event>
<event>
 6    0  0.1191266E-005  0.7691300E+03  0.7546771E-02  0.9605807E-01
         21   -1    0    0  502  501  0.00000000000E+00  0.00000000000E+00  0.68359415867E+02  0.68359415867E+02  0.00000000000E+00 0. -1.
         21   -1    0    0  501  502 -0.00000000000E+00 -0.00000000000E+00 -0.21634217007E+04  0.21634217007E+04  0.00000000000E+00 0. -1.
      99926    2    1    2    0    0 -0.53222957842E+02 -0.13449857932E+02 -0.74184495343E+03  0.87168618017E+03  0.45441091519E+03 0.  0.
         25    1    1    2    0    0  0.53222957842E+02  0.13449857932E+02 -0.13532173314E+04  0.13600949364E+04  0.12509000000E+03 0.  0.
         25    1    3    3    0    0 -0.20638937642E+03 -0.69728218486E+02 -0.43494716358E+03  0.50227994422E+03  0.12509000000E+03 0.  0.
         25    1    3    3    0    0  0.15316641858E+03  0.56278360554E+02 -0.30689778985E+03  0.36940623595E+03  0.12509000000E+03 0.  0.
<mgrwt>
<rscale>  2 0.76913001E+03</rscale>
<asrwt>0</asrwt>
<pdfrwt beam="1">  1       21 0.10052856E-01 0.76913001E+03</pdfrwt>
<pdfrwt beam="2">  1       21 0.31815024E+00 0.76913001E+03</pdfrwt>
<totfact> 0.15447523E+03</totfact>
</mgrwt>
</event>
<event>
 6    0  0.1191266E-005  0.8136580E+03  0.7546771E-02  0.9540455E-01
         21   -1    0    0  502  501  0.00000000000E+00  0.00000000000E+00  0.61336537073E+03  0.61336537073E+03  0.00000000000E+00 0.  1.
         21   -1    0    0  501  502 -0.00000000000E+00 -0.00000000000E+00 -0.26983892291E+03  0.26983892291E+03  0.00000000000E+00 0.  1.
      99926    2    1    2    0    0 -0.10716357440E+03  0.21308760755E+03  0.86266205285E+02  0.51075201393E+03  0.44332313428E+03 0.  0.
         25    1    1    2    0    0  0.10716357440E+03 -0.21308760755E+03  0.25726024254E+03  0.37245227971E+03  0.12509000000E+03 0.  0.
         25    1    3    3    0    0 -0.13532854400E+03  0.19081438786E+03 -0.10002279484E+03  0.28350663665E+03  0.12509000000E+03 0.  0.
         25    1    3    3    0    0  0.28164969593E+02  0.22273219689E+02  0.18628900012E+03  0.22724537728E+03  0.12509000000E+03 0.  0.
<mgrwt>
<rscale>  2 0.81365804E+03</rscale>
<asrwt>0</asrwt>
<pdfrwt beam="1">  1       21 0.90200790E-01 0.81365804E+03</pdfrwt>
<pdfrwt beam="2">  1       21 0.39682194E-01 0.81365804E+03</pdfrwt>
<totfact> 0.51757969E+03</totfact>
</mgrwt>
</event>
<event>
 6    0  0.1191266E-005  0.7221284E+03  0.7546771E-02  0.9680120E-01
         21   -1    0    0  502  501  0.00000000000E+00  0.00000000000E+00  0.14296332146E+04  0.14296332146E+04  0.00000000000E+00 0. -1.
         21   -1    0    0  501  502 -0.00000000000E+00 -0.00000000000E+00 -0.91189378930E+02  0.91189378930E+02  0.00000000000E+00 0. -1.
      99926    2    1    2    0    0  0.12868208677E+03 -0.54146815753E+01  0.12131166683E+04  0.13018641381E+04  0.45454349059E+03 0.  0.
         25    1    1    2    0    0 -0.12868208677E+03  0.54146815753E+01  0.12532716734E+03  0.21895845543E+03  0.12509000000E+03 0.  0.
         25    1    3    3    0    0  0.17929463738E+03 -0.56618082826E+02  0.29013283743E+03  0.36766390325E+03  0.12509000000E+03 0.  0.
         25    1    3    3    0    0 -0.50612550611E+02  0.51203401251E+02  0.92298383090E+03  0.93420023484E+03  0.12509000000E+03 0.  0.
<mgrwt>
<rscale>  2 0.72212842E+03</rscale>
<asrwt>0</asrwt>
<pdfrwt beam="1">  1       21 0.21024016E+00 0.72212842E+03</pdfrwt>
<pdfrwt beam="2">  1       21 0.13410204E-01 0.72212842E+03</pdfrwt>
<totfact> 0.43813947E+03</totfact>
</mgrwt>
</event>
<event>
 6    0  0.1191266E-005  0.1424486E+04  0.7546771E-02  0.8936283E-01
         21   -1    0    0  502  501  0.00000000000E+00  0.00000000000E+00  0.10016945799E+04  0.10016945799E+04  0.00000000000E+00 0.  1.
         21   -1    0    0  501  502 -0.00000000000E+00 -0.00000000000E+00 -0.50643195815E+03  0.50643195815E+03  0.00000000000E+00 0.  1.
      99926    2    1    2    0    0 -0.21577637706E+03  0.50969117242E+03 -0.46408856967E+02  0.72365216940E+03  0.46386867122E+03 0.  0.
         25    1    3    3    0    0 -0.29775294173E+03  0.22285501195E+03  0.22030720752E+02  0.39300640124E+03  0.12509000000E+03 0.  0.
         25    1    1    2    0    0  0.21577637706E+03 -0.50969117242E+03  0.54167147874E+03  0.78447436868E+03  0.12509000000E+03 0.  0.
         25    1    3    3    0    0  0.81976564666E+02  0.28683616046E+03 -0.68439577719E+02  0.33064576816E+03  0.12509000000E+03 0.  0.
<mgrwt>
<rscale>  2 0.14244861E+04</rscale>
<asrwt>0</asrwt>
<pdfrwt beam="1">  1       21 0.14730803E+00 0.14244861E+04</pdfrwt>
<pdfrwt beam="2">  1       21 0.74475288E-01 0.14244861E+04</pdfrwt>
<totfact> 0.33254931E+02</totfact>
</mgrwt>
</event>
<event>
 6    0  0.1191266E-005  0.5926217E+03  0.7546771E-02  0.9920833E-01
         21   -1    0    0  502  501  0.00000000000E+00  0.00000000000E+00  0.79365669087E+03  0.79365669087E+03  0.00000000000E+00 0. -1.
         21   -1    0    0  501  502 -0.00000000000E+00 -0.00000000000E+00 -0.11062734621E+03  0.11062734621E+03  0.00000000000E+00 0. -1.
      99926    2    1    2    0    0 -0.52867100731E+02 -0.15284032981E+02  0.45594256185E+03  0.63924734711E+03  0.44466281504E+03 0.  0.
         25    1    3    3    0    0  0.10272177946E+02 -0.18770641391E+03  0.23561511809E+03  0.32634522738E+03  0.12509000000E+03 0.  0.
         25    1    3    3    0    0 -0.63139278677E+02  0.17242238093E+03  0.22032744375E+03  0.31290211972E+03  0.12509000000E+03 0.  0.
         25    1    1    2    0    0  0.52867100731E+02  0.15284032981E+02  0.22708678281E+03  0.26503668997E+03  0.12509000000E+03 0.  0.
<mgrwt>
<rscale>  2 0.59262175E+03</rscale>
<asrwt>0</asrwt>
<pdfrwt beam="1">  1       21 0.11671422E+00 0.59262175E+03</pdfrwt>
<pdfrwt beam="2">  1       21 0.16268728E-01 0.59262175E+03</pdfrwt>
<totfact> 0.16564972E+04</totfact>
</mgrwt>
</event>
<event>
 6    0  0.1191266E-005  0.7032502E+03  0.7546771E-02  0.9711690E-01
         21   -1    0    0  502  501  0.00000000000E+00  0.00000000000E+00  0.59865142706E+03  0.59865142706E+03  0.00000000000E+00 0. -1.
         21   -1    0    0  501  502 -0.00000000000E+00 -0.00000000000E+00 -0.20653122652E+03  0.20653122652E+03  0.00000000000E+00 0. -1.
      99926    2    1    2    0    0 -0.61822759564E+02  0.93977095963E+02  0.42578374336E+03  0.63361782508E+03  0.45555022114E+03 0.  0.
         25    1    3    3    0    0 -0.17689432093E+03  0.26693011229E+02  0.62708785237E+02  0.22712115153E+03  0.12509000000E+03 0.  0.
         25    1    1    2    0    0  0.61822759564E+02 -0.93977095963E+02 -0.33663542818E+02  0.17156482851E+03  0.12509000000E+03 0.  0.
         25    1    3    3    0    0  0.11507156136E+03  0.67284084734E+02  0.36307495812E+03  0.40649667355E+03  0.12509000000E+03 0.  0.
<mgrwt>
<rscale>  2 0.70325021E+03</rscale>
<asrwt>0</asrwt>
<pdfrwt beam="1">  1       21 0.88036974E-01 0.70325021E+03</pdfrwt>
<pdfrwt beam="2">  1       21 0.30372239E-01 0.70325021E+03</pdfrwt>
<totfact> 0.96637780E+03</totfact>
</mgrwt>
</event>
<event>
 6    0  0.1191266E-005  0.6299487E+03  0.7546771E-02  0.9845149E-01
         21   -1    0    0  502  501  0.00000000000E+00  0.00000000000E+00  0.52345663711E+02  0.52345663711E+02  0.00000000000E+00 0.  1.
         21   -1    0    0  501  502 -0.00000000000E+00 -0.00000000000E+00 -0.18952638027E+04  0.18952638027E+04  0.00000000000E+00 0.  1.
      99926    2    1    2    0    0  0.83969374968E+02 -0.72973250819E+02 -0.14375556680E+04  0.15090411225E+04  0.44526717781E+03 0.  0.
         25    1    3    3    0    0 -0.28501613862E+02  0.27452456434E+02 -0.11704956477E+04  0.11778257718E+04  0.12509000000E+03 0.  0.
         25    1    1    2    0    0 -0.83969374968E+02  0.72973250819E+02 -0.40536247107E+03  0.43856834396E+03  0.12509000000E+03 0.  0.
         25    1    3    3    0    0  0.11247098883E+03 -0.10042570725E+03 -0.26706002023E+03  0.33121535066E+03  0.12509000000E+03 0.  0.
<mgrwt>
<rscale>  2 0.62994870E+03</rscale>
<asrwt>0</asrwt>
<pdfrwt beam="1">  1       21 0.76978934E-02 0.62994870E+03</pdfrwt>
<pdfrwt beam="2">  1       21 0.27871520E+00 0.62994870E+03</pdfrwt>
<totfact> 0.45452791E+03</totfact>
</mgrwt>
</event>
<event>
 6    0  0.1191266E-005  0.7602765E+03  0.7546771E-02  0.9619365E-01
         21   -1    0    0  502  501  0.00000000000E+00  0.00000000000E+00  0.40195049841E+03  0.40195049841E+03  0.00000000000E+00 0. -1.
         21   -1    0    0  501  502 -0.00000000000E+00 -0.00000000000E+00 -0.35950965570E+03  0.35950965570E+03  0.00000000000E+00 0. -1.
      99926    2    1    2    0    0  0.12685075146E+03  0.18045551037E+03  0.25065246082E+02  0.50728556091E+03  0.45613053985E+03 0.  0.
         25    1    3    3    0    0 -0.11960925997E+03  0.21225073921E+02  0.64430818877E+02  0.18589168178E+03  0.12509000000E+03 0.  0.
         25    1    3    3    0    0  0.24646001142E+03  0.15923043645E+03 -0.39365572795E+02  0.32139387913E+03  0.12509000000E+03 0.  0.
         25    1    1    2    0    0 -0.12685075146E+03 -0.18045551037E+03  0.17375596631E+02  0.25417459319E+03  0.12509000000E+03 0.  0.
<mgrwt>
<rscale>  2 0.76027649E+03</rscale>
<asrwt>0</asrwt>
<pdfrwt beam="1">  1       21 0.59110367E-01 0.76027649E+03</pdfrwt>
<pdfrwt beam="2">  1       21 0.52869067E-01 0.76027649E+03</pdfrwt>
<totfact> 0.75098510E+03</totfact>
</mgrwt>
</event>
<event>
 6    0  0.1191266E-005  0.7042520E+03  0.7546771E-02  0.9709988E-01
         21   -1    0    0  502  501  0.00000000000E+00  0.00000000000E+00  0.24638773527E+03  0.24638773527E+03  0.00000000000E+00 0. -1.
         21   -1    0    0  501  502 -0.00000000000E+00 -0.00000000000E+00 -0.50324230617E+03  0.50324230617E+03  0.00000000000E+00 0. -1.
      99926    2    1    2    0    0  0.16558056337E+03  0.30737001249E+02 -0.12371214696E+03  0.50116253982E+03  0.45551894560E+03 0.  0.
         25    1    3    3    0    0  0.21487063037E+03 -0.11120425711E+01  0.74490944715E+02  0.25955160061E+03  0.12509000000E+03 0.  0.
         25    1    1    2    0    0 -0.16558056337E+03 -0.30737001249E+02 -0.13314242394E+03  0.24846750163E+03  0.12509000000E+03 0.  0.
         25    1    3    3    0    0 -0.49290066995E+02  0.31849043820E+02 -0.19820309167E+03  0.24161093921E+03  0.12509000000E+03 0.  0.
<mgrwt>
<rscale>  2 0.70425203E+03</rscale>
<asrwt>0</asrwt>
<pdfrwt beam="1">  1       21 0.36233491E-01 0.70425203E+03</pdfrwt>
<pdfrwt beam="2">  1       21 0.74006221E-01 0.70425203E+03</pdfrwt>
<totfact> 0.10138326E+04</totfact>
</mgrwt>
</event>
<event>
 6    0  0.1191266E-005  0.6732800E+03  0.7546771E-02  0.9764051E-01
         21   -1    0    0  502  501  0.00000000000E+00  0.00000000000E+00  0.51224617127E+03  0.51224617127E+03  0.00000000000E+00 0.  1.
         21   -1    0    0  501  502 -0.00000000000E+00 -0.00000000000E+00 -0.22123440179E+03  0.22123440179E+03  0.00000000000E+00 0.  1.
      99926    2    1    2    0    0 -0.16838164800E+02 -0.80197355539E+02  0.34427222307E+03  0.57473762473E+03  0.45286293077E+03 0.  0.
         25    1    3    3    0    0  0.14141319889E+03  0.50251994499E+02  0.63967282215E+02  0.20557790996E+03  0.12509000000E+03 0.  0.
         25    1    1    2    0    0  0.16838164800E+02  0.80197355539E+02 -0.53260453597E+02  0.15874294834E+03  0.12509000000E+03 0.  0.
         25    1    3    3    0    0 -0.15825136369E+03 -0.13044935004E+03  0.28030494086E+03  0.36915971476E+03  0.12509000000E+03 0.  0.
<mgrwt>
<rscale>  2 0.67327996E+03</rscale>
<asrwt>0</asrwt>
<pdfrwt beam="1">  1       21 0.75330319E-01 0.67327996E+03</pdfrwt>
<pdfrwt beam="2">  1       21 0.32534471E-01 0.67327996E+03</pdfrwt>
<totfact> 0.12189473E+04</totfact>
</mgrwt>
</event>
<event>
 6    0  0.1191266E-005  0.6563677E+03  0.7546771E-02  0.9794904E-01
         21   -1    0    0  502  501  0.00000000000E+00  0.00000000000E+00  0.97143627600E+02  0.97143627600E+02  0.00000000000E+00 0.  1.
         21   -1    0    0  501  502 -0.00000000000E+00 -0.00000000000E+00 -0.11087152928E+04  0.11087152928E+04  0.00000000000E+00 0.  1.
      99926    2    1    2    0    0 -0.10778958046E+03 -0.33582441683E+02 -0.87508760089E+03  0.98901385600E+03  0.44679270818E+03 0.  0.
         25    1    3    3    0    0 -0.39619548005E+02  0.14413736154E+03 -0.60543832589E+03  0.63604116386E+03  0.12509000000E+03 0.  0.
         25    1    1    2    0    0  0.10778958046E+03  0.33582441683E+02 -0.13648406431E+03  0.21684506440E+03  0.12509000000E+03 0.  0.
         25    1    3    3    0    0 -0.68170032453E+02 -0.17771980322E+03 -0.26964927500E+03  0.35297269213E+03  0.12509000000E+03 0.  0.
<mgrwt>
<rscale>  2 0.65636766E+03</rscale>
<asrwt>0</asrwt>
<pdfrwt beam="1">  1       21 0.14285827E-01 0.65636766E+03</pdfrwt>
<pdfrwt beam="2">  1       21 0.16304638E+00 0.65636766E+03</pdfrwt>
<totfact> 0.85095405E+03</totfact>
</mgrwt>
</event>
<event>
 6    0  0.1191266E-005  0.7234617E+03  0.7546771E-02  0.9677930E-01
         21   -1    0    0  502  501  0.00000000000E+00  0.00000000000E+00  0.47747907094E+03  0.47747907094E+03  0.00000000000E+00 0. -1.
         21   -1    0    0  501  502 -0.00000000000E+00 -0.00000000000E+00 -0.27404175735E+03  0.27404175735E+03  0.00000000000E+00 0. -1.
      99926    2    1    2    0    0 -0.12265226922E+03  0.35858859427E+02  0.28286940010E+03  0.55585171623E+03  0.46111451504E+03 0.  0.
         25    1    3    3    0    0 -0.16731096942E+03 -0.42028078979E+02 -0.22084701307E+02  0.21423016138E+03  0.12509000000E+03 0.  0.
         25    1    3    3    0    0  0.44658700200E+02  0.77886938406E+02  0.30495410141E+03  0.34162155486E+03  0.12509000000E+03 0.  0.
         25    1    1    2    0    0  0.12265226922E+03 -0.35858859427E+02 -0.79432086506E+02  0.19566911205E+03  0.12509000000E+03 0.  0.
<mgrwt>
<rscale>  2 0.72346169E+03</rscale>
<asrwt>0</asrwt>
<pdfrwt beam="1">  1       21 0.70217511E-01 0.72346169E+03</pdfrwt>
<pdfrwt beam="2">  1       21 0.40300258E-01 0.72346169E+03</pdfrwt>
<totfact> 0.91453797E+03</totfact>
</mgrwt>
</event>
<event>
 6    0  0.1191266E-005  0.6999521E+03  0.7546771E-02  0.9717314E-01
         21   -1    0    0  502  501  0.00000000000E+00  0.00000000000E+00  0.77474811213E+02  0.77474811213E+02  0.00000000000E+00 0. -1.
         21   -1    0    0  501  502 -0.00000000000E+00 -0.00000000000E+00 -0.15809425749E+04  0.15809425749E+04  0.00000000000E+00 0. -1.
      99926    2    1    2    0    0  0.17004365820E+03  0.22957421158E+01 -0.10460178981E+04  0.11546039248E+04  0.45829757147E+03 0.  0.
         25    1    3    3    0    0 -0.80436537876E+02 -0.88785619670E+02 -0.23601044783E+03  0.29274795041E+03  0.12509000000E+03 0.  0.
         25    1    1    2    0    0 -0.17004365820E+03 -0.22957421158E+01 -0.45744986568E+03  0.50381346135E+03  0.12509000000E+03 0.  0.
         25    1    3    3    0    0  0.25048019607E+03  0.91081361786E+02 -0.81000745023E+03  0.86185597440E+03  0.12509000000E+03 0.  0.
<mgrwt>
<rscale>  2 0.69995208E+03</rscale>
<asrwt>0</asrwt>
<pdfrwt beam="1">  1       21 0.11393356E-01 0.69995208E+03</pdfrwt>
<pdfrwt beam="2">  1       21 0.23249154E+00 0.69995208E+03</pdfrwt>
<totfact> 0.42619635E+03</totfact>
</mgrwt>
</event>
<event>
 6    0  0.1191266E-005  0.6307312E+03  0.7546771E-02  0.9843623E-01
         21   -1    0    0  502  501  0.00000000000E+00  0.00000000000E+00  0.12690816618E+03  0.12690816618E+03  0.00000000000E+00 0. -1.
         21   -1    0    0  501  502 -0.00000000000E+00 -0.00000000000E+00 -0.78368043397E+03  0.78368043397E+03  0.00000000000E+00 0. -1.
      99926    2    1    2    0    0  0.46731968564E+02 -0.53898968928E+02 -0.61000270537E+03  0.75918227331E+03  0.44627956239E+03 0.  0.
         25    1    3    3    0    0 -0.15079617591E+03  0.30793717449E+02 -0.32703381430E+03  0.38247400369E+03  0.12509000000E+03 0.  0.
         25    1    3    3    0    0  0.19752814447E+03 -0.84692686377E+02 -0.28296889107E+03  0.37670826962E+03  0.12509000000E+03 0.  0.
         25    1    1    2    0    0 -0.46731968564E+02  0.53898968928E+02 -0.46769562422E+02  0.15140632684E+03  0.12509000000E+03 0.  0.
<mgrwt>
<rscale>  2 0.63073115E+03</rscale>
<asrwt>0</asrwt>
<pdfrwt beam="1">  1       21 0.18662966E-01 0.63073115E+03</pdfrwt>
<pdfrwt beam="2">  1       21 0.11524712E+00 0.63073115E+03</pdfrwt>
<totfact> 0.13089839E+04</totfact>
</mgrwt>
</event>
<event>
 6    0  0.1191266E-005  0.6545127E+03  0.7546771E-02  0.9798348E-01
         21   -1    0    0  502  501  0.00000000000E+00  0.00000000000E+00  0.18791769860E+03  0.18791769860E+03  0.00000000000E+00 0.  1.
         21   -1    0    0  501  502 -0.00000000000E+00 -0.00000000000E+00 -0.56991288515E+03  0.56991288515E+03  0.00000000000E+00 0.  1.
      99926    2    1    2    0    0 -0.64402140158E+02  0.13470783193E+02 -0.12957459394E+03  0.46853357144E+03  0.44542680040E+03 0.  0.
         25    1    1    2    0    0  0.64402140158E+02 -0.13470783193E+02 -0.25242059261E+03  0.28929701231E+03  0.12509000000E+03 0.  0.
         25    1    3    3    0    0  0.54698795562E+02 -0.11438855839E+03  0.53769872170E+02  0.18605216414E+03  0.12509000000E+03 0.  0.
         25    1    3    3    0    0 -0.11910093572E+03  0.12785934158E+03 -0.18334446611E+03  0.28248140731E+03  0.12509000000E+03 0.  0.
<mgrwt>
<rscale>  2 0.65451270E+03</rscale>
<asrwt>0</asrwt>
<pdfrwt beam="1">  1       21 0.27634955E-01 0.65451270E+03</pdfrwt>
<pdfrwt beam="2">  1       21 0.83810720E-01 0.65451270E+03</pdfrwt>
<totfact> 0.13231782E+04</totfact>
</mgrwt>
</event>
<event>
 6    0  0.1191266E-005  0.5828829E+03  0.7546771E-02  0.9941569E-01
         21   -1    0    0  502  501  0.00000000000E+00  0.00000000000E+00  0.97137045528E+02  0.97137045528E+02  0.00000000000E+00 0. -1.
         21   -1    0    0  501  502 -0.00000000000E+00 -0.00000000000E+00 -0.87441526780E+03  0.87441526780E+03  0.00000000000E+00 0. -1.
      99926    2    1    2    0    0  0.34990700969E+02  0.79011224939E+00 -0.59100696014E+03  0.74446320168E+03  0.45134383600E+03 0.  0.
         25    1    3    3    0    0 -0.15762442584E+02  0.99139487725E+02 -0.35338073760E+02  0.16423574574E+03  0.12509000000E+03 0.  0.
         25    1    1    2    0    0 -0.34990700969E+02 -0.79011224939E+00 -0.18627126214E+03  0.22708911165E+03  0.12509000000E+03 0.  0.
         25    1    3    3    0    0  0.50753143553E+02 -0.98349375476E+02 -0.55566888638E+03  0.58022745594E+03  0.12509000000E+03 0.  0.
<mgrwt>
<rscale>  2 0.58288289E+03</rscale>
<asrwt>0</asrwt>
<pdfrwt beam="1">  1       21 0.14284860E-01 0.58288289E+03</pdfrwt>
<pdfrwt beam="2">  1       21 0.12859048E+00 0.58288289E+03</pdfrwt>
<totfact> 0.16487875E+04</totfact>
</mgrwt>
</event>
<event>
 6    0  0.1191266E-005  0.7348358E+03  0.7546771E-02  0.9659446E-01
         21   -1    0    0  502  501  0.00000000000E+00  0.00000000000E+00  0.47005794871E+03  0.47005794871E+03  0.00000000000E+00 0. -1.
         21   -1    0    0  501  502 -0.00000000000E+00 -0.00000000000E+00 -0.28718994733E+03  0.28718994733E+03  0.00000000000E+00 0.  1.
      99926    2    1    2    0    0  0.21191227823E+03  0.32302135026E+02  0.12065325108E+03  0.50137991280E+03  0.43689171241E+03 0.  0.
         25    1    1    2    0    0 -0.21191227823E+03 -0.32302135026E+02  0.62214750293E+02  0.25586798324E+03  0.12509000000E+03 0.  0.
         25    1    3    3    0    0  0.32341703059E+02 -0.68891257870E+02  0.19971494662E+03  0.24763997894E+03  0.12509000000E+03 0.  0.
         25    1    3    3    0    0  0.17957057517E+03  0.10119339290E+03 -0.79061695538E+02  0.25373993386E+03  0.12509000000E+03 0.  0.
<mgrwt>
<rscale>  2 0.73483581E+03</rscale>
<asrwt>0</asrwt>
<pdfrwt beam="1">  1       21 0.69126169E-01 0.73483581E+03</pdfrwt>
<pdfrwt beam="2">  1       21 0.42233816E-01 0.73483581E+03</pdfrwt>
<totfact> 0.85753481E+03</totfact>
</mgrwt>
</event>
<event>
 6    0  0.1191266E-005  0.5719949E+03  0.7546771E-02  0.9965274E-01
         21   -1    0    0  502  501  0.00000000000E+00  0.00000000000E+00  0.23892470908E+03  0.23892470908E+03  0.00000000000E+00 0. -1.
         21   -1    0    0  501  502 -0.00000000000E+00 -0.00000000000E+00 -0.34234443061E+03  0.34234443061E+03  0.00000000000E+00 0. -1.
      99926    2    1    2    0    0 -0.34465887043E+02  0.30342151228E+02 -0.43134117478E+02  0.43501454774E+03  0.43042834612E+03 0.  0.
         25    1    3    3    0    0  0.36007896075E+02  0.16911234178E+03 -0.87193406376E+02  0.23053362214E+03  0.12509000000E+03 0.  0.
         25    1    1    2    0    0  0.34465887043E+02 -0.30342151228E+02 -0.60285604059E+02  0.14625459195E+03  0.12509000000E+03 0.  0.
         25    1    3    3    0    0 -0.70473783118E+02 -0.13877019055E+03  0.44059288899E+02  0.20448092559E+03  0.12509000000E+03 0.  0.
<mgrwt>
<rscale>  2 0.57199491E+03</rscale>
<asrwt>0</asrwt>
<pdfrwt beam="1">  1       21 0.35135987E-01 0.57199491E+03</pdfrwt>
<pdfrwt beam="2">  1       21 0.50344769E-01 0.57199491E+03</pdfrwt>
<totfact> 0.25990652E+04</totfact>
</mgrwt>
</event>
<event>
 6    0  0.1191266E-005  0.8210535E+03  0.7546771E-02  0.9530033E-01
         21   -1    0    0  502  501  0.00000000000E+00  0.00000000000E+00  0.19235946836E+03  0.19235946836E+03  0.00000000000E+00 0.  1.
         21   -1    0    0  501  502 -0.00000000000E+00 -0.00000000000E+00 -0.87613155881E+03  0.87613155881E+03  0.00000000000E+00 0.  1.
      99926    2    1    2    0    0  0.13003610389E+03  0.22381599209E+03 -0.38370188636E+03  0.65292800894E+03  0.46052672087E+03 0.  0.
         25    1    1    2    0    0 -0.13003610389E+03 -0.22381599209E+03 -0.30007020410E+03  0.41556301823E+03  0.12509000000E+03 0.  0.
         25    1    3    3    0    0 -0.30476320008E+02  0.26174452145E+03 -0.11455514743E+03  0.31338377510E+03  0.12509000000E+03 0.  0.
         25    1    3    3    0    0  0.16051242390E+03 -0.37928529359E+02 -0.26914673893E+03  0.33954423385E+03  0.12509000000E+03 0.  0.
<mgrwt>
<rscale>  2 0.82105347E+03</rscale>
<asrwt>0</asrwt>
<pdfrwt beam="1">  1       21 0.28288156E-01 0.82105347E+03</pdfrwt>
<pdfrwt beam="2">  1       21 0.12884288E+00 0.82105347E+03</pdfrwt>
<totfact> 0.42045225E+03</totfact>
</mgrwt>
</event>
<event>
 6    0  0.1191266E-005  0.6330736E+03  0.7546771E-02  0.9839069E-01
         21   -1    0    0  502  501  0.00000000000E+00  0.00000000000E+00  0.39407112304E+03  0.39407112304E+03  0.00000000000E+00 0. -1.
         21   -1    0    0  501  502 -0.00000000000E+00 -0.00000000000E+00 -0.25425751130E+03  0.25425751130E+03  0.00000000000E+00 0. -1.
      99926    2    1    2    0    0  0.98676498719E+02  0.69652982690E+02  0.13218543890E+03  0.47427609480E+03  0.43917676902E+03 0.  0.
         25    1    3    3    0    0 -0.45110451550E+02  0.11781892455E+03 -0.71219794255E+02  0.19140537875E+03  0.12509000000E+03 0.  0.
         25    1    1    2    0    0 -0.98676498719E+02 -0.69652982690E+02  0.76281728394E+01  0.17405253953E+03  0.12509000000E+03 0.  0.
         25    1    3    3    0    0  0.14378695027E+03 -0.48165941858E+02  0.20340523315E+03  0.28287071605E+03  0.12509000000E+03 0.  0.
<mgrwt>
<rscale>  2 0.63307359E+03</rscale>
<asrwt>0</asrwt>
<pdfrwt beam="1">  1       21 0.57951636E-01 0.63307359E+03</pdfrwt>
<pdfrwt beam="2">  1       21 0.37390810E-01 0.63307359E+03</pdfrwt>
<totfact> 0.16678051E+04</totfact>
</mgrwt>
</event>
<event>
 6    0  0.1191266E-005  0.6999634E+03  0.7546771E-02  0.9717295E-01
         21   -1    0    0  502  501  0.00000000000E+00  0.00000000000E+00  0.79128354132E+03  0.79128354132E+03  0.00000000000E+00 0. -1.
         21   -1    0    0  501  502 -0.00000000000E+00 -0.00000000000E+00 -0.15479555793E+03  0.15479555793E+03  0.00000000000E+00 0. -1.
      99926    2    1    2    0    0 -0.97784721705E+02  0.88387259146E+01  0.63454375510E+03  0.78704682894E+03  0.45514498671E+03 0.  0.
         25    1    3    3    0    0 -0.21696105269E+03 -0.32335771201E+02  0.51314233453E+03  0.57190931455E+03  0.12509000000E+03 0.  0.
         25    1    1    2    0    0  0.97784721705E+02 -0.88387259146E+01  0.19442282866E+01  0.15903227031E+03  0.12509000000E+03 0.  0.
         25    1    3    3    0    0  0.11917633098E+03  0.41174497115E+02  0.12140142057E+03  0.21513751439E+03  0.12509000000E+03 0.  0.
<mgrwt>
<rscale>  2 0.69996336E+03</rscale>
<asrwt>0</asrwt>
<pdfrwt beam="1">  1       21 0.11636522E+00 0.69996336E+03</pdfrwt>
<pdfrwt beam="2">  1       21 0.22764053E-01 0.69996336E+03</pdfrwt>
<totfact> 0.85959107E+03</totfact>
</mgrwt>
</event>
<event>
 6    0  0.1191266E-005  0.9601031E+03  0.7546771E-02  0.9353419E-01
         21   -1    0    0  502  501  0.00000000000E+00  0.00000000000E+00  0.16781732640E+04  0.16781732640E+04  0.00000000000E+00 0. -1.
         21   -1    0    0  501  502 -0.00000000000E+00 -0.00000000000E+00 -0.13732164176E+03  0.13732164176E+03  0.00000000000E+00 0. -1.
      99926    2    1    2    0    0  0.18443326586E+03 -0.66222597680E+02  0.14980595859E+04  0.15791059710E+04  0.45933874526E+03 0.  0.
         25    1    1    2    0    0 -0.18443326586E+03  0.66222597680E+02  0.42792036393E+02  0.23638893476E+03  0.12509000000E+03 0.  0.
         25    1    3    3    0    0 -0.15712970835E+02  0.13486251582E+03  0.45790176549E+03  0.49371685263E+03  0.12509000000E+03 0.  0.
         25    1    3    3    0    0  0.20014623669E+03 -0.20108511350E+03  0.10401578204E+04  0.10853891184E+04  0.12509000000E+03 0.  0.
<mgrwt>
<rscale>  2 0.96010314E+03</rscale>
<asrwt>0</asrwt>
<pdfrwt beam="1">  1       21 0.24679017E+00 0.96010314E+03</pdfrwt>
<pdfrwt beam="2">  1       21 0.20194360E-01 0.96010314E+03</pdfrwt>
<totfact> 0.11087892E+03</totfact>
</mgrwt>
</event>
<event>
 6    0  0.1191266E-005  0.7522519E+03  0.7546771E-02  0.9631824E-01
         21   -1    0    0  502  501  0.00000000000E+00  0.00000000000E+00  0.39659636022E+03  0.39659636022E+03  0.00000000000E+00 0. -1.
         21   -1    0    0  501  502 -0.00000000000E+00 -0.00000000000E+00 -0.35671212963E+03  0.35671212963E+03  0.00000000000E+00 0. -1.
      99926    2    1    2    0    0  0.54061543831E+02  0.85256648252E+02 -0.16630382581E+03  0.49186562937E+03  0.45175600526E+03 0.  0.
         25    1    3    3    0    0  0.20638969791E+03  0.89180646369E+02 -0.14017349581E+03  0.29299490118E+03  0.12509000000E+03 0.  0.
         25    1    3    3    0    0 -0.15232815408E+03 -0.39239981166E+01 -0.26130330000E+02  0.19887072819E+03  0.12509000000E+03 0.  0.
         25    1    1    2    0    0 -0.54061543831E+02 -0.85256648252E+02  0.20618805640E+03  0.26144286048E+03  0.12509000000E+03 0.  0.
<mgrwt>
<rscale>  2 0.75225191E+03</rscale>
<asrwt>0</asrwt>
<pdfrwt beam="1">  1       21 0.58322994E-01 0.75225191E+03</pdfrwt>
<pdfrwt beam="2">  1       21 0.52457666E-01 0.75225191E+03</pdfrwt>
<totfact> 0.78787419E+03</totfact>
</mgrwt>
</event>
<event>
 6    0  0.1191266E-005  0.5823898E+03  0.7546771E-02  0.9942630E-01
         21   -1    0    0  502  501  0.00000000000E+00  0.00000000000E+00  0.16923590317E+04  0.16923590317E+04  0.00000000000E+00 0.  1.
         21   -1    0    0  501  502 -0.00000000000E+00 -0.00000000000E+00 -0.50104305656E+02  0.50104305656E+02  0.00000000000E+00 0.  1.
      99926    2    1    2    0    0 -0.25651632099E+02  0.34323008873E+02  0.13126087391E+04  0.13872872402E+04  0.44697663223E+03 0.  0.
         25    1    3    3    0    0  0.39472822590E+02 -0.13663033157E+03  0.33463548785E+03  0.38451835985E+03  0.12509000000E+03 0.  0.
         25    1    3    3    0    0 -0.65124454689E+02  0.17095334044E+03  0.97797325121E+03  0.10027688803E+04  0.12509000000E+03 0.  0.
         25    1    1    2    0    0  0.25651632099E+02 -0.34323008873E+02  0.32964598701E+03  0.35517609720E+03  0.12509000000E+03 0.  0.
<mgrwt>
<rscale>  2 0.58238982E+03</rscale>
<asrwt>0</asrwt>
<pdfrwt beam="1">  1       21 0.24887629E+00 0.58238982E+03</pdfrwt>
<pdfrwt beam="2">  1       21 0.73682813E-02 0.58238982E+03</pdfrwt>
<totfact> 0.76133204E+03</totfact>
</mgrwt>
</event>
<event>
 6    0  0.1191266E-005  0.6122098E+03  0.7546771E-02  0.9880393E-01
         21   -1    0    0  502  501  0.00000000000E+00  0.00000000000E+00  0.90878179873E+02  0.90878179873E+02  0.00000000000E+00 0. -1.
         21   -1    0    0  501  502 -0.00000000000E+00 -0.00000000000E+00 -0.10310530143E+04  0.10310530143E+04  0.00000000000E+00 0. -1.
      99926    2    1    2    0    0 -0.87285731356E+01  0.68357975022E+02 -0.78930365257E+03  0.91418466027E+03  0.45605299732E+03 0.  0.
         25    1    3    3    0    0 -0.13520399877E+03 -0.10302161100E+03 -0.31074275568E+03  0.37563565050E+03  0.12509000000E+03 0.  0.
         25    1    3    3    0    0  0.12647542563E+03  0.17137958602E+03 -0.47856089689E+03  0.53854900977E+03  0.12509000000E+03 0.  0.
         25    1    1    2    0    0  0.87285731356E+01 -0.68357975022E+02 -0.15087118188E+03  0.20774653393E+03  0.12509000000E+03 0.  0.
<mgrwt>
<rscale>  2 0.61220984E+03</rscale>
<asrwt>0</asrwt>
<pdfrwt beam="1">  1       21 0.13364438E-01 0.61220984E+03</pdfrwt>
<pdfrwt beam="2">  1       21 0.15162544E+00 0.61220984E+03</pdfrwt>
<totfact> 0.11918403E+04</totfact>
</mgrwt>
</event>
<event>
 6    0  0.1191266E-005  0.6093654E+03  0.7546771E-02  0.9886164E-01
         21   -1    0    0  502  501  0.00000000000E+00  0.00000000000E+00  0.21581459859E+03  0.21581459859E+03  0.00000000000E+00 0. -1.
         21   -1    0    0  501  502 -0.00000000000E+00 -0.00000000000E+00 -0.43014488039E+03  0.43014488039E+03  0.00000000000E+00 0. -1.
      99926    2    1    2    0    0  0.52178663848E+02 -0.50917406201E+02 -0.22154666843E+03  0.50099472619E+03  0.44339327257E+03 0.  0.
         25    1    1    2    0    0 -0.52178663848E+02  0.50917406201E+02  0.72163866244E+01  0.14496475279E+03  0.12509000000E+03 0.  0.
         25    1    3    3    0    0 -0.13299306058E+03  0.45701466997E+02 -0.16673590553E+03  0.25144412608E+03  0.12509000000E+03 0.  0.
         25    1    3    3    0    0  0.18517172442E+03 -0.96618873198E+02 -0.54810762895E+02  0.24955060011E+03  0.12509000000E+03 0.  0.
<mgrwt>
<rscale>  2 0.60936539E+03</rscale>
<asrwt>0</asrwt>
<pdfrwt beam="1">  1       21 0.31737441E-01 0.60936539E+03</pdfrwt>
<pdfrwt beam="2">  1       21 0.63256600E-01 0.60936539E+03</pdfrwt>
<totfact> 0.19263881E+04</totfact>
</mgrwt>
</event>
<event>
 6    0  0.1191266E-005  0.7307889E+03  0.7546771E-02  0.9665981E-01
         21   -1    0    0  502  501  0.00000000000E+00  0.00000000000E+00  0.57638144893E+03  0.57638144893E+03  0.00000000000E+00 0. -1.
         21   -1    0    0  501  502 -0.00000000000E+00 -0.00000000000E+00 -0.23164016107E+03  0.23164016107E+03  0.00000000000E+00 0. -1.
      99926    2    1    2    0    0 -0.87745713887E+02  0.29464939703E+02  0.43784735811E+03  0.62668286236E+03  0.43869534758E+03 0.  0.
         25    1    1    2    0    0  0.87745713887E+02 -0.29464939703E+02 -0.93106070251E+02  0.18133874764E+03  0.12509000000E+03 0.  0.
         25    1    3    3    0    0 -0.15680136932E+03 -0.31392827588E+02  0.50284694404E+02  0.20916079373E+03  0.12509000000E+03 0.  0.
         25    1    3    3    0    0  0.69055655430E+02  0.60857767291E+02  0.38756266371E+03  0.41752206862E+03  0.12509000000E+03 0.  0.
<mgrwt>
<rscale>  2 0.73078887E+03</rscale>
<asrwt>0</asrwt>
<pdfrwt beam="1">  1       21 0.84761978E-01 0.73078887E+03</pdfrwt>
<pdfrwt beam="2">  1       21 0.34064730E-01 0.73078887E+03</pdfrwt>
<totfact> 0.83419670E+03</totfact>
</mgrwt>
</event>
<event>
 6    0  0.1191266E-005  0.6041648E+03  0.7546771E-02  0.9896803E-01
         21   -1    0    0  502  501  0.00000000000E+00  0.00000000000E+00  0.33789159298E+03  0.33789159298E+03  0.00000000000E+00 0.  1.
         21   -1    0    0  501  502 -0.00000000000E+00 -0.00000000000E+00 -0.27006823267E+03  0.27006823267E+03  0.00000000000E+00 0.  1.
      99926    2    1    2    0    0 -0.10404519918E+02 -0.67025889722E+02  0.28412625923E+02  0.46030672540E+03  0.45439441040E+03 0.  0.
         25    1    3    3    0    0 -0.12340323707E+03  0.11518092109E+03 -0.28535213905E+01  0.21012057060E+03  0.12509000000E+03 0.  0.
         25    1    3    3    0    0  0.11299871715E+03 -0.18220681082E+03  0.31266147313E+02  0.25018615480E+03  0.12509000000E+03 0.  0.
         25    1    1    2    0    0  0.10404519918E+02  0.67025889722E+02  0.39410734392E+02  0.14765310025E+03  0.12509000000E+03 0.  0.
<mgrwt>
<rscale>  2 0.60416483E+03</rscale>
<asrwt>0</asrwt>
<pdfrwt beam="1">  1       21 0.49689940E-01 0.60416483E+03</pdfrwt>
<pdfrwt beam="2">  1       21 0.39715917E-01 0.60416483E+03</pdfrwt>
<totfact> 0.20659288E+04</totfact>
</mgrwt>
</event>
<event>
 6    0  0.1191266E-005  0.7174076E+03  0.7546771E-02  0.9687917E-01
         21   -1    0    0  502  501  0.00000000000E+00  0.00000000000E+00  0.19865193827E+04  0.19865193827E+04  0.00000000000E+00 0.  1.
         21   -1    0    0  501  502 -0.00000000000E+00 -0.00000000000E+00 -0.64770779478E+02  0.64770779478E+02  0.00000000000E+00 0.  1.
      99926    2    1    2    0    0  0.60055591701E+02  0.16087487816E+03  0.11408297608E+04  0.12419885206E+04  0.45995167318E+03 0.  0.
         25    1    3    3    0    0  0.22271750329E+03  0.62072823745E+02  0.58816976242E+03  0.64424164662E+03  0.12509000000E+03 0.  0.
         25    1    1    2    0    0 -0.60055591701E+02 -0.16087487816E+03  0.78091884244E+03  0.80930164160E+03  0.12509000000E+03 0.  0.
         25    1    3    3    0    0 -0.16266191159E+03  0.98802054411E+02  0.55265999842E+03  0.59774687401E+03  0.12509000000E+03 0.  0.
<mgrwt>
<rscale>  2 0.71740758E+03</rscale>
<asrwt>0</asrwt>
<pdfrwt beam="1">  1       21 0.29213516E+00 0.71740758E+03</pdfrwt>
<pdfrwt beam="2">  1       21 0.95251159E-02 0.71740758E+03</pdfrwt>
<totfact> 0.24989697E+03</totfact>
</mgrwt>
</event>
<event>
 6    0  0.1191266E-005  0.6752979E+03  0.7546771E-02  0.9760434E-01
         21   -1    0    0  502  501  0.00000000000E+00  0.00000000000E+00  0.18858422697E+03  0.18858422697E+03  0.00000000000E+00 0. -1.
         21   -1    0    0  501  502 -0.00000000000E+00 -0.00000000000E+00 -0.60454053508E+03  0.60454053508E+03  0.00000000000E+00 0. -1.
      99926    2    1    2    0    0 -0.90416117427E+02 -0.93937579688E+02 -0.40297343868E+03  0.61197453111E+03  0.44173056413E+03 0.  0.
         25    1    1    2    0    0  0.90416117427E+02  0.93937579688E+02 -0.12982869425E+02  0.18115023093E+03  0.12509000000E+03 0.  0.
         25    1    3    3    0    0 -0.27647266639E+00 -0.19678078767E+03 -0.93445333965E+02  0.25120169858E+03  0.12509000000E+03 0.  0.
         25    1    3    3    0    0 -0.90139644760E+02  0.10284320798E+03 -0.30952810471E+03  0.36077283253E+03  0.12509000000E+03 0.  0.
<mgrwt>
<rscale>  2 0.67529789E+03</rscale>
<asrwt>0</asrwt>
<pdfrwt beam="1">  1       21 0.27732975E-01 0.67529789E+03</pdfrwt>
<pdfrwt beam="2">  1       21 0.88903020E-01 0.67529789E+03</pdfrwt>
<totfact> 0.11379796E+04</totfact>
</mgrwt>
</event>
<event>
 6    0  0.1191266E-005  0.6648721E+03  0.7546771E-02  0.9779266E-01
         21   -1    0    0  502  501  0.00000000000E+00  0.00000000000E+00  0.42533524138E+03  0.42533524138E+03  0.00000000000E+00 0.  1.
         21   -1    0    0  501  502 -0.00000000000E+00 -0.00000000000E+00 -0.25982736655E+03  0.25982736655E+03  0.00000000000E+00 0.  1.
      99926    2    1    2    0    0  0.52794423679E+02  0.27557118020E+01 -0.13478457540E+02  0.46048848748E+03  0.45724515653E+03 0.  0.
         25    1    1    2    0    0 -0.52794423679E+02 -0.27557118020E+01  0.17898633238E+03  0.22467412044E+03  0.12509000000E+03 0.  0.
         25    1    3    3    0    0 -0.98442151408E+02 -0.14403524512E+03 -0.17328950284E+02  0.21537132963E+03  0.12509000000E+03 0.  0.
         25    1    3    3    0    0  0.15123657509E+03  0.14679095692E+03  0.38504927442E+01  0.24511715785E+03  0.12509000000E+03 0.  0.
<mgrwt>
<rscale>  2 0.66487213E+03</rscale>
<asrwt>0</asrwt>
<pdfrwt beam="1">  1       21 0.62549301E-01 0.66487213E+03</pdfrwt>
<pdfrwt beam="2">  1       21 0.38209907E-01 0.66487213E+03</pdfrwt>
<totfact> 0.13393519E+04</totfact>
</mgrwt>
</event>
<event>
 6    0  0.1191266E-005  0.6041645E+03  0.7546771E-02  0.9896804E-01
         21   -1    0    0  502  501  0.00000000000E+00  0.00000000000E+00  0.58773557000E+03  0.58773557000E+03  0.00000000000E+00 0.  1.
         21   -1    0    0  501  502 -0.00000000000E+00 -0.00000000000E+00 -0.15526315397E+03  0.15526315397E+03  0.00000000000E+00 0.  1.
      99926    2    1    2    0    0 -0.81299016820E+02 -0.11591089936E+02  0.30627917893E+03  0.54725367373E+03  0.44602215692E+03 0.  0.
         25    1    3    3    0    0  0.11255463316E+03 -0.11019856014E+03  0.15830636406E+03  0.25597007853E+03  0.12509000000E+03 0.  0.
         25    1    3    3    0    0 -0.19385364998E+03  0.98607470203E+02  0.14797281488E+03  0.29128359520E+03  0.12509000000E+03 0.  0.
         25    1    1    2    0    0  0.81299016820E+02  0.11591089936E+02  0.12619323710E+03  0.19574505024E+03  0.12509000000E+03 0.  0.
<mgrwt>
<rscale>  2 0.60416448E+03</rscale>
<asrwt>0</asrwt>
<pdfrwt beam="1">  1       21 0.86431701E-01 0.60416448E+03</pdfrwt>
<pdfrwt beam="2">  1       21 0.22832817E-01 0.60416448E+03</pdfrwt>
<totfact> 0.18063453E+04</totfact>
</mgrwt>
</event>
<event>
 6    0  0.1191266E-005  0.7636473E+03  0.7546771E-02  0.9614180E-01
         21   -1    0    0  502  501  0.00000000000E+00  0.00000000000E+00  0.45530423157E+03  0.45530423157E+03  0.00000000000E+00 0.  1.
         21   -1    0    0  501  502 -0.00000000000E+00 -0.00000000000E+00 -0.32020192916E+03  0.32020192916E+03  0.00000000000E+00 0.  1.
      99926    2    1    2    0    0  0.13374706566E+03 -0.16983589628E+02 -0.11546715623E+03  0.46468582421E+03  0.42944560908E+03 0.  0.
         25    1    3    3    0    0  0.35615827969E+02  0.35264934521E+02 -0.22670724122E+03  0.26373430594E+03  0.12509000000E+03 0.  0.
         25    1    1    2    0    0 -0.13374706566E+03  0.16983589628E+02  0.25056945865E+03  0.31082033652E+03  0.12509000000E+03 0.  0.
         25    1    3    3    0    0  0.98131237694E+02 -0.52248524148E+02  0.11124008499E+03  0.20095151827E+03  0.12509000000E+03 0.  0.
<mgrwt>
<rscale>  2 0.76364728E+03</rscale>
<asrwt>0</asrwt>
<pdfrwt beam="1">  1       21 0.66956505E-01 0.76364728E+03</pdfrwt>
<pdfrwt beam="2">  1       21 0.47088519E-01 0.76364728E+03</pdfrwt>
<totfact> 0.72863325E+03</totfact>
</mgrwt>
</event>
<event>
 6    0  0.1191266E-005  0.5987674E+03  0.7546771E-02  0.9907967E-01
         21   -1    0    0  502  501  0.00000000000E+00  0.00000000000E+00  0.16214883481E+03  0.16214883481E+03  0.00000000000E+00 0. -1.
         21   -1    0    0  501  502 -0.00000000000E+00 -0.00000000000E+00 -0.55276743021E+03  0.55276743021E+03  0.00000000000E+00 0. -1.
      99926    2    1    2    0    0  0.58316456695E+01  0.45621523324E+02 -0.24709547005E+03  0.51905476525E+03  0.45414353076E+03 0.  0.
         25    1    1    2    0    0 -0.58316456695E+01 -0.45621523324E+02 -0.14352312535E+03  0.19586149977E+03  0.12509000000E+03 0.  0.
         25    1    3    3    0    0 -0.17702261851E+02  0.18337153080E+03 -0.24556624086E+03  0.33149475884E+03  0.12509000000E+03 0.  0.
         25    1    3    3    0    0  0.23533907521E+02 -0.13775000748E+03 -0.15292291883E+01  0.18756000641E+03  0.12509000000E+03 0.  0.
<mgrwt>
<rscale>  2 0.59876738E+03</rscale>
<asrwt>0</asrwt>
<pdfrwt beam="1">  1       21 0.23845417E-01 0.59876738E+03</pdfrwt>
<pdfrwt beam="2">  1       21 0.81289328E-01 0.59876738E+03</pdfrwt>
<totfact> 0.19196347E+04</totfact>
</mgrwt>
</event>
<event>
 6    0  0.1191266E-005  0.6062146E+03  0.7546771E-02  0.9892596E-01
         21   -1    0    0  502  501  0.00000000000E+00  0.00000000000E+00  0.15278938111E+03  0.15278938111E+03  0.00000000000E+00 0.  1.
         21   -1    0    0  501  502 -0.00000000000E+00 -0.00000000000E+00 -0.60131168736E+03  0.60131168736E+03  0.00000000000E+00 0.  1.
      99926    2    1    2    0    0  0.30620456797E+02 -0.27975578048E+02 -0.26302054243E+03  0.52655182583E+03  0.45426509244E+03 0.  0.
         25    1    3    3    0    0  0.15374184219E+03  0.18919252285E+02 -0.28056439122E+03  0.34403252443E+03  0.12509000000E+03 0.  0.
         25    1    1    2    0    0 -0.30620456797E+02  0.27975578048E+02 -0.18550176382E+03  0.22754924263E+03  0.12509000000E+03 0.  0.
         25    1    3    3    0    0 -0.12312138539E+03 -0.46894830333E+02  0.17543848796E+02  0.18251930140E+03  0.12509000000E+03 0.  0.
<mgrwt>
<rscale>  2 0.60621462E+03</rscale>
<asrwt>0</asrwt>
<pdfrwt beam="1">  1       21 0.22469026E-01 0.60621462E+03</pdfrwt>
<pdfrwt beam="2">  1       21 0.88428191E-01 0.60621462E+03</pdfrwt>
<totfact> 0.17645268E+04</totfact>
</mgrwt>
</event>
<event>
 6    0  0.1191266E-005  0.7675474E+03  0.7546771E-02  0.9608216E-01
         21   -1    0    0  502  501  0.00000000000E+00  0.00000000000E+00  0.71909776825E+03  0.71909776825E+03  0.00000000000E+00 0.  1.
         21   -1    0    0  501  502 -0.00000000000E+00 -0.00000000000E+00 -0.20481535907E+03  0.20481535907E+03  0.00000000000E+00 0.  1.
      99926    2    1    2    0    0  0.28997942941E+02 -0.17036196784E+03  0.51404651296E+03  0.71057854379E+03  0.45914482315E+03 0.  0.
         25    1    3    3    0    0 -0.16443504567E+02  0.11747336516E+03  0.20394620622E+03  0.26704296189E+03  0.12509000000E+03 0.  0.
         25    1    3    3    0    0  0.45441447507E+02 -0.28783533299E+03  0.31010030674E+03  0.44353558190E+03  0.12509000000E+03 0.  0.
         25    1    1    2    0    0 -0.28997942941E+02  0.17036196784E+03  0.23589622074E+00  0.21333458352E+03  0.12509000000E+03 0.  0.
<mgrwt>
<rscale>  2 0.76754744E+03</rscale>
<asrwt>0</asrwt>
<pdfrwt beam="1">  1       21 0.10574967E+00 0.76754744E+03</pdfrwt>
<pdfrwt beam="2">  1       21 0.30119906E-01 0.76754744E+03</pdfrwt>
<totfact> 0.62100218E+03</totfact>
</mgrwt>
</event>
<event>
 6    0  0.1191266E-005  0.9569615E+03  0.7546771E-02  0.9357050E-01
         21   -1    0    0  502  501  0.00000000000E+00  0.00000000000E+00  0.84348015413E+03  0.84348015413E+03  0.00000000000E+00 0.  1.
         21   -1    0    0  501  502 -0.00000000000E+00 -0.00000000000E+00 -0.27142765711E+03  0.27142765711E+03  0.00000000000E+00 0.  1.
      99926    2    1    2    0    0  0.16637741963E+03  0.30720160928E+03  0.43849744260E+03  0.72052381668E+03  0.45257075551E+03 0.  0.
         25    1    3    3    0    0  0.25908804128E+02  0.20575419102E+03  0.10821870841E+02  0.24242663682E+03  0.12509000000E+03 0.  0.
         25    1    3    3    0    0  0.14046861550E+03  0.10144741826E+03  0.42767557176E+03  0.47809717986E+03  0.12509000000E+03 0.  0.
         25    1    1    2    0    0 -0.16637741963E+03 -0.30720160928E+03  0.13355505442E+03  0.39438399456E+03  0.12509000000E+03 0.  0.
<mgrwt>
<rscale>  2 0.95696153E+03</rscale>
<asrwt>0</asrwt>
<pdfrwt beam="1">  1       21 0.12404120E+00 0.95696153E+03</pdfrwt>
<pdfrwt beam="2">  1       21 0.39915832E-01 0.95696153E+03</pdfrwt>
<totfact> 0.22457559E+03</totfact>
</mgrwt>
</event>
<event>
 6    0  0.1191266E-005  0.6437846E+03  0.7546771E-02  0.9818512E-01
         21   -1    0    0  502  501  0.00000000000E+00  0.00000000000E+00  0.59563786055E+03  0.59563786055E+03  0.00000000000E+00 0. -1.
         21   -1    0    0  501  502 -0.00000000000E+00 -0.00000000000E+00 -0.17395576062E+03  0.17395576062E+03  0.00000000000E+00 0. -1.
      99926    2    1    2    0    0  0.17176677535E+02 -0.69903433680E+02  0.18386517201E+03  0.49141035856E+03  0.44999578968E+03 0.  0.
         25    1    3    3    0    0 -0.24219609394E+02 -0.19252873991E+03  0.20681568900E+03  0.30995829153E+03  0.12509000000E+03 0.  0.
         25    1    3    3    0    0  0.41396286928E+02  0.12262530623E+03 -0.22950516987E+02  0.18145206703E+03  0.12509000000E+03 0.  0.
         25    1    1    2    0    0 -0.17176677535E+02  0.69903433680E+02  0.23781692792E+03  0.27818326261E+03  0.12509000000E+03 0.  0.
<mgrwt>
<rscale>  2 0.64378455E+03</rscale>
<asrwt>0</asrwt>
<pdfrwt beam="1">  1       21 0.87593803E-01 0.64378455E+03</pdfrwt>
<pdfrwt beam="2">  1       21 0.25581730E-01 0.64378455E+03</pdfrwt>
<totfact> 0.13910287E+04</totfact>
</mgrwt>
</event>
<event>
 6    0  0.1191266E-005  0.9150221E+03  0.7546771E-02  0.9406996E-01
         21   -1    0    0  502  501  0.00000000000E+00  0.00000000000E+00  0.19013249270E+04  0.19013249270E+04  0.00000000000E+00 0. -1.
         21   -1    0    0  501  502 -0.00000000000E+00 -0.00000000000E+00 -0.11008972796E+03  0.11008972796E+03  0.00000000000E+00 0. -1.
      99926    2    1    2    0    0 -0.21313808788E+03 -0.47625406702E+02  0.16429872941E+04  0.17193171143E+04  0.45710837550E+03 0.  0.
         25    1    1    2    0    0  0.21313808788E+03  0.47625406702E+02  0.14824790494E+03  0.29209754070E+03  0.12509000000E+03 0.  0.
         25    1    3    3    0    0  0.95853423382E+02 -0.12397732294E+02  0.72524196538E+03  0.74227016577E+03  0.12509000000E+03 0.  0.
         25    1    3    3    0    0 -0.30899151126E+03 -0.35227674408E+02  0.91774532875E+03  0.97704694852E+03  0.12509000000E+03 0.  0.
<mgrwt>
<rscale>  2 0.91502206E+03</rscale>
<asrwt>0</asrwt>
<pdfrwt beam="1">  1       21 0.27960659E+00 0.91502206E+03</pdfrwt>
<pdfrwt beam="2">  1       21 0.16189667E-01 0.91502206E+03</pdfrwt>
<totfact> 0.10634939E+03</totfact>
</mgrwt>
</event>
<event>
 6    0  0.1191266E-005  0.8034492E+03  0.7546771E-02  0.9555038E-01
         21   -1    0    0  502  501  0.00000000000E+00  0.00000000000E+00  0.18189421005E+04  0.18189421005E+04  0.00000000000E+00 0.  1.
         21   -1    0    0  501  502 -0.00000000000E+00 -0.00000000000E+00 -0.88723366965E+02  0.88723366965E+02  0.00000000000E+00 0.  1.
      99926    2    1    2    0    0  0.20131429860E+03  0.41306541030E+01  0.14913473768E+04  0.15711368026E+04  0.45145248372E+03 0.  0.
         25    1    3    3    0    0  0.14057510874E+03 -0.99529047438E+01  0.20983868917E+03  0.28202873095E+03  0.12509000000E+03 0.  0.
         25    1    1    2    0    0 -0.20131429860E+03 -0.41306541030E+01  0.23887135680E+03  0.33652866494E+03  0.12509000000E+03 0.  0.
         25    1    3    3    0    0  0.60739189860E+02  0.14083558847E+02  0.12815086876E+04  0.12891080716E+04  0.12509000000E+03 0.  0.
<mgrwt>
<rscale>  2 0.80344923E+03</rscale>
<asrwt>0</asrwt>
<pdfrwt beam="1">  1       21 0.26749146E+00 0.80344923E+03</pdfrwt>
<pdfrwt beam="2">  1       21 0.13047555E-01 0.80344923E+03</pdfrwt>
<totfact> 0.19476832E+03</totfact>
</mgrwt>
</event>
<event>
 6    0  0.1191266E-005  0.6319775E+03  0.7546771E-02  0.9841197E-01
         21   -1    0    0  502  501  0.00000000000E+00  0.00000000000E+00  0.39001107128E+02  0.39001107128E+02  0.00000000000E+00 0. -1.
         21   -1    0    0  501  502 -0.00000000000E+00 -0.00000000000E+00 -0.25601554323E+04  0.25601554323E+04  0.00000000000E+00 0. -1.
      99926    2    1    2    0    0  0.34153215421E+02 -0.37156601320E+02 -0.12956342020E+04  0.13662355624E+04  0.43056308653E+03 0.  0.
         25    1    1    2    0    0 -0.34153215421E+02  0.37156601320E+02 -0.12255201231E+04  0.12329209770E+04  0.12509000000E+03 0.  0.
         25    1    3    3    0    0 -0.11508823840E+03  0.86254037434E+02 -0.75108318081E+03  0.77489258235E+03  0.12509000000E+03 0.  0.
         25    1    3    3    0    0  0.14924145382E+03 -0.12341063875E+03 -0.54455102118E+03  0.59134298006E+03  0.12509000000E+03 0.  0.
<mgrwt>
<rscale>  2 0.63197752E+03</rscale>
<asrwt>0</asrwt>
<pdfrwt beam="1">  1       21 0.57354557E-02 0.63197752E+03</pdfrwt>
<pdfrwt beam="2">  1       21 0.37649353E+00 0.63197752E+03</pdfrwt>
<totfact> 0.19020919E+03</totfact>
</mgrwt>
</event>
<event>
 6    0  0.1191266E-005  0.7083940E+03  0.7546771E-02  0.9702984E-01
         21   -1    0    0  502  501  0.00000000000E+00  0.00000000000E+00  0.32561019149E+03  0.32561019149E+03  0.00000000000E+00 0. -1.
         21   -1    0    0  501  502 -0.00000000000E+00 -0.00000000000E+00 -0.38529357127E+03  0.38529357127E+03  0.00000000000E+00 0. -1.
      99926    2    1    2    0    0  0.42010322071E+02 -0.16337404522E+03 -0.84674491332E+02  0.49941378767E+03  0.46237259436E+03 0.  0.
         25    1    3    3    0    0  0.33922321156E+00  0.12357206669E+03 -0.18885009884E+02  0.17684547616E+03  0.12509000000E+03 0.  0.
         25    1    1    2    0    0 -0.42010322071E+02  0.16337404522E+03  0.24991111555E+02  0.21148997510E+03  0.12509000000E+03 0.  0.
         25    1    3    3    0    0  0.41671098860E+02 -0.28694611191E+03 -0.65789481448E+02  0.32256831151E+03  0.12509000000E+03 0.  0.
<mgrwt>
<rscale>  2 0.70839400E+03</rscale>
<asrwt>0</asrwt>
<pdfrwt beam="1">  1       21 0.47883852E-01 0.70839400E+03</pdfrwt>
<pdfrwt beam="2">  1       21 0.56660819E-01 0.70839400E+03</pdfrwt>
<totfact> 0.10294798E+04</totfact>
</mgrwt>
</event>
<event>
 6    0  0.1191266E-005  0.7031725E+03  0.7546771E-02  0.9711822E-01
         21   -1    0    0  502  501  0.00000000000E+00  0.00000000000E+00  0.42220264799E+03  0.42220264799E+03  0.00000000000E+00 0. -1.
         21   -1    0    0  501  502 -0.00000000000E+00 -0.00000000000E+00 -0.29278093341E+03  0.29278093341E+03  0.00000000000E+00 0. -1.
      99926    2    1    2    0    0 -0.73024764816E+02  0.35319585653E+02  0.24625027061E+03  0.52557262869E+03  0.45717316505E+03 0.  0.
         25    1    3    3    0    0 -0.72512475921E+02 -0.65137872064E+02  0.31372330979E+03  0.35152642112E+03  0.12509000000E+03 0.  0.
         25    1    3    3    0    0 -0.51228889489E+00  0.10045745772E+03 -0.67473039186E+02  0.17404620757E+03  0.12509000000E+03 0.  0.
         25    1    1    2    0    0  0.73024764816E+02 -0.35319585653E+02 -0.11682855603E+03  0.18941095272E+03  0.12509000000E+03 0.  0.
<mgrwt>
<rscale>  2 0.70317248E+03</rscale>
<asrwt>0</asrwt>
<pdfrwt beam="1">  1       21 0.62088625E-01 0.70317248E+03</pdfrwt>
<pdfrwt beam="2">  1       21 0.43056020E-01 0.70317248E+03</pdfrwt>
<totfact> 0.10543882E+04</totfact>
</mgrwt>
</event>
<event>
 6    0  0.1191266E-005  0.6078161E+03  0.7546771E-02  0.9889321E-01
         21   -1    0    0  502  501  0.00000000000E+00  0.00000000000E+00  0.39839068049E+03  0.39839068049E+03  0.00000000000E+00 0. -1.
         21   -1    0    0  501  502 -0.00000000000E+00 -0.00000000000E+00 -0.23183301497E+03  0.23183301497E+03  0.00000000000E+00 0. -1.
      99926    2    1    2    0    0  0.28395069119E+02 -0.83204360807E+02  0.40659232829E+02  0.43216519638E+03  0.42117020091E+03 0.  0.
         25    1    1    2    0    0 -0.28395069119E+02  0.83204360807E+02  0.12589843269E+03  0.19805849909E+03  0.12509000000E+03 0.  0.
         25    1    3    3    0    0  0.76288326716E+02 -0.16774007099E+03  0.12217506936E+03  0.25402932091E+03  0.12509000000E+03 0.  0.
         25    1    3    3    0    0 -0.47893257597E+02  0.84535710188E+02 -0.81515836534E+02  0.17813587546E+03  0.12509000000E+03 0.  0.
<mgrwt>
<rscale>  2 0.60781613E+03</rscale>
<asrwt>0</asrwt>
<pdfrwt beam="1">  1       21 0.58586865E-01 0.60781613E+03</pdfrwt>
<pdfrwt beam="2">  1       21 0.34093091E-01 0.60781613E+03</pdfrwt>
<totfact> 0.19755997E+04</totfact>
</mgrwt>
</event>
<event>
 6    0  0.1191266E-005  0.7602276E+03  0.7546771E-02  0.9619440E-01
         21   -1    0    0  502  501  0.00000000000E+00  0.00000000000E+00  0.11226154041E+03  0.11226154041E+03  0.00000000000E+00 0. -1.
         21   -1    0    0  501  502 -0.00000000000E+00 -0.00000000000E+00 -0.12870525579E+04  0.12870525579E+04  0.00000000000E+00 0.  1.
      99926    2    1    2    0    0 -0.17039721013E+03 -0.13812810724E+03 -0.81317324326E+03  0.95825910632E+03  0.45705055307E+03 0.  0.
         25    1    3    3    0    0 -0.19526238597E+03  0.72313849294E+02 -0.53061101469E+03  0.58356854712E+03  0.12509000000E+03 0.  0.
         25    1    3    3    0    0  0.24865175842E+02 -0.21044195653E+03 -0.28256222857E+03  0.37469055920E+03  0.12509000000E+03 0.  0.
         25    1    1    2    0    0  0.17039721013E+03  0.13812810724E+03 -0.36161777427E+03  0.44105499203E+03  0.12509000000E+03 0.  0.
<mgrwt>
<rscale>  2 0.76022760E+03</rscale>
<asrwt>0</asrwt>
<pdfrwt beam="1">  1       21 0.16509049E-01 0.76022760E+03</pdfrwt>
<pdfrwt beam="2">  1       21 0.18927244E+00 0.76022760E+03</pdfrwt>
<totfact> 0.40892362E+03</totfact>
</mgrwt>
</event>
<event>
 6    0  0.1191266E-005  0.8130119E+03  0.7546771E-02  0.9541372E-01
         21   -1    0    0  502  501  0.00000000000E+00  0.00000000000E+00  0.69224028854E+03  0.69224028854E+03  0.00000000000E+00 0.  1.
         21   -1    0    0  501  502 -0.00000000000E+00 -0.00000000000E+00 -0.23871345287E+03  0.23871345287E+03  0.00000000000E+00 0.  1.
      99926    2    1    2    0    0 -0.93354699281E+02  0.90174695538E+02  0.45320898744E+02  0.48471818632E+03  0.46481303843E+03 0.  0.
         25    1    3    3    0    0  0.14044014756E+03  0.68790503673E+02 -0.42235509331E+02  0.20466292969E+03  0.12509000000E+03 0.  0.
         25    1    3    3    0    0 -0.23379484684E+03  0.21384191864E+02  0.87556408075E+02  0.28005525663E+03  0.12509000000E+03 0.  0.
         25    1    1    2    0    0  0.93354699281E+02 -0.90174695538E+02  0.40820593693E+03  0.44623555510E+03  0.12509000000E+03 0.  0.
<mgrwt>
<rscale>  2 0.81301186E+03</rscale>
<asrwt>0</asrwt>
<pdfrwt beam="1">  1       21 0.10180004E+00 0.81301186E+03</pdfrwt>
<pdfrwt beam="2">  1       21 0.35104920E-01 0.81301186E+03</pdfrwt>
<totfact> 0.49634175E+03</totfact>
</mgrwt>
</event>
<event>
 6    0  0.1191266E-005  0.1041136E+04  0.7546771E-02  0.9264544E-01
         21   -1    0    0  502  501  0.00000000000E+00  0.00000000000E+00  0.59557733964E+03  0.59557733964E+03  0.00000000000E+00 0.  1.
         21   -1    0    0  501  502 -0.00000000000E+00 -0.00000000000E+00 -0.45500524718E+03  0.45500524718E+03  0.00000000000E+00 0.  1.
      99926    2    1    2    0    0 -0.59195061637E+02 -0.36784540737E+03  0.25475152507E+03  0.64131647538E+03  0.45560309812E+03 0.  0.
         25    1    3    3    0    0  0.30467850502E+02  0.23274791368E+02  0.16664747491E+03  0.21186999509E+03  0.12509000000E+03 0.  0.
         25    1    1    2    0    0  0.59195061637E+02  0.36784540737E+03 -0.11417943261E+03  0.40926611144E+03  0.12509000000E+03 0.  0.
         25    1    3    3    0    0 -0.89662912139E+02 -0.39112019874E+03  0.88104050162E+02  0.42944648028E+03  0.12509000000E+03 0.  0.
<mgrwt>
<rscale>  2 0.10411356E+04</rscale>
<asrwt>0</asrwt>
<pdfrwt beam="1">  1       21 0.87584903E-01 0.10411356E+04</pdfrwt>
<pdfrwt beam="2">  1       21 0.66912536E-01 0.10411356E+04</pdfrwt>
<totfact> 0.17199182E+03</totfact>
</mgrwt>
</event>
<event>
 6    0  0.1191266E-005  0.6013024E+03  0.7546771E-02  0.9902708E-01
         21   -1    0    0  502  501  0.00000000000E+00  0.00000000000E+00  0.18630747959E+03  0.18630747959E+03  0.00000000000E+00 0. -1.
         21   -1    0    0  501  502 -0.00000000000E+00 -0.00000000000E+00 -0.48517186337E+03  0.48517186337E+03  0.00000000000E+00 0. -1.
      99926    2    1    2    0    0 -0.13564708142E+02 -0.22200593659E+02 -0.30736918590E+03  0.54342971420E+03  0.44739598810E+03 0.  0.
         25    1    3    3    0    0  0.75034305420E+02 -0.14142684871E+03 -0.30805017597E+02  0.20549490927E+03  0.12509000000E+03 0.  0.
         25    1    3    3    0    0 -0.88599013561E+02  0.11922625505E+03 -0.27656416830E+03  0.33793480493E+03  0.12509000000E+03 0.  0.
         25    1    1    2    0    0  0.13564708142E+02  0.22200593659E+02  0.85048021205E+01  0.12804962876E+03  0.12509000000E+03 0.  0.
<mgrwt>
<rscale>  2 0.60130241E+03</rscale>
<asrwt>0</asrwt>
<pdfrwt beam="1">  1       21 0.27398158E-01 0.60130241E+03</pdfrwt>
<pdfrwt beam="2">  1       21 0.71348804E-01 0.60130241E+03</pdfrwt>
<totfact> 0.19731354E+04</totfact>
</mgrwt>
</event>
<event>
 6    0  0.1191266E-005  0.6795953E+03  0.7546771E-02  0.9752778E-01
         21   -1    0    0  502  501  0.00000000000E+00  0.00000000000E+00  0.27569933594E+03  0.27569933594E+03  0.00000000000E+00 0.  1.
         21   -1    0    0  501  502 -0.00000000000E+00 -0.00000000000E+00 -0.41879843979E+03  0.41879843979E+03  0.00000000000E+00 0.  1.
      99926    2    1    2    0    0 -0.20921893904E+02 -0.15678023833E+03 -0.56219661335E+02  0.47492247109E+03  0.44426673795E+03 0.  0.
         25    1    3    3    0    0  0.10988483539E+03 -0.20655386641E+03 -0.97630053861E+02  0.28269827077E+03  0.12509000000E+03 0.  0.
         25    1    1    2    0    0  0.20921893904E+02  0.15678023833E+03 -0.86879442516E+02  0.21957530464E+03  0.12509000000E+03 0.  0.
         25    1    3    3    0    0 -0.13080672930E+03  0.49773628075E+02  0.41410392525E+02  0.19222420033E+03  0.12509000000E+03 0.  0.
<mgrwt>
<rscale>  2 0.67959533E+03</rscale>
<asrwt>0</asrwt>
<pdfrwt beam="1">  1       21 0.40544021E-01 0.67959533E+03</pdfrwt>
<pdfrwt beam="2">  1       21 0.61588005E-01 0.67959533E+03</pdfrwt>
<totfact> 0.12226628E+04</totfact>
</mgrwt>
</event>
<event>
 6    0  0.1191266E-005  0.6848688E+03  0.7546771E-02  0.9743464E-01
         21   -1    0    0  502  501  0.00000000000E+00  0.00000000000E+00  0.13118383116E+03  0.13118383116E+03  0.00000000000E+00 0.  1.
         21   -1    0    0  501  502 -0.00000000000E+00 -0.00000000000E+00 -0.89387007698E+03  0.89387007698E+03  0.00000000000E+00 0.  1.
      99926    2    1    2    0    0 -0.61852454150E+02 -0.73550089757E+02 -0.35223509110E+03  0.58533467920E+03  0.45750604966E+03 0.  0.
         25    1    3    3    0    0  0.15293491972E+02  0.75921182424E+02 -0.34559646401E+03  0.37560929285E+03  0.12509000000E+03 0.  0.
         25    1    1    2    0    0  0.61852454150E+02  0.73550089757E+02 -0.41045115472E+03  0.43971922894E+03  0.12509000000E+03 0.  0.
         25    1    3    3    0    0 -0.77145946121E+02 -0.14947127218E+03 -0.66386270935E+01  0.20972538635E+03  0.12509000000E+03 0.  0.
<mgrwt>
<rscale>  2 0.68486875E+03</rscale>
<asrwt>0</asrwt>
<pdfrwt beam="1">  1       21 0.19291740E-01 0.68486875E+03</pdfrwt>
<pdfrwt beam="2">  1       21 0.13145148E+00 0.68486875E+03</pdfrwt>
<totfact> 0.86477800E+03</totfact>
</mgrwt>
</event>
<event>
 6    0  0.1191266E-005  0.8004751E+03  0.7546771E-02  0.9559330E-01
         21   -1    0    0  502  501  0.00000000000E+00  0.00000000000E+00  0.61284921670E+03  0.61284921670E+03  0.00000000000E+00 0.  1.
         21   -1    0    0  501  502 -0.00000000000E+00 -0.00000000000E+00 -0.26138579851E+03  0.26138579851E+03  0.00000000000E+00 0.  1.
      99926    2    1    2    0    0  0.31102969977E+02 -0.16604284446E+03  0.68452035817E+01  0.47056826791E+03  0.43914691962E+03 0.  0.
         25    1    1    2    0    0 -0.31102969977E+02  0.16604284446E+03  0.34461821460E+03  0.40366674730E+03  0.12509000000E+03 0.  0.
         25    1    3    3    0    0 -0.57628097429E+02 -0.25550115374E+03 -0.20255548916E+02  0.29096328383E+03  0.12509000000E+03 0.  0.
         25    1    3    3    0    0  0.88731067405E+02  0.89458309273E+02  0.27100752498E+02  0.17960498408E+03  0.12509000000E+03 0.  0.
<mgrwt>
<rscale>  2 0.80047506E+03</rscale>
<asrwt>0</asrwt>
<pdfrwt beam="1">  1       21 0.90124885E-01 0.80047506E+03</pdfrwt>
<pdfrwt beam="2">  1       21 0.38439088E-01 0.80047506E+03</pdfrwt>
<totfact> 0.55535584E+03</totfact>
</mgrwt>
</event>
<event>
 6    0  0.1191266E-005  0.9173934E+03  0.7546771E-02  0.9404096E-01
         21   -1    0    0  502  501  0.00000000000E+00  0.00000000000E+00  0.11997331845E+04  0.11997331845E+04  0.00000000000E+00 0.  1.
         21   -1    0    0  501  502 -0.00000000000E+00 -0.00000000000E+00 -0.17537455277E+03  0.17537455277E+03  0.00000000000E+00 0. -1.
      99926    2    1    2    0    0 -0.92599889506E+02  0.31671741613E+03  0.72337308926E+03  0.91129261667E+03  0.44530994343E+03 0.  0.
         25    1    3    3    0    0 -0.19927240175E+02 -0.48962439138E+02  0.32156594942E+03  0.34906529944E+03  0.12509000000E+03 0.  0.
         25    1    3    3    0    0 -0.72672649331E+02  0.36567985527E+03  0.40180713984E+03  0.56222731723E+03  0.12509000000E+03 0.  0.
         25    1    1    2    0    0  0.92599889506E+02 -0.31671741613E+03  0.30098554249E+03  0.46381512061E+03  0.12509000000E+03 0.  0.
<mgrwt>
<rscale>  2 0.91739342E+03</rscale>
<asrwt>0</asrwt>
<pdfrwt beam="1">  1       21 0.17643135E+00 0.91739342E+03</pdfrwt>
<pdfrwt beam="2">  1       21 0.25790376E-01 0.91739342E+03</pdfrwt>
<totfact> 0.20658819E+03</totfact>
</mgrwt>
</event>
<event>
 6    0  0.1191266E-005  0.8289763E+03  0.7546771E-02  0.9518997E-01
         21   -1    0    0  502  501  0.00000000000E+00  0.00000000000E+00  0.12822682698E+03  0.12822682698E+03  0.00000000000E+00 0.  1.
         21   -1    0    0  501  502 -0.00000000000E+00 -0.00000000000E+00 -0.13398165432E+04  0.13398165432E+04  0.00000000000E+00 0.  1.
      99926    2    1    2    0    0 -0.24776770114E+03  0.13272297755E+03 -0.70856151012E+03  0.87839168763E+03  0.43647258880E+03 0.  0.
         25    1    1    2    0    0  0.24776770114E+03 -0.13272297755E+03 -0.50302820605E+03  0.58965168250E+03  0.12509000000E+03 0.  0.
         25    1    3    3    0    0 -0.18689025629E+03  0.24452029886E+03 -0.38206155719E+03  0.50629703340E+03  0.12509000000E+03 0.  0.
         25    1    3    3    0    0 -0.60877444857E+02 -0.11179732130E+03 -0.32649995293E+03  0.37209465423E+03  0.12509000000E+03 0.  0.
<mgrwt>
<rscale>  2 0.82897629E+03</rscale>
<asrwt>0</asrwt>
<pdfrwt beam="1">  1       21 0.18856884E-01 0.82897629E+03</pdfrwt>
<pdfrwt beam="2">  1       21 0.19703186E+00 0.82897629E+03</pdfrwt>
<totfact> 0.27641243E+03</totfact>
</mgrwt>
</event>
<event>
 6    0  0.1191266E-005  0.1429837E+04  0.7546771E-02  0.8932500E-01
         21   -1    0    0  502  501  0.00000000000E+00  0.00000000000E+00  0.89846808951E+03  0.89846808951E+03  0.00000000000E+00 0. -1.
         21   -1    0    0  501  502 -0.00000000000E+00 -0.00000000000E+00 -0.56886642602E+03  0.56886642602E+03  0.00000000000E+00 0.  1.
      99926    2    1    2    0    0 -0.13782583101E+03 -0.53534720175E+03 -0.14545483409E+03  0.72779494924E+03  0.45048395451E+03 0.  0.
         25    1    3    3    0    0 -0.21420202513E+03 -0.12887161830E+03 -0.80156368486E+02  0.29079709951E+03  0.12509000000E+03 0.  0.
         25    1    1    2    0    0  0.13782583101E+03  0.53534720175E+03  0.47505649757E+03  0.73953956628E+03  0.12509000000E+03 0.  0.
         25    1    3    3    0    0  0.76376194123E+02 -0.40647558344E+03 -0.65298465600E+02  0.43699784974E+03  0.12509000000E+03 0.  0.
<mgrwt>
<rscale>  2 0.14298368E+04</rscale>
<asrwt>0</asrwt>
<pdfrwt beam="1">  1       21 0.13212766E+00 0.14298368E+04</pdfrwt>
<pdfrwt beam="2">  1       21 0.83656827E-01 0.14298368E+04</pdfrwt>
<totfact> 0.34034512E+02</totfact>
</mgrwt>
</event>
<event>
 6    0  0.1191266E-005  0.6494372E+03  0.7546771E-02  0.9807836E-01
         21   -1    0    0  502  501  0.00000000000E+00  0.00000000000E+00  0.64612573978E+02  0.64612573978E+02  0.00000000000E+00 0. -1.
         21   -1    0    0  501  502 -0.00000000000E+00 -0.00000000000E+00 -0.16319142432E+04  0.16319142432E+04  0.00000000000E+00 0. -1.
      99926    2    1    2    0    0  0.25274391455E+02  0.74575028219E+02 -0.85391067384E+03  0.96798412791E+03  0.44903185108E+03 0.  0.
         25    1    3    3    0    0  0.14453503416E+03 -0.46883192500E+02 -0.19916158740E+03  0.28000224255E+03  0.12509000000E+03 0.  0.
         25    1    3    3    0    0 -0.11926064271E+03  0.12145822072E+03 -0.65474908644E+03  0.68798188535E+03  0.12509000000E+03 0.  0.
         25    1    1    2    0    0 -0.25274391455E+02 -0.74575028219E+02 -0.71339099536E+03  0.72854268925E+03  0.12509000000E+03 0.  0.
<mgrwt>
<rscale>  2 0.64943723E+03</rscale>
<asrwt>0</asrwt>
<pdfrwt beam="1">  1       21 0.95018490E-02 0.64943723E+03</pdfrwt>
<pdfrwt beam="2">  1       21 0.23998739E+00 0.64943723E+03</pdfrwt>
<totfact> 0.53860855E+03</totfact>
</mgrwt>
</event>
<event>
 6    0  0.1191266E-005  0.7332770E+03  0.7546771E-02  0.9661958E-01
         21   -1    0    0  502  501  0.00000000000E+00  0.00000000000E+00  0.41967430446E+03  0.41967430446E+03  0.00000000000E+00 0.  1.
         21   -1    0    0  501  502 -0.00000000000E+00 -0.00000000000E+00 -0.32030506804E+03  0.32030506804E+03  0.00000000000E+00 0.  1.
      99926    2    1    2    0    0 -0.59746681318E+02 -0.37226081700E+02 -0.12152919776E+03  0.47654233370E+03  0.45537655057E+03 0.  0.
         25    1    1    2    0    0  0.59746681318E+02  0.37226081700E+02  0.22089843418E+03  0.26343703880E+03  0.12509000000E+03 0.  0.
         25    1    3    3    0    0 -0.10740477700E+03  0.14299166924E+03 -0.12600140586E+03  0.25200449594E+03  0.12509000000E+03 0.  0.
         25    1    3    3    0    0  0.47658095679E+02 -0.18021775095E+03  0.44722081059E+01  0.22453783776E+03  0.12509000000E+03 0.  0.
<mgrwt>
<rscale>  2 0.73327705E+03</rscale>
<asrwt>0</asrwt>
<pdfrwt beam="1">  1       21 0.61716809E-01 0.73327705E+03</pdfrwt>
<pdfrwt beam="2">  1       21 0.47103687E-01 0.73327705E+03</pdfrwt>
<totfact> 0.87882664E+03</totfact>
</mgrwt>
</event>
<event>
 6    0  0.1191266E-005  0.6355371E+03  0.7546771E-02  0.9834303E-01
         21   -1    0    0  502  501  0.00000000000E+00  0.00000000000E+00  0.28899394987E+03  0.28899394987E+03  0.00000000000E+00 0.  1.
         21   -1    0    0  501  502 -0.00000000000E+00 -0.00000000000E+00 -0.34940822606E+03  0.34940822606E+03  0.00000000000E+00 0.  1.
      99926    2    1    2    0    0  0.22532938966E+02 -0.70731799589E+02  0.38735299244E+02  0.46236562512E+03  0.45472060330E+03 0.  0.
         25    1    3    3    0    0  0.34883839202E+02 -0.22136143930E+03  0.64152804974E+02  0.26453895655E+03  0.12509000000E+03 0.  0.
         25    1    1    2    0    0 -0.22532938966E+02  0.70731799589E+02 -0.99149575437E+02  0.17603655081E+03  0.12509000000E+03 0.  0.
         25    1    3    3    0    0 -0.12350900236E+02  0.15062963971E+03 -0.25417505730E+02  0.19782666856E+03  0.12509000000E+03 0.  0.
<mgrwt>
<rscale>  2 0.63553714E+03</rscale>
<asrwt>0</asrwt>
<pdfrwt beam="1">  1       21 0.42499111E-01 0.63553714E+03</pdfrwt>
<pdfrwt beam="2">  1       21 0.51383562E-01 0.63553714E+03</pdfrwt>
<totfact> 0.16599258E+04</totfact>
</mgrwt>
</event>
<event>
 6    0  0.1191266E-005  0.6253137E+03  0.7546771E-02  0.9854237E-01
         21   -1    0    0  502  501  0.00000000000E+00  0.00000000000E+00  0.55408462637E+02  0.55408462637E+02  0.00000000000E+00 0.  1.
         21   -1    0    0  501  502 -0.00000000000E+00 -0.00000000000E+00 -0.17642485355E+04  0.17642485355E+04  0.00000000000E+00 0.  1.
      99926    2    1    2    0    0  0.50553251414E+02  0.85854497482E+02 -0.13184486927E+04  0.13977807559E+04  0.45338445087E+03 0.  0.
         25    1    1    2    0    0 -0.50553251414E+02 -0.85854497482E+02 -0.39039138016E+03  0.42187624225E+03  0.12509000000E+03 0.  0.
         25    1    3    3    0    0  0.14216606538E+03 -0.84359455639E+02 -0.39539549106E+03  0.44644463302E+03  0.12509000000E+03 0.  0.
         25    1    3    3    0    0 -0.91612813967E+02  0.17021395312E+03 -0.92305320163E+03  0.95133612286E+03  0.12509000000E+03 0.  0.
<mgrwt>
<rscale>  2 0.62531368E+03</rscale>
<asrwt>0</asrwt>
<pdfrwt beam="1">  1       21 0.81483032E-02 0.62531368E+03</pdfrwt>
<pdfrwt beam="2">  1       21 0.25944832E+00 0.62531368E+03</pdfrwt>
<totfact> 0.54028979E+03</totfact>
</mgrwt>
</event>
<event>
 6    0  0.1191266E-005  0.5841147E+03  0.7546771E-02  0.9938922E-01
         21   -1    0    0  502  501  0.00000000000E+00  0.00000000000E+00  0.79299312247E+03  0.79299312247E+03  0.00000000000E+00 0.  1.
         21   -1    0    0  501  502 -0.00000000000E+00 -0.00000000000E+00 -0.10756397450E+03  0.10756397450E+03  0.00000000000E+00 0.  1.
      99926    2    1    2    0    0 -0.12121022203E+02 -0.64079220675E+01  0.57282130221E+03  0.73169023915E+03  0.45503668111E+03 0.  0.
         25    1    1    2    0    0  0.12121022203E+02  0.64079220675E+01  0.11260784576E+03  0.16886685782E+03  0.12509000000E+03 0.  0.
         25    1    3    3    0    0  0.29843380366E+02 -0.18245557597E+03  0.37188716316E+03  0.43373751830E+03  0.12509000000E+03 0.  0.
         25    1    3    3    0    0 -0.41964402569E+02  0.17604765391E+03  0.20093413905E+03  0.29795272086E+03  0.12509000000E+03 0.  0.
<mgrwt>
<rscale>  2 0.58411469E+03</rscale>
<asrwt>0</asrwt>
<pdfrwt beam="1">  1       21 0.11661663E+00 0.58411469E+03</pdfrwt>
<pdfrwt beam="2">  1       21 0.15818232E-01 0.58411469E+03</pdfrwt>
<totfact> 0.17529718E+04</totfact>
</mgrwt>
</event>
<event>
 6    0  0.1191266E-005  0.6070613E+03  0.7546771E-02  0.9890864E-01
         21   -1    0    0  502  501  0.00000000000E+00  0.00000000000E+00  0.61190179122E+02  0.61190179122E+02  0.00000000000E+00 0.  1.
         21   -1    0    0  501  502 -0.00000000000E+00 -0.00000000000E+00 -0.15056475371E+04  0.15056475371E+04  0.00000000000E+00 0.  1.
      99926    2    1    2    0    0  0.80233388392E+02 -0.15059197220E+01 -0.11351256723E+04  0.12236566208E+04  0.44987283676E+03 0.  0.
         25    1    1    2    0    0 -0.80233388392E+02  0.15059197220E+01 -0.30933168568E+03  0.34318109545E+03  0.12509000000E+03 0.  0.
         25    1    3    3    0    0 -0.55388407987E+02 -0.11375405296E+03 -0.21770730141E+03  0.28116158609E+03  0.12509000000E+03 0.  0.
         25    1    3    3    0    0  0.13562179638E+03  0.11224813324E+03 -0.91741837091E+03  0.94249503471E+03  0.12509000000E+03 0.  0.
<mgrwt>
<rscale>  2 0.60706126E+03</rscale>
<asrwt>0</asrwt>
<pdfrwt beam="1">  1       21 0.89985577E-02 0.60706126E+03</pdfrwt>
<pdfrwt beam="2">  1       21 0.22141871E+00 0.60706126E+03</pdfrwt>
<totfact> 0.78954953E+03</totfact>
</mgrwt>
</event>
<event>
 6    0  0.1191266E-005  0.6667806E+03  0.7546771E-02  0.9775791E-01
         21   -1    0    0  502  501  0.00000000000E+00  0.00000000000E+00  0.73925609571E+03  0.73925609571E+03  0.00000000000E+00 0. -1.
         21   -1    0    0  501  502 -0.00000000000E+00 -0.00000000000E+00 -0.15035262785E+03  0.15035262785E+03  0.00000000000E+00 0. -1.
      99926    2    1    2    0    0  0.10981140624E+03 -0.86487581712E+02  0.47297329157E+03  0.66909577472E+03  0.45215790879E+03 0.  0.
         25    1    1    2    0    0 -0.10981140624E+03  0.86487581712E+02  0.11593017629E+03  0.22051294884E+03  0.12509000000E+03 0.  0.
         25    1    3    3    0    0  0.11837788882E+03  0.62955102630E+02  0.30978919270E+02  0.18596739243E+03  0.12509000000E+03 0.  0.
         25    1    3    3    0    0 -0.85664825769E+01 -0.14944268434E+03  0.44199437230E+03  0.48312838229E+03  0.12509000000E+03 0.  0.
<mgrwt>
<rscale>  2 0.66678061E+03</rscale>
<asrwt>0</asrwt>
<pdfrwt beam="1">  1       21 0.10871413E+00 0.66678061E+03</pdfrwt>
<pdfrwt beam="2">  1       21 0.22110681E-01 0.66678061E+03</pdfrwt>
<totfact> 0.10866869E+04</totfact>
</mgrwt>
</event>
<event>
 6    0  0.1191266E-005  0.1191354E+04  0.7546771E-02  0.9120458E-01
         21   -1    0    0  502  501  0.00000000000E+00  0.00000000000E+00  0.28588739587E+03  0.28588739587E+03  0.00000000000E+00 0. -1.
         21   -1    0    0  501  502 -0.00000000000E+00 -0.00000000000E+00 -0.12411577273E+04  0.12411577273E+04  0.00000000000E+00 0. -1.
      99926    2    1    2    0    0  0.45550404664E+03 -0.57504936546E+02 -0.79605222113E+03  0.10252596421E+04  0.45460690799E+03 0.  0.
         25    1    3    3    0    0 -0.11129281089E+02  0.32097063194E+02 -0.66524236069E+02  0.14569510784E+03  0.12509000000E+03 0.  0.
         25    1    3    3    0    0  0.46663332773E+03 -0.89601999740E+02 -0.72952798506E+03  0.87956453430E+03  0.12509000000E+03 0.  0.
         25    1    1    2    0    0 -0.45550404664E+03  0.57504936546E+02 -0.15921811032E+03  0.50178548105E+03  0.12509000000E+03 0.  0.
<mgrwt>
<rscale>  2 0.11913544E+04</rscale>
<asrwt>0</asrwt>
<pdfrwt beam="1">  1       21 0.42042265E-01 0.11913544E+04</pdfrwt>
<pdfrwt beam="2">  1       21 0.18252319E+00 0.11913544E+04</pdfrwt>
<totfact> 0.65495825E+02</totfact>
</mgrwt>
</event>
<event>
 6    0  0.1191266E-005  0.1293938E+04  0.7546771E-02  0.9034387E-01
         21   -1    0    0  502  501  0.00000000000E+00  0.00000000000E+00  0.54129968256E+03  0.54129968256E+03  0.00000000000E+00 0.  1.
         21   -1    0    0  501  502 -0.00000000000E+00 -0.00000000000E+00 -0.77326586116E+03  0.77326586116E+03  0.00000000000E+00 0.  1.
      99926    2    1    2    0    0  0.15891291890E+03  0.52161557157E+03 -0.18112788280E+03  0.75281100594E+03  0.48639590916E+03 0.  0.
         25    1    1    2    0    0 -0.15891291890E+03 -0.52161557157E+03 -0.50838295804E+02  0.56175453778E+03  0.12509000000E+03 0.  0.
         25    1    3    3    0    0 -0.66468643566E+02  0.51725195526E+02 -0.15495634552E+03  0.21622338807E+03  0.12509000000E+03 0.  0.
         25    1    3    3    0    0  0.22538156247E+03  0.46989037604E+03 -0.26171537274E+02  0.53658761788E+03  0.12509000000E+03 0.  0.
<mgrwt>
<rscale>  2 0.12939375E+04</rscale>
<asrwt>0</asrwt>
<pdfrwt beam="1">  1       21 0.79602895E-01 0.12939375E+04</pdfrwt>
<pdfrwt beam="2">  1       21 0.11371557E+00 0.12939375E+04</pdfrwt>
<totfact> 0.57916265E+02</totfact>
</mgrwt>
</event>
<event>
 6    0  0.1191266E-005  0.5977907E+03  0.7546771E-02  0.9910000E-01
         21   -1    0    0  502  501  0.00000000000E+00  0.00000000000E+00  0.42990885076E+03  0.42990885076E+03  0.00000000000E+00 0. -1.
         21   -1    0    0  501  502 -0.00000000000E+00 -0.00000000000E+00 -0.20780783268E+03  0.20780783268E+03  0.00000000000E+00 0. -1.
      99926    2    1    2    0    0 -0.10871217286E+01 -0.54874228096E+02  0.20250490118E+03  0.49971712315E+03  0.45353787650E+03 0.  0.
         25    1    3    3    0    0  0.74731320159E+02  0.60713462311E+02  0.26039416716E+03  0.30450537780E+03  0.12509000000E+03 0.  0.
         25    1    1    2    0    0  0.10871217286E+01  0.54874228096E+02  0.19596116905E+02  0.13799956029E+03  0.12509000000E+03 0.  0.
         25    1    3    3    0    0 -0.75818441888E+02 -0.11558769041E+03 -0.57889265981E+02  0.19521174534E+03  0.12509000000E+03 0.  0.
<mgrwt>
<rscale>  2 0.59779069E+03</rscale>
<asrwt>0</asrwt>
<pdfrwt beam="1">  1       21 0.63221890E-01 0.59779069E+03</pdfrwt>
<pdfrwt beam="2">  1       21 0.30559975E-01 0.59779069E+03</pdfrwt>
<totfact> 0.20854234E+04</totfact>
</mgrwt>
</event>
<event>
 6    0  0.1191266E-005  0.6259653E+03  0.7546771E-02  0.9852954E-01
         21   -1    0    0  502  501  0.00000000000E+00  0.00000000000E+00  0.12199312078E+03  0.12199312078E+03  0.00000000000E+00 0.  1.
         21   -1    0    0  501  502 -0.00000000000E+00 -0.00000000000E+00 -0.80298074956E+03  0.80298074956E+03  0.00000000000E+00 0.  1.
      99926    2    1    2    0    0 -0.51433206144E+02  0.29086151083E+02 -0.38345826992E+03  0.59685406545E+03  0.45354509345E+03 0.  0.
         25    1    3    3    0    0  0.50782855914E+02  0.17181646966E+03 -0.98862936823E+02  0.23983574813E+03  0.12509000000E+03 0.  0.
         25    1    1    2    0    0  0.51433206144E+02 -0.29086151083E+02 -0.29752935886E+03  0.32811980489E+03  0.12509000000E+03 0.  0.
         25    1    3    3    0    0 -0.10221606206E+03 -0.14273031858E+03 -0.28459533309E+03  0.35701831732E+03  0.12509000000E+03 0.  0.
<mgrwt>
<rscale>  2 0.62596526E+03</rscale>
<asrwt>0</asrwt>
<pdfrwt beam="1">  1       21 0.17940165E-01 0.62596526E+03</pdfrwt>
<pdfrwt beam="2">  1       21 0.11808540E+00 0.62596526E+03</pdfrwt>
<totfact> 0.13279941E+04</totfact>
</mgrwt>
</event>
<event>
 6    0  0.1191266E-005  0.8073627E+03  0.7546771E-02  0.9549421E-01
         21   -1    0    0  502  501  0.00000000000E+00  0.00000000000E+00  0.56170455878E+03  0.56170455878E+03  0.00000000000E+00 0.  1.
         21   -1    0    0  501  502 -0.00000000000E+00 -0.00000000000E+00 -0.29011451497E+03  0.29011451497E+03  0.00000000000E+00 0.  1.
      99926    2    1    2    0    0 -0.25760117613E+02 -0.22779436127E+03  0.53826865783E+02  0.51178648048E+03  0.45439433913E+03 0.  0.
         25    1    3    3    0    0  0.41329538597E+02 -0.26954185805E+03  0.14989568414E+03  0.33537615930E+03  0.12509000000E+03 0.  0.
         25    1    3    3    0    0 -0.67089656210E+02  0.41747496786E+02 -0.96068818355E+02  0.17641032118E+03  0.12509000000E+03 0.  0.
         25    1    1    2    0    0  0.25760117613E+02  0.22779436127E+03  0.21776317802E+03  0.34003259327E+03  0.12509000000E+03 0.  0.
<mgrwt>
<rscale>  2 0.80736273E+03</rscale>
<asrwt>0</asrwt>
<pdfrwt beam="1">  1       21 0.82603612E-01 0.80736273E+03</pdfrwt>
<pdfrwt beam="2">  1       21 0.42663899E-01 0.80736273E+03</pdfrwt>
<totfact> 0.54896606E+03</totfact>
</mgrwt>
</event>
<event>
 6    0  0.1191266E-005  0.6401605E+03  0.7546771E-02  0.9825420E-01
         21   -1    0    0  502  501  0.00000000000E+00  0.00000000000E+00  0.13319784123E+04  0.13319784123E+04  0.00000000000E+00 0. -1.
         21   -1    0    0  501  502 -0.00000000000E+00 -0.00000000000E+00 -0.76916680349E+02  0.76916680349E+02  0.00000000000E+00 0. -1.
      99926    2    1    2    0    0 -0.99281028177E+02 -0.27826668782E+02  0.79948992903E+03  0.92534135027E+03  0.45435825276E+03 0.  0.
         25    1    3    3    0    0 -0.82794327405E+02 -0.93384635976E+02  0.75640485450E+03  0.77676985195E+03  0.12509000000E+03 0.  0.
         25    1    3    3    0    0 -0.16486700772E+02  0.65557967194E+02  0.43085074525E+02  0.14857149832E+03  0.12509000000E+03 0.  0.
         25    1    1    2    0    0  0.99281028177E+02  0.27826668782E+02  0.45557180291E+03  0.48355374237E+03  0.12509000000E+03 0.  0.
<mgrwt>
<rscale>  2 0.64016047E+03</rscale>
<asrwt>0</asrwt>
<pdfrwt beam="1">  1       21 0.19587916E+00 0.64016047E+03</pdfrwt>
<pdfrwt beam="2">  1       21 0.11311277E-01 0.64016047E+03</pdfrwt>
<totfact> 0.76407197E+03</totfact>
</mgrwt>
</event>
<event>
 6    0  0.1191266E-005  0.7811474E+03  0.7546771E-02  0.9587714E-01
         21   -1    0    0  502  501  0.00000000000E+00  0.00000000000E+00  0.22289709735E+03  0.22289709735E+03  0.00000000000E+00 0. -1.
         21   -1    0    0  501  502 -0.00000000000E+00 -0.00000000000E+00 -0.68438667656E+03  0.68438667656E+03  0.00000000000E+00 0. -1.
      99926    2    1    2    0    0  0.52049298743E+02  0.71938054506E+02 -0.55728180406E+03  0.72643059692E+03  0.45744310009E+03 0.  0.
         25    1    1    2    0    0 -0.52049298743E+02 -0.71938054506E+02  0.95792224847E+02  0.18085317699E+03  0.12509000000E+03 0.  0.
         25    1    3    3    0    0  0.94772972993E+02 -0.84824730152E+02 -0.59479357615E+02  0.18804907162E+03  0.12509000000E+03 0.  0.
         25    1    3    3    0    0 -0.42723674250E+02  0.15676278466E+03 -0.49780244644E+03  0.53838152530E+03  0.12509000000E+03 0.  0.
<mgrwt>
<rscale>  2 0.78114737E+03</rscale>
<asrwt>0</asrwt>
<pdfrwt beam="1">  1       21 0.32778985E-01 0.78114737E+03</pdfrwt>
<pdfrwt beam="2">  1       21 0.10064510E+00 0.78114737E+03</pdfrwt>
<totfact> 0.59055650E+03</totfact>
</mgrwt>
</event>
<event>
 6    0  0.1191266E-005  0.9789535E+03  0.7546771E-02  0.9331934E-01
         21   -1    0    0  502  501  0.00000000000E+00  0.00000000000E+00  0.24769221012E+03  0.24769221012E+03  0.00000000000E+00 0.  1.
         21   -1    0    0  501  502 -0.00000000000E+00 -0.00000000000E+00 -0.96727910345E+03  0.96727910345E+03  0.00000000000E+00 0.  1.
      99926    2    1    2    0    0  0.55995155928E+02  0.30713174228E+03 -0.17937290514E+03  0.57861918955E+03  0.45294609262E+03 0.  0.
         25    1    3    3    0    0  0.21549928078E+03  0.15648754761E+03 -0.12810596444E+03  0.32091578147E+03  0.12509000000E+03 0.  0.
         25    1    3    3    0    0 -0.15950412485E+03  0.15064419466E+03 -0.51266940701E+02  0.25770340808E+03  0.12509000000E+03 0.  0.
         25    1    1    2    0    0 -0.55995155928E+02 -0.30713174228E+03 -0.54021398819E+03  0.63635212402E+03  0.12509000000E+03 0.  0.
<mgrwt>
<rscale>  2 0.97895352E+03</rscale>
<asrwt>0</asrwt>
<pdfrwt beam="1">  1       21 0.36425325E-01 0.97895352E+03</pdfrwt>
<pdfrwt beam="2">  1       21 0.14224693E+00 0.97895352E+03</pdfrwt>
<totfact> 0.18762519E+03</totfact>
</mgrwt>
</event>
<event>
 6    0  0.1191266E-005  0.6519414E+03  0.7546771E-02  0.9803143E-01
         21   -1    0    0  502  501  0.00000000000E+00  0.00000000000E+00  0.57234021392E+03  0.57234021392E+03  0.00000000000E+00 0. -1.
         21   -1    0    0  501  502 -0.00000000000E+00 -0.00000000000E+00 -0.18565336891E+03  0.18565336891E+03  0.00000000000E+00 0. -1.
      99926    2    1    2    0    0 -0.66798138261E+02  0.11153779998E+03  0.27439660846E+03  0.54548645960E+03  0.45316587116E+03 0.  0.
         25    1    1    2    0    0  0.66798138261E+02 -0.11153779998E+03  0.11229023656E+03  0.21250712323E+03  0.12509000000E+03 0.  0.
         25    1    3    3    0    0  0.12352786393E+03 -0.21839783476E+02  0.20821630467E+03  0.27338187018E+03  0.12509000000E+03 0.  0.
         25    1    3    3    0    0 -0.19032600219E+03  0.13337758345E+03  0.66180303784E+02  0.27210458943E+03  0.12509000000E+03 0.  0.
<mgrwt>
<rscale>  2 0.65194137E+03</rscale>
<asrwt>0</asrwt>
<pdfrwt beam="1">  1       21 0.84167678E-01 0.65194137E+03</pdfrwt>
<pdfrwt beam="2">  1       21 0.27301966E-01 0.65194137E+03</pdfrwt>
<totfact> 0.13425185E+04</totfact>
</mgrwt>
</event>
<event>
 6    0  0.1191266E-005  0.9666430E+03  0.7546771E-02  0.9345906E-01
         21   -1    0    0  502  501  0.00000000000E+00  0.00000000000E+00  0.11316245496E+04  0.11316245496E+04  0.00000000000E+00 0. -1.
         21   -1    0    0  501  502 -0.00000000000E+00 -0.00000000000E+00 -0.20642861828E+03  0.20642861828E+03  0.00000000000E+00 0. -1.
      99926    2    1    2    0    0  0.15973759069E+03  0.22109130770E+03  0.89007459098E+03  0.10359298803E+04  0.45444523901E+03 0.  0.
         25    1    1    2    0    0 -0.15973759069E+03 -0.22109130770E+03  0.35121340330E+02  0.30212328753E+03  0.12509000000E+03 0.  0.
         25    1    3    3    0    0 -0.48764874730E+02  0.32164396094E+02  0.59905413662E+02  0.15049494367E+03  0.12509000000E+03 0.  0.
         25    1    3    3    0    0  0.20850246542E+03  0.18892691161E+03  0.83016917732E+03  0.88543493668E+03  0.12509000000E+03 0.  0.
<mgrwt>
<rscale>  2 0.96664304E+03</rscale>
<asrwt>0</asrwt>
<pdfrwt beam="1">  1       21 0.16641537E+00 0.96664304E+03</pdfrwt>
<pdfrwt beam="2">  1       21 0.30357150E-01 0.96664304E+03</pdfrwt>
<totfact> 0.17540552E+03</totfact>
</mgrwt>
</event>
<event>
 6    0  0.1191266E-005  0.6225975E+03  0.7546771E-02  0.9859602E-01
         21   -1    0    0  502  501  0.00000000000E+00  0.00000000000E+00  0.10397366275E+04  0.10397366275E+04  0.00000000000E+00 0.  1.
         21   -1    0    0  501  502 -0.00000000000E+00 -0.00000000000E+00 -0.93203318896E+02  0.93203318896E+02  0.00000000000E+00 0.  1.
      99926    2    1    2    0    0  0.79289678355E+02  0.11773866925E+02  0.82484161127E+03  0.94089345635E+03  0.44552366434E+03 0.  0.
         25    1    1    2    0    0 -0.79289678355E+02 -0.11773866925E+02  0.12169169732E+03  0.19204649003E+03  0.12509000000E+03 0.  0.
         25    1    3    3    0    0  0.35702418540E+02  0.91546634918E+02  0.76071354923E+02  0.17632302230E+03  0.12509000000E+03 0.  0.
         25    1    3    3    0    0  0.43587259814E+02 -0.79772767993E+02  0.74877025635E+03  0.76457043405E+03  0.12509000000E+03 0.  0.
<mgrwt>
<rscale>  2 0.62259748E+03</rscale>
<asrwt>0</asrwt>
<pdfrwt beam="1">  1       21 0.15290244E+00 0.62259748E+03</pdfrwt>
<pdfrwt beam="2">  1       21 0.13706371E-01 0.62259748E+03</pdfrwt>
<totfact> 0.11087938E+04</totfact>
</mgrwt>
</event>
<event>
 6    0  0.1191266E-005  0.5871075E+03  0.7546771E-02  0.9932521E-01
         21   -1    0    0  502  501  0.00000000000E+00  0.00000000000E+00  0.60706731926E+03  0.60706731926E+03  0.00000000000E+00 0. -1.
         21   -1    0    0  501  502 -0.00000000000E+00 -0.00000000000E+00 -0.14195100248E+03  0.14195100248E+03  0.00000000000E+00 0. -1.
      99926    2    1    2    0    0  0.88302898117E+01 -0.22927429506E+02  0.42409947510E+03  0.61510218962E+03  0.44484457719E+03 0.  0.
         25    1    3    3    0    0 -0.77789168383E+02 -0.17511347477E+03  0.24365328673E+03  0.33426085023E+03  0.12509000000E+03 0.  0.
         25    1    3    3    0    0  0.86619458194E+02  0.15218604527E+03  0.18044618837E+03  0.28084133939E+03  0.12509000000E+03 0.  0.
         25    1    1    2    0    0 -0.88302898117E+01  0.22927429506E+02  0.41016841683E+02  0.13391613213E+03  0.12509000000E+03 0.  0.
<mgrwt>
<rscale>  2 0.58710754E+03</rscale>
<asrwt>0</asrwt>
<pdfrwt beam="1">  1       21 0.89274605E-01 0.58710754E+03</pdfrwt>
<pdfrwt beam="2">  1       21 0.20875148E-01 0.58710754E+03</pdfrwt>
<totfact> 0.19956695E+04</totfact>
</mgrwt>
</event>
<event>
 6    0  0.1191266E-005  0.6051553E+03  0.7546771E-02  0.9894768E-01
         21   -1    0    0  502  501  0.00000000000E+00  0.00000000000E+00  0.41106901567E+03  0.41106901567E+03  0.00000000000E+00 0.  1.
         21   -1    0    0  501  502 -0.00000000000E+00 -0.00000000000E+00 -0.22271985301E+03  0.22271985301E+03  0.00000000000E+00 0.  1.
      99926    2    1    2    0    0  0.11010271267E+03 -0.86004827259E+01  0.15224767134E+03  0.46306276811E+03  0.42314441760E+03 0.  0.
         25    1    3    3    0    0 -0.11359065989E+02 -0.72720482662E+02 -0.79945263373E+02  0.16569867294E+03  0.12509000000E+03 0.  0.
         25    1    3    3    0    0  0.12146177866E+03  0.64119999936E+02  0.23219293471E+03  0.29736409517E+03  0.12509000000E+03 0.  0.
         25    1    1    2    0    0 -0.11010271267E+03  0.86004827259E+01  0.36101491310E+02  0.17072610057E+03  0.12509000000E+03 0.  0.
<mgrwt>
<rscale>  2 0.60515529E+03</rscale>
<asrwt>0</asrwt>
<pdfrwt beam="1">  1       21 0.60451326E-01 0.60515529E+03</pdfrwt>
<pdfrwt beam="2">  1       21 0.32752920E-01 0.60515529E+03</pdfrwt>
<totfact> 0.20008036E+04</totfact>
</mgrwt>
</event>
<event>
 6    0  0.1191266E-005  0.7973405E+03  0.7546771E-02  0.9563875E-01
         21   -1    0    0  502  501  0.00000000000E+00  0.00000000000E+00  0.99270200749E+02  0.99270200749E+02  0.00000000000E+00 0.  1.
         21   -1    0    0  501  502 -0.00000000000E+00 -0.00000000000E+00 -0.16010644119E+04  0.16010644119E+04  0.00000000000E+00 0.  1.
      99926    2    1    2    0    0  0.16062757164E+03 -0.80709758017E+02 -0.13458118149E+04  0.14314604825E+04  0.45338106492E+03 0.  0.
         25    1    1    2    0    0 -0.16062757164E+03  0.80709758017E+02 -0.15598239619E+03  0.26887413009E+03  0.12509000000E+03 0.  0.
         25    1    3    3    0    0  0.10880495917E+03 -0.95051196376E+01 -0.14355428291E+03  0.21950901276E+03  0.12509000000E+03 0.  0.
         25    1    3    3    0    0  0.51822612473E+02 -0.71204638379E+02 -0.12022575320E+04  0.12119514698E+04  0.12509000000E+03 0.  0.
<mgrwt>
<rscale>  2 0.79734054E+03</rscale>
<asrwt>0</asrwt>
<pdfrwt beam="1">  1       21 0.14598560E-01 0.79734054E+03</pdfrwt>
<pdfrwt beam="2">  1       21 0.23545063E+00 0.79734054E+03</pdfrwt>
<totfact> 0.25175382E+03</totfact>
</mgrwt>
</event>
<event>
 6    0  0.1191266E-005  0.6317817E+03  0.7546771E-02  0.9841578E-01
         21   -1    0    0  502  501  0.00000000000E+00  0.00000000000E+00  0.23801775273E+03  0.23801775273E+03  0.00000000000E+00 0. -1.
         21   -1    0    0  501  502 -0.00000000000E+00 -0.00000000000E+00 -0.41924198092E+03  0.41924198092E+03  0.00000000000E+00 0. -1.
      99926    2    1    2    0    0 -0.11241470054E+02  0.99734598397E+02 -0.73126508721E+02  0.46385346224E+03  0.44692190301E+03 0.  0.
         25    1    3    3    0    0  0.66944446867E+01  0.23044871030E+03  0.13118345141E+02  0.26262334768E+03  0.12509000000E+03 0.  0.
         25    1    3    3    0    0 -0.17935914740E+02 -0.13071411190E+03 -0.86244853862E+02  0.20123011456E+03  0.12509000000E+03 0.  0.
         25    1    1    2    0    0  0.11241470054E+02 -0.99734598397E+02 -0.10809771947E+03  0.19340627141E+03  0.12509000000E+03 0.  0.
<mgrwt>
<rscale>  2 0.63178172E+03</rscale>
<asrwt>0</asrwt>
<pdfrwt beam="1">  1       21 0.35002611E-01 0.63178172E+03</pdfrwt>
<pdfrwt beam="2">  1       21 0.61653232E-01 0.63178172E+03</pdfrwt>
<totfact> 0.16655780E+04</totfact>
</mgrwt>
</event>
<event>
 6    0  0.1191266E-005  0.6108449E+03  0.7546771E-02  0.9883158E-01
         21   -1    0    0  502  501  0.00000000000E+00  0.00000000000E+00  0.14292686562E+03  0.14292686562E+03  0.00000000000E+00 0. -1.
         21   -1    0    0  501  502 -0.00000000000E+00 -0.00000000000E+00 -0.65266164661E+03  0.65266164661E+03  0.00000000000E+00 0. -1.
      99926    2    1    2    0    0  0.42383465599E+02  0.43770679535E+02 -0.44282466563E+03  0.64119711941E+03  0.45970406883E+03 0.  0.
         25    1    3    3    0    0 -0.10449022504E+03  0.90715981267E+02 -0.38091048179E+02  0.19038390803E+03  0.12509000000E+03 0.  0.
         25    1    3    3    0    0  0.14687369064E+03 -0.46945301732E+02 -0.40473361745E+03  0.45081321138E+03  0.12509000000E+03 0.  0.
         25    1    1    2    0    0 -0.42383465599E+02 -0.43770679535E+02 -0.66910115357E+02  0.15439139283E+03  0.12509000000E+03 0.  0.
<mgrwt>
<rscale>  2 0.61084493E+03</rscale>
<asrwt>0</asrwt>
<pdfrwt beam="1">  1       21 0.21018657E-01 0.61084493E+03</pdfrwt>
<pdfrwt beam="2">  1       21 0.95979654E-01 0.61084493E+03</pdfrwt>
<totfact> 0.16474101E+04</totfact>
</mgrwt>
</event>
<event>
 6    0  0.1191266E-005  0.7506213E+03  0.7546771E-02  0.9634376E-01
         21   -1    0    0  502  501  0.00000000000E+00  0.00000000000E+00  0.81767322772E+02  0.81767322772E+02  0.00000000000E+00 0.  1.
         21   -1    0    0  501  502 -0.00000000000E+00 -0.00000000000E+00 -0.17226696283E+04  0.17226696283E+04  0.00000000000E+00 0.  1.
      99926    2    1    2    0    0 -0.67974386658E+02 -0.16166622386E+03 -0.13964391727E+04  0.14786053740E+04  0.45329350751E+03 0.  0.
         25    1    3    3    0    0 -0.41340787972E+02 -0.12698906633E+03 -0.13046222716E+04  0.13173921449E+04  0.12509000000E+03 0.  0.
         25    1    3    3    0    0 -0.26633598686E+02 -0.34677157530E+02 -0.91816901086E+02  0.16121322917E+03  0.12509000000E+03 0.  0.
         25    1    1    2    0    0  0.67974386658E+02  0.16166622386E+03 -0.24446313287E+03  0.32583157706E+03  0.12509000000E+03 0.  0.
<mgrwt>
<rscale>  2 0.75062130E+03</rscale>
<asrwt>0</asrwt>
<pdfrwt beam="1">  1       21 0.12024606E-01 0.75062130E+03</pdfrwt>
<pdfrwt beam="2">  1       21 0.25333378E+00 0.75062130E+03</pdfrwt>
<totfact> 0.28130974E+03</totfact>
</mgrwt>
</event>
<event>
 6    0  0.1191266E-005  0.6474549E+03  0.7546771E-02  0.9811567E-01
         21   -1    0    0  502  501  0.00000000000E+00  0.00000000000E+00  0.55993079560E+03  0.55993079560E+03  0.00000000000E+00 0. -1.
         21   -1    0    0  501  502 -0.00000000000E+00 -0.00000000000E+00 -0.18716502918E+03  0.18716502918E+03  0.00000000000E+00 0. -1.
      99926    2    1    2    0    0  0.25573209209E+02 -0.92181552739E+02  0.37317419740E+03  0.58961851654E+03  0.44636261688E+03 0.  0.
         25    1    3    3    0    0 -0.62278587933E+02  0.28421423958E+02  0.36820052668E+03  0.39484875054E+03  0.12509000000E+03 0.  0.
         25    1    1    2    0    0 -0.25573209209E+02  0.92181552739E+02 -0.40843097805E+00  0.15747730824E+03  0.12509000000E+03 0.  0.
         25    1    3    3    0    0  0.87851797142E+02 -0.12060297670E+03  0.49736707216E+01  0.19476976601E+03  0.12509000000E+03 0.  0.
<mgrwt>
<rscale>  2 0.64745491E+03</rscale>
<asrwt>0</asrwt>
<pdfrwt beam="1">  1       21 0.82342764E-01 0.64745491E+03</pdfrwt>
<pdfrwt beam="2">  1       21 0.27524269E-01 0.64745491E+03</pdfrwt>
<totfact> 0.13921526E+04</totfact>
</mgrwt>
</event>
<event>
 6    0  0.1191266E-005  0.6096044E+03  0.7546771E-02  0.9885678E-01
         21   -1    0    0  502  501  0.00000000000E+00  0.00000000000E+00  0.45523808750E+03  0.45523808750E+03  0.00000000000E+00 0. -1.
         21   -1    0    0  501  502 -0.00000000000E+00 -0.00000000000E+00 -0.20407864917E+03  0.20407864917E+03  0.00000000000E+00 0. -1.
      99926    2    1    2    0    0  0.21735531202E+02 -0.26547793384E+02  0.26031436838E+03  0.52928389662E+03  0.45956572346E+03 0.  0.
         25    1    1    2    0    0 -0.21735531202E+02  0.26547793384E+02 -0.91549300534E+01  0.13003284006E+03  0.12509000000E+03 0.  0.
         25    1    3    3    0    0 -0.27988371273E+02 -0.18187007877E+03  0.36612223607E+02  0.22549509417E+03  0.12509000000E+03 0.  0.
         25    1    3    3    0    0  0.49723902474E+02  0.15532228538E+03  0.22370214477E+03  0.30378880245E+03  0.12509000000E+03 0.  0.
<mgrwt>
<rscale>  2 0.60960438E+03</rscale>
<asrwt>0</asrwt>
<pdfrwt beam="1">  1       21 0.66946778E-01 0.60960438E+03</pdfrwt>
<pdfrwt beam="2">  1       21 0.30011566E-01 0.60960438E+03</pdfrwt>
<totfact> 0.18981520E+04</totfact>
</mgrwt>
</event>
<event>
 6    0  0.1191266E-005  0.6216266E+03  0.7546771E-02  0.9861526E-01
         21   -1    0    0  502  501  0.00000000000E+00  0.00000000000E+00  0.24258994046E+04  0.24258994046E+04  0.00000000000E+00 0. -1.
         21   -1    0    0  501  502 -0.00000000000E+00 -0.00000000000E+00 -0.39822310140E+02  0.39822310140E+02  0.00000000000E+00 0. -1.
      99926    2    1    2    0    0  0.66831330923E+02  0.24948721037E+02  0.20112379401E+04  0.20641737535E+04  0.45896227216E+03 0.  0.
         25    1    3    3    0    0  0.82971140373E+02  0.18256224560E+03  0.14172132908E+04  0.14367860674E+04  0.12509000000E+03 0.  0.
         25    1    3    3    0    0 -0.16139809449E+02 -0.15761352457E+03  0.59402464929E+03  0.62738768607E+03  0.12509000000E+03 0.  0.
         25    1    1    2    0    0 -0.66831330923E+02 -0.24948721037E+02  0.37483915435E+03  0.40154796128E+03  0.12509000000E+03 0.  0.
<mgrwt>
<rscale>  2 0.62162664E+03</rscale>
<asrwt>0</asrwt>
<pdfrwt beam="1">  1       21 0.35674981E+00 0.62162664E+03</pdfrwt>
<pdfrwt beam="2">  1       21 0.58562237E-02 0.62162664E+03</pdfrwt>
<totfact> 0.24508334E+03</totfact>
</mgrwt>
</event>
<event>
 6    0  0.1191266E-005  0.6435002E+03  0.7546771E-02  0.9819053E-01
         21   -1    0    0  502  501  0.00000000000E+00  0.00000000000E+00  0.17850405957E+03  0.17850405957E+03  0.00000000000E+00 0.  1.
         21   -1    0    0  501  502 -0.00000000000E+00 -0.00000000000E+00 -0.57994828472E+03  0.57994828472E+03  0.00000000000E+00 0.  1.
      99926    2    1    2    0    0  0.70411835010E+02  0.85081718863E+02 -0.25563209282E+03  0.53685493584E+03  0.45898663364E+03 0.  0.
         25    1    1    2    0    0 -0.70411835010E+02 -0.85081718863E+02 -0.14581213234E+03  0.22159740845E+03  0.12509000000E+03 0.  0.
         25    1    3    3    0    0  0.12515553082E+03  0.57747327204E+02 -0.33008388787E+03  0.37894794079E+03  0.12509000000E+03 0.  0.
         25    1    3    3    0    0 -0.54743695809E+02  0.27334391659E+02  0.74451795057E+02  0.15790699505E+03  0.12509000000E+03 0.  0.
<mgrwt>
<rscale>  2 0.64350019E+03</rscale>
<asrwt>0</asrwt>
<pdfrwt beam="1">  1       21 0.26250597E-01 0.64350019E+03</pdfrwt>
<pdfrwt beam="2">  1       21 0.85286511E-01 0.64350019E+03</pdfrwt>
<totfact> 0.14085411E+04</totfact>
</mgrwt>
</event>
<event>
 6    0  0.1191266E-005  0.6475008E+03  0.7546771E-02  0.9811480E-01
         21   -1    0    0  502  501  0.00000000000E+00  0.00000000000E+00  0.19792599944E+03  0.19792599944E+03  0.00000000000E+00 0.  1.
         21   -1    0    0  501  502 -0.00000000000E+00 -0.00000000000E+00 -0.52956312737E+03  0.52956312737E+03  0.00000000000E+00 0.  1.
      99926    2    1    2    0    0 -0.32564931699E+02 -0.86220712797E+02 -0.15197783162E+03  0.48996132435E+03  0.45658553630E+03 0.  0.
         25    1    1    2    0    0  0.32564931699E+02  0.86220712797E+02 -0.17965929631E+03  0.23752780247E+03  0.12509000000E+03 0.  0.
         25    1    3    3    0    0  0.13186653728E+03  0.72962305630E+02 -0.17821707625E+02  0.19666571399E+03  0.12509000000E+03 0.  0.
         25    1    3    3    0    0 -0.16443146898E+03 -0.15918301843E+03 -0.13415612400E+03  0.29329561035E+03  0.12509000000E+03 0.  0.
<mgrwt>
<rscale>  2 0.64750077E+03</rscale>
<asrwt>0</asrwt>
<pdfrwt beam="1">  1       21 0.29106765E-01 0.64750077E+03</pdfrwt>
<pdfrwt beam="2">  1       21 0.77876931E-01 0.64750077E+03</pdfrwt>
<totfact> 0.14185356E+04</totfact>
</mgrwt>
</event>
<event>
 6    0  0.1191266E-005  0.6406021E+03  0.7546771E-02  0.9824575E-01
         21   -1    0    0  502  501  0.00000000000E+00  0.00000000000E+00  0.85572696110E+03  0.85572696110E+03  0.00000000000E+00 0. -1.
         21   -1    0    0  501  502 -0.00000000000E+00 -0.00000000000E+00 -0.11988959833E+03  0.11988959833E+03  0.00000000000E+00 0. -1.
      99926    2    1    2    0    0  0.59639669811E+02 -0.48970468914E+02  0.35716819688E+03  0.56942344978E+03  0.43671380474E+03 0.  0.
         25    1    3    3    0    0 -0.46063954127E+02  0.13330006588E+03  0.21574438333E+03  0.28650295369E+03  0.12509000000E+03 0.  0.
         25    1    3    3    0    0  0.10570362394E+03 -0.18227053479E+03  0.14142381355E+03  0.28292049609E+03  0.12509000000E+03 0.  0.
         25    1    1    2    0    0 -0.59639669811E+02  0.48970468914E+02  0.37866916588E+03  0.40619310965E+03  0.12509000000E+03 0.  0.
<mgrwt>
<rscale>  2 0.64060210E+03</rscale>
<asrwt>0</asrwt>
<pdfrwt beam="1">  1       21 0.12584220E+00 0.64060210E+03</pdfrwt>
<pdfrwt beam="2">  1       21 0.17630824E-01 0.64060210E+03</pdfrwt>
<totfact> 0.11610971E+04</totfact>
</mgrwt>
</event>
<event>
 6    0  0.1191266E-005  0.6243237E+03  0.7546771E-02  0.9856189E-01
         21   -1    0    0  502  501  0.00000000000E+00  0.00000000000E+00  0.24804556977E+03  0.24804556977E+03  0.00000000000E+00 0. -1.
         21   -1    0    0  501  502 -0.00000000000E+00 -0.00000000000E+00 -0.39285132029E+03  0.39285132029E+03  0.00000000000E+00 0. -1.
      99926    2    1    2    0    0 -0.65279690505E+01 -0.75074445084E+02 -0.43782918353E+02  0.46332463039E+03  0.45505382374E+03 0.  0.
         25    1    3    3    0    0  0.11791272399E+03  0.33822681506E+02  0.10849202560E+03  0.20607137594E+03  0.12509000000E+03 0.  0.
         25    1    1    2    0    0  0.65279690505E+01  0.75074445084E+02 -0.10102283216E+03  0.17757225967E+03  0.12509000000E+03 0.  0.
         25    1    3    3    0    0 -0.12444069304E+03 -0.10889712659E+03 -0.15227494396E+03  0.25725325444E+03  0.12509000000E+03 0.  0.
<mgrwt>
<rscale>  2 0.62432373E+03</rscale>
<asrwt>0</asrwt>
<pdfrwt beam="1">  1       21 0.36477290E-01 0.62432373E+03</pdfrwt>
<pdfrwt beam="2">  1       21 0.57772252E-01 0.62432373E+03</pdfrwt>
<totfact> 0.17694948E+04</totfact>
</mgrwt>
</event>
<event>
 6    0  0.1191266E-005  0.6244799E+03  0.7546771E-02  0.9855880E-01
         21   -1    0    0  502  501  0.00000000000E+00  0.00000000000E+00  0.13728679371E+03  0.13728679371E+03  0.00000000000E+00 0. -1.
         21   -1    0    0  501  502 -0.00000000000E+00 -0.00000000000E+00 -0.71014685288E+03  0.71014685288E+03  0.00000000000E+00 0. -1.
      99926    2    1    2    0    0  0.94770230284E+02  0.19560879494E+02 -0.43960920528E+03  0.64063102881E+03  0.45583751179E+03 0.  0.
         25    1    3    3    0    0  0.89267216221E+02  0.19540457946E+03 -0.20928747597E+03  0.32496206126E+03  0.12509000000E+03 0.  0.
         25    1    1    2    0    0 -0.94770230284E+02 -0.19560879494E+02 -0.13325085389E+03  0.20680261777E+03  0.12509000000E+03 0.  0.
         25    1    3    3    0    0  0.55030140625E+01 -0.17584369996E+03 -0.23032172931E+03  0.31566896755E+03  0.12509000000E+03 0.  0.
<mgrwt>
<rscale>  2 0.62447989E+03</rscale>
<asrwt>0</asrwt>
<pdfrwt beam="1">  1       21 0.20189234E-01 0.62447989E+03</pdfrwt>
<pdfrwt beam="2">  1       21 0.10443336E+00 0.62447989E+03</pdfrwt>
<totfact> 0.14432346E+04</totfact>
</mgrwt>
</event>
<event>
 6    0  0.1191266E-005  0.8282120E+03  0.7546771E-02  0.9520056E-01
         21   -1    0    0  502  501  0.00000000000E+00  0.00000000000E+00  0.26090735114E+03  0.26090735114E+03  0.00000000000E+00 0.  1.
         21   -1    0    0  501  502 -0.00000000000E+00 -0.00000000000E+00 -0.65725929321E+03  0.65725929321E+03  0.00000000000E+00 0.  1.
      99926    2    1    2    0    0 -0.38436523476E+02 -0.37414320140E+02 -0.54432528277E+03  0.71711735849E+03  0.46377806621E+03 0.  0.
         25    1    3    3    0    0  0.50479453613E+02  0.15379681215E+03 -0.34518411519E+03  0.40124956840E+03  0.12509000000E+03 0.  0.
         25    1    3    3    0    0 -0.88915977088E+02 -0.19121113229E+03 -0.19914116758E+03  0.31586779009E+03  0.12509000000E+03 0.  0.
         25    1    1    2    0    0  0.38436523476E+02  0.37414320140E+02  0.14797334069E+03  0.20104928586E+03  0.12509000000E+03 0.  0.
<mgrwt>
<rscale>  2 0.82821200E+03</rscale>
<asrwt>0</asrwt>
<pdfrwt beam="1">  1       21 0.38368729E-01 0.82821200E+03</pdfrwt>
<pdfrwt beam="2">  1       21 0.96655777E-01 0.82821200E+03</pdfrwt>
<totfact> 0.46826809E+03</totfact>
</mgrwt>
</event>
<event>
 6    0  0.1191266E-005  0.1534054E+04  0.7546771E-02  0.8862118E-01
         21   -1    0    0  502  501  0.00000000000E+00  0.00000000000E+00  0.46139467229E+03  0.46139467229E+03  0.00000000000E+00 0.  1.
         21   -1    0    0  501  502 -0.00000000000E+00 -0.00000000000E+00 -0.12751131199E+04  0.12751131199E+04  0.00000000000E+00 0. -1.
      99926    2    1    2    0    0  0.37965866282E+03  0.54663334089E+03 -0.21632713870E+03  0.83347258043E+03  0.45269239199E+03 0.  0.
         25    1    3    3    0    0  0.18126475873E+02  0.87714950355E+02 -0.17729069827E+03  0.23473811245E+03  0.12509000000E+03 0.  0.
         25    1    1    2    0    0 -0.37965866282E+03 -0.54663334089E+03 -0.59739130890E+03  0.90303521176E+03  0.12509000000E+03 0.  0.
         25    1    3    3    0    0  0.36153218695E+03  0.45891839053E+03 -0.39036440437E+02  0.59873446798E+03  0.12509000000E+03 0.  0.
<mgrwt>
<rscale>  2 0.15340540E+04</rscale>
<asrwt>0</asrwt>
<pdfrwt beam="1">  1       21 0.67852158E-01 0.15340540E+04</pdfrwt>
<pdfrwt beam="2">  1       21 0.18751664E+00 0.15340540E+04</pdfrwt>
<totfact> 0.19978605E+02</totfact>
</mgrwt>
</event>
<event>
 6    0  0.1191266E-005  0.6999803E+03  0.7546771E-02  0.9717266E-01
         21   -1    0    0  502  501  0.00000000000E+00  0.00000000000E+00  0.15947167945E+04  0.15947167945E+04  0.00000000000E+00 0.  1.
         21   -1    0    0  501  502 -0.00000000000E+00 -0.00000000000E+00 -0.76811821853E+02  0.76811821853E+02  0.00000000000E+00 0.  1.
      99926    2    1    2    0    0  0.10509513455E+03  0.11441968512E+03  0.12362100120E+04  0.13263671895E+04  0.45486028171E+03 0.  0.
         25    1    1    2    0    0 -0.10509513455E+03 -0.11441968512E+03  0.28169496060E+03  0.34516142684E+03  0.12509000000E+03 0.  0.
         25    1    3    3    0    0 -0.13821165454E+03  0.84304815944E+02  0.56614797266E+03  0.60198072933E+03  0.12509000000E+03 0.  0.
         25    1    3    3    0    0  0.24330678909E+03  0.30114869172E+02  0.67006203935E+03  0.72438646014E+03  0.12509000000E+03 0.  0.
<mgrwt>
<rscale>  2 0.69998029E+03</rscale>
<asrwt>0</asrwt>
<pdfrwt beam="1">  1       21 0.23451716E+00 0.69998029E+03</pdfrwt>
<pdfrwt beam="2">  1       21 0.11295857E-01 0.69998029E+03</pdfrwt>
<totfact> 0.42024558E+03</totfact>
</mgrwt>
</event>
<event>
 6    0  0.1191266E-005  0.6955585E+03  0.7546771E-02  0.9724858E-01
         21   -1    0    0  502  501  0.00000000000E+00  0.00000000000E+00  0.69485453871E+03  0.69485453871E+03  0.00000000000E+00 0.  1.
         21   -1    0    0  501  502 -0.00000000000E+00 -0.00000000000E+00 -0.17406580006E+03  0.17406580006E+03  0.00000000000E+00 0.  1.
      99926    2    1    2    0    0  0.12887677810E+03 -0.11245378006E+03  0.35821344500E+03  0.60183737265E+03  0.45236741079E+03 0.  0.
         25    1    3    3    0    0  0.69333759584E+02 -0.24772982722E+03  0.17541360372E+03  0.33555130455E+03  0.12509000000E+03 0.  0.
         25    1    3    3    0    0  0.59543018521E+02  0.13527604716E+03  0.18279984128E+03  0.26628606809E+03  0.12509000000E+03 0.  0.
         25    1    1    2    0    0 -0.12887677810E+03  0.11245378006E+03  0.16257529365E+03  0.26708296612E+03  0.12509000000E+03 0.  0.
<mgrwt>
<rscale>  2 0.69555851E+03</rscale>
<asrwt>0</asrwt>
<pdfrwt beam="1">  1       21 0.10218449E+00 0.69555851E+03</pdfrwt>
<pdfrwt beam="2">  1       21 0.25597912E-01 0.69555851E+03</pdfrwt>
<totfact> 0.94727312E+03</totfact>
</mgrwt>
</event>
<event>
 6    0  0.1191266E-005  0.6078798E+03  0.7546771E-02  0.9889191E-01
         21   -1    0    0  502  501  0.00000000000E+00  0.00000000000E+00  0.18264474348E+03  0.18264474348E+03  0.00000000000E+00 0.  1.
         21   -1    0    0  501  502 -0.00000000000E+00 -0.00000000000E+00 -0.50578769773E+03  0.50578769773E+03  0.00000000000E+00 0.  1.
      99926    2    1    2    0    0 -0.49615766458E+02 -0.40393652268E+01 -0.31308622382E+03  0.55342619439E+03  0.45362928515E+03 0.  0.
         25    1    1    2    0    0  0.49615766458E+02  0.40393652268E+01 -0.10056730427E+02  0.13500624682E+03  0.12509000000E+03 0.  0.
         25    1    3    3    0    0  0.14022068687E+03 -0.41187728889E+02 -0.24835823884E+03  0.31414581477E+03  0.12509000000E+03 0.  0.
         25    1    3    3    0    0 -0.18983645332E+03  0.37148363662E+02 -0.64727984977E+02  0.23928037962E+03  0.12509000000E+03 0.  0.
<mgrwt>
<rscale>  2 0.60787980E+03</rscale>
<asrwt>0</asrwt>
<pdfrwt beam="1">  1       21 0.26859521E-01 0.60787980E+03</pdfrwt>
<pdfrwt beam="2">  1       21 0.74380543E-01 0.60787980E+03</pdfrwt>
<totfact> 0.18636379E+04</totfact>
</mgrwt>
</event>
<event>
 6    0  0.1191266E-005  0.6043285E+03  0.7546771E-02  0.9896466E-01
         21   -1    0    0  502  501  0.00000000000E+00  0.00000000000E+00  0.46035111274E+03  0.46035111274E+03  0.00000000000E+00 0.  1.
         21   -1    0    0  501  502 -0.00000000000E+00 -0.00000000000E+00 -0.19833391437E+03  0.19833391437E+03  0.00000000000E+00 0.  1.
      99926    2    1    2    0    0  0.51175033376E+02 -0.83844037710E+01  0.25189929838E+03  0.52289451836E+03  0.45527600260E+03 0.  0.
         25    1    1    2    0    0 -0.51175033376E+02  0.83844037710E+01  0.10117899991E+02  0.13579050875E+03  0.12509000000E+03 0.  0.
         25    1    3    3    0    0  0.86987092188E+02 -0.10243706156E+03 -0.41693863361E+02  0.18827106026E+03  0.12509000000E+03 0.  0.
         25    1    3    3    0    0 -0.35812058812E+02  0.94052657786E+02  0.29359316174E+03  0.33462345810E+03  0.12509000000E+03 0.  0.
<mgrwt>
<rscale>  2 0.60432851E+03</rscale>
<asrwt>0</asrwt>
<pdfrwt beam="1">  1       21 0.67698693E-01 0.60432851E+03</pdfrwt>
<pdfrwt beam="2">  1       21 0.29166752E-01 0.60432851E+03</pdfrwt>
<totfact> 0.19615533E+04</totfact>
</mgrwt>
</event>
<event>
 6    0  0.1191266E-005  0.6677258E+03  0.7546771E-02  0.9774075E-01
         21   -1    0    0  502  501  0.00000000000E+00  0.00000000000E+00  0.44286281470E+03  0.44286281470E+03  0.00000000000E+00 0. -1.
         21   -1    0    0  501  502 -0.00000000000E+00 -0.00000000000E+00 -0.25169068732E+03  0.25169068732E+03  0.00000000000E+00 0. -1.
      99926    2    1    2    0    0 -0.10499356230E+03  0.72317128768E+02  0.75380925221E+02  0.48169550750E+03  0.45836106163E+03 0.  0.
         25    1    3    3    0    0 -0.21421645617E+03 -0.41365819875E+02 -0.32122499997E+02  0.25353339870E+03  0.12509000000E+03 0.  0.
         25    1    3    3    0    0  0.10922289387E+03  0.11368294864E+03  0.10750342522E+03  0.22816210880E+03  0.12509000000E+03 0.  0.
         25    1    1    2    0    0  0.10499356230E+03 -0.72317128768E+02  0.11579120216E+03  0.21285799453E+03  0.12509000000E+03 0.  0.
<mgrwt>
<rscale>  2 0.66772583E+03</rscale>
<asrwt>0</asrwt>
<pdfrwt beam="1">  1       21 0.65126885E-01 0.66772583E+03</pdfrwt>
<pdfrwt beam="2">  1       21 0.37013336E-01 0.66772583E+03</pdfrwt>
<totfact> 0.13059399E+04</totfact>
</mgrwt>
</event>
<event>
 6    0  0.1191266E-005  0.6002035E+03  0.7546771E-02  0.9904984E-01
         21   -1    0    0  502  501  0.00000000000E+00  0.00000000000E+00  0.27891339245E+03  0.27891339245E+03  0.00000000000E+00 0.  1.
         21   -1    0    0  501  502 -0.00000000000E+00 -0.00000000000E+00 -0.32289977523E+03  0.32289977523E+03  0.00000000000E+00 0.  1.
      99926    2    1    2    0    0  0.34560215539E+02  0.60082194430E+02 -0.19753658071E+02  0.45676485975E+03  0.45104284886E+03 0.  0.
         25    1    3    3    0    0  0.13418862945E+03 -0.10685321649E+03  0.44318320431E+02  0.21687743030E+03  0.12509000000E+03 0.  0.
         25    1    1    2    0    0 -0.34560215539E+02 -0.60082194430E+02 -0.24232724707E+02  0.14504830793E+03  0.12509000000E+03 0.  0.
         25    1    3    3    0    0 -0.99628413909E+02  0.16693541092E+03 -0.64071978502E+02  0.23988742945E+03  0.12509000000E+03 0.  0.
<mgrwt>
<rscale>  2 0.60020354E+03</rscale>
<asrwt>0</asrwt>
<pdfrwt beam="1">  1       21 0.41016676E-01 0.60020354E+03</pdfrwt>
<pdfrwt beam="2">  1       21 0.47485261E-01 0.60020354E+03</pdfrwt>
<totfact> 0.21300547E+04</totfact>
</mgrwt>
</event>
<event>
 6    0  0.1191266E-005  0.5581676E+03  0.7546771E-02  0.9996209E-01
         21   -1    0    0  502  501  0.00000000000E+00  0.00000000000E+00  0.17540818036E+03  0.17540818036E+03  0.00000000000E+00 0.  1.
         21   -1    0    0  501  502 -0.00000000000E+00 -0.00000000000E+00 -0.44403723928E+03  0.44403723928E+03  0.00000000000E+00 0.  1.
      99926    2    1    2    0    0  0.24198935384E+02 -0.15261917078E+02 -0.20142845574E+03  0.47459396554E+03  0.42877441010E+03 0.  0.
         25    1    1    2    0    0 -0.24198935384E+02  0.15261917078E+02 -0.67200603187E+02  0.14485145410E+03  0.12509000000E+03 0.  0.
         25    1    3    3    0    0 -0.68680875754E+01 -0.10862804268E+03  0.53353827432E+02  0.17418771853E+03  0.12509000000E+03 0.  0.
         25    1    3    3    0    0  0.31067022960E+02  0.93366125603E+02 -0.25478228317E+03  0.30040624701E+03  0.12509000000E+03 0.  0.
<mgrwt>
<rscale>  2 0.55816759E+03</rscale>
<asrwt>0</asrwt>
<pdfrwt beam="1">  1       21 0.25795320E-01 0.55816759E+03</pdfrwt>
<pdfrwt beam="2">  1       21 0.65299595E-01 0.55816759E+03</pdfrwt>
<totfact> 0.27360646E+04</totfact>
</mgrwt>
</event>
<event>
 6    0  0.1191266E-005  0.6970525E+03  0.7546771E-02  0.9722286E-01
         21   -1    0    0  502  501  0.00000000000E+00  0.00000000000E+00  0.43999393993E+03  0.43999393993E+03  0.00000000000E+00 0. -1.
         21   -1    0    0  501  502 -0.00000000000E+00 -0.00000000000E+00 -0.27607320568E+03  0.27607320568E+03  0.00000000000E+00 0. -1.
      99926    2    1    2    0    0  0.16581647794E+03  0.42070345641E+02  0.11285702706E+03  0.49807625444E+03  0.45395839935E+03 0.  0.
         25    1    3    3    0    0  0.11058984067E+03 -0.15951359042E+03  0.10679560249E+03  0.25441601207E+03  0.12509000000E+03 0.  0.
         25    1    3    3    0    0  0.55226637273E+02  0.20158393606E+03  0.60614245716E+01  0.24366024237E+03  0.12509000000E+03 0.  0.
         25    1    1    2    0    0 -0.16581647794E+03 -0.42070345641E+02  0.51063707192E+02  0.21799089117E+03  0.12509000000E+03 0.  0.
<mgrwt>
<rscale>  2 0.69705247E+03</rscale>
<asrwt>0</asrwt>
<pdfrwt beam="1">  1       21 0.64704991E-01 0.69705247E+03</pdfrwt>
<pdfrwt beam="2">  1       21 0.40599001E-01 0.69705247E+03</pdfrwt>
<totfact> 0.10885200E+04</totfact>
</mgrwt>
</event>
<event>
 6    0  0.1191266E-005  0.5792786E+03  0.7546771E-02  0.9949354E-01
         21   -1    0    0  502  501  0.00000000000E+00  0.00000000000E+00  0.69034185102E+02  0.69034185102E+02  0.00000000000E+00 0.  1.
         21   -1    0    0  501  502 -0.00000000000E+00 -0.00000000000E+00 -0.12152085468E+04  0.12152085468E+04  0.00000000000E+00 0.  1.
      99926    2    1    2    0    0  0.21196292871E+02 -0.27902580965E+02 -0.92412595119E+03  0.10269863587E+04  0.44661434189E+03 0.  0.
         25    1    3    3    0    0 -0.10569204514E+03 -0.15660108660E+03 -0.51239498143E+03  0.56025961289E+03  0.12509000000E+03 0.  0.
         25    1    1    2    0    0 -0.21196292871E+02  0.27902580965E+02 -0.22204841047E+03  0.25725637320E+03  0.12509000000E+03 0.  0.
         25    1    3    3    0    0  0.12688833801E+03  0.12869850564E+03 -0.41173096976E+03  0.46672674579E+03  0.12509000000E+03 0.  0.
<mgrwt>
<rscale>  2 0.57927863E+03</rscale>
<asrwt>0</asrwt>
<pdfrwt beam="1">  1       21 0.10152087E-01 0.57927863E+03</pdfrwt>
<pdfrwt beam="2">  1       21 0.17870713E+00 0.57927863E+03</pdfrwt>
<totfact> 0.12445007E+04</totfact>
</mgrwt>
</event>
<event>
 6    0  0.1191266E-005  0.6522522E+03  0.7546771E-02  0.9802562E-01
         21   -1    0    0  502  501  0.00000000000E+00  0.00000000000E+00  0.35136955265E+03  0.35136955265E+03  0.00000000000E+00 0.  1.
         21   -1    0    0  501  502 -0.00000000000E+00 -0.00000000000E+00 -0.30269618327E+03  0.30269618327E+03  0.00000000000E+00 0.  1.
      99926    2    1    2    0    0 -0.71322390562E+02  0.10360081117E+02  0.14335894959E+03  0.48141846001E+03  0.45389176082E+03 0.  0.
         25    1    3    3    0    0  0.11535887837E+03 -0.88256888691E+02 -0.10150720752E+02  0.19195701199E+03  0.12509000000E+03 0.  0.
         25    1    3    3    0    0 -0.18668126893E+03  0.98616969808E+02  0.15350967034E+03  0.28946144802E+03  0.12509000000E+03 0.  0.
         25    1    1    2    0    0  0.71322390562E+02 -0.10360081117E+02 -0.94685580213E+02  0.17264727590E+03  0.12509000000E+03 0.  0.
<mgrwt>
<rscale>  2 0.65225217E+03</rscale>
<asrwt>0</asrwt>
<pdfrwt beam="1">  1       21 0.51671993E-01 0.65225217E+03</pdfrwt>
<pdfrwt beam="2">  1       21 0.44514145E-01 0.65225217E+03</pdfrwt>
<totfact> 0.14833661E+04</totfact>
</mgrwt>
</event>
<event>
 6    0  0.1191266E-005  0.8349868E+03  0.7546771E-02  0.9510712E-01
         21   -1    0    0  502  501  0.00000000000E+00  0.00000000000E+00  0.58635488158E+03  0.58635488158E+03  0.00000000000E+00 0.  1.
         21   -1    0    0  501  502 -0.00000000000E+00 -0.00000000000E+00 -0.29726149147E+03  0.29726149147E+03  0.00000000000E+00 0.  1.
      99926    2    1    2    0    0 -0.36623536623E+02  0.18726780935E+02 -0.10562194557E+03  0.46751580817E+03  0.45356703997E+03 0.  0.
         25    1    1    2    0    0  0.36623536623E+02 -0.18726780935E+02  0.39471533569E+03  0.41610056487E+03  0.12509000000E+03 0.  0.
         25    1    3    3    0    0 -0.35434313521E+02 -0.14628820741E+03  0.57418309318E+02  0.20396127217E+03  0.12509000000E+03 0.  0.
         25    1    3    3    0    0 -0.11892231015E+01  0.16501498835E+03 -0.16304025489E+03  0.26355453600E+03  0.12509000000E+03 0.  0.
<mgrwt>
<rscale>  2 0.83498677E+03</rscale>
<asrwt>0</asrwt>
<pdfrwt beam="1">  1       21 0.86228659E-01 0.83498677E+03</pdfrwt>
<pdfrwt beam="2">  1       21 0.43714925E-01 0.83498677E+03</pdfrwt>
<totfact> 0.46878423E+03</totfact>
</mgrwt>
</event>
<event>
 6    0  0.1191266E-005  0.5908832E+03  0.7546771E-02  0.9924503E-01
         21   -1    0    0  502  501  0.00000000000E+00  0.00000000000E+00  0.20685981897E+03  0.20685981897E+03  0.00000000000E+00 0. -1.
         21   -1    0    0  501  502 -0.00000000000E+00 -0.00000000000E+00 -0.42195604566E+03  0.42195604566E+03  0.00000000000E+00 0. -1.
      99926    2    1    2    0    0  0.40609970985E+02  0.16494992682E+02 -0.14653707027E+03  0.47958744725E+03  0.45454345454E+03 0.  0.
         25    1    3    3    0    0  0.19276265657E+03 -0.48803225361E+02 -0.18260744845E+02  0.23562716201E+03  0.12509000000E+03 0.  0.
         25    1    1    2    0    0 -0.40609970985E+02 -0.16494992682E+02 -0.68559156420E+02  0.14922841739E+03  0.12509000000E+03 0.  0.
         25    1    3    3    0    0 -0.15215268558E+03  0.65298218043E+02 -0.12827632543E+03  0.24396028524E+03  0.12509000000E+03 0.  0.
<mgrwt>
<rscale>  2 0.59088324E+03</rscale>
<asrwt>0</asrwt>
<pdfrwt beam="1">  1       21 0.30420562E-01 0.59088324E+03</pdfrwt>
<pdfrwt beam="2">  1       21 0.62052360E-01 0.59088324E+03</pdfrwt>
<totfact> 0.21966766E+04</totfact>
</mgrwt>
</event>
<event>
 6    0  0.1191266E-005  0.7005545E+03  0.7546771E-02  0.9716284E-01
         21   -1    0    0  502  501  0.00000000000E+00  0.00000000000E+00  0.15895449908E+03  0.15895449908E+03  0.00000000000E+00 0. -1.
         21   -1    0    0  501  502 -0.00000000000E+00 -0.00000000000E+00 -0.77188224701E+03  0.77188224701E+03  0.00000000000E+00 0. -1.
      99926    2    1    2    0    0 -0.98754583398E+02  0.14417255858E+03 -0.44728485217E+03  0.65950066039E+03  0.45203892276E+03 0.  0.
         25    1    3    3    0    0 -0.19953221599E+03  0.15197735079E+03 -0.40619486314E+03  0.49350987357E+03  0.12509000000E+03 0.  0.
         25    1    3    3    0    0  0.10077763259E+03 -0.78047922080E+01 -0.41089989025E+02  0.16599078682E+03  0.12509000000E+03 0.  0.
         25    1    1    2    0    0  0.98754583398E+02 -0.14417255858E+03 -0.16564289576E+03  0.27133608570E+03  0.12509000000E+03 0.  0.
<mgrwt>
<rscale>  2 0.70055451E+03</rscale>
<asrwt>0</asrwt>
<pdfrwt beam="1">  1       21 0.23375662E-01 0.70055451E+03</pdfrwt>
<pdfrwt beam="2">  1       21 0.11351209E+00 0.70055451E+03</pdfrwt>
<totfact> 0.86917298E+03</totfact>
</mgrwt>
</event>
<event>
 6    0  0.1191266E-005  0.6414635E+03  0.7546771E-02  0.9822930E-01
         21   -1    0    0  502  501  0.00000000000E+00  0.00000000000E+00  0.26333360025E+03  0.26333360025E+03  0.00000000000E+00 0.  1.
         21   -1    0    0  501  502 -0.00000000000E+00 -0.00000000000E+00 -0.39064088452E+03  0.39064088452E+03  0.00000000000E+00 0.  1.
      99926    2    1    2    0    0  0.96630078219E+02  0.54187735312E+02 -0.37494846048E+02  0.46427086110E+03  0.44929710250E+03 0.  0.
         25    1    3    3    0    0 -0.68634139544E+02 -0.12397839858E+03 -0.56671662577E+01  0.18910556126E+03  0.12509000000E+03 0.  0.
         25    1    1    2    0    0 -0.96630078219E+02 -0.54187735312E+02 -0.89812438220E+02  0.18970362367E+03  0.12509000000E+03 0.  0.
         25    1    3    3    0    0  0.16526421776E+03  0.17816613389E+03 -0.31827679790E+02  0.27516529985E+03  0.12509000000E+03 0.  0.
<mgrwt>
<rscale>  2 0.64146355E+03</rscale>
<asrwt>0</asrwt>
<pdfrwt beam="1">  1       21 0.38725530E-01 0.64146355E+03</pdfrwt>
<pdfrwt beam="2">  1       21 0.57447188E-01 0.64146355E+03</pdfrwt>
<totfact> 0.15791311E+04</totfact>
</mgrwt>
</event>
<event>
 6    0  0.1191266E-005  0.6128050E+03  0.7546771E-02  0.9879190E-01
         21   -1    0    0  502  501  0.00000000000E+00  0.00000000000E+00  0.19213493911E+03  0.19213493911E+03  0.00000000000E+00 0. -1.
         21   -1    0    0  501  502 -0.00000000000E+00 -0.00000000000E+00 -0.48862784048E+03  0.48862784048E+03  0.00000000000E+00 0. -1.
      99926    2    1    2    0    0 -0.70503701047E+02 -0.47563732231E+02 -0.20594182349E+03  0.50446732789E+03  0.45259492901E+03 0.  0.
         25    1    1    2    0    0  0.70503701047E+02  0.47563732231E+02 -0.90551077888E+02  0.17629545170E+03  0.12509000000E+03 0.  0.
         25    1    3    3    0    0  0.89089293195E+01 -0.97309734852E+01 -0.29974539782E+03  0.32506748911E+03  0.12509000000E+03 0.  0.
         25    1    3    3    0    0 -0.79412630367E+02 -0.37832758746E+02  0.93803574330E+02  0.17939983878E+03  0.12509000000E+03 0.  0.
<mgrwt>
<rscale>  2 0.61280496E+03</rscale>
<asrwt>0</asrwt>
<pdfrwt beam="1">  1       21 0.28255139E-01 0.61280496E+03</pdfrwt>
<pdfrwt beam="2">  1       21 0.71857034E-01 0.61280496E+03</pdfrwt>
<totfact> 0.18224965E+04</totfact>
</mgrwt>
</event>
<event>
 6    0  0.1191266E-005  0.9012601E+03  0.7546771E-02  0.9424008E-01
         21   -1    0    0  502  501  0.00000000000E+00  0.00000000000E+00  0.10204338360E+04  0.10204338360E+04  0.00000000000E+00 0. -1.
         21   -1    0    0  501  502 -0.00000000000E+00 -0.00000000000E+00 -0.19900107649E+03  0.19900107649E+03  0.00000000000E+00 0. -1.
      99926    2    1    2    0    0  0.15703494312E+03 -0.27969496541E+03  0.45751116693E+03  0.71846018192E+03  0.45164069580E+03 0.  0.
         25    1    1    2    0    0 -0.15703494312E+03  0.27969496541E+03  0.36392159259E+03  0.50097473059E+03  0.12509000000E+03 0.  0.
         25    1    3    3    0    0  0.27465680911E+03 -0.17641239053E+03  0.24840054220E+03  0.42884499739E+03  0.12509000000E+03 0.  0.
         25    1    3    3    0    0 -0.11762186599E+03 -0.10328257488E+03  0.20911062474E+03  0.28961518453E+03  0.12509000000E+03 0.  0.
<mgrwt>
<rscale>  2 0.90126008E+03</rscale>
<asrwt>0</asrwt>
<pdfrwt beam="1">  1       21 0.15006380E+00 0.90126008E+03</pdfrwt>
<pdfrwt beam="2">  1       21 0.29264865E-01 0.90126008E+03</pdfrwt>
<totfact> 0.25628562E+03</totfact>
</mgrwt>
</event>
<event>
 6    0  0.1191266E-005  0.9062636E+03  0.7546771E-02  0.9417785E-01
         21   -1    0    0  502  501  0.00000000000E+00  0.00000000000E+00  0.11587507037E+03  0.11587507037E+03  0.00000000000E+00 0.  1.
         21   -1    0    0  501  502 -0.00000000000E+00 -0.00000000000E+00 -0.17719810903E+04  0.17719810903E+04  0.00000000000E+00 0. -1.
      99926    2    1    2    0    0  0.28444302116E+03  0.46363334403E+02 -0.13400734472E+04  0.14422313340E+04  0.44852757515E+03 0.  0.
         25    1    1    2    0    0 -0.28444302116E+03 -0.46363334403E+02 -0.31603257273E+03  0.44562482672E+03  0.12509000000E+03 0.  0.
         25    1    3    3    0    0  0.32196922319E+03  0.45997967256E+02 -0.62726305587E+03  0.71755588147E+03  0.12509000000E+03 0.  0.
         25    1    3    3    0    0 -0.37526202032E+02  0.36536714714E+00 -0.71281039135E+03  0.72467545250E+03  0.12509000000E+03 0.  0.
<mgrwt>
<rscale>  2 0.90626361E+03</rscale>
<asrwt>0</asrwt>
<pdfrwt beam="1">  1       21 0.17040450E-01 0.90626361E+03</pdfrwt>
<pdfrwt beam="2">  1       21 0.26058547E+00 0.90626361E+03</pdfrwt>
<totfact> 0.12710121E+03</totfact>
</mgrwt>
</event>
<event>
 6    0  0.1191266E-005  0.7783054E+03  0.7546771E-02  0.9591961E-01
         21   -1    0    0  502  501  0.00000000000E+00  0.00000000000E+00  0.37674360033E+03  0.37674360033E+03  0.00000000000E+00 0.  1.
         21   -1    0    0  501  502 -0.00000000000E+00 -0.00000000000E+00 -0.40197055256E+03  0.40197055256E+03  0.00000000000E+00 0.  1.
      99926    2    1    2    0    0  0.13929846642E+03 -0.15880949090E+03  0.85450720224E+02  0.50941585653E+03  0.45560747596E+03 0.  0.
         25    1    3    3    0    0  0.19235976221E+03  0.64642601518E+02  0.65028745244E+02  0.24709753106E+03  0.12509000000E+03 0.  0.
         25    1    3    3    0    0 -0.53061295784E+02 -0.22345209241E+03  0.20421974979E+02  0.26231832547E+03  0.12509000000E+03 0.  0.
         25    1    1    2    0    0 -0.13929846642E+03  0.15880949090E+03 -0.11067767246E+03  0.26929829637E+03  0.12509000000E+03 0.  0.
<mgrwt>
<rscale>  2 0.77830542E+03</rscale>
<asrwt>0</asrwt>
<pdfrwt beam="1">  1       21 0.55403471E-01 0.77830542E+03</pdfrwt>
<pdfrwt beam="2">  1       21 0.59113316E-01 0.77830542E+03</pdfrwt>
<totfact> 0.67598378E+03</totfact>
</mgrwt>
</event>
<event>
 6    0  0.1191266E-005  0.6198936E+03  0.7546771E-02  0.9864972E-01
         21   -1    0    0  502  501  0.00000000000E+00  0.00000000000E+00  0.54972917100E+02  0.54972917100E+02  0.00000000000E+00 0.  1.
         21   -1    0    0  501  502 -0.00000000000E+00 -0.00000000000E+00 -0.17475333765E+04  0.17475333765E+04  0.00000000000E+00 0.  1.
      99926    2    1    2    0    0  0.39608385237E+02  0.73620139875E+02 -0.11503979384E+04  0.12398550193E+04  0.45479259346E+03 0.  0.
         25    1    3    3    0    0  0.45843929699E+02 -0.10425215915E+03 -0.18684206856E+03  0.25204691084E+03  0.12509000000E+03 0.  0.
         25    1    1    2    0    0 -0.39608385237E+02 -0.73620139875E+02 -0.54216252099E+03  0.56265127428E+03  0.12509000000E+03 0.  0.
         25    1    3    3    0    0 -0.62355444621E+01  0.17787229902E+03 -0.96355586980E+03  0.98780810844E+03  0.12509000000E+03 0.  0.
<mgrwt>
<rscale>  2 0.61989356E+03</rscale>
<asrwt>0</asrwt>
<pdfrwt beam="1">  1       21 0.80842526E-02 0.61989356E+03</pdfrwt>
<pdfrwt beam="2">  1       21 0.25699020E+00 0.61989356E+03</pdfrwt>
<totfact> 0.56839668E+03</totfact>
</mgrwt>
</event>
<event>
 6    0  0.1191266E-005  0.6783040E+03  0.7546771E-02  0.9755072E-01
         21   -1    0    0  502  501  0.00000000000E+00  0.00000000000E+00  0.62316141291E+03  0.62316141291E+03  0.00000000000E+00 0. -1.
         21   -1    0    0  501  502 -0.00000000000E+00 -0.00000000000E+00 -0.18458154233E+03  0.18458154233E+03  0.00000000000E+00 0. -1.
      99926    2    1    2    0    0  0.12628169332E+02  0.14864117923E+03  0.25984411581E+03  0.54345589738E+03  0.45340012908E+03 0.  0.
         25    1    3    3    0    0  0.18183756889E+03  0.14859024736E+03  0.12925454770E+03  0.29580096225E+03  0.12509000000E+03 0.  0.
         25    1    1    2    0    0 -0.12628169332E+02 -0.14864117923E+03  0.17873575476E+03  0.26428705786E+03  0.12509000000E+03 0.  0.
         25    1    3    3    0    0 -0.16920939956E+03  0.50931870184E-01  0.13058956811E+03  0.24765493513E+03  0.12509000000E+03 0.  0.
<mgrwt>
<rscale>  2 0.67830405E+03</rscale>
<asrwt>0</asrwt>
<pdfrwt beam="1">  1       21 0.91641384E-01 0.67830405E+03</pdfrwt>
<pdfrwt beam="2">  1       21 0.27144345E-01 0.67830405E+03</pdfrwt>
<totfact> 0.11036255E+04</totfact>
</mgrwt>
</event>
<event>
 6    0  0.1191266E-005  0.5843990E+03  0.7546771E-02  0.9938312E-01
         21   -1    0    0  502  501  0.00000000000E+00  0.00000000000E+00  0.47180448217E+03  0.47180448217E+03  0.00000000000E+00 0.  1.
         21   -1    0    0  501  502 -0.00000000000E+00 -0.00000000000E+00 -0.18096598313E+03  0.18096598313E+03  0.00000000000E+00 0.  1.
      99926    2    1    2    0    0 -0.30296139961E+01  0.57262404148E+01  0.16691310289E+03  0.47656893211E+03  0.44633619027E+03 0.  0.
         25    1    3    3    0    0 -0.96031662675E+02 -0.90533164578E+02 -0.53892293530E+02  0.18965817021E+03  0.12509000000E+03 0.  0.
         25    1    3    3    0    0  0.93002048679E+02  0.96259404993E+02  0.22080539642E+03  0.28691076190E+03  0.12509000000E+03 0.  0.
         25    1    1    2    0    0  0.30296139961E+01 -0.57262404148E+01  0.12392539615E+03  0.17620153320E+03  0.12509000000E+03 0.  0.
<mgrwt>
<rscale>  2 0.58439905E+03</rscale>
<asrwt>0</asrwt>
<pdfrwt beam="1">  1       21 0.69383012E-01 0.58439905E+03</pdfrwt>
<pdfrwt beam="2">  1       21 0.26612645E-01 0.58439905E+03</pdfrwt>
<totfact> 0.22337809E+04</totfact>
</mgrwt>
</event>
