<event>
 6    0  0.1539497E-004  0.4016986E+03  0.7546771E-02  0.1043193E+00
         21   -1    0    0  502  501  0.00000000000E+00  0.00000000000E+00  0.71118061575E+03  0.71118061575E+03  0.00000000000E+00 0. -1.
         21   -1    0    0  501  502 -0.00000000000E+00 -0.00000000000E+00 -0.56723188430E+02  0.56723188430E+02  0.00000000000E+00 0. -1.
      99925    2    1    2    0    0 -0.88184801710E+01 -0.44793057485E+02  0.46797425351E+03  0.53875829189E+03  0.26301408999E+03 0.  0.
         25    1    1    2    0    0  0.88184801710E+01  0.44793057485E+02  0.18648317381E+03  0.22914551230E+03  0.12509000000E+03 0.  0.
         25    1    3    3    0    0 -0.42865962948E+02 -0.26145150131E+02  0.21201006166E+03  0.25123063906E+03  0.12509000000E+03 0.  0.
         25    1    3    3    0    0  0.34047482777E+02 -0.18647907355E+02  0.25596419185E+03  0.28752765283E+03  0.12509000000E+03 0.  0.
<mgrwt>
<rscale>  2 0.40169855E+03</rscale>
<asrwt>0</asrwt>
<pdfrwt beam="1">  1       21 0.10458538E+00 0.40169855E+03</pdfrwt>
<pdfrwt beam="2">  1       21 0.83416458E-02 0.40169855E+03</pdfrwt>
<totfact> 0.76793813E+04</totfact>
</mgrwt>
</event>
<event>
 6    0  0.1539497E-004  0.4513482E+03  0.7546771E-02  0.1027321E+00
         21   -1    0    0  502  501  0.00000000000E+00  0.00000000000E+00  0.29519045942E+03  0.29519045942E+03  0.00000000000E+00 0. -1.
         21   -1    0    0  501  502 -0.00000000000E+00 -0.00000000000E+00 -0.17252862039E+03  0.17252862039E+03  0.00000000000E+00 0. -1.
      99925    2    1    2    0    0  0.10050216533E+03  0.76635810581E+01  0.12192706843E+03  0.30707206397E+03  0.26318743652E+03 0.  0.
         25    1    1    2    0    0 -0.10050216533E+03 -0.76635810581E+01  0.73477060116E+00  0.16064701584E+03  0.12509000000E+03 0.  0.
         25    1    3    3    0    0  0.41030376973E+02  0.26069460356E+02  0.23713804922E+02  0.13628265202E+03  0.12509000000E+03 0.  0.
         25    1    3    3    0    0  0.59471788360E+02 -0.18405879298E+02  0.98213263511E+02  0.17078941195E+03  0.12509000000E+03 0.  0.
<mgrwt>
<rscale>  2 0.45134821E+03</rscale>
<asrwt>0</asrwt>
<pdfrwt beam="1">  1       21 0.43410362E-01 0.45134821E+03</pdfrwt>
<pdfrwt beam="2">  1       21 0.25371856E-01 0.45134821E+03</pdfrwt>
<totfact> 0.69600316E+04</totfact>
</mgrwt>
</event>
<event>
 6    0  0.1539497E-004  0.4055039E+03  0.7546771E-02  0.1041890E+00
         21   -1    0    0  502  501  0.00000000000E+00  0.00000000000E+00  0.28579334609E+03  0.28579334609E+03  0.00000000000E+00 0. -1.
         21   -1    0    0  501  502 -0.00000000000E+00 -0.00000000000E+00 -0.14383941619E+03  0.14383941619E+03  0.00000000000E+00 0. -1.
      99925    2    1    2    0    0 -0.30198735778E+02  0.29592588194E+02  0.13237279696E+03  0.29724321916E+03  0.26276089710E+03 0.  0.
         25    1    1    2    0    0  0.30198735778E+02 -0.29592588194E+02  0.95811329438E+01  0.13238954312E+03  0.12509000000E+03 0.  0.
         25    1    3    3    0    0 -0.93610915087E+01 -0.21150841047E+02  0.44216600554E+02  0.13467592203E+03  0.12509000000E+03 0.  0.
         25    1    3    3    0    0 -0.20837644269E+02  0.50743429241E+02  0.88156196403E+02  0.16256729712E+03  0.12509000000E+03 0.  0.
<mgrwt>
<rscale>  2 0.40550387E+03</rscale>
<asrwt>0</asrwt>
<pdfrwt beam="1">  1       21 0.42028433E-01 0.40550387E+03</pdfrwt>
<pdfrwt beam="2">  1       21 0.21152855E-01 0.40550387E+03</pdfrwt>
<totfact> 0.10669476E+05</totfact>
</mgrwt>
</event>
<event>
 6    0  0.1539497E-004  0.4222780E+03  0.7546771E-02  0.1036327E+00
         21   -1    0    0  502  501  0.00000000000E+00  0.00000000000E+00  0.31675345416E+03  0.31675345416E+03  0.00000000000E+00 0. -1.
         21   -1    0    0  501  502 -0.00000000000E+00 -0.00000000000E+00 -0.14073934675E+03  0.14073934675E+03  0.00000000000E+00 0. -1.
      99925    2    1    2    0    0 -0.77437052131E+02 -0.17213470137E+01  0.12864489645E+03  0.30292627696E+03  0.26308812176E+03 0.  0.
         25    1    3    3    0    0 -0.59075192693E+02 -0.13167298881E+02  0.10409294450E+03  0.17362633829E+03  0.12509000000E+03 0.  0.
         25    1    1    2    0    0  0.77437052131E+02  0.17213470137E+01  0.47369210965E+02  0.15456652395E+03  0.12509000000E+03 0.  0.
         25    1    3    3    0    0 -0.18361859438E+02  0.11445951867E+02  0.24551951948E+02  0.12929993867E+03  0.12509000000E+03 0.  0.
<mgrwt>
<rscale>  2 0.42227799E+03</rscale>
<asrwt>0</asrwt>
<pdfrwt beam="1">  1       21 0.46581390E-01 0.42227799E+03</pdfrwt>
<pdfrwt beam="2">  1       21 0.20696963E-01 0.42227799E+03</pdfrwt>
<totfact> 0.89444146E+04</totfact>
</mgrwt>
</event>
<event>
 6    0  0.1539497E-004  0.4283500E+03  0.7546771E-02  0.1034382E+00
         21   -1    0    0  502  501  0.00000000000E+00  0.00000000000E+00  0.17417761129E+03  0.17417761129E+03  0.00000000000E+00 0. -1.
         21   -1    0    0  501  502 -0.00000000000E+00 -0.00000000000E+00 -0.26335719950E+03  0.26335719950E+03  0.00000000000E+00 0. -1.
      99925    2    1    2    0    0  0.59350859950E+02 -0.25806359884E+02 -0.11545213215E+03  0.29426496939E+03  0.26281968078E+03 0.  0.
         25    1    1    2    0    0 -0.59350859950E+02  0.25806359884E+02  0.26272543939E+02  0.14326984139E+03  0.12509000000E+03 0.  0.
         25    1    3    3    0    0  0.12318545152E+02 -0.18666201278E+02 -0.95492796549E+02  0.15895457187E+03  0.12509000000E+03 0.  0.
         25    1    3    3    0    0  0.47032314798E+02 -0.71401586066E+01 -0.19959335599E+02  0.13531039752E+03  0.12509000000E+03 0.  0.
<mgrwt>
<rscale>  2 0.42834999E+03</rscale>
<asrwt>0</asrwt>
<pdfrwt beam="1">  1       21 0.25614355E-01 0.42834999E+03</pdfrwt>
<pdfrwt beam="2">  1       21 0.38728999E-01 0.42834999E+03</pdfrwt>
<totfact> 0.86889832E+04</totfact>
</mgrwt>
</event>
<event>
 6    0  0.1539497E-004  0.4095354E+03  0.7546771E-02  0.1040527E+00
         21   -1    0    0  502  501  0.00000000000E+00  0.00000000000E+00  0.39779757595E+03  0.39779757595E+03  0.00000000000E+00 0.  1.
         21   -1    0    0  501  502 -0.00000000000E+00 -0.00000000000E+00 -0.10540487216E+03  0.10540487216E+03  0.00000000000E+00 0.  1.
      99925    2    1    2    0    0  0.89273940677E+01  0.24943172471E+02  0.12463198284E+03  0.29226874334E+03  0.26303236867E+03 0.  0.
         25    1    3    3    0    0  0.71587682772E+01 -0.15601981373E+02  0.93534330651E+02  0.15713322022E+03  0.12509000000E+03 0.  0.
         25    1    3    3    0    0  0.17686257906E+01  0.40545153844E+02  0.31097652189E+02  0.13513552312E+03  0.12509000000E+03 0.  0.
         25    1    1    2    0    0 -0.89273940677E+01 -0.24943172471E+02  0.16776072095E+03  0.21093370477E+03  0.12509000000E+03 0.  0.
<mgrwt>
<rscale>  2 0.40953536E+03</rscale>
<asrwt>0</asrwt>
<pdfrwt beam="1">  1       21 0.58499643E-01 0.40953536E+03</pdfrwt>
<pdfrwt beam="2">  1       21 0.15500717E-01 0.40953536E+03</pdfrwt>
<totfact> 0.94902896E+04</totfact>
</mgrwt>
</event>
<event>
 6    0  0.1539497E-004  0.4755788E+03  0.7546771E-02  0.1020357E+00
         21   -1    0    0  502  501  0.00000000000E+00  0.00000000000E+00  0.20964046792E+03  0.20964046792E+03  0.00000000000E+00 0. -1.
         21   -1    0    0  501  502 -0.00000000000E+00 -0.00000000000E+00 -0.26971799602E+03  0.26971799602E+03  0.00000000000E+00 0. -1.
      99925    2    1    2    0    0 -0.44144186064E+02 -0.12427300458E+01  0.87748961035E+02  0.28073713445E+03  0.26298898257E+03 0.  0.
         25    1    3    3    0    0 -0.41291564099E+02 -0.51126997607E+01  0.75003565061E+01  0.13204126784E+03  0.12509000000E+03 0.  0.
         25    1    1    2    0    0  0.44144186064E+02  0.12427300458E+01 -0.14782648914E+03  0.19862132950E+03  0.12509000000E+03 0.  0.
         25    1    3    3    0    0 -0.28526219646E+01  0.38699697148E+01  0.80248604529E+02  0.14869586661E+03  0.12509000000E+03 0.  0.
<mgrwt>
<rscale>  2 0.47557883E+03</rscale>
<asrwt>0</asrwt>
<pdfrwt beam="1">  1       21 0.30829480E-01 0.47557883E+03</pdfrwt>
<pdfrwt beam="2">  1       21 0.39664411E-01 0.47557883E+03</pdfrwt>
<totfact> 0.56869355E+04</totfact>
</mgrwt>
</event>
<event>
 6    0  0.1539497E-004  0.4287312E+03  0.7546771E-02  0.1034262E+00
         21   -1    0    0  502  501  0.00000000000E+00  0.00000000000E+00  0.62227890623E+03  0.62227890623E+03  0.00000000000E+00 0.  1.
         21   -1    0    0  501  502 -0.00000000000E+00 -0.00000000000E+00 -0.73845697129E+02  0.73845697129E+02  0.00000000000E+00 0.  1.
      99925    2    1    2    0    0 -0.36911261993E+01 -0.84568822950E+02  0.38151728942E+03  0.47101586836E+03  0.26293534547E+03 0.  0.
         25    1    3    3    0    0 -0.22357205732E+02 -0.54183232296E+02  0.25244699418E+03  0.28777188931E+03  0.12509000000E+03 0.  0.
         25    1    3    3    0    0  0.18666079532E+02 -0.30385590653E+02  0.12907029524E+03  0.18324397905E+03  0.12509000000E+03 0.  0.
         25    1    1    2    0    0  0.36911261993E+01  0.84568822950E+02  0.16691591968E+03  0.22510873500E+03  0.12509000000E+03 0.  0.
<mgrwt>
<rscale>  2 0.42873124E+03</rscale>
<asrwt>0</asrwt>
<pdfrwt beam="1">  1       21 0.91511601E-01 0.42873124E+03</pdfrwt>
<pdfrwt beam="2">  1       21 0.10859662E-01 0.42873124E+03</pdfrwt>
<totfact> 0.65674726E+04</totfact>
</mgrwt>
</event>
<event>
 6    0  0.1539497E-004  0.4626150E+03  0.7546771E-02  0.1024026E+00
         21   -1    0    0  502  501  0.00000000000E+00  0.00000000000E+00  0.37509923535E+02  0.37509923535E+02  0.00000000000E+00 0.  1.
         21   -1    0    0  501  502 -0.00000000000E+00 -0.00000000000E+00 -0.14263733191E+04  0.14263733191E+04  0.00000000000E+00 0.  1.
      99925    2    1    2    0    0  0.10977300552E+03  0.47568327865E+02 -0.90934750951E+03  0.95408342738E+03  0.26277259138E+03 0.  0.
         25    1    3    3    0    0  0.58143866827E+02  0.60180722742E+02 -0.53765906720E+03  0.55832536149E+03  0.12509000000E+03 0.  0.
         25    1    1    2    0    0 -0.10977300552E+03 -0.47568327865E+02 -0.47951588600E+03  0.50979981521E+03  0.12509000000E+03 0.  0.
         25    1    3    3    0    0  0.51629138692E+02 -0.12612394877E+02 -0.37168844231E+03  0.39575806589E+03  0.12509000000E+03 0.  0.
<mgrwt>
<rscale>  2 0.46261498E+03</rscale>
<asrwt>0</asrwt>
<pdfrwt beam="1">  1       21 0.55161653E-02 0.46261498E+03</pdfrwt>
<pdfrwt beam="2">  1       21 0.20976078E+00 0.46261498E+03</pdfrwt>
<totfact> 0.23270609E+04</totfact>
</mgrwt>
</event>
<event>
 6    0  0.1539497E-004  0.4334978E+03  0.7546771E-02  0.1032761E+00
         21   -1    0    0  502  501  0.00000000000E+00  0.00000000000E+00  0.85157775684E+02  0.85157775684E+02  0.00000000000E+00 0.  1.
         21   -1    0    0  501  502 -0.00000000000E+00 -0.00000000000E+00 -0.55168283242E+03  0.55168283242E+03  0.00000000000E+00 0.  1.
      99925    2    1    2    0    0  0.78388128086E+02 -0.47459607514E+02 -0.30321354621E+03  0.41164009624E+03  0.26289161505E+03 0.  0.
         25    1    1    2    0    0 -0.78388128086E+02  0.47459607514E+02 -0.16331151053E+03  0.22520051186E+03  0.12509000000E+03 0.  0.
         25    1    3    3    0    0  0.73217104821E+02 -0.47178780972E+02 -0.18171681232E+03  0.23718155450E+03  0.12509000000E+03 0.  0.
         25    1    3    3    0    0  0.51710232657E+01 -0.28082654243E+00 -0.12149673388E+03  0.17445854175E+03  0.12509000000E+03 0.  0.
<mgrwt>
<rscale>  2 0.43349779E+03</rscale>
<asrwt>0</asrwt>
<pdfrwt beam="1">  1       21 0.12523203E-01 0.43349779E+03</pdfrwt>
<pdfrwt beam="2">  1       21 0.81129826E-01 0.43349779E+03</pdfrwt>
<totfact> 0.67153198E+04</totfact>
</mgrwt>
</event>
<event>
 6    0  0.1539497E-004  0.4332434E+03  0.7546771E-02  0.1032840E+00
         21   -1    0    0  502  501  0.00000000000E+00  0.00000000000E+00  0.48880298692E+02  0.48880298692E+02  0.00000000000E+00 0.  1.
         21   -1    0    0  501  502 -0.00000000000E+00 -0.00000000000E+00 -0.95999725533E+03  0.95999725533E+03  0.00000000000E+00 0.  1.
      99925    2    1    2    0    0 -0.35775878044E+02 -0.55985378614E+02 -0.43981841294E+03  0.51675551483E+03  0.26302423781E+03 0.  0.
         25    1    3    3    0    0 -0.37801060386E+02 -0.38564513404E+02 -0.29265694529E+03  0.32281842820E+03  0.12509000000E+03 0.  0.
         25    1    3    3    0    0  0.20251823422E+01 -0.17420865210E+02 -0.14716146765E+03  0.19393708663E+03  0.12509000000E+03 0.  0.
         25    1    1    2    0    0  0.35775878044E+02  0.55985378614E+02 -0.47129854370E+03  0.49212203919E+03  0.12509000000E+03 0.  0.
<mgrwt>
<rscale>  2 0.43324336E+03</rscale>
<asrwt>0</asrwt>
<pdfrwt beam="1">  1       21 0.71882796E-02 0.43324336E+03</pdfrwt>
<pdfrwt beam="2">  1       21 0.14117606E+00 0.43324336E+03</pdfrwt>
<totfact> 0.46184841E+04</totfact>
</mgrwt>
</event>
<event>
 6    0  0.1539497E-004  0.4768436E+03  0.7546771E-02  0.1020006E+00
         21   -1    0    0  502  501  0.00000000000E+00  0.00000000000E+00  0.33838254217E+03  0.33838254217E+03  0.00000000000E+00 0. -1.
         21   -1    0    0  501  502 -0.00000000000E+00 -0.00000000000E+00 -0.16799020658E+03  0.16799020658E+03  0.00000000000E+00 0. -1.
      99925    2    1    2    0    0  0.11985273084E+03  0.29829239752E+02  0.54237234778E+02  0.29567396807E+03  0.26311016158E+03 0.  0.
         25    1    3    3    0    0  0.57135040625E+02 -0.10446172700E+02  0.58944451868E+02  0.14998497224E+03  0.12509000000E+03 0.  0.
         25    1    1    2    0    0 -0.11985273084E+03 -0.29829239752E+02  0.11615510082E+03  0.21069878068E+03  0.12509000000E+03 0.  0.
         25    1    3    3    0    0  0.62717690216E+02  0.40275412452E+02 -0.47072170898E+01  0.14568899583E+03  0.12509000000E+03 0.  0.
<mgrwt>
<rscale>  2 0.47684359E+03</rscale>
<asrwt>0</asrwt>
<pdfrwt beam="1">  1       21 0.49762139E-01 0.47684359E+03</pdfrwt>
<pdfrwt beam="2">  1       21 0.24704442E-01 0.47684359E+03</pdfrwt>
<totfact> 0.54705758E+04</totfact>
</mgrwt>
</event>
<event>
 6    0  0.1539497E-004  0.4898041E+03  0.7546771E-02  0.1016475E+00
         21   -1    0    0  502  501  0.00000000000E+00  0.00000000000E+00  0.25466357679E+03  0.25466357679E+03  0.00000000000E+00 0.  1.
         21   -1    0    0  501  502 -0.00000000000E+00 -0.00000000000E+00 -0.23551468774E+03  0.23551468774E+03  0.00000000000E+00 0.  1.
      99925    2    1    2    0    0 -0.13011827433E+03  0.70654774912E+00  0.71996305309E+02  0.30210481604E+03  0.26296879543E+03 0.  0.
         25    1    3    3    0    0 -0.10660324516E+03  0.12942764798E+02  0.50657037934E+02  0.17246857868E+03  0.12509000000E+03 0.  0.
         25    1    3    3    0    0 -0.23515029165E+02 -0.12236217049E+02  0.21339267375E+02  0.12963623736E+03  0.12509000000E+03 0.  0.
         25    1    1    2    0    0  0.13011827433E+03 -0.70654774912E+00 -0.52847416257E+02  0.18807344850E+03  0.12509000000E+03 0.  0.
<mgrwt>
<rscale>  2 0.48980409E+03</rscale>
<asrwt>0</asrwt>
<pdfrwt beam="1">  1       21 0.37450526E-01 0.48980409E+03</pdfrwt>
<pdfrwt beam="2">  1       21 0.34634513E-01 0.48980409E+03</pdfrwt>
<totfact> 0.50494202E+04</totfact>
</mgrwt>
</event>
<event>
 6    0  0.1539497E-004  0.4477951E+03  0.7546771E-02  0.1028382E+00
         21   -1    0    0  502  501  0.00000000000E+00  0.00000000000E+00  0.17420333525E+03  0.17420333525E+03  0.00000000000E+00 0.  1.
         21   -1    0    0  501  502 -0.00000000000E+00 -0.00000000000E+00 -0.28776776378E+03  0.28776776378E+03  0.00000000000E+00 0.  1.
      99925    2    1    2    0    0  0.22259043099E+02  0.70318516328E+02 -0.15080618776E+03  0.31205573801E+03  0.26305155126E+03 0.  0.
         25    1    3    3    0    0  0.20317770803E+01  0.63703235675E+02 -0.11130901796E+03  0.17916315450E+03  0.12509000000E+03 0.  0.
         25    1    3    3    0    0  0.20227266019E+02  0.66152806536E+01 -0.39497169805E+02  0.13289258351E+03  0.12509000000E+03 0.  0.
         25    1    1    2    0    0 -0.22259043099E+02 -0.70318516328E+02  0.37241759225E+02  0.14991536102E+03  0.12509000000E+03 0.  0.
<mgrwt>
<rscale>  2 0.44779506E+03</rscale>
<asrwt>0</asrwt>
<pdfrwt beam="1">  1       21 0.25618137E-01 0.44779506E+03</pdfrwt>
<pdfrwt beam="2">  1       21 0.42318789E-01 0.44779506E+03</pdfrwt>
<totfact> 0.72069315E+04</totfact>
</mgrwt>
</event>
<event>
 6    0  0.1539497E-004  0.4301805E+03  0.7546771E-02  0.1033803E+00
         21   -1    0    0  502  501  0.00000000000E+00  0.00000000000E+00  0.29257934134E+03  0.29257934134E+03  0.00000000000E+00 0. -1.
         21   -1    0    0  501  502 -0.00000000000E+00 -0.00000000000E+00 -0.15812399859E+03  0.15812399859E+03  0.00000000000E+00 0. -1.
      99925    2    1    2    0    0  0.62971630130E+02 -0.51207471761E+02  0.12155281140E+03  0.30103164995E+03  0.26316788738E+03 0.  0.
         25    1    3    3    0    0  0.67917263257E+02 -0.13234821364E+02  0.79759292775E+02  0.16369779482E+03  0.12509000000E+03 0.  0.
         25    1    1    2    0    0 -0.62971630130E+02  0.51207471761E+02  0.12902531352E+02  0.14967168998E+03  0.12509000000E+03 0.  0.
         25    1    3    3    0    0 -0.49456331274E+01 -0.37972650396E+02  0.41793518625E+02  0.13733385513E+03  0.12509000000E+03 0.  0.
<mgrwt>
<rscale>  2 0.43018050E+03</rscale>
<asrwt>0</asrwt>
<pdfrwt beam="1">  1       21 0.43026374E-01 0.43018050E+03</pdfrwt>
<pdfrwt beam="2">  1       21 0.23253529E-01 0.43018050E+03</pdfrwt>
<totfact> 0.84316666E+04</totfact>
</mgrwt>
</event>
<event>
 6    0  0.1539497E-004  0.4117240E+03  0.7546771E-02  0.1039794E+00
         21   -1    0    0  502  501  0.00000000000E+00  0.00000000000E+00  0.78498313220E+02  0.78498313220E+02  0.00000000000E+00 0.  1.
         21   -1    0    0  501  502 -0.00000000000E+00 -0.00000000000E+00 -0.53987345150E+03  0.53987345150E+03  0.00000000000E+00 0.  1.
      99925    2    1    2    0    0 -0.28657785568E+02 -0.35319248292E+02 -0.23408141938E+03  0.35497347178E+03  0.26295120611E+03 0.  0.
         25    1    3    3    0    0 -0.32797452558E+02  0.18375283691E+02 -0.11120928157E+03  0.17154689257E+03  0.12509000000E+03 0.  0.
         25    1    3    3    0    0  0.41396669905E+01 -0.53694531983E+02 -0.12287213781E+03  0.18342657920E+03  0.12509000000E+03 0.  0.
         25    1    1    2    0    0  0.28657785568E+02  0.35319248292E+02 -0.22729371890E+03  0.26339829294E+03  0.12509000000E+03 0.  0.
<mgrwt>
<rscale>  2 0.41172396E+03</rscale>
<asrwt>0</asrwt>
<pdfrwt beam="1">  1       21 0.11543869E-01 0.41172396E+03</pdfrwt>
<pdfrwt beam="2">  1       21 0.79393156E-01 0.41172396E+03</pdfrwt>
<totfact> 0.82257624E+04</totfact>
</mgrwt>
</event>
<event>
 6    0  0.1539497E-004  0.4518698E+03  0.7546771E-02  0.1027166E+00
         21   -1    0    0  502  501  0.00000000000E+00  0.00000000000E+00  0.61270214164E+02  0.61270214164E+02  0.00000000000E+00 0.  1.
         21   -1    0    0  501  502 -0.00000000000E+00 -0.00000000000E+00 -0.83313854354E+03  0.83313854354E+03  0.00000000000E+00 0.  1.
      99925    2    1    2    0    0 -0.59158136571E+02 -0.52582060681E+02 -0.63888326394E+03  0.69541857213E+03  0.26300305566E+03 0.  0.
         25    1    3    3    0    0 -0.50121388285E+02  0.51703402353E+01 -0.35461134743E+03  0.37938845766E+03  0.12509000000E+03 0.  0.
         25    1    1    2    0    0  0.59158136571E+02  0.52582060681E+02 -0.13298506544E+03  0.19899018558E+03  0.12509000000E+03 0.  0.
         25    1    3    3    0    0 -0.90367482857E+01 -0.57752400916E+02 -0.28427191651E+03  0.31603011446E+03  0.12509000000E+03 0.  0.
<mgrwt>
<rscale>  2 0.45186979E+03</rscale>
<asrwt>0</asrwt>
<pdfrwt beam="1">  1       21 0.90103256E-02 0.45186979E+03</pdfrwt>
<pdfrwt beam="2">  1       21 0.12252037E+00 0.45186979E+03</pdfrwt>
<totfact> 0.44558432E+04</totfact>
</mgrwt>
</event>
<event>
 6    0  0.1539497E-004  0.3956709E+03  0.7546771E-02  0.1045289E+00
         21   -1    0    0  502  501  0.00000000000E+00  0.00000000000E+00  0.95698252393E+03  0.95698252393E+03  0.00000000000E+00 0. -1.
         21   -1    0    0  501  502 -0.00000000000E+00 -0.00000000000E+00 -0.40898201187E+02  0.40898201187E+02  0.00000000000E+00 0. -1.
      99925    2    1    2    0    0  0.74876361493E+01  0.97071875508E+01  0.52933481089E+03  0.59121994854E+03  0.26305016889E+03 0.  0.
         25    1    3    3    0    0  0.14963021317E+01  0.32747448155E+02  0.20041663273E+03  0.23851408565E+03  0.12509000000E+03 0.  0.
         25    1    3    3    0    0  0.59913340177E+01 -0.23040260605E+02  0.32891817816E+03  0.35270586289E+03  0.12509000000E+03 0.  0.
         25    1    1    2    0    0 -0.74876361493E+01 -0.97071875508E+01  0.38674951185E+03  0.40666077658E+03  0.12509000000E+03 0.  0.
<mgrwt>
<rscale>  2 0.39567089E+03</rscale>
<asrwt>0</asrwt>
<pdfrwt beam="1">  1       21 0.14073271E+00 0.39567089E+03</pdfrwt>
<pdfrwt beam="2">  1       21 0.60144419E-02 0.39567089E+03</pdfrwt>
<totfact> 0.64249428E+04</totfact>
</mgrwt>
</event>
<event>
 6    0  0.1539497E-004  0.4149522E+03  0.7546771E-02  0.1038722E+00
         21   -1    0    0  502  501  0.00000000000E+00  0.00000000000E+00  0.69823107983E+02  0.69823107983E+02  0.00000000000E+00 0. -1.
         21   -1    0    0  501  502 -0.00000000000E+00 -0.00000000000E+00 -0.61650541584E+03  0.61650541584E+03  0.00000000000E+00 0. -1.
      99925    2    1    2    0    0  0.50449799710E+02 -0.24750032856E+02 -0.42546767746E+03  0.50330327655E+03  0.26293287585E+03 0.  0.
         25    1    3    3    0    0 -0.55000956202E+01 -0.37923687058E+02 -0.22067536060E+03  0.25654157552E+03  0.12509000000E+03 0.  0.
         25    1    3    3    0    0  0.55949895330E+02  0.13173654202E+02 -0.20479231685E+03  0.24676170103E+03  0.12509000000E+03 0.  0.
         25    1    1    2    0    0 -0.50449799710E+02  0.24750032856E+02 -0.12121463040E+03  0.18302524727E+03  0.12509000000E+03 0.  0.
<mgrwt>
<rscale>  2 0.41495216E+03</rscale>
<asrwt>0</asrwt>
<pdfrwt beam="1">  1       21 0.10268104E-01 0.41495216E+03</pdfrwt>
<pdfrwt beam="2">  1       21 0.90662561E-01 0.41495216E+03</pdfrwt>
<totfact> 0.74508104E+04</totfact>
</mgrwt>
</event>
<event>
 6    0  0.1539497E-004  0.4708776E+03  0.7546771E-02  0.1021673E+00
         21   -1    0    0  502  501  0.00000000000E+00  0.00000000000E+00  0.96147137869E+02  0.96147137869E+02  0.00000000000E+00 0. -1.
         21   -1    0    0  501  502 -0.00000000000E+00 -0.00000000000E+00 -0.57652701342E+03  0.57652701342E+03  0.00000000000E+00 0. -1.
      99925    2    1    2    0    0  0.20608265495E+02  0.10751149905E+03 -0.20464961543E+03  0.35071435957E+03  0.26293663473E+03 0.  0.
         25    1    3    3    0    0 -0.27249026692E+02  0.47160806411E+02 -0.80748278816E+02  0.15853846142E+03  0.12509000000E+03 0.  0.
         25    1    1    2    0    0 -0.20608265495E+02 -0.10751149905E+03 -0.27573026012E+03  0.32195979171E+03  0.12509000000E+03 0.  0.
         25    1    3    3    0    0  0.47857292187E+02  0.60350692640E+02 -0.12390133661E+03  0.19217589816E+03  0.12509000000E+03 0.  0.
<mgrwt>
<rscale>  2 0.47087757E+03</rscale>
<asrwt>0</asrwt>
<pdfrwt beam="1">  1       21 0.14139284E-01 0.47087757E+03</pdfrwt>
<pdfrwt beam="2">  1       21 0.84783387E-01 0.47087757E+03</pdfrwt>
<totfact> 0.48102338E+04</totfact>
</mgrwt>
</event>
<event>
 6    0  0.1539497E-004  0.4241574E+03  0.7546771E-02  0.1035722E+00
         21   -1    0    0  502  501  0.00000000000E+00  0.00000000000E+00  0.47494918554E+03  0.47494918554E+03  0.00000000000E+00 0. -1.
         21   -1    0    0  501  502 -0.00000000000E+00 -0.00000000000E+00 -0.94699325963E+02  0.94699325963E+02  0.00000000000E+00 0. -1.
      99925    2    1    2    0    0 -0.67168206684E+02 -0.39422808561E+02  0.21784694458E+03  0.35035888401E+03  0.26311277149E+03 0.  0.
         25    1    1    2    0    0  0.67168206684E+02  0.39422808561E+02  0.16240291500E+03  0.21928962749E+03  0.12509000000E+03 0.  0.
         25    1    3    3    0    0 -0.28567520420E+01 -0.36373737175E+02  0.13235819729E+03  0.18573478478E+03  0.12509000000E+03 0.  0.
         25    1    3    3    0    0 -0.64311454642E+02 -0.30490713861E+01  0.85488747283E+02  0.16462409923E+03  0.12509000000E+03 0.  0.
<mgrwt>
<rscale>  2 0.42415737E+03</rscale>
<asrwt>0</asrwt>
<pdfrwt beam="1">  1       21 0.69845467E-01 0.42415737E+03</pdfrwt>
<pdfrwt beam="2">  1       21 0.13926372E-01 0.42415737E+03</pdfrwt>
<totfact> 0.77921372E+04</totfact>
</mgrwt>
</event>
<event>
 6    0  0.1539497E-004  0.4923085E+03  0.7546771E-02  0.1015806E+00
         21   -1    0    0  502  501  0.00000000000E+00  0.00000000000E+00  0.45650755595E+03  0.45650755595E+03  0.00000000000E+00 0. -1.
         21   -1    0    0  501  502 -0.00000000000E+00 -0.00000000000E+00 -0.13272925681E+03  0.13272925681E+03  0.00000000000E+00 0. -1.
      99925    2    1    2    0    0  0.13766616664E+03 -0.43595410609E+02  0.21887232847E+03  0.37127969762E+03  0.26285163957E+03 0.  0.
         25    1    1    2    0    0 -0.13766616664E+03  0.43595410609E+02  0.10490597066E+03  0.21795711515E+03  0.12509000000E+03 0.  0.
         25    1    3    3    0    0  0.41054855085E+02 -0.51025172703E+02  0.11371051774E+03  0.18129164162E+03  0.12509000000E+03 0.  0.
         25    1    3    3    0    0  0.96611311558E+02  0.74297620940E+01  0.10516181073E+03  0.18998805600E+03  0.12509000000E+03 0.  0.
<mgrwt>
<rscale>  2 0.49230847E+03</rscale>
<asrwt>0</asrwt>
<pdfrwt beam="1">  1       21 0.67133463E-01 0.49230847E+03</pdfrwt>
<pdfrwt beam="2">  1       21 0.19519009E-01 0.49230847E+03</pdfrwt>
<totfact> 0.44644377E+04</totfact>
</mgrwt>
</event>
<event>
 6    0  0.1539497E-004  0.4187014E+03  0.7546771E-02  0.1037490E+00
         21   -1    0    0  502  501  0.00000000000E+00  0.00000000000E+00  0.18184802775E+03  0.18184802775E+03  0.00000000000E+00 0. -1.
         21   -1    0    0  501  502 -0.00000000000E+00 -0.00000000000E+00 -0.24101290968E+03  0.24101290968E+03  0.00000000000E+00 0. -1.
      99925    2    1    2    0    0 -0.21594394396E+02 -0.25828556562E+02 -0.10501415680E+03  0.28544515846E+03  0.26328223099E+03 0.  0.
         25    1    1    2    0    0  0.21594394396E+02  0.25828556562E+02  0.45849274865E+02  0.13741577897E+03  0.12509000000E+03 0.  0.
         25    1    3    3    0    0  0.71574190725E+01 -0.49622964495E+02 -0.57702496180E+02  0.14659724901E+03  0.12509000000E+03 0.  0.
         25    1    3    3    0    0 -0.28751813469E+02  0.23794407933E+02 -0.47311660617E+02  0.13884790944E+03  0.12509000000E+03 0.  0.
<mgrwt>
<rscale>  2 0.41870143E+03</rscale>
<asrwt>0</asrwt>
<pdfrwt beam="1">  1       21 0.26742357E-01 0.41870143E+03</pdfrwt>
<pdfrwt beam="2">  1       21 0.35443075E-01 0.41870143E+03</pdfrwt>
<totfact> 0.95860478E+04</totfact>
</mgrwt>
</event>
<event>
 6    0  0.1539497E-004  0.4741230E+03  0.7546771E-02  0.1020763E+00
         21   -1    0    0  502  501  0.00000000000E+00  0.00000000000E+00  0.82734050151E+03  0.82734050151E+03  0.00000000000E+00 0. -1.
         21   -1    0    0  501  502 -0.00000000000E+00 -0.00000000000E+00 -0.67926271659E+02  0.67926271659E+02  0.00000000000E+00 0. -1.
      99925    2    1    2    0    0  0.90771971219E+02  0.65304982464E+02  0.59645501772E+03  0.66137041917E+03  0.26295998118E+03 0.  0.
         25    1    3    3    0    0  0.35059296534E+02  0.71687255814E+02  0.29519155329E+03  0.33038428860E+03  0.12509000000E+03 0.  0.
         25    1    1    2    0    0 -0.90771971219E+02 -0.65304982464E+02  0.16295921213E+03  0.23389635400E+03  0.12509000000E+03 0.  0.
         25    1    3    3    0    0  0.55712674685E+02 -0.63822733502E+01  0.30126346443E+03  0.33098613058E+03  0.12509000000E+03 0.  0.
<mgrwt>
<rscale>  2 0.47412300E+03</rscale>
<asrwt>0</asrwt>
<pdfrwt beam="1">  1       21 0.12166771E+00 0.47412300E+03</pdfrwt>
<pdfrwt beam="2">  1       21 0.99891581E-02 0.47412300E+03</pdfrwt>
<totfact> 0.37500406E+04</totfact>
</mgrwt>
</event>
<event>
 6    0  0.1539497E-004  0.4208143E+03  0.7546771E-02  0.1036802E+00
         21   -1    0    0  502  501  0.00000000000E+00  0.00000000000E+00  0.17340971744E+03  0.17340971744E+03  0.00000000000E+00 0. -1.
         21   -1    0    0  501  502 -0.00000000000E+00 -0.00000000000E+00 -0.25529802966E+03  0.25529802966E+03  0.00000000000E+00 0. -1.
      99925    2    1    2    0    0 -0.37146306528E+02 -0.42337598141E+01 -0.12209759881E+03  0.29209856864E+03  0.26270892135E+03 0.  0.
         25    1    1    2    0    0  0.37146306528E+02  0.42337598141E+01  0.40209286582E+02  0.13660917846E+03  0.12509000000E+03 0.  0.
         25    1    3    3    0    0 -0.54596726329E+02 -0.19835169296E+02 -0.58195810359E+02  0.14969467896E+03  0.12509000000E+03 0.  0.
         25    1    3    3    0    0  0.17450419801E+02  0.15601409482E+02 -0.63901788450E+02  0.14240388968E+03  0.12509000000E+03 0.  0.
<mgrwt>
<rscale>  2 0.42081425E+03</rscale>
<asrwt>0</asrwt>
<pdfrwt beam="1">  1       21 0.25501429E-01 0.42081425E+03</pdfrwt>
<pdfrwt beam="2">  1       21 0.37543828E-01 0.42081425E+03</pdfrwt>
<totfact> 0.93527533E+04</totfact>
</mgrwt>
</event>
<event>
 6    0  0.1539497E-004  0.4201437E+03  0.7546771E-02  0.1037020E+00
         21   -1    0    0  502  501  0.00000000000E+00  0.00000000000E+00  0.42315655045E+03  0.42315655045E+03  0.00000000000E+00 0. -1.
         21   -1    0    0  501  502 -0.00000000000E+00 -0.00000000000E+00 -0.10428806255E+03  0.10428806255E+03  0.00000000000E+00 0. -1.
      99925    2    1    2    0    0  0.56224305159E+01  0.75584995837E+02  0.21521201414E+03  0.34817700307E+03  0.26299488800E+03 0.  0.
         25    1    1    2    0    0 -0.56224305159E+01 -0.75584995837E+02  0.10365647376E+03  0.17926760994E+03  0.12509000000E+03 0.  0.
         25    1    3    3    0    0 -0.20703386277E+02  0.71949532389E+02  0.11193602463E+03  0.18380029141E+03  0.12509000000E+03 0.  0.
         25    1    3    3    0    0  0.26325816793E+02  0.36354634477E+01  0.10327598952E+03  0.16437671166E+03  0.12509000000E+03 0.  0.
<mgrwt>
<rscale>  2 0.42014367E+03</rscale>
<asrwt>0</asrwt>
<pdfrwt beam="1">  1       21 0.62228904E-01 0.42014367E+03</pdfrwt>
<pdfrwt beam="2">  1       21 0.15336480E-01 0.42014367E+03</pdfrwt>
<totfact> 0.84359903E+04</totfact>
</mgrwt>
</event>
<event>
 6    0  0.1539497E-004  0.4183857E+03  0.7546771E-02  0.1037593E+00
         21   -1    0    0  502  501  0.00000000000E+00  0.00000000000E+00  0.11318160688E+03  0.11318160688E+03  0.00000000000E+00 0.  1.
         21   -1    0    0  501  502 -0.00000000000E+00 -0.00000000000E+00 -0.38664984003E+03  0.38664984003E+03  0.00000000000E+00 0.  1.
      99925    2    1    2    0    0 -0.64023332755E+02 -0.24631759528E+02 -0.14586823603E+03  0.30842878736E+03  0.26295449012E+03 0.  0.
         25    1    3    3    0    0 -0.72994718211E+02 -0.19745042385E+02 -0.82179589222E+02  0.16768747291E+03  0.12509000000E+03 0.  0.
         25    1    1    2    0    0  0.64023332755E+02  0.24631759528E+02 -0.12759999712E+03  0.19140265954E+03  0.12509000000E+03 0.  0.
         25    1    3    3    0    0  0.89713854563E+01 -0.48867171435E+01 -0.63688646808E+02  0.14074131445E+03  0.12509000000E+03 0.  0.
<mgrwt>
<rscale>  2 0.41838571E+03</rscale>
<asrwt>0</asrwt>
<pdfrwt beam="1">  1       21 0.16644354E-01 0.41838571E+03</pdfrwt>
<pdfrwt beam="2">  1       21 0.56860271E-01 0.41838571E+03</pdfrwt>
<totfact> 0.88253943E+04</totfact>
</mgrwt>
</event>
<event>
 6    0  0.1539497E-004  0.3935579E+03  0.7546771E-02  0.1046033E+00
         21   -1    0    0  502  501  0.00000000000E+00  0.00000000000E+00  0.80389491152E+02  0.80389491152E+02  0.00000000000E+00 0. -1.
         21   -1    0    0  501  502 -0.00000000000E+00 -0.00000000000E+00 -0.48167933331E+03  0.48167933331E+03  0.00000000000E+00 0. -1.
      99925    2    1    2    0    0  0.26499048109E+02 -0.12917580412E+02 -0.25952223354E+03  0.37071933691E+03  0.26308168621E+03 0.  0.
         25    1    1    2    0    0 -0.26499048109E+02  0.12917580412E+02 -0.14176760862E+03  0.19134948755E+03  0.12509000000E+03 0.  0.
         25    1    3    3    0    0 -0.21677330427E+02  0.14595087291E+02 -0.12031717774E+03  0.17551824574E+03  0.12509000000E+03 0.  0.
         25    1    3    3    0    0  0.48176378536E+02 -0.27512667703E+02 -0.13920505580E+03  0.19520109117E+03  0.12509000000E+03 0.  0.
<mgrwt>
<rscale>  2 0.39355791E+03</rscale>
<asrwt>0</asrwt>
<pdfrwt beam="1">  1       21 0.11821984E-01 0.39355791E+03</pdfrwt>
<pdfrwt beam="2">  1       21 0.70835196E-01 0.39355791E+03</pdfrwt>
<totfact> 0.10252590E+05</totfact>
</mgrwt>
</event>
<event>
 6    0  0.1539497E-004  0.3909544E+03  0.7546771E-02  0.1046958E+00
         21   -1    0    0  502  501  0.00000000000E+00  0.00000000000E+00  0.14319962128E+03  0.14319962128E+03  0.00000000000E+00 0.  1.
         21   -1    0    0  501  502 -0.00000000000E+00 -0.00000000000E+00 -0.26683970334E+03  0.26683970334E+03  0.00000000000E+00 0.  1.
      99925    2    1    2    0    0  0.18191657258E+02  0.15234011394E+02 -0.89435323437E+02  0.27820425680E+03  0.26236600375E+03 0.  0.
         25    1    3    3    0    0  0.26455523473E+02  0.29384948169E+02 -0.15826112791E+02  0.13214137826E+03  0.12509000000E+03 0.  0.
         25    1    3    3    0    0 -0.82638662145E+01 -0.14150936775E+02 -0.73609210646E+02  0.14606287854E+03  0.12509000000E+03 0.  0.
         25    1    1    2    0    0 -0.18191657258E+02 -0.15234011394E+02 -0.34204758622E+02  0.13183506783E+03  0.12509000000E+03 0.  0.
<mgrwt>
<rscale>  2 0.39095444E+03</rscale>
<asrwt>0</asrwt>
<pdfrwt beam="1">  1       21 0.21058768E-01 0.39095444E+03</pdfrwt>
<pdfrwt beam="2">  1       21 0.39241132E-01 0.39095444E+03</pdfrwt>
<totfact> 0.12430268E+05</totfact>
</mgrwt>
</event>
<event>
 6    0  0.1539497E-004  0.4022608E+03  0.7546771E-02  0.1043000E+00
         21   -1    0    0  502  501  0.00000000000E+00  0.00000000000E+00  0.70160530799E+02  0.70160530799E+02  0.00000000000E+00 0.  1.
         21   -1    0    0  501  502 -0.00000000000E+00 -0.00000000000E+00 -0.57658392367E+03  0.57658392367E+03  0.00000000000E+00 0.  1.
      99925    2    1    2    0    0  0.32517112024E+02  0.25021694549E+02 -0.38189490375E+03  0.46553104306E+03  0.26304369745E+03 0.  0.
         25    1    1    2    0    0 -0.32517112024E+02 -0.25021694549E+02 -0.12452848912E+03  0.18121341141E+03  0.12509000000E+03 0.  0.
         25    1    3    3    0    0  0.10412188231E+02  0.24554592632E+02 -0.12447032314E+03  0.17847047691E+03  0.12509000000E+03 0.  0.
         25    1    3    3    0    0  0.22104923793E+02  0.46710191651E+00 -0.25742458061E+03  0.28706056616E+03  0.12509000000E+03 0.  0.
<mgrwt>
<rscale>  2 0.40226078E+03</rscale>
<asrwt>0</asrwt>
<pdfrwt beam="1">  1       21 0.10317725E-01 0.40226078E+03</pdfrwt>
<pdfrwt beam="2">  1       21 0.84791754E-01 0.40226078E+03</pdfrwt>
<totfact> 0.86693222E+04</totfact>
</mgrwt>
</event>
<event>
 6    0  0.1539497E-004  0.4343826E+03  0.7546771E-02  0.1032484E+00
         21   -1    0    0  502  501  0.00000000000E+00  0.00000000000E+00  0.99505484976E+02  0.99505484976E+02  0.00000000000E+00 0.  1.
         21   -1    0    0  501  502 -0.00000000000E+00 -0.00000000000E+00 -0.47406486550E+03  0.47406486550E+03  0.00000000000E+00 0.  1.
      99925    2    1    2    0    0 -0.16611519775E+02 -0.77686882961E+02 -0.30276268729E+03  0.40890867420E+03  0.26311568682E+03 0.  0.
         25    1    1    2    0    0  0.16611519775E+02  0.77686882961E+02 -0.71796693234E+02  0.16466167627E+03  0.12509000000E+03 0.  0.
         25    1    3    3    0    0 -0.24081673347E+02 -0.33039632466E+02 -0.20584990864E+03  0.24432199510E+03  0.12509000000E+03 0.  0.
         25    1    3    3    0    0  0.74701535720E+01 -0.44647250494E+02 -0.96912778646E+02  0.16458667910E+03  0.12509000000E+03 0.  0.
<mgrwt>
<rscale>  2 0.43438257E+03</rscale>
<asrwt>0</asrwt>
<pdfrwt beam="1">  1       21 0.14633160E-01 0.43438257E+03</pdfrwt>
<pdfrwt beam="2">  1       21 0.69715421E-01 0.43438257E+03</pdfrwt>
<totfact> 0.71260595E+04</totfact>
</mgrwt>
</event>
<event>
 6    0  0.1539497E-004  0.4318395E+03  0.7546771E-02  0.1033280E+00
         21   -1    0    0  502  501  0.00000000000E+00  0.00000000000E+00  0.24029971071E+03  0.24029971071E+03  0.00000000000E+00 0. -1.
         21   -1    0    0  501  502 -0.00000000000E+00 -0.00000000000E+00 -0.19401326983E+03  0.19401326983E+03  0.00000000000E+00 0. -1.
      99925    2    1    2    0    0  0.50379742065E+02 -0.21218238272E+02 -0.41750293816E+02  0.27187435582E+03  0.26302898372E+03 0.  0.
         25    1    3    3    0    0  0.68056578666E+01  0.20357072154E+00 -0.55440710659E+02  0.13699466748E+03  0.12509000000E+03 0.  0.
         25    1    1    2    0    0 -0.50379742065E+02  0.21218238272E+02  0.88036734692E+02  0.16243862472E+03  0.12509000000E+03 0.  0.
         25    1    3    3    0    0  0.43574084198E+02 -0.21421808994E+02  0.13690416843E+02  0.13487968834E+03  0.12509000000E+03 0.  0.
<mgrwt>
<rscale>  2 0.43183947E+03</rscale>
<asrwt>0</asrwt>
<pdfrwt beam="1">  1       21 0.35338193E-01 0.43183947E+03</pdfrwt>
<pdfrwt beam="2">  1       21 0.28531363E-01 0.43183947E+03</pdfrwt>
<totfact> 0.84688977E+04</totfact>
</mgrwt>
</event>
<event>
 6    0  0.1539497E-004  0.4154539E+03  0.7546771E-02  0.1038556E+00
         21   -1    0    0  502  501  0.00000000000E+00  0.00000000000E+00  0.81476087563E+03  0.81476087563E+03  0.00000000000E+00 0.  1.
         21   -1    0    0  501  502 -0.00000000000E+00 -0.00000000000E+00 -0.52960915667E+02  0.52960915667E+02  0.00000000000E+00 0.  1.
      99925    2    1    2    0    0 -0.10130044702E+02  0.67138039574E+02  0.53573639291E+03  0.60058441351E+03  0.26282697901E+03 0.  0.
         25    1    1    2    0    0  0.10130044702E+02 -0.67138039574E+02  0.22606356705E+03  0.26713737779E+03  0.12509000000E+03 0.  0.
         25    1    3    3    0    0  0.26500839662E+02  0.40718575100E+02  0.21598835359E+03  0.25428089556E+03  0.12509000000E+03 0.  0.
         25    1    3    3    0    0 -0.36630884363E+02  0.26419464474E+02  0.31974803932E+03  0.34630351795E+03  0.12509000000E+03 0.  0.
<mgrwt>
<rscale>  2 0.41545388E+03</rscale>
<asrwt>0</asrwt>
<pdfrwt beam="1">  1       21 0.11981777E+00 0.41545388E+03</pdfrwt>
<pdfrwt beam="2">  1       21 0.77883704E-02 0.41545388E+03</pdfrwt>
<totfact> 0.61644729E+04</totfact>
</mgrwt>
</event>
<event>
 6    0  0.1539497E-004  0.4659079E+03  0.7546771E-02  0.1023082E+00
         21   -1    0    0  502  501  0.00000000000E+00  0.00000000000E+00  0.80798577593E+03  0.80798577593E+03  0.00000000000E+00 0. -1.
         21   -1    0    0  501  502 -0.00000000000E+00 -0.00000000000E+00 -0.67163977360E+02  0.67163977360E+02  0.00000000000E+00 0. -1.
      99925    2    1    2    0    0  0.43721483718E+02  0.12805481998E+02  0.24663337113E+03  0.36334387366E+03  0.26289770304E+03 0.  0.
         25    1    3    3    0    0  0.20924512498E+02 -0.18097540894E+02  0.78342915571E+02  0.15016816151E+03  0.12509000000E+03 0.  0.
         25    1    1    2    0    0 -0.43721483718E+02 -0.12805481998E+02  0.49418842743E+03  0.51180587962E+03  0.12509000000E+03 0.  0.
         25    1    3    3    0    0  0.22796971220E+02  0.30903022892E+02  0.16829045556E+03  0.21317571216E+03  0.12509000000E+03 0.  0.
<mgrwt>
<rscale>  2 0.46590788E+03</rscale>
<asrwt>0</asrwt>
<pdfrwt beam="1">  1       21 0.11882143E+00 0.46590788E+03</pdfrwt>
<pdfrwt beam="2">  1       21 0.98770560E-02 0.46590788E+03</pdfrwt>
<totfact> 0.40732407E+04</totfact>
</mgrwt>
</event>
<event>
 6    0  0.1539497E-004  0.4002611E+03  0.7546771E-02  0.1043689E+00
         21   -1    0    0  502  501  0.00000000000E+00  0.00000000000E+00  0.53005113919E+03  0.53005113919E+03  0.00000000000E+00 0. -1.
         21   -1    0    0  501  502 -0.00000000000E+00 -0.00000000000E+00 -0.75562967505E+02  0.75562967505E+02  0.00000000000E+00 0. -1.
      99925    2    1    2    0    0  0.57047207344E+01 -0.29214085797E+01  0.37223533034E+03  0.45576712983E+03  0.26291340212E+03 0.  0.
         25    1    3    3    0    0  0.29585210560E+02  0.28517431362E+02  0.17870072003E+03  0.22196843022E+03  0.12509000000E+03 0.  0.
         25    1    1    2    0    0 -0.57047207344E+01  0.29214085797E+01  0.82252841350E+02  0.14984697687E+03  0.12509000000E+03 0.  0.
         25    1    3    3    0    0 -0.23880489825E+02 -0.31438839942E+02  0.19353461031E+03  0.23379869961E+03  0.12509000000E+03 0.  0.
<mgrwt>
<rscale>  2 0.40026110E+03</rscale>
<asrwt>0</asrwt>
<pdfrwt beam="1">  1       21 0.77948695E-01 0.40026110E+03</pdfrwt>
<pdfrwt beam="2">  1       21 0.11112201E-01 0.40026110E+03</pdfrwt>
<totfact> 0.92162528E+04</totfact>
</mgrwt>
</event>
<event>
 6    0  0.1539497E-004  0.4519603E+03  0.7546771E-02  0.1027139E+00
         21   -1    0    0  502  501  0.00000000000E+00  0.00000000000E+00  0.92810382847E+02  0.92810382847E+02  0.00000000000E+00 0. -1.
         21   -1    0    0  501  502 -0.00000000000E+00 -0.00000000000E+00 -0.55022968577E+03  0.55022968577E+03  0.00000000000E+00 0. -1.
      99925    2    1    2    0    0  0.51356148383E+02 -0.34442118444E+02 -0.41846199133E+03  0.49816462651E+03  0.26312324758E+03 0.  0.
         25    1    1    2    0    0 -0.51356148383E+02  0.34442118444E+02 -0.38957311595E+02  0.14487544211E+03  0.12509000000E+03 0.  0.
         25    1    3    3    0    0  0.65183736112E+02 -0.26323313940E+02 -0.20492118408E+03  0.25016401839E+03  0.12509000000E+03 0.  0.
         25    1    3    3    0    0 -0.13827587729E+02 -0.81188045046E+01 -0.21354080725E+03  0.24800060812E+03  0.12509000000E+03 0.  0.
<mgrwt>
<rscale>  2 0.45196030E+03</rscale>
<asrwt>0</asrwt>
<pdfrwt beam="1">  1       21 0.13648586E-01 0.45196030E+03</pdfrwt>
<pdfrwt beam="2">  1       21 0.80916128E-01 0.45196030E+03</pdfrwt>
<totfact> 0.57470309E+04</totfact>
</mgrwt>
</event>
<event>
 6    0  0.1539497E-004  0.4025682E+03  0.7546771E-02  0.1042894E+00
         21   -1    0    0  502  501  0.00000000000E+00  0.00000000000E+00  0.27576950614E+03  0.27576950614E+03  0.00000000000E+00 0.  1.
         21   -1    0    0  501  502 -0.00000000000E+00 -0.00000000000E+00 -0.14691719911E+03  0.14691719911E+03  0.00000000000E+00 0.  1.
      99925    2    1    2    0    0  0.13686951658E+02 -0.47756072216E+02  0.77400983217E+02  0.27859395074E+03  0.26297471762E+03 0.  0.
         25    1    3    3    0    0 -0.22384057210E+02 -0.19012111263E+02  0.91483240962E+01  0.12881656076E+03  0.12509000000E+03 0.  0.
         25    1    1    2    0    0 -0.13686951658E+02  0.47756072216E+02  0.51451323816E+02  0.14409275451E+03  0.12509000000E+03 0.  0.
         25    1    3    3    0    0  0.36071008868E+02 -0.28743960953E+02  0.68252659121E+02  0.14977738998E+03  0.12509000000E+03 0.  0.
<mgrwt>
<rscale>  2 0.40256817E+03</rscale>
<asrwt>0</asrwt>
<pdfrwt beam="1">  1       21 0.40554339E-01 0.40256817E+03</pdfrwt>
<pdfrwt beam="2">  1       21 0.21605471E-01 0.40256817E+03</pdfrwt>
<totfact> 0.11036794E+05</totfact>
</mgrwt>
</event>
<event>
 6    0  0.1539497E-004  0.4508422E+03  0.7546771E-02  0.1027471E+00
         21   -1    0    0  502  501  0.00000000000E+00  0.00000000000E+00  0.20156281408E+02  0.20156281408E+02  0.00000000000E+00 0.  1.
         21   -1    0    0  501  502 -0.00000000000E+00 -0.00000000000E+00 -0.25210346104E+04  0.25210346104E+04  0.00000000000E+00 0.  1.
      99925    2    1    2    0    0 -0.76111995389E+02  0.78174033423E+02 -0.16047323248E+04  0.16298021799E+04  0.26303059871E+03 0.  0.
         25    1    3    3    0    0 -0.31463938704E+02  0.79900389517E+02 -0.82489584305E+03  0.83873399339E+03  0.12509000000E+03 0.  0.
         25    1    3    3    0    0 -0.44648056685E+02 -0.17263560940E+01 -0.77983648178E+03  0.79106818650E+03  0.12509000000E+03 0.  0.
         25    1    1    2    0    0  0.76111995389E+02 -0.78174033423E+02 -0.89614600411E+03  0.91138871187E+03  0.12509000000E+03 0.  0.
<mgrwt>
<rscale>  2 0.45084225E+03</rscale>
<asrwt>0</asrwt>
<pdfrwt beam="1">  1       21 0.29641592E-02 0.45084225E+03</pdfrwt>
<pdfrwt beam="2">  1       21 0.37074036E+00 0.45084225E+03</pdfrwt>
<totfact> 0.69411768E+03</totfact>
</mgrwt>
</event>
<event>
 6    0  0.1539497E-004  0.4278674E+03  0.7546771E-02  0.1034536E+00
         21   -1    0    0  502  501  0.00000000000E+00  0.00000000000E+00  0.28986411837E+02  0.28986411837E+02  0.00000000000E+00 0. -1.
         21   -1    0    0  501  502 -0.00000000000E+00 -0.00000000000E+00 -0.15789337733E+04  0.15789337733E+04  0.00000000000E+00 0. -1.
      99925    2    1    2    0    0  0.13242663466E+02  0.74667840554E+02 -0.85535544294E+03  0.89809196935E+03  0.26303155153E+03 0.  0.
         25    1    3    3    0    0  0.23205844813E+02  0.33877477193E+02 -0.30616486790E+03  0.33327260483E+03  0.12509000000E+03 0.  0.
         25    1    1    2    0    0 -0.13242663466E+02 -0.74667840554E+02 -0.69459191856E+03  0.70982821582E+03  0.12509000000E+03 0.  0.
         25    1    3    3    0    0 -0.99631813476E+01  0.40790363361E+02 -0.54919057504E+03  0.56481936452E+03  0.12509000000E+03 0.  0.
<mgrwt>
<rscale>  2 0.42786738E+03</rscale>
<asrwt>0</asrwt>
<pdfrwt beam="1">  1       21 0.42627075E-02 0.42786738E+03</pdfrwt>
<pdfrwt beam="2">  1       21 0.23219615E+00 0.42786738E+03</pdfrwt>
<totfact> 0.26388675E+04</totfact>
</mgrwt>
</event>
<event>
 6    0  0.1539497E-004  0.3939458E+03  0.7546771E-02  0.1045896E+00
         21   -1    0    0  502  501  0.00000000000E+00  0.00000000000E+00  0.14867295046E+03  0.14867295046E+03  0.00000000000E+00 0. -1.
         21   -1    0    0  501  502 -0.00000000000E+00 -0.00000000000E+00 -0.26096427537E+03  0.26096427537E+03  0.00000000000E+00 0. -1.
      99925    2    1    2    0    0 -0.14543376394E+02 -0.10490375821E+02 -0.48429106361E+02  0.26804821199E+03  0.26302643941E+03 0.  0.
         25    1    3    3    0    0  0.12379357348E+01  0.22608544669E+02  0.48770561589E+01  0.12721624328E+03  0.12509000000E+03 0.  0.
         25    1    1    2    0    0  0.14543376394E+02  0.10490375821E+02 -0.63862218551E+02  0.14158901384E+03  0.12509000000E+03 0.  0.
         25    1    3    3    0    0 -0.15781312128E+02 -0.33098920490E+02 -0.53306162520E+02  0.14083196872E+03  0.12509000000E+03 0.  0.
<mgrwt>
<rscale>  2 0.39394583E+03</rscale>
<asrwt>0</asrwt>
<pdfrwt beam="1">  1       21 0.21863669E-01 0.39394583E+03</pdfrwt>
<pdfrwt beam="2">  1       21 0.38377099E-01 0.39394583E+03</pdfrwt>
<totfact> 0.12102121E+05</totfact>
</mgrwt>
</event>
<event>
 6    0  0.1539497E-004  0.3958838E+03  0.7546771E-02  0.1045214E+00
         21   -1    0    0  502  501  0.00000000000E+00  0.00000000000E+00  0.20167893754E+03  0.20167893754E+03  0.00000000000E+00 0.  1.
         21   -1    0    0  501  502 -0.00000000000E+00 -0.00000000000E+00 -0.19427407863E+03  0.19427407863E+03  0.00000000000E+00 0.  1.
      99925    2    1    2    0    0 -0.93870947540E+01  0.28715912409E+02  0.25697872161E+02  0.26597277303E+03  0.26299888628E+03 0.  0.
         25    1    1    2    0    0  0.93870947540E+01 -0.28715912409E+02 -0.18293013257E+02  0.12998024314E+03  0.12509000000E+03 0.  0.
         25    1    3    3    0    0  0.98232980591E+01  0.52243508688E+02  0.97960975597E+01  0.13626941334E+03  0.12509000000E+03 0.  0.
         25    1    3    3    0    0 -0.19210392813E+02 -0.23527596279E+02  0.15901774602E+02  0.12970335969E+03  0.12509000000E+03 0.  0.
<mgrwt>
<rscale>  2 0.39588377E+03</rscale>
<asrwt>0</asrwt>
<pdfrwt beam="1">  1       21 0.29658667E-01 0.39588377E+03</pdfrwt>
<pdfrwt beam="2">  1       21 0.28569718E-01 0.39588377E+03</pdfrwt>
<totfact> 0.12079967E+05</totfact>
</mgrwt>
</event>
<event>
 6    0  0.1539497E-004  0.4067085E+03  0.7546771E-02  0.1041481E+00
         21   -1    0    0  502  501  0.00000000000E+00  0.00000000000E+00  0.42240837700E+02  0.42240837700E+02  0.00000000000E+00 0.  1.
         21   -1    0    0  501  502 -0.00000000000E+00 -0.00000000000E+00 -0.97898013407E+03  0.97898013407E+03  0.00000000000E+00 0.  1.
      99925    2    1    2    0    0 -0.33236880156E+02 -0.28897745909E+02 -0.71031785110E+03  0.75882061183E+03  0.26328217072E+03 0.  0.
         25    1    3    3    0    0 -0.38592975351E+02 -0.17524258631E+02 -0.26489601136E+03  0.29599649039E+03  0.12509000000E+03 0.  0.
         25    1    1    2    0    0  0.33236880156E+02  0.28897745909E+02 -0.22642144527E+03  0.26240035995E+03  0.12509000000E+03 0.  0.
         25    1    3    3    0    0  0.53560951949E+01 -0.11373487279E+02 -0.44542183974E+03  0.46282412144E+03  0.12509000000E+03 0.  0.
<mgrwt>
<rscale>  2 0.40670845E+03</rscale>
<asrwt>0</asrwt>
<pdfrwt beam="1">  1       21 0.62118883E-02 0.40670845E+03</pdfrwt>
<pdfrwt beam="2">  1       21 0.14396766E+00 0.40670845E+03</pdfrwt>
<totfact> 0.56997010E+04</totfact>
</mgrwt>
</event>
<event>
 6    0  0.1539497E-004  0.5068722E+03  0.7546771E-02  0.1012001E+00
         21   -1    0    0  502  501  0.00000000000E+00  0.00000000000E+00  0.10095022168E+03  0.10095022168E+03  0.00000000000E+00 0. -1.
         21   -1    0    0  501  502 -0.00000000000E+00 -0.00000000000E+00 -0.63625263793E+03  0.63625263793E+03  0.00000000000E+00 0. -1.
      99925    2    1    2    0    0 -0.10676665404E+03 -0.10908805271E+03 -0.37543365071E+03  0.48322480552E+03  0.26316623060E+03 0.  0.
         25    1    1    2    0    0  0.10676665404E+03  0.10908805271E+03 -0.15986876555E+03  0.25397805408E+03  0.12509000000E+03 0.  0.
         25    1    3    3    0    0 -0.45685156170E+02 -0.51131132330E+02 -0.11911842027E+03  0.18584464570E+03  0.12509000000E+03 0.  0.
         25    1    3    3    0    0 -0.61081497867E+02 -0.57956920384E+02 -0.25631523043E+03  0.29738015982E+03  0.12509000000E+03 0.  0.
<mgrwt>
<rscale>  2 0.50687215E+03</rscale>
<asrwt>0</asrwt>
<pdfrwt beam="1">  1       21 0.14845621E-01 0.50687215E+03</pdfrwt>
<pdfrwt beam="2">  1       21 0.93566564E-01 0.50687215E+03</pdfrwt>
<totfact> 0.34529235E+04</totfact>
</mgrwt>
</event>
<event>
 6    0  0.1539497E-004  0.4648235E+03  0.7546771E-02  0.1023391E+00
         21   -1    0    0  502  501  0.00000000000E+00  0.00000000000E+00  0.21146518763E+02  0.21146518763E+02  0.00000000000E+00 0.  1.
         21   -1    0    0  501  502 -0.00000000000E+00 -0.00000000000E+00 -0.25543317674E+04  0.25543317674E+04  0.00000000000E+00 0.  1.
      99925    2    1    2    0    0 -0.32958459570E+02  0.52659915366E+02 -0.21631385179E+04  0.21799515263E+04  0.26298494752E+03 0.  0.
         25    1    3    3    0    0 -0.30987923430E+02  0.22849281263E+02 -0.13944447660E+04  0.14005734735E+04  0.12509000000E+03 0.  0.
         25    1    3    3    0    0 -0.19705361395E+01  0.29810634103E+02 -0.76869375186E+03  0.77937805278E+03  0.12509000000E+03 0.  0.
         25    1    1    2    0    0  0.32958459570E+02 -0.52659915366E+02 -0.37004673073E+03  0.39552675987E+03  0.12509000000E+03 0.  0.
<mgrwt>
<rscale>  2 0.46482351E+03</rscale>
<asrwt>0</asrwt>
<pdfrwt beam="1">  1       21 0.31097819E-02 0.46482351E+03</pdfrwt>
<pdfrwt beam="2">  1       21 0.37563706E+00 0.46482351E+03</pdfrwt>
<totfact> 0.59244545E+03</totfact>
</mgrwt>
</event>
<event>
 6    0  0.1539497E-004  0.4549941E+03  0.7546771E-02  0.1026243E+00
         21   -1    0    0  502  501  0.00000000000E+00  0.00000000000E+00  0.13462081519E+04  0.13462081519E+04  0.00000000000E+00 0. -1.
         21   -1    0    0  501  502 -0.00000000000E+00 -0.00000000000E+00 -0.38444950016E+02  0.38444950016E+02  0.00000000000E+00 0. -1.
      99925    2    1    2    0    0  0.25904372046E+02 -0.10768690475E+03  0.89379687840E+03  0.93824170979E+03  0.26297745188E+03 0.  0.
         25    1    3    3    0    0  0.25229008787E+02 -0.95597794597E+02  0.51843174270E+03  0.54239692214E+03  0.12509000000E+03 0.  0.
         25    1    3    3    0    0  0.67536325886E+00 -0.12089110154E+02  0.37536513571E+03  0.39584478764E+03  0.12509000000E+03 0.  0.
         25    1    1    2    0    0 -0.25904372046E+02  0.10768690475E+03  0.41396632346E+03  0.44641139211E+03  0.12509000000E+03 0.  0.
<mgrwt>
<rscale>  2 0.45499409E+03</rscale>
<asrwt>0</asrwt>
<pdfrwt beam="1">  1       21 0.19797176E+00 0.45499409E+03</pdfrwt>
<pdfrwt beam="2">  1       21 0.56536700E-02 0.45499409E+03</pdfrwt>
<totfact> 0.26745090E+04</totfact>
</mgrwt>
</event>
<event>
 6    0  0.1539497E-004  0.4129740E+03  0.7546771E-02  0.1039378E+00
         21   -1    0    0  502  501  0.00000000000E+00  0.00000000000E+00  0.12810515180E+03  0.12810515180E+03  0.00000000000E+00 0.  1.
         21   -1    0    0  501  502 -0.00000000000E+00 -0.00000000000E+00 -0.33282722034E+03  0.33282722034E+03  0.00000000000E+00 0.  1.
      99925    2    1    2    0    0  0.42244020667E+02 -0.39892539367E+02 -0.97917101853E+02  0.28648816620E+03  0.26289111540E+03 0.  0.
         25    1    3    3    0    0 -0.14116586391E+02 -0.21539509945E+01 -0.58524057616E+02  0.13883980314E+03  0.12509000000E+03 0.  0.
         25    1    1    2    0    0 -0.42244020667E+02  0.39892539367E+02 -0.10680496669E+03  0.17444420595E+03  0.12509000000E+03 0.  0.
         25    1    3    3    0    0  0.56360607058E+02 -0.37738588373E+02 -0.39393044238E+02  0.14764836306E+03  0.12509000000E+03 0.  0.
<mgrwt>
<rscale>  2 0.41297400E+03</rscale>
<asrwt>0</asrwt>
<pdfrwt beam="1">  1       21 0.18838993E-01 0.41297400E+03</pdfrwt>
<pdfrwt beam="2">  1       21 0.48945180E-01 0.41297400E+03</pdfrwt>
<totfact> 0.96509646E+04</totfact>
</mgrwt>
</event>
<event>
 6    0  0.1539497E-004  0.4963030E+03  0.7546771E-02  0.1014748E+00
         21   -1    0    0  502  501  0.00000000000E+00  0.00000000000E+00  0.60047578348E+03  0.60047578348E+03  0.00000000000E+00 0.  1.
         21   -1    0    0  501  502 -0.00000000000E+00 -0.00000000000E+00 -0.10255064068E+03  0.10255064068E+03  0.00000000000E+00 0.  1.
      99925    2    1    2    0    0 -0.59271530499E+02 -0.61871739651E+00  0.49618135578E+03  0.56459215805E+03  0.26278293318E+03 0.  0.
         25    1    1    2    0    0  0.59271530499E+02  0.61871739651E+00  0.17437870228E+01  0.13843426611E+03  0.12509000000E+03 0.  0.
         25    1    3    3    0    0 -0.44698901965E+02  0.23603125355E+02  0.19378123330E+03  0.23612237049E+03  0.12509000000E+03 0.  0.
         25    1    3    3    0    0 -0.14572628533E+02 -0.24221842752E+02  0.30240012247E+03  0.32846978756E+03  0.12509000000E+03 0.  0.
<mgrwt>
<rscale>  2 0.49630304E+03</rscale>
<asrwt>0</asrwt>
<pdfrwt beam="1">  1       21 0.88305261E-01 0.49630304E+03</pdfrwt>
<pdfrwt beam="2">  1       21 0.15080977E-01 0.49630304E+03</pdfrwt>
<totfact> 0.38573465E+04</totfact>
</mgrwt>
</event>
<event>
 6    0  0.1539497E-004  0.4977287E+03  0.7546771E-02  0.1014373E+00
         21   -1    0    0  502  501  0.00000000000E+00  0.00000000000E+00  0.38205744316E+03  0.38205744316E+03  0.00000000000E+00 0.  1.
         21   -1    0    0  501  502 -0.00000000000E+00 -0.00000000000E+00 -0.16210512098E+03  0.16210512098E+03  0.00000000000E+00 0.  1.
      99925    2    1    2    0    0  0.94174275251E+02 -0.11576952068E+03  0.12095562761E+03  0.32571524858E+03  0.26303760809E+03 0.  0.
         25    1    1    2    0    0 -0.94174275251E+02  0.11576952068E+03  0.98996694569E+02  0.21844731556E+03  0.12509000000E+03 0.  0.
         25    1    3    3    0    0  0.66591572759E+02 -0.45888171113E+02  0.24905279540E+02  0.15102298785E+03  0.12509000000E+03 0.  0.
         25    1    3    3    0    0  0.27582702491E+02 -0.69881349568E+02  0.96050348075E+02  0.17469226073E+03  0.12509000000E+03 0.  0.
<mgrwt>
<rscale>  2 0.49772871E+03</rscale>
<asrwt>0</asrwt>
<pdfrwt beam="1">  1       21 0.56184918E-01 0.49772871E+03</pdfrwt>
<pdfrwt beam="2">  1       21 0.23838988E-01 0.49772871E+03</pdfrwt>
<totfact> 0.44976808E+04</totfact>
</mgrwt>
</event>
<event>
 6    0  0.1539497E-004  0.4052463E+03  0.7546771E-02  0.1041978E+00
         21   -1    0    0  502  501  0.00000000000E+00  0.00000000000E+00  0.13781310244E+02  0.13781310244E+02  0.00000000000E+00 0. -1.
         21   -1    0    0  501  502 -0.00000000000E+00 -0.00000000000E+00 -0.29791174031E+04  0.29791174031E+04  0.00000000000E+00 0. -1.
      99925    2    1    2    0    0  0.54916448818E+02 -0.15956211970E+01 -0.19468802678E+04  0.19653199387E+04  0.26290934187E+03 0.  0.
         25    1    1    2    0    0 -0.54916448818E+02  0.15956211970E+01 -0.10184558251E+04  0.10275787746E+04  0.12509000000E+03 0.  0.
         25    1    3    3    0    0  0.55717337903E+02  0.20845862897E+02 -0.11603151854E+04  0.11685537255E+04  0.12509000000E+03 0.  0.
         25    1    3    3    0    0 -0.80088908519E+00 -0.22441484094E+02 -0.78656508242E+03  0.79676621328E+03  0.12509000000E+03 0.  0.
<mgrwt>
<rscale>  2 0.40524630E+03</rscale>
<asrwt>0</asrwt>
<pdfrwt beam="1">  1       21 0.20266644E-02 0.40524630E+03</pdfrwt>
<pdfrwt beam="2">  1       21 0.43810526E+00 0.40524630E+03</pdfrwt>
<totfact> 0.49408591E+03</totfact>
</mgrwt>
</event>
<event>
 6    0  0.1539497E-004  0.4067796E+03  0.7546771E-02  0.1041457E+00
         21   -1    0    0  502  501  0.00000000000E+00  0.00000000000E+00  0.13210350176E+03  0.13210350176E+03  0.00000000000E+00 0.  1.
         21   -1    0    0  501  502 -0.00000000000E+00 -0.00000000000E+00 -0.31314395227E+03  0.31314395227E+03  0.00000000000E+00 0.  1.
      99925    2    1    2    0    0  0.66337699225E+01 -0.86108929852E+01 -0.18126297680E+03  0.31968586755E+03  0.26310574446E+03 0.  0.
         25    1    1    2    0    0 -0.66337699225E+01  0.86108929852E+01  0.22252629447E+00  0.12556158648E+03  0.12509000000E+03 0.  0.
         25    1    3    3    0    0 -0.99150065208E+01 -0.17441889520E+02 -0.46740948843E+02  0.13503611096E+03  0.12509000000E+03 0.  0.
         25    1    3    3    0    0  0.16548776443E+02  0.88309965344E+01 -0.13452202796E+03  0.18464975659E+03  0.12509000000E+03 0.  0.
<mgrwt>
<rscale>  2 0.40677961E+03</rscale>
<asrwt>0</asrwt>
<pdfrwt beam="1">  1       21 0.19426986E-01 0.40677961E+03</pdfrwt>
<pdfrwt beam="2">  1       21 0.46050580E-01 0.40677961E+03</pdfrwt>
<totfact> 0.10366607E+05</totfact>
</mgrwt>
</event>
<event>
 6    0  0.1539497E-004  0.4797690E+03  0.7546771E-02  0.1019199E+00
         21   -1    0    0  502  501  0.00000000000E+00  0.00000000000E+00  0.57663824742E+02  0.57663824742E+02  0.00000000000E+00 0. -1.
         21   -1    0    0  501  502 -0.00000000000E+00 -0.00000000000E+00 -0.99793206830E+03  0.99793206830E+03  0.00000000000E+00 0. -1.
      99925    2    1    2    0    0  0.71229365139E+02  0.94506461756E+02 -0.42985742758E+03  0.51691992093E+03  0.26157924771E+03 0.  0.
         25    1    1    2    0    0 -0.71229365139E+02 -0.94506461756E+02 -0.51041081598E+03  0.53867597212E+03  0.12509000000E+03 0.  0.
         25    1    3    3    0    0 -0.18400542154E+01  0.30807538931E+02 -0.19501103183E+03  0.23372911862E+03  0.12509000000E+03 0.  0.
         25    1    3    3    0    0  0.73069419355E+02  0.63698922825E+02 -0.23484639575E+03  0.28319080231E+03  0.12509000000E+03 0.  0.
<mgrwt>
<rscale>  2 0.47976903E+03</rscale>
<asrwt>0</asrwt>
<pdfrwt beam="1">  1       21 0.84799741E-02 0.47976903E+03</pdfrwt>
<pdfrwt beam="2">  1       21 0.14675472E+00 0.47976903E+03</pdfrwt>
<totfact> 0.30695085E+04</totfact>
</mgrwt>
</event>
<event>
 6    0  0.1974111E-004  0.4295385E+03  0.7546771E-02  0.1034006E+00
         21   -1    0    0  502  501  0.00000000000E+00  0.00000000000E+00  0.36542148927E+03  0.36542148927E+03  0.00000000000E+00 0.  1.
         21   -1    0    0  501  502 -0.00000000000E+00 -0.00000000000E+00 -0.12622636194E+03  0.12622636194E+03  0.00000000000E+00 0.  1.
      99925    2    1    2    0    0  0.67540726612E+02  0.98496677133E+01  0.96265644063E+02  0.28981844058E+03  0.26470528625E+03 0.  0.
         25    1    3    3    0    0  0.14463482066E+01  0.22032778225E+02  0.71213144145E+02  0.14562402013E+03  0.12509000000E+03 0.  0.
         25    1    3    3    0    0  0.66094378406E+02 -0.12183110512E+02  0.25052499918E+02  0.14419442046E+03  0.12509000000E+03 0.  0.
         25    1    1    2    0    0 -0.67540726612E+02 -0.98496677133E+01  0.14292948327E+03  0.20182941063E+03  0.12509000000E+03 0.  0.
<mgrwt>
<rscale>  2 0.42953847E+03</rscale>
<asrwt>0</asrwt>
<pdfrwt beam="1">  1       21 0.53738454E-01 0.42953847E+03</pdfrwt>
<pdfrwt beam="2">  1       21 0.18562700E-01 0.42953847E+03</pdfrwt>
<totfact> 0.81040400E+04</totfact>
</mgrwt>
</event>
<event>
 6    0  0.1539497E-004  0.4253926E+03  0.7546771E-02  0.1035325E+00
         21   -1    0    0  502  501  0.00000000000E+00  0.00000000000E+00  0.13155878857E+03  0.13155878857E+03  0.00000000000E+00 0. -1.
         21   -1    0    0  501  502 -0.00000000000E+00 -0.00000000000E+00 -0.34387451602E+03  0.34387451602E+03  0.00000000000E+00 0. -1.
      99925    2    1    2    0    0 -0.14256064611E+02  0.68252677154E+02 -0.18634377901E+03  0.32988704555E+03  0.26313455784E+03 0.  0.
         25    1    3    3    0    0  0.34065481534E+01  0.20132445233E+02 -0.13528221811E+03  0.18537989793E+03  0.12509000000E+03 0.  0.
         25    1    1    2    0    0  0.14256064611E+02 -0.68252677154E+02 -0.25971948444E+02  0.14554625905E+03  0.12509000000E+03 0.  0.
         25    1    3    3    0    0 -0.17662612764E+02  0.48120231921E+02 -0.51061560899E+02  0.14450714761E+03  0.12509000000E+03 0.  0.
<mgrwt>
<rscale>  2 0.42539259E+03</rscale>
<asrwt>0</asrwt>
<pdfrwt beam="1">  1       21 0.19346881E-01 0.42539259E+03</pdfrwt>
<pdfrwt beam="2">  1       21 0.50569782E-01 0.42539259E+03</pdfrwt>
<totfact> 0.85410994E+04</totfact>
</mgrwt>
</event>
<event>
 6    0  0.1539497E-004  0.4623974E+03  0.7546771E-02  0.1024088E+00
         21   -1    0    0  502  501  0.00000000000E+00  0.00000000000E+00  0.16229754296E+03  0.16229754296E+03  0.00000000000E+00 0. -1.
         21   -1    0    0  501  502 -0.00000000000E+00 -0.00000000000E+00 -0.32935085481E+03  0.32935085481E+03  0.00000000000E+00 0. -1.
      99925    2    1    2    0    0  0.83275217376E+02 -0.67792347721E+02 -0.47584690268E+02  0.28805364372E+03  0.26302097763E+03 0.  0.
         25    1    3    3    0    0  0.51172567828E+02 -0.64119497066E+02 -0.53111310579E+02  0.15873960128E+03  0.12509000000E+03 0.  0.
         25    1    3    3    0    0  0.32102649548E+02 -0.36728506548E+01  0.55266203105E+01  0.12931404244E+03  0.12509000000E+03 0.  0.
         25    1    1    2    0    0 -0.83275217376E+02  0.67792347721E+02 -0.11946862158E+03  0.20359475406E+03  0.12509000000E+03 0.  0.
<mgrwt>
<rscale>  2 0.46239738E+03</rscale>
<asrwt>0</asrwt>
<pdfrwt beam="1">  1       21 0.23867286E-01 0.46239738E+03</pdfrwt>
<pdfrwt beam="2">  1       21 0.48433949E-01 0.46239738E+03</pdfrwt>
<totfact> 0.62131860E+04</totfact>
</mgrwt>
</event>
<event>
 6    0  0.1539497E-004  0.4310482E+03  0.7546771E-02  0.1033529E+00
         21   -1    0    0  502  501  0.00000000000E+00  0.00000000000E+00  0.84159516854E+03  0.84159516854E+03  0.00000000000E+00 0. -1.
         21   -1    0    0  501  502 -0.00000000000E+00 -0.00000000000E+00 -0.55193554636E+02  0.55193554636E+02  0.00000000000E+00 0. -1.
      99925    2    1    2    0    0  0.54833257527E+02  0.44482321782E+02  0.61919871533E+03  0.67635805273E+03  0.26280754050E+03 0.  0.
         25    1    3    3    0    0 -0.25860499448E+01  0.16899394395E+02  0.36140483662E+03  0.38282272819E+03  0.12509000000E+03 0.  0.
         25    1    1    2    0    0 -0.54833257527E+02 -0.44482321782E+02  0.16720289858E+03  0.22043067045E+03  0.12509000000E+03 0.  0.
         25    1    3    3    0    0  0.57419307472E+02  0.27582927387E+02  0.25779387871E+03  0.29353532454E+03  0.12509000000E+03 0.  0.
<mgrwt>
<rscale>  2 0.43104816E+03</rscale>
<asrwt>0</asrwt>
<pdfrwt beam="1">  1       21 0.12376399E+00 0.43104816E+03</pdfrwt>
<pdfrwt beam="2">  1       21 0.81166997E-02 0.43104816E+03</pdfrwt>
<totfact> 0.52553015E+04</totfact>
</mgrwt>
</event>
<event>
 6    0  0.1539497E-004  0.4252532E+03  0.7546771E-02  0.1035370E+00
         21   -1    0    0  502  501  0.00000000000E+00  0.00000000000E+00  0.15060223620E+03  0.15060223620E+03  0.00000000000E+00 0.  1.
         21   -1    0    0  501  502 -0.00000000000E+00 -0.00000000000E+00 -0.30019515273E+03  0.30019515273E+03  0.00000000000E+00 0.  1.
      99925    2    1    2    0    0  0.77528770500E+02 -0.12823628299E+02 -0.12312401279E+03  0.30071985343E+03  0.26286451268E+03 0.  0.
         25    1    3    3    0    0  0.26200767474E+02  0.17104938141E+02 -0.93038935560E+02  0.15900569410E+03  0.12509000000E+03 0.  0.
         25    1    1    2    0    0 -0.77528770500E+02  0.12823628299E+02 -0.26468903741E+02  0.15007753551E+03  0.12509000000E+03 0.  0.
         25    1    3    3    0    0  0.51328003026E+02 -0.29928566440E+02 -0.30085077229E+02  0.14171415933E+03  0.12509000000E+03 0.  0.
<mgrwt>
<rscale>  2 0.42525315E+03</rscale>
<asrwt>0</asrwt>
<pdfrwt beam="1">  1       21 0.22147388E-01 0.42525315E+03</pdfrwt>
<pdfrwt beam="2">  1       21 0.44146346E-01 0.42525315E+03</pdfrwt>
<totfact> 0.87869459E+04</totfact>
</mgrwt>
</event>
<event>
 6    0  0.1539497E-004  0.4213680E+03  0.7546771E-02  0.1036622E+00
         21   -1    0    0  502  501  0.00000000000E+00  0.00000000000E+00  0.97245895842E+02  0.97245895842E+02  0.00000000000E+00 0. -1.
         21   -1    0    0  501  502 -0.00000000000E+00 -0.00000000000E+00 -0.45644844162E+03  0.45644844162E+03  0.00000000000E+00 0. -1.
      99925    2    1    2    0    0  0.49546359122E+02 -0.54826234375E+02 -0.20226552194E+03  0.33983107454E+03  0.26289362902E+03 0.  0.
         25    1    1    2    0    0 -0.49546359122E+02  0.54826234375E+02 -0.15693702383E+03  0.21386326292E+03  0.12509000000E+03 0.  0.
         25    1    3    3    0    0 -0.13415478563E+02 -0.13196472755E+02 -0.83778729279E+02  0.15172509858E+03  0.12509000000E+03 0.  0.
         25    1    3    3    0    0  0.62961837685E+02 -0.41629761620E+02 -0.11848679267E+03  0.18810597596E+03  0.12509000000E+03 0.  0.
<mgrwt>
<rscale>  2 0.42136795E+03</rscale>
<asrwt>0</asrwt>
<pdfrwt beam="1">  1       21 0.14300867E-01 0.42136795E+03</pdfrwt>
<pdfrwt beam="2">  1       21 0.67124770E-01 0.42136795E+03</pdfrwt>
<totfact> 0.81154095E+04</totfact>
</mgrwt>
</event>
<event>
 6    0  0.1539497E-004  0.3987931E+03  0.7546771E-02  0.1044198E+00
         21   -1    0    0  502  501  0.00000000000E+00  0.00000000000E+00  0.13589917280E+03  0.13589917280E+03  0.00000000000E+00 0.  1.
         21   -1    0    0  501  502 -0.00000000000E+00 -0.00000000000E+00 -0.29256237170E+03  0.29256237170E+03  0.00000000000E+00 0.  1.
      99925    2    1    2    0    0  0.29843448275E+02 -0.99587818186E+00 -0.71525998174E+02  0.27422965990E+03  0.26304812255E+03 0.  0.
         25    1    1    2    0    0 -0.29843448275E+02  0.99587818186E+00 -0.85137200729E+02  0.15423188460E+03  0.12509000000E+03 0.  0.
         25    1    3    3    0    0  0.84653388586E+01  0.10804725751E+02  0.43252625554E+01  0.12591513037E+03  0.12509000000E+03 0.  0.
         25    1    3    3    0    0  0.21378109416E+02 -0.11800603933E+02 -0.75851260729E+02  0.14831452953E+03  0.12509000000E+03 0.  0.
<mgrwt>
<rscale>  2 0.39879310E+03</rscale>
<asrwt>0</asrwt>
<pdfrwt beam="1">  1       21 0.19985173E-01 0.39879310E+03</pdfrwt>
<pdfrwt beam="2">  1       21 0.43023877E-01 0.39879310E+03</pdfrwt>
<totfact> 0.11339935E+05</totfact>
</mgrwt>
</event>
<event>
 6    0  0.1539497E-004  0.5179780E+03  0.7546771E-02  0.1009190E+00
         21   -1    0    0  502  501  0.00000000000E+00  0.00000000000E+00  0.35221114947E+03  0.35221114947E+03  0.00000000000E+00 0. -1.
         21   -1    0    0  501  502 -0.00000000000E+00 -0.00000000000E+00 -0.19044059453E+03  0.19044059453E+03  0.00000000000E+00 0. -1.
      99925    2    1    2    0    0 -0.66983196412E+02  0.42133821115E+02  0.24903686168E+03  0.37082356275E+03  0.26311356622E+03 0.  0.
         25    1    1    2    0    0  0.66983196412E+02 -0.42133821115E+02 -0.87266306740E+02  0.17182818126E+03  0.12509000000E+03 0.  0.
         25    1    3    3    0    0 -0.22322248205E+02 -0.85747964760E+01  0.81989931698E+02  0.15146506825E+03  0.12509000000E+03 0.  0.
         25    1    3    3    0    0 -0.44660948207E+02  0.50708617591E+02  0.16704692998E+03  0.21935849450E+03  0.12509000000E+03 0.  0.
<mgrwt>
<rscale>  2 0.51797799E+03</rscale>
<asrwt>0</asrwt>
<pdfrwt beam="1">  1       21 0.51795757E-01 0.51797799E+03</pdfrwt>
<pdfrwt beam="2">  1       21 0.28005970E-01 0.51797799E+03</pdfrwt>
<totfact> 0.38948818E+04</totfact>
</mgrwt>
</event>
<event>
 6    0  0.1539497E-004  0.9277936E+03  0.7546771E-02  0.9391490E-01
         21   -1    0    0  502  501  0.00000000000E+00  0.00000000000E+00  0.10202598440E+04  0.10202598440E+04  0.00000000000E+00 0.  1.
         21   -1    0    0  501  502 -0.00000000000E+00 -0.00000000000E+00 -0.21092687888E+03  0.21092687888E+03  0.00000000000E+00 0.  1.
      99925    2    1    2    0    0  0.27992791209E+03 -0.26926864921E+01  0.83940450292E+03  0.92309794991E+03  0.26295060196E+03 0.  0.
         25    1    1    2    0    0 -0.27992791209E+03  0.26926864921E+01 -0.30071537835E+02  0.30808877295E+03  0.12509000000E+03 0.  0.
         25    1    3    3    0    0  0.10904377418E+03 -0.35308315777E+02  0.38321757011E+03  0.41909478163E+03  0.12509000000E+03 0.  0.
         25    1    3    3    0    0  0.17088413791E+03  0.32615629284E+02  0.45618693281E+03  0.50400316828E+03  0.12509000000E+03 0.  0.
<mgrwt>
<rscale>  2 0.92779356E+03</rscale>
<asrwt>0</asrwt>
<pdfrwt beam="1">  1       21 0.15003821E+00 0.92779356E+03</pdfrwt>
<pdfrwt beam="2">  1       21 0.31018659E-01 0.92779356E+03</pdfrwt>
<totfact> 0.22693979E+03</totfact>
</mgrwt>
</event>
<event>
 6    0  0.1539497E-004  0.5512787E+03  0.7546771E-02  0.1001198E+00
         21   -1    0    0  502  501  0.00000000000E+00  0.00000000000E+00  0.11283540209E+03  0.11283540209E+03  0.00000000000E+00 0.  1.
         21   -1    0    0  501  502 -0.00000000000E+00 -0.00000000000E+00 -0.67334397694E+03  0.67334397694E+03  0.00000000000E+00 0.  1.
      99925    2    1    2    0    0 -0.23728144322E+01 -0.10899268203E+03 -0.55067779439E+03  0.61995908145E+03  0.26309350895E+03 0.  0.
         25    1    3    3    0    0  0.41415263856E+00 -0.85983033143E+02 -0.36049299463E+03  0.39114698106E+03  0.12509000000E+03 0.  0.
         25    1    3    3    0    0 -0.27869670707E+01 -0.23009648885E+02 -0.19018479976E+03  0.22881210040E+03  0.12509000000E+03 0.  0.
         25    1    1    2    0    0  0.23728144322E+01  0.10899268203E+03 -0.98307804516E+01  0.16622029758E+03  0.12509000000E+03 0.  0.
<mgrwt>
<rscale>  2 0.55127865E+03</rscale>
<asrwt>0</asrwt>
<pdfrwt beam="1">  1       21 0.16593442E-01 0.55127865E+03</pdfrwt>
<pdfrwt beam="2">  1       21 0.99021172E-01 0.55127865E+03</pdfrwt>
<totfact> 0.24232422E+04</totfact>
</mgrwt>
</event>
<event>
 6    0  0.1539497E-004  0.4803015E+03  0.7546771E-02  0.1019052E+00
         21   -1    0    0  502  501  0.00000000000E+00  0.00000000000E+00  0.10661204494E+04  0.10661204494E+04  0.00000000000E+00 0. -1.
         21   -1    0    0  501  502 -0.00000000000E+00 -0.00000000000E+00 -0.54095560403E+02  0.54095560403E+02  0.00000000000E+00 0. -1.
      99925    2    1    2    0    0  0.13192590659E+03  0.10633437942E+02  0.55561926976E+03  0.62881890745E+03  0.26302648270E+03 0.  0.
         25    1    3    3    0    0  0.28803148195E+02  0.19810830433E+02  0.20933782983E+03  0.24635731255E+03  0.12509000000E+03 0.  0.
         25    1    3    3    0    0  0.10312275839E+03 -0.91773924910E+01  0.34628143993E+03  0.38246159490E+03  0.12509000000E+03 0.  0.
         25    1    1    2    0    0 -0.13192590659E+03 -0.10633437942E+02  0.45640561923E+03  0.49139710234E+03  0.12509000000E+03 0.  0.
<mgrwt>
<rscale>  2 0.48030150E+03</rscale>
<asrwt>0</asrwt>
<pdfrwt beam="1">  1       21 0.15678241E+00 0.48030150E+03</pdfrwt>
<pdfrwt beam="2">  1       21 0.79552302E-02 0.48030150E+03</pdfrwt>
<totfact> 0.28699336E+04</totfact>
</mgrwt>
</event>
<event>
 6    0  0.1539497E-004  0.4137810E+03  0.7546771E-02  0.1039110E+00
         21   -1    0    0  502  501  0.00000000000E+00  0.00000000000E+00  0.25011544469E+03  0.25011544469E+03  0.00000000000E+00 0.  1.
         21   -1    0    0  501  502 -0.00000000000E+00 -0.00000000000E+00 -0.17113566819E+03  0.17113566819E+03  0.00000000000E+00 0.  1.
      99925    2    1    2    0    0 -0.12716749935E+02 -0.43581705103E+01  0.11932778065E+03  0.28912927927E+03  0.26301313943E+03 0.  0.
         25    1    1    2    0    0  0.12716749935E+02  0.43581705103E+01 -0.40348004156E+02  0.13212183362E+03  0.12509000000E+03 0.  0.
         25    1    3    3    0    0 -0.12781226454E+02 -0.33964752640E+02  0.33249785519E+02  0.13442477639E+03  0.12509000000E+03 0.  0.
         25    1    3    3    0    0  0.64476518716E-01  0.29606582129E+02  0.86077995135E+02  0.15470450287E+03  0.12509000000E+03 0.  0.
<mgrwt>
<rscale>  2 0.41378097E+03</rscale>
<asrwt>0</asrwt>
<pdfrwt beam="1">  1       21 0.36781683E-01 0.41378097E+03</pdfrwt>
<pdfrwt beam="2">  1       21 0.25167010E-01 0.41378097E+03</pdfrwt>
<totfact> 0.10019217E+05</totfact>
</mgrwt>
</event>
<event>
 6    0  0.1539497E-004  0.4097299E+03  0.7546771E-02  0.1040462E+00
         21   -1    0    0  502  501  0.00000000000E+00  0.00000000000E+00  0.20278650469E+03  0.20278650469E+03  0.00000000000E+00 0. -1.
         21   -1    0    0  501  502 -0.00000000000E+00 -0.00000000000E+00 -0.20696474828E+03  0.20696474828E+03  0.00000000000E+00 0. -1.
      99925    2    1    2    0    0 -0.24832926378E+02 -0.17208368694E+02  0.51535487758E+02  0.26952169067E+03  0.26281787050E+03 0.  0.
         25    1    3    3    0    0 -0.19474536960E+02 -0.36333312747E+02  0.55210757026E+02  0.14281142460E+03  0.12509000000E+03 0.  0.
         25    1    1    2    0    0  0.24832926378E+02  0.17208368694E+02 -0.55713731346E+02  0.14022956231E+03  0.12509000000E+03 0.  0.
         25    1    3    3    0    0 -0.53583894176E+01  0.19124944053E+02 -0.36752692677E+01  0.12671026607E+03  0.12509000000E+03 0.  0.
<mgrwt>
<rscale>  2 0.40972995E+03</rscale>
<asrwt>0</asrwt>
<pdfrwt beam="1">  1       21 0.29821545E-01 0.40972995E+03</pdfrwt>
<pdfrwt beam="2">  1       21 0.30435992E-01 0.40972995E+03</pdfrwt>
<totfact> 0.10514566E+05</totfact>
</mgrwt>
</event>
<event>
 6    0  0.1539497E-004  0.4736305E+03  0.7546771E-02  0.1020901E+00
         21   -1    0    0  502  501  0.00000000000E+00  0.00000000000E+00  0.18267038500E+03  0.18267038500E+03  0.00000000000E+00 0. -1.
         21   -1    0    0  501  502 -0.00000000000E+00 -0.00000000000E+00 -0.30700909846E+03  0.30700909846E+03  0.00000000000E+00 0. -1.
      99925    2    1    2    0    0  0.21841738198E+02 -0.11609715345E+03 -0.21195848428E+02  0.28907646934E+03  0.26298351768E+03 0.  0.
         25    1    3    3    0    0 -0.87134312720E+01 -0.38192287230E+02 -0.40850402188E+02  0.13729835450E+03  0.12509000000E+03 0.  0.
         25    1    3    3    0    0  0.30555169470E+02 -0.77904866220E+02  0.19654553760E+02  0.15177811484E+03  0.12509000000E+03 0.  0.
         25    1    1    2    0    0 -0.21841738198E+02  0.11609715345E+03 -0.10314286504E+03  0.20060301412E+03  0.12509000000E+03 0.  0.
<mgrwt>
<rscale>  2 0.47363053E+03</rscale>
<asrwt>0</asrwt>
<pdfrwt beam="1">  1       21 0.26863292E-01 0.47363053E+03</pdfrwt>
<pdfrwt beam="2">  1       21 0.45148397E-01 0.47363053E+03</pdfrwt>
<totfact> 0.57082698E+04</totfact>
</mgrwt>
</event>
<event>
 6    0  0.1539497E-004  0.3907718E+03  0.7546771E-02  0.1047023E+00
         21   -1    0    0  502  501  0.00000000000E+00  0.00000000000E+00  0.90403712597E+02  0.90403712597E+02  0.00000000000E+00 0. -1.
         21   -1    0    0  501  502 -0.00000000000E+00 -0.00000000000E+00 -0.42227969448E+03  0.42227969448E+03  0.00000000000E+00 0. -1.
      99925    2    1    2    0    0  0.49721109325E+01  0.13878571908E+02 -0.24330823290E+03  0.35870584084E+03  0.26316087743E+03 0.  0.
         25    1    3    3    0    0  0.28702292557E+01  0.47656190685E+02 -0.11882492916E+03  0.17901458772E+03  0.12509000000E+03 0.  0.
         25    1    3    3    0    0  0.21018816768E+01 -0.33777618777E+02 -0.12448330374E+03  0.17969125312E+03  0.12509000000E+03 0.  0.
         25    1    1    2    0    0 -0.49721109325E+01 -0.13878571908E+02 -0.88567748984E+02  0.15397756624E+03  0.12509000000E+03 0.  0.
<mgrwt>
<rscale>  2 0.39077181E+03</rscale>
<asrwt>0</asrwt>
<pdfrwt beam="1">  1       21 0.13294664E-01 0.39077181E+03</pdfrwt>
<pdfrwt beam="2">  1       21 0.62099954E-01 0.39077181E+03</pdfrwt>
<totfact> 0.11096868E+05</totfact>
</mgrwt>
</event>
<event>
 6    0  0.1539497E-004  0.3951260E+03  0.7546771E-02  0.1045481E+00
         21   -1    0    0  502  501  0.00000000000E+00  0.00000000000E+00  0.19835892376E+03  0.19835892376E+03  0.00000000000E+00 0.  1.
         21   -1    0    0  501  502 -0.00000000000E+00 -0.00000000000E+00 -0.19677030452E+03  0.19677030452E+03  0.00000000000E+00 0.  1.
      99925    2    1    2    0    0  0.32991421691E+02 -0.29356756293E+01  0.10600661750E+02  0.26541501508E+03  0.26312678332E+03 0.  0.
         25    1    3    3    0    0 -0.11952084097E+02  0.27676687528E+02  0.94155230361E+00  0.12867496247E+03  0.12509000000E+03 0.  0.
         25    1    1    2    0    0 -0.32991421691E+02  0.29356756293E+01 -0.90120425138E+01  0.12971421320E+03  0.12509000000E+03 0.  0.
         25    1    3    3    0    0  0.44943505788E+02 -0.30612363157E+02  0.96591094468E+01  0.13674005260E+03  0.12509000000E+03 0.  0.
<mgrwt>
<rscale>  2 0.39512603E+03</rscale>
<asrwt>0</asrwt>
<pdfrwt beam="1">  1       21 0.29170430E-01 0.39512603E+03</pdfrwt>
<pdfrwt beam="2">  1       21 0.28936810E-01 0.39512603E+03</pdfrwt>
<totfact> 0.12174446E+05</totfact>
</mgrwt>
</event>
<event>
 6    0  0.1539497E-004  0.4481958E+03  0.7546771E-02  0.1028261E+00
         21   -1    0    0  502  501  0.00000000000E+00  0.00000000000E+00  0.16749200794E+04  0.16749200794E+04  0.00000000000E+00 0. -1.
         21   -1    0    0  501  502 -0.00000000000E+00 -0.00000000000E+00 -0.29983445530E+02  0.29983445530E+02  0.00000000000E+00 0. -1.
      99925    2    1    2    0    0 -0.33148425543E+02  0.10110623043E+02  0.14254326445E+04  0.14498926383E+04  0.26292469647E+03 0.  0.
         25    1    1    2    0    0  0.33148425543E+02 -0.10110623043E+02  0.21950398946E+03  0.25501088663E+03  0.12509000000E+03 0.  0.
         25    1    3    3    0    0  0.19236819264E+02 -0.12453866600E+02  0.63858270209E+03  0.65112251498E+03  0.12509000000E+03 0.  0.
         25    1    3    3    0    0 -0.52385244808E+02  0.22564489643E+02  0.78684994237E+03  0.79877012336E+03  0.12509000000E+03 0.  0.
<mgrwt>
<rscale>  2 0.44819583E+03</rscale>
<asrwt>0</asrwt>
<pdfrwt beam="1">  1       21 0.24631171E+00 0.44819583E+03</pdfrwt>
<pdfrwt beam="2">  1       21 0.44093314E-02 0.44819583E+03</pdfrwt>
<totfact> 0.20206489E+04</totfact>
</mgrwt>
</event>
<event>
 6    0  0.1539497E-004  0.4062906E+03  0.7546771E-02  0.1041623E+00
         21   -1    0    0  502  501  0.00000000000E+00  0.00000000000E+00  0.99454068693E+02  0.99454068693E+02  0.00000000000E+00 0.  1.
         21   -1    0    0  501  502 -0.00000000000E+00 -0.00000000000E+00 -0.41494550715E+03  0.41494550715E+03  0.00000000000E+00 0.  1.
      99925    2    1    2    0    0 -0.40998769884E+02 -0.51183119132E+01 -0.25904101644E+03  0.37107737067E+03  0.26246727525E+03 0.  0.
         25    1    1    2    0    0  0.40998769884E+02  0.51183119132E+01 -0.56450422014E+02  0.14332220517E+03  0.12509000000E+03 0.  0.
         25    1    3    3    0    0 -0.60640077255E+02 -0.20171727011E+01 -0.13388129013E+03  0.19301035180E+03  0.12509000000E+03 0.  0.
         25    1    3    3    0    0  0.19641307371E+02 -0.31011392121E+01 -0.12515972631E+03  0.17806701887E+03  0.12509000000E+03 0.  0.
<mgrwt>
<rscale>  2 0.40629063E+03</rscale>
<asrwt>0</asrwt>
<pdfrwt beam="1">  1       21 0.14625598E-01 0.40629063E+03</pdfrwt>
<pdfrwt beam="2">  1       21 0.61021398E-01 0.40629063E+03</pdfrwt>
<totfact> 0.96439915E+04</totfact>
</mgrwt>
</event>
<event>
 6    0  0.1539497E-004  0.4521646E+03  0.7546771E-02  0.1027078E+00
         21   -1    0    0  502  501  0.00000000000E+00  0.00000000000E+00  0.18614789919E+03  0.18614789919E+03  0.00000000000E+00 0.  1.
         21   -1    0    0  501  502 -0.00000000000E+00 -0.00000000000E+00 -0.27458389053E+03  0.27458389053E+03  0.00000000000E+00 0.  1.
      99925    2    1    2    0    0 -0.86015411301E+02  0.69143492125E+02 -0.57528310350E+02  0.29107841861E+03  0.26313051097E+03 0.  0.
         25    1    3    3    0    0 -0.42471322169E+01  0.31430531628E+02 -0.44057528980E+02  0.13636161634E+03  0.12509000000E+03 0.  0.
         25    1    1    2    0    0  0.86015411301E+02 -0.69143492125E+02 -0.30907680997E+02  0.16965337111E+03  0.12509000000E+03 0.  0.
         25    1    3    3    0    0 -0.81768279084E+02  0.37712960498E+02 -0.13470781371E+02  0.15471680227E+03  0.12509000000E+03 0.  0.
<mgrwt>
<rscale>  2 0.45216464E+03</rscale>
<asrwt>0</asrwt>
<pdfrwt beam="1">  1       21 0.27374691E-01 0.45216464E+03</pdfrwt>
<pdfrwt beam="2">  1       21 0.40379983E-01 0.45216464E+03</pdfrwt>
<totfact> 0.69685674E+04</totfact>
</mgrwt>
</event>
<event>
 6    0  0.1539497E-004  0.4521509E+03  0.7546771E-02  0.1027083E+00
         21   -1    0    0  502  501  0.00000000000E+00  0.00000000000E+00  0.56360602320E+02  0.56360602320E+02  0.00000000000E+00 0. -1.
         21   -1    0    0  501  502 -0.00000000000E+00 -0.00000000000E+00 -0.90684108052E+03  0.90684108052E+03  0.00000000000E+00 0. -1.
      99925    2    1    2    0    0  0.89596422348E+02  0.64021104615E+02 -0.52730184838E+03  0.59958353752E+03  0.26330012994E+03 0.  0.
         25    1    3    3    0    0  0.11164880532E+02  0.10432509223E+02 -0.19735258107E+03  0.23415601885E+03  0.12509000000E+03 0.  0.
         25    1    1    2    0    0 -0.89596422348E+02 -0.64021104615E+02 -0.32317862982E+03  0.36361814532E+03  0.12509000000E+03 0.  0.
         25    1    3    3    0    0  0.78431541816E+02  0.53588595391E+02 -0.32994926731E+03  0.36542751867E+03  0.12509000000E+03 0.  0.
<mgrwt>
<rscale>  2 0.45215090E+03</rscale>
<asrwt>0</asrwt>
<pdfrwt beam="1">  1       21 0.82883235E-02 0.45215090E+03</pdfrwt>
<pdfrwt beam="2">  1       21 0.13335899E+00 0.45215090E+03</pdfrwt>
<totfact> 0.41528220E+04</totfact>
</mgrwt>
</event>
<event>
 6    0  0.1539497E-004  0.4018794E+03  0.7546771E-02  0.1043131E+00
         21   -1    0    0  502  501  0.00000000000E+00  0.00000000000E+00  0.15352505488E+03  0.15352505488E+03  0.00000000000E+00 0.  1.
         21   -1    0    0  501  502 -0.00000000000E+00 -0.00000000000E+00 -0.26299792009E+03  0.26299792009E+03  0.00000000000E+00 0.  1.
      99925    2    1    2    0    0 -0.48280007971E+02  0.85337712758E+01 -0.76109484713E+02  0.27808740266E+03  0.26293756946E+03 0.  0.
         25    1    1    2    0    0  0.48280007971E+02 -0.85337712758E+01 -0.33363380504E+02  0.13843557231E+03  0.12509000000E+03 0.  0.
         25    1    3    3    0    0 -0.40271149419E+02  0.19476736635E+02 -0.74379050202E+02  0.15225261888E+03  0.12509000000E+03 0.  0.
         25    1    3    3    0    0 -0.80088585515E+01 -0.10942965359E+02 -0.17304345113E+01  0.12583478378E+03  0.12509000000E+03 0.  0.
<mgrwt>
<rscale>  2 0.40187944E+03</rscale>
<asrwt>0</asrwt>
<pdfrwt beam="1">  1       21 0.22577214E-01 0.40187944E+03</pdfrwt>
<pdfrwt beam="2">  1       21 0.38676164E-01 0.40187944E+03</pdfrwt>
<totfact> 0.11182413E+05</totfact>
</mgrwt>
</event>
<event>
 6    0  0.1539497E-004  0.4295515E+03  0.7546771E-02  0.1034002E+00
         21   -1    0    0  502  501  0.00000000000E+00  0.00000000000E+00  0.64972215453E+03  0.64972215453E+03  0.00000000000E+00 0.  1.
         21   -1    0    0  501  502 -0.00000000000E+00 -0.00000000000E+00 -0.70997463004E+02  0.70997463004E+02  0.00000000000E+00 0.  1.
      99925    2    1    2    0    0 -0.30997145950E+02  0.57759664178E+02  0.27685966268E+03  0.38745244903E+03  0.26300404099E+03 0.  0.
         25    1    1    2    0    0  0.30997145950E+02 -0.57759664178E+02  0.30186502884E+03  0.33326716850E+03  0.12509000000E+03 0.  0.
         25    1    3    3    0    0 -0.36545712246E+02 -0.30665381571E+00  0.16184423680E+03  0.20779015426E+03  0.12509000000E+03 0.  0.
         25    1    3    3    0    0  0.55485662962E+01  0.58066317993E+02  0.11501542588E+03  0.17966229477E+03  0.12509000000E+03 0.  0.
<mgrwt>
<rscale>  2 0.42955151E+03</rscale>
<asrwt>0</asrwt>
<pdfrwt beam="1">  1       21 0.95547372E-01 0.42955151E+03</pdfrwt>
<pdfrwt beam="2">  1       21 0.10440804E-01 0.42955151E+03</pdfrwt>
<totfact> 0.63598020E+04</totfact>
</mgrwt>
</event>
<event>
 6    0  0.1539497E-004  0.3947894E+03  0.7546771E-02  0.1045599E+00
         21   -1    0    0  502  501  0.00000000000E+00  0.00000000000E+00  0.30894350770E+03  0.30894350770E+03  0.00000000000E+00 0. -1.
         21   -1    0    0  501  502 -0.00000000000E+00 -0.00000000000E+00 -0.12612232113E+03  0.12612232113E+03  0.00000000000E+00 0. -1.
      99925    2    1    2    0    0 -0.22428199493E+01 -0.27351275287E+02  0.10070178721E+03  0.28293356285E+03  0.26297800010E+03 0.  0.
         25    1    3    3    0    0 -0.40298716133E+02 -0.78424601785E+01  0.59392555318E+02  0.14443155622E+03  0.12509000000E+03 0.  0.
         25    1    3    3    0    0  0.38055896184E+02 -0.19508815109E+02  0.41309231888E+02  0.13850200663E+03  0.12509000000E+03 0.  0.
         25    1    1    2    0    0  0.22428199493E+01  0.27351275287E+02  0.82119399359E+02  0.15213226598E+03  0.12509000000E+03 0.  0.
<mgrwt>
<rscale>  2 0.39478942E+03</rscale>
<asrwt>0</asrwt>
<pdfrwt beam="1">  1       21 0.45432869E-01 0.39478942E+03</pdfrwt>
<pdfrwt beam="2">  1       21 0.18547400E-01 0.39478942E+03</pdfrwt>
<totfact> 0.11667944E+05</totfact>
</mgrwt>
</event>
<event>
 6    0  0.1539497E-004  0.4064024E+03  0.7546771E-02  0.1041585E+00
         21   -1    0    0  502  501  0.00000000000E+00  0.00000000000E+00  0.22605385815E+03  0.22605385815E+03  0.00000000000E+00 0. -1.
         21   -1    0    0  501  502 -0.00000000000E+00 -0.00000000000E+00 -0.18265883310E+03  0.18265883310E+03  0.00000000000E+00 0. -1.
      99925    2    1    2    0    0  0.24782188225E+02 -0.32076959503E+01  0.79674672597E+02  0.27609230408E+03  0.26316242275E+03 0.  0.
         25    1    3    3    0    0  0.27219200616E+02  0.36408630805E+02  0.38586360561E+02  0.13857448755E+03  0.12509000000E+03 0.  0.
         25    1    3    3    0    0 -0.24370123911E+01 -0.39616326756E+02  0.41088312036E+02  0.13751781652E+03  0.12509000000E+03 0.  0.
         25    1    1    2    0    0 -0.24782188225E+02  0.32076959503E+01 -0.36279647544E+02  0.13262038717E+03  0.12509000000E+03 0.  0.
<mgrwt>
<rscale>  2 0.40640243E+03</rscale>
<asrwt>0</asrwt>
<pdfrwt beam="1">  1       21 0.33243214E-01 0.40640243E+03</pdfrwt>
<pdfrwt beam="2">  1       21 0.26861593E-01 0.40640243E+03</pdfrwt>
<totfact> 0.10839326E+05</totfact>
</mgrwt>
</event>
<event>
 6    0  0.1539497E-004  0.4073311E+03  0.7546771E-02  0.1041270E+00
         21   -1    0    0  502  501  0.00000000000E+00  0.00000000000E+00  0.16848115299E+03  0.16848115299E+03  0.00000000000E+00 0. -1.
         21   -1    0    0  501  502 -0.00000000000E+00 -0.00000000000E+00 -0.24619759502E+03  0.24619759502E+03  0.00000000000E+00 0. -1.
      99925    2    1    2    0    0 -0.88706757359E+01  0.34432113646E+02 -0.98302148834E+02  0.28301425484E+03  0.26300094418E+03 0.  0.
         25    1    1    2    0    0  0.88706757359E+01 -0.34432113646E+02  0.20585706803E+02  0.13166449317E+03  0.12509000000E+03 0.  0.
         25    1    3    3    0    0 -0.70500430448E+01  0.52977266084E+02 -0.30072855558E+02  0.13931323903E+03  0.12509000000E+03 0.  0.
         25    1    3    3    0    0 -0.18206326911E+01 -0.18545152438E+02 -0.68229293277E+02  0.14370101580E+03  0.12509000000E+03 0.  0.
<mgrwt>
<rscale>  2 0.40733109E+03</rscale>
<asrwt>0</asrwt>
<pdfrwt beam="1">  1       21 0.24776640E-01 0.40733109E+03</pdfrwt>
<pdfrwt beam="2">  1       21 0.36205529E-01 0.40733109E+03</pdfrwt>
<totfact> 0.10678190E+05</totfact>
</mgrwt>
</event>
<event>
 6    0  0.1539497E-004  0.4898230E+03  0.7546771E-02  0.1016470E+00
         21   -1    0    0  502  501  0.00000000000E+00  0.00000000000E+00  0.15016050309E+03  0.15016050309E+03  0.00000000000E+00 0. -1.
         21   -1    0    0  501  502 -0.00000000000E+00 -0.00000000000E+00 -0.39945015550E+03  0.39945015550E+03  0.00000000000E+00 0. -1.
      99925    2    1    2    0    0 -0.74164100417E+02  0.10669618609E+03 -0.22032159371E+03  0.36693322035E+03  0.26308552531E+03 0.  0.
         25    1    1    2    0    0  0.74164100417E+02 -0.10669618609E+03 -0.28968058700E+02  0.18267743824E+03  0.12509000000E+03 0.  0.
         25    1    3    3    0    0 -0.53972263274E+02  0.72055163700E+02 -0.76189897040E+02  0.17192254166E+03  0.12509000000E+03 0.  0.
         25    1    3    3    0    0 -0.20191837142E+02  0.34641022386E+02 -0.14413169667E+03  0.19501067869E+03  0.12509000000E+03 0.  0.
<mgrwt>
<rscale>  2 0.48982297E+03</rscale>
<asrwt>0</asrwt>
<pdfrwt beam="1">  1       21 0.22082427E-01 0.48982297E+03</pdfrwt>
<pdfrwt beam="2">  1       21 0.58742669E-01 0.48982297E+03</pdfrwt>
<totfact> 0.47400364E+04</totfact>
</mgrwt>
</event>
<event>
 6    0  0.1539497E-004  0.4265438E+03  0.7546771E-02  0.1034957E+00
         21   -1    0    0  502  501  0.00000000000E+00  0.00000000000E+00  0.13634631082E+03  0.13634631082E+03  0.00000000000E+00 0.  1.
         21   -1    0    0  501  502 -0.00000000000E+00 -0.00000000000E+00 -0.33359837830E+03  0.33359837830E+03  0.00000000000E+00 0.  1.
      99925    2    1    2    0    0 -0.18878937411E+02  0.63873946335E+02 -0.72068999346E+02  0.28085581069E+03  0.26315347315E+03 0.  0.
         25    1    3    3    0    0  0.24767929793E+02  0.36723208607E+02 -0.58214472551E+02  0.14490851359E+03  0.12509000000E+03 0.  0.
         25    1    1    2    0    0  0.18878937411E+02 -0.63873946335E+02 -0.12518306814E+03  0.18908887843E+03  0.12509000000E+03 0.  0.
         25    1    3    3    0    0 -0.43646867204E+02  0.27150737728E+02 -0.13854526795E+02  0.13594729710E+03  0.12509000000E+03 0.  0.
<mgrwt>
<rscale>  2 0.42654382E+03</rscale>
<asrwt>0</asrwt>
<pdfrwt beam="1">  1       21 0.20050928E-01 0.42654382E+03</pdfrwt>
<pdfrwt beam="2">  1       21 0.49058584E-01 0.42654382E+03</pdfrwt>
<totfact> 0.85097505E+04</totfact>
</mgrwt>
</event>
<event>
 6    0  0.2023585E-004  0.4154793E+03  0.7546771E-02  0.1038548E+00
         21   -1    0    0  502  501  0.00000000000E+00  0.00000000000E+00  0.64557138822E+02  0.64557138822E+02  0.00000000000E+00 0.  1.
         21   -1    0    0  501  502 -0.00000000000E+00 -0.00000000000E+00 -0.66848923372E+03  0.66848923372E+03  0.00000000000E+00 0.  1.
      99925    2    1    2    0    0 -0.36410082249E+02  0.59030350408E+02 -0.42919308195E+03  0.50723338110E+03  0.26128284473E+03 0.  0.
         25    1    3    3    0    0 -0.24101483420E+02  0.59910101122E+02 -0.26902861322E+03  0.30363465637E+03  0.12509000000E+03 0.  0.
         25    1    1    2    0    0  0.36410082249E+02 -0.59030350408E+02 -0.17473901295E+03  0.22581299144E+03  0.12509000000E+03 0.  0.
         25    1    3    3    0    0 -0.12308598829E+02 -0.87975071383E+00 -0.16016446873E+03  0.20359872473E+03  0.12509000000E+03 0.  0.
<mgrwt>
<rscale>  2 0.41547925E+03</rscale>
<asrwt>0</asrwt>
<pdfrwt beam="1">  1       21 0.94936966E-02 0.41547925E+03</pdfrwt>
<pdfrwt beam="2">  1       21 0.98307243E-01 0.41547925E+03</pdfrwt>
<totfact> 0.70678984E+04</totfact>
</mgrwt>
</event>
<event>
 6    0  0.1539497E-004  0.4411406E+03  0.7546771E-02  0.1030397E+00
         21   -1    0    0  502  501  0.00000000000E+00  0.00000000000E+00  0.31743231013E+03  0.31743231013E+03  0.00000000000E+00 0.  1.
         21   -1    0    0  501  502 -0.00000000000E+00 -0.00000000000E+00 -0.15326501401E+03  0.15326501401E+03  0.00000000000E+00 0.  1.
      99925    2    1    2    0    0 -0.90119730975E+01  0.98256865509E+02  0.11933014347E+03  0.30518748868E+03  0.26299067061E+03 0.  0.
         25    1    1    2    0    0  0.90119730975E+01 -0.98256865509E+02  0.44837152656E+02  0.16550983547E+03  0.12509000000E+03 0.  0.
         25    1    3    3    0    0 -0.15120570287E+02  0.86154886430E+01  0.63558387897E+02  0.14138612047E+03  0.12509000000E+03 0.  0.
         25    1    3    3    0    0  0.61085971895E+01  0.89641376866E+02  0.55771755569E+02  0.16380136820E+03  0.12509000000E+03 0.  0.
<mgrwt>
<rscale>  2 0.44114065E+03</rscale>
<asrwt>0</asrwt>
<pdfrwt beam="1">  1       21 0.46681222E-01 0.44114065E+03</pdfrwt>
<pdfrwt beam="2">  1       21 0.22538973E-01 0.44114065E+03</pdfrwt>
<totfact> 0.75335939E+04</totfact>
</mgrwt>
</event>
<event>
 6    0  0.1539497E-004  0.4251262E+03  0.7546771E-02  0.1035411E+00
         21   -1    0    0  502  501  0.00000000000E+00  0.00000000000E+00  0.20714999377E+03  0.20714999377E+03  0.00000000000E+00 0. -1.
         21   -1    0    0  501  502 -0.00000000000E+00 -0.00000000000E+00 -0.21811764782E+03  0.21811764782E+03  0.00000000000E+00 0. -1.
      99925    2    1    2    0    0 -0.42662391752E+02 -0.68329616130E+02  0.91509690482E+01  0.27513009397E+03  0.26291407772E+03 0.  0.
         25    1    1    2    0    0  0.42662391752E+02  0.68329616130E+02 -0.20118623090E+02  0.15013754762E+03  0.12509000000E+03 0.  0.
         25    1    3    3    0    0 -0.37121395754E+02 -0.16376187215E+02  0.37262757448E+02  0.13668283990E+03  0.12509000000E+03 0.  0.
         25    1    3    3    0    0 -0.55409959975E+01 -0.51953428915E+02 -0.28111788400E+02  0.13844725407E+03  0.12509000000E+03 0.  0.
<mgrwt>
<rscale>  2 0.42512619E+03</rscale>
<asrwt>0</asrwt>
<pdfrwt beam="1">  1       21 0.30463234E-01 0.42512619E+03</pdfrwt>
<pdfrwt beam="2">  1       21 0.32076125E-01 0.42512619E+03</pdfrwt>
<totfact> 0.90505845E+04</totfact>
</mgrwt>
</event>
<event>
 6    0  0.1539497E-004  0.4614397E+03  0.7546771E-02  0.1024364E+00
         21   -1    0    0  502  501  0.00000000000E+00  0.00000000000E+00  0.18207979982E+03  0.18207979982E+03  0.00000000000E+00 0.  1.
         21   -1    0    0  501  502 -0.00000000000E+00 -0.00000000000E+00 -0.29235339004E+03  0.29235339004E+03  0.00000000000E+00 0.  1.
      99925    2    1    2    0    0 -0.62930919034E+02 -0.81486690258E+01  0.34611097373E+02  0.27277560340E+03  0.26302452428E+03 0.  0.
         25    1    3    3    0    0 -0.53742033903E+02 -0.30562717592E+02 -0.41508928147E+01  0.13959593091E+03  0.12509000000E+03 0.  0.
         25    1    1    2    0    0  0.62930919034E+02  0.81486690258E+01 -0.14488468760E+03  0.20165758646E+03  0.12509000000E+03 0.  0.
         25    1    3    3    0    0 -0.91888851315E+01  0.22414048566E+02  0.38761990187E+02  0.13317967250E+03  0.12509000000E+03 0.  0.
<mgrwt>
<rscale>  2 0.46143969E+03</rscale>
<asrwt>0</asrwt>
<pdfrwt beam="1">  1       21 0.26776442E-01 0.46143969E+03</pdfrwt>
<pdfrwt beam="2">  1       21 0.42993145E-01 0.46143969E+03</pdfrwt>
<totfact> 0.63786093E+04</totfact>
</mgrwt>
</event>
<event>
 6    0  0.1539497E-004  0.4111976E+03  0.7546771E-02  0.1039970E+00
         21   -1    0    0  502  501  0.00000000000E+00  0.00000000000E+00  0.20304617540E+03  0.20304617540E+03  0.00000000000E+00 0. -1.
         21   -1    0    0  501  502 -0.00000000000E+00 -0.00000000000E+00 -0.20818351188E+03  0.20818351188E+03  0.00000000000E+00 0. -1.
      99925    2    1    2    0    0 -0.38410011479E+02 -0.42616737154E+02 -0.30989255779E+02  0.27120345724E+03  0.26324791733E+03 0.  0.
         25    1    3    3    0    0 -0.34844106719E+02 -0.13006768257E+02  0.21585370114E+02  0.13227518322E+03  0.12509000000E+03 0.  0.
         25    1    3    3    0    0 -0.35659047597E+01 -0.29609968897E+02 -0.52574625893E+02  0.13892827402E+03  0.12509000000E+03 0.  0.
         25    1    1    2    0    0  0.38410011479E+02  0.42616737154E+02  0.25851919294E+02  0.14002623004E+03  0.12509000000E+03 0.  0.
<mgrwt>
<rscale>  2 0.41119760E+03</rscale>
<asrwt>0</asrwt>
<pdfrwt beam="1">  1       21 0.29859732E-01 0.41119760E+03</pdfrwt>
<pdfrwt beam="2">  1       21 0.30615222E-01 0.41119760E+03</pdfrwt>
<totfact> 0.10363259E+05</totfact>
</mgrwt>
</event>
<event>
 6    0  0.1539497E-004  0.4255051E+03  0.7546771E-02  0.1035289E+00
         21   -1    0    0  502  501  0.00000000000E+00  0.00000000000E+00  0.46599114150E+02  0.46599114150E+02  0.00000000000E+00 0. -1.
         21   -1    0    0  501  502 -0.00000000000E+00 -0.00000000000E+00 -0.97134151571E+03  0.97134151571E+03  0.00000000000E+00 0. -1.
      99925    2    1    2    0    0 -0.72416207342E+02  0.38419006600E+02 -0.61940349938E+03  0.67794139392E+03  0.26310399350E+03 0.  0.
         25    1    3    3    0    0 -0.63156131815E+01 -0.33941968482E+01 -0.23732009875E+03  0.26836494725E+03  0.12509000000E+03 0.  0.
         25    1    1    2    0    0  0.72416207342E+02 -0.38419006600E+02 -0.30533890219E+03  0.33999923595E+03  0.12509000000E+03 0.  0.
         25    1    3    3    0    0 -0.66100594161E+02  0.41813203448E+02 -0.38208340063E+03  0.40957644667E+03  0.12509000000E+03 0.  0.
<mgrwt>
<rscale>  2 0.42550513E+03</rscale>
<asrwt>0</asrwt>
<pdfrwt beam="1">  1       21 0.68528113E-02 0.42550513E+03</pdfrwt>
<pdfrwt beam="2">  1       21 0.14284433E+00 0.42550513E+03</pdfrwt>
<totfact> 0.48778005E+04</totfact>
</mgrwt>
</event>
<event>
 6    0  0.1539497E-004  0.4014276E+03  0.7546771E-02  0.1043286E+00
         21   -1    0    0  502  501  0.00000000000E+00  0.00000000000E+00  0.33387611047E+03  0.33387611047E+03  0.00000000000E+00 0.  1.
         21   -1    0    0  501  502 -0.00000000000E+00 -0.00000000000E+00 -0.12066164056E+03  0.12066164056E+03  0.00000000000E+00 0.  1.
      99925    2    1    2    0    0 -0.46227456923E+02 -0.13271077575E+02  0.13689724246E+03  0.30031412580E+03  0.26293463044E+03 0.  0.
         25    1    3    3    0    0 -0.47616345483E+02 -0.16986013947E+02  0.36230737395E+02  0.13969973321E+03  0.12509000000E+03 0.  0.
         25    1    3    3    0    0  0.13888885592E+01  0.37149363712E+01  0.10066650507E+03  0.16061439259E+03  0.12509000000E+03 0.  0.
         25    1    1    2    0    0  0.46227456923E+02  0.13271077575E+02  0.76317227445E+02  0.15422362523E+03  0.12509000000E+03 0.  0.
<mgrwt>
<rscale>  2 0.40142765E+03</rscale>
<asrwt>0</asrwt>
<pdfrwt beam="1">  1       21 0.49099428E-01 0.40142765E+03</pdfrwt>
<pdfrwt beam="2">  1       21 0.17744359E-01 0.40142765E+03</pdfrwt>
<totfact> 0.10755846E+05</totfact>
</mgrwt>
</event>
<event>
 6    0  0.1539497E-004  0.4250819E+03  0.7546771E-02  0.1035425E+00
         21   -1    0    0  502  501  0.00000000000E+00  0.00000000000E+00  0.10645559421E+03  0.10645559421E+03  0.00000000000E+00 0. -1.
         21   -1    0    0  501  502 -0.00000000000E+00 -0.00000000000E+00 -0.42434261150E+03  0.42434261150E+03  0.00000000000E+00 0. -1.
      99925    2    1    2    0    0  0.29280765165E+02 -0.44922955150E+02 -0.12879989881E+03  0.29782421235E+03  0.26312432883E+03 0.  0.
         25    1    3    3    0    0  0.21667142067E+02 -0.97363767900E+01 -0.10600287937E+03  0.16567552810E+03  0.12509000000E+03 0.  0.
         25    1    1    2    0    0 -0.29280765165E+02  0.44922955150E+02 -0.18908711848E+03  0.23297399336E+03  0.12509000000E+03 0.  0.
         25    1    3    3    0    0  0.76136230977E+01 -0.35186578360E+02 -0.22797019447E+02  0.13214868425E+03  0.12509000000E+03 0.  0.
<mgrwt>
<rscale>  2 0.42508185E+03</rscale>
<asrwt>0</asrwt>
<pdfrwt beam="1">  1       21 0.15655234E-01 0.42508185E+03</pdfrwt>
<pdfrwt beam="2">  1       21 0.62403326E-01 0.42508185E+03</pdfrwt>
<totfact> 0.80615125E+04</totfact>
</mgrwt>
</event>
<event>
 6    0  0.1539497E-004  0.3956594E+03  0.7546771E-02  0.1045293E+00
         21   -1    0    0  502  501  0.00000000000E+00  0.00000000000E+00  0.22932909668E+03  0.22932909668E+03  0.00000000000E+00 0. -1.
         21   -1    0    0  501  502 -0.00000000000E+00 -0.00000000000E+00 -0.17065684684E+03  0.17065684684E+03  0.00000000000E+00 0. -1.
      99925    2    1    2    0    0 -0.27619153322E+02 -0.19313271497E+02  0.25395499079E+02  0.26622993308E+03  0.26286427260E+03 0.  0.
         25    1    3    3    0    0 -0.25962598963E+02  0.48392342205E+01  0.48505737624E+02  0.13673986037E+03  0.12509000000E+03 0.  0.
         25    1    3    3    0    0 -0.16565543587E+01 -0.24152505718E+02 -0.23110238545E+02  0.12949007271E+03  0.12509000000E+03 0.  0.
         25    1    1    2    0    0  0.27619153322E+02  0.19313271497E+02  0.33276750763E+02  0.13375601043E+03  0.12509000000E+03 0.  0.
<mgrwt>
<rscale>  2 0.39565935E+03</rscale>
<asrwt>0</asrwt>
<pdfrwt beam="1">  1       21 0.33724867E-01 0.39565935E+03</pdfrwt>
<pdfrwt beam="2">  1       21 0.25096595E-01 0.39565935E+03</pdfrwt>
<totfact> 0.12047885E+05</totfact>
</mgrwt>
</event>
<event>
 6    0  0.1539497E-004  0.4183969E+03  0.7546771E-02  0.1037589E+00
         21   -1    0    0  502  501  0.00000000000E+00  0.00000000000E+00  0.35240675449E+03  0.35240675449E+03  0.00000000000E+00 0. -1.
         21   -1    0    0  501  502 -0.00000000000E+00 -0.00000000000E+00 -0.12418599296E+03  0.12418599296E+03  0.00000000000E+00 0. -1.
      99925    2    1    2    0    0  0.42046184286E+01  0.71447564334E+02  0.16219155134E+03  0.31806893864E+03  0.26408202728E+03 0.  0.
         25    1    3    3    0    0  0.41606309893E+02  0.20558667075E+02  0.82399692872E+02  0.15681505444E+03  0.12509000000E+03 0.  0.
         25    1    3    3    0    0 -0.37401691464E+02  0.50888897259E+02  0.79791858471E+02  0.16125388419E+03  0.12509000000E+03 0.  0.
         25    1    1    2    0    0 -0.42046184286E+01 -0.71447564334E+02  0.66029210186E+02  0.15852380882E+03  0.12509000000E+03 0.  0.
<mgrwt>
<rscale>  2 0.41839686E+03</rscale>
<asrwt>0</asrwt>
<pdfrwt beam="1">  1       21 0.51824522E-01 0.41839686E+03</pdfrwt>
<pdfrwt beam="2">  1       21 0.18262646E-01 0.41839686E+03</pdfrwt>
<totfact> 0.90524638E+04</totfact>
</mgrwt>
</event>
<event>
 6    0  0.1539497E-004  0.4332954E+03  0.7546771E-02  0.1032824E+00
         21   -1    0    0  502  501  0.00000000000E+00  0.00000000000E+00  0.27952313175E+03  0.27952313175E+03  0.00000000000E+00 0.  1.
         21   -1    0    0  501  502 -0.00000000000E+00 -0.00000000000E+00 -0.16791535422E+03  0.16791535422E+03  0.00000000000E+00 0.  1.
      99925    2    1    2    0    0  0.69581473794E+02 -0.42080200245E+02  0.11453577666E+03  0.29821246268E+03  0.26305874631E+03 0.  0.
         25    1    1    2    0    0 -0.69581473794E+02  0.42080200245E+02 -0.29279991394E+01  0.14922602329E+03  0.12509000000E+03 0.  0.
         25    1    3    3    0    0  0.59956325980E+02  0.59124732946E+01  0.76888370323E+02  0.15871057922E+03  0.12509000000E+03 0.  0.
         25    1    3    3    0    0  0.96251478138E+01 -0.47992673540E+02  0.37647406339E+02  0.13950188346E+03  0.12509000000E+03 0.  0.
<mgrwt>
<rscale>  2 0.43329540E+03</rscale>
<asrwt>0</asrwt>
<pdfrwt beam="1">  1       21 0.41106343E-01 0.43329540E+03</pdfrwt>
<pdfrwt beam="2">  1       21 0.24693434E-01 0.43329540E+03</pdfrwt>
<totfact> 0.82458782E+04</totfact>
</mgrwt>
</event>
<event>
 6    0  0.1539497E-004  0.4017995E+03  0.7546771E-02  0.1043158E+00
         21   -1    0    0  502  501  0.00000000000E+00  0.00000000000E+00  0.94750395353E+03  0.94750395353E+03  0.00000000000E+00 0.  1.
         21   -1    0    0  501  502 -0.00000000000E+00 -0.00000000000E+00 -0.42596887399E+02  0.42596887399E+02  0.00000000000E+00 0.  1.
      99925    2    1    2    0    0 -0.22568224162E+02 -0.34355394778E+02  0.66725582431E+03  0.71841124096E+03  0.26304896534E+03 0.  0.
         25    1    3    3    0    0 -0.24238174710E+02 -0.46497797314E+02  0.41452597011E+03  0.43615229251E+03  0.12509000000E+03 0.  0.
         25    1    1    2    0    0  0.22568224162E+02  0.34355394778E+02  0.23765124182E+03  0.27168959997E+03  0.12509000000E+03 0.  0.
         25    1    3    3    0    0  0.16699505487E+01  0.12142402535E+02  0.25272985420E+03  0.28225894845E+03  0.12509000000E+03 0.  0.
<mgrwt>
<rscale>  2 0.40179955E+03</rscale>
<asrwt>0</asrwt>
<pdfrwt beam="1">  1       21 0.13933880E+00 0.40179955E+03</pdfrwt>
<pdfrwt beam="2">  1       21 0.62642487E-02 0.40179955E+03</pdfrwt>
<totfact> 0.61355285E+04</totfact>
</mgrwt>
</event>
<event>
 6    0  0.1865557E-004  0.3952090E+03  0.7546771E-02  0.1045451E+00
         21   -1    0    0  502  501  0.00000000000E+00  0.00000000000E+00  0.14933583517E+03  0.14933583517E+03  0.00000000000E+00 0.  1.
         21   -1    0    0  501  502 -0.00000000000E+00 -0.00000000000E+00 -0.26147468480E+03  0.26147468480E+03  0.00000000000E+00 0.  1.
      99925    2    1    2    0    0  0.19325006230E+02  0.40131293351E+00 -0.10636038941E+03  0.28410410489E+03  0.26273369229E+03 0.  0.
         25    1    1    2    0    0 -0.19325006230E+02 -0.40131293351E+00 -0.57784602180E+01  0.12670641507E+03  0.12509000000E+03 0.  0.
         25    1    3    3    0    0 -0.22003081485E+02  0.24862915768E+02 -0.50093620234E+02  0.13877744436E+03  0.12509000000E+03 0.  0.
         25    1    3    3    0    0  0.41328087715E+02 -0.24461602834E+02 -0.56266769177E+02  0.14532666053E+03  0.12509000000E+03 0.  0.
<mgrwt>
<rscale>  2 0.39520901E+03</rscale>
<asrwt>0</asrwt>
<pdfrwt beam="1">  1       21 0.21961152E-01 0.39520901E+03</pdfrwt>
<pdfrwt beam="2">  1       21 0.38452160E-01 0.39520901E+03</pdfrwt>
<totfact> 0.11948663E+05</totfact>
</mgrwt>
</event>
<event>
 6    0  0.1539497E-004  0.4097516E+03  0.7546771E-02  0.1040454E+00
         21   -1    0    0  502  501  0.00000000000E+00  0.00000000000E+00  0.36946249186E+03  0.36946249186E+03  0.00000000000E+00 0.  1.
         21   -1    0    0  501  502 -0.00000000000E+00 -0.00000000000E+00 -0.11360855447E+03  0.11360855447E+03  0.00000000000E+00 0.  1.
      99925    2    1    2    0    0  0.19612475366E+02  0.41404282386E+02  0.21788724280E+03  0.34455049988E+03  0.26294720497E+03 0.  0.
         25    1    3    3    0    0 -0.11203732427E+02  0.55116199630E+02  0.11868078438E+03  0.18137242283E+03  0.12509000000E+03 0.  0.
         25    1    1    2    0    0 -0.19612475366E+02 -0.41404282386E+02  0.37966694592E+02  0.13852054645E+03  0.12509000000E+03 0.  0.
         25    1    3    3    0    0  0.30816207793E+02 -0.13711917244E+02  0.99206458417E+02  0.16317807705E+03  0.12509000000E+03 0.  0.
<mgrwt>
<rscale>  2 0.40975163E+03</rscale>
<asrwt>0</asrwt>
<pdfrwt beam="1">  1       21 0.54332719E-01 0.40975163E+03</pdfrwt>
<pdfrwt beam="2">  1       21 0.16707140E-01 0.40975163E+03</pdfrwt>
<totfact> 0.96843545E+04</totfact>
</mgrwt>
</event>
<event>
 6    0  0.1539497E-004  0.4443960E+03  0.7546771E-02  0.1029407E+00
         21   -1    0    0  502  501  0.00000000000E+00  0.00000000000E+00  0.40763722401E+03  0.40763722401E+03  0.00000000000E+00 0. -1.
         21   -1    0    0  501  502 -0.00000000000E+00 -0.00000000000E+00 -0.12111735834E+03  0.12111735834E+03  0.00000000000E+00 0. -1.
      99925    2    1    2    0    0  0.27301872729E+02  0.28671007021E+02  0.68846273942E+02  0.27459573529E+03  0.26286039927E+03 0.  0.
         25    1    3    3    0    0  0.40055833718E+02  0.40133892934E+02  0.53552374357E+02  0.14741290336E+03  0.12509000000E+03 0.  0.
         25    1    3    3    0    0 -0.12753960988E+02 -0.11462885913E+02  0.15293899585E+02  0.12718283193E+03  0.12509000000E+03 0.  0.
         25    1    1    2    0    0 -0.27301872729E+02 -0.28671007021E+02  0.21767359173E+03  0.25415884705E+03  0.12509000000E+03 0.  0.
<mgrwt>
<rscale>  2 0.44439597E+03</rscale>
<asrwt>0</asrwt>
<pdfrwt beam="1">  1       21 0.59946650E-01 0.44439597E+03</pdfrwt>
<pdfrwt beam="2">  1       21 0.17811376E-01 0.44439597E+03</pdfrwt>
<totfact> 0.68896361E+04</totfact>
</mgrwt>
</event>
<event>
 6    0  0.1539497E-004  0.4484818E+03  0.7546771E-02  0.1028176E+00
         21   -1    0    0  502  501  0.00000000000E+00  0.00000000000E+00  0.10234113270E+04  0.10234113270E+04  0.00000000000E+00 0. -1.
         21   -1    0    0  501  502 -0.00000000000E+00 -0.00000000000E+00 -0.49133697119E+02  0.49133697119E+02  0.00000000000E+00 0. -1.
      99925    2    1    2    0    0 -0.91544152676E+02  0.27105860356E+02  0.73205312124E+03  0.78369336628E+03  0.26297996211E+03 0.  0.
         25    1    1    2    0    0  0.91544152676E+02 -0.27105860356E+02  0.24222450866E+03  0.28885165786E+03  0.12509000000E+03 0.  0.
         25    1    3    3    0    0 -0.45328925244E+02  0.38307982956E+02  0.28184117967E+03  0.31401301196E+03  0.12509000000E+03 0.  0.
         25    1    3    3    0    0 -0.46215227432E+02 -0.11202122600E+02  0.45021194157E+03  0.46968035432E+03  0.12509000000E+03 0.  0.
<mgrwt>
<rscale>  2 0.44848180E+03</rscale>
<asrwt>0</asrwt>
<pdfrwt beam="1">  1       21 0.15050165E+00 0.44848180E+03</pdfrwt>
<pdfrwt beam="2">  1       21 0.72255444E-02 0.44848180E+03</pdfrwt>
<totfact> 0.38375973E+04</totfact>
</mgrwt>
</event>
<event>
 6    0  0.1539497E-004  0.4148467E+03  0.7546771E-02  0.1038757E+00
         21   -1    0    0  502  501  0.00000000000E+00  0.00000000000E+00  0.15252661051E+03  0.15252661051E+03  0.00000000000E+00 0. -1.
         21   -1    0    0  501  502 -0.00000000000E+00 -0.00000000000E+00 -0.28207832412E+03  0.28207832412E+03  0.00000000000E+00 0. -1.
      99925    2    1    2    0    0 -0.39447225581E+02  0.42071699731E+02 -0.44634789521E+02  0.27278866962E+03  0.26285981494E+03 0.  0.
         25    1    3    3    0    0 -0.19583988317E+02 -0.14616834029E+02 -0.14620141909E+01  0.12746305355E+03  0.12509000000E+03 0.  0.
         25    1    1    2    0    0  0.39447225581E+02 -0.42071699731E+02 -0.84916924089E+02  0.16181626501E+03  0.12509000000E+03 0.  0.
         25    1    3    3    0    0 -0.19863237264E+02  0.56688533761E+02 -0.43172775330E+02  0.14532561606E+03  0.12509000000E+03 0.  0.
<mgrwt>
<rscale>  2 0.41484672E+03</rscale>
<asrwt>0</asrwt>
<pdfrwt beam="1">  1       21 0.22430384E-01 0.41484672E+03</pdfrwt>
<pdfrwt beam="2">  1       21 0.41482106E-01 0.41484672E+03</pdfrwt>
<totfact> 0.97791717E+04</totfact>
</mgrwt>
</event>
<event>
 6    0  0.1539497E-004  0.4160807E+03  0.7546771E-02  0.1038349E+00
         21   -1    0    0  502  501  0.00000000000E+00  0.00000000000E+00  0.61856190811E+03  0.61856190811E+03  0.00000000000E+00 0.  1.
         21   -1    0    0  501  502 -0.00000000000E+00 -0.00000000000E+00 -0.69970021059E+02  0.69970021059E+02  0.00000000000E+00 0.  1.
      99925    2    1    2    0    0 -0.15531410897E+02  0.51360331652E+02  0.43403164703E+03  0.51062559121E+03  0.26358284349E+03 0.  0.
         25    1    3    3    0    0 -0.11447600402E+02  0.37351805983E+02  0.14555449534E+03  0.19585664191E+03  0.12509000000E+03 0.  0.
         25    1    1    2    0    0  0.15531410897E+02 -0.51360331652E+02  0.11456024002E+03  0.17790633796E+03  0.12509000000E+03 0.  0.
         25    1    3    3    0    0 -0.40838104946E+01  0.14008525670E+02  0.28847715169E+03  0.31476894930E+03  0.12509000000E+03 0.  0.
<mgrwt>
<rscale>  2 0.41608071E+03</rscale>
<asrwt>0</asrwt>
<pdfrwt beam="1">  1       21 0.90964983E-01 0.41608071E+03</pdfrwt>
<pdfrwt beam="2">  1       21 0.10289709E-01 0.41608071E+03</pdfrwt>
<totfact> 0.73625109E+04</totfact>
</mgrwt>
</event>
<event>
 6    0  0.1539497E-004  0.4215635E+03  0.7546771E-02  0.1036559E+00
         21   -1    0    0  502  501  0.00000000000E+00  0.00000000000E+00  0.72917171713E+02  0.72917171713E+02  0.00000000000E+00 0.  1.
         21   -1    0    0  501  502 -0.00000000000E+00 -0.00000000000E+00 -0.60930706404E+03  0.60930706404E+03  0.00000000000E+00 0.  1.
      99925    2    1    2    0    0  0.30075645896E+01 -0.72900134743E+02 -0.39257013495E+03  0.47812841070E+03  0.26300568659E+03 0.  0.
         25    1    3    3    0    0 -0.88697347228E+00 -0.11360304148E+02 -0.24352231053E+03  0.27400815144E+03  0.12509000000E+03 0.  0.
         25    1    1    2    0    0 -0.30075645896E+01  0.72900134743E+02 -0.14381975738E+03  0.20409582505E+03  0.12509000000E+03 0.  0.
         25    1    3    3    0    0  0.38945380619E+01 -0.61539830595E+02 -0.14904782442E+03  0.20412025926E+03  0.12509000000E+03 0.  0.
<mgrwt>
<rscale>  2 0.42156351E+03</rscale>
<asrwt>0</asrwt>
<pdfrwt beam="1">  1       21 0.10723114E-01 0.42156351E+03</pdfrwt>
<pdfrwt beam="2">  1       21 0.89603980E-01 0.42156351E+03</pdfrwt>
<totfact> 0.70743287E+04</totfact>
</mgrwt>
</event>
<event>
 6    0  0.1539497E-004  0.4475706E+03  0.7546771E-02  0.1028449E+00
         21   -1    0    0  502  501  0.00000000000E+00  0.00000000000E+00  0.42039236290E+03  0.42039236290E+03  0.00000000000E+00 0. -1.
         21   -1    0    0  501  502 -0.00000000000E+00 -0.00000000000E+00 -0.11912645301E+03  0.11912645301E+03  0.00000000000E+00 0. -1.
      99925    2    1    2    0    0 -0.10177699428E+03  0.11070378473E+02  0.15331912128E+03  0.32039129549E+03  0.26203572167E+03 0.  0.
         25    1    3    3    0    0 -0.43883238636E+02  0.43510618004E+02  0.82124089645E+02  0.16189745740E+03  0.12509000000E+03 0.  0.
         25    1    3    3    0    0 -0.57893755647E+02 -0.32440239531E+02  0.71195031635E+02  0.15849383809E+03  0.12509000000E+03 0.  0.
         25    1    1    2    0    0  0.10177699428E+03 -0.11070378473E+02  0.14794678861E+03  0.21912752042E+03  0.12509000000E+03 0.  0.
<mgrwt>
<rscale>  2 0.44757056E+03</rscale>
<asrwt>0</asrwt>
<pdfrwt beam="1">  1       21 0.61822406E-01 0.44757056E+03</pdfrwt>
<pdfrwt beam="2">  1       21 0.17518596E-01 0.44757056E+03</pdfrwt>
<totfact> 0.66382234E+04</totfact>
</mgrwt>
</event>
<event>
 6    0  0.1539497E-004  0.4397055E+03  0.7546771E-02  0.1030837E+00
         21   -1    0    0  502  501  0.00000000000E+00  0.00000000000E+00  0.13461552195E+03  0.13461552195E+03  0.00000000000E+00 0. -1.
         21   -1    0    0  501  502 -0.00000000000E+00 -0.00000000000E+00 -0.35906140357E+03  0.35906140357E+03  0.00000000000E+00 0. -1.
      99925    2    1    2    0    0 -0.58618819652E+02  0.61565752273E+02 -0.88288054686E+02  0.29017515696E+03  0.26302154522E+03 0.  0.
         25    1    1    2    0    0  0.58618819652E+02 -0.61565752273E+02 -0.13615782693E+03  0.20350176855E+03  0.12509000000E+03 0.  0.
         25    1    3    3    0    0 -0.53399432718E+02  0.65879087092E+02 -0.49955973474E+02  0.15916865557E+03  0.12509000000E+03 0.  0.
         25    1    3    3    0    0 -0.52193869338E+01 -0.43133348182E+01 -0.38332081212E+02  0.13100650139E+03  0.12509000000E+03 0.  0.
<mgrwt>
<rscale>  2 0.43970553E+03</rscale>
<asrwt>0</asrwt>
<pdfrwt beam="1">  1       21 0.19796400E-01 0.43970553E+03</pdfrwt>
<pdfrwt beam="2">  1       21 0.52803147E-01 0.43970553E+03</pdfrwt>
<totfact> 0.74340562E+04</totfact>
</mgrwt>
</event>
<event>
 6    0  0.1539497E-004  0.3904834E+03  0.7546771E-02  0.1047126E+00
         21   -1    0    0  502  501  0.00000000000E+00  0.00000000000E+00  0.11612638627E+03  0.11612638627E+03  0.00000000000E+00 0. -1.
         21   -1    0    0  501  502 -0.00000000000E+00 -0.00000000000E+00 -0.32825723626E+03  0.32825723626E+03  0.00000000000E+00 0. -1.
      99925    2    1    2    0    0 -0.22486621994E+01  0.13554520025E+02 -0.12664068617E+03  0.29224928156E+03  0.26302661022E+03 0.  0.
         25    1    3    3    0    0  0.12015666528E+02 -0.24510875082E+02 -0.87293455250E+02  0.15496068750E+03  0.12509000000E+03 0.  0.
         25    1    1    2    0    0  0.22486621994E+01 -0.13554520025E+02 -0.85490163821E+02  0.15213434098E+03  0.12509000000E+03 0.  0.
         25    1    3    3    0    0 -0.14264328728E+02  0.38065395106E+02 -0.39347230919E+02  0.13728859406E+03  0.12509000000E+03 0.  0.
<mgrwt>
<rscale>  2 0.39048343E+03</rscale>
<asrwt>0</asrwt>
<pdfrwt beam="1">  1       21 0.17077410E-01 0.39048343E+03</pdfrwt>
<pdfrwt beam="2">  1       21 0.48273122E-01 0.39048343E+03</pdfrwt>
<totfact> 0.12004807E+05</totfact>
</mgrwt>
</event>
<event>
 6    0  0.1539497E-004  0.4110255E+03  0.7546771E-02  0.1040027E+00
         21   -1    0    0  502  501  0.00000000000E+00  0.00000000000E+00  0.88546960443E+02  0.88546960443E+02  0.00000000000E+00 0.  1.
         21   -1    0    0  501  502 -0.00000000000E+00 -0.00000000000E+00 -0.47698418512E+03  0.47698418512E+03  0.00000000000E+00 0.  1.
      99925    2    1    2    0    0 -0.98747263832E+01  0.57085528993E+02 -0.21957460207E+03  0.34754407885E+03  0.26309240397E+03 0.  0.
         25    1    3    3    0    0  0.18226329956E+01  0.12340342157E+02 -0.59171828411E+02  0.13894034480E+03  0.12509000000E+03 0.  0.
         25    1    3    3    0    0 -0.11697359379E+02  0.44745186836E+02 -0.16040277366E+03  0.20860373405E+03  0.12509000000E+03 0.  0.
         25    1    1    2    0    0  0.98747263832E+01 -0.57085528993E+02 -0.16886262261E+03  0.21798706672E+03  0.12509000000E+03 0.  0.
<mgrwt>
<rscale>  2 0.41102555E+03</rscale>
<asrwt>0</asrwt>
<pdfrwt beam="1">  1       21 0.13021612E-01 0.41102555E+03</pdfrwt>
<pdfrwt beam="2">  1       21 0.70144734E-01 0.41102555E+03</pdfrwt>
<totfact> 0.87552399E+04</totfact>
</mgrwt>
</event>
<event>
 6    0  0.1539497E-004  0.4171689E+03  0.7546771E-02  0.1037992E+00
         21   -1    0    0  502  501  0.00000000000E+00  0.00000000000E+00  0.83742590954E+02  0.83742590954E+02  0.00000000000E+00 0.  1.
         21   -1    0    0  501  502 -0.00000000000E+00 -0.00000000000E+00 -0.51953813204E+03  0.51953813204E+03  0.00000000000E+00 0.  1.
      99925    2    1    2    0    0  0.69114077943E+01 -0.33466648144E+02 -0.37690330935E+03  0.46086026395E+03  0.26299865815E+03 0.  0.
         25    1    3    3    0    0  0.40913328179E+02 -0.28694028889E+02 -0.17421055899E+03  0.22021370230E+03  0.12509000000E+03 0.  0.
         25    1    1    2    0    0 -0.69114077943E+01  0.33466648144E+02 -0.58892231730E+02  0.14242045904E+03  0.12509000000E+03 0.  0.
         25    1    3    3    0    0 -0.34001920384E+02 -0.47726192549E+01 -0.20269275036E+03  0.24064656165E+03  0.12509000000E+03 0.  0.
<mgrwt>
<rscale>  2 0.41716888E+03</rscale>
<asrwt>0</asrwt>
<pdfrwt beam="1">  1       21 0.12315087E-01 0.41716888E+03</pdfrwt>
<pdfrwt beam="2">  1       21 0.76402667E-01 0.41716888E+03</pdfrwt>
<totfact> 0.79769501E+04</totfact>
</mgrwt>
</event>
<event>
 6    0  0.1539497E-004  0.4468161E+03  0.7546771E-02  0.1028676E+00
         21   -1    0    0  502  501  0.00000000000E+00  0.00000000000E+00  0.22749784435E+02  0.22749784435E+02  0.00000000000E+00 0. -1.
         21   -1    0    0  501  502 -0.00000000000E+00 -0.00000000000E+00 -0.21939176445E+04  0.21939176445E+04  0.00000000000E+00 0. -1.
      99925    2    1    2    0    0  0.69986758766E+02 -0.74220921762E+02 -0.15042955517E+04  0.15305383774E+04  0.26312682517E+03 0.  0.
         25    1    3    3    0    0  0.12960268079E+00 -0.46790185947E+02 -0.82665967403E+03  0.83737868558E+03  0.12509000000E+03 0.  0.
         25    1    3    3    0    0  0.69857156085E+02 -0.27430735814E+02 -0.67763587771E+03  0.69315969183E+03  0.12509000000E+03 0.  0.
         25    1    1    2    0    0 -0.69986758766E+02  0.74220921762E+02 -0.66687230832E+03  0.68612905152E+03  0.12509000000E+03 0.  0.
<mgrwt>
<rscale>  2 0.44681609E+03</rscale>
<asrwt>0</asrwt>
<pdfrwt beam="1">  1       21 0.33455566E-02 0.44681609E+03</pdfrwt>
<pdfrwt beam="2">  1       21 0.32263494E+00 0.44681609E+03</pdfrwt>
<totfact> 0.11177889E+04</totfact>
</mgrwt>
</event>
<event>
 6    0  0.1539497E-004  0.3934070E+03  0.7546771E-02  0.1046087E+00
         21   -1    0    0  502  501  0.00000000000E+00  0.00000000000E+00  0.37622578089E+03  0.37622578089E+03  0.00000000000E+00 0. -1.
         21   -1    0    0  501  502 -0.00000000000E+00 -0.00000000000E+00 -0.10284320394E+03  0.10284320394E+03  0.00000000000E+00 0. -1.
      99925    2    1    2    0    0 -0.25778042050E+02 -0.12537964731E+00  0.20432810791E+03  0.33387755613E+03  0.26279216814E+03 0.  0.
         25    1    3    3    0    0 -0.18463198267E+02 -0.35292075239E+02  0.79093385478E+02  0.15326347246E+03  0.12509000000E+03 0.  0.
         25    1    1    2    0    0  0.25778042050E+02  0.12537964731E+00  0.69054469034E+02  0.14519142869E+03  0.12509000000E+03 0.  0.
         25    1    3    3    0    0 -0.73148437830E+01  0.35166695592E+02  0.12523472243E+03  0.18061408367E+03  0.12509000000E+03 0.  0.
<mgrwt>
<rscale>  2 0.39340699E+03</rscale>
<asrwt>0</asrwt>
<pdfrwt beam="1">  1       21 0.55327320E-01 0.39340699E+03</pdfrwt>
<pdfrwt beam="2">  1       21 0.15124001E-01 0.39340699E+03</pdfrwt>
<totfact> 0.11245563E+05</totfact>
</mgrwt>
</event>
<event>
 6    0  0.1539497E-004  0.5966603E+03  0.7546771E-02  0.9912359E-01
         21   -1    0    0  502  501  0.00000000000E+00  0.00000000000E+00  0.42430392285E+03  0.42430392285E+03  0.00000000000E+00 0.  1.
         21   -1    0    0  501  502 -0.00000000000E+00 -0.00000000000E+00 -0.20975739344E+03  0.20975739344E+03  0.00000000000E+00 0.  1.
      99925    2    1    2    0    0  0.33339149663E+02 -0.18590977489E+03  0.28611103756E+01  0.32400943670E+03  0.26324890469E+03 0.  0.
         25    1    1    2    0    0 -0.33339149663E+02  0.18590977489E+03  0.21168541904E+03  0.31005187959E+03  0.12509000000E+03 0.  0.
         25    1    3    3    0    0  0.60519719522E+01 -0.13982123131E+03 -0.41651386553E+01  0.18775372052E+03  0.12509000000E+03 0.  0.
         25    1    3    3    0    0  0.27287177711E+02 -0.46088543584E+02  0.70262490309E+01  0.13625571618E+03  0.12509000000E+03 0.  0.
<mgrwt>
<rscale>  2 0.59666032E+03</rscale>
<asrwt>0</asrwt>
<pdfrwt beam="1">  1       21 0.62397636E-01 0.59666032E+03</pdfrwt>
<pdfrwt beam="2">  1       21 0.30846675E-01 0.59666032E+03</pdfrwt>
<totfact> 0.21078062E+04</totfact>
</mgrwt>
</event>
<event>
 6    0  0.1539497E-004  0.5421250E+03  0.7546771E-02  0.1003333E+00
         21   -1    0    0  502  501  0.00000000000E+00  0.00000000000E+00  0.14829006598E+03  0.14829006598E+03  0.00000000000E+00 0.  1.
         21   -1    0    0  501  502 -0.00000000000E+00 -0.00000000000E+00 -0.49548073493E+03  0.49548073493E+03  0.00000000000E+00 0.  1.
      99925    2    1    2    0    0  0.18170943255E+03 -0.20833367339E+02 -0.19435263671E+03  0.37458811337E+03  0.26285159351E+03 0.  0.
         25    1    1    2    0    0 -0.18170943255E+03  0.20833367339E+02 -0.15283803224E+03  0.26918268754E+03  0.12509000000E+03 0.  0.
         25    1    3    3    0    0  0.59537012510E+02  0.16940554691E+01 -0.11985985909E+03  0.18319776092E+03  0.12509000000E+03 0.  0.
         25    1    3    3    0    0  0.12217242004E+03 -0.22527422808E+02 -0.74492777618E+02  0.19139035246E+03  0.12509000000E+03 0.  0.
<mgrwt>
<rscale>  2 0.54212497E+03</rscale>
<asrwt>0</asrwt>
<pdfrwt beam="1">  1       21 0.21807363E-01 0.54212497E+03</pdfrwt>
<pdfrwt beam="2">  1       21 0.72864813E-01 0.54212497E+03</pdfrwt>
<totfact> 0.29705991E+04</totfact>
</mgrwt>
</event>
<event>
 6    0  0.1539497E-004  0.4001786E+03  0.7546771E-02  0.1043718E+00
         21   -1    0    0  502  501  0.00000000000E+00  0.00000000000E+00  0.52806338964E+02  0.52806338964E+02  0.00000000000E+00 0.  1.
         21   -1    0    0  501  502 -0.00000000000E+00 -0.00000000000E+00 -0.75816142839E+03  0.75816142839E+03  0.00000000000E+00 0.  1.
      99925    2    1    2    0    0 -0.28212386022E+02  0.35469782162E+02 -0.45883812194E+03  0.53083892641E+03  0.26306558017E+03 0.  0.
         25    1    3    3    0    0  0.11789914416E+02  0.17048653955E+02 -0.16197909514E+03  0.20570462816E+03  0.12509000000E+03 0.  0.
         25    1    1    2    0    0  0.28212386022E+02 -0.35469782162E+02 -0.24651696748E+03  0.28012884094E+03  0.12509000000E+03 0.  0.
         25    1    3    3    0    0 -0.40002300438E+02  0.18421128207E+02 -0.29685902680E+03  0.32513429825E+03  0.12509000000E+03 0.  0.
<mgrwt>
<rscale>  2 0.40017861E+03</rscale>
<asrwt>0</asrwt>
<pdfrwt beam="1">  1       21 0.77656385E-02 0.40017861E+03</pdfrwt>
<pdfrwt beam="2">  1       21 0.11149432E+00 0.40017861E+03</pdfrwt>
<totfact> 0.74465817E+04</totfact>
</mgrwt>
</event>
<event>
 6    0  0.1539497E-004  0.4319277E+03  0.7546771E-02  0.1033253E+00
         21   -1    0    0  502  501  0.00000000000E+00  0.00000000000E+00  0.15375598780E+04  0.15375598780E+04  0.00000000000E+00 0.  1.
         21   -1    0    0  501  502 -0.00000000000E+00 -0.00000000000E+00 -0.30334034356E+02  0.30334034356E+02  0.00000000000E+00 0.  1.
      99925    2    1    2    0    0 -0.85958689105E+02  0.20408354798E+02  0.10291433989E+04  0.10658822299E+04  0.26298934482E+03 0.  0.
         25    1    3    3    0    0 -0.79491180683E+02  0.31868966320E+02  0.57292665325E+03  0.59264402209E+03  0.12509000000E+03 0.  0.
         25    1    1    2    0    0  0.85958689105E+02 -0.20408354798E+02  0.47808244475E+03  0.50201168239E+03  0.12509000000E+03 0.  0.
         25    1    3    3    0    0 -0.64675084217E+01 -0.11460611522E+02  0.45621674561E+03  0.47323820784E+03  0.12509000000E+03 0.  0.
<mgrwt>
<rscale>  2 0.43192774E+03</rscale>
<asrwt>0</asrwt>
<pdfrwt beam="1">  1       21 0.22611169E+00 0.43192774E+03</pdfrwt>
<pdfrwt beam="2">  1       21 0.44608884E-02 0.43192774E+03</pdfrwt>
<totfact> 0.26623803E+04</totfact>
</mgrwt>
</event>
<event>
 6    0  0.1539497E-004  0.4183383E+03  0.7546771E-02  0.1037608E+00
         21   -1    0    0  502  501  0.00000000000E+00  0.00000000000E+00  0.49597363681E+02  0.49597363681E+02  0.00000000000E+00 0.  1.
         21   -1    0    0  501  502 -0.00000000000E+00 -0.00000000000E+00 -0.88213836873E+03  0.88213836873E+03  0.00000000000E+00 0.  1.
      99925    2    1    2    0    0 -0.48010436032E+02 -0.54733195858E+02 -0.56922123848E+03  0.63126022215E+03  0.26301316515E+03 0.  0.
         25    1    1    2    0    0  0.48010436032E+02  0.54733195858E+02 -0.26331976657E+03  0.30047551026E+03  0.12509000000E+03 0.  0.
         25    1    3    3    0    0  0.34857935243E+01 -0.45186223742E+02 -0.33743309592E+03  0.36271551923E+03  0.12509000000E+03 0.  0.
         25    1    3    3    0    0 -0.51496229556E+02 -0.95469721160E+01 -0.23178814256E+03  0.26854470292E+03  0.12509000000E+03 0.  0.
<mgrwt>
<rscale>  2 0.41833832E+03</rscale>
<asrwt>0</asrwt>
<pdfrwt beam="1">  1       21 0.72937296E-02 0.41833832E+03</pdfrwt>
<pdfrwt beam="2">  1       21 0.12972624E+00 0.41833832E+03</pdfrwt>
<totfact> 0.56409339E+04</totfact>
</mgrwt>
</event>
<event>
 6    0  0.1539497E-004  0.3906857E+03  0.7546771E-02  0.1047053E+00
         21   -1    0    0  502  501  0.00000000000E+00  0.00000000000E+00  0.31692332205E+03  0.31692332205E+03  0.00000000000E+00 0. -1.
         21   -1    0    0  501  502 -0.00000000000E+00 -0.00000000000E+00 -0.12040398973E+03  0.12040398973E+03  0.00000000000E+00 0. -1.
      99925    2    1    2    0    0 -0.12276389173E+02 -0.77334355692E+01  0.11385212105E+03  0.28668903087E+03  0.26271235067E+03 0.  0.
         25    1    3    3    0    0 -0.17842056595E+02  0.12175574150E+02  0.19015537161E+02  0.12835763453E+03  0.12509000000E+03 0.  0.
         25    1    1    2    0    0  0.12276389173E+02  0.77334355692E+01  0.82667211272E+02  0.15063828091E+03  0.12509000000E+03 0.  0.
         25    1    3    3    0    0  0.55656674215E+01 -0.19909009719E+02  0.94836583892E+02  0.15833139634E+03  0.12509000000E+03 0.  0.
<mgrwt>
<rscale>  2 0.39068572E+03</rscale>
<asrwt>0</asrwt>
<pdfrwt beam="1">  1       21 0.46606371E-01 0.39068572E+03</pdfrwt>
<pdfrwt beam="2">  1       21 0.17706469E-01 0.39068572E+03</pdfrwt>
<totfact> 0.12078901E+05</totfact>
</mgrwt>
</event>
<event>
 6    0  0.1539497E-004  0.5346162E+03  0.7546771E-02  0.1005119E+00
         21   -1    0    0  502  501  0.00000000000E+00  0.00000000000E+00  0.16255758336E+03  0.16255758336E+03  0.00000000000E+00 0.  1.
         21   -1    0    0  501  502 -0.00000000000E+00 -0.00000000000E+00 -0.43955889840E+03  0.43955889840E+03  0.00000000000E+00 0.  1.
      99925    2    1    2    0    0 -0.87182785853E+02 -0.13121894333E+03 -0.71781448225E+02  0.31474572633E+03  0.26285556243E+03 0.  0.
         25    1    3    3    0    0 -0.18692120593E+02 -0.53264225214E+02 -0.65575526092E+02  0.15209908212E+03  0.12509000000E+03 0.  0.
         25    1    1    2    0    0  0.87182785853E+02  0.13121894333E+03 -0.20521986681E+03  0.28737075542E+03  0.12509000000E+03 0.  0.
         25    1    3    3    0    0 -0.68490665260E+02 -0.77954718116E+02 -0.62059221328E+01  0.16264664421E+03  0.12509000000E+03 0.  0.
<mgrwt>
<rscale>  2 0.53461624E+03</rscale>
<asrwt>0</asrwt>
<pdfrwt beam="1">  1       21 0.23905527E-01 0.53461624E+03</pdfrwt>
<pdfrwt beam="2">  1       21 0.64641014E-01 0.53461624E+03</pdfrwt>
<totfact> 0.32620026E+04</totfact>
</mgrwt>
</event>
<event>
 6    0  0.1539497E-004  0.4392153E+03  0.7546771E-02  0.1030988E+00
         21   -1    0    0  502  501  0.00000000000E+00  0.00000000000E+00  0.12437441682E+03  0.12437441682E+03  0.00000000000E+00 0. -1.
         21   -1    0    0  501  502 -0.00000000000E+00 -0.00000000000E+00 -0.38776081796E+03  0.38776081796E+03  0.00000000000E+00 0. -1.
      99925    2    1    2    0    0 -0.13357185553E+02  0.42926277261E+02 -0.67416357188E+02  0.27533817840E+03  0.26314457544E+03 0.  0.
         25    1    1    2    0    0  0.13357185553E+02 -0.42926277261E+02 -0.19597004395E+03  0.23679705638E+03  0.12509000000E+03 0.  0.
         25    1    3    3    0    0  0.95728237208E+01  0.35382753361E+02  0.17782734125E+01  0.13036199042E+03  0.12509000000E+03 0.  0.
         25    1    3    3    0    0 -0.22930009274E+02  0.75435239001E+01 -0.69194630601E+02  0.14497618798E+03  0.12509000000E+03 0.  0.
<mgrwt>
<rscale>  2 0.43921533E+03</rscale>
<asrwt>0</asrwt>
<pdfrwt beam="1">  1       21 0.18290356E-01 0.43921533E+03</pdfrwt>
<pdfrwt beam="2">  1       21 0.57023648E-01 0.43921533E+03</pdfrwt>
<totfact> 0.73165705E+04</totfact>
</mgrwt>
</event>
<event>
 6    0  0.1539497E-004  0.4223369E+03  0.7546771E-02  0.1036308E+00
         21   -1    0    0  502  501  0.00000000000E+00  0.00000000000E+00  0.19662208541E+03  0.19662208541E+03  0.00000000000E+00 0.  1.
         21   -1    0    0  501  502 -0.00000000000E+00 -0.00000000000E+00 -0.22679098390E+03  0.22679098390E+03  0.00000000000E+00 0.  1.
      99925    2    1    2    0    0  0.14867334406E+01  0.45324326909E+01 -0.98388461764E+02  0.28085020515E+03  0.26300911582E+03 0.  0.
         25    1    1    2    0    0 -0.14867334406E+01 -0.45324326909E+01  0.68219563275E+02  0.14256286415E+03  0.12509000000E+03 0.  0.
         25    1    3    3    0    0  0.19628416048E+02  0.11996394589E+02 -0.86199798455E+02  0.15364602681E+03  0.12509000000E+03 0.  0.
         25    1    3    3    0    0 -0.18141682607E+02 -0.74639618980E+01 -0.12188663309E+02  0.12720417834E+03  0.12509000000E+03 0.  0.
<mgrwt>
<rscale>  2 0.42233691E+03</rscale>
<asrwt>0</asrwt>
<pdfrwt beam="1">  1       21 0.28915013E-01 0.42233691E+03</pdfrwt>
<pdfrwt beam="2">  1       21 0.33351615E-01 0.42233691E+03</pdfrwt>
<totfact> 0.92868202E+04</totfact>
</mgrwt>
</event>
<event>
 6    0  0.1539497E-004  0.4399972E+03  0.7546771E-02  0.1030748E+00
         21   -1    0    0  502  501  0.00000000000E+00  0.00000000000E+00  0.13027648727E+04  0.13027648727E+04  0.00000000000E+00 0.  1.
         21   -1    0    0  501  502 -0.00000000000E+00 -0.00000000000E+00 -0.37151277264E+02  0.37151277264E+02  0.00000000000E+00 0.  1.
      99925    2    1    2    0    0  0.99417417794E+01 -0.52819625340E+02  0.10584443759E+04  0.10920142648E+04  0.26325255284E+03 0.  0.
         25    1    3    3    0    0 -0.12356494696E+02  0.11370311037E+02  0.48144262455E+03  0.49771123733E+03  0.12509000000E+03 0.  0.
         25    1    3    3    0    0  0.22298236476E+02 -0.64189936377E+02  0.57700175133E+03  0.59430302743E+03  0.12509000000E+03 0.  0.
         25    1    1    2    0    0 -0.99417417794E+01  0.52819625340E+02  0.20716921954E+03  0.24790188518E+03  0.12509000000E+03 0.  0.
<mgrwt>
<rscale>  2 0.43999718E+03</rscale>
<asrwt>0</asrwt>
<pdfrwt beam="1">  1       21 0.19158304E+00 0.43999718E+03</pdfrwt>
<pdfrwt beam="2">  1       21 0.54634240E-02 0.43999718E+03</pdfrwt>
<totfact> 0.31493757E+04</totfact>
</mgrwt>
</event>
<event>
 6    0  0.1539497E-004  0.4272261E+03  0.7546771E-02  0.1034740E+00
         21   -1    0    0  502  501  0.00000000000E+00  0.00000000000E+00  0.48072682408E+03  0.48072682408E+03  0.00000000000E+00 0. -1.
         21   -1    0    0  501  502 -0.00000000000E+00 -0.00000000000E+00 -0.94919894429E+02  0.94919894429E+02  0.00000000000E+00 0. -1.
      99925    2    1    2    0    0 -0.43224065503E+02 -0.60484205052E+02  0.30310314264E+03  0.40827263633E+03  0.26322684437E+03 0.  0.
         25    1    3    3    0    0 -0.60688164501E+02 -0.43061527089E+02  0.14954990222E+03  0.20868643890E+03  0.12509000000E+03 0.  0.
         25    1    1    2    0    0  0.43224065503E+02  0.60484205052E+02  0.82703787006E+02  0.16737408218E+03  0.12509000000E+03 0.  0.
         25    1    3    3    0    0  0.17464098998E+02 -0.17422677963E+02  0.15355324042E+03  0.19958619743E+03  0.12509000000E+03 0.  0.
<mgrwt>
<rscale>  2 0.42722612E+03</rscale>
<asrwt>0</asrwt>
<pdfrwt beam="1">  1       21 0.70695120E-01 0.42722612E+03</pdfrwt>
<pdfrwt beam="2">  1       21 0.13958808E-01 0.42722612E+03</pdfrwt>
<totfact> 0.75456218E+04</totfact>
</mgrwt>
</event>
<event>
 6    0  0.1539497E-004  0.3897386E+03  0.7546771E-02  0.1047392E+00
         21   -1    0    0  502  501  0.00000000000E+00  0.00000000000E+00  0.70130390684E+03  0.70130390684E+03  0.00000000000E+00 0. -1.
         21   -1    0    0  501  502 -0.00000000000E+00 -0.00000000000E+00 -0.54147784781E+02  0.54147784781E+02  0.00000000000E+00 0. -1.
      99925    2    1    2    0    0 -0.13771734284E+02 -0.10782708554E+02  0.43559693957E+03  0.50905623049E+03  0.26284524834E+03 0.  0.
         25    1    3    3    0    0 -0.10774384559E+02  0.12021028208E+02  0.28680106001E+03  0.31330966886E+03  0.12509000000E+03 0.  0.
         25    1    3    3    0    0 -0.29973497244E+01 -0.22803736761E+02  0.14879587956E+03  0.19574656163E+03  0.12509000000E+03 0.  0.
         25    1    1    2    0    0  0.13771734284E+02  0.10782708554E+02  0.21155918249E+03  0.24639546113E+03  0.12509000000E+03 0.  0.
<mgrwt>
<rscale>  2 0.38973865E+03</rscale>
<asrwt>0</asrwt>
<pdfrwt beam="1">  1       21 0.10313292E+00 0.38973865E+03</pdfrwt>
<pdfrwt beam="2">  1       21 0.79629099E-02 0.38973865E+03</pdfrwt>
<totfact> 0.86525391E+04</totfact>
</mgrwt>
</event>
<event>
 6    0  0.1539497E-004  0.4300077E+03  0.7546771E-02  0.1033858E+00
         21   -1    0    0  502  501  0.00000000000E+00  0.00000000000E+00  0.53487313960E+02  0.53487313960E+02  0.00000000000E+00 0.  1.
         21   -1    0    0  501  502 -0.00000000000E+00 -0.00000000000E+00 -0.86425473247E+03  0.86425473247E+03  0.00000000000E+00 0.  1.
      99925    2    1    2    0    0 -0.38236957528E+02  0.72130518644E+02 -0.59093093703E+03  0.65195930935E+03  0.26303363296E+03 0.  0.
         25    1    3    3    0    0 -0.27056120814E+02  0.62624636838E+02 -0.23995802488E+03  0.27907210648E+03  0.12509000000E+03 0.  0.
         25    1    3    3    0    0 -0.11180836714E+02  0.95058818064E+01 -0.35097291215E+03  0.37288720287E+03  0.12509000000E+03 0.  0.
         25    1    1    2    0    0  0.38236957528E+02 -0.72130518644E+02 -0.21983648148E+03  0.26578273708E+03  0.12509000000E+03 0.  0.
<mgrwt>
<rscale>  2 0.43000774E+03</rscale>
<asrwt>0</asrwt>
<pdfrwt beam="1">  1       21 0.78657821E-02 0.43000774E+03</pdfrwt>
<pdfrwt beam="2">  1       21 0.12709627E+00 0.43000774E+03</pdfrwt>
<totfact> 0.51903773E+04</totfact>
</mgrwt>
</event>
<event>
 6    0  0.1539497E-004  0.4528032E+03  0.7546771E-02  0.1026889E+00
         21   -1    0    0  502  501  0.00000000000E+00  0.00000000000E+00  0.66217915335E+02  0.66217915335E+02  0.00000000000E+00 0.  1.
         21   -1    0    0  501  502 -0.00000000000E+00 -0.00000000000E+00 -0.77407566382E+03  0.77407566382E+03  0.00000000000E+00 0.  1.
      99925    2    1    2    0    0 -0.10728372043E+03  0.15459731910E+02 -0.40118293481E+03  0.49180290579E+03  0.26300865192E+03 0.  0.
         25    1    1    2    0    0  0.10728372043E+03 -0.15459731910E+02 -0.30667481368E+03  0.34849067337E+03  0.12509000000E+03 0.  0.
         25    1    3    3    0    0 -0.42969199972E+02 -0.62874281052E+01 -0.13012130244E+03  0.18564736828E+03  0.12509000000E+03 0.  0.
         25    1    3    3    0    0 -0.64314520454E+02  0.21747160016E+02 -0.27106163236E+03  0.30615553751E+03  0.12509000000E+03 0.  0.
<mgrwt>
<rscale>  2 0.45280317E+03</rscale>
<asrwt>0</asrwt>
<pdfrwt beam="1">  1       21 0.97379296E-02 0.45280317E+03</pdfrwt>
<pdfrwt beam="2">  1       21 0.11383465E+00 0.45280317E+03</pdfrwt>
<totfact> 0.46676022E+04</totfact>
</mgrwt>
</event>
<event>
 6    0  0.1539497E-004  0.4135154E+03  0.7546771E-02  0.1039198E+00
         21   -1    0    0  502  501  0.00000000000E+00  0.00000000000E+00  0.14331239381E+03  0.14331239381E+03  0.00000000000E+00 0.  1.
         21   -1    0    0  501  502 -0.00000000000E+00 -0.00000000000E+00 -0.29829069860E+03  0.29829069860E+03  0.00000000000E+00 0.  1.
      99925    2    1    2    0    0 -0.19236409612E+02 -0.59505246142E+02 -0.75188084797E+02  0.28059097771E+03  0.26299645417E+03 0.  0.
         25    1    1    2    0    0  0.19236409612E+02  0.59505246142E+02 -0.79790219992E+02  0.16101211470E+03  0.12509000000E+03 0.  0.
         25    1    3    3    0    0  0.14259475060E+02 -0.66621191607E+01 -0.10561011925E+02  0.12651782299E+03  0.12509000000E+03 0.  0.
         25    1    3    3    0    0 -0.33495884672E+02 -0.52843126981E+02 -0.64627072871E+02  0.15407315473E+03  0.12509000000E+03 0.  0.
<mgrwt>
<rscale>  2 0.41351544E+03</rscale>
<asrwt>0</asrwt>
<pdfrwt beam="1">  1       21 0.21075352E-01 0.41351544E+03</pdfrwt>
<pdfrwt beam="2">  1       21 0.43866278E-01 0.41351544E+03</pdfrwt>
<totfact> 0.98148935E+04</totfact>
</mgrwt>
</event>
<event>
 5    0  0.2099486E-004  0.4228525E+03  0.7546771E-02  0.1036142E+00
         21   -1    0    0  502  501  0.00000000000E+00  0.00000000000E+00  0.22444659470E+03  0.22444659470E+03  0.00000000000E+00 0.  1.
         21   -1    0    0  501  502 -0.00000000000E+00 -0.00000000000E+00 -0.19916118745E+03  0.19916118745E+03  0.00000000000E+00 0.  1.
         25    1    1    2    0    0  0.66591928379E+01 -0.50087388161E+02  0.38583852426E+01  0.13496476036E+03  0.12509000000E+03 0.  0.
         25    1    1    2    0    0 -0.48834354951E+02  0.34806353912E+02 -0.36855023620E+02  0.14353423760E+03  0.12509000000E+03 0.  0.
         25    1    1    2    0    0  0.42175162113E+02  0.15281034249E+02  0.58282045629E+02  0.14510878419E+03  0.12509000000E+03 0.  0.
<mgrwt>
<rscale>  2 0.42285246E+03</rscale>
<asrwt>0</asrwt>
<pdfrwt beam="1">  1       21 0.33006852E-01 0.42285246E+03</pdfrwt>
<pdfrwt beam="2">  1       21 0.29288410E-01 0.42285246E+03</pdfrwt>
<totfact> 0.92441014E+04</totfact>
</mgrwt>
</event>
<event>
 6    0  0.1539497E-004  0.5478224E+03  0.7546771E-02  0.1001999E+00
         21   -1    0    0  502  501  0.00000000000E+00  0.00000000000E+00  0.91426597907E+02  0.91426597907E+02  0.00000000000E+00 0.  1.
         21   -1    0    0  501  502 -0.00000000000E+00 -0.00000000000E+00 -0.82062928806E+03  0.82062928806E+03  0.00000000000E+00 0.  1.
      99925    2    1    2    0    0  0.63090636860E+02 -0.10911221942E+03 -0.20038327453E+03  0.35421774876E+03  0.26349734712E+03 0.  0.
         25    1    1    2    0    0 -0.63090636860E+02  0.10911221942E+03 -0.52881941562E+03  0.55783813720E+03  0.12509000000E+03 0.  0.
         25    1    3    3    0    0  0.18701784512E+02 -0.93552523029E+02 -0.92770600077E+02  0.18263549394E+03  0.12509000000E+03 0.  0.
         25    1    3    3    0    0  0.44388852348E+02 -0.15559696389E+02 -0.10761267445E+03  0.17158225482E+03  0.12509000000E+03 0.  0.
<mgrwt>
<rscale>  2 0.54782239E+03</rscale>
<asrwt>0</asrwt>
<pdfrwt beam="1">  1       21 0.13445088E-01 0.54782239E+03</pdfrwt>
<pdfrwt beam="2">  1       21 0.12068077E+00 0.54782239E+03</pdfrwt>
<totfact> 0.21908046E+04</totfact>
</mgrwt>
</event>
<event>
 6    0  0.1539497E-004  0.4093520E+03  0.7546771E-02  0.1040589E+00
         21   -1    0    0  502  501  0.00000000000E+00  0.00000000000E+00  0.19841470130E+03  0.19841470130E+03  0.00000000000E+00 0.  1.
         21   -1    0    0  501  502 -0.00000000000E+00 -0.00000000000E+00 -0.21113491938E+03  0.21113491938E+03  0.00000000000E+00 0.  1.
      99925    2    1    2    0    0 -0.20243057177E+02 -0.43875957905E+02 -0.46265075480E+02  0.27131920940E+03  0.26294253200E+03 0.  0.
         25    1    1    2    0    0  0.20243057177E+02  0.43875957905E+02  0.33544857398E+02  0.13823041128E+03  0.12509000000E+03 0.  0.
         25    1    3    3    0    0 -0.15020397290E+02 -0.62039344460E+02 -0.16919430645E+02  0.14145058441E+03  0.12509000000E+03 0.  0.
         25    1    3    3    0    0 -0.52226598869E+01  0.18163386555E+02 -0.29345644835E+02  0.12986862500E+03  0.12509000000E+03 0.  0.
<mgrwt>
<rscale>  2 0.40935203E+03</rscale>
<asrwt>0</asrwt>
<pdfrwt beam="1">  1       21 0.29178633E-01 0.40935203E+03</pdfrwt>
<pdfrwt beam="2">  1       21 0.31049253E-01 0.40935203E+03</pdfrwt>
<totfact> 0.10551853E+05</totfact>
</mgrwt>
</event>
<event>
 6    0  0.1539497E-004  0.4104704E+03  0.7546771E-02  0.1040213E+00
         21   -1    0    0  502  501  0.00000000000E+00  0.00000000000E+00  0.15268914280E+03  0.15268914280E+03  0.00000000000E+00 0. -1.
         21   -1    0    0  501  502 -0.00000000000E+00 -0.00000000000E+00 -0.27586426843E+03  0.27586426843E+03  0.00000000000E+00 0. -1.
      99925    2    1    2    0    0 -0.32289717682E+02  0.53750277289E+02 -0.87765188219E+02  0.28421668706E+03  0.26295375785E+03 0.  0.
         25    1    3    3    0    0 -0.12628650161E+02  0.39480309926E+02 -0.84894722054E+02  0.15675713575E+03  0.12509000000E+03 0.  0.
         25    1    1    2    0    0  0.32289717682E+02 -0.53750277289E+02 -0.35409937410E+02  0.14433672417E+03  0.12509000000E+03 0.  0.
         25    1    3    3    0    0 -0.19661067521E+02  0.14269967363E+02 -0.28704661654E+01  0.12745955131E+03  0.12509000000E+03 0.  0.
<mgrwt>
<rscale>  2 0.41047036E+03</rscale>
<asrwt>0</asrwt>
<pdfrwt beam="1">  1       21 0.22454286E-01 0.41047036E+03</pdfrwt>
<pdfrwt beam="2">  1       21 0.40568274E-01 0.41047036E+03</pdfrwt>
<totfact> 0.10227334E+05</totfact>
</mgrwt>
</event>
<event>
 6    0  0.1539497E-004  0.5020836E+03  0.7546771E-02  0.1013237E+00
         21   -1    0    0  502  501  0.00000000000E+00  0.00000000000E+00  0.49891471617E+03  0.49891471617E+03  0.00000000000E+00 0. -1.
         21   -1    0    0  501  502 -0.00000000000E+00 -0.00000000000E+00 -0.12631813460E+03  0.12631813460E+03  0.00000000000E+00 0. -1.
      99925    2    1    2    0    0 -0.27989715370E+02 -0.76188582192E+02  0.64090359986E+02  0.28257891298E+03  0.26297365571E+03 0.  0.
         25    1    3    3    0    0 -0.21548987944E+02 -0.55246416374E+02 -0.39804558632E+01  0.13849143487E+03  0.12509000000E+03 0.  0.
         25    1    1    2    0    0  0.27989715370E+02  0.76188582192E+02  0.30850622159E+03  0.34265393779E+03  0.12509000000E+03 0.  0.
         25    1    3    3    0    0 -0.64407274258E+01 -0.20942165819E+02  0.68070815849E+02  0.14408747811E+03  0.12509000000E+03 0.  0.
<mgrwt>
<rscale>  2 0.50208356E+03</rscale>
<asrwt>0</asrwt>
<pdfrwt beam="1">  1       21 0.73369811E-01 0.50208356E+03</pdfrwt>
<pdfrwt beam="2">  1       21 0.18576196E-01 0.50208356E+03</pdfrwt>
<totfact> 0.40049382E+04</totfact>
</mgrwt>
</event>
<event>
 6    0  0.1539497E-004  0.4914473E+03  0.7546771E-02  0.1016036E+00
         21   -1    0    0  502  501  0.00000000000E+00  0.00000000000E+00  0.11476852261E+03  0.11476852261E+03  0.00000000000E+00 0.  1.
         21   -1    0    0  501  502 -0.00000000000E+00 -0.00000000000E+00 -0.52610344960E+03  0.52610344960E+03  0.00000000000E+00 0.  1.
      99925    2    1    2    0    0 -0.13150907987E+03  0.23954451737E+02 -0.32302540389E+03  0.43761220291E+03  0.26323102919E+03 0.  0.
         25    1    3    3    0    0 -0.48979527739E+02  0.19684283339E+02 -0.98931947607E+02  0.16799256979E+03  0.12509000000E+03 0.  0.
         25    1    3    3    0    0 -0.82529552134E+02  0.42701683981E+01 -0.22409345628E+03  0.26961963311E+03  0.12509000000E+03 0.  0.
         25    1    1    2    0    0  0.13150907987E+03 -0.23954451737E+02 -0.88309523101E+02  0.20325976930E+03  0.12509000000E+03 0.  0.
<mgrwt>
<rscale>  2 0.49144731E+03</rscale>
<asrwt>0</asrwt>
<pdfrwt beam="1">  1       21 0.16877724E-01 0.49144731E+03</pdfrwt>
<pdfrwt beam="2">  1       21 0.77368153E-01 0.49144731E+03</pdfrwt>
<totfact> 0.42589733E+04</totfact>
</mgrwt>
</event>
<event>
 6    0  0.1539497E-004  0.4519233E+03  0.7546771E-02  0.1027150E+00
         21   -1    0    0  502  501  0.00000000000E+00  0.00000000000E+00  0.13321612624E+03  0.13321612624E+03  0.00000000000E+00 0.  1.
         21   -1    0    0  501  502 -0.00000000000E+00 -0.00000000000E+00 -0.38327696024E+03  0.38327696024E+03  0.00000000000E+00 0.  1.
      99925    2    1    2    0    0 -0.45038271508E+02  0.73987960400E+01 -0.43836631611E+02  0.27101575997E+03  0.26352363043E+03 0.  0.
         25    1    3    3    0    0 -0.79411815147E+01  0.36367422116E+02 -0.49614963149E+00  0.13051209147E+03  0.12509000000E+03 0.  0.
         25    1    1    2    0    0  0.45038271508E+02 -0.73987960400E+01 -0.20622420239E+03  0.24547732652E+03  0.12509000000E+03 0.  0.
         25    1    3    3    0    0 -0.37097089993E+02 -0.28968626076E+02 -0.43340481979E+02  0.14050366850E+03  0.12509000000E+03 0.  0.
<mgrwt>
<rscale>  2 0.45192332E+03</rscale>
<asrwt>0</asrwt>
<pdfrwt beam="1">  1       21 0.19590607E-01 0.45192332E+03</pdfrwt>
<pdfrwt beam="2">  1       21 0.56364259E-01 0.45192332E+03</pdfrwt>
<totfact> 0.65716445E+04</totfact>
</mgrwt>
</event>
<event>
 6    0  0.1539497E-004  0.4029772E+03  0.7546771E-02  0.1042754E+00
         21   -1    0    0  502  501  0.00000000000E+00  0.00000000000E+00  0.60975295546E+02  0.60975295546E+02  0.00000000000E+00 0. -1.
         21   -1    0    0  501  502 -0.00000000000E+00 -0.00000000000E+00 -0.66580490745E+03  0.66580490745E+03  0.00000000000E+00 0. -1.
      99925    2    1    2    0    0 -0.11222349862E+01 -0.24490957604E+02 -0.32160039816E+03  0.41618824876E+03  0.26302999049E+03 0.  0.
         25    1    3    3    0    0 -0.31073710256E+02 -0.39474502215E+01 -0.20016372234E+03  0.23810540035E+03  0.12509000000E+03 0.  0.
         25    1    1    2    0    0  0.11222349862E+01  0.24490957604E+02 -0.28322921374E+03  0.31059195423E+03  0.12509000000E+03 0.  0.
         25    1    3    3    0    0  0.29951475270E+02 -0.20543507383E+02 -0.12143667582E+03  0.17808284842E+03  0.12509000000E+03 0.  0.
<mgrwt>
<rscale>  2 0.40297718E+03</rscale>
<asrwt>0</asrwt>
<pdfrwt beam="1">  1       21 0.89669544E-02 0.40297718E+03</pdfrwt>
<pdfrwt beam="2">  1       21 0.97912495E-01 0.40297718E+03</pdfrwt>
<totfact> 0.79255841E+04</totfact>
</mgrwt>
</event>
<event>
 6    0  0.1539497E-004  0.4196755E+03  0.7546771E-02  0.1037172E+00
         21   -1    0    0  502  501  0.00000000000E+00  0.00000000000E+00  0.34399527833E+02  0.34399527833E+02  0.00000000000E+00 0. -1.
         21   -1    0    0  501  502 -0.00000000000E+00 -0.00000000000E+00 -0.12800143994E+04  0.12800143994E+04  0.00000000000E+00 0. -1.
      99925    2    1    2    0    0  0.65750178220E+02  0.15945975276E+02 -0.70815044139E+03  0.75845270388E+03  0.26305150888E+03 0.  0.
         25    1    3    3    0    0 -0.29807423711E+01  0.17197319654E+02 -0.28083923653E+03  0.30793313804E+03  0.12509000000E+03 0.  0.
         25    1    1    2    0    0 -0.65750178220E+02 -0.15945975276E+02 -0.53746443016E+03  0.55596122333E+03  0.12509000000E+03 0.  0.
         25    1    3    3    0    0  0.68730920591E+02 -0.12513443778E+01 -0.42731120486E+03  0.45051956585E+03  0.12509000000E+03 0.  0.
<mgrwt>
<rscale>  2 0.41967555E+03</rscale>
<asrwt>0</asrwt>
<pdfrwt beam="1">  1       21 0.50587544E-02 0.41967555E+03</pdfrwt>
<pdfrwt beam="2">  1       21 0.18823740E+00 0.41967555E+03</pdfrwt>
<totfact> 0.38151617E+04</totfact>
</mgrwt>
</event>
<event>
 6    0  0.1539497E-004  0.4903329E+03  0.7546771E-02  0.1016333E+00
         21   -1    0    0  502  501  0.00000000000E+00  0.00000000000E+00  0.62971144858E+03  0.62971144858E+03  0.00000000000E+00 0.  1.
         21   -1    0    0  501  502 -0.00000000000E+00 -0.00000000000E+00 -0.95450992407E+02  0.95450992407E+02  0.00000000000E+00 0.  1.
      99925    2    1    2    0    0  0.51983699748E+02  0.87756275221E+02  0.17698891183E+03  0.33312426252E+03  0.26314108476E+03 0.  0.
         25    1    1    2    0    0 -0.51983699748E+02 -0.87756275221E+02  0.35727154434E+03  0.39203817847E+03  0.12509000000E+03 0.  0.
         25    1    3    3    0    0  0.25239877484E+02  0.73780068147E+02  0.12870319795E+03  0.19568487712E+03  0.12509000000E+03 0.  0.
         25    1    3    3    0    0  0.26743822265E+02  0.13976207074E+02  0.48285713879E+02  0.13743938540E+03  0.12509000000E+03 0.  0.
<mgrwt>
<rscale>  2 0.49033288E+03</rscale>
<asrwt>0</asrwt>
<pdfrwt beam="1">  1       21 0.92604623E-01 0.49033288E+03</pdfrwt>
<pdfrwt beam="2">  1       21 0.14036911E-01 0.49033288E+03</pdfrwt>
<totfact> 0.39404742E+04</totfact>
</mgrwt>
</event>
<event>
 6    0  0.1539497E-004  0.4229678E+03  0.7546771E-02  0.1036105E+00
         21   -1    0    0  502  501  0.00000000000E+00  0.00000000000E+00  0.47173665945E+02  0.47173665945E+02  0.00000000000E+00 0.  1.
         21   -1    0    0  501  502 -0.00000000000E+00 -0.00000000000E+00 -0.94810167544E+03  0.94810167544E+03  0.00000000000E+00 0.  1.
      99925    2    1    2    0    0  0.55457843002E+02  0.29822535030E+02 -0.47120356363E+03  0.54330679887E+03  0.26302951047E+03 0.  0.
         25    1    1    2    0    0 -0.55457843002E+02 -0.29822535030E+02 -0.42972444586E+03  0.45196854251E+03  0.12509000000E+03 0.  0.
         25    1    3    3    0    0 -0.70795416533E+01 -0.74036546402E+01 -0.23009328440E+03  0.26209800006E+03  0.12509000000E+03 0.  0.
         25    1    3    3    0    0  0.62537384655E+02  0.37226189671E+02 -0.24111027924E+03  0.28120879881E+03  0.12509000000E+03 0.  0.
<mgrwt>
<rscale>  2 0.42296776E+03</rscale>
<asrwt>0</asrwt>
<pdfrwt beam="1">  1       21 0.69373037E-02 0.42296776E+03</pdfrwt>
<pdfrwt beam="2">  1       21 0.13942672E+00 0.42296776E+03</pdfrwt>
<totfact> 0.50954259E+04</totfact>
</mgrwt>
</event>
<event>
 5    0  0.1539497E-004  0.4898381E+03  0.7546771E-02  0.1016466E+00
         21   -1    0    0  502  501  0.00000000000E+00  0.00000000000E+00  0.22630627092E+03  0.22630627092E+03  0.00000000000E+00 0. -1.
         21   -1    0    0  501  502 -0.00000000000E+00 -0.00000000000E+00 -0.26506267201E+03  0.26506267201E+03  0.00000000000E+00 0. -1.
         25    1    1    2    0    0  0.23247806914E+02  0.66729463506E+02 -0.58602442278E+02  0.15516132304E+03  0.12509000000E+03 0.  0.
         25    1    1    2    0    0 -0.19914309480E+02 -0.14143778011E+03  0.12904320554E+02  0.19030306081E+03  0.12509000000E+03 0.  0.
         25    1    1    2    0    0 -0.33334974344E+01  0.74708316604E+02  0.69417206329E+01  0.14590455908E+03  0.12509000000E+03 0.  0.
<mgrwt>
<rscale>  2 0.48983812E+03</rscale>
<asrwt>0</asrwt>
<pdfrwt beam="1">  1       21 0.33280334E-01 0.48983812E+03</pdfrwt>
<pdfrwt beam="2">  1       21 0.38979805E-01 0.48983812E+03</pdfrwt>
<totfact> 0.50418721E+04</totfact>
</mgrwt>
</event>
<event>
 6    0  0.1539497E-004  0.4288242E+03  0.7546771E-02  0.1034232E+00
         21   -1    0    0  502  501  0.00000000000E+00  0.00000000000E+00  0.21201007425E+03  0.21201007425E+03  0.00000000000E+00 0. -1.
         21   -1    0    0  501  502 -0.00000000000E+00 -0.00000000000E+00 -0.21684136996E+03  0.21684136996E+03  0.00000000000E+00 0. -1.
      99925    2    1    2    0    0 -0.18567058699E+02 -0.84158744866E+02 -0.76746098966E+01  0.27692046468E+03  0.26305629458E+03 0.  0.
         25    1    1    2    0    0  0.18567058699E+02  0.84158744866E+02  0.28433141859E+01  0.15193097953E+03  0.12509000000E+03 0.  0.
         25    1    3    3    0    0 -0.60672911353E+01 -0.49716893305E+01 -0.23451360224E+02  0.12751079999E+03  0.12509000000E+03 0.  0.
         25    1    3    3    0    0 -0.12499767564E+02 -0.79187055536E+02  0.15776750328E+02  0.14940966470E+03  0.12509000000E+03 0.  0.
<mgrwt>
<rscale>  2 0.42882423E+03</rscale>
<asrwt>0</asrwt>
<pdfrwt beam="1">  1       21 0.31177952E-01 0.42882423E+03</pdfrwt>
<pdfrwt beam="2">  1       21 0.31888437E-01 0.42882423E+03</pdfrwt>
<totfact> 0.87377879E+04</totfact>
</mgrwt>
</event>
<event>
 6    0  0.1539497E-004  0.4038322E+03  0.7546771E-02  0.1042461E+00
         21   -1    0    0  502  501  0.00000000000E+00  0.00000000000E+00  0.45955377318E+03  0.45955377318E+03  0.00000000000E+00 0.  1.
         21   -1    0    0  501  502 -0.00000000000E+00 -0.00000000000E+00 -0.88716739916E+02  0.88716739916E+02  0.00000000000E+00 0.  1.
      99925    2    1    2    0    0  0.80370825849E+01  0.51250345856E+02  0.25922565716E+03  0.37278319155E+03  0.26282727013E+03 0.  0.
         25    1    1    2    0    0 -0.80370825849E+01 -0.51250345856E+02  0.11161137610E+03  0.17548732154E+03  0.12509000000E+03 0.  0.
         25    1    3    3    0    0 -0.42148612771E+01 -0.12127394298E+02  0.14130070300E+03  0.18915135611E+03  0.12509000000E+03 0.  0.
         25    1    3    3    0    0  0.12251943862E+02  0.63377740154E+02  0.11792495416E+03  0.18363183544E+03  0.12509000000E+03 0.  0.
<mgrwt>
<rscale>  2 0.40383221E+03</rscale>
<asrwt>0</asrwt>
<pdfrwt beam="1">  1       21 0.67581436E-01 0.40383221E+03</pdfrwt>
<pdfrwt beam="2">  1       21 0.13046580E-01 0.40383221E+03</pdfrwt>
<totfact> 0.94978751E+04</totfact>
</mgrwt>
</event>
<event>
 6    0  0.1539497E-004  0.3905651E+03  0.7546771E-02  0.1047097E+00
         21   -1    0    0  502  501  0.00000000000E+00  0.00000000000E+00  0.65089485950E+03  0.65089485950E+03  0.00000000000E+00 0.  1.
         21   -1    0    0  501  502 -0.00000000000E+00 -0.00000000000E+00 -0.58588983633E+02  0.58588983633E+02  0.00000000000E+00 0.  1.
      99925    2    1    2    0    0  0.19505573479E+02  0.32082013349E+01  0.39165605020E+03  0.47221053955E+03  0.26305431388E+03 0.  0.
         25    1    1    2    0    0 -0.19505573479E+02 -0.32082013349E+01  0.20064982567E+03  0.23727330358E+03  0.12509000000E+03 0.  0.
         25    1    3    3    0    0  0.24430335779E+02 -0.69514790186E+01  0.26340131414E+03  0.29269937608E+03  0.12509000000E+03 0.  0.
         25    1    3    3    0    0 -0.49247623004E+01  0.10159680354E+02  0.12825473606E+03  0.17951116347E+03  0.12509000000E+03 0.  0.
<mgrwt>
<rscale>  2 0.39056507E+03</rscale>
<asrwt>0</asrwt>
<pdfrwt beam="1">  1       21 0.95719828E-01 0.39056507E+03</pdfrwt>
<pdfrwt beam="2">  1       21 0.86160274E-02 0.39056507E+03</pdfrwt>
<totfact> 0.90099080E+04</totfact>
</mgrwt>
</event>
<event>
 6    0  0.1539497E-004  0.4454842E+03  0.7546771E-02  0.1029077E+00
         21   -1    0    0  502  501  0.00000000000E+00  0.00000000000E+00  0.28258695009E+03  0.28258695009E+03  0.00000000000E+00 0.  1.
         21   -1    0    0  501  502 -0.00000000000E+00 -0.00000000000E+00 -0.17557093215E+03  0.17557093215E+03  0.00000000000E+00 0.  1.
      99925    2    1    2    0    0 -0.77455564433E+02  0.67258769201E+02  0.51839661397E+02  0.28723379114E+03  0.26323524419E+03 0.  0.
         25    1    3    3    0    0 -0.74713820591E+02  0.39345574075E+02  0.50116372505E+02  0.15902637542E+03  0.12509000000E+03 0.  0.
         25    1    1    2    0    0  0.77455564433E+02 -0.67258769201E+02  0.55176356548E+02  0.17092409110E+03  0.12509000000E+03 0.  0.
         25    1    3    3    0    0 -0.27417438425E+01  0.27913195126E+02  0.17232888916E+01  0.12820741572E+03  0.12509000000E+03 0.  0.
<mgrwt>
<rscale>  2 0.44548425E+03</rscale>
<asrwt>0</asrwt>
<pdfrwt beam="1">  1       21 0.41556905E-01 0.44548425E+03</pdfrwt>
<pdfrwt beam="2">  1       21 0.25819254E-01 0.44548425E+03</pdfrwt>
<totfact> 0.73737299E+04</totfact>
</mgrwt>
</event>
<event>
 6    0  0.1539497E-004  0.4032858E+03  0.7546771E-02  0.1042648E+00
         21   -1    0    0  502  501  0.00000000000E+00  0.00000000000E+00  0.96639413756E+02  0.96639413756E+02  0.00000000000E+00 0. -1.
         21   -1    0    0  501  502 -0.00000000000E+00 -0.00000000000E+00 -0.42073779465E+03  0.42073779465E+03  0.00000000000E+00 0. -1.
      99925    2    1    2    0    0 -0.19409830356E+02  0.47776578022E+02 -0.21439640797E+03  0.34318945371E+03  0.26297117421E+03 0.  0.
         25    1    3    3    0    0  0.23373079887E+02  0.11095388990E+01 -0.11271782313E+03  0.17000102262E+03  0.12509000000E+03 0.  0.
         25    1    3    3    0    0 -0.42782910244E+02  0.46667039123E+02 -0.10167858485E+03  0.17318843110E+03  0.12509000000E+03 0.  0.
         25    1    1    2    0    0  0.19409830356E+02 -0.47776578022E+02 -0.10970197292E+03  0.17418775469E+03  0.12509000000E+03 0.  0.
<mgrwt>
<rscale>  2 0.40328577E+03</rscale>
<asrwt>0</asrwt>
<pdfrwt beam="1">  1       21 0.14211678E-01 0.40328577E+03</pdfrwt>
<pdfrwt beam="2">  1       21 0.61873206E-01 0.40328577E+03</pdfrwt>
<totfact> 0.98700612E+04</totfact>
</mgrwt>
</event>
<event>
 6    0  0.1539497E-004  0.4047310E+03  0.7546771E-02  0.1042154E+00
         21   -1    0    0  502  501  0.00000000000E+00  0.00000000000E+00  0.32609043421E+03  0.32609043421E+03  0.00000000000E+00 0.  1.
         21   -1    0    0  501  502 -0.00000000000E+00 -0.00000000000E+00 -0.12558414801E+03  0.12558414801E+03  0.00000000000E+00 0.  1.
      99925    2    1    2    0    0 -0.45875234233E+02  0.22285720377E+02  0.15256291793E+03  0.30833140969E+03  0.26304300756E+03 0.  0.
         25    1    3    3    0    0 -0.60745455080E+02  0.14328616315E+02  0.98537826457E+02  0.17103371276E+03  0.12509000000E+03 0.  0.
         25    1    1    2    0    0  0.45875234233E+02 -0.22285720377E+02  0.47943368273E+02  0.14334317253E+03  0.12509000000E+03 0.  0.
         25    1    3    3    0    0  0.14870220847E+02  0.79571040622E+01  0.54025091472E+02  0.13729769693E+03  0.12509000000E+03 0.  0.
<mgrwt>
<rscale>  2 0.40473097E+03</rscale>
<asrwt>0</asrwt>
<pdfrwt beam="1">  1       21 0.47954476E-01 0.40473097E+03</pdfrwt>
<pdfrwt beam="2">  1       21 0.18468257E-01 0.40473097E+03</pdfrwt>
<totfact> 0.10479618E+05</totfact>
</mgrwt>
</event>
<event>
 6    0  0.1539497E-004  0.4373113E+03  0.7546771E-02  0.1031575E+00
         21   -1    0    0  502  501  0.00000000000E+00  0.00000000000E+00  0.58021790526E+02  0.58021790526E+02  0.00000000000E+00 0.  1.
         21   -1    0    0  501  502 -0.00000000000E+00 -0.00000000000E+00 -0.82400580598E+03  0.82400580598E+03  0.00000000000E+00 0.  1.
      99925    2    1    2    0    0 -0.11377117392E+02  0.39236087734E+02 -0.66455698288E+03  0.71588350116E+03  0.26302907512E+03 0.  0.
         25    1    3    3    0    0 -0.18932734809E+02  0.41491874808E+02 -0.42717362742E+03  0.44744255518E+03  0.12509000000E+03 0.  0.
         25    1    1    2    0    0  0.11377117392E+02 -0.39236087734E+02 -0.10142703257E+03  0.16614409534E+03  0.12509000000E+03 0.  0.
         25    1    3    3    0    0  0.75556174169E+01 -0.22557870742E+01 -0.23738335546E+03  0.26844094598E+03  0.12509000000E+03 0.  0.
<mgrwt>
<rscale>  2 0.43731130E+03</rscale>
<asrwt>0</asrwt>
<pdfrwt beam="1">  1       21 0.85326162E-02 0.43731130E+03</pdfrwt>
<pdfrwt beam="2">  1       21 0.12117733E+00 0.43731130E+03</pdfrwt>
<totfact> 0.50682708E+04</totfact>
</mgrwt>
</event>
<event>
 6    0  0.1539497E-004  0.3931829E+03  0.7546771E-02  0.1046166E+00
         21   -1    0    0  502  501  0.00000000000E+00  0.00000000000E+00  0.57807361981E+03  0.57807361981E+03  0.00000000000E+00 0. -1.
         21   -1    0    0  501  502 -0.00000000000E+00 -0.00000000000E+00 -0.66856870393E+02  0.66856870393E+02  0.00000000000E+00 0. -1.
      99925    2    1    2    0    0  0.94001808055E+01 -0.10896344857E+00  0.29885094977E+03  0.39828273280E+03  0.26311379629E+03 0.  0.
         25    1    3    3    0    0 -0.34768271964E+02  0.61121383675E+01  0.13554040745E+03  0.18778951281E+03  0.12509000000E+03 0.  0.
         25    1    3    3    0    0  0.44168452770E+02 -0.62211018161E+01  0.16331054232E+03  0.21049321999E+03  0.12509000000E+03 0.  0.
         25    1    1    2    0    0 -0.94001808055E+01  0.10896344857E+00  0.21236579965E+03  0.24664775740E+03  0.12509000000E+03 0.  0.
<mgrwt>
<rscale>  2 0.39318287E+03</rscale>
<asrwt>0</asrwt>
<pdfrwt beam="1">  1       21 0.85010824E-01 0.39318287E+03</pdfrwt>
<pdfrwt beam="2">  1       21 0.98318930E-02 0.39318287E+03</pdfrwt>
<totfact> 0.94159854E+04</totfact>
</mgrwt>
</event>
<event>
 6    0  0.1539497E-004  0.4944566E+03  0.7546771E-02  0.1015236E+00
         21   -1    0    0  502  501  0.00000000000E+00  0.00000000000E+00  0.48873501458E+02  0.48873501458E+02  0.00000000000E+00 0.  1.
         21   -1    0    0  501  502 -0.00000000000E+00 -0.00000000000E+00 -0.12506128100E+04  0.12506128100E+04  0.00000000000E+00 0.  1.
      99925    2    1    2    0    0 -0.33329130567E+02 -0.14271450662E+03 -0.76590798644E+03  0.82296274355E+03  0.26301021318E+03 0.  0.
         25    1    3    3    0    0 -0.13364954179E+02 -0.27174856060E+02 -0.29674312037E+03  0.32345182391E+03  0.12509000000E+03 0.  0.
         25    1    1    2    0    0  0.33329130567E+02  0.14271450662E+03 -0.43583132210E+03  0.47652356790E+03  0.12509000000E+03 0.  0.
         25    1    3    3    0    0 -0.19964176388E+02 -0.11553965056E+03 -0.46916486606E+03  0.49951091964E+03  0.12509000000E+03 0.  0.
<mgrwt>
<rscale>  2 0.49445658E+03</rscale>
<asrwt>0</asrwt>
<pdfrwt beam="1">  1       21 0.71872789E-02 0.49445658E+03</pdfrwt>
<pdfrwt beam="2">  1       21 0.18391367E+00 0.49445658E+03</pdfrwt>
<totfact> 0.21671528E+04</totfact>
</mgrwt>
</event>
<event>
 6    0  0.1539497E-004  0.4315165E+03  0.7546771E-02  0.1033382E+00
         21   -1    0    0  502  501  0.00000000000E+00  0.00000000000E+00  0.20883136426E+03  0.20883136426E+03  0.00000000000E+00 0. -1.
         21   -1    0    0  501  502 -0.00000000000E+00 -0.00000000000E+00 -0.22291493384E+03  0.22291493384E+03  0.00000000000E+00 0. -1.
      99925    2    1    2    0    0  0.83718584867E+02 -0.12175838229E+02 -0.38194050966E+02  0.27882188573E+03  0.26291786920E+03 0.  0.
         25    1    3    3    0    0  0.20612143379E+02 -0.28931495283E+02  0.81758807090E+01  0.13029291999E+03  0.12509000000E+03 0.  0.
         25    1    1    2    0    0 -0.83718584867E+02  0.12175838229E+02  0.24110481387E+02  0.15292441238E+03  0.12509000000E+03 0.  0.
         25    1    3    3    0    0  0.63106441488E+02  0.16755657054E+02 -0.46369931675E+02  0.14852896574E+03  0.12509000000E+03 0.  0.
<mgrwt>
<rscale>  2 0.43151653E+03</rscale>
<asrwt>0</asrwt>
<pdfrwt beam="1">  1       21 0.30710495E-01 0.43151653E+03</pdfrwt>
<pdfrwt beam="2">  1       21 0.32781608E-01 0.43151653E+03</pdfrwt>
<totfact> 0.85155977E+04</totfact>
</mgrwt>
</event>
<event>
 6    0  0.1647409E-004  0.4074024E+03  0.7546771E-02  0.1041246E+00
         21   -1    0    0  502  501  0.00000000000E+00  0.00000000000E+00  0.83948857154E+03  0.83948857154E+03  0.00000000000E+00 0.  1.
         21   -1    0    0  501  502 -0.00000000000E+00 -0.00000000000E+00 -0.49427917512E+02  0.49427917512E+02  0.00000000000E+00 0.  1.
      99925    2    1    2    0    0  0.46153759594E+01  0.38287711014E+02  0.43296370909E+03  0.50858375750E+03  0.26403146496E+03 0.  0.
         25    1    1    2    0    0 -0.46153759594E+01 -0.38287711014E+02  0.35709694494E+03  0.38033273156E+03  0.12509000000E+03 0.  0.
         25    1    3    3    0    0 -0.18686487243E+02 -0.31098160661E+00  0.15195966401E+03  0.19770819179E+03  0.12509000000E+03 0.  0.
         25    1    3    3    0    0  0.23301863202E+02  0.38598692621E+02  0.28100404508E+03  0.31087556571E+03  0.12509000000E+03 0.  0.
<mgrwt>
<rscale>  2 0.40740237E+03</rscale>
<asrwt>0</asrwt>
<pdfrwt beam="1">  1       21 0.12345419E+00 0.40740237E+03</pdfrwt>
<pdfrwt beam="2">  1       21 0.72688119E-02 0.40740237E+03</pdfrwt>
<totfact> 0.64642052E+04</totfact>
</mgrwt>
</event>
<event>
 6    0  0.1539497E-004  0.4159087E+03  0.7546771E-02  0.1038406E+00
         21   -1    0    0  502  501  0.00000000000E+00  0.00000000000E+00  0.14038442206E+04  0.14038442206E+04  0.00000000000E+00 0.  1.
         21   -1    0    0  501  502 -0.00000000000E+00 -0.00000000000E+00 -0.30804705219E+02  0.30804705219E+02  0.00000000000E+00 0.  1.
      99925    2    1    2    0    0  0.24255393597E+02  0.36531898010E+02  0.10892339776E+04  0.11214141974E+04  0.26308979560E+03 0.  0.
         25    1    3    3    0    0 -0.23295307591E+01  0.51607157469E+02  0.63615920558E+03  0.65039585512E+03  0.12509000000E+03 0.  0.
         25    1    3    3    0    0  0.26584924356E+02 -0.15075259459E+02  0.45307477203E+03  0.47101834232E+03  0.12509000000E+03 0.  0.
         25    1    1    2    0    0 -0.24255393597E+02 -0.36531898010E+02  0.28380553774E+03  0.31323472835E+03  0.12509000000E+03 0.  0.
<mgrwt>
<rscale>  2 0.41590868E+03</rscale>
<asrwt>0</asrwt>
<pdfrwt beam="1">  1       21 0.20644764E+00 0.41590868E+03</pdfrwt>
<pdfrwt beam="2">  1       21 0.45301046E-02 0.41590868E+03</pdfrwt>
<totfact> 0.34873707E+04</totfact>
</mgrwt>
</event>
<event>
 6    0  0.1539497E-004  0.4297488E+03  0.7546771E-02  0.1033939E+00
         21   -1    0    0  502  501  0.00000000000E+00  0.00000000000E+00  0.15493040838E+04  0.15493040838E+04  0.00000000000E+00 0. -1.
         21   -1    0    0  501  502 -0.00000000000E+00 -0.00000000000E+00 -0.29801122718E+02  0.29801122718E+02  0.00000000000E+00 0. -1.
      99925    2    1    2    0    0  0.19685853541E+02  0.54306999561E+02  0.73888279198E+03  0.78641854740E+03  0.26300108058E+03 0.  0.
         25    1    3    3    0    0  0.36622475695E+02  0.57087614727E+01  0.42649494658E+03  0.44600363591E+03  0.12509000000E+03 0.  0.
         25    1    1    2    0    0 -0.19685853541E+02 -0.54306999561E+02  0.78062016906E+03  0.79268665907E+03  0.12509000000E+03 0.  0.
         25    1    3    3    0    0 -0.16936622154E+02  0.48598238088E+02  0.31238784540E+03  0.34041491149E+03  0.12509000000E+03 0.  0.
<mgrwt>
<rscale>  2 0.42974877E+03</rscale>
<asrwt>0</asrwt>
<pdfrwt beam="1">  1       21 0.22783878E+00 0.42974877E+03</pdfrwt>
<pdfrwt beam="2">  1       21 0.43825191E-02 0.42974877E+03</pdfrwt>
<totfact> 0.26785557E+04</totfact>
</mgrwt>
</event>
<event>
 6    0  0.1539497E-004  0.4182950E+03  0.7546771E-02  0.1037623E+00
         21   -1    0    0  502  501  0.00000000000E+00  0.00000000000E+00  0.12259291107E+03  0.12259291107E+03  0.00000000000E+00 0. -1.
         21   -1    0    0  501  502 -0.00000000000E+00 -0.00000000000E+00 -0.35681245237E+03  0.35681245237E+03  0.00000000000E+00 0. -1.
      99925    2    1    2    0    0  0.68547934994E+02  0.13778884378E+02 -0.12664454047E+03  0.30021673113E+03  0.26306381160E+03 0.  0.
         25    1    3    3    0    0  0.20588680306E+02  0.39994920644E+02 -0.41196933389E+02  0.13916961901E+03  0.12509000000E+03 0.  0.
         25    1    1    2    0    0 -0.68547934994E+02 -0.13778884378E+02 -0.10757500083E+03  0.17918863231E+03  0.12509000000E+03 0.  0.
         25    1    3    3    0    0  0.47959254688E+02 -0.26216036265E+02 -0.85447607082E+02  0.16104711212E+03  0.12509000000E+03 0.  0.
<mgrwt>
<rscale>  2 0.41829500E+03</rscale>
<asrwt>0</asrwt>
<pdfrwt beam="1">  1       21 0.18028369E-01 0.41829500E+03</pdfrwt>
<pdfrwt beam="2">  1       21 0.52472420E-01 0.41829500E+03</pdfrwt>
<totfact> 0.90322853E+04</totfact>
</mgrwt>
</event>
<event>
 6    0  0.1539497E-004  0.4726047E+03  0.7546771E-02  0.1021188E+00
         21   -1    0    0  502  501  0.00000000000E+00  0.00000000000E+00  0.19630915859E+02  0.19630915859E+02  0.00000000000E+00 0. -1.
         21   -1    0    0  501  502 -0.00000000000E+00 -0.00000000000E+00 -0.28444317654E+04  0.28444317654E+04  0.00000000000E+00 0. -1.
      99925    2    1    2    0    0  0.26494966748E+02  0.25845584877E+02 -0.24995406000E+04  0.25136176562E+04  0.26305994232E+03 0.  0.
         25    1    1    2    0    0 -0.26494966748E+02 -0.25845584877E+02 -0.32526024954E+03  0.35044502501E+03  0.12509000000E+03 0.  0.
         25    1    3    3    0    0  0.40635398773E+02 -0.16186923465E+02 -0.11785480554E+04  0.11859748223E+04  0.12509000000E+03 0.  0.
         25    1    3    3    0    0 -0.14140432025E+02  0.42032508341E+02 -0.13209925446E+04  0.13276428339E+04  0.12509000000E+03 0.  0.
<mgrwt>
<rscale>  2 0.47260470E+03</rscale>
<asrwt>0</asrwt>
<pdfrwt beam="1">  1       21 0.28868991E-02 0.47260470E+03</pdfrwt>
<pdfrwt beam="2">  1       21 0.41829883E+00 0.47260470E+03</pdfrwt>
<totfact> 0.35644846E+03</totfact>
</mgrwt>
</event>
<event>
 6    0  0.1539497E-004  0.4735910E+03  0.7546771E-02  0.1020912E+00
         21   -1    0    0  502  501  0.00000000000E+00  0.00000000000E+00  0.26412439401E+03  0.26412439401E+03  0.00000000000E+00 0. -1.
         21   -1    0    0  501  502 -0.00000000000E+00 -0.00000000000E+00 -0.21229430132E+03  0.21229430132E+03  0.00000000000E+00 0. -1.
      99925    2    1    2    0    0 -0.91260499168E+02 -0.82300483530E+02 -0.99208473139E+01  0.29050867680E+03  0.26304946263E+03 0.  0.
         25    1    3    3    0    0 -0.12500026399E+02 -0.64235619713E+02 -0.10804579338E+02  0.14158641367E+03  0.12509000000E+03 0.  0.
         25    1    1    2    0    0  0.91260499168E+02  0.82300483530E+02  0.61750939996E+02  0.18591001853E+03  0.12509000000E+03 0.  0.
         25    1    3    3    0    0 -0.78760472769E+02 -0.18064863817E+02  0.88373202453E+00  0.14892226314E+03  0.12509000000E+03 0.  0.
<mgrwt>
<rscale>  2 0.47359098E+03</rscale>
<asrwt>0</asrwt>
<pdfrwt beam="1">  1       21 0.38841823E-01 0.47359098E+03</pdfrwt>
<pdfrwt beam="2">  1       21 0.31219750E-01 0.47359098E+03</pdfrwt>
<totfact> 0.57923801E+04</totfact>
</mgrwt>
</event>
<event>
 6    0  0.1539497E-004  0.4166879E+03  0.7546771E-02  0.1038150E+00
         21   -1    0    0  502  501  0.00000000000E+00  0.00000000000E+00  0.17313842305E+03  0.17313842305E+03  0.00000000000E+00 0.  1.
         21   -1    0    0  501  502 -0.00000000000E+00 -0.00000000000E+00 -0.25070802496E+03  0.25070802496E+03  0.00000000000E+00 0.  1.
      99925    2    1    2    0    0 -0.16867297492E+02 -0.55449050152E+02 -0.79965116662E+01  0.26942162528E+03  0.26299232895E+03 0.  0.
         25    1    1    2    0    0  0.16867297492E+02  0.55449050152E+02 -0.69573090246E+02  0.15442482273E+03  0.12509000000E+03 0.  0.
         25    1    3    3    0    0 -0.22293191818E+02 -0.38085625955E+02 -0.40890848031E+02  0.13880587473E+03  0.12509000000E+03 0.  0.
         25    1    3    3    0    0  0.54258943252E+01 -0.17363424198E+02  0.32894336365E+02  0.13061575056E+03  0.12509000000E+03 0.  0.
<mgrwt>
<rscale>  2 0.41668785E+03</rscale>
<asrwt>0</asrwt>
<pdfrwt beam="1">  1       21 0.25461533E-01 0.41668785E+03</pdfrwt>
<pdfrwt beam="2">  1       21 0.36868827E-01 0.41668785E+03</pdfrwt>
<totfact> 0.97423628E+04</totfact>
</mgrwt>
</event>
<event>
 6    0  0.1539497E-004  0.4095877E+03  0.7546771E-02  0.1040509E+00
         21   -1    0    0  502  501  0.00000000000E+00  0.00000000000E+00  0.94191265336E+02  0.94191265336E+02  0.00000000000E+00 0. -1.
         21   -1    0    0  501  502 -0.00000000000E+00 -0.00000000000E+00 -0.44526967461E+03  0.44526967461E+03  0.00000000000E+00 0. -1.
      99925    2    1    2    0    0  0.32127896002E+02 -0.46018509657E+02 -0.26507524668E+03  0.37761546732E+03  0.26301834503E+03 0.  0.
         25    1    3    3    0    0  0.49004520803E+02  0.63554005309E+00 -0.13486404252E+03  0.19036193169E+03  0.12509000000E+03 0.  0.
         25    1    3    3    0    0 -0.16876624800E+02 -0.46654049710E+02 -0.13021120416E+03  0.18725353564E+03  0.12509000000E+03 0.  0.
         25    1    1    2    0    0 -0.32127896002E+02  0.46018509657E+02 -0.86003162588E+02  0.16184547262E+03  0.12509000000E+03 0.  0.
<mgrwt>
<rscale>  2 0.40958767E+03</rscale>
<asrwt>0</asrwt>
<pdfrwt beam="1">  1       21 0.13851657E-01 0.40958767E+03</pdfrwt>
<pdfrwt beam="2">  1       21 0.65480835E-01 0.40958767E+03</pdfrwt>
<totfact> 0.91179282E+04</totfact>
</mgrwt>
</event>
<event>
 6    0  0.1539497E-004  0.4080048E+03  0.7546771E-02  0.1041043E+00
         21   -1    0    0  502  501  0.00000000000E+00  0.00000000000E+00  0.50416213897E+03  0.50416213897E+03  0.00000000000E+00 0.  1.
         21   -1    0    0  501  502 -0.00000000000E+00 -0.00000000000E+00 -0.82546814470E+02  0.82546814470E+02  0.00000000000E+00 0.  1.
      99925    2    1    2    0    0 -0.52927027219E+02 -0.25610012945E+01  0.31567714438E+03  0.41443523216E+03  0.26324261287E+03 0.  0.
         25    1    3    3    0    0 -0.32911452596E+02  0.38968982806E+02  0.15273679303E+03  0.20390630539E+03  0.12509000000E+03 0.  0.
         25    1    3    3    0    0 -0.20015574623E+02 -0.41529984100E+02  0.16294035135E+03  0.21052892677E+03  0.12509000000E+03 0.  0.
         25    1    1    2    0    0  0.52927027219E+02  0.25610012945E+01  0.10593818012E+03  0.17227372128E+03  0.12509000000E+03 0.  0.
<mgrwt>
<rscale>  2 0.40800480E+03</rscale>
<asrwt>0</asrwt>
<pdfrwt beam="1">  1       21 0.74141490E-01 0.40800480E+03</pdfrwt>
<pdfrwt beam="2">  1       21 0.12139238E-01 0.40800480E+03</pdfrwt>
<totfact> 0.87860235E+04</totfact>
</mgrwt>
</event>
<event>
 6    0  0.1539497E-004  0.5168609E+03  0.7546771E-02  0.1009469E+00
         21   -1    0    0  502  501  0.00000000000E+00  0.00000000000E+00  0.11610925259E+03  0.11610925259E+03  0.00000000000E+00 0.  1.
         21   -1    0    0  501  502 -0.00000000000E+00 -0.00000000000E+00 -0.57520217297E+03  0.57520217297E+03  0.00000000000E+00 0.  1.
      99925    2    1    2    0    0 -0.15935895525E+03 -0.37330114721E+02 -0.26447365462E+03  0.40791597608E+03  0.26393240700E+03 0.  0.
         25    1    1    2    0    0  0.15935895525E+03  0.37330114721E+02 -0.19461926576E+03  0.28339544948E+03  0.12509000000E+03 0.  0.
         25    1    3    3    0    0 -0.75019937185E+02 -0.46368478660E+02 -0.91933757910E+02  0.17854229396E+03  0.12509000000E+03 0.  0.
         25    1    3    3    0    0 -0.84339018062E+02  0.90383639383E+01 -0.17253989671E+03  0.22937368212E+03  0.12509000000E+03 0.  0.
<mgrwt>
<rscale>  2 0.51686089E+03</rscale>
<asrwt>0</asrwt>
<pdfrwt beam="1">  1       21 0.17074890E-01 0.51686089E+03</pdfrwt>
<pdfrwt beam="2">  1       21 0.84588557E-01 0.51686089E+03</pdfrwt>
<totfact> 0.33694339E+04</totfact>
</mgrwt>
</event>
<event>
 6    0  0.1539497E-004  0.3918129E+03  0.7546771E-02  0.1046652E+00
         21   -1    0    0  502  501  0.00000000000E+00  0.00000000000E+00  0.52492974364E+03  0.52492974364E+03  0.00000000000E+00 0. -1.
         21   -1    0    0  501  502 -0.00000000000E+00 -0.00000000000E+00 -0.73113275168E+02  0.73113275168E+02  0.00000000000E+00 0. -1.
      99925    2    1    2    0    0  0.21842362543E+02 -0.11012330405E+02  0.30441382095E+03  0.40317534879E+03  0.26321897208E+03 0.  0.
         25    1    3    3    0    0  0.23790266442E+02  0.32829638863E+02  0.14211853751E+03  0.19362063105E+03  0.12509000000E+03 0.  0.
         25    1    3    3    0    0 -0.19479038991E+01 -0.43841969268E+02  0.16229528344E+03  0.20955471774E+03  0.12509000000E+03 0.  0.
         25    1    1    2    0    0 -0.21842362543E+02  0.11012330405E+02  0.14740264753E+03  0.19486767002E+03  0.12509000000E+03 0.  0.
<mgrwt>
<rscale>  2 0.39181288E+03</rscale>
<asrwt>0</asrwt>
<pdfrwt beam="1">  1       21 0.77195549E-01 0.39181288E+03</pdfrwt>
<pdfrwt beam="2">  1       21 0.10751952E-01 0.39181288E+03</pdfrwt>
<totfact> 0.10019639E+05</totfact>
</mgrwt>
</event>
<event>
 6    0  0.1539497E-004  0.4182190E+03  0.7546771E-02  0.1037648E+00
         21   -1    0    0  502  501  0.00000000000E+00  0.00000000000E+00  0.36103316847E+03  0.36103316847E+03  0.00000000000E+00 0. -1.
         21   -1    0    0  501  502 -0.00000000000E+00 -0.00000000000E+00 -0.12111570690E+03  0.12111570690E+03  0.00000000000E+00 0. -1.
      99925    2    1    2    0    0  0.47304757387E+02 -0.47424910475E+02  0.12141478785E+03  0.29727796369E+03  0.26295584189E+03 0.  0.
         25    1    1    2    0    0 -0.47304757387E+02  0.47424910475E+02  0.11850267372E+03  0.18487091168E+03  0.12509000000E+03 0.  0.
         25    1    3    3    0    0  0.51095057678E+02 -0.38747464899E+02  0.34735380483E+02  0.14479684290E+03  0.12509000000E+03 0.  0.
         25    1    3    3    0    0 -0.37903002911E+01 -0.86774455752E+01  0.86679407363E+02  0.15248112079E+03  0.12509000000E+03 0.  0.
<mgrwt>
<rscale>  2 0.41821902E+03</rscale>
<asrwt>0</asrwt>
<pdfrwt beam="1">  1       21 0.53093113E-01 0.41821902E+03</pdfrwt>
<pdfrwt beam="2">  1       21 0.17811133E-01 0.41821902E+03</pdfrwt>
<totfact> 0.90108866E+04</totfact>
</mgrwt>
</event>
<event>
 6    0  0.1539497E-004  0.4405761E+03  0.7546771E-02  0.1030570E+00
         21   -1    0    0  502  501  0.00000000000E+00  0.00000000000E+00  0.22223509732E+03  0.22223509732E+03  0.00000000000E+00 0.  1.
         21   -1    0    0  501  502 -0.00000000000E+00 -0.00000000000E+00 -0.21835807912E+03  0.21835807912E+03  0.00000000000E+00 0.  1.
      99925    2    1    2    0    0 -0.79589185009E+02  0.45465656390E+02  0.40077798671E+02  0.28134629612E+03  0.26295996675E+03 0.  0.
         25    1    3    3    0    0 -0.64676579016E+02  0.21332706459E+02 -0.11953139260E+02  0.14292840822E+03  0.12509000000E+03 0.  0.
         25    1    3    3    0    0 -0.14912605993E+02  0.24132949931E+02  0.52030937932E+02  0.13841788790E+03  0.12509000000E+03 0.  0.
         25    1    1    2    0    0  0.79589185009E+02 -0.45465656390E+02 -0.36200780470E+02  0.15924688031E+03  0.12509000000E+03 0.  0.
<mgrwt>
<rscale>  2 0.44057612E+03</rscale>
<asrwt>0</asrwt>
<pdfrwt beam="1">  1       21 0.32681632E-01 0.44057612E+03</pdfrwt>
<pdfrwt beam="2">  1       21 0.32111482E-01 0.44057612E+03</pdfrwt>
<totfact> 0.78238322E+04</totfact>
</mgrwt>
</event>
<event>
 6    0  0.1539497E-004  0.4407321E+03  0.7546771E-02  0.1030522E+00
         21   -1    0    0  502  501  0.00000000000E+00  0.00000000000E+00  0.17738070301E+03  0.17738070301E+03  0.00000000000E+00 0.  1.
         21   -1    0    0  501  502 -0.00000000000E+00 -0.00000000000E+00 -0.27376822958E+03  0.27376822958E+03  0.00000000000E+00 0.  1.
      99925    2    1    2    0    0 -0.98927172622E+02  0.24351615271E+01 -0.54626525201E+02  0.28627320717E+03  0.26301288256E+03 0.  0.
         25    1    1    2    0    0  0.98927172622E+02 -0.24351615271E+01 -0.41761001370E+02  0.16487572541E+03  0.12509000000E+03 0.  0.
         25    1    3    3    0    0 -0.59758032892E+02  0.18988270551E+02 -0.63905083287E+02  0.15382764603E+03  0.12509000000E+03 0.  0.
         25    1    3    3    0    0 -0.39169139731E+02 -0.16553109024E+02  0.92785580858E+01  0.13244556114E+03  0.12509000000E+03 0.  0.
<mgrwt>
<rscale>  2 0.44073212E+03</rscale>
<asrwt>0</asrwt>
<pdfrwt beam="1">  1       21 0.26085398E-01 0.44073212E+03</pdfrwt>
<pdfrwt beam="2">  1       21 0.40260033E-01 0.44073212E+03</pdfrwt>
<totfact> 0.77242293E+04</totfact>
</mgrwt>
</event>
<event>
 6    0  0.1539497E-004  0.4293494E+03  0.7546771E-02  0.1034066E+00
         21   -1    0    0  502  501  0.00000000000E+00  0.00000000000E+00  0.52156173025E+03  0.52156173025E+03  0.00000000000E+00 0.  1.
         21   -1    0    0  501  502 -0.00000000000E+00 -0.00000000000E+00 -0.88360065156E+02  0.88360065156E+02  0.00000000000E+00 0.  1.
      99925    2    1    2    0    0  0.59626840408E+02 -0.63190493135E+02  0.27347879892E+03  0.38922449003E+03  0.26297652303E+03 0.  0.
         25    1    3    3    0    0  0.12782331168E+02 -0.16854286155E+01  0.92914367345E+02  0.15635477741E+03  0.12509000000E+03 0.  0.
         25    1    3    3    0    0  0.46844509240E+02 -0.61505064519E+02  0.18056443157E+03  0.23286971262E+03  0.12509000000E+03 0.  0.
         25    1    1    2    0    0 -0.59626840408E+02  0.63190493135E+02  0.15972286617E+03  0.22069730537E+03  0.12509000000E+03 0.  0.
<mgrwt>
<rscale>  2 0.42934941E+03</rscale>
<asrwt>0</asrwt>
<pdfrwt beam="1">  1       21 0.76700253E-01 0.42934941E+03</pdfrwt>
<pdfrwt beam="2">  1       21 0.12994127E-01 0.42934941E+03</pdfrwt>
<totfact> 0.71490539E+04</totfact>
</mgrwt>
</event>
<event>
 6    0  0.1539497E-004  0.4313731E+03  0.7546771E-02  0.1033427E+00
         21   -1    0    0  502  501  0.00000000000E+00  0.00000000000E+00  0.85128356224E+03  0.85128356224E+03  0.00000000000E+00 0. -1.
         21   -1    0    0  501  502 -0.00000000000E+00 -0.00000000000E+00 -0.54647710533E+02  0.54647710533E+02  0.00000000000E+00 0. -1.
      99925    2    1    2    0    0  0.10607752265E+02  0.74409372769E+02  0.61400268365E+03  0.67215432494E+03  0.26295030298E+03 0.  0.
         25    1    3    3    0    0  0.23719378128E+02  0.60266044861E+02  0.25248030978E+03  0.28911662005E+03  0.12509000000E+03 0.  0.
         25    1    3    3    0    0 -0.13111625863E+02  0.14143327908E+02  0.36152237388E+03  0.38303770490E+03  0.12509000000E+03 0.  0.
         25    1    1    2    0    0 -0.10607752265E+02 -0.74409372769E+02  0.18263316805E+03  0.23377694783E+03  0.12509000000E+03 0.  0.
<mgrwt>
<rscale>  2 0.43137315E+03</rscale>
<asrwt>0</asrwt>
<pdfrwt beam="1">  1       21 0.12518875E+00 0.43137315E+03</pdfrwt>
<pdfrwt beam="2">  1       21 0.80364285E-02 0.43137315E+03</pdfrwt>
<totfact> 0.51934400E+04</totfact>
</mgrwt>
</event>
<event>
 6    0  0.1539497E-004  0.4046444E+03  0.7546771E-02  0.1042183E+00
         21   -1    0    0  502  501  0.00000000000E+00  0.00000000000E+00  0.65945689930E+02  0.65945689930E+02  0.00000000000E+00 0.  1.
         21   -1    0    0  501  502 -0.00000000000E+00 -0.00000000000E+00 -0.62072695228E+03  0.62072695228E+03  0.00000000000E+00 0.  1.
      99925    2    1    2    0    0 -0.39821349072E+02 -0.36205652466E+02 -0.36760113659E+03  0.45519802872E+03  0.26301722493E+03 0.  0.
         25    1    3    3    0    0 -0.52476523434E+02 -0.13681549198E+02 -0.14859367254E+03  0.20166446866E+03  0.12509000000E+03 0.  0.
         25    1    3    3    0    0  0.12655174362E+02 -0.22524103268E+02 -0.21900746405E+03  0.25353356006E+03  0.12509000000E+03 0.  0.
         25    1    1    2    0    0  0.39821349072E+02  0.36205652466E+02 -0.18718012576E+03  0.23147461349E+03  0.12509000000E+03 0.  0.
<mgrwt>
<rscale>  2 0.40464437E+03</rscale>
<asrwt>0</asrwt>
<pdfrwt beam="1">  1       21 0.96978958E-02 0.40464437E+03</pdfrwt>
<pdfrwt beam="2">  1       21 0.91283374E-01 0.40464437E+03</pdfrwt>
<totfact> 0.81422972E+04</totfact>
</mgrwt>
</event>
<event>
 6    0  0.1539497E-004  0.4055396E+03  0.7546771E-02  0.1041878E+00
         21   -1    0    0  502  501  0.00000000000E+00  0.00000000000E+00  0.40178796123E+02  0.40178796123E+02  0.00000000000E+00 0.  1.
         21   -1    0    0  501  502 -0.00000000000E+00 -0.00000000000E+00 -0.10233158648E+04  0.10233158648E+04  0.00000000000E+00 0.  1.
      99925    2    1    2    0    0  0.19004590068E+02 -0.34417548429E+02 -0.75361018839E+03  0.79915427628E+03  0.26300855339E+03 0.  0.
         25    1    1    2    0    0 -0.19004590068E+02  0.34417548429E+02 -0.22952688030E+03  0.26434038466E+03  0.12509000000E+03 0.  0.
         25    1    3    3    0    0 -0.63741789399E+00 -0.51489326877E+02 -0.32861492355E+03  0.35536858776E+03  0.12509000000E+03 0.  0.
         25    1    3    3    0    0  0.19642007962E+02  0.17071778449E+02 -0.42499526484E+03  0.44378568852E+03  0.12509000000E+03 0.  0.
<mgrwt>
<rscale>  2 0.40553964E+03</rscale>
<asrwt>0</asrwt>
<pdfrwt beam="1">  1       21 0.59086474E-02 0.40553964E+03</pdfrwt>
<pdfrwt beam="2">  1       21 0.15048760E+00 0.40553964E+03</pdfrwt>
<totfact> 0.55213207E+04</totfact>
</mgrwt>
</event>
<event>
 6    0  0.1539497E-004  0.4181027E+03  0.7546771E-02  0.1037686E+00
         21   -1    0    0  502  501  0.00000000000E+00  0.00000000000E+00  0.12325544244E+03  0.12325544244E+03  0.00000000000E+00 0.  1.
         21   -1    0    0  501  502 -0.00000000000E+00 -0.00000000000E+00 -0.35456831266E+03  0.35456831266E+03  0.00000000000E+00 0.  1.
      99925    2    1    2    0    0  0.62188425861E+02 -0.31063743882E+02 -0.17691062035E+03  0.32472421431E+03  0.26327949270E+03 0.  0.
         25    1    1    2    0    0 -0.62188425861E+02  0.31063743882E+02 -0.54402249874E+02  0.15309954078E+03  0.12509000000E+03 0.  0.
         25    1    3    3    0    0  0.25033827137E+02 -0.53566857908E+02 -0.10752645419E+03  0.17522998379E+03  0.12509000000E+03 0.  0.
         25    1    3    3    0    0  0.37154598724E+02  0.22503114026E+02 -0.69384166153E+02  0.14949423052E+03  0.12509000000E+03 0.  0.
<mgrwt>
<rscale>  2 0.41810273E+03</rscale>
<asrwt>0</asrwt>
<pdfrwt beam="1">  1       21 0.18125801E-01 0.41810273E+03</pdfrwt>
<pdfrwt beam="2">  1       21 0.52142398E-01 0.41810273E+03</pdfrwt>
<totfact> 0.90629470E+04</totfact>
</mgrwt>
</event>
<event>
 6    0  0.1539497E-004  0.5277384E+03  0.7546771E-02  0.1006782E+00
         21   -1    0    0  502  501  0.00000000000E+00  0.00000000000E+00  0.16804416185E+03  0.16804416185E+03  0.00000000000E+00 0. -1.
         21   -1    0    0  501  502 -0.00000000000E+00 -0.00000000000E+00 -0.41433730734E+03  0.41433730734E+03  0.00000000000E+00 0. -1.
      99925    2    1    2    0    0  0.15808796245E+03 -0.58290494060E+01 -0.70671136480E+02  0.31495600325E+03  0.26301538503E+03 0.  0.
         25    1    3    3    0    0  0.33221982687E+02 -0.18219955075E+01 -0.40357740018E+02  0.13558493678E+03  0.12509000000E+03 0.  0.
         25    1    1    2    0    0 -0.15808796245E+03  0.58290494060E+01 -0.17562200901E+03  0.26742546594E+03  0.12509000000E+03 0.  0.
         25    1    3    3    0    0  0.12486597976E+03 -0.40070538986E+01 -0.30313396462E+02  0.17937106647E+03  0.12509000000E+03 0.  0.
<mgrwt>
<rscale>  2 0.52773844E+03</rscale>
<asrwt>0</asrwt>
<pdfrwt beam="1">  1       21 0.24712377E-01 0.52773844E+03</pdfrwt>
<pdfrwt beam="2">  1       21 0.60931955E-01 0.52773844E+03</pdfrwt>
<totfact> 0.34906616E+04</totfact>
</mgrwt>
</event>
<event>
 6    0  0.1539497E-004  0.4475369E+03  0.7546771E-02  0.1028459E+00
         21   -1    0    0  502  501  0.00000000000E+00  0.00000000000E+00  0.36730155094E+02  0.36730155094E+02  0.00000000000E+00 0. -1.
         21   -1    0    0  501  502 -0.00000000000E+00 -0.00000000000E+00 -0.13632485218E+04  0.13632485218E+04  0.00000000000E+00 0. -1.
      99925    2    1    2    0    0 -0.76641995895E+02  0.39029693467E+01 -0.10691551794E+04  0.11037143574E+04  0.26306530835E+03 0.  0.
         25    1    3    3    0    0 -0.36063721668E+02  0.36433339363E+01 -0.36881332175E+03  0.39113250990E+03  0.12509000000E+03 0.  0.
         25    1    1    2    0    0  0.76641995895E+02 -0.39029693467E+01 -0.25736318729E+03  0.29626431944E+03  0.12509000000E+03 0.  0.
         25    1    3    3    0    0 -0.40578274227E+02  0.25963541035E+00 -0.70034185763E+03  0.71258184751E+03  0.12509000000E+03 0.  0.
<mgrwt>
<rscale>  2 0.44753695E+03</rscale>
<asrwt>0</asrwt>
<pdfrwt beam="1">  1       21 0.54014930E-02 0.44753695E+03</pdfrwt>
<pdfrwt beam="2">  1       21 0.20047774E+00 0.44753695E+03</pdfrwt>
<totfact> 0.27916909E+04</totfact>
</mgrwt>
</event>
<event>
 6    0  0.1539497E-004  0.4295898E+03  0.7546771E-02  0.1033990E+00
         21   -1    0    0  502  501  0.00000000000E+00  0.00000000000E+00  0.18341206067E+03  0.18341206067E+03  0.00000000000E+00 0.  1.
         21   -1    0    0  501  502 -0.00000000000E+00 -0.00000000000E+00 -0.25154749022E+03  0.25154749022E+03  0.00000000000E+00 0.  1.
      99925    2    1    2    0    0  0.31839497851E+02 -0.13136397364E+02 -0.12502326132E+03  0.29329073971E+03  0.26306334516E+03 0.  0.
         25    1    3    3    0    0  0.75259312092E+01 -0.29043104267E+02 -0.26273841919E+02  0.13129342868E+03  0.12509000000E+03 0.  0.
         25    1    1    2    0    0 -0.31839497851E+02  0.13136397364E+02  0.56887831771E+02  0.14166881119E+03  0.12509000000E+03 0.  0.
         25    1    3    3    0    0  0.24313566642E+02  0.15906706903E+02 -0.98749419400E+02  0.16199731102E+03  0.12509000000E+03 0.  0.
<mgrwt>
<rscale>  2 0.42958977E+03</rscale>
<asrwt>0</asrwt>
<pdfrwt beam="1">  1       21 0.26972362E-01 0.42958977E+03</pdfrwt>
<pdfrwt beam="2">  1       21 0.36992278E-01 0.42958977E+03</pdfrwt>
<totfact> 0.86238591E+04</totfact>
</mgrwt>
</event>
<event>
 6    0  0.1539497E-004  0.4611069E+03  0.7546771E-02  0.1024461E+00
         21   -1    0    0  502  501  0.00000000000E+00  0.00000000000E+00  0.11552779758E+03  0.11552779758E+03  0.00000000000E+00 0.  1.
         21   -1    0    0  501  502 -0.00000000000E+00 -0.00000000000E+00 -0.46010473655E+03  0.46010473655E+03  0.00000000000E+00 0.  1.
      99925    2    1    2    0    0  0.85265017499E+02  0.32117937725E+02 -0.12093519269E+03  0.30366778657E+03  0.26322446436E+03 0.  0.
         25    1    3    3    0    0  0.64790450082E+02  0.39351429064E+02 -0.35115068577E+02  0.15042245023E+03  0.12509000000E+03 0.  0.
         25    1    3    3    0    0  0.20474567417E+02 -0.72334913388E+01 -0.85820124113E+02  0.15324533634E+03  0.12509000000E+03 0.  0.
         25    1    1    2    0    0 -0.85265017499E+02 -0.32117937725E+02 -0.22364174629E+03  0.27196474756E+03  0.12509000000E+03 0.  0.
<mgrwt>
<rscale>  2 0.46110687E+03</rscale>
<asrwt>0</asrwt>
<pdfrwt beam="1">  1       21 0.16989382E-01 0.46110687E+03</pdfrwt>
<pdfrwt beam="2">  1       21 0.67662462E-01 0.46110687E+03</pdfrwt>
<totfact> 0.57382433E+04</totfact>
</mgrwt>
</event>
<event>
 6    0  0.1539497E-004  0.4073712E+03  0.7546771E-02  0.1041257E+00
         21   -1    0    0  502  501  0.00000000000E+00  0.00000000000E+00  0.31212097769E+03  0.31212097769E+03  0.00000000000E+00 0. -1.
         21   -1    0    0  501  502 -0.00000000000E+00 -0.00000000000E+00 -0.13292225531E+03  0.13292225531E+03  0.00000000000E+00 0. -1.
      99925    2    1    2    0    0  0.21472475987E+02 -0.46434437147E+02  0.88878332876E+02  0.28249322519E+03  0.26322203564E+03 0.  0.
         25    1    3    3    0    0 -0.74621467149E+01 -0.48581652562E+02  0.17379585463E+02  0.13551907132E+03  0.12509000000E+03 0.  0.
         25    1    1    2    0    0 -0.21472475987E+02  0.46434437147E+02  0.90320389510E+02  0.16255000781E+03  0.12509000000E+03 0.  0.
         25    1    3    3    0    0  0.28934622701E+02  0.21472154148E+01  0.71498747413E+02  0.14697415387E+03  0.12509000000E+03 0.  0.
<mgrwt>
<rscale>  2 0.40737120E+03</rscale>
<asrwt>0</asrwt>
<pdfrwt beam="1">  1       21 0.45900144E-01 0.40737120E+03</pdfrwt>
<pdfrwt beam="2">  1       21 0.19547391E-01 0.40737120E+03</pdfrwt>
<totfact> 0.10315233E+05</totfact>
</mgrwt>
</event>
<event>
 6    0  0.1539497E-004  0.6344600E+03  0.7546771E-02  0.9836384E-01
         21   -1    0    0  502  501  0.00000000000E+00  0.00000000000E+00  0.39602122590E+03  0.39602122590E+03  0.00000000000E+00 0.  1.
         21   -1    0    0  501  502 -0.00000000000E+00 -0.00000000000E+00 -0.25411487810E+03  0.25411487810E+03  0.00000000000E+00 0.  1.
      99925    2    1    2    0    0 -0.22605735006E+03 -0.20578870451E+02 -0.14146880866E+02  0.34760423179E+03  0.26287478445E+03 0.  0.
         25    1    3    3    0    0 -0.65417333080E+02 -0.40906938947E+01 -0.23309787627E+02  0.14313285976E+03  0.12509000000E+03 0.  0.
         25    1    3    3    0    0 -0.16064001698E+03 -0.16488176556E+02  0.91629067610E+01  0.20447137203E+03  0.12509000000E+03 0.  0.
         25    1    1    2    0    0  0.22605735006E+03  0.20578870451E+02  0.15605322867E+03  0.30253187221E+03  0.12509000000E+03 0.  0.
<mgrwt>
<rscale>  2 0.63446004E+03</rscale>
<asrwt>0</asrwt>
<pdfrwt beam="1">  1       21 0.58238416E-01 0.63446004E+03</pdfrwt>
<pdfrwt beam="2">  1       21 0.37369835E-01 0.63446004E+03</pdfrwt>
<totfact> 0.16512954E+04</totfact>
</mgrwt>
</event>
<event>
 6    0  0.1539497E-004  0.4976299E+03  0.7546771E-02  0.1014399E+00
         21   -1    0    0  502  501  0.00000000000E+00  0.00000000000E+00  0.62082102111E+02  0.62082102111E+02  0.00000000000E+00 0. -1.
         21   -1    0    0  501  502 -0.00000000000E+00 -0.00000000000E+00 -0.99720960386E+03  0.99720960386E+03  0.00000000000E+00 0. -1.
      99925    2    1    2    0    0  0.13657196730E+03 -0.12715051116E+02 -0.69579922932E+03  0.75640706644E+03  0.26306179477E+03 0.  0.
         25    1    3    3    0    0  0.91737793827E+02 -0.40600338296E+02 -0.35375685105E+03  0.38840137493E+03  0.12509000000E+03 0.  0.
         25    1    3    3    0    0  0.44834173473E+02  0.27885287180E+02 -0.34204237827E+03  0.36800569151E+03  0.12509000000E+03 0.  0.
         25    1    1    2    0    0 -0.13657196730E+03  0.12715051116E+02 -0.23932827244E+03  0.30288463953E+03  0.12509000000E+03 0.  0.
<mgrwt>
<rscale>  2 0.49762986E+03</rscale>
<asrwt>0</asrwt>
<pdfrwt beam="1">  1       21 0.91297205E-02 0.49762986E+03</pdfrwt>
<pdfrwt beam="2">  1       21 0.14664848E+00 0.49762986E+03</pdfrwt>
<totfact> 0.26834010E+04</totfact>
</mgrwt>
</event>
<event>
 6    0  0.1539497E-004  0.4162723E+03  0.7546771E-02  0.1038286E+00
         21   -1    0    0  502  501  0.00000000000E+00  0.00000000000E+00  0.27713077611E+03  0.27713077611E+03  0.00000000000E+00 0.  1.
         21   -1    0    0  501  502 -0.00000000000E+00 -0.00000000000E+00 -0.15631843588E+03  0.15631843588E+03  0.00000000000E+00 0.  1.
      99925    2    1    2    0    0  0.37631256095E+02 -0.37868489387E+02  0.12777326150E+03  0.29726515841E+03  0.26304074614E+03 0.  0.
         25    1    3    3    0    0  0.41642611420E+02 -0.40308979604E+02  0.37318349460E+02  0.14282537670E+03  0.12509000000E+03 0.  0.
         25    1    1    2    0    0 -0.37631256095E+02  0.37868489387E+02 -0.69609212726E+01  0.13618405358E+03  0.12509000000E+03 0.  0.
         25    1    3    3    0    0 -0.40113553250E+01  0.24404902170E+01  0.90454912037E+02  0.15443978171E+03  0.12509000000E+03 0.  0.
<mgrwt>
<rscale>  2 0.41627226E+03</rscale>
<asrwt>0</asrwt>
<pdfrwt beam="1">  1       21 0.40754526E-01 0.41627226E+03</pdfrwt>
<pdfrwt beam="2">  1       21 0.22988005E-01 0.41627226E+03</pdfrwt>
<totfact> 0.96723369E+04</totfact>
</mgrwt>
</event>
<event>
 6    0  0.1539497E-004  0.4112695E+03  0.7546771E-02  0.1039946E+00
         21   -1    0    0  502  501  0.00000000000E+00  0.00000000000E+00  0.69345827739E+02  0.69345827739E+02  0.00000000000E+00 0. -1.
         21   -1    0    0  501  502 -0.00000000000E+00 -0.00000000000E+00 -0.60977931592E+03  0.60977931592E+03  0.00000000000E+00 0. -1.
      99925    2    1    2    0    0 -0.25136097182E+02  0.58386316936E+02 -0.34153884495E+03  0.43571731184E+03  0.26298290408E+03 0.  0.
         25    1    3    3    0    0 -0.20689236703E+02  0.59650855919E+02 -0.22270534364E+03  0.26311869434E+03  0.12509000000E+03 0.  0.
         25    1    3    3    0    0 -0.44468604783E+01 -0.12645389825E+01 -0.11883350132E+03  0.17259861750E+03  0.12509000000E+03 0.  0.
         25    1    1    2    0    0  0.25136097182E+02 -0.58386316936E+02 -0.19889464322E+03  0.24340783182E+03  0.12509000000E+03 0.  0.
<mgrwt>
<rscale>  2 0.41126950E+03</rscale>
<asrwt>0</asrwt>
<pdfrwt beam="1">  1       21 0.10197916E-01 0.41126950E+03</pdfrwt>
<pdfrwt beam="2">  1       21 0.89673428E-01 0.41126950E+03</pdfrwt>
<totfact> 0.77478884E+04</totfact>
</mgrwt>
</event>
<event>
 6    0  0.1539497E-004  0.1161077E+04  0.7546771E-02  0.9147625E-01
         21   -1    0    0  502  501  0.00000000000E+00  0.00000000000E+00  0.26354755945E+04  0.26354755945E+04  0.00000000000E+00 0. -1.
         21   -1    0    0  501  502 -0.00000000000E+00 -0.00000000000E+00 -0.12788020838E+03  0.12788020838E+03  0.00000000000E+00 0. -1.
      99925    2    1    2    0    0 -0.52324157453E+03 -0.14028399507E+03  0.12058173709E+04  0.13478223862E+04  0.26299868503E+03 0.  0.
         25    1    3    3    0    0 -0.24136268616E+03 -0.36578618238E+02  0.61346109870E+03  0.67199402475E+03  0.12509000000E+03 0.  0.
         25    1    3    3    0    0 -0.28187888837E+03 -0.10370537683E+03  0.59235627217E+03  0.67582836147E+03  0.12509000000E+03 0.  0.
         25    1    1    2    0    0  0.52324157453E+03  0.14028399507E+03  0.13017780152E+04  0.14155334166E+04  0.12509000000E+03 0.  0.
<mgrwt>
<rscale>  2 0.11610774E+04</rscale>
<asrwt>0</asrwt>
<pdfrwt beam="1">  1       21 0.38756990E+00 0.11610774E+04</pdfrwt>
<pdfrwt beam="2">  1       21 0.18805915E-01 0.11610774E+04</pdfrwt>
<totfact> 0.15739042E+02</totfact>
</mgrwt>
</event>
<event>
 6    0  0.1539497E-004  0.4628539E+03  0.7546771E-02  0.1023957E+00
         21   -1    0    0  502  501  0.00000000000E+00  0.00000000000E+00  0.11480558265E+03  0.11480558265E+03  0.00000000000E+00 0. -1.
         21   -1    0    0  501  502 -0.00000000000E+00 -0.00000000000E+00 -0.46651425561E+03  0.46651425561E+03  0.00000000000E+00 0. -1.
      99925    2    1    2    0    0 -0.94357950521E+02 -0.74511719157E+02 -0.22641518391E+03  0.36730725541E+03  0.26305011928E+03 0.  0.
         25    1    3    3    0    0 -0.80085033607E+02 -0.64809366286E+02 -0.14150175862E+03  0.21513744992E+03  0.12509000000E+03 0.  0.
         25    1    3    3    0    0 -0.14272916914E+02 -0.97023528711E+01 -0.84913425292E+02  0.15216980549E+03  0.12509000000E+03 0.  0.
         25    1    1    2    0    0  0.94357950521E+02  0.74511719157E+02 -0.12529348905E+03  0.21401258285E+03  0.12509000000E+03 0.  0.
<mgrwt>
<rscale>  2 0.46285393E+03</rscale>
<asrwt>0</asrwt>
<pdfrwt beam="1">  1       21 0.16883174E-01 0.46285393E+03</pdfrwt>
<pdfrwt beam="2">  1       21 0.68605037E-01 0.46285393E+03</pdfrwt>
<totfact> 0.56267181E+04</totfact>
</mgrwt>
</event>
<event>
 6    0  0.1539497E-004  0.4468580E+03  0.7546771E-02  0.1028663E+00
         21   -1    0    0  502  501  0.00000000000E+00  0.00000000000E+00  0.38754189074E+03  0.38754189074E+03  0.00000000000E+00 0.  1.
         21   -1    0    0  501  502 -0.00000000000E+00 -0.00000000000E+00 -0.12881321909E+03  0.12881321909E+03  0.00000000000E+00 0.  1.
      99925    2    1    2    0    0 -0.19076378711E+02  0.93793652658E+02  0.11169734662E+03  0.30088614190E+03  0.26247860035E+03 0.  0.
         25    1    3    3    0    0 -0.21537151824E+02  0.86258814869E+01  0.62452186578E+02  0.14172522164E+03  0.12509000000E+03 0.  0.
         25    1    1    2    0    0  0.19076378711E+02 -0.93793652658E+02  0.14703132502E+03  0.21546896793E+03  0.12509000000E+03 0.  0.
         25    1    3    3    0    0  0.24607731124E+01  0.85167771171E+02  0.49245160042E+02  0.15916092026E+03  0.12509000000E+03 0.  0.
<mgrwt>
<rscale>  2 0.44685800E+03</rscale>
<asrwt>0</asrwt>
<pdfrwt beam="1">  1       21 0.56991454E-01 0.44685800E+03</pdfrwt>
<pdfrwt beam="2">  1       21 0.18943121E-01 0.44685800E+03</pdfrwt>
<totfact> 0.68452136E+04</totfact>
</mgrwt>
</event>
<event>
 5    0  0.1539497E-004  0.5430584E+03  0.7546771E-02  0.1003114E+00
         21   -1    0    0  502  501  0.00000000000E+00  0.00000000000E+00  0.72228731099E+03  0.72228731099E+03  0.00000000000E+00 0.  1.
         21   -1    0    0  501  502 -0.00000000000E+00 -0.00000000000E+00 -0.10207587072E+03  0.10207587072E+03  0.00000000000E+00 0.  1.
         25    1    1    2    0    0  0.23588649049E+02  0.46206674628E+02  0.20339773636E+03  0.24435553687E+03  0.12509000000E+03 0.  0.
         25    1    1    2    0    0  0.10256765817E+03  0.78865444789E+02  0.23943659654E+03  0.29952842060E+03  0.12509000000E+03 0.  0.
         25    1    1    2    0    0 -0.12615630722E+03 -0.12507211942E+03  0.17737710737E+03  0.28047922423E+03  0.12509000000E+03 0.  0.
<mgrwt>
<rscale>  2 0.54305840E+03</rscale>
<asrwt>0</asrwt>
<pdfrwt beam="1">  1       21 0.10621872E+00 0.54305840E+03</pdfrwt>
<pdfrwt beam="2">  1       21 0.15011158E-01 0.54305840E+03</pdfrwt>
<totfact> 0.24635921E+04</totfact>
</mgrwt>
</event>
<event>
 6    0  0.1539497E-004  0.4745747E+03  0.7546771E-02  0.1020637E+00
         21   -1    0    0  502  501  0.00000000000E+00  0.00000000000E+00  0.45340333949E+03  0.45340333949E+03  0.00000000000E+00 0. -1.
         21   -1    0    0  501  502 -0.00000000000E+00 -0.00000000000E+00 -0.12418366354E+03  0.12418366354E+03  0.00000000000E+00 0. -1.
      99925    2    1    2    0    0  0.10068650436E+03  0.64676099030E+02  0.13976062380E+03  0.32094910541E+03  0.26297248213E+03 0.  0.
         25    1    1    2    0    0 -0.10068650436E+03 -0.64676099030E+02  0.18945905215E+03  0.25663789761E+03  0.12509000000E+03 0.  0.
         25    1    3    3    0    0  0.48220715304E+02 -0.70872718710E+01  0.79896183076E+02  0.15622539799E+03  0.12509000000E+03 0.  0.
         25    1    3    3    0    0  0.52465789058E+02  0.71763370901E+02  0.59864440722E+02  0.16472370742E+03  0.12509000000E+03 0.  0.
<mgrwt>
<rscale>  2 0.47457471E+03</rscale>
<asrwt>0</asrwt>
<pdfrwt beam="1">  1       21 0.66676961E-01 0.47457471E+03</pdfrwt>
<pdfrwt beam="2">  1       21 0.18262304E-01 0.47457471E+03</pdfrwt>
<totfact> 0.51614835E+04</totfact>
</mgrwt>
</event>
<event>
 6    0  0.1539497E-004  0.4634649E+03  0.7546771E-02  0.1023781E+00
         21   -1    0    0  502  501  0.00000000000E+00  0.00000000000E+00  0.38464084356E+02  0.38464084356E+02  0.00000000000E+00 0.  1.
         21   -1    0    0  501  502 -0.00000000000E+00 -0.00000000000E+00 -0.13961055178E+04  0.13961055178E+04  0.00000000000E+00 0.  1.
      99925    2    1    2    0    0  0.66064926602E+02 -0.10062728995E+03 -0.81030059282E+03  0.86035715896E+03  0.26293908844E+03 0.  0.
         25    1    3    3    0    0 -0.86569497046E+01 -0.48011674176E+02 -0.37566989100E+03  0.39894290160E+03  0.12509000000E+03 0.  0.
         25    1    3    3    0    0  0.74721876307E+02 -0.52615615777E+02 -0.43463070183E+03  0.46141425736E+03  0.12509000000E+03 0.  0.
         25    1    1    2    0    0 -0.66064926602E+02  0.10062728995E+03 -0.54734084058E+03  0.57421244316E+03  0.12509000000E+03 0.  0.
<mgrwt>
<rscale>  2 0.46346487E+03</rscale>
<asrwt>0</asrwt>
<pdfrwt beam="1">  1       21 0.56564839E-02 0.46346487E+03</pdfrwt>
<pdfrwt beam="2">  1       21 0.20530960E+00 0.46346487E+03</pdfrwt>
<totfact> 0.23819599E+04</totfact>
</mgrwt>
</event>
<event>
 6    0  0.1539497E-004  0.4501515E+03  0.7546771E-02  0.1027677E+00
         21   -1    0    0  502  501  0.00000000000E+00  0.00000000000E+00  0.14267973944E+04  0.14267973944E+04  0.00000000000E+00 0.  1.
         21   -1    0    0  501  502 -0.00000000000E+00 -0.00000000000E+00 -0.35505458671E+02  0.35505458671E+02  0.00000000000E+00 0.  1.
      99925    2    1    2    0    0  0.34515400863E+02 -0.60374665615E+02  0.11502135422E+04  0.11819410991E+04  0.26297748196E+03 0.  0.
         25    1    3    3    0    0  0.21879656201E+01 -0.29215813647E+02  0.72974521509E+03  0.74096824359E+03  0.12509000000E+03 0.  0.
         25    1    1    2    0    0 -0.34515400863E+02  0.60374665615E+02  0.24107839356E+03  0.28036175396E+03  0.12509000000E+03 0.  0.
         25    1    3    3    0    0  0.32327435243E+02 -0.31158851968E+02  0.42046832707E+03  0.44097285551E+03  0.12509000000E+03 0.  0.
<mgrwt>
<rscale>  2 0.45015151E+03</rscale>
<asrwt>0</asrwt>
<pdfrwt beam="1">  1       21 0.20982311E+00 0.45015151E+03</pdfrwt>
<pdfrwt beam="2">  1       21 0.52213919E-02 0.45015151E+03</pdfrwt>
<totfact> 0.25671350E+04</totfact>
</mgrwt>
</event>
<event>
 6    0  0.1539497E-004  0.4915527E+03  0.7546771E-02  0.1016008E+00
         21   -1    0    0  502  501  0.00000000000E+00  0.00000000000E+00  0.97551552835E+02  0.97551552835E+02  0.00000000000E+00 0.  1.
         21   -1    0    0  501  502 -0.00000000000E+00 -0.00000000000E+00 -0.61922152807E+03  0.61922152807E+03  0.00000000000E+00 0.  1.
      99925    2    1    2    0    0  0.63289665300E+02 -0.88937048496E+02 -0.45723043574E+03  0.53868506143E+03  0.26307136620E+03 0.  0.
         25    1    1    2    0    0 -0.63289665300E+02  0.88937048496E+02 -0.64439539494E+02  0.17808801947E+03  0.12509000000E+03 0.  0.
         25    1    3    3    0    0  0.52407984466E+02 -0.30810162781E+02 -0.29006851546E+03  0.32168791511E+03  0.12509000000E+03 0.  0.
         25    1    3    3    0    0  0.10881680833E+02 -0.58126885715E+02 -0.16716192028E+03  0.21699714632E+03  0.12509000000E+03 0.  0.
<mgrwt>
<rscale>  2 0.49155273E+03</rscale>
<asrwt>0</asrwt>
<pdfrwt beam="1">  1       21 0.14345817E-01 0.49155273E+03</pdfrwt>
<pdfrwt beam="2">  1       21 0.91061989E-01 0.49155273E+03</pdfrwt>
<totfact> 0.39385507E+04</totfact>
</mgrwt>
</event>
<event>
 6    0  0.1539497E-004  0.4269938E+03  0.7546771E-02  0.1034814E+00
         21   -1    0    0  502  501  0.00000000000E+00  0.00000000000E+00  0.18139273492E+03  0.18139273492E+03  0.00000000000E+00 0.  1.
         21   -1    0    0  501  502 -0.00000000000E+00 -0.00000000000E+00 -0.25128313515E+03  0.25128313515E+03  0.00000000000E+00 0.  1.
      99925    2    1    2    0    0 -0.27953764919E+01 -0.79497371908E+02 -0.73543246438E+02  0.28439067979E+03  0.26294829033E+03 0.  0.
         25    1    3    3    0    0  0.83832114879E+01 -0.11943566763E+01 -0.19771529028E+02  0.12692567188E+03  0.12509000000E+03 0.  0.
         25    1    1    2    0    0  0.27953764919E+01  0.79497371908E+02  0.36528462060E+01  0.14828519028E+03  0.12509000000E+03 0.  0.
         25    1    3    3    0    0 -0.11178587980E+02 -0.78303015231E+02 -0.53771717410E+02  0.15746500791E+03  0.12509000000E+03 0.  0.
<mgrwt>
<rscale>  2 0.42699384E+03</rscale>
<asrwt>0</asrwt>
<pdfrwt beam="1">  1       21 0.26675402E-01 0.42699384E+03</pdfrwt>
<pdfrwt beam="2">  1       21 0.36953402E-01 0.42699384E+03</pdfrwt>
<totfact> 0.88363245E+04</totfact>
</mgrwt>
</event>
<event>
 6    0  0.1539497E-004  0.4079502E+03  0.7546771E-02  0.1041061E+00
         21   -1    0    0  502  501  0.00000000000E+00  0.00000000000E+00  0.29316198811E+03  0.29316198811E+03  0.00000000000E+00 0.  1.
         21   -1    0    0  501  502 -0.00000000000E+00 -0.00000000000E+00 -0.14192100943E+03  0.14192100943E+03  0.00000000000E+00 0.  1.
      99925    2    1    2    0    0 -0.17525310809E+02  0.56517644406E+02  0.96201669881E+02  0.28615947938E+03  0.26292794774E+03 0.  0.
         25    1    3    3    0    0 -0.25659058455E+02  0.59330957625E+02  0.28488674363E+02  0.14365814450E+03  0.12509000000E+03 0.  0.
         25    1    3    3    0    0  0.81337476466E+01 -0.28133132186E+01  0.67712995518E+02  0.14250133489E+03  0.12509000000E+03 0.  0.
         25    1    1    2    0    0  0.17525310809E+02 -0.56517644406E+02  0.55039308791E+02  0.14892351816E+03  0.12509000000E+03 0.  0.
<mgrwt>
<rscale>  2 0.40795022E+03</rscale>
<asrwt>0</asrwt>
<pdfrwt beam="1">  1       21 0.43112057E-01 0.40795022E+03</pdfrwt>
<pdfrwt beam="2">  1       21 0.20870737E-01 0.40795022E+03</pdfrwt>
<totfact> 0.10378376E+05</totfact>
</mgrwt>
</event>
<event>
 6    0  0.1539497E-004  0.3917110E+03  0.7546771E-02  0.1046688E+00
         21   -1    0    0  502  501  0.00000000000E+00  0.00000000000E+00  0.18567840972E+04  0.18567840972E+04  0.00000000000E+00 0. -1.
         21   -1    0    0  501  502 -0.00000000000E+00 -0.00000000000E+00 -0.20659043915E+02  0.20659043915E+02  0.00000000000E+00 0. -1.
      99925    2    1    2    0    0  0.16839878476E+02 -0.16509803431E+02  0.11954622989E+04  0.12242567756E+04  0.26290376459E+03 0.  0.
         25    1    3    3    0    0  0.14243963462E+02 -0.45965826754E+02  0.67292618366E+03  0.68614350138E+03  0.12509000000E+03 0.  0.
         25    1    1    2    0    0 -0.16839878476E+02  0.16509803431E+02  0.64066275432E+03  0.65318636543E+03  0.12509000000E+03 0.  0.
         25    1    3    3    0    0  0.25959150139E+01  0.29456023323E+02  0.52253611526E+03  0.53811327426E+03  0.12509000000E+03 0.  0.
<mgrwt>
<rscale>  2 0.39171104E+03</rscale>
<asrwt>0</asrwt>
<pdfrwt beam="1">  1       21 0.27305637E+00 0.39171104E+03</pdfrwt>
<pdfrwt beam="2">  1       21 0.30380960E-02 0.39171104E+03</pdfrwt>
<totfact> 0.26740575E+04</totfact>
</mgrwt>
</event>
<event>
 6    0  0.1539497E-004  0.4168846E+03  0.7546771E-02  0.1038085E+00
         21   -1    0    0  502  501  0.00000000000E+00  0.00000000000E+00  0.46780470147E+03  0.46780470147E+03  0.00000000000E+00 0. -1.
         21   -1    0    0  501  502 -0.00000000000E+00 -0.00000000000E+00 -0.92876779973E+02  0.92876779973E+02  0.00000000000E+00 0. -1.
      99925    2    1    2    0    0 -0.52372115450E+02 -0.28483470630E+02  0.19136089145E+03  0.33068472234E+03  0.26301948262E+03 0.  0.
         25    1    3    3    0    0 -0.17202611919E+02  0.19473926319E+02  0.65674905584E+02  0.14365188821E+03  0.12509000000E+03 0.  0.
         25    1    1    2    0    0  0.52372115450E+02  0.28483470630E+02  0.18356703005E+03  0.22999675910E+03  0.12509000000E+03 0.  0.
         25    1    3    3    0    0 -0.35169503531E+02 -0.47957396949E+02  0.12568598586E+03  0.18703283413E+03  0.12509000000E+03 0.  0.
<mgrwt>
<rscale>  2 0.41688461E+03</rscale>
<asrwt>0</asrwt>
<pdfrwt beam="1">  1       21 0.68794808E-01 0.41688461E+03</pdfrwt>
<pdfrwt beam="2">  1       21 0.13658350E-01 0.41688461E+03</pdfrwt>
<totfact> 0.83681360E+04</totfact>
</mgrwt>
</event>
<event>
 6    0  0.1539497E-004  0.4381805E+03  0.7546771E-02  0.1031307E+00
         21   -1    0    0  502  501  0.00000000000E+00  0.00000000000E+00  0.11012191951E+03  0.11012191951E+03  0.00000000000E+00 0. -1.
         21   -1    0    0  501  502 -0.00000000000E+00 -0.00000000000E+00 -0.43588546149E+03  0.43588546149E+03  0.00000000000E+00 0. -1.
      99925    2    1    2    0    0 -0.60720904152E+01 -0.93124550779E+02 -0.23908429896E+03  0.36748608952E+03  0.26301268362E+03 0.  0.
         25    1    3    3    0    0 -0.42800710134E+02 -0.39303126419E+02 -0.12329285732E+03  0.18500073865E+03  0.12509000000E+03 0.  0.
         25    1    1    2    0    0  0.60720904152E+01  0.93124550779E+02 -0.86679243030E+02  0.17852129148E+03  0.12509000000E+03 0.  0.
         25    1    3    3    0    0  0.36728619719E+02 -0.53821424360E+02 -0.11579144164E+03  0.18248535087E+03  0.12509000000E+03 0.  0.
<mgrwt>
<rscale>  2 0.43818053E+03</rscale>
<asrwt>0</asrwt>
<pdfrwt beam="1">  1       21 0.16194400E-01 0.43818053E+03</pdfrwt>
<pdfrwt beam="2">  1       21 0.64100803E-01 0.43818053E+03</pdfrwt>
<totfact> 0.71136031E+04</totfact>
</mgrwt>
</event>
<event>
 6    0  0.1539497E-004  0.3980703E+03  0.7546771E-02  0.1044450E+00
         21   -1    0    0  502  501  0.00000000000E+00  0.00000000000E+00  0.13583332446E+03  0.13583332446E+03  0.00000000000E+00 0.  1.
         21   -1    0    0  501  502 -0.00000000000E+00 -0.00000000000E+00 -0.29164410303E+03  0.29164410303E+03  0.00000000000E+00 0.  1.
      99925    2    1    2    0    0  0.86496259266E+01  0.40626189904E+02 -0.10782281739E+03  0.28720748825E+03  0.26293930483E+03 0.  0.
         25    1    3    3    0    0 -0.26350479515E+02  0.19823223783E+02 -0.81955409326E+02  0.15313884285E+03  0.12509000000E+03 0.  0.
         25    1    1    2    0    0 -0.86496259266E+01 -0.40626189904E+02 -0.47987961181E+02  0.14026993924E+03  0.12509000000E+03 0.  0.
         25    1    3    3    0    0  0.35000105441E+02  0.20802966121E+02 -0.25867408068E+02  0.13406864540E+03  0.12509000000E+03 0.  0.
<mgrwt>
<rscale>  2 0.39807029E+03</rscale>
<asrwt>0</asrwt>
<pdfrwt beam="1">  1       21 0.19975489E-01 0.39807029E+03</pdfrwt>
<pdfrwt beam="2">  1       21 0.42888839E-01 0.39807029E+03</pdfrwt>
<totfact> 0.11426339E+05</totfact>
</mgrwt>
</event>
<event>
 6    0  0.1539497E-004  0.4824911E+03  0.7546771E-02  0.1018453E+00
         21   -1    0    0  502  501  0.00000000000E+00  0.00000000000E+00  0.16545989357E+04  0.16545989357E+04  0.00000000000E+00 0.  1.
         21   -1    0    0  501  502 -0.00000000000E+00 -0.00000000000E+00 -0.35174341125E+02  0.35174341125E+02  0.00000000000E+00 0.  1.
      99925    2    1    2    0    0 -0.84545161077E+02 -0.92490839111E+02  0.11923058733E+04  0.12274094053E+04  0.26313136073E+03 0.  0.
         25    1    3    3    0    0 -0.19466810439E+02 -0.69446896585E+02  0.49569358133E+03  0.51629590627E+03  0.12509000000E+03 0.  0.
         25    1    1    2    0    0  0.84545161077E+02  0.92490839111E+02  0.42711872130E+03  0.46236387161E+03  0.12509000000E+03 0.  0.
         25    1    3    3    0    0 -0.65078350638E+02 -0.23043942527E+02  0.69661229198E+03  0.71111349899E+03  0.12509000000E+03 0.  0.
<mgrwt>
<rscale>  2 0.48249115E+03</rscale>
<asrwt>0</asrwt>
<pdfrwt beam="1">  1       21 0.24332332E+00 0.48249115E+03</pdfrwt>
<pdfrwt beam="2">  1       21 0.51726983E-02 0.48249115E+03</pdfrwt>
<totfact> 0.15819603E+04</totfact>
</mgrwt>
</event>
<event>
 6    0  0.1539497E-004  0.4920801E+03  0.7546771E-02  0.1015867E+00
         21   -1    0    0  502  501  0.00000000000E+00  0.00000000000E+00  0.10506439873E+03  0.10506439873E+03  0.00000000000E+00 0.  1.
         21   -1    0    0  501  502 -0.00000000000E+00 -0.00000000000E+00 -0.57617707575E+03  0.57617707575E+03  0.00000000000E+00 0.  1.
      99925    2    1    2    0    0  0.34579659755E+01  0.14508301938E+03 -0.29329656888E+03  0.41984691361E+03  0.26303519443E+03 0.  0.
         25    1    3    3    0    0 -0.33455097910E+02  0.84506505347E+02 -0.17598615874E+03  0.23426316226E+03  0.12509000000E+03 0.  0.
         25    1    3    3    0    0  0.36913063885E+02  0.60576514031E+02 -0.11731041014E+03  0.18558375135E+03  0.12509000000E+03 0.  0.
         25    1    1    2    0    0 -0.34579659755E+01 -0.14508301938E+03 -0.17781610814E+03  0.26139456087E+03  0.12509000000E+03 0.  0.
<mgrwt>
<rscale>  2 0.49208007E+03</rscale>
<asrwt>0</asrwt>
<pdfrwt beam="1">  1       21 0.15450647E-01 0.49208007E+03</pdfrwt>
<pdfrwt beam="2">  1       21 0.84731924E-01 0.49208007E+03</pdfrwt>
<totfact> 0.40675705E+04</totfact>
</mgrwt>
</event>
<event>
 6    0  0.1539497E-004  0.4129391E+03  0.7546771E-02  0.1039389E+00
         21   -1    0    0  502  501  0.00000000000E+00  0.00000000000E+00  0.66773402371E+02  0.66773402371E+02  0.00000000000E+00 0. -1.
         21   -1    0    0  501  502 -0.00000000000E+00 -0.00000000000E+00 -0.63842305669E+03  0.63842305669E+03  0.00000000000E+00 0. -1.
      99925    2    1    2    0    0  0.17985940820E+02  0.10284747983E+01 -0.26628332075E+03  0.37471097133E+03  0.26301511990E+03 0.  0.
         25    1    3    3    0    0 -0.18877753510E+02 -0.28469978817E+02 -0.13938569987E+03  0.19037539415E+03  0.12509000000E+03 0.  0.
         25    1    1    2    0    0 -0.17985940820E+02 -0.10284747983E+01 -0.30536633357E+03  0.33048548773E+03  0.12509000000E+03 0.  0.
         25    1    3    3    0    0  0.36863694330E+02  0.29498453615E+02 -0.12689762089E+03  0.18433557717E+03  0.12509000000E+03 0.  0.
<mgrwt>
<rscale>  2 0.41293912E+03</rscale>
<asrwt>0</asrwt>
<pdfrwt beam="1">  1       21 0.98196181E-02 0.41293912E+03</pdfrwt>
<pdfrwt beam="2">  1       21 0.93885743E-01 0.41293912E+03</pdfrwt>
<totfact> 0.74335281E+04</totfact>
</mgrwt>
</event>
<event>
 6    0  0.1539497E-004  0.4441835E+03  0.7546771E-02  0.1029471E+00
         21   -1    0    0  502  501  0.00000000000E+00  0.00000000000E+00  0.14450478691E+03  0.14450478691E+03  0.00000000000E+00 0.  1.
         21   -1    0    0  501  502 -0.00000000000E+00 -0.00000000000E+00 -0.34133646997E+03  0.34133646997E+03  0.00000000000E+00 0.  1.
      99925    2    1    2    0    0  0.62433008248E+02  0.66544559185E+02 -0.17655538562E+03  0.32968526047E+03  0.26304848965E+03 0.  0.
         25    1    1    2    0    0 -0.62433008248E+02 -0.66544559185E+02 -0.20276297447E+02  0.15615599641E+03  0.12509000000E+03 0.  0.
         25    1    3    3    0    0 -0.69790702293E+01  0.21047871630E+02 -0.65342090783E+02  0.14285943178E+03  0.12509000000E+03 0.  0.
         25    1    3    3    0    0  0.69412078478E+02  0.45496687555E+02 -0.11121329484E+03  0.18682582869E+03  0.12509000000E+03 0.  0.
<mgrwt>
<rscale>  2 0.44418354E+03</rscale>
<asrwt>0</asrwt>
<pdfrwt beam="1">  1       21 0.21250704E-01 0.44418354E+03</pdfrwt>
<pdfrwt beam="2">  1       21 0.50196540E-01 0.44418354E+03</pdfrwt>
<totfact> 0.72287930E+04</totfact>
</mgrwt>
</event>
<event>
 6    0  0.1539497E-004  0.4169730E+03  0.7546771E-02  0.1038056E+00
         21   -1    0    0  502  501  0.00000000000E+00  0.00000000000E+00  0.48983743755E+03  0.48983743755E+03  0.00000000000E+00 0. -1.
         21   -1    0    0  501  502 -0.00000000000E+00 -0.00000000000E+00 -0.88736816628E+02  0.88736816628E+02  0.00000000000E+00 0. -1.
      99925    2    1    2    0    0 -0.37251886916E+02 -0.54400882202E+02  0.22220820488E+03  0.35054538829E+03  0.26297989252E+03 0.  0.
         25    1    3    3    0    0  0.20591422746E+02 -0.31894308748E+02  0.12050739341E+03  0.17779424509E+03  0.12509000000E+03 0.  0.
         25    1    1    2    0    0  0.37251886916E+02  0.54400882202E+02  0.17889241604E+03  0.22802886589E+03  0.12509000000E+03 0.  0.
         25    1    3    3    0    0 -0.57843309662E+02 -0.22506573455E+02  0.10170081147E+03  0.17275114319E+03  0.12509000000E+03 0.  0.
<mgrwt>
<rscale>  2 0.41697297E+03</rscale>
<asrwt>0</asrwt>
<pdfrwt beam="1">  1       21 0.72034916E-01 0.41697297E+03</pdfrwt>
<pdfrwt beam="2">  1       21 0.13049532E-01 0.41697297E+03</pdfrwt>
<totfact> 0.82032744E+04</totfact>
</mgrwt>
</event>
<event>
 6    0  0.1539497E-004  0.4551400E+03  0.7546771E-02  0.1026200E+00
         21   -1    0    0  502  501  0.00000000000E+00  0.00000000000E+00  0.14160941460E+04  0.14160941460E+04  0.00000000000E+00 0.  1.
         21   -1    0    0  501  502 -0.00000000000E+00 -0.00000000000E+00 -0.36571085037E+02  0.36571085037E+02  0.00000000000E+00 0.  1.
      99925    2    1    2    0    0  0.82685543294E+02 -0.61177582783E+02  0.71819936180E+03  0.77180097225E+03  0.26322390048E+03 0.  0.
         25    1    3    3    0    0  0.32892846676E+02 -0.13975152059E+02  0.44452525308E+03  0.46317108390E+03  0.12509000000E+03 0.  0.
         25    1    1    2    0    0 -0.82685543294E+02  0.61177582783E+02  0.66132369913E+03  0.68086425875E+03  0.12509000000E+03 0.  0.
         25    1    3    3    0    0  0.49792696618E+02 -0.47202430725E+02  0.27367410871E+03  0.30862988835E+03  0.12509000000E+03 0.  0.
<mgrwt>
<rscale>  2 0.45513998E+03</rscale>
<asrwt>0</asrwt>
<pdfrwt beam="1">  1       21 0.20824910E+00 0.45513998E+03</pdfrwt>
<pdfrwt beam="2">  1       21 0.53781017E-02 0.45513998E+03</pdfrwt>
<totfact> 0.24934575E+04</totfact>
</mgrwt>
</event>
<event>
 6    0  0.1539497E-004  0.4684619E+03  0.7546771E-02  0.1022355E+00
         21   -1    0    0  502  501  0.00000000000E+00  0.00000000000E+00  0.64159524577E+02  0.64159524577E+02  0.00000000000E+00 0.  1.
         21   -1    0    0  501  502 -0.00000000000E+00 -0.00000000000E+00 -0.85512064682E+03  0.85512064682E+03  0.00000000000E+00 0.  1.
      99925    2    1    2    0    0  0.10139230019E+03  0.72798654711E+02 -0.51516999345E+03  0.59173124759E+03  0.26299373483E+03 0.  0.
         25    1    3    3    0    0  0.74173632681E+02  0.47405342073E+01 -0.23870672667E+03  0.27955788293E+03  0.12509000000E+03 0.  0.
         25    1    1    2    0    0 -0.10139230019E+03 -0.72798654711E+02 -0.27579112880E+03  0.32754892381E+03  0.12509000000E+03 0.  0.
         25    1    3    3    0    0  0.27218667506E+02  0.68058120504E+02 -0.27646326678E+03  0.31217336466E+03  0.12509000000E+03 0.  0.
<mgrwt>
<rscale>  2 0.46846188E+03</rscale>
<asrwt>0</asrwt>
<pdfrwt beam="1">  1       21 0.94352239E-02 0.46846188E+03</pdfrwt>
<pdfrwt beam="2">  1       21 0.12575304E+00 0.46846188E+03</pdfrwt>
<totfact> 0.38221168E+04</totfact>
</mgrwt>
</event>
<event>
 6    0  0.1539497E-004  0.4281656E+03  0.7546771E-02  0.1034441E+00
         21   -1    0    0  502  501  0.00000000000E+00  0.00000000000E+00  0.36049913977E+02  0.36049913977E+02  0.00000000000E+00 0.  1.
         21   -1    0    0  501  502 -0.00000000000E+00 -0.00000000000E+00 -0.12713327111E+04  0.12713327111E+04  0.00000000000E+00 0.  1.
      99925    2    1    2    0    0  0.83796619202E+01 -0.73710739995E+02 -0.66688762375E+03  0.72067650347E+03  0.26292970165E+03 0.  0.
         25    1    1    2    0    0 -0.83796619202E+01  0.73710739995E+02 -0.56839517340E+03  0.58670612164E+03  0.12509000000E+03 0.  0.
         25    1    3    3    0    0  0.11157958419E+02  0.39265663591E+01 -0.29038123094E+03  0.31639956596E+03  0.12509000000E+03 0.  0.
         25    1    3    3    0    0 -0.27782964992E+01 -0.77637306355E+02 -0.37650639281E+03  0.40427693750E+03  0.12509000000E+03 0.  0.
<mgrwt>
<rscale>  2 0.42816555E+03</rscale>
<asrwt>0</asrwt>
<pdfrwt beam="1">  1       21 0.53014588E-02 0.42816555E+03</pdfrwt>
<pdfrwt beam="2">  1       21 0.18696066E+00 0.42816555E+03</pdfrwt>
<totfact> 0.35811412E+04</totfact>
</mgrwt>
</event>
<event>
 6    0  0.1539497E-004  0.4002612E+03  0.7546771E-02  0.1043689E+00
         21   -1    0    0  502  501  0.00000000000E+00  0.00000000000E+00  0.21415622985E+03  0.21415622985E+03  0.00000000000E+00 0.  1.
         21   -1    0    0  501  502 -0.00000000000E+00 -0.00000000000E+00 -0.18702352161E+03  0.18702352161E+03  0.00000000000E+00 0.  1.
      99925    2    1    2    0    0  0.27714340291E+02 -0.23982111393E+02 -0.96101021307E+01  0.26575165785E+03  0.26303680971E+03 0.  0.
         25    1    1    2    0    0 -0.27714340291E+02  0.23982111393E+02  0.36742810378E+02  0.13542809361E+03  0.12509000000E+03 0.  0.
         25    1    3    3    0    0  0.52494488399E+02 -0.22772342280E+02  0.31160222479E+01  0.13759167337E+03  0.12509000000E+03 0.  0.
         25    1    3    3    0    0 -0.24780148108E+02 -0.12097691132E+01 -0.12726124379E+02  0.12815998449E+03  0.12509000000E+03 0.  0.
<mgrwt>
<rscale>  2 0.40026118E+03</rscale>
<asrwt>0</asrwt>
<pdfrwt beam="1">  1       21 0.31493563E-01 0.40026118E+03</pdfrwt>
<pdfrwt beam="2">  1       21 0.27503459E-01 0.40026118E+03</pdfrwt>
<totfact> 0.11545093E+05</totfact>
</mgrwt>
</event>
<event>
 6    0  0.1539497E-004  0.4424801E+03  0.7546771E-02  0.1029989E+00
         21   -1    0    0  502  501  0.00000000000E+00  0.00000000000E+00  0.17314149165E+04  0.17314149165E+04  0.00000000000E+00 0.  1.
         21   -1    0    0  501  502 -0.00000000000E+00 -0.00000000000E+00 -0.28270033320E+02  0.28270033320E+02  0.00000000000E+00 0.  1.
      99925    2    1    2    0    0 -0.74676758124E+02  0.13248053106E+02  0.81898130462E+03  0.86350144692E+03  0.26296813952E+03 0.  0.
         25    1    1    2    0    0  0.74676758124E+02 -0.13248053106E+02  0.88416357857E+03  0.89618350291E+03  0.12509000000E+03 0.  0.
         25    1    3    3    0    0 -0.26034906857E+02  0.39021230573E+02  0.33688181092E+03  0.36240493297E+03  0.12509000000E+03 0.  0.
         25    1    3    3    0    0 -0.48641851267E+02 -0.25773177466E+02  0.48209949370E+03  0.50109651395E+03  0.12509000000E+03 0.  0.
<mgrwt>
<rscale>  2 0.44248009E+03</rscale>
<asrwt>0</asrwt>
<pdfrwt beam="1">  1       21 0.25461977E+00 0.44248009E+03</pdfrwt>
<pdfrwt beam="2">  1       21 0.41573590E-02 0.44248009E+03</pdfrwt>
<totfact> 0.19913267E+04</totfact>
</mgrwt>
</event>
<event>
 6    0  0.1539497E-004  0.4635951E+03  0.7546771E-02  0.1023744E+00
         21   -1    0    0  502  501  0.00000000000E+00  0.00000000000E+00  0.34598417785E+03  0.34598417785E+03  0.00000000000E+00 0.  1.
         21   -1    0    0  501  502 -0.00000000000E+00 -0.00000000000E+00 -0.15529643438E+03  0.15529643438E+03  0.00000000000E+00 0.  1.
      99925    2    1    2    0    0 -0.43936341057E+02  0.74779782247E+02  0.21040879035E+03  0.34779170159E+03  0.26299199748E+03 0.  0.
         25    1    3    3    0    0 -0.59400663439E+02  0.27123968843E+02  0.12284473541E+03  0.18708951232E+03  0.12509000000E+03 0.  0.
         25    1    1    2    0    0  0.43936341057E+02 -0.74779782247E+02 -0.19721046878E+02  0.15348891064E+03  0.12509000000E+03 0.  0.
         25    1    3    3    0    0  0.15464322382E+02  0.47655813404E+02  0.87564054941E+02  0.16070218927E+03  0.12509000000E+03 0.  0.
<mgrwt>
<rscale>  2 0.46359512E+03</rscale>
<asrwt>0</asrwt>
<pdfrwt beam="1">  1       21 0.50880026E-01 0.46359512E+03</pdfrwt>
<pdfrwt beam="2">  1       21 0.22837711E-01 0.46359512E+03</pdfrwt>
<totfact> 0.60917017E+04</totfact>
</mgrwt>
</event>
<event>
 6    0  0.1613991E-004  0.4049755E+03  0.7546771E-02  0.1042070E+00
         21   -1    0    0  502  501  0.00000000000E+00  0.00000000000E+00  0.76619292996E+03  0.76619292996E+03  0.00000000000E+00 0. -1.
         21   -1    0    0  501  502 -0.00000000000E+00 -0.00000000000E+00 -0.53512999749E+02  0.53512999749E+02  0.00000000000E+00 0. -1.
      99925    2    1    2    0    0  0.23315926245E+02 -0.24445218856E+02  0.38640313231E+03  0.46864288966E+03  0.26301630411E+03 0.  0.
         25    1    3    3    0    0 -0.26263008577E+02 -0.26801459467E+02  0.19127623001E+03  0.23160778941E+03  0.12509000000E+03 0.  0.
         25    1    3    3    0    0  0.49578934821E+02  0.23562406108E+01  0.19512690230E+03  0.23703510025E+03  0.12509000000E+03 0.  0.
         25    1    1    2    0    0 -0.23315926245E+02  0.24445218856E+02  0.32627679790E+03  0.35106304005E+03  0.12509000000E+03 0.  0.
<mgrwt>
<rscale>  2 0.40497547E+03</rscale>
<asrwt>0</asrwt>
<pdfrwt beam="1">  1       21 0.11267542E+00 0.40497547E+03</pdfrwt>
<pdfrwt beam="2">  1       21 0.78695593E-02 0.40497547E+03</pdfrwt>
<totfact> 0.70777417E+04</totfact>
</mgrwt>
</event>
<event>
 6    0  0.1539497E-004  0.4113578E+03  0.7546771E-02  0.1039916E+00
         21   -1    0    0  502  501  0.00000000000E+00  0.00000000000E+00  0.91152643024E+02  0.91152643024E+02  0.00000000000E+00 0.  1.
         21   -1    0    0  501  502 -0.00000000000E+00 -0.00000000000E+00 -0.46409863867E+03  0.46409863867E+03  0.00000000000E+00 0.  1.
      99925    2    1    2    0    0 -0.15616273212E+02  0.57088294365E+02 -0.27946671156E+03  0.38825180266E+03  0.26293512139E+03 0.  0.
         25    1    3    3    0    0  0.33890065088E+01 -0.67041844588E+00 -0.94419018730E+02  0.15676222129E+03  0.12509000000E+03 0.  0.
         25    1    3    3    0    0 -0.19005279721E+02  0.57758712811E+02 -0.18504769283E+03  0.23148958137E+03  0.12509000000E+03 0.  0.
         25    1    1    2    0    0  0.15616273212E+02 -0.57088294365E+02 -0.93479284081E+02  0.16699947903E+03  0.12509000000E+03 0.  0.
<mgrwt>
<rscale>  2 0.41135784E+03</rscale>
<asrwt>0</asrwt>
<pdfrwt beam="1">  1       21 0.13404800E-01 0.41135784E+03</pdfrwt>
<pdfrwt beam="2">  1       21 0.68249800E-01 0.41135784E+03</pdfrwt>
<totfact> 0.88270989E+04</totfact>
</mgrwt>
</event>
<event>
 6    0  0.1539497E-004  0.4063171E+03  0.7546771E-02  0.1041614E+00
         21   -1    0    0  502  501  0.00000000000E+00  0.00000000000E+00  0.20830820425E+03  0.20830820425E+03  0.00000000000E+00 0. -1.
         21   -1    0    0  501  502 -0.00000000000E+00 -0.00000000000E+00 -0.19813623294E+03  0.19813623294E+03  0.00000000000E+00 0. -1.
      99925    2    1    2    0    0  0.65752334723E+01 -0.53485589479E+02  0.23774346679E+02  0.26956319415E+03  0.26304971793E+03 0.  0.
         25    1    3    3    0    0 -0.18106531665E+02 -0.54722470564E+02  0.33301491255E+02  0.14170000950E+03  0.12509000000E+03 0.  0.
         25    1    1    2    0    0 -0.65752334723E+01  0.53485589479E+02 -0.13602375369E+02  0.13688124303E+03  0.12509000000E+03 0.  0.
         25    1    3    3    0    0  0.24681765137E+02  0.12368810847E+01 -0.95271445761E+01  0.12786318465E+03  0.12509000000E+03 0.  0.
<mgrwt>
<rscale>  2 0.40631713E+03</rscale>
<asrwt>0</asrwt>
<pdfrwt beam="1">  1       21 0.30633560E-01 0.40631713E+03</pdfrwt>
<pdfrwt beam="2">  1       21 0.29137681E-01 0.40631713E+03</pdfrwt>
<totfact> 0.10875281E+05</totfact>
</mgrwt>
</event>
<event>
 6    0  0.1539497E-004  0.4731833E+03  0.7546771E-02  0.1021026E+00
         21   -1    0    0  502  501  0.00000000000E+00  0.00000000000E+00  0.46954499071E+02  0.46954499071E+02  0.00000000000E+00 0.  1.
         21   -1    0    0  501  502 -0.00000000000E+00 -0.00000000000E+00 -0.11921242930E+04  0.11921242930E+04  0.00000000000E+00 0.  1.
      99925    2    1    2    0    0  0.95784191604E+02 -0.84227855349E+02 -0.76628299877E+03  0.82018542303E+03  0.26314549391E+03 0.  0.
         25    1    1    2    0    0 -0.95784191604E+02  0.84227855349E+02 -0.37888679512E+03  0.41889336901E+03  0.12509000000E+03 0.  0.
         25    1    3    3    0    0  0.56925824338E+02 -0.84084207325E+02 -0.40330368998E+03  0.43429492036E+03  0.12509000000E+03 0.  0.
         25    1    3    3    0    0  0.38858367266E+02 -0.14364802350E+00 -0.36297930879E+03  0.38589050267E+03  0.12509000000E+03 0.  0.
<mgrwt>
<rscale>  2 0.47318326E+03</rscale>
<asrwt>0</asrwt>
<pdfrwt beam="1">  1       21 0.69050742E-02 0.47318326E+03</pdfrwt>
<pdfrwt beam="2">  1       21 0.17531237E+00 0.47318326E+03</pdfrwt>
<totfact> 0.26919142E+04</totfact>
</mgrwt>
</event>
<event>
 6    0  0.1539497E-004  0.4068110E+03  0.7546771E-02  0.1041446E+00
         21   -1    0    0  502  501  0.00000000000E+00  0.00000000000E+00  0.14911354195E+03  0.14911354195E+03  0.00000000000E+00 0.  1.
         21   -1    0    0  501  502 -0.00000000000E+00 -0.00000000000E+00 -0.27746503072E+03  0.27746503072E+03  0.00000000000E+00 0.  1.
      99925    2    1    2    0    0  0.55820687757E+02  0.68983054922E+01 -0.71626727216E+02  0.27815774369E+03  0.26282657119E+03 0.  0.
         25    1    3    3    0    0 -0.24440083313E+00 -0.22567282057E+02 -0.19631358818E+02  0.12861664084E+03  0.12509000000E+03 0.  0.
         25    1    1    2    0    0 -0.55820687757E+02 -0.68983054922E+01 -0.56724761562E+02  0.14842082898E+03  0.12509000000E+03 0.  0.
         25    1    3    3    0    0  0.56065088591E+02  0.29465587549E+02 -0.51995368398E+02  0.14954110286E+03  0.12509000000E+03 0.  0.
<mgrwt>
<rscale>  2 0.40681098E+03</rscale>
<asrwt>0</asrwt>
<pdfrwt beam="1">  1       21 0.21928462E-01 0.40681098E+03</pdfrwt>
<pdfrwt beam="2">  1       21 0.40803681E-01 0.40681098E+03</pdfrwt>
<totfact> 0.10583947E+05</totfact>
</mgrwt>
</event>
<event>
 6    0  0.1539497E-004  0.4288469E+03  0.7546771E-02  0.1034225E+00
         21   -1    0    0  502  501  0.00000000000E+00  0.00000000000E+00  0.64454979743E+02  0.64454979743E+02  0.00000000000E+00 0. -1.
         21   -1    0    0  501  502 -0.00000000000E+00 -0.00000000000E+00 -0.71332615292E+03  0.71332615292E+03  0.00000000000E+00 0. -1.
      99925    2    1    2    0    0  0.61506971428E+02 -0.60205440889E+02 -0.43091108627E+03  0.51214621359E+03  0.26306192651E+03 0.  0.
         25    1    3    3    0    0  0.84338046661E+01 -0.60308020772E+02 -0.24692215066E+03  0.28341884732E+03  0.12509000000E+03 0.  0.
         25    1    3    3    0    0  0.53073166762E+02  0.10257988250E+00 -0.18398893561E+03  0.22872736627E+03  0.12509000000E+03 0.  0.
         25    1    1    2    0    0 -0.61506971428E+02  0.60205440889E+02 -0.21796008690E+03  0.26563491907E+03  0.12509000000E+03 0.  0.
<mgrwt>
<rscale>  2 0.42884693E+03</rscale>
<asrwt>0</asrwt>
<pdfrwt beam="1">  1       21 0.94786736E-02 0.42884693E+03</pdfrwt>
<pdfrwt beam="2">  1       21 0.10490090E+00 0.42884693E+03</pdfrwt>
<totfact> 0.60321081E+04</totfact>
</mgrwt>
</event>
<event>
 6    0  0.1539497E-004  0.4299064E+03  0.7546771E-02  0.1033890E+00
         21   -1    0    0  502  501  0.00000000000E+00  0.00000000000E+00  0.25022454366E+03  0.25022454366E+03  0.00000000000E+00 0. -1.
         21   -1    0    0  501  502 -0.00000000000E+00 -0.00000000000E+00 -0.18465363979E+03  0.18465363979E+03  0.00000000000E+00 0. -1.
      99925    2    1    2    0    0  0.40396321604E+02  0.76027546878E+02  0.58856544247E+02  0.28287607357E+03  0.26295005137E+03 0.  0.
         25    1    3    3    0    0  0.97334421630E+01  0.39784682634E+02 -0.10739323591E+02  0.13206211432E+03  0.12509000000E+03 0.  0.
         25    1    3    3    0    0  0.30662879441E+02  0.36242864245E+02  0.69595867838E+02  0.15081395925E+03  0.12509000000E+03 0.  0.
         25    1    1    2    0    0 -0.40396321604E+02 -0.76027546878E+02  0.67143596204E+01  0.15200210988E+03  0.12509000000E+03 0.  0.
<mgrwt>
<rscale>  2 0.42990637E+03</rscale>
<asrwt>0</asrwt>
<pdfrwt beam="1">  1       21 0.36797727E-01 0.42990637E+03</pdfrwt>
<pdfrwt beam="2">  1       21 0.27154947E-01 0.42990637E+03</pdfrwt>
<totfact> 0.86018335E+04</totfact>
</mgrwt>
</event>
<event>
 6    0  0.1539497E-004  0.4049473E+03  0.7546771E-02  0.1042080E+00
         21   -1    0    0  502  501  0.00000000000E+00  0.00000000000E+00  0.56686172171E+03  0.56686172171E+03  0.00000000000E+00 0.  1.
         21   -1    0    0  501  502 -0.00000000000E+00 -0.00000000000E+00 -0.72320255489E+02  0.72320255489E+02  0.00000000000E+00 0.  1.
      99925    2    1    2    0    0 -0.29073567519E+02  0.36482834378E+02  0.37130924894E+03  0.45749555226E+03  0.26316411696E+03 0.  0.
         25    1    3    3    0    0 -0.37599718163E+02  0.26210922317E+02  0.24700571618E+03  0.28064226906E+03  0.12509000000E+03 0.  0.
         25    1    1    2    0    0  0.29073567519E+02 -0.36482834378E+02  0.12323221728E+03  0.18168642494E+03  0.12509000000E+03 0.  0.
         25    1    3    3    0    0  0.85261506438E+01  0.10271912062E+02  0.12430353276E+03  0.17685328320E+03  0.12509000000E+03 0.  0.
<mgrwt>
<rscale>  2 0.40494733E+03</rscale>
<asrwt>0</asrwt>
<pdfrwt beam="1">  1       21 0.83362016E-01 0.40494733E+03</pdfrwt>
<pdfrwt beam="2">  1       21 0.10635332E-01 0.40494733E+03</pdfrwt>
<totfact> 0.85350902E+04</totfact>
</mgrwt>
</event>
<event>
 6    0  0.1539497E-004  0.4678141E+03  0.7546771E-02  0.1022539E+00
         21   -1    0    0  502  501  0.00000000000E+00  0.00000000000E+00  0.95228971975E+03  0.95228971975E+03  0.00000000000E+00 0.  1.
         21   -1    0    0  501  502 -0.00000000000E+00 -0.00000000000E+00 -0.57453635393E+02  0.57453635393E+02  0.00000000000E+00 0.  1.
      99925    2    1    2    0    0 -0.89331707903E+02 -0.67904085249E+02  0.67643303921E+03  0.73417391369E+03  0.26240914654E+03 0.  0.
         25    1    3    3    0    0 -0.15320981990E+02 -0.62837622610E+01  0.33621978184E+03  0.35911762413E+03  0.12509000000E+03 0.  0.
         25    1    1    2    0    0  0.89331707903E+02  0.67904085249E+02  0.21840304515E+03  0.27556944145E+03  0.12509000000E+03 0.  0.
         25    1    3    3    0    0 -0.74010725913E+02 -0.61620322988E+02  0.34021325737E+03  0.37505628957E+03  0.12509000000E+03 0.  0.
<mgrwt>
<rscale>  2 0.46781409E+03</rscale>
<asrwt>0</asrwt>
<pdfrwt beam="1">  1       21 0.14004260E+00 0.46781409E+03</pdfrwt>
<pdfrwt beam="2">  1       21 0.84490646E-02 0.46781409E+03</pdfrwt>
<totfact> 0.35139764E+04</totfact>
</mgrwt>
</event>
<event>
 6    0  0.1539497E-004  0.4352943E+03  0.7546771E-02  0.1032200E+00
         21   -1    0    0  502  501  0.00000000000E+00  0.00000000000E+00  0.73088407709E+02  0.73088407709E+02  0.00000000000E+00 0. -1.
         21   -1    0    0  501  502 -0.00000000000E+00 -0.00000000000E+00 -0.64812305645E+03  0.64812305645E+03  0.00000000000E+00 0. -1.
      99925    2    1    2    0    0  0.41848898579E+02  0.43070080640E+02 -0.48824457469E+03  0.55754599067E+03  0.26242790408E+03 0.  0.
         25    1    3    3    0    0  0.45166014416E+02  0.25921242363E+02 -0.31715157371E+03  0.34488332588E+03  0.12509000000E+03 0.  0.
         25    1    1    2    0    0 -0.41848898579E+02 -0.43070080640E+02 -0.86790074054E+02  0.16366547349E+03  0.12509000000E+03 0.  0.
         25    1    3    3    0    0 -0.33171158376E+01  0.17148838277E+02 -0.17109300098E+03  0.21266266479E+03  0.12509000000E+03 0.  0.
<mgrwt>
<rscale>  2 0.43529430E+03</rscale>
<asrwt>0</asrwt>
<pdfrwt beam="1">  1       21 0.10748295E-01 0.43529430E+03</pdfrwt>
<pdfrwt beam="2">  1       21 0.95312217E-01 0.43529430E+03</pdfrwt>
<totfact> 0.60631272E+04</totfact>
</mgrwt>
</event>
<event>
 6    0  0.1539497E-004  0.4184656E+03  0.7546771E-02  0.1037567E+00
         21   -1    0    0  502  501  0.00000000000E+00  0.00000000000E+00  0.81466427432E+02  0.81466427432E+02  0.00000000000E+00 0. -1.
         21   -1    0    0  501  502 -0.00000000000E+00 -0.00000000000E+00 -0.53737915590E+03  0.53737915590E+03  0.00000000000E+00 0. -1.
      99925    2    1    2    0    0 -0.21386471213E+02  0.50878856368E+02 -0.22531209435E+03  0.35075940366E+03  0.26309804298E+03 0.  0.
         25    1    3    3    0    0 -0.19738139726E+02  0.59114023936E+02 -0.89654642859E+02  0.16604073317E+03  0.12509000000E+03 0.  0.
         25    1    1    2    0    0  0.21386471213E+02 -0.50878856368E+02 -0.23060063412E+03  0.26808617967E+03  0.12509000000E+03 0.  0.
         25    1    3    3    0    0 -0.16483314868E+01 -0.82351675679E+01 -0.13565745149E+03  0.18471867048E+03  0.12509000000E+03 0.  0.
<mgrwt>
<rscale>  2 0.41846558E+03</rscale>
<asrwt>0</asrwt>
<pdfrwt beam="1">  1       21 0.11980357E-01 0.41846558E+03</pdfrwt>
<pdfrwt beam="2">  1       21 0.79026349E-01 0.41846558E+03</pdfrwt>
<totfact> 0.77604900E+04</totfact>
</mgrwt>
</event>
<event>
 6    0  0.1539497E-004  0.4085997E+03  0.7546771E-02  0.1040842E+00
         21   -1    0    0  502  501  0.00000000000E+00  0.00000000000E+00  0.67895220945E+03  0.67895220945E+03  0.00000000000E+00 0.  1.
         21   -1    0    0  501  502 -0.00000000000E+00 -0.00000000000E+00 -0.61474762128E+02  0.61474762128E+02  0.00000000000E+00 0.  1.
      99925    2    1    2    0    0 -0.98104189418E+01 -0.38752479503E+02  0.32641243809E+03  0.42110840543E+03  0.26303842000E+03 0.  0.
         25    1    1    2    0    0  0.98104189418E+01  0.38752479503E+02  0.29106500922E+03  0.31931856614E+03  0.12509000000E+03 0.  0.
         25    1    3    3    0    0 -0.21330225424E+02 -0.57009356322E+02  0.16924600227E+03  0.21908163458E+03  0.12509000000E+03 0.  0.
         25    1    3    3    0    0  0.11519806482E+02  0.18256876819E+02  0.15716643582E+03  0.20202677085E+03  0.12509000000E+03 0.  0.
<mgrwt>
<rscale>  2 0.40859968E+03</rscale>
<asrwt>0</asrwt>
<pdfrwt beam="1">  1       21 0.99845909E-01 0.40859968E+03</pdfrwt>
<pdfrwt beam="2">  1       21 0.90404066E-02 0.40859968E+03</pdfrwt>
<totfact> 0.74414625E+04</totfact>
</mgrwt>
</event>
<event>
 6    0  0.1539497E-004  0.4616155E+03  0.7546771E-02  0.1024314E+00
         21   -1    0    0  502  501  0.00000000000E+00  0.00000000000E+00  0.57446102383E+03  0.57446102383E+03  0.00000000000E+00 0.  1.
         21   -1    0    0  501  502 -0.00000000000E+00 -0.00000000000E+00 -0.92734274432E+02  0.92734274432E+02  0.00000000000E+00 0.  1.
      99925    2    1    2    0    0  0.95508257768E+02 -0.26381115836E+02  0.20532490461E+03  0.34803502743E+03  0.26296819825E+03 0.  0.
         25    1    3    3    0    0  0.60217820184E+02  0.13935823190E+02  0.69929071429E+02  0.15607042054E+03  0.12509000000E+03 0.  0.
         25    1    1    2    0    0 -0.95508257768E+02  0.26381115836E+02  0.27640184479E+03  0.31916027083E+03  0.12509000000E+03 0.  0.
         25    1    3    3    0    0  0.35290437584E+02 -0.40316939026E+02  0.13539583318E+03  0.19196460689E+03  0.12509000000E+03 0.  0.
<mgrwt>
<rscale>  2 0.46161554E+03</rscale>
<asrwt>0</asrwt>
<pdfrwt beam="1">  1       21 0.84479561E-01 0.46161554E+03</pdfrwt>
<pdfrwt beam="2">  1       21 0.13637394E-01 0.46161554E+03</pdfrwt>
<totfact> 0.51956933E+04</totfact>
</mgrwt>
</event>
<event>
 6    0  0.1539497E-004  0.4354132E+03  0.7546771E-02  0.1032164E+00
         21   -1    0    0  502  501  0.00000000000E+00  0.00000000000E+00  0.45439941479E+03  0.45439941479E+03  0.00000000000E+00 0.  1.
         21   -1    0    0  501  502 -0.00000000000E+00 -0.00000000000E+00 -0.10430506103E+03  0.10430506103E+03  0.00000000000E+00 0.  1.
      99925    2    1    2    0    0 -0.62469288379E+01 -0.14059194948E+02  0.34294332981E+03  0.43246925757E+03  0.26302632225E+03 0.  0.
         25    1    3    3    0    0  0.16357599287E+02 -0.42400091305E+02  0.16605072226E+03  0.21280434502E+03  0.12509000000E+03 0.  0.
         25    1    3    3    0    0 -0.22604528125E+02  0.28340896358E+02  0.17689260756E+03  0.21966491255E+03  0.12509000000E+03 0.  0.
         25    1    1    2    0    0  0.62469288379E+01  0.14059194948E+02  0.71510239442E+01  0.12623521825E+03  0.12509000000E+03 0.  0.
<mgrwt>
<rscale>  2 0.43541318E+03</rscale>
<asrwt>0</asrwt>
<pdfrwt beam="1">  1       21 0.66823443E-01 0.43541318E+03</pdfrwt>
<pdfrwt beam="2">  1       21 0.15338980E-01 0.43541318E+03</pdfrwt>
<totfact> 0.71787077E+04</totfact>
</mgrwt>
</event>
<event>
 6    0  0.1539497E-004  0.4200139E+03  0.7546771E-02  0.1037062E+00
         21   -1    0    0  502  501  0.00000000000E+00  0.00000000000E+00  0.90503872112E+03  0.90503872112E+03  0.00000000000E+00 0.  1.
         21   -1    0    0  501  502 -0.00000000000E+00 -0.00000000000E+00 -0.48730424429E+02  0.48730424429E+02  0.00000000000E+00 0.  1.
      99925    2    1    2    0    0 -0.63209901165E+02  0.26465389019E+02  0.63389575031E+03  0.68955189156E+03  0.26260632221E+03 0.  0.
         25    1    1    2    0    0  0.63209901165E+02 -0.26465389019E+02  0.22241254638E+03  0.26421725399E+03  0.12509000000E+03 0.  0.
         25    1    3    3    0    0 -0.44257839679E+02 -0.24392648308E+02  0.30455056049E+03  0.33309504599E+03  0.12509000000E+03 0.  0.
         25    1    3    3    0    0 -0.18952061486E+02  0.50858037326E+02  0.32934518982E+03  0.35645684557E+03  0.12509000000E+03 0.  0.
<mgrwt>
<rscale>  2 0.42001391E+03</rscale>
<asrwt>0</asrwt>
<pdfrwt beam="1">  1       21 0.13309392E+00 0.42001391E+03</pdfrwt>
<pdfrwt beam="2">  1       21 0.71662394E-02 0.42001391E+03</pdfrwt>
<totfact> 0.54419553E+04</totfact>
</mgrwt>
</event>
<event>
 6    0  0.1539497E-004  0.4226534E+03  0.7546771E-02  0.1036206E+00
         21   -1    0    0  502  501  0.00000000000E+00  0.00000000000E+00  0.15506181462E+04  0.15506181462E+04  0.00000000000E+00 0.  1.
         21   -1    0    0  501  502 -0.00000000000E+00 -0.00000000000E+00 -0.28800761958E+02  0.28800761958E+02  0.00000000000E+00 0.  1.
      99925    2    1    2    0    0 -0.70690938393E+02  0.35710725033E+02  0.98601473834E+03  0.10235372228E+04  0.26292759001E+03 0.  0.
         25    1    1    2    0    0  0.70690938393E+02 -0.35710725033E+02  0.53580264586E+03  0.55588168531E+03  0.12509000000E+03 0.  0.
         25    1    3    3    0    0 -0.57992486529E+02  0.46442268018E+02  0.45309015082E+03  0.47587625032E+03  0.12509000000E+03 0.  0.
         25    1    3    3    0    0 -0.12698451864E+02 -0.10731542985E+02  0.53292458752E+03  0.54766097248E+03  0.12509000000E+03 0.  0.
<mgrwt>
<rscale>  2 0.42265345E+03</rscale>
<asrwt>0</asrwt>
<pdfrwt beam="1">  1       21 0.22803202E+00 0.42265345E+03</pdfrwt>
<pdfrwt beam="2">  1       21 0.42354072E-02 0.42265345E+03</pdfrwt>
<totfact> 0.28387546E+04</totfact>
</mgrwt>
</event>
<event>
 6    0  0.1539497E-004  0.4357126E+03  0.7546771E-02  0.1032070E+00
         21   -1    0    0  502  501  0.00000000000E+00  0.00000000000E+00  0.36852688800E+03  0.36852688800E+03  0.00000000000E+00 0. -1.
         21   -1    0    0  501  502 -0.00000000000E+00 -0.00000000000E+00 -0.12878669013E+03  0.12878669013E+03  0.00000000000E+00 0. -1.
      99925    2    1    2    0    0 -0.68083265859E+02 -0.13138130981E+02  0.22589337505E+03  0.35362229733E+03  0.26308358121E+03 0.  0.
         25    1    1    2    0    0  0.68083265859E+02  0.13138130981E+02  0.13846822812E+02  0.14369128080E+03  0.12509000000E+03 0.  0.
         25    1    3    3    0    0 -0.24321228363E+02 -0.32798894903E+02  0.15041735715E+03  0.19985039176E+03  0.12509000000E+03 0.  0.
         25    1    3    3    0    0 -0.43762037495E+02  0.19660763923E+02  0.75476017902E+02  0.15377190557E+03  0.12509000000E+03 0.  0.
<mgrwt>
<rscale>  2 0.43571256E+03</rscale>
<asrwt>0</asrwt>
<pdfrwt beam="1">  1       21 0.54195130E-01 0.43571256E+03</pdfrwt>
<pdfrwt beam="2">  1       21 0.18939219E-01 0.43571256E+03</pdfrwt>
<totfact> 0.76519017E+04</totfact>
</mgrwt>
</event>
<event>
 6    0  0.1539497E-004  0.4065661E+03  0.7546771E-02  0.1041529E+00
         21   -1    0    0  502  501  0.00000000000E+00  0.00000000000E+00  0.10775825678E+03  0.10775825678E+03  0.00000000000E+00 0.  1.
         21   -1    0    0  501  502 -0.00000000000E+00 -0.00000000000E+00 -0.38348808043E+03  0.38348808043E+03  0.00000000000E+00 0.  1.
      99925    2    1    2    0    0  0.48034444229E+01  0.52037729682E+02 -0.15517147288E+03  0.30982742300E+03  0.26302822597E+03 0.  0.
         25    1    1    2    0    0 -0.48034444229E+01 -0.52037729682E+02 -0.12055835078E+03  0.18141891420E+03  0.12509000000E+03 0.  0.
         25    1    3    3    0    0 -0.10125195712E+01  0.65251054795E+02 -0.67587266920E+02  0.15644255207E+03  0.12509000000E+03 0.  0.
         25    1    3    3    0    0  0.58159639941E+01 -0.13213325113E+02 -0.87584205957E+02  0.15338487093E+03  0.12509000000E+03 0.  0.
<mgrwt>
<rscale>  2 0.40656614E+03</rscale>
<asrwt>0</asrwt>
<pdfrwt beam="1">  1       21 0.15846803E-01 0.40656614E+03</pdfrwt>
<pdfrwt beam="2">  1       21 0.56395305E-01 0.40656614E+03</pdfrwt>
<totfact> 0.98686986E+04</totfact>
</mgrwt>
</event>
<event>
 6    0  0.1539497E-004  0.4045580E+03  0.7546771E-02  0.1042213E+00
         21   -1    0    0  502  501  0.00000000000E+00  0.00000000000E+00  0.67796658523E+03  0.67796658523E+03  0.00000000000E+00 0.  1.
         21   -1    0    0  501  502 -0.00000000000E+00 -0.00000000000E+00 -0.60352228217E+02  0.60352228217E+02  0.00000000000E+00 0.  1.
      99925    2    1    2    0    0 -0.69433968436E+01  0.53134085876E+02  0.41359969527E+03  0.49308233136E+03  0.26304759213E+03 0.  0.
         25    1    3    3    0    0  0.20452429369E+02  0.53947773507E+02  0.17973628180E+03  0.22645375517E+03  0.12509000000E+03 0.  0.
         25    1    3    3    0    0 -0.27395826213E+02 -0.81368763100E+00  0.23386341347E+03  0.26662857619E+03  0.12509000000E+03 0.  0.
         25    1    1    2    0    0  0.69433968436E+01 -0.53134085876E+02  0.20401466174E+03  0.24523648209E+03  0.12509000000E+03 0.  0.
<mgrwt>
<rscale>  2 0.40455800E+03</rscale>
<asrwt>0</asrwt>
<pdfrwt beam="1">  1       21 0.99700964E-01 0.40455800E+03</pdfrwt>
<pdfrwt beam="2">  1       21 0.88753281E-02 0.40455800E+03</pdfrwt>
<totfact> 0.77242992E+04</totfact>
</mgrwt>
</event>
<event>
 6    0  0.1539497E-004  0.4008401E+03  0.7546771E-02  0.1043489E+00
         21   -1    0    0  502  501  0.00000000000E+00  0.00000000000E+00  0.15283250447E+03  0.15283250447E+03  0.00000000000E+00 0.  1.
         21   -1    0    0  501  502 -0.00000000000E+00 -0.00000000000E+00 -0.26282500276E+03  0.26282500276E+03  0.00000000000E+00 0.  1.
      99925    2    1    2    0    0 -0.28028931435E+02 -0.29514374798E+02 -0.48772187018E+02  0.27056390320E+03  0.26300072276E+03 0.  0.
         25    1    3    3    0    0  0.99773556178E+01 -0.47277464310E+02 -0.28225074777E+02  0.13703601425E+03  0.12509000000E+03 0.  0.
         25    1    3    3    0    0 -0.38006287053E+02  0.17763089511E+02 -0.20547112241E+02  0.13352788894E+03  0.12509000000E+03 0.  0.
         25    1    1    2    0    0  0.28028931435E+02  0.29514374798E+02 -0.61220311276E+02  0.14509360403E+03  0.12509000000E+03 0.  0.
<mgrwt>
<rscale>  2 0.40084013E+03</rscale>
<asrwt>0</asrwt>
<pdfrwt beam="1">  1       21 0.22475368E-01 0.40084013E+03</pdfrwt>
<pdfrwt beam="2">  1       21 0.38650736E-01 0.40084013E+03</pdfrwt>
<totfact> 0.11297476E+05</totfact>
</mgrwt>
</event>
<event>
 6    0  0.1539497E-004  0.4729880E+03  0.7546771E-02  0.1021080E+00
         21   -1    0    0  502  501  0.00000000000E+00  0.00000000000E+00  0.97796192427E+03  0.97796192427E+03  0.00000000000E+00 0. -1.
         21   -1    0    0  501  502 -0.00000000000E+00 -0.00000000000E+00 -0.57189758168E+02  0.57189758168E+02  0.00000000000E+00 0. -1.
      99925    2    1    2    0    0 -0.10462973866E+03  0.29219324485E+02  0.41679588530E+03  0.50464178541E+03  0.26295127009E+03 0.  0.
         25    1    3    3    0    0 -0.17436136935E+02 -0.11099111794E+02  0.18516969832E+03  0.22441598524E+03  0.12509000000E+03 0.  0.
         25    1    3    3    0    0 -0.87193601726E+02  0.40318436279E+02  0.23162618698E+03  0.28022580017E+03  0.12509000000E+03 0.  0.
         25    1    1    2    0    0  0.10462973866E+03 -0.29219324485E+02  0.50397628080E+03  0.53050989703E+03  0.12509000000E+03 0.  0.
<mgrwt>
<rscale>  2 0.47298797E+03</rscale>
<asrwt>0</asrwt>
<pdfrwt beam="1">  1       21 0.14381792E+00 0.47298797E+03</pdfrwt>
<pdfrwt beam="2">  1       21 0.84102592E-02 0.47298797E+03</pdfrwt>
<totfact> 0.32950820E+04</totfact>
</mgrwt>
</event>
<event>
 6    0  0.1539497E-004  0.4279348E+03  0.7546771E-02  0.1034514E+00
         21   -1    0    0  502  501  0.00000000000E+00  0.00000000000E+00  0.23400368037E+04  0.23400368037E+04  0.00000000000E+00 0.  1.
         21   -1    0    0  501  502 -0.00000000000E+00 -0.00000000000E+00 -0.19564669125E+02  0.19564669125E+02  0.00000000000E+00 0.  1.
      99925    2    1    2    0    0 -0.15699950878E+02  0.50580902099E+02  0.11304463647E+04  0.11618478433E+04  0.26301427958E+03 0.  0.
         25    1    3    3    0    0  0.27709186853E+02  0.42734902618E+02  0.60888003477E+03  0.62367978626E+03  0.12509000000E+03 0.  0.
         25    1    1    2    0    0  0.15699950878E+02 -0.50580902099E+02  0.11900257699E+04  0.11977536296E+04  0.12509000000E+03 0.  0.
         25    1    3    3    0    0 -0.43409137731E+02  0.78459994818E+01  0.52156632995E+03  0.53816805701E+03  0.12509000000E+03 0.  0.
<mgrwt>
<rscale>  2 0.42793479E+03</rscale>
<asrwt>0</asrwt>
<pdfrwt beam="1">  1       21 0.34412287E+00 0.42793479E+03</pdfrwt>
<pdfrwt beam="2">  1       21 0.28771588E-02 0.42793479E+03</pdfrwt>
<totfact> 0.10770572E+04</totfact>
</mgrwt>
</event>
<event>
 6    0  0.1539497E-004  0.4348013E+03  0.7546771E-02  0.1032354E+00
         21   -1    0    0  502  501  0.00000000000E+00  0.00000000000E+00  0.22379220708E+03  0.22379220708E+03  0.00000000000E+00 0.  1.
         21   -1    0    0  501  502 -0.00000000000E+00 -0.00000000000E+00 -0.21119165173E+03  0.21119165173E+03  0.00000000000E+00 0.  1.
      99925    2    1    2    0    0  0.23419662730E+02 -0.85075619419E+02 -0.21162863272E+02  0.27822347428E+03  0.26300968278E+03 0.  0.
         25    1    3    3    0    0  0.13478333274E+02 -0.25929586219E+02  0.27206878453E+02  0.13130777298E+03  0.12509000000E+03 0.  0.
         25    1    1    2    0    0 -0.23419662730E+02  0.85075619419E+02  0.33763418620E+02  0.15676038453E+03  0.12509000000E+03 0.  0.
         25    1    3    3    0    0  0.99413294557E+01 -0.59146033200E+02 -0.48369741725E+02  0.14691570130E+03  0.12509000000E+03 0.  0.
<mgrwt>
<rscale>  2 0.43480131E+03</rscale>
<asrwt>0</asrwt>
<pdfrwt beam="1">  1       21 0.32910619E-01 0.43480131E+03</pdfrwt>
<pdfrwt beam="2">  1       21 0.31057596E-01 0.43480131E+03</pdfrwt>
<totfact> 0.82562971E+04</totfact>
</mgrwt>
</event>
<event>
 6    0  0.1539497E-004  0.4111792E+03  0.7546771E-02  0.1039976E+00
         21   -1    0    0  502  501  0.00000000000E+00  0.00000000000E+00  0.12296229809E+03  0.12296229809E+03  0.00000000000E+00 0. -1.
         21   -1    0    0  501  502 -0.00000000000E+00 -0.00000000000E+00 -0.34374022154E+03  0.34374022154E+03  0.00000000000E+00 0. -1.
      99925    2    1    2    0    0 -0.26176899685E+02 -0.42646812955E+02 -0.10015003558E+03  0.28586398346E+03  0.26302890845E+03 0.  0.
         25    1    3    3    0    0  0.14867457410E+02 -0.35320318996E+02 -0.22222881177E+02  0.13270241434E+03  0.12509000000E+03 0.  0.
         25    1    1    2    0    0  0.26176899685E+02  0.42646812955E+02 -0.12062788786E+03  0.18083853617E+03  0.12509000000E+03 0.  0.
         25    1    3    3    0    0 -0.41044357095E+02 -0.73264939590E+01 -0.77927154405E+02  0.15316156912E+03  0.12509000000E+03 0.  0.
<mgrwt>
<rscale>  2 0.41117922E+03</rscale>
<asrwt>0</asrwt>
<pdfrwt beam="1">  1       21 0.18082691E-01 0.41117922E+03</pdfrwt>
<pdfrwt beam="2">  1       21 0.50550033E-01 0.41117922E+03</pdfrwt>
<totfact> 0.97396498E+04</totfact>
</mgrwt>
</event>
<event>
 6    0  0.1539497E-004  0.4922879E+03  0.7546771E-02  0.1015812E+00
         21   -1    0    0  502  501  0.00000000000E+00  0.00000000000E+00  0.62472983905E+03  0.62472983905E+03  0.00000000000E+00 0.  1.
         21   -1    0    0  501  502 -0.00000000000E+00 -0.00000000000E+00 -0.96980855140E+02  0.96980855140E+02  0.00000000000E+00 0.  1.
      99925    2    1    2    0    0  0.10826407538E+03 -0.25483372285E+02  0.18487966726E+03  0.34016464365E+03  0.26298475458E+03 0.  0.
         25    1    3    3    0    0  0.82278644322E+02 -0.28637268544E+02  0.67773125854E+02  0.16682497759E+03  0.12509000000E+03 0.  0.
         25    1    3    3    0    0  0.25985431060E+02  0.31538962593E+01  0.11710654140E+03  0.17333966606E+03  0.12509000000E+03 0.  0.
         25    1    1    2    0    0 -0.10826407538E+03  0.25483372285E+02  0.34286931665E+03  0.38154605054E+03  0.12509000000E+03 0.  0.
<mgrwt>
<rscale>  2 0.49228786E+03</rscale>
<asrwt>0</asrwt>
<pdfrwt beam="1">  1       21 0.91872033E-01 0.49228786E+03</pdfrwt>
<pdfrwt beam="2">  1       21 0.14261891E-01 0.49228786E+03</pdfrwt>
<totfact> 0.38978224E+04</totfact>
</mgrwt>
</event>
<event>
 6    0  0.1539497E-004  0.3974108E+03  0.7546771E-02  0.1044680E+00
         21   -1    0    0  502  501  0.00000000000E+00  0.00000000000E+00  0.70361071999E+02  0.70361071999E+02  0.00000000000E+00 0.  1.
         21   -1    0    0  501  502 -0.00000000000E+00 -0.00000000000E+00 -0.56116014332E+03  0.56116014332E+03  0.00000000000E+00 0.  1.
      99925    2    1    2    0    0  0.58680812904E+01 -0.39630105773E+02 -0.32059397579E+03  0.41652758214E+03  0.26288733273E+03 0.  0.
         25    1    1    2    0    0 -0.58680812904E+01  0.39630105773E+02 -0.17020509553E+03  0.21499363318E+03  0.12509000000E+03 0.  0.
         25    1    3    3    0    0  0.10511983848E+01  0.87301390854E+01 -0.10999190280E+03  0.16680241943E+03  0.12509000000E+03 0.  0.
         25    1    3    3    0    0  0.48168829056E+01 -0.48360244859E+02 -0.21060207299E+03  0.24972516271E+03  0.12509000000E+03 0.  0.
<mgrwt>
<rscale>  2 0.39741077E+03</rscale>
<asrwt>0</asrwt>
<pdfrwt beam="1">  1       21 0.10347217E-01 0.39741077E+03</pdfrwt>
<pdfrwt beam="2">  1       21 0.82523549E-01 0.39741077E+03</pdfrwt>
<totfact> 0.91961445E+04</totfact>
</mgrwt>
</event>
<event>
 5    0  0.1539497E-004  0.4457292E+03  0.7546771E-02  0.1029003E+00
         21   -1    0    0  502  501  0.00000000000E+00  0.00000000000E+00  0.13912998980E+03  0.13912998980E+03  0.00000000000E+00 0. -1.
         21   -1    0    0  501  502 -0.00000000000E+00 -0.00000000000E+00 -0.35699440733E+03  0.35699440733E+03  0.00000000000E+00 0. -1.
         25    1    1    2    0    0 -0.71865375219E+02  0.73580345584E+02 -0.49285095339E+02  0.16927855190E+03  0.12509000000E+03 0.  0.
         25    1    1    2    0    0  0.85441423834E+01 -0.95836847867E+01 -0.81079825101E+02  0.14962050502E+03  0.12509000000E+03 0.  0.
         25    1    1    2    0    0  0.63321232835E+02 -0.63996660797E+02 -0.87499497095E+02  0.17722534021E+03  0.12509000000E+03 0.  0.
<mgrwt>
<rscale>  2 0.44572919E+03</rscale>
<asrwt>0</asrwt>
<pdfrwt beam="1">  1       21 0.20460293E-01 0.44572919E+03</pdfrwt>
<pdfrwt beam="2">  1       21 0.52499177E-01 0.44572919E+03</pdfrwt>
<totfact> 0.70597799E+04</totfact>
</mgrwt>
</event>
<event>
 6    0  0.1539497E-004  0.4602516E+03  0.7546771E-02  0.1024708E+00
         21   -1    0    0  502  501  0.00000000000E+00  0.00000000000E+00  0.27888248580E+04  0.27888248580E+04  0.00000000000E+00 0. -1.
         21   -1    0    0  501  502 -0.00000000000E+00 -0.00000000000E+00 -0.18989314913E+02  0.18989314913E+02  0.00000000000E+00 0. -1.
      99925    2    1    2    0    0  0.53600183650E+02  0.61764990583E+02  0.22542219071E+04  0.22709782358E+04  0.26294076689E+03 0.  0.
         25    1    3    3    0    0 -0.86237617524E+01  0.17464148116E+02  0.11889087037E+04  0.11956298673E+04  0.12509000000E+03 0.  0.
         25    1    1    2    0    0 -0.53600183650E+02 -0.61764990583E+02  0.51561363593E+03  0.53683593715E+03  0.12509000000E+03 0.  0.
         25    1    3    3    0    0  0.62223945402E+02  0.44300842467E+02  0.10653132035E+04  0.10753483685E+04  0.12509000000E+03 0.  0.
<mgrwt>
<rscale>  2 0.46025155E+03</rscale>
<asrwt>0</asrwt>
<pdfrwt beam="1">  1       21 0.41012102E+00 0.46025155E+03</pdfrwt>
<pdfrwt beam="2">  1       21 0.27925482E-02 0.46025155E+03</pdfrwt>
<totfact> 0.42896153E+03</totfact>
</mgrwt>
</event>
<event>
 6    0  0.1539497E-004  0.4713965E+03  0.7546771E-02  0.1021527E+00
         21   -1    0    0  502  501  0.00000000000E+00  0.00000000000E+00  0.65237088967E+03  0.65237088967E+03  0.00000000000E+00 0.  1.
         21   -1    0    0  501  502 -0.00000000000E+00 -0.00000000000E+00 -0.85156563854E+02  0.85156563854E+02  0.00000000000E+00 0.  1.
      99925    2    1    2    0    0  0.23824540298E+02  0.10025146853E+03  0.47052484088E+03  0.54880985959E+03  0.26302218620E+03 0.  0.
         25    1    3    3    0    0  0.60313384554E+01  0.18940065760E+02  0.27006001497E+03  0.29828681318E+03  0.12509000000E+03 0.  0.
         25    1    1    2    0    0 -0.23824540298E+02 -0.10025146853E+03  0.96689484939E+02  0.18871759394E+03  0.12509000000E+03 0.  0.
         25    1    3    3    0    0  0.17793201842E+02  0.81311402773E+02  0.20046482591E+03  0.25052304640E+03  0.12509000000E+03 0.  0.
<mgrwt>
<rscale>  2 0.47139649E+03</rscale>
<asrwt>0</asrwt>
<pdfrwt beam="1">  1       21 0.95936893E-01 0.47139649E+03</pdfrwt>
<pdfrwt beam="2">  1       21 0.12523024E-01 0.47139649E+03</pdfrwt>
<totfact> 0.44845416E+04</totfact>
</mgrwt>
</event>
<event>
 6    0  0.1539497E-004  0.4000980E+03  0.7546771E-02  0.1043746E+00
         21   -1    0    0  502  501  0.00000000000E+00  0.00000000000E+00  0.12731992514E+03  0.12731992514E+03  0.00000000000E+00 0. -1.
         21   -1    0    0  501  502 -0.00000000000E+00 -0.00000000000E+00 -0.31432316971E+03  0.31432316971E+03  0.00000000000E+00 0. -1.
      99925    2    1    2    0    0 -0.42432733713E+02  0.14908908122E+02 -0.13361008602E+03  0.29839104456E+03  0.26298811372E+03 0.  0.
         25    1    3    3    0    0  0.31524987388E+01  0.28536523757E+02 -0.37783320059E+02  0.13378848535E+03  0.12509000000E+03 0.  0.
         25    1    1    2    0    0  0.42432733713E+02 -0.14908908122E+02 -0.53393158545E+02  0.14325205029E+03  0.12509000000E+03 0.  0.
         25    1    3    3    0    0 -0.45585232452E+02 -0.13627615634E+02 -0.95826765960E+02  0.16460255921E+03  0.12509000000E+03 0.  0.
<mgrwt>
<rscale>  2 0.40009800E+03</rscale>
<asrwt>0</asrwt>
<pdfrwt beam="1">  1       21 0.18723519E-01 0.40009800E+03</pdfrwt>
<pdfrwt beam="2">  1       21 0.46223995E-01 0.40009800E+03</pdfrwt>
<totfact> 0.11043037E+05</totfact>
</mgrwt>
</event>
<event>
 6    0  0.1539497E-004  0.4189630E+03  0.7546771E-02  0.1037404E+00
         21   -1    0    0  502  501  0.00000000000E+00  0.00000000000E+00  0.11350935556E+03  0.11350935556E+03  0.00000000000E+00 0.  1.
         21   -1    0    0  501  502 -0.00000000000E+00 -0.00000000000E+00 -0.38659806313E+03  0.38659806313E+03  0.00000000000E+00 0.  1.
      99925    2    1    2    0    0 -0.14088338874E+02 -0.58664034202E+02 -0.12607070832E+03  0.29786560698E+03  0.26304019869E+03 0.  0.
         25    1    3    3    0    0  0.18591911221E+01 -0.55364326666E+02 -0.98940742060E+02  0.16883555253E+03  0.12509000000E+03 0.  0.
         25    1    1    2    0    0  0.14088338874E+02  0.58664034202E+02 -0.14701799924E+03  0.20224181171E+03  0.12509000000E+03 0.  0.
         25    1    3    3    0    0 -0.15947529996E+02 -0.32997075361E+01 -0.27129966258E+02  0.12903005445E+03  0.12509000000E+03 0.  0.
<mgrwt>
<rscale>  2 0.41896299E+03</rscale>
<asrwt>0</asrwt>
<pdfrwt beam="1">  1       21 0.16692553E-01 0.41896299E+03</pdfrwt>
<pdfrwt beam="2">  1       21 0.56852655E-01 0.41896299E+03</pdfrwt>
<totfact> 0.87793427E+04</totfact>
</mgrwt>
</event>
<event>
 6    0  0.1539497E-004  0.4488234E+03  0.7546771E-02  0.1028073E+00
         21   -1    0    0  502  501  0.00000000000E+00  0.00000000000E+00  0.46406244942E+02  0.46406244942E+02  0.00000000000E+00 0.  1.
         21   -1    0    0  501  502 -0.00000000000E+00 -0.00000000000E+00 -0.10852120476E+04  0.10852120476E+04  0.00000000000E+00 0.  1.
      99925    2    1    2    0    0  0.10249513890E+03  0.90692571928E+00 -0.58159261350E+03  0.64664665992E+03  0.26343093724E+03 0.  0.
         25    1    3    3    0    0  0.58577547140E+02  0.40592448461E+01 -0.20359379525E+03  0.24606045611E+03  0.12509000000E+03 0.  0.
         25    1    1    2    0    0 -0.10249513890E+03 -0.90692571928E+00 -0.45721318918E+03  0.48497163265E+03  0.12509000000E+03 0.  0.
         25    1    3    3    0    0  0.43917591756E+02 -0.31523191268E+01 -0.37799881825E+03  0.40058620381E+03  0.12509000000E+03 0.  0.
<mgrwt>
<rscale>  2 0.44882342E+03</rscale>
<asrwt>0</asrwt>
<pdfrwt beam="1">  1       21 0.68244472E-02 0.44882342E+03</pdfrwt>
<pdfrwt beam="2">  1       21 0.15959002E+00 0.44882342E+03</pdfrwt>
<totfact> 0.36109556E+04</totfact>
</mgrwt>
</event>
<event>
 6    0  0.1539497E-004  0.4164153E+03  0.7546771E-02  0.1038239E+00
         21   -1    0    0  502  501  0.00000000000E+00  0.00000000000E+00  0.66988208922E+03  0.66988208922E+03  0.00000000000E+00 0. -1.
         21   -1    0    0  501  502 -0.00000000000E+00 -0.00000000000E+00 -0.64713528536E+02  0.64713528536E+02  0.00000000000E+00 0. -1.
      99925    2    1    2    0    0  0.69325363220E+02  0.53936557191E+01  0.42327238045E+03  0.50314621509E+03  0.26298575666E+03 0.  0.
         25    1    1    2    0    0 -0.69325363220E+02 -0.53936557191E+01  0.18189618023E+03  0.23144940266E+03  0.12509000000E+03 0.  0.
         25    1    3    3    0    0  0.23297150286E+02 -0.21044805554E+02  0.14904674229E+03  0.19709916423E+03  0.12509000000E+03 0.  0.
         25    1    3    3    0    0  0.46028212934E+02  0.26438461273E+02  0.27422563816E+03  0.30604705087E+03  0.12509000000E+03 0.  0.
<mgrwt>
<rscale>  2 0.41641534E+03</rscale>
<asrwt>0</asrwt>
<pdfrwt beam="1">  1       21 0.98512068E-01 0.41641534E+03</pdfrwt>
<pdfrwt beam="2">  1       21 0.95166957E-02 0.41641534E+03</pdfrwt>
<totfact> 0.70006218E+04</totfact>
</mgrwt>
</event>
<event>
 6    0  0.1539497E-004  0.3939829E+03  0.7546771E-02  0.1045883E+00
         21   -1    0    0  502  501  0.00000000000E+00  0.00000000000E+00  0.10809241595E+04  0.10809241595E+04  0.00000000000E+00 0. -1.
         21   -1    0    0  501  502 -0.00000000000E+00 -0.00000000000E+00 -0.35900418224E+02  0.35900418224E+02  0.00000000000E+00 0. -1.
      99925    2    1    2    0    0 -0.19963079458E+02  0.23390728119E+02  0.67813215998E+03  0.72797680386E+03  0.26294742796E+03 0.  0.
         25    1    3    3    0    0 -0.37007241954E+02  0.27553234689E+02  0.41893438627E+03  0.43963876626E+03  0.12509000000E+03 0.  0.
         25    1    1    2    0    0  0.19963079458E+02 -0.23390728119E+02  0.36689158125E+03  0.38884777381E+03  0.12509000000E+03 0.  0.
         25    1    3    3    0    0  0.17044162496E+02 -0.41625065698E+01  0.25919777370E+03  0.28833803760E+03  0.12509000000E+03 0.  0.
<mgrwt>
<rscale>  2 0.39398289E+03</rscale>
<asrwt>0</asrwt>
<pdfrwt beam="1">  1       21 0.15895941E+00 0.39398289E+03</pdfrwt>
<pdfrwt beam="2">  1       21 0.52794740E-02 0.39398289E+03</pdfrwt>
<totfact> 0.57950099E+04</totfact>
</mgrwt>
</event>
<event>
 6    0  0.1539497E-004  0.3988718E+03  0.7546771E-02  0.1044171E+00
         21   -1    0    0  502  501  0.00000000000E+00  0.00000000000E+00  0.62571457586E+03  0.62571457586E+03  0.00000000000E+00 0. -1.
         21   -1    0    0  501  502 -0.00000000000E+00 -0.00000000000E+00 -0.63566809029E+02  0.63566809029E+02  0.00000000000E+00 0. -1.
      99925    2    1    2    0    0 -0.31290608637E+02 -0.76970489110E+01  0.32639792009E+03  0.42046203088E+03  0.26308624142E+03 0.  0.
         25    1    3    3    0    0 -0.11836495441E+01 -0.39383743687E+02  0.18392337149E+03  0.22589332654E+03  0.12509000000E+03 0.  0.
         25    1    3    3    0    0 -0.30106959093E+02  0.31686694776E+02  0.14247454859E+03  0.19456870434E+03  0.12509000000E+03 0.  0.
         25    1    1    2    0    0  0.31290608637E+02  0.76970489110E+01  0.23574984675E+03  0.26881935402E+03  0.12509000000E+03 0.  0.
<mgrwt>
<rscale>  2 0.39887180E+03</rscale>
<asrwt>0</asrwt>
<pdfrwt beam="1">  1       21 0.92016846E-01 0.39887180E+03</pdfrwt>
<pdfrwt beam="2">  1       21 0.93480605E-02 0.39887180E+03</pdfrwt>
<totfact> 0.85433352E+04</totfact>
</mgrwt>
</event>
<event>
 6    0  0.1539497E-004  0.5266547E+03  0.7546771E-02  0.1007047E+00
         21   -1    0    0  502  501  0.00000000000E+00  0.00000000000E+00  0.13362307569E+04  0.13362307569E+04  0.00000000000E+00 0.  1.
         21   -1    0    0  501  502 -0.00000000000E+00 -0.00000000000E+00 -0.51893211451E+02  0.51893211451E+02  0.00000000000E+00 0.  1.
      99925    2    1    2    0    0 -0.68042210255E+02 -0.13761370207E+03  0.96979057371E+03  0.10164324580E+04  0.26281916092E+03 0.  0.
         25    1    3    3    0    0 -0.62449774236E+02 -0.10013460751E+03  0.49722053228E+03  0.52612040423E+03  0.12509000000E+03 0.  0.
         25    1    3    3    0    0 -0.55924360190E+01 -0.37479094555E+02  0.47257004143E+03  0.49031205373E+03  0.12509000000E+03 0.  0.
         25    1    1    2    0    0  0.68042210255E+02  0.13761370207E+03  0.31454697173E+03  0.37169151040E+03  0.12509000000E+03 0.  0.
<mgrwt>
<rscale>  2 0.52665475E+03</rscale>
<asrwt>0</asrwt>
<pdfrwt beam="1">  1       21 0.19650450E+00 0.52665475E+03</pdfrwt>
<pdfrwt beam="2">  1       21 0.76313555E-02 0.52665475E+03</pdfrwt>
<totfact> 0.15827292E+04</totfact>
</mgrwt>
</event>
<event>
 6    0  0.1539497E-004  0.5228349E+03  0.7546771E-02  0.1007985E+00
         21   -1    0    0  502  501  0.00000000000E+00  0.00000000000E+00  0.19945840355E+03  0.19945840355E+03  0.00000000000E+00 0.  1.
         21   -1    0    0  501  502 -0.00000000000E+00 -0.00000000000E+00 -0.34262326653E+03  0.34262326653E+03  0.00000000000E+00 0.  1.
      99925    2    1    2    0    0 -0.16953968733E+02 -0.25302212523E+02 -0.25790123251E+03  0.36962999103E+03  0.26303164358E+03 0.  0.
         25    1    1    2    0    0  0.16953968733E+02  0.25302212523E+02  0.11473636952E+03  0.17245167905E+03  0.12509000000E+03 0.  0.
         25    1    3    3    0    0  0.14843026226E+02 -0.77870983732E+01 -0.17303040344E+03  0.21416811841E+03  0.12509000000E+03 0.  0.
         25    1    3    3    0    0 -0.31796994959E+02 -0.17515114150E+02 -0.84870829064E+02  0.15546187262E+03  0.12509000000E+03 0.  0.
<mgrwt>
<rscale>  2 0.52283493E+03</rscale>
<asrwt>0</asrwt>
<pdfrwt beam="1">  1       21 0.29332119E-01 0.52283493E+03</pdfrwt>
<pdfrwt beam="2">  1       21 0.50385774E-01 0.52283493E+03</pdfrwt>
<totfact> 0.37662029E+04</totfact>
</mgrwt>
</event>
<event>
 6    0  0.1539497E-004  0.3988764E+03  0.7546771E-02  0.1044169E+00
         21   -1    0    0  502  501  0.00000000000E+00  0.00000000000E+00  0.55011634400E+03  0.55011634400E+03  0.00000000000E+00 0. -1.
         21   -1    0    0  501  502 -0.00000000000E+00 -0.00000000000E+00 -0.72303956193E+02  0.72303956193E+02  0.00000000000E+00 0. -1.
      99925    2    1    2    0    0  0.31583771013E+02 -0.16307422757E+02  0.28637173222E+03  0.39098888629E+03  0.26381825858E+03 0.  0.
         25    1    3    3    0    0 -0.22300393656E+02 -0.73965714998E+01  0.11192768016E+03  0.16949138773E+03  0.12509000000E+03 0.  0.
         25    1    3    3    0    0  0.53884164669E+02 -0.89108512573E+01  0.17444405206E+03  0.22149749857E+03  0.12509000000E+03 0.  0.
         25    1    1    2    0    0 -0.31583771013E+02  0.16307422757E+02  0.19144065558E+03  0.23143141390E+03  0.12509000000E+03 0.  0.
<mgrwt>
<rscale>  2 0.39887636E+03</rscale>
<asrwt>0</asrwt>
<pdfrwt beam="1">  1       21 0.80899460E-01 0.39887636E+03</pdfrwt>
<pdfrwt beam="2">  1       21 0.10632935E-01 0.39887636E+03</pdfrwt>
<totfact> 0.91649946E+04</totfact>
</mgrwt>
</event>
<event>
 6    0  0.1539497E-004  0.4835415E+03  0.7546771E-02  0.1018166E+00
         21   -1    0    0  502  501  0.00000000000E+00  0.00000000000E+00  0.15026543147E+03  0.15026543147E+03  0.00000000000E+00 0.  1.
         21   -1    0    0  501  502 -0.00000000000E+00 -0.00000000000E+00 -0.38899888028E+03  0.38899888028E+03  0.00000000000E+00 0.  1.
      99925    2    1    2    0    0  0.12688973521E+03  0.47492155286E+02 -0.17773458139E+03  0.34503537560E+03  0.26287510204E+03 0.  0.
         25    1    3    3    0    0  0.75988478374E+02 -0.12938455466E+02 -0.75491975461E+02  0.16519140091E+03  0.12509000000E+03 0.  0.
         25    1    1    2    0    0 -0.12688973521E+03 -0.47492155286E+02 -0.60998867414E+02  0.19422893616E+03  0.12509000000E+03 0.  0.
         25    1    3    3    0    0  0.50901256835E+02  0.60430610752E+02 -0.10224260593E+03  0.17984397469E+03  0.12509000000E+03 0.  0.
<mgrwt>
<rscale>  2 0.48354145E+03</rscale>
<asrwt>0</asrwt>
<pdfrwt beam="1">  1       21 0.22097858E-01 0.48354145E+03</pdfrwt>
<pdfrwt beam="2">  1       21 0.57205717E-01 0.48354145E+03</pdfrwt>
<totfact> 0.50221323E+04</totfact>
</mgrwt>
</event>
<event>
 6    0  0.1539497E-004  0.4016603E+03  0.7546771E-02  0.1043206E+00
         21   -1    0    0  502  501  0.00000000000E+00  0.00000000000E+00  0.65101951357E+02  0.65101951357E+02  0.00000000000E+00 0. -1.
         21   -1    0    0  501  502 -0.00000000000E+00 -0.00000000000E+00 -0.61953196736E+03  0.61953196736E+03  0.00000000000E+00 0. -1.
      99925    2    1    2    0    0  0.15194060464E+01  0.27892283954E+02 -0.30141781800E+03  0.40100922209E+03  0.26301218050E+03 0.  0.
         25    1    1    2    0    0 -0.15194060464E+01 -0.27892283954E+02 -0.25301219801E+03  0.28362469663E+03  0.12509000000E+03 0.  0.
         25    1    3    3    0    0  0.36738065481E+02  0.21644192159E+02 -0.17785196996E+03  0.22157840109E+03  0.12509000000E+03 0.  0.
         25    1    3    3    0    0 -0.35218659435E+02  0.62480917955E+01 -0.12356584803E+03  0.17943082100E+03  0.12509000000E+03 0.  0.
<mgrwt>
<rscale>  2 0.40166025E+03</rscale>
<asrwt>0</asrwt>
<pdfrwt beam="1">  1       21 0.95738168E-02 0.40166025E+03</pdfrwt>
<pdfrwt beam="2">  1       21 0.91107638E-01 0.40166025E+03</pdfrwt>
<totfact> 0.83760517E+04</totfact>
</mgrwt>
</event>
<event>
 6    0  0.1539497E-004  0.4307312E+03  0.7546771E-02  0.1033629E+00
         21   -1    0    0  502  501  0.00000000000E+00  0.00000000000E+00  0.47299825713E+03  0.47299825713E+03  0.00000000000E+00 0.  1.
         21   -1    0    0  501  502 -0.00000000000E+00 -0.00000000000E+00 -0.98060279407E+02  0.98060279407E+02  0.00000000000E+00 0.  1.
      99925    2    1    2    0    0  0.20080200995E+02  0.52526608461E+02  0.33077487175E+03  0.42697471685E+03  0.26407032013E+03 0.  0.
         25    1    3    3    0    0 -0.31772358953E+02  0.32112325291E+02  0.15873692249E+03  0.20708839391E+03  0.12509000000E+03 0.  0.
         25    1    1    2    0    0 -0.20080200995E+02 -0.52526608461E+02  0.44163105978E+02  0.14408381970E+03  0.12509000000E+03 0.  0.
         25    1    3    3    0    0  0.51852559948E+02  0.20414283170E+02  0.17203794926E+03  0.21988632294E+03  0.12509000000E+03 0.  0.
<mgrwt>
<rscale>  2 0.43073120E+03</rscale>
<asrwt>0</asrwt>
<pdfrwt beam="1">  1       21 0.69558566E-01 0.43073120E+03</pdfrwt>
<pdfrwt beam="2">  1       21 0.14420630E-01 0.43073120E+03</pdfrwt>
<totfact> 0.73642745E+04</totfact>
</mgrwt>
</event>
<event>
 6    0  0.1539497E-004  0.4211861E+03  0.7546771E-02  0.1036681E+00
         21   -1    0    0  502  501  0.00000000000E+00  0.00000000000E+00  0.18205886918E+03  0.18205886918E+03  0.00000000000E+00 0.  1.
         21   -1    0    0  501  502 -0.00000000000E+00 -0.00000000000E+00 -0.24359940088E+03  0.24359940088E+03  0.00000000000E+00 0.  1.
      99925    2    1    2    0    0  0.26068486859E+02  0.67753563789E+02 -0.66698662577E+02  0.28093706972E+03  0.26307188018E+03 0.  0.
         25    1    3    3    0    0 -0.24014710233E+02  0.15255746728E+02 -0.32592408592E+02  0.13236018024E+03  0.12509000000E+03 0.  0.
         25    1    3    3    0    0  0.50083197092E+02  0.52497817061E+02 -0.34106253985E+02  0.14857688948E+03  0.12509000000E+03 0.  0.
         25    1    1    2    0    0 -0.26068486859E+02 -0.67753563789E+02  0.51581308805E+01  0.14472120034E+03  0.12509000000E+03 0.  0.
<mgrwt>
<rscale>  2 0.42118609E+03</rscale>
<asrwt>0</asrwt>
<pdfrwt beam="1">  1       21 0.26773363E-01 0.42118609E+03</pdfrwt>
<pdfrwt beam="2">  1       21 0.35823441E-01 0.42118609E+03</pdfrwt>
<totfact> 0.93551527E+04</totfact>
</mgrwt>
</event>
<event>
 6    0  0.1539497E-004  0.4122111E+03  0.7546771E-02  0.1039632E+00
         21   -1    0    0  502  501  0.00000000000E+00  0.00000000000E+00  0.20300476202E+03  0.20300476202E+03  0.00000000000E+00 0. -1.
         21   -1    0    0  501  502 -0.00000000000E+00 -0.00000000000E+00 -0.20925367440E+03  0.20925367440E+03  0.00000000000E+00 0. -1.
      99925    2    1    2    0    0  0.48283010166E+02  0.11222010268E+02  0.38516445523E+02  0.27045354245E+03  0.26306732876E+03 0.  0.
         25    1    3    3    0    0 -0.10981612805E+02  0.26790163261E+02  0.17425651410E+02  0.12957418761E+03  0.12509000000E+03 0.  0.
         25    1    3    3    0    0  0.59264622971E+02 -0.15568152993E+02  0.21090794113E+02  0.14087935484E+03  0.12509000000E+03 0.  0.
         25    1    1    2    0    0 -0.48283010166E+02 -0.11222010268E+02 -0.44765357906E+02  0.14180489397E+03  0.12509000000E+03 0.  0.
<mgrwt>
<rscale>  2 0.41221107E+03</rscale>
<asrwt>0</asrwt>
<pdfrwt beam="1">  1       21 0.29853642E-01 0.41221107E+03</pdfrwt>
<pdfrwt beam="2">  1       21 0.30772599E-01 0.41221107E+03</pdfrwt>
<totfact> 0.10260219E+05</totfact>
</mgrwt>
</event>
<event>
 6    0  0.1539497E-004  0.4247332E+03  0.7546771E-02  0.1035537E+00
         21   -1    0    0  502  501  0.00000000000E+00  0.00000000000E+00  0.13962644704E+03  0.13962644704E+03  0.00000000000E+00 0. -1.
         21   -1    0    0  501  502 -0.00000000000E+00 -0.00000000000E+00 -0.32300168878E+03  0.32300168878E+03  0.00000000000E+00 0. -1.
      99925    2    1    2    0    0 -0.54758960278E+02 -0.14040845113E+02 -0.54956182073E+02  0.27465299903E+03  0.26309389743E+03 0.  0.
         25    1    3    3    0    0 -0.38187722071E+02  0.14447317245E+02 -0.61249087176E+02  0.14514126178E+03  0.12509000000E+03 0.  0.
         25    1    3    3    0    0 -0.16571238207E+02 -0.28488162358E+02  0.62929051031E+01  0.12951173725E+03  0.12509000000E+03 0.  0.
         25    1    1    2    0    0  0.54758960278E+02  0.14040845113E+02 -0.12841905967E+03  0.18797513678E+03  0.12509000000E+03 0.  0.
<mgrwt>
<rscale>  2 0.42473323E+03</rscale>
<asrwt>0</asrwt>
<pdfrwt beam="1">  1       21 0.20533301E-01 0.42473323E+03</pdfrwt>
<pdfrwt beam="2">  1       21 0.47500248E-01 0.42473323E+03</pdfrwt>
<totfact> 0.87106293E+04</totfact>
</mgrwt>
</event>
<event>
 6    0  0.1539497E-004  0.4654614E+03  0.7546771E-02  0.1023209E+00
         21   -1    0    0  502  501  0.00000000000E+00  0.00000000000E+00  0.11782756307E+04  0.11782756307E+04  0.00000000000E+00 0.  1.
         21   -1    0    0  501  502 -0.00000000000E+00 -0.00000000000E+00 -0.45968511834E+02  0.45968511834E+02  0.00000000000E+00 0.  1.
      99925    2    1    2    0    0  0.86987208297E+02  0.73320905414E+02  0.82716085230E+03  0.87538244834E+03  0.26297647367E+03 0.  0.
         25    1    1    2    0    0 -0.86987208297E+02 -0.73320905414E+02  0.30514626657E+03  0.34886169420E+03  0.12509000000E+03 0.  0.
         25    1    3    3    0    0  0.53884082613E+01  0.22247259043E+02  0.41429932750E+03  0.43337676027E+03  0.12509000000E+03 0.  0.
         25    1    3    3    0    0  0.81598800035E+02  0.51073646372E+02  0.41286152480E+03  0.44200568806E+03  0.12509000000E+03 0.  0.
<mgrwt>
<rscale>  2 0.46546139E+03</rscale>
<asrwt>0</asrwt>
<pdfrwt beam="1">  1       21 0.17327581E+00 0.46546139E+03</pdfrwt>
<pdfrwt beam="2">  1       21 0.67600760E-02 0.46546139E+03</pdfrwt>
<totfact> 0.28964013E+04</totfact>
</mgrwt>
</event>
<event>
 6    0  0.1539497E-004  0.3947324E+03  0.7546771E-02  0.1045619E+00
         21   -1    0    0  502  501  0.00000000000E+00  0.00000000000E+00  0.73963157872E+03  0.73963157872E+03  0.00000000000E+00 0.  1.
         21   -1    0    0  501  502 -0.00000000000E+00 -0.00000000000E+00 -0.52665970810E+02  0.52665970810E+02  0.00000000000E+00 0.  1.
      99925    2    1    2    0    0  0.18113669820E+02  0.25578429042E+02  0.48488426369E+03  0.55257533769E+03  0.26314329477E+03 0.  0.
         25    1    1    2    0    0 -0.18113669820E+02 -0.25578429042E+02  0.20208134422E+03  0.23972221184E+03  0.12509000000E+03 0.  0.
         25    1    3    3    0    0 -0.30229461918E+02  0.22821729485E+02  0.22941549687E+03  0.26403338806E+03  0.12509000000E+03 0.  0.
         25    1    3    3    0    0  0.48343131738E+02  0.27566995573E+01  0.25546876682E+03  0.28854194963E+03  0.12509000000E+03 0.  0.
<mgrwt>
<rscale>  2 0.39473239E+03</rscale>
<asrwt>0</asrwt>
<pdfrwt beam="1">  1       21 0.10876934E+00 0.39473239E+03</pdfrwt>
<pdfrwt beam="2">  1       21 0.77449961E-02 0.39473239E+03</pdfrwt>
<totfact> 0.79643800E+04</totfact>
</mgrwt>
</event>
<event>
 6    0  0.1539497E-004  0.4017966E+03  0.7546771E-02  0.1043159E+00
         21   -1    0    0  502  501  0.00000000000E+00  0.00000000000E+00  0.61591688144E+03  0.61591688144E+03  0.00000000000E+00 0. -1.
         21   -1    0    0  501  502 -0.00000000000E+00 -0.00000000000E+00 -0.65528514265E+02  0.65528514265E+02  0.00000000000E+00 0. -1.
      99925    2    1    2    0    0 -0.41394268014E+02  0.25901222200E+02  0.37504890376E+03  0.46059296926E+03  0.26286849257E+03 0.  0.
         25    1    3    3    0    0 -0.14665794478E+02 -0.27140564299E+02  0.17621399978E+03  0.21829012249E+03  0.12509000000E+03 0.  0.
         25    1    3    3    0    0 -0.26728473535E+02  0.53041786499E+02  0.19883490397E+03  0.24230284677E+03  0.12509000000E+03 0.  0.
         25    1    1    2    0    0  0.41394268014E+02 -0.25901222200E+02  0.17533946342E+03  0.22085242645E+03  0.12509000000E+03 0.  0.
<mgrwt>
<rscale>  2 0.40179656E+03</rscale>
<asrwt>0</asrwt>
<pdfrwt beam="1">  1       21 0.90576009E-01 0.40179656E+03</pdfrwt>
<pdfrwt beam="2">  1       21 0.96365466E-02 0.40179656E+03</pdfrwt>
<totfact> 0.83938787E+04</totfact>
</mgrwt>
</event>
<event>
 6    0  0.1539497E-004  0.4996156E+03  0.7546771E-02  0.1013879E+00
         21   -1    0    0  502  501  0.00000000000E+00  0.00000000000E+00  0.11927809443E+03  0.11927809443E+03  0.00000000000E+00 0.  1.
         21   -1    0    0  501  502 -0.00000000000E+00 -0.00000000000E+00 -0.52318025019E+03  0.52318025019E+03  0.00000000000E+00 0.  1.
      99925    2    1    2    0    0 -0.36379591467E+02 -0.14660053827E+03 -0.23674931547E+03  0.38477099023E+03  0.26302715458E+03 0.  0.
         25    1    3    3    0    0 -0.36932141958E+02 -0.99499361289E+02 -0.93400800050E+02  0.18877320667E+03  0.12509000000E+03 0.  0.
         25    1    3    3    0    0  0.55255049096E+00 -0.47101176980E+02 -0.14334851542E+03  0.19599778356E+03  0.12509000000E+03 0.  0.
         25    1    1    2    0    0  0.36379591467E+02  0.14660053827E+03 -0.16715284029E+03  0.25768735439E+03  0.12509000000E+03 0.  0.
<mgrwt>
<rscale>  2 0.49961563E+03</rscale>
<asrwt>0</asrwt>
<pdfrwt beam="1">  1       21 0.17540896E-01 0.49961563E+03</pdfrwt>
<pdfrwt beam="2">  1       21 0.76938272E-01 0.49961563E+03</pdfrwt>
<totfact> 0.40055466E+04</totfact>
</mgrwt>
</event>
<event>
 6    0  0.1539497E-004  0.4819544E+03  0.7546771E-02  0.1018599E+00
         21   -1    0    0  502  501  0.00000000000E+00  0.00000000000E+00  0.27448796952E+03  0.27448796952E+03  0.00000000000E+00 0.  1.
         21   -1    0    0  501  502 -0.00000000000E+00 -0.00000000000E+00 -0.21155759765E+03  0.21155759765E+03  0.00000000000E+00 0.  1.
      99925    2    1    2    0    0 -0.13612783412E+03  0.13749748109E+02  0.47043706872E+02  0.29998176891E+03  0.26278528978E+03 0.  0.
         25    1    3    3    0    0 -0.26059302932E+02  0.19570849953E+02  0.14064712359E+02  0.13002857252E+03  0.12509000000E+03 0.  0.
         25    1    3    3    0    0 -0.11006853119E+03 -0.58211018436E+01  0.32978994513E+02  0.16995319639E+03  0.12509000000E+03 0.  0.
         25    1    1    2    0    0  0.13612783412E+03 -0.13749748109E+02  0.15886664997E+02  0.18606379826E+03  0.12509000000E+03 0.  0.
<mgrwt>
<rscale>  2 0.48195442E+03</rscale>
<asrwt>0</asrwt>
<pdfrwt beam="1">  1       21 0.40365878E-01 0.48195442E+03</pdfrwt>
<pdfrwt beam="2">  1       21 0.31111411E-01 0.48195442E+03</pdfrwt>
<totfact> 0.53792410E+04</totfact>
</mgrwt>
</event>
<event>
 6    0  0.1539497E-004  0.4279189E+03  0.7546771E-02  0.1034519E+00
         21   -1    0    0  502  501  0.00000000000E+00  0.00000000000E+00  0.13387287433E+03  0.13387287433E+03  0.00000000000E+00 0. -1.
         21   -1    0    0  501  502 -0.00000000000E+00 -0.00000000000E+00 -0.34195616540E+03  0.34195616540E+03  0.00000000000E+00 0. -1.
      99925    2    1    2    0    0 -0.23830085153E+02  0.26984475044E+02 -0.22049898315E+03  0.34507089520E+03  0.26297925069E+03 0.  0.
         25    1    3    3    0    0  0.25081428151E+02  0.30036291706E+02 -0.11084059860E+03  0.17165198296E+03  0.12509000000E+03 0.  0.
         25    1    1    2    0    0  0.23830085153E+02 -0.26984475044E+02  0.12415692086E+02  0.13075814453E+03  0.12509000000E+03 0.  0.
         25    1    3    3    0    0 -0.48911513304E+02 -0.30518166621E+01 -0.10965838455E+03  0.17341891224E+03  0.12509000000E+03 0.  0.
<mgrwt>
<rscale>  2 0.42791894E+03</rscale>
<asrwt>0</asrwt>
<pdfrwt beam="1">  1       21 0.19687188E-01 0.42791894E+03</pdfrwt>
<pdfrwt beam="2">  1       21 0.50287671E-01 0.42791894E+03</pdfrwt>
<totfact> 0.83578279E+04</totfact>
</mgrwt>
</event>
<event>
 6    0  0.1539497E-004  0.4122240E+03  0.7546771E-02  0.1039627E+00
         21   -1    0    0  502  501  0.00000000000E+00  0.00000000000E+00  0.45944559410E+03  0.45944559410E+03  0.00000000000E+00 0.  1.
         21   -1    0    0  501  502 -0.00000000000E+00 -0.00000000000E+00 -0.92463933254E+02  0.92463933254E+02  0.00000000000E+00 0.  1.
      99925    2    1    2    0    0  0.26273158577E+02  0.57340704058E+02  0.21750885712E+03  0.34704893486E+03  0.26297266979E+03 0.  0.
         25    1    3    3    0    0 -0.24073466904E+02  0.44303651390E+02  0.11300467337E+03  0.17595428281E+03  0.12509000000E+03 0.  0.
         25    1    3    3    0    0  0.50346625481E+02  0.13037052668E+02  0.10450418375E+03  0.17109465205E+03  0.12509000000E+03 0.  0.
         25    1    1    2    0    0 -0.26273158577E+02 -0.57340704058E+02  0.14947280373E+03  0.20486059249E+03  0.12509000000E+03 0.  0.
<mgrwt>
<rscale>  2 0.41222395E+03</rscale>
<asrwt>0</asrwt>
<pdfrwt beam="1">  1       21 0.67565528E-01 0.41222395E+03</pdfrwt>
<pdfrwt beam="2">  1       21 0.13597637E-01 0.41222395E+03</pdfrwt>
<totfact> 0.87928188E+04</totfact>
</mgrwt>
</event>
<event>
 6    0  0.1539497E-004  0.4055876E+03  0.7546771E-02  0.1041862E+00
         21   -1    0    0  502  501  0.00000000000E+00  0.00000000000E+00  0.48453638153E+03  0.48453638153E+03  0.00000000000E+00 0. -1.
         21   -1    0    0  501  502 -0.00000000000E+00 -0.00000000000E+00 -0.84875600238E+02  0.84875600238E+02  0.00000000000E+00 0. -1.
      99925    2    1    2    0    0 -0.34477493516E+02 -0.31737212727E+02  0.22278659692E+03  0.34776376177E+03  0.26288746262E+03 0.  0.
         25    1    3    3    0    0 -0.40404170115E+02 -0.10971111602E+02  0.15610542664E+03  0.20437532772E+03  0.12509000000E+03 0.  0.
         25    1    3    3    0    0  0.59266765992E+01 -0.20766101125E+02  0.66681170285E+02  0.14338843406E+03  0.12509000000E+03 0.  0.
         25    1    1    2    0    0  0.34477493516E+02  0.31737212727E+02  0.17687418437E+03  0.22164822000E+03  0.12509000000E+03 0.  0.
<mgrwt>
<rscale>  2 0.40558756E+03</rscale>
<asrwt>0</asrwt>
<pdfrwt beam="1">  1       21 0.71255349E-01 0.40558756E+03</pdfrwt>
<pdfrwt beam="2">  1       21 0.12481706E-01 0.40558756E+03</pdfrwt>
<totfact> 0.91414963E+04</totfact>
</mgrwt>
</event>
<event>
 6    0  0.1539497E-004  0.4346266E+03  0.7546771E-02  0.1032408E+00
         21   -1    0    0  502  501  0.00000000000E+00  0.00000000000E+00  0.20556170084E+04  0.20556170084E+04  0.00000000000E+00 0.  1.
         21   -1    0    0  501  502 -0.00000000000E+00 -0.00000000000E+00 -0.22973666619E+02  0.22973666619E+02  0.00000000000E+00 0.  1.
      99925    2    1    2    0    0  0.52300668894E+02  0.42174056730E+02  0.16103913548E+04  0.16331041325E+04  0.26297296567E+03 0.  0.
         25    1    1    2    0    0 -0.52300668894E+02 -0.42174056730E+02  0.42225198691E+03  0.44548654254E+03  0.12509000000E+03 0.  0.
         25    1    3    3    0    0  0.35669758678E+02 -0.17911403316E+02  0.82161330318E+03  0.83203910852E+03  0.12509000000E+03 0.  0.
         25    1    3    3    0    0  0.16630910215E+02  0.60085460046E+02  0.78877805167E+03  0.80106502394E+03  0.12509000000E+03 0.  0.
<mgrwt>
<rscale>  2 0.43462655E+03</rscale>
<asrwt>0</asrwt>
<pdfrwt beam="1">  1       21 0.30229649E+00 0.43462655E+03</pdfrwt>
<pdfrwt beam="2">  1       21 0.33784818E-02 0.43462655E+03</pdfrwt>
<totfact> 0.14653500E+04</totfact>
</mgrwt>
</event>
<event>
 6    0  0.1539497E-004  0.4042019E+03  0.7546771E-02  0.1042334E+00
         21   -1    0    0  502  501  0.00000000000E+00  0.00000000000E+00  0.66128732219E+03  0.66128732219E+03  0.00000000000E+00 0.  1.
         21   -1    0    0  501  502 -0.00000000000E+00 -0.00000000000E+00 -0.61765589132E+02  0.61765589132E+02  0.00000000000E+00 0.  1.
      99925    2    1    2    0    0  0.63130938558E+01 -0.10596915423E+02  0.49383216705E+03  0.55882763241E+03  0.26127756077E+03 0.  0.
         25    1    3    3    0    0  0.32089453098E+02  0.12745407679E+01  0.29732549005E+03  0.32416247869E+03  0.12509000000E+03 0.  0.
         25    1    1    2    0    0 -0.63130938558E+01  0.10596915423E+02  0.10568956601E+03  0.16422527891E+03  0.12509000000E+03 0.  0.
         25    1    3    3    0    0 -0.25776359242E+02 -0.11871456191E+02  0.19650667700E+03  0.23466515372E+03  0.12509000000E+03 0.  0.
<mgrwt>
<rscale>  2 0.40420193E+03</rscale>
<asrwt>0</asrwt>
<pdfrwt beam="1">  1       21 0.97248132E-01 0.40420193E+03</pdfrwt>
<pdfrwt beam="2">  1       21 0.90831752E-02 0.40420193E+03</pdfrwt>
<totfact> 0.78712832E+04</totfact>
</mgrwt>
</event>
<event>
 6    0  0.1539497E-004  0.4282968E+03  0.7546771E-02  0.1034399E+00
         21   -1    0    0  502  501  0.00000000000E+00  0.00000000000E+00  0.59576583988E+02  0.59576583988E+02  0.00000000000E+00 0.  1.
         21   -1    0    0  501  502 -0.00000000000E+00 -0.00000000000E+00 -0.76975789902E+03  0.76975789902E+03  0.00000000000E+00 0.  1.
      99925    2    1    2    0    0 -0.43688079663E+02 -0.64523873825E+02 -0.52881078780E+03  0.59563648377E+03  0.26281170619E+03 0.  0.
         25    1    3    3    0    0  0.39769965883E+01 -0.33929367461E+02 -0.18974676842E+03  0.22982245909E+03  0.12509000000E+03 0.  0.
         25    1    3    3    0    0 -0.47665076252E+02 -0.30594506365E+02 -0.33906401938E+03  0.36581402468E+03  0.12509000000E+03 0.  0.
         25    1    1    2    0    0  0.43688079663E+02  0.64523873825E+02 -0.18137052724E+03  0.23369799924E+03  0.12509000000E+03 0.  0.
<mgrwt>
<rscale>  2 0.42829684E+03</rscale>
<asrwt>0</asrwt>
<pdfrwt beam="1">  1       21 0.87612621E-02 0.42829684E+03</pdfrwt>
<pdfrwt beam="2">  1       21 0.11319969E+00 0.42829684E+03</pdfrwt>
<totfact> 0.57513416E+04</totfact>
</mgrwt>
</event>
<event>
 6    0  0.1539497E-004  0.4066428E+03  0.7546771E-02  0.1041503E+00
         21   -1    0    0  502  501  0.00000000000E+00  0.00000000000E+00  0.36183923652E+03  0.36183923652E+03  0.00000000000E+00 0.  1.
         21   -1    0    0  501  502 -0.00000000000E+00 -0.00000000000E+00 -0.11424848497E+03  0.11424848497E+03  0.00000000000E+00 0.  1.
      99925    2    1    2    0    0  0.51463494927E+02  0.28664836646E+01  0.13496775203E+03  0.30005319034E+03  0.26298082612E+03 0.  0.
         25    1    1    2    0    0 -0.51463494927E+02 -0.28664836646E+01  0.11262299951E+03  0.17603453115E+03  0.12509000000E+03 0.  0.
         25    1    3    3    0    0  0.39485536668E+02  0.35933566185E+02  0.87460684699E+02  0.16170098408E+03  0.12509000000E+03 0.  0.
         25    1    3    3    0    0  0.11977958258E+02 -0.33067082520E+02  0.47507067334E+02  0.13835220626E+03  0.12509000000E+03 0.  0.
<mgrwt>
<rscale>  2 0.40664276E+03</rscale>
<asrwt>0</asrwt>
<pdfrwt beam="1">  1       21 0.53211652E-01 0.40664276E+03</pdfrwt>
<pdfrwt beam="2">  1       21 0.16801248E-01 0.40664276E+03</pdfrwt>
<totfact> 0.10028258E+05</totfact>
</mgrwt>
</event>
<event>
 6    0  0.1539497E-004  0.3940231E+03  0.7546771E-02  0.1045869E+00
         21   -1    0    0  502  501  0.00000000000E+00  0.00000000000E+00  0.40472388673E+03  0.40472388673E+03  0.00000000000E+00 0.  1.
         21   -1    0    0  501  502 -0.00000000000E+00 -0.00000000000E+00 -0.95901329218E+02  0.95901329218E+02  0.00000000000E+00 0.  1.
      99925    2    1    2    0    0 -0.19140357230E+02 -0.13233195730E+02  0.17994123199E+03  0.31951923892E+03  0.26300613364E+03 0.  0.
         25    1    3    3    0    0  0.82716710700E+01 -0.20003713236E+02  0.13055573605E+03  0.18210128336E+03  0.12509000000E+03 0.  0.
         25    1    3    3    0    0 -0.27412028300E+02  0.67705175056E+01  0.49385495937E+02  0.13741795557E+03  0.12509000000E+03 0.  0.
         25    1    1    2    0    0  0.19140357230E+02  0.13233195730E+02  0.12888132553E+03  0.18110597702E+03  0.12509000000E+03 0.  0.
<mgrwt>
<rscale>  2 0.39402314E+03</rscale>
<asrwt>0</asrwt>
<pdfrwt beam="1">  1       21 0.59518218E-01 0.39402314E+03</pdfrwt>
<pdfrwt beam="2">  1       21 0.14103137E-01 0.39402314E+03</pdfrwt>
<totfact> 0.10919495E+05</totfact>
</mgrwt>
</event>
<event>
 6    0  0.1539497E-004  0.4058277E+03  0.7546771E-02  0.1041780E+00
         21   -1    0    0  502  501  0.00000000000E+00  0.00000000000E+00  0.88066811834E+03  0.88066811834E+03  0.00000000000E+00 0. -1.
         21   -1    0    0  501  502 -0.00000000000E+00 -0.00000000000E+00 -0.46753168958E+02  0.46753168958E+02  0.00000000000E+00 0. -1.
      99925    2    1    2    0    0  0.55239059190E+02 -0.14597388315E+01  0.52456233442E+03  0.58919054804E+03  0.26253832998E+03 0.  0.
         25    1    3    3    0    0 -0.44332693879E+01 -0.25191275308E+02  0.24876836672E+03  0.27962021137E+03  0.12509000000E+03 0.  0.
         25    1    3    3    0    0  0.59672328578E+02  0.23731536477E+02  0.27579396770E+03  0.30957033666E+03  0.12509000000E+03 0.  0.
         25    1    1    2    0    0 -0.55239059190E+02  0.14597388315E+01  0.30935261497E+03  0.33823073927E+03  0.12509000000E+03 0.  0.
<mgrwt>
<rscale>  2 0.40582767E+03</rscale>
<asrwt>0</asrwt>
<pdfrwt beam="1">  1       21 0.12951001E+00 0.40582767E+03</pdfrwt>
<pdfrwt beam="2">  1       21 0.68754666E-02 0.40582767E+03</pdfrwt>
<totfact> 0.63045277E+04</totfact>
</mgrwt>
</event>
<event>
 6    0  0.1539497E-004  0.4751334E+03  0.7546771E-02  0.1020481E+00
         21   -1    0    0  502  501  0.00000000000E+00  0.00000000000E+00  0.92569810083E+02  0.92569810083E+02  0.00000000000E+00 0. -1.
         21   -1    0    0  501  502 -0.00000000000E+00 -0.00000000000E+00 -0.60967966476E+03  0.60967966476E+03  0.00000000000E+00 0. -1.
      99925    2    1    2    0    0 -0.52005094402E+02 -0.60405931333E+01 -0.49759408769E+03  0.56524804467E+03  0.26299136351E+03 0.  0.
         25    1    3    3    0    0 -0.50408408129E+02  0.21474972427E+02 -0.21108016955E+03  0.25140510760E+03  0.12509000000E+03 0.  0.
         25    1    1    2    0    0  0.52005094402E+02  0.60405931333E+01 -0.19515766981E+02  0.13700143017E+03  0.12509000000E+03 0.  0.
         25    1    3    3    0    0 -0.15966862731E+01 -0.27515565561E+02 -0.28651391814E+03  0.31384293706E+03  0.12509000000E+03 0.  0.
<mgrwt>
<rscale>  2 0.47513337E+03</rscale>
<asrwt>0</asrwt>
<pdfrwt beam="1">  1       21 0.13613208E-01 0.47513337E+03</pdfrwt>
<pdfrwt beam="2">  1       21 0.89658773E-01 0.47513337E+03</pdfrwt>
<totfact> 0.45181360E+04</totfact>
</mgrwt>
</event>
<event>
 6    0  0.1539497E-004  0.4289107E+03  0.7546771E-02  0.1034205E+00
         21   -1    0    0  502  501  0.00000000000E+00  0.00000000000E+00  0.50010913358E+02  0.50010913358E+02  0.00000000000E+00 0.  1.
         21   -1    0    0  501  502 -0.00000000000E+00 -0.00000000000E+00 -0.91962126925E+03  0.91962126925E+03  0.00000000000E+00 0.  1.
      99925    2    1    2    0    0  0.34328829117E+02 -0.40713009470E+02 -0.71541862355E+03  0.76406317699E+03  0.26293100589E+03 0.  0.
         25    1    3    3    0    0  0.27115918198E+02 -0.57484949795E+02 -0.33526965537E+03  0.36344606531E+03  0.12509000000E+03 0.  0.
         25    1    3    3    0    0  0.72129109191E+01  0.16771940325E+02 -0.38014896818E+03  0.40061711168E+03  0.12509000000E+03 0.  0.
         25    1    1    2    0    0 -0.34328829117E+02  0.40713009470E+02 -0.15419173234E+03  0.20556900562E+03  0.12509000000E+03 0.  0.
<mgrwt>
<rscale>  2 0.42891071E+03</rscale>
<asrwt>0</asrwt>
<pdfrwt beam="1">  1       21 0.73545464E-02 0.42891071E+03</pdfrwt>
<pdfrwt beam="2">  1       21 0.13523842E+00 0.42891071E+03</pdfrwt>
<totfact> 0.49755027E+04</totfact>
</mgrwt>
</event>
<event>
 6    0  0.1539497E-004  0.5267787E+03  0.7546771E-02  0.1007016E+00
         21   -1    0    0  502  501  0.00000000000E+00  0.00000000000E+00  0.88171979661E+03  0.88171979661E+03  0.00000000000E+00 0. -1.
         21   -1    0    0  501  502 -0.00000000000E+00 -0.00000000000E+00 -0.78680263985E+02  0.78680263985E+02  0.00000000000E+00 0. -1.
      99925    2    1    2    0    0  0.14158758009E+03 -0.75236409486E+02  0.59203197050E+03  0.66734842773E+03  0.26295343648E+03 0.  0.
         25    1    3    3    0    0  0.10769570983E+03 -0.17167625116E+02  0.32200992133E+03  0.36225818252E+03  0.12509000000E+03 0.  0.
         25    1    1    2    0    0 -0.14158758009E+03  0.75236409486E+02  0.21100756213E+03  0.29305163287E+03  0.12509000000E+03 0.  0.
         25    1    3    3    0    0  0.33891870267E+02 -0.58068784370E+02  0.27002204916E+03  0.30509024521E+03  0.12509000000E+03 0.  0.
<mgrwt>
<rscale>  2 0.52677869E+03</rscale>
<asrwt>0</asrwt>
<pdfrwt beam="1">  1       21 0.12966467E+00 0.52677869E+03</pdfrwt>
<pdfrwt beam="2">  1       21 0.11570628E-01 0.52677869E+03</pdfrwt>
<totfact> 0.24079324E+04</totfact>
</mgrwt>
</event>
<event>
 6    0  0.1539497E-004  0.4376189E+03  0.7546771E-02  0.1031480E+00
         21   -1    0    0  502  501  0.00000000000E+00  0.00000000000E+00  0.83276862424E+02  0.83276862424E+02  0.00000000000E+00 0. -1.
         21   -1    0    0  501  502 -0.00000000000E+00 -0.00000000000E+00 -0.57492046249E+03  0.57492046249E+03  0.00000000000E+00 0. -1.
      99925    2    1    2    0    0 -0.80919027076E+02  0.49196120256E+02 -0.33710001946E+03  0.43797159164E+03  0.26308657276E+03 0.  0.
         25    1    1    2    0    0  0.80919027076E+02 -0.49196120256E+02 -0.15454358061E+03  0.22022573328E+03  0.12509000000E+03 0.  0.
         25    1    3    3    0    0 -0.63899558199E+02  0.36845690936E+01 -0.21310616438E+03  0.25526158149E+03  0.12509000000E+03 0.  0.
         25    1    3    3    0    0 -0.17019468877E+02  0.45511551163E+02 -0.12399385508E+03  0.18271001015E+03  0.12509000000E+03 0.  0.
<mgrwt>
<rscale>  2 0.43761889E+03</rscale>
<asrwt>0</asrwt>
<pdfrwt beam="1">  1       21 0.12246597E-01 0.43761889E+03</pdfrwt>
<pdfrwt beam="2">  1       21 0.84547128E-01 0.43761889E+03</pdfrwt>
<totfact> 0.63492306E+04</totfact>
</mgrwt>
</event>
<event>
 6    0  0.1539497E-004  0.4086482E+03  0.7546771E-02  0.1040826E+00
         21   -1    0    0  502  501  0.00000000000E+00  0.00000000000E+00  0.82740298615E+03  0.82740298615E+03  0.00000000000E+00 0. -1.
         21   -1    0    0  501  502 -0.00000000000E+00 -0.00000000000E+00 -0.50457078571E+02  0.50457078571E+02  0.00000000000E+00 0. -1.
      99925    2    1    2    0    0 -0.58978078255E+02 -0.12737332021E+02  0.51594291354E+03  0.58220701749E+03  0.26292064932E+03 0.  0.
         25    1    3    3    0    0 -0.60444467590E+02 -0.72973253223E+01  0.32897728055E+03  0.35718390759E+03  0.12509000000E+03 0.  0.
         25    1    1    2    0    0  0.58978078255E+02  0.12737332021E+02  0.26100299403E+03  0.29565304723E+03  0.12509000000E+03 0.  0.
         25    1    3    3    0    0  0.14663893355E+01 -0.54400066989E+01  0.18696563299E+03  0.22502310990E+03  0.12509000000E+03 0.  0.
<mgrwt>
<rscale>  2 0.40864820E+03</rscale>
<asrwt>0</asrwt>
<pdfrwt beam="1">  1       21 0.12167690E+00 0.40864820E+03</pdfrwt>
<pdfrwt beam="2">  1       21 0.74201592E-02 0.40864820E+03</pdfrwt>
<totfact> 0.64670325E+04</totfact>
</mgrwt>
</event>
<event>
 6    0  0.1539497E-004  0.4208324E+03  0.7546771E-02  0.1036796E+00
         21   -1    0    0  502  501  0.00000000000E+00  0.00000000000E+00  0.10213852321E+04  0.10213852321E+04  0.00000000000E+00 0. -1.
         21   -1    0    0  501  502 -0.00000000000E+00 -0.00000000000E+00 -0.43347972593E+02  0.43347972593E+02  0.00000000000E+00 0. -1.
      99925    2    1    2    0    0  0.71053192511E+02 -0.25293403180E+02  0.60163937102E+03  0.66098676078E+03  0.26314492730E+03 0.  0.
         25    1    1    2    0    0 -0.71053192511E+02  0.25293403180E+02  0.37639788853E+03  0.40374644395E+03  0.12509000000E+03 0.  0.
         25    1    3    3    0    0  0.93574579829E+01 -0.53335301198E+01  0.36004515742E+03  0.38130831626E+03  0.12509000000E+03 0.  0.
         25    1    3    3    0    0  0.61695734528E+02 -0.19959873061E+02  0.24159421359E+03  0.27967844453E+03  0.12509000000E+03 0.  0.
<mgrwt>
<rscale>  2 0.42083241E+03</rscale>
<asrwt>0</asrwt>
<pdfrwt beam="1">  1       21 0.15020370E+00 0.42083241E+03</pdfrwt>
<pdfrwt beam="2">  1       21 0.63747025E-02 0.42083241E+03</pdfrwt>
<totfact> 0.48420339E+04</totfact>
</mgrwt>
</event>
<event>
 6    0  0.1539497E-004  0.5237582E+03  0.7546771E-02  0.1007757E+00
         21   -1    0    0  502  501  0.00000000000E+00  0.00000000000E+00  0.32871583611E+03  0.32871583611E+03  0.00000000000E+00 0. -1.
         21   -1    0    0  501  502 -0.00000000000E+00 -0.00000000000E+00 -0.20863204391E+03  0.20863204391E+03  0.00000000000E+00 0. -1.
      99925    2    1    2    0    0  0.48267199096E+02 -0.11759917265E+03 -0.41668721959E+02  0.29657688538E+03  0.26469280050E+03 0.  0.
         25    1    3    3    0    0  0.11534959241E+02 -0.70484441321E+02  0.18937869792E+02  0.14528338778E+03  0.12509000000E+03 0.  0.
         25    1    3    3    0    0  0.36732239856E+02 -0.47114731333E+02 -0.60606591751E+02  0.15129349760E+03  0.12509000000E+03 0.  0.
         25    1    1    2    0    0 -0.48267199096E+02  0.11759917265E+03  0.16175251417E+03  0.24077099463E+03  0.12509000000E+03 0.  0.
<mgrwt>
<rscale>  2 0.52375818E+03</rscale>
<asrwt>0</asrwt>
<pdfrwt beam="1">  1       21 0.48340564E-01 0.52375818E+03</pdfrwt>
<pdfrwt beam="2">  1       21 0.30681183E-01 0.52375818E+03</pdfrwt>
<totfact> 0.37603919E+04</totfact>
</mgrwt>
</event>
<event>
 6    0  0.1539497E-004  0.4895113E+03  0.7546771E-02  0.1016553E+00
         21   -1    0    0  502  501  0.00000000000E+00  0.00000000000E+00  0.86672757973E+03  0.86672757973E+03  0.00000000000E+00 0. -1.
         21   -1    0    0  501  502 -0.00000000000E+00 -0.00000000000E+00 -0.69116678860E+02  0.69116678860E+02  0.00000000000E+00 0. -1.
      99925    2    1    2    0    0  0.78928230184E+02  0.11760304217E+03  0.52574356093E+03  0.60475590230E+03  0.26317915657E+03 0.  0.
         25    1    3    3    0    0  0.55804114925E+02  0.50198858289E+02  0.19076430296E+03  0.24015110243E+03  0.12509000000E+03 0.  0.
         25    1    3    3    0    0  0.23124115258E+02  0.67404183884E+02  0.33497925797E+03  0.36460479986E+03  0.12509000000E+03 0.  0.
         25    1    1    2    0    0 -0.78928230184E+02 -0.11760304217E+03  0.27186733994E+03  0.33108835629E+03  0.12509000000E+03 0.  0.
<mgrwt>
<rscale>  2 0.48951131E+03</rscale>
<asrwt>0</asrwt>
<pdfrwt beam="1">  1       21 0.12745993E+00 0.48951131E+03</pdfrwt>
<pdfrwt beam="2">  1       21 0.10164218E-01 0.48951131E+03</pdfrwt>
<totfact> 0.32124088E+04</totfact>
</mgrwt>
</event>
<event>
 6    0  0.1539497E-004  0.3998072E+03  0.7546771E-02  0.1043846E+00
         21   -1    0    0  502  501  0.00000000000E+00  0.00000000000E+00  0.93227364898E+03  0.93227364898E+03  0.00000000000E+00 0. -1.
         21   -1    0    0  501  502 -0.00000000000E+00 -0.00000000000E+00 -0.42864514595E+02  0.42864514595E+02  0.00000000000E+00 0. -1.
      99925    2    1    2    0    0  0.60004949157E+01 -0.44150457062E+02  0.57546537302E+03  0.63426654229E+03  0.26296079998E+03 0.  0.
         25    1    3    3    0    0  0.41027193520E+02 -0.33353092150E+02  0.27318256174E+03  0.30507684196E+03  0.12509000000E+03 0.  0.
         25    1    3    3    0    0 -0.35026698605E+02 -0.10797364912E+02  0.30228281128E+03  0.32918970033E+03  0.12509000000E+03 0.  0.
         25    1    1    2    0    0 -0.60004949157E+01  0.44150457062E+02  0.31394376137E+03  0.34087162129E+03  0.12509000000E+03 0.  0.
<mgrwt>
<rscale>  2 0.39980724E+03</rscale>
<asrwt>0</asrwt>
<pdfrwt beam="1">  1       21 0.13709905E+00 0.39980724E+03</pdfrwt>
<pdfrwt beam="2">  1       21 0.63036057E-02 0.39980724E+03</pdfrwt>
<totfact> 0.63377906E+04</totfact>
</mgrwt>
</event>
<event>
 6    0  0.1539497E-004  0.4052020E+03  0.7546771E-02  0.1041993E+00
         21   -1    0    0  502  501  0.00000000000E+00  0.00000000000E+00  0.87569699139E+03  0.87569699139E+03  0.00000000000E+00 0. -1.
         21   -1    0    0  501  502 -0.00000000000E+00 -0.00000000000E+00 -0.46873702488E+02  0.46873702488E+02  0.00000000000E+00 0. -1.
      99925    2    1    2    0    0 -0.35615945801E+02 -0.11122178682E+02  0.64081462142E+03  0.69368870332E+03  0.26299893466E+03 0.  0.
         25    1    3    3    0    0  0.17886854241E+02 -0.19709128944E+02  0.27449368355E+03  0.30282450319E+03  0.12509000000E+03 0.  0.
         25    1    3    3    0    0 -0.53502800041E+02  0.85869502617E+01  0.36632093786E+03  0.39086420013E+03  0.12509000000E+03 0.  0.
         25    1    1    2    0    0  0.35615945801E+02  0.11122178682E+02  0.18800866748E+03  0.22888199056E+03  0.12509000000E+03 0.  0.
<mgrwt>
<rscale>  2 0.40520198E+03</rscale>
<asrwt>0</asrwt>
<pdfrwt beam="1">  1       21 0.12877896E+00 0.40520198E+03</pdfrwt>
<pdfrwt beam="2">  1       21 0.68931921E-02 0.40520198E+03</pdfrwt>
<totfact> 0.63695856E+04</totfact>
</mgrwt>
</event>
<event>
 6    0  0.1539497E-004  0.4216222E+03  0.7546771E-02  0.1036540E+00
         21   -1    0    0  502  501  0.00000000000E+00  0.00000000000E+00  0.63050679147E+02  0.63050679147E+02  0.00000000000E+00 0.  1.
         21   -1    0    0  501  502 -0.00000000000E+00 -0.00000000000E+00 -0.70485068441E+03  0.70485068441E+03  0.00000000000E+00 0.  1.
      99925    2    1    2    0    0 -0.71309827105E+02  0.50450075499E+01 -0.36753436642E+03  0.45809546902E+03  0.26393068160E+03 0.  0.
         25    1    3    3    0    0  0.49517825878E+00 -0.15085295254E+02 -0.14440497865E+03  0.19164581209E+03  0.12509000000E+03 0.  0.
         25    1    3    3    0    0 -0.71805005363E+02  0.20130302804E+02 -0.22312938777E+03  0.26644965692E+03  0.12509000000E+03 0.  0.
         25    1    1    2    0    0  0.71309827105E+02 -0.50450075499E+01 -0.27426563884E+03  0.30980589454E+03  0.12509000000E+03 0.  0.
<mgrwt>
<rscale>  2 0.42162217E+03</rscale>
<asrwt>0</asrwt>
<pdfrwt beam="1">  1       21 0.92721597E-02 0.42162217E+03</pdfrwt>
<pdfrwt beam="2">  1       21 0.10365450E+00 0.42162217E+03</pdfrwt>
<totfact> 0.64722234E+04</totfact>
</mgrwt>
</event>
<event>
 6    0  0.1539497E-004  0.4073038E+03  0.7546771E-02  0.1041280E+00
         21   -1    0    0  502  501  0.00000000000E+00  0.00000000000E+00  0.66079610031E+02  0.66079610031E+02  0.00000000000E+00 0. -1.
         21   -1    0    0  501  502 -0.00000000000E+00 -0.00000000000E+00 -0.62763824719E+03  0.62763824719E+03  0.00000000000E+00 0. -1.
      99925    2    1    2    0    0  0.10342147183E+02  0.14618999182E+02 -0.46573232776E+03  0.53512761534E+03  0.26293400015E+03 0.  0.
         25    1    3    3    0    0  0.19906643582E+02 -0.15222809569E+02 -0.29298841880E+03  0.31955864883E+03  0.12509000000E+03 0.  0.
         25    1    1    2    0    0 -0.10342147183E+02 -0.14618999182E+02 -0.95826309391E+02  0.15859024187E+03  0.12509000000E+03 0.  0.
         25    1    3    3    0    0 -0.95644963991E+01  0.29841808751E+02 -0.17274390896E+03  0.21556896651E+03  0.12509000000E+03 0.  0.
<mgrwt>
<rscale>  2 0.40730377E+03</rscale>
<asrwt>0</asrwt>
<pdfrwt beam="1">  1       21 0.97175902E-02 0.40730377E+03</pdfrwt>
<pdfrwt beam="2">  1       21 0.92299738E-01 0.40730377E+03</pdfrwt>
<totfact> 0.78976153E+04</totfact>
</mgrwt>
</event>
<event>
 6    0  0.1539497E-004  0.4314198E+03  0.7546771E-02  0.1033412E+00
         21   -1    0    0  502  501  0.00000000000E+00  0.00000000000E+00  0.64380819399E+02  0.64380819399E+02  0.00000000000E+00 0. -1.
         21   -1    0    0  501  502 -0.00000000000E+00 -0.00000000000E+00 -0.72274268188E+03  0.72274268188E+03  0.00000000000E+00 0. -1.
      99925    2    1    2    0    0  0.25475164382E+02  0.18736067232E+02 -0.57629812775E+03  0.63421179841E+03  0.26287839201E+03 0.  0.
         25    1    3    3    0    0  0.90796629891E+01  0.46562703672E+02 -0.25622656555E+03  0.28905031853E+03  0.12509000000E+03 0.  0.
         25    1    3    3    0    0  0.16395501393E+02 -0.27826636439E+02 -0.32007156220E+03  0.34516147988E+03  0.12509000000E+03 0.  0.
         25    1    1    2    0    0 -0.25475164382E+02 -0.18736067232E+02 -0.82063734738E+02  0.15291170287E+03  0.12509000000E+03 0.  0.
<mgrwt>
<rscale>  2 0.43141982E+03</rscale>
<asrwt>0</asrwt>
<pdfrwt beam="1">  1       21 0.94677678E-02 0.43141982E+03</pdfrwt>
<pdfrwt beam="2">  1       21 0.10628569E+00 0.43141982E+03</pdfrwt>
<totfact> 0.58491235E+04</totfact>
</mgrwt>
</event>
<event>
 6    0  0.1539497E-004  0.4555791E+03  0.7546771E-02  0.1026071E+00
         21   -1    0    0  502  501  0.00000000000E+00  0.00000000000E+00  0.64373950599E+02  0.64373950599E+02  0.00000000000E+00 0. -1.
         21   -1    0    0  501  502 -0.00000000000E+00 -0.00000000000E+00 -0.80604152879E+03  0.80604152879E+03  0.00000000000E+00 0. -1.
      99925    2    1    2    0    0 -0.99840070308E+02 -0.25965190321E+02 -0.37520911335E+03  0.46968920710E+03  0.26302821480E+03 0.  0.
         25    1    1    2    0    0  0.99840070308E+02  0.25965190321E+02 -0.36645846484E+03  0.40072627229E+03  0.12509000000E+03 0.  0.
         25    1    3    3    0    0 -0.67725434689E+02 -0.50702329442E+02 -0.20383341607E+03  0.25367899070E+03  0.12509000000E+03 0.  0.
         25    1    3    3    0    0 -0.32114635619E+02  0.24737139121E+02 -0.17137569728E+03  0.21601021640E+03  0.12509000000E+03 0.  0.
<mgrwt>
<rscale>  2 0.45557909E+03</rscale>
<asrwt>0</asrwt>
<pdfrwt beam="1">  1       21 0.94667580E-02 0.45557909E+03</pdfrwt>
<pdfrwt beam="2">  1       21 0.11853551E+00 0.45557909E+03</pdfrwt>
<totfact> 0.44336095E+04</totfact>
</mgrwt>
</event>
<event>
 6    0  0.1539497E-004  0.4212225E+03  0.7546771E-02  0.1036669E+00
         21   -1    0    0  502  501  0.00000000000E+00  0.00000000000E+00  0.75066664109E+02  0.75066664109E+02  0.00000000000E+00 0.  1.
         21   -1    0    0  501  502 -0.00000000000E+00 -0.00000000000E+00 -0.59090286212E+03  0.59090286212E+03  0.00000000000E+00 0.  1.
      99925    2    1    2    0    0 -0.72396711684E+02 -0.27169662000E+02 -0.33874471822E+03  0.43577748746E+03  0.26301057025E+03 0.  0.
         25    1    3    3    0    0 -0.63805667978E+02  0.16320703112E+02 -0.17012584535E+03  0.22119638327E+03  0.12509000000E+03 0.  0.
         25    1    3    3    0    0 -0.85910437058E+01 -0.43490365112E+02 -0.16861887287E+03  0.21458110419E+03  0.12509000000E+03 0.  0.
         25    1    1    2    0    0  0.72396711684E+02  0.27169662000E+02 -0.17709147980E+03  0.23019203877E+03  0.12509000000E+03 0.  0.
<mgrwt>
<rscale>  2 0.42122254E+03</rscale>
<asrwt>0</asrwt>
<pdfrwt beam="1">  1       21 0.11039215E-01 0.42122254E+03</pdfrwt>
<pdfrwt beam="2">  1       21 0.86897479E-01 0.42122254E+03</pdfrwt>
<totfact> 0.72157214E+04</totfact>
</mgrwt>
</event>
<event>
 6    0  0.1539497E-004  0.4497657E+03  0.7546771E-02  0.1027792E+00
         21   -1    0    0  502  501  0.00000000000E+00  0.00000000000E+00  0.53596278059E+03  0.53596278059E+03  0.00000000000E+00 0. -1.
         21   -1    0    0  501  502 -0.00000000000E+00 -0.00000000000E+00 -0.94357835436E+02  0.94357835436E+02  0.00000000000E+00 0. -1.
      99925    2    1    2    0    0  0.55199041906E+02  0.56200738268E+02  0.17553314278E+03  0.32594064078E+03  0.26309686408E+03 0.  0.
         25    1    1    2    0    0 -0.55199041906E+02 -0.56200738268E+02  0.26607180237E+03  0.30437997524E+03  0.12509000000E+03 0.  0.
         25    1    3    3    0    0  0.44967791257E+02  0.66996526519E+00  0.57148522046E+02  0.14469282213E+03  0.12509000000E+03 0.  0.
         25    1    3    3    0    0  0.10231250650E+02  0.55530773003E+02  0.11838462073E+03  0.18124781865E+03  0.12509000000E+03 0.  0.
<mgrwt>
<rscale>  2 0.44976566E+03</rscale>
<asrwt>0</asrwt>
<pdfrwt beam="1">  1       21 0.78818055E-01 0.44976566E+03</pdfrwt>
<pdfrwt beam="2">  1       21 0.13876153E-01 0.44976566E+03</pdfrwt>
<totfact> 0.59260555E+04</totfact>
</mgrwt>
</event>
<event>
 6    0  0.1539497E-004  0.4672301E+03  0.7546771E-02  0.1022705E+00
         21   -1    0    0  502  501  0.00000000000E+00  0.00000000000E+00  0.14085156952E+03  0.14085156952E+03  0.00000000000E+00 0. -1.
         21   -1    0    0  501  502 -0.00000000000E+00 -0.00000000000E+00 -0.38747158267E+03  0.38747158267E+03  0.00000000000E+00 0. -1.
      99925    2    1    2    0    0  0.40030915231E+02 -0.70536165198E+01 -0.28635941836E+03  0.39092243855E+03  0.26299507372E+03 0.  0.
         25    1    1    2    0    0 -0.40030915231E+02  0.70536165198E+01  0.39739405213E+02  0.13740071363E+03  0.12509000000E+03 0.  0.
         25    1    3    3    0    0  0.48575981451E+02 -0.91875469013E+01 -0.10599864680E+03  0.17125203127E+03  0.12509000000E+03 0.  0.
         25    1    3    3    0    0 -0.85450662205E+01  0.21339303815E+01 -0.18036077156E+03  0.21967040728E+03  0.12509000000E+03 0.  0.
<mgrwt>
<rscale>  2 0.46723005E+03</rscale>
<asrwt>0</asrwt>
<pdfrwt beam="1">  1       21 0.20713466E-01 0.46723005E+03</pdfrwt>
<pdfrwt beam="2">  1       21 0.56981115E-01 0.46723005E+03</pdfrwt>
<totfact> 0.57535172E+04</totfact>
</mgrwt>
</event>
<event>
 6    0  0.1539497E-004  0.3947011E+03  0.7546771E-02  0.1045630E+00
         21   -1    0    0  502  501  0.00000000000E+00  0.00000000000E+00  0.11435608268E+04  0.11435608268E+04  0.00000000000E+00 0.  1.
         21   -1    0    0  501  502 -0.00000000000E+00 -0.00000000000E+00 -0.34057868501E+02  0.34057868501E+02  0.00000000000E+00 0.  1.
      99925    2    1    2    0    0  0.20387571985E+02 -0.15645783611E+02  0.68653279448E+03  0.73579100127E+03  0.26344008049E+03 0.  0.
         25    1    3    3    0    0 -0.21493511020E+02  0.18902964696E+02  0.33474156672E+03  0.35849507344E+03  0.12509000000E+03 0.  0.
         25    1    1    2    0    0 -0.20387571985E+02  0.15645783611E+02  0.42297016378E+03  0.44182769399E+03  0.12509000000E+03 0.  0.
         25    1    3    3    0    0  0.41881083004E+02 -0.34548748308E+02  0.35179122776E+03  0.37729592782E+03  0.12509000000E+03 0.  0.
<mgrwt>
<rscale>  2 0.39470112E+03</rscale>
<asrwt>0</asrwt>
<pdfrwt beam="1">  1       21 0.16817068E+00 0.39470112E+03</pdfrwt>
<pdfrwt beam="2">  1       21 0.50085108E-02 0.39470112E+03</pdfrwt>
<totfact> 0.54205167E+04</totfact>
</mgrwt>
</event>
<event>
 6    0  0.1539497E-004  0.4174146E+03  0.7546771E-02  0.1037911E+00
         21   -1    0    0  502  501  0.00000000000E+00  0.00000000000E+00  0.15383480497E+04  0.15383480497E+04  0.00000000000E+00 0.  1.
         21   -1    0    0  501  502 -0.00000000000E+00 -0.00000000000E+00 -0.28315265189E+02  0.28315265189E+02  0.00000000000E+00 0.  1.
      99925    2    1    2    0    0 -0.21460090041E+02  0.58148788608E+02  0.85021699072E+03  0.89224044538E+03  0.26340513279E+03 0.  0.
         25    1    3    3    0    0 -0.44793018500E+01  0.69914947237E+02  0.47658105485E+03  0.49767979057E+03  0.12509000000E+03 0.  0.
         25    1    1    2    0    0  0.21460090041E+02 -0.58148788608E+02  0.65981579381E+03  0.67442286953E+03  0.12509000000E+03 0.  0.
         25    1    3    3    0    0 -0.16980788191E+02 -0.11766158630E+02  0.37363593587E+03  0.39456065482E+03  0.12509000000E+03 0.  0.
<mgrwt>
<rscale>  2 0.41741458E+03</rscale>
<asrwt>0</asrwt>
<pdfrwt beam="1">  1       21 0.22622760E+00 0.41741458E+03</pdfrwt>
<pdfrwt beam="2">  1       21 0.41640106E-02 0.41741458E+03</pdfrwt>
<totfact> 0.30052907E+04</totfact>
</mgrwt>
</event>
<event>
 6    0  0.1539497E-004  0.4294429E+03  0.7546771E-02  0.1034036E+00
         21   -1    0    0  502  501  0.00000000000E+00  0.00000000000E+00  0.20951625021E+03  0.20951625021E+03  0.00000000000E+00 0.  1.
         21   -1    0    0  501  502 -0.00000000000E+00 -0.00000000000E+00 -0.22005600586E+03  0.22005600586E+03  0.00000000000E+00 0.  1.
      99925    2    1    2    0    0  0.60705761022E+02  0.18459971959E+02 -0.66504567737E+02  0.27855726252E+03  0.26295499803E+03 0.  0.
         25    1    3    3    0    0  0.21710686317E+01 -0.20197041590E+02 -0.24062081486E+02  0.12899273582E+03  0.12509000000E+03 0.  0.
         25    1    1    2    0    0 -0.60705761022E+02 -0.18459971959E+02  0.55964812081E+02  0.15101499355E+03  0.12509000000E+03 0.  0.
         25    1    3    3    0    0  0.58534692390E+02  0.38657013549E+02 -0.42442486250E+02  0.14956452671E+03  0.12509000000E+03 0.  0.
<mgrwt>
<rscale>  2 0.42944294E+03</rscale>
<asrwt>0</asrwt>
<pdfrwt beam="1">  1       21 0.30811213E-01 0.42944294E+03</pdfrwt>
<pdfrwt beam="2">  1       21 0.32361177E-01 0.42944294E+03</pdfrwt>
<totfact> 0.86855881E+04</totfact>
</mgrwt>
</event>
<event>
 6    0  0.1539497E-004  0.4512385E+03  0.7546771E-02  0.1027353E+00
         21   -1    0    0  502  501  0.00000000000E+00  0.00000000000E+00  0.32659471174E+02  0.32659471174E+02  0.00000000000E+00 0.  1.
         21   -1    0    0  501  502 -0.00000000000E+00 -0.00000000000E+00 -0.15586302948E+04  0.15586302948E+04  0.00000000000E+00 0.  1.
      99925    2    1    2    0    0  0.53251094141E+02  0.46257311840E+02 -0.12593141839E+04  0.12884223205E+04  0.26302936003E+03 0.  0.
         25    1    3    3    0    0 -0.14187235286E+02  0.25487961347E+02 -0.62251867656E+03  0.63563190967E+03  0.12509000000E+03 0.  0.
         25    1    1    2    0    0 -0.53251094141E+02 -0.46257311840E+02 -0.26665663974E+03  0.30286744550E+03  0.12509000000E+03 0.  0.
         25    1    3    3    0    0  0.67438329427E+02  0.20769350493E+02 -0.63679550737E+03  0.65279041085E+03  0.12509000000E+03 0.  0.
<mgrwt>
<rscale>  2 0.45123848E+03</rscale>
<asrwt>0</asrwt>
<pdfrwt beam="1">  1       21 0.48028635E-02 0.45123848E+03</pdfrwt>
<pdfrwt beam="2">  1       21 0.22921033E+00 0.45123848E+03</pdfrwt>
<totfact> 0.22270749E+04</totfact>
</mgrwt>
</event>
<event>
 6    0  0.1539497E-004  0.4572821E+03  0.7546771E-02  0.1025572E+00
         21   -1    0    0  502  501  0.00000000000E+00  0.00000000000E+00  0.87408807957E+02  0.87408807957E+02  0.00000000000E+00 0. -1.
         21   -1    0    0  501  502 -0.00000000000E+00 -0.00000000000E+00 -0.59807167133E+03  0.59807167133E+03  0.00000000000E+00 0. -1.
      99925    2    1    2    0    0  0.11388326122E+03  0.26650748410E+01 -0.29341808757E+03  0.41012743223E+03  0.26293314121E+03 0.  0.
         25    1    1    2    0    0 -0.11388326122E+03 -0.26650748410E+01 -0.21724477580E+03  0.27535304705E+03  0.12509000000E+03 0.  0.
         25    1    3    3    0    0  0.49263078415E+02  0.12251386334E+02 -0.19849782439E+03  0.24005383094E+03  0.12509000000E+03 0.  0.
         25    1    3    3    0    0  0.64620182801E+02 -0.95863114931E+01 -0.94920263181E+02  0.17007360129E+03  0.12509000000E+03 0.  0.
<mgrwt>
<rscale>  2 0.45728211E+03</rscale>
<asrwt>0</asrwt>
<pdfrwt beam="1">  1       21 0.12854236E-01 0.45728211E+03</pdfrwt>
<pdfrwt beam="2">  1       21 0.87951719E-01 0.45728211E+03</pdfrwt>
<totfact> 0.52744525E+04</totfact>
</mgrwt>
</event>
<event>
 6    0  0.1539497E-004  0.4817247E+03  0.7546771E-02  0.1018662E+00
         21   -1    0    0  502  501  0.00000000000E+00  0.00000000000E+00  0.18051794496E+03  0.18051794496E+03  0.00000000000E+00 0. -1.
         21   -1    0    0  501  502 -0.00000000000E+00 -0.00000000000E+00 -0.32137898580E+03  0.32137898580E+03  0.00000000000E+00 0. -1.
      99925    2    1    2    0    0 -0.22157981865E+02 -0.63826230207E+02 -0.21048692165E+03  0.34359331360E+03  0.26303394675E+03 0.  0.
         25    1    3    3    0    0 -0.38169523580E+02 -0.35137162837E+01 -0.87429524385E+02  0.15735529405E+03  0.12509000000E+03 0.  0.
         25    1    1    2    0    0  0.22157981865E+02  0.63826230207E+02  0.69625880814E+02  0.15830361715E+03  0.12509000000E+03 0.  0.
         25    1    3    3    0    0  0.16011541715E+02 -0.60312513924E+02 -0.12305739727E+03  0.18623801955E+03  0.12509000000E+03 0.  0.
<mgrwt>
<rscale>  2 0.48172471E+03</rscale>
<asrwt>0</asrwt>
<pdfrwt beam="1">  1       21 0.26546757E-01 0.48172471E+03</pdfrwt>
<pdfrwt beam="2">  1       21 0.47261615E-01 0.48172471E+03</pdfrwt>
<totfact> 0.52975385E+04</totfact>
</mgrwt>
</event>
<event>
 6    0  0.1539497E-004  0.4314443E+03  0.7546771E-02  0.1033405E+00
         21   -1    0    0  502  501  0.00000000000E+00  0.00000000000E+00  0.31467242251E+02  0.31467242251E+02  0.00000000000E+00 0. -1.
         21   -1    0    0  501  502 -0.00000000000E+00 -0.00000000000E+00 -0.14788723803E+04  0.14788723803E+04  0.00000000000E+00 0. -1.
      99925    2    1    2    0    0 -0.87231603856E+02 -0.13221727897E+02 -0.88291284899E+03  0.92546081519E+03  0.26297995119E+03 0.  0.
         25    1    3    3    0    0 -0.64205528093E+02  0.28466852257E+02 -0.46770451005E+03  0.48921133300E+03  0.12509000000E+03 0.  0.
         25    1    3    3    0    0 -0.23026075763E+02 -0.41688580154E+02 -0.41520833895E+03  0.43624948219E+03  0.12509000000E+03 0.  0.
         25    1    1    2    0    0  0.87231603856E+02  0.13221727897E+02 -0.56449228906E+03  0.58487880737E+03  0.12509000000E+03 0.  0.
<mgrwt>
<rscale>  2 0.43144425E+03</rscale>
<asrwt>0</asrwt>
<pdfrwt beam="1">  1       21 0.46275352E-02 0.43144425E+03</pdfrwt>
<pdfrwt beam="2">  1       21 0.21748125E+00 0.43144425E+03</pdfrwt>
<totfact> 0.28374134E+04</totfact>
</mgrwt>
</event>
<event>
 6    0  0.1539497E-004  0.3945138E+03  0.7546771E-02  0.1045696E+00
         21   -1    0    0  502  501  0.00000000000E+00  0.00000000000E+00  0.25237374239E+03  0.25237374239E+03  0.00000000000E+00 0. -1.
         21   -1    0    0  501  502 -0.00000000000E+00 -0.00000000000E+00 -0.15417722059E+03  0.15417722059E+03  0.00000000000E+00 0. -1.
      99925    2    1    2    0    0 -0.21583684171E+02  0.24742330495E+02  0.73333170282E+02  0.27485535679E+03  0.26284914866E+03 0.  0.
         25    1    3    3    0    0 -0.27833129135E+02  0.84134406281E+00  0.78393277111E+00  0.12815425700E+03  0.12509000000E+03 0.  0.
         25    1    1    2    0    0  0.21583684171E+02 -0.24742330495E+02  0.24863351520E+02  0.13169560619E+03  0.12509000000E+03 0.  0.
         25    1    3    3    0    0  0.62494449637E+01  0.23900986432E+02  0.72549237511E+02  0.14670109978E+03  0.12509000000E+03 0.  0.
<mgrwt>
<rscale>  2 0.39451379E+03</rscale>
<asrwt>0</asrwt>
<pdfrwt beam="1">  1       21 0.37113786E-01 0.39451379E+03</pdfrwt>
<pdfrwt beam="2">  1       21 0.22673121E-01 0.39451379E+03</pdfrwt>
<totfact> 0.12082237E+05</totfact>
</mgrwt>
</event>
<event>
 6    0  0.1539497E-004  0.3980454E+03  0.7546771E-02  0.1044459E+00
         21   -1    0    0  502  501  0.00000000000E+00  0.00000000000E+00  0.75639918611E+03  0.75639918611E+03  0.00000000000E+00 0. -1.
         21   -1    0    0  501  502 -0.00000000000E+00 -0.00000000000E+00 -0.52366576059E+02  0.52366576059E+02  0.00000000000E+00 0. -1.
      99925    2    1    2    0    0  0.22120087529E+02 -0.17559359802E+02  0.53255273755E+03  0.59463850056E+03  0.26303022392E+03 0.  0.
         25    1    3    3    0    0 -0.24661274658E+02 -0.26362549305E+02  0.24423329835E+03  0.27676808811E+03  0.12509000000E+03 0.  0.
         25    1    3    3    0    0  0.46781362188E+02  0.88031895031E+01  0.28831943920E+03  0.31787041245E+03  0.12509000000E+03 0.  0.
         25    1    1    2    0    0 -0.22120087529E+02  0.17559359802E+02  0.17147987251E+03  0.21412726161E+03  0.12509000000E+03 0.  0.
<mgrwt>
<rscale>  2 0.39804540E+03</rscale>
<asrwt>0</asrwt>
<pdfrwt beam="1">  1       21 0.11123517E+00 0.39804540E+03</pdfrwt>
<pdfrwt beam="2">  1       21 0.77009675E-02 0.39804540E+03</pdfrwt>
<totfact> 0.76049510E+04</totfact>
</mgrwt>
</event>
<event>
 6    0  0.1539497E-004  0.3894682E+03  0.7546771E-02  0.1047489E+00
         21   -1    0    0  502  501  0.00000000000E+00  0.00000000000E+00  0.98844918614E+02  0.98844918614E+02  0.00000000000E+00 0.  1.
         21   -1    0    0  501  502 -0.00000000000E+00 -0.00000000000E+00 -0.38364519930E+03  0.38364519930E+03  0.00000000000E+00 0.  1.
      99925    2    1    2    0    0 -0.13957414756E+02  0.60764901653E+01 -0.19549821549E+03  0.32804239178E+03  0.26298388807E+03 0.  0.
         25    1    1    2    0    0  0.13957414756E+02 -0.60764901653E+01 -0.89302065202E+02  0.15444772614E+03  0.12509000000E+03 0.  0.
         25    1    3    3    0    0  0.24834810836E+02  0.76649887720E+01 -0.65780116484E+02  0.14370125854E+03  0.12509000000E+03 0.  0.
         25    1    3    3    0    0 -0.38792225592E+02 -0.15884986067E+01 -0.12971809900E+03  0.18434113324E+03  0.12509000000E+03 0.  0.
<mgrwt>
<rscale>  2 0.38946825E+03</rscale>
<asrwt>0</asrwt>
<pdfrwt beam="1">  1       21 0.14536018E-01 0.38946825E+03</pdfrwt>
<pdfrwt beam="2">  1       21 0.56418410E-01 0.38946825E+03</pdfrwt>
<totfact> 0.11610858E+05</totfact>
</mgrwt>
</event>
<event>
 6    0  0.1539497E-004  0.5460064E+03  0.7546771E-02  0.1002423E+00
         21   -1    0    0  502  501  0.00000000000E+00  0.00000000000E+00  0.94756272833E+02  0.94756272833E+02  0.00000000000E+00 0.  1.
         21   -1    0    0  501  502 -0.00000000000E+00 -0.00000000000E+00 -0.78655200692E+03  0.78655200692E+03  0.00000000000E+00 0.  1.
      99925    2    1    2    0    0  0.18471901054E+02  0.16925069966E+03 -0.52820011983E+03  0.61410415634E+03  0.26294778528E+03 0.  0.
         25    1    3    3    0    0 -0.51295728319E+01  0.12201584504E+03 -0.25713411580E+03  0.31093349862E+03  0.12509000000E+03 0.  0.
         25    1    3    3    0    0  0.23601473886E+02  0.47234854617E+02 -0.27106600403E+03  0.30317065772E+03  0.12509000000E+03 0.  0.
         25    1    1    2    0    0 -0.18471901054E+02 -0.16925069966E+03 -0.16359561426E+03  0.26720412341E+03  0.12509000000E+03 0.  0.
<mgrwt>
<rscale>  2 0.54600636E+03</rscale>
<asrwt>0</asrwt>
<pdfrwt beam="1">  1       21 0.13934746E-01 0.54600636E+03</pdfrwt>
<pdfrwt beam="2">  1       21 0.11566941E+00 0.54600636E+03</pdfrwt>
<totfact> 0.22847141E+04</totfact>
</mgrwt>
</event>
<event>
 6    0  0.1539497E-004  0.4075962E+03  0.7546771E-02  0.1041181E+00
         21   -1    0    0  502  501  0.00000000000E+00  0.00000000000E+00  0.26987851018E+03  0.26987851018E+03  0.00000000000E+00 0.  1.
         21   -1    0    0  501  502 -0.00000000000E+00 -0.00000000000E+00 -0.15389763995E+03  0.15389763995E+03  0.00000000000E+00 0.  1.
      99925    2    1    2    0    0 -0.43997296705E+02  0.20605709088E+02  0.11080040581E+03  0.28948280451E+03  0.26298898611E+03 0.  0.
         25    1    3    3    0    0 -0.44135749722E+01  0.26291033709E+02  0.90303839954E+02  0.15656624703E+03  0.12509000000E+03 0.  0.
         25    1    3    3    0    0 -0.39583721732E+02 -0.56853246208E+01  0.20496565855E+02  0.13291655749E+03  0.12509000000E+03 0.  0.
         25    1    1    2    0    0  0.43997296705E+02 -0.20605709088E+02  0.51804644160E+01  0.13429334561E+03  0.12509000000E+03 0.  0.
<mgrwt>
<rscale>  2 0.40759620E+03</rscale>
<asrwt>0</asrwt>
<pdfrwt beam="1">  1       21 0.39688016E-01 0.40759620E+03</pdfrwt>
<pdfrwt beam="2">  1       21 0.22632006E-01 0.40759620E+03</pdfrwt>
<totfact> 0.10544713E+05</totfact>
</mgrwt>
</event>
<event>
 6    0  0.1539497E-004  0.4431053E+03  0.7546771E-02  0.1029798E+00
         21   -1    0    0  502  501  0.00000000000E+00  0.00000000000E+00  0.16106635607E+04  0.16106635607E+04  0.00000000000E+00 0. -1.
         21   -1    0    0  501  502 -0.00000000000E+00 -0.00000000000E+00 -0.30475370012E+02  0.30475370012E+02  0.00000000000E+00 0. -1.
      99925    2    1    2    0    0  0.22176694148E+02 -0.78934807269E+02  0.78301032203E+03  0.83005165308E+03  0.26297922506E+03 0.  0.
         25    1    3    3    0    0  0.10964337823E+02  0.22023551661E+01  0.33656331174E+03  0.35923173298E+03  0.12509000000E+03 0.  0.
         25    1    1    2    0    0 -0.22176694148E+02  0.78934807269E+02  0.79717786868E+03  0.81108727766E+03  0.12509000000E+03 0.  0.
         25    1    3    3    0    0  0.11212356326E+02 -0.81137162435E+02  0.44644701029E+03  0.47081992009E+03  0.12509000000E+03 0.  0.
<mgrwt>
<rscale>  2 0.44310526E+03</rscale>
<asrwt>0</asrwt>
<pdfrwt beam="1">  1       21 0.23686223E+00 0.44310526E+03</pdfrwt>
<pdfrwt beam="2">  1       21 0.44816731E-02 0.44310526E+03</pdfrwt>
<totfact> 0.22525623E+04</totfact>
</mgrwt>
</event>
<event>
 6    0  0.1539497E-004  0.4499345E+03  0.7546771E-02  0.1027742E+00
         21   -1    0    0  502  501  0.00000000000E+00  0.00000000000E+00  0.64185823609E+02  0.64185823609E+02  0.00000000000E+00 0. -1.
         21   -1    0    0  501  502 -0.00000000000E+00 -0.00000000000E+00 -0.78849599270E+03  0.78849599270E+03  0.00000000000E+00 0. -1.
      99925    2    1    2    0    0  0.15227707145E+02 -0.80189373886E+02 -0.32317483369E+03  0.42464059848E+03  0.26308828557E+03 0.  0.
         25    1    3    3    0    0 -0.18529113538E+01 -0.66763198020E+02 -0.12363086072E+03  0.18812989054E+03  0.12509000000E+03 0.  0.
         25    1    1    2    0    0 -0.15227707145E+02  0.80189373886E+02 -0.40113533541E+03  0.42804121783E+03  0.12509000000E+03 0.  0.
         25    1    3    3    0    0  0.17080618499E+02 -0.13426175865E+02 -0.19954397296E+03  0.23651070794E+03  0.12509000000E+03 0.  0.
<mgrwt>
<rscale>  2 0.44993451E+03</rscale>
<asrwt>0</asrwt>
<pdfrwt beam="1">  1       21 0.94390912E-02 0.44993451E+03</pdfrwt>
<pdfrwt beam="2">  1       21 0.11595530E+00 0.44993451E+03</pdfrwt>
<totfact> 0.47166024E+04</totfact>
</mgrwt>
</event>
<event>
 6    0  0.1539497E-004  0.4449811E+03  0.7546771E-02  0.1029229E+00
         21   -1    0    0  502  501  0.00000000000E+00  0.00000000000E+00  0.16149672476E+04  0.16149672476E+04  0.00000000000E+00 0.  1.
         21   -1    0    0  501  502 -0.00000000000E+00 -0.00000000000E+00 -0.30652045965E+02  0.30652045965E+02  0.00000000000E+00 0.  1.
      99925    2    1    2    0    0 -0.55540874487E+02  0.32699752056E+02  0.13056142935E+04  0.13334082002E+04  0.26304882142E+03 0.  0.
         25    1    1    2    0    0  0.55540874487E+02 -0.32699752056E+02  0.27870090814E+03  0.31221109337E+03  0.12509000000E+03 0.  0.
         25    1    3    3    0    0 -0.67177402532E+02  0.60366071174E+01  0.65516498221E+03  0.67040130224E+03  0.12509000000E+03 0.  0.
         25    1    3    3    0    0  0.11636528045E+02  0.26663144938E+02  0.65044931127E+03  0.66300689794E+03  0.12509000000E+03 0.  0.
<mgrwt>
<rscale>  2 0.44498112E+03</rscale>
<asrwt>0</asrwt>
<pdfrwt beam="1">  1       21 0.23749513E+00 0.44498112E+03</pdfrwt>
<pdfrwt beam="2">  1       21 0.45076549E-02 0.44498112E+03</pdfrwt>
<totfact> 0.22087157E+04</totfact>
</mgrwt>
</event>
<event>
 6    0  0.1539497E-004  0.4413272E+03  0.7546771E-02  0.1030340E+00
         21   -1    0    0  502  501  0.00000000000E+00  0.00000000000E+00  0.49780430447E+03  0.49780430447E+03  0.00000000000E+00 0.  1.
         21   -1    0    0  501  502 -0.00000000000E+00 -0.00000000000E+00 -0.97814390331E+02  0.97814390331E+02  0.00000000000E+00 0.  1.
      99925    2    1    2    0    0 -0.54043720925E+02  0.77341555210E+02  0.29873514785E+03  0.40906447821E+03  0.26303729552E+03 0.  0.
         25    1    3    3    0    0  0.11675707817E+02  0.30605978975E+02  0.11925978823E+03  0.17590751346E+03  0.12509000000E+03 0.  0.
         25    1    1    2    0    0  0.54043720925E+02 -0.77341555210E+02  0.10125476629E+03  0.18655421660E+03  0.12509000000E+03 0.  0.
         25    1    3    3    0    0 -0.65719428742E+02  0.46735576235E+02  0.17947535962E+03  0.23315696475E+03  0.12509000000E+03 0.  0.
<mgrwt>
<rscale>  2 0.44132720E+03</rscale>
<asrwt>0</asrwt>
<pdfrwt beam="1">  1       21 0.73206514E-01 0.44132720E+03</pdfrwt>
<pdfrwt beam="2">  1       21 0.14384469E-01 0.44132720E+03</pdfrwt>
<totfact> 0.65771859E+04</totfact>
</mgrwt>
</event>
<event>
 5    0  0.1539497E-004  0.4168600E+03  0.7546771E-02  0.1038093E+00
         21   -1    0    0  502  501  0.00000000000E+00  0.00000000000E+00  0.62088703692E+03  0.62088703692E+03  0.00000000000E+00 0. -1.
         21   -1    0    0  501  502 -0.00000000000E+00 -0.00000000000E+00 -0.69969339519E+02  0.69969339519E+02  0.00000000000E+00 0. -1.
         25    1    1    2    0    0  0.15632177089E+02  0.21199486772E+01  0.24098604112E+03  0.27197543870E+03  0.12509000000E+03 0.  0.
         25    1    1    2    0    0 -0.72221951189E+02  0.95888504202E+00  0.15697187225E+03  0.21331808754E+03  0.12509000000E+03 0.  0.
         25    1    1    2    0    0  0.56589774100E+02 -0.30788337193E+01  0.15295978403E+03  0.20556285019E+03  0.12509000000E+03 0.  0.
<mgrwt>
<rscale>  2 0.41685996E+03</rscale>
<asrwt>0</asrwt>
<pdfrwt beam="1">  1       21 0.91306914E-01 0.41685996E+03</pdfrwt>
<pdfrwt beam="2">  1       21 0.10289609E-01 0.41685996E+03</pdfrwt>
<totfact> 0.72961824E+04</totfact>
</mgrwt>
</event>
<event>
 6    0  0.1539497E-004  0.4255454E+03  0.7546771E-02  0.1035276E+00
         21   -1    0    0  502  501  0.00000000000E+00  0.00000000000E+00  0.15259213186E+03  0.15259213186E+03  0.00000000000E+00 0.  1.
         21   -1    0    0  501  502 -0.00000000000E+00 -0.00000000000E+00 -0.29668780664E+03  0.29668780664E+03  0.00000000000E+00 0.  1.
      99925    2    1    2    0    0  0.66297393750E+02 -0.35299876102E+02 -0.56979886602E+02  0.27934437919E+03  0.26295465205E+03 0.  0.
         25    1    3    3    0    0  0.53299238965E+02 -0.53298910314E+02 -0.37824207214E+02  0.15086338677E+03  0.12509000000E+03 0.  0.
         25    1    3    3    0    0  0.12998154784E+02  0.17999034212E+02 -0.19155679388E+02  0.12848099242E+03  0.12509000000E+03 0.  0.
         25    1    1    2    0    0 -0.66297393750E+02  0.35299876102E+02 -0.87115788177E+02  0.16993555932E+03  0.12509000000E+03 0.  0.
<mgrwt>
<rscale>  2 0.42554541E+03</rscale>
<asrwt>0</asrwt>
<pdfrwt beam="1">  1       21 0.22440019E-01 0.42554541E+03</pdfrwt>
<pdfrwt beam="2">  1       21 0.43630560E-01 0.42554541E+03</pdfrwt>
<totfact> 0.87801309E+04</totfact>
</mgrwt>
</event>
<event>
 6    0  0.1539497E-004  0.4241616E+03  0.7546771E-02  0.1035720E+00
         21   -1    0    0  502  501  0.00000000000E+00  0.00000000000E+00  0.43163717219E+02  0.43163717219E+02  0.00000000000E+00 0.  1.
         21   -1    0    0  501  502 -0.00000000000E+00 -0.00000000000E+00 -0.10420387795E+04  0.10420387795E+04  0.00000000000E+00 0.  1.
      99925    2    1    2    0    0 -0.77516040063E+02  0.13735458502E+02 -0.59955940495E+03  0.65941158374E+03  0.26297292145E+03 0.  0.
         25    1    3    3    0    0 -0.31018863178E+02  0.16746832537E+02 -0.20346739960E+03  0.24143139206E+03  0.12509000000E+03 0.  0.
         25    1    1    2    0    0  0.77516040063E+02 -0.13735458502E+02 -0.39931565733E+03  0.42579091298E+03  0.12509000000E+03 0.  0.
         25    1    3    3    0    0 -0.46497176885E+02 -0.30113740346E+01 -0.39609200535E+03  0.41798019168E+03  0.12509000000E+03 0.  0.
<mgrwt>
<rscale>  2 0.42416161E+03</rscale>
<asrwt>0</asrwt>
<pdfrwt beam="1">  1       21 0.63476051E-02 0.42416161E+03</pdfrwt>
<pdfrwt beam="2">  1       21 0.15324101E+00 0.42416161E+03</pdfrwt>
<totfact> 0.46156741E+04</totfact>
</mgrwt>
</event>
<event>
 6    0  0.1539497E-004  0.4706589E+03  0.7546771E-02  0.1021734E+00
         21   -1    0    0  502  501  0.00000000000E+00  0.00000000000E+00  0.32171653939E+03  0.32171653939E+03  0.00000000000E+00 0.  1.
         21   -1    0    0  501  502 -0.00000000000E+00 -0.00000000000E+00 -0.17213896767E+03  0.17213896767E+03  0.00000000000E+00 0.  1.
      99925    2    1    2    0    0 -0.11395128333E+00 -0.33095998810E+02 -0.36128851041E+02  0.26751562617E+03  0.26299041474E+03 0.  0.
         25    1    3    3    0    0  0.27291385925E+02  0.71843244335E+01  0.98280552126E+00  0.12823770222E+03  0.12509000000E+03 0.  0.
         25    1    1    2    0    0  0.11395128333E+00  0.33095998810E+02  0.18570642277E+03  0.22633988088E+03  0.12509000000E+03 0.  0.
         25    1    3    3    0    0 -0.27405337208E+02 -0.40280323244E+02 -0.37111656562E+02  0.13927792395E+03  0.12509000000E+03 0.  0.
<mgrwt>
<rscale>  2 0.47065891E+03</rscale>
<asrwt>0</asrwt>
<pdfrwt beam="1">  1       21 0.47311256E-01 0.47065891E+03</pdfrwt>
<pdfrwt beam="2">  1       21 0.25314554E-01 0.47065891E+03</pdfrwt>
<totfact> 0.58135089E+04</totfact>
</mgrwt>
</event>
<event>
 6    0  0.1539497E-004  0.3892070E+03  0.7546771E-02  0.1047582E+00
         21   -1    0    0  502  501  0.00000000000E+00  0.00000000000E+00  0.42431919240E+02  0.42431919240E+02  0.00000000000E+00 0. -1.
         21   -1    0    0  501  502 -0.00000000000E+00 -0.00000000000E+00 -0.89250101175E+03  0.89250101175E+03  0.00000000000E+00 0. -1.
      99925    2    1    2    0    0 -0.22724980282E+01 -0.12353977997E+02 -0.55815178060E+03  0.61709490602E+03  0.26289718111E+03 0.  0.
         25    1    3    3    0    0  0.18202511772E+02  0.29303012160E+02 -0.27207683547E+03  0.30143541672E+03  0.12509000000E+03 0.  0.
         25    1    3    3    0    0 -0.20475009800E+02 -0.41656990157E+02 -0.28607494513E+03  0.31565948930E+03  0.12509000000E+03 0.  0.
         25    1    1    2    0    0  0.22724980282E+01  0.12353977997E+02 -0.29191731192E+03  0.31783802497E+03  0.12509000000E+03 0.  0.
<mgrwt>
<rscale>  2 0.38920704E+03</rscale>
<asrwt>0</asrwt>
<pdfrwt beam="1">  1       21 0.62399883E-02 0.38920704E+03</pdfrwt>
<pdfrwt beam="2">  1       21 0.13125015E+00 0.38920704E+03</pdfrwt>
<totfact> 0.72467034E+04</totfact>
</mgrwt>
</event>
<event>
 6    0  0.1539497E-004  0.4193965E+03  0.7546771E-02  0.1037263E+00
         21   -1    0    0  502  501  0.00000000000E+00  0.00000000000E+00  0.17398604051E+03  0.17398604051E+03  0.00000000000E+00 0.  1.
         21   -1    0    0  501  502 -0.00000000000E+00 -0.00000000000E+00 -0.25274069718E+03  0.25274069718E+03  0.00000000000E+00 0.  1.
      99925    2    1    2    0    0  0.28088315739E+02  0.67142311564E+02 -0.33340566989E+02  0.27504618150E+03  0.26313830027E+03 0.  0.
         25    1    3    3    0    0  0.38771603833E+02  0.59941034655E+02  0.33023485546E+01  0.14406449426E+03  0.12509000000E+03 0.  0.
         25    1    1    2    0    0 -0.28088315739E+02 -0.67142311564E+02 -0.45414089681E+02  0.15168055619E+03  0.12509000000E+03 0.  0.
         25    1    3    3    0    0 -0.10683288093E+02  0.72012769089E+01 -0.36642915544E+02  0.13098168724E+03  0.12509000000E+03 0.  0.
<mgrwt>
<rscale>  2 0.41939649E+03</rscale>
<asrwt>0</asrwt>
<pdfrwt beam="1">  1       21 0.25586183E-01 0.41939649E+03</pdfrwt>
<pdfrwt beam="2">  1       21 0.37167749E-01 0.41939649E+03</pdfrwt>
<totfact> 0.94877714E+04</totfact>
</mgrwt>
</event>
<event>
 6    0  0.1539497E-004  0.4231883E+03  0.7546771E-02  0.1036034E+00
         21   -1    0    0  502  501  0.00000000000E+00  0.00000000000E+00  0.58810640768E+03  0.58810640768E+03  0.00000000000E+00 0. -1.
         21   -1    0    0  501  502 -0.00000000000E+00 -0.00000000000E+00 -0.76129238810E+02  0.76129238810E+02  0.00000000000E+00 0. -1.
      99925    2    1    2    0    0 -0.39978135427E+02 -0.68888533364E+02  0.32816535457E+03  0.42806161634E+03  0.26305962462E+03 0.  0.
         25    1    3    3    0    0 -0.25940587172E+02 -0.57492516199E+02  0.11965866034E+03  0.18423899309E+03  0.12509000000E+03 0.  0.
         25    1    1    2    0    0  0.39978135427E+02  0.68888533364E+02  0.18381181430E+03  0.23617403015E+03  0.12509000000E+03 0.  0.
         25    1    3    3    0    0 -0.14037548255E+02 -0.11396017165E+02  0.20850669423E+03  0.24382262325E+03  0.12509000000E+03 0.  0.
<mgrwt>
<rscale>  2 0.42318834E+03</rscale>
<asrwt>0</asrwt>
<pdfrwt beam="1">  1       21 0.86486234E-01 0.42318834E+03</pdfrwt>
<pdfrwt beam="2">  1       21 0.11195477E-01 0.42318834E+03</pdfrwt>
<totfact> 0.71100998E+04</totfact>
</mgrwt>
</event>
<event>
 6    0  0.1539497E-004  0.4409621E+03  0.7546771E-02  0.1030452E+00
         21   -1    0    0  502  501  0.00000000000E+00  0.00000000000E+00  0.19827122876E+03  0.19827122876E+03  0.00000000000E+00 0.  1.
         21   -1    0    0  501  502 -0.00000000000E+00 -0.00000000000E+00 -0.24517877023E+03  0.24517877023E+03  0.00000000000E+00 0.  1.
      99925    2    1    2    0    0 -0.79759132054E+02  0.34693565490E+02 -0.78420904702E+02  0.28786798591E+03  0.26296953509E+03 0.  0.
         25    1    3    3    0    0 -0.31323242431E+02  0.16841304178E+02 -0.79723602903E+02  0.15253896552E+03  0.12509000000E+03 0.  0.
         25    1    1    2    0    0  0.79759132054E+02 -0.34693565490E+02  0.31513363230E+02  0.15558201308E+03  0.12509000000E+03 0.  0.
         25    1    3    3    0    0 -0.48435889623E+02  0.17852261312E+02  0.13026982010E+01  0.13532902039E+03  0.12509000000E+03 0.  0.
<mgrwt>
<rscale>  2 0.44096211E+03</rscale>
<asrwt>0</asrwt>
<pdfrwt beam="1">  1       21 0.29157534E-01 0.44096211E+03</pdfrwt>
<pdfrwt beam="2">  1       21 0.36055701E-01 0.44096211E+03</pdfrwt>
<totfact> 0.77750307E+04</totfact>
</mgrwt>
</event>
<event>
 6    0  0.1539497E-004  0.4247886E+03  0.7546771E-02  0.1035519E+00
         21   -1    0    0  502  501  0.00000000000E+00  0.00000000000E+00  0.10379725790E+03  0.10379725790E+03  0.00000000000E+00 0.  1.
         21   -1    0    0  501  502 -0.00000000000E+00 -0.00000000000E+00 -0.43461002223E+03  0.43461002223E+03  0.00000000000E+00 0.  1.
      99925    2    1    2    0    0 -0.67655210824E+02  0.45353620727E+02 -0.20388661031E+03  0.34246867970E+03  0.26283239574E+03 0.  0.
         25    1    3    3    0    0 -0.57488355284E+02  0.36085162705E+02 -0.69580082850E+02  0.15841700032E+03  0.12509000000E+03 0.  0.
         25    1    3    3    0    0 -0.10166855540E+02  0.92684580220E+01 -0.13430652746E+03  0.18405167939E+03  0.12509000000E+03 0.  0.
         25    1    1    2    0    0  0.67655210824E+02 -0.45353620727E+02 -0.12692615401E+03  0.19593860042E+03  0.12509000000E+03 0.  0.
<mgrwt>
<rscale>  2 0.42478855E+03</rscale>
<asrwt>0</asrwt>
<pdfrwt beam="1">  1       21 0.15264303E-01 0.42478855E+03</pdfrwt>
<pdfrwt beam="2">  1       21 0.63913237E-01 0.42478855E+03</pdfrwt>
<totfact> 0.80152116E+04</totfact>
</mgrwt>
</event>
<event>
 6    0  0.1539497E-004  0.4404907E+03  0.7546771E-02  0.1030596E+00
         21   -1    0    0  502  501  0.00000000000E+00  0.00000000000E+00  0.10928255117E+04  0.10928255117E+04  0.00000000000E+00 0.  1.
         21   -1    0    0  501  502 -0.00000000000E+00 -0.00000000000E+00 -0.44387705326E+02  0.44387705326E+02  0.00000000000E+00 0.  1.
      99925    2    1    2    0    0  0.89386687416E+02 -0.31642064399E+02  0.59683458240E+03  0.65910843758E+03  0.26309924670E+03 0.  0.
         25    1    1    2    0    0 -0.89386687416E+02  0.31642064399E+02  0.45160322401E+03  0.47810477948E+03  0.12509000000E+03 0.  0.
         25    1    3    3    0    0  0.17491374864E+02  0.14169953585E+02  0.30284845513E+03  0.32843786422E+03  0.12509000000E+03 0.  0.
         25    1    3    3    0    0  0.71895312551E+02 -0.45812017984E+02  0.29398612727E+03  0.33067057336E+03  0.12509000000E+03 0.  0.
<mgrwt>
<rscale>  2 0.44049071E+03</rscale>
<asrwt>0</asrwt>
<pdfrwt beam="1">  1       21 0.16070962E+00 0.44049071E+03</pdfrwt>
<pdfrwt beam="2">  1       21 0.65276044E-02 0.44049071E+03</pdfrwt>
<totfact> 0.38371593E+04</totfact>
</mgrwt>
</event>
<event>
 6    0  0.1539497E-004  0.4268821E+03  0.7546771E-02  0.1034849E+00
         21   -1    0    0  502  501  0.00000000000E+00  0.00000000000E+00  0.22122509037E+03  0.22122509037E+03  0.00000000000E+00 0. -1.
         21   -1    0    0  501  502 -0.00000000000E+00 -0.00000000000E+00 -0.20593092130E+03  0.20593092130E+03  0.00000000000E+00 0. -1.
      99925    2    1    2    0    0  0.70034396875E+02 -0.44730498414E+02 -0.17263784096E+01  0.27601752759E+03  0.26320535883E+03 0.  0.
         25    1    3    3    0    0 -0.70374055678E+01 -0.18198816662E+02 -0.46054482518E+01  0.12668638545E+03  0.12509000000E+03 0.  0.
         25    1    1    2    0    0 -0.70034396875E+02  0.44730498414E+02  0.17020547488E+02  0.15113848408E+03  0.12509000000E+03 0.  0.
         25    1    3    3    0    0  0.77071802443E+02 -0.26531681752E+02  0.28790698422E+01  0.14933114214E+03  0.12509000000E+03 0.  0.
<mgrwt>
<rscale>  2 0.42688212E+03</rscale>
<asrwt>0</asrwt>
<pdfrwt beam="1">  1       21 0.32533102E-01 0.42688212E+03</pdfrwt>
<pdfrwt beam="2">  1       21 0.30283959E-01 0.42688212E+03</pdfrwt>
<totfact> 0.88985839E+04</totfact>
</mgrwt>
</event>
<event>
 6    0  0.1539497E-004  0.4265270E+03  0.7546771E-02  0.1034963E+00
         21   -1    0    0  502  501  0.00000000000E+00  0.00000000000E+00  0.69971749313E+02  0.69971749313E+02  0.00000000000E+00 0.  1.
         21   -1    0    0  501  502 -0.00000000000E+00 -0.00000000000E+00 -0.64999552395E+03  0.64999552395E+03  0.00000000000E+00 0.  1.
      99925    2    1    2    0    0 -0.66441838990E+02 -0.48693430365E+02 -0.34999648159E+03  0.44547568546E+03  0.26299330995E+03 0.  0.
         25    1    1    2    0    0  0.66441838990E+02  0.48693430365E+02 -0.23002729304E+03  0.27449158780E+03  0.12509000000E+03 0.  0.
         25    1    3    3    0    0 -0.96577557218E+01 -0.56559564478E+02 -0.18655239520E+03  0.23182226130E+03  0.12509000000E+03 0.  0.
         25    1    3    3    0    0 -0.56784083268E+02  0.78661341124E+01 -0.16344408639E+03  0.21365342416E+03  0.12509000000E+03 0.  0.
<mgrwt>
<rscale>  2 0.42652702E+03</rscale>
<asrwt>0</asrwt>
<pdfrwt beam="1">  1       21 0.10289963E-01 0.42652702E+03</pdfrwt>
<pdfrwt beam="2">  1       21 0.95587581E-01 0.42652702E+03</pdfrwt>
<totfact> 0.65266311E+04</totfact>
</mgrwt>
</event>
<event>
 6    0  0.1539497E-004  0.4080812E+03  0.7546771E-02  0.1041017E+00
         21   -1    0    0  502  501  0.00000000000E+00  0.00000000000E+00  0.41400988394E+02  0.41400988394E+02  0.00000000000E+00 0.  1.
         21   -1    0    0  501  502 -0.00000000000E+00 -0.00000000000E+00 -0.10055933806E+04  0.10055933806E+04  0.00000000000E+00 0.  1.
      99925    2    1    2    0    0 -0.47577466245E+02  0.20894482767E+02 -0.71107862432E+03  0.75991549081E+03  0.26294210106E+03 0.  0.
         25    1    3    3    0    0 -0.58280835196E+02  0.32898467160E+02 -0.36986894995E+03  0.39614329873E+03  0.12509000000E+03 0.  0.
         25    1    3    3    0    0  0.10703368951E+02 -0.12003984393E+02 -0.34120967438E+03  0.36377219209E+03  0.12509000000E+03 0.  0.
         25    1    1    2    0    0  0.47577466245E+02 -0.20894482767E+02 -0.25311376788E+03  0.28707887818E+03  0.12509000000E+03 0.  0.
<mgrwt>
<rscale>  2 0.40808117E+03</rscale>
<asrwt>0</asrwt>
<pdfrwt beam="1">  1       21 0.60883806E-02 0.40808117E+03</pdfrwt>
<pdfrwt beam="2">  1       21 0.14788138E+00 0.40808117E+03</pdfrwt>
<totfact> 0.54904286E+04</totfact>
</mgrwt>
</event>
<event>
 6    0  0.1539497E-004  0.3995087E+03  0.7546771E-02  0.1043950E+00
         21   -1    0    0  502  501  0.00000000000E+00  0.00000000000E+00  0.62804366786E+02  0.62804366786E+02  0.00000000000E+00 0. -1.
         21   -1    0    0  501  502 -0.00000000000E+00 -0.00000000000E+00 -0.63533476684E+03  0.63533476684E+03  0.00000000000E+00 0. -1.
      99925    2    1    2    0    0 -0.35223736604E+02 -0.89591993013E+01 -0.33772383655E+03  0.42961984338E+03  0.26304912312E+03 0.  0.
         25    1    3    3    0    0 -0.40041644837E+02 -0.35308766828E+02 -0.15031282718E+03  0.20271037578E+03  0.12509000000E+03 0.  0.
         25    1    1    2    0    0  0.35223736604E+02  0.89591993013E+01 -0.23480656350E+03  0.26851929025E+03  0.12509000000E+03 0.  0.
         25    1    3    3    0    0  0.48179082327E+01  0.26349567527E+02 -0.18741100937E+03  0.22690946759E+03  0.12509000000E+03 0.  0.
<mgrwt>
<rscale>  2 0.39950869E+03</rscale>
<asrwt>0</asrwt>
<pdfrwt beam="1">  1       21 0.92359361E-02 0.39950869E+03</pdfrwt>
<pdfrwt beam="2">  1       21 0.93431585E-01 0.39950869E+03</pdfrwt>
<totfact> 0.84173583E+04</totfact>
</mgrwt>
</event>
<event>
 6    0  0.1539497E-004  0.3931442E+03  0.7546771E-02  0.1046180E+00
         21   -1    0    0  502  501  0.00000000000E+00  0.00000000000E+00  0.93299164287E+02  0.93299164287E+02  0.00000000000E+00 0. -1.
         21   -1    0    0  501  502 -0.00000000000E+00 -0.00000000000E+00 -0.41415785260E+03  0.41415785260E+03  0.00000000000E+00 0. -1.
      99925    2    1    2    0    0  0.32382284726E+01  0.32257217698E+01 -0.17856571546E+03  0.31794266485E+03  0.26302268341E+03 0.  0.
         25    1    3    3    0    0  0.30942385718E+01 -0.17685040957E+02 -0.46008848258E+02  0.13448664322E+03  0.12509000000E+03 0.  0.
         25    1    1    2    0    0 -0.32382284726E+01 -0.32257217698E+01 -0.14229297286E+03  0.18951435204E+03  0.12509000000E+03 0.  0.
         25    1    3    3    0    0  0.14398990079E+00  0.20910762727E+02 -0.13255686720E+03  0.18345602163E+03  0.12509000000E+03 0.  0.
<mgrwt>
<rscale>  2 0.39314415E+03</rscale>
<asrwt>0</asrwt>
<pdfrwt beam="1">  1       21 0.13720465E-01 0.39314415E+03</pdfrwt>
<pdfrwt beam="2">  1       21 0.60905566E-01 0.39314415E+03</pdfrwt>
<totfact> 0.10923761E+05</totfact>
</mgrwt>
</event>
<event>
 6    0  0.1539497E-004  0.3974266E+03  0.7546771E-02  0.1044674E+00
         21   -1    0    0  502  501  0.00000000000E+00  0.00000000000E+00  0.12245126665E+03  0.12245126665E+03  0.00000000000E+00 0. -1.
         21   -1    0    0  501  502 -0.00000000000E+00 -0.00000000000E+00 -0.32247097332E+03  0.32247097332E+03  0.00000000000E+00 0. -1.
      99925    2    1    2    0    0 -0.30389463163E+02  0.18888743179E+01 -0.16276480417E+03  0.31089790197E+03  0.26313121566E+03 0.  0.
         25    1    3    3    0    0 -0.17851499322E+02  0.30223812630E+02 -0.48543822945E+02  0.13869450502E+03  0.12509000000E+03 0.  0.
         25    1    1    2    0    0  0.30389463163E+02 -0.18888743179E+01 -0.37254902493E+02  0.13402433800E+03  0.12509000000E+03 0.  0.
         25    1    3    3    0    0 -0.12537963841E+02 -0.28334938312E+02 -0.11422098122E+03  0.17220339694E+03  0.12509000000E+03 0.  0.
<mgrwt>
<rscale>  2 0.39742662E+03</rscale>
<asrwt>0</asrwt>
<pdfrwt beam="1">  1       21 0.18007539E-01 0.39742662E+03</pdfrwt>
<pdfrwt beam="2">  1       21 0.47422201E-01 0.39742662E+03</pdfrwt>
<totfact> 0.11268003E+05</totfact>
</mgrwt>
</event>
<event>
 6    0  0.1539497E-004  0.3974733E+03  0.7546771E-02  0.1044658E+00
         21   -1    0    0  502  501  0.00000000000E+00  0.00000000000E+00  0.15756683537E+03  0.15756683537E+03  0.00000000000E+00 0.  1.
         21   -1    0    0  501  502 -0.00000000000E+00 -0.00000000000E+00 -0.25066347685E+03  0.25066347685E+03  0.00000000000E+00 0.  1.
      99925    2    1    2    0    0 -0.22496572858E+02  0.69839504153E+01 -0.95796023270E+02  0.28091312518E+03  0.26302173764E+03 0.  0.
         25    1    1    2    0    0  0.22496572858E+02 -0.69839504153E+01  0.26993817863E+01  0.12731718704E+03  0.12509000000E+03 0.  0.
         25    1    3    3    0    0 -0.28029836024E+02  0.40474243968E+02 -0.46620391054E+02  0.14228424050E+03  0.12509000000E+03 0.  0.
         25    1    3    3    0    0  0.55332631661E+01 -0.33490293552E+02 -0.49175632216E+02  0.13862888468E+03  0.12509000000E+03 0.  0.
<mgrwt>
<rscale>  2 0.39747327E+03</rscale>
<asrwt>0</asrwt>
<pdfrwt beam="1">  1       21 0.23171594E-01 0.39747327E+03</pdfrwt>
<pdfrwt beam="2">  1       21 0.36862275E-01 0.39747327E+03</pdfrwt>
<totfact> 0.11741536E+05</totfact>
</mgrwt>
</event>
<event>
 6    0  0.1539497E-004  0.4166920E+03  0.7546771E-02  0.1038148E+00
         21   -1    0    0  502  501  0.00000000000E+00  0.00000000000E+00  0.58820433930E+03  0.58820433930E+03  0.00000000000E+00 0.  1.
         21   -1    0    0  501  502 -0.00000000000E+00 -0.00000000000E+00 -0.73797578168E+02  0.73797578168E+02  0.00000000000E+00 0.  1.
      99925    2    1    2    0    0 -0.57393650314E+02  0.22536156316E+02  0.27896559968E+03  0.38835623773E+03  0.26305294550E+03 0.  0.
         25    1    3    3    0    0 -0.53618441979E+02  0.39320614824E+02  0.12238786924E+03  0.18720936597E+03  0.12509000000E+03 0.  0.
         25    1    1    2    0    0  0.57393650314E+02 -0.22536156316E+02  0.23544116145E+03  0.27364567974E+03  0.12509000000E+03 0.  0.
         25    1    3    3    0    0 -0.37752083347E+01 -0.16784458508E+02  0.15657773044E+03  0.20114687175E+03  0.12509000000E+03 0.  0.
<mgrwt>
<rscale>  2 0.41669200E+03</rscale>
<asrwt>0</asrwt>
<pdfrwt beam="1">  1       21 0.86500635E-01 0.41669200E+03</pdfrwt>
<pdfrwt beam="2">  1       21 0.10852585E-01 0.41669200E+03</pdfrwt>
<totfact> 0.75294443E+04</totfact>
</mgrwt>
</event>
<event>
 6    0  0.1539497E-004  0.4439230E+03  0.7546771E-02  0.1029550E+00
         21   -1    0    0  502  501  0.00000000000E+00  0.00000000000E+00  0.35799784610E+02  0.35799784610E+02  0.00000000000E+00 0. -1.
         21   -1    0    0  501  502 -0.00000000000E+00 -0.00000000000E+00 -0.13761786476E+04  0.13761786476E+04  0.00000000000E+00 0. -1.
      99925    2    1    2    0    0  0.52778378614E+02  0.47868289441E+02 -0.61815022025E+03  0.67554197815E+03  0.26300254572E+03 0.  0.
         25    1    1    2    0    0 -0.52778378614E+02 -0.47868289441E+02 -0.72222864274E+03  0.73643645407E+03  0.12509000000E+03 0.  0.
         25    1    3    3    0    0  0.14981018108E+02  0.17892851448E+02 -0.39732526891E+03  0.41720434136E+03  0.12509000000E+03 0.  0.
         25    1    3    3    0    0  0.37797360506E+02  0.29975437993E+02 -0.22082495134E+03  0.25833763679E+03  0.12509000000E+03 0.  0.
<mgrwt>
<rscale>  2 0.44392296E+03</rscale>
<asrwt>0</asrwt>
<pdfrwt beam="1">  1       21 0.52646741E-02 0.44392296E+03</pdfrwt>
<pdfrwt beam="2">  1       21 0.20237922E+00 0.44392296E+03</pdfrwt>
<totfact> 0.28379973E+04</totfact>
</mgrwt>
</event>
<event>
 6    0  0.1539497E-004  0.4048752E+03  0.7546771E-02  0.1042105E+00
         21   -1    0    0  502  501  0.00000000000E+00  0.00000000000E+00  0.86833724806E+03  0.86833724806E+03  0.00000000000E+00 0.  1.
         21   -1    0    0  501  502 -0.00000000000E+00 -0.00000000000E+00 -0.47194784692E+02  0.47194784692E+02  0.00000000000E+00 0.  1.
      99925    2    1    2    0    0 -0.27735735043E+02  0.23811633112E+02  0.63616437925E+03  0.68925639426E+03  0.26274130763E+03 0.  0.
         25    1    1    2    0    0  0.27735735043E+02 -0.23811633112E+02  0.18497808412E+03  0.22627563849E+03  0.12509000000E+03 0.  0.
         25    1    3    3    0    0 -0.29217840056E+02 -0.69109802262E+01  0.40090636689E+03  0.42104022010E+03  0.12509000000E+03 0.  0.
         25    1    3    3    0    0  0.14821050136E+01  0.30722613338E+02  0.23525801236E+03  0.26821617416E+03  0.12509000000E+03 0.  0.
<mgrwt>
<rscale>  2 0.40487524E+03</rscale>
<asrwt>0</asrwt>
<pdfrwt beam="1">  1       21 0.12769664E+00 0.40487524E+03</pdfrwt>
<pdfrwt beam="2">  1       21 0.69404101E-02 0.40487524E+03</pdfrwt>
<totfact> 0.64327929E+04</totfact>
</mgrwt>
</event>
<event>
 6    0  0.1539497E-004  0.4411063E+03  0.7546771E-02  0.1030408E+00
         21   -1    0    0  502  501  0.00000000000E+00  0.00000000000E+00  0.83213821086E+03  0.83213821086E+03  0.00000000000E+00 0. -1.
         21   -1    0    0  501  502 -0.00000000000E+00 -0.00000000000E+00 -0.58456264088E+02  0.58456264088E+02  0.00000000000E+00 0. -1.
      99925    2    1    2    0    0  0.29776341414E+02  0.70604686983E+02  0.36488681153E+03  0.45627590175E+03  0.26300886098E+03 0.  0.
         25    1    3    3    0    0 -0.19729634235E+02  0.55715265786E+02  0.19401764371E+03  0.23829352379E+03  0.12509000000E+03 0.  0.
         25    1    3    3    0    0  0.49505975648E+02  0.14889421197E+02  0.17086916782E+03  0.21798237796E+03  0.12509000000E+03 0.  0.
         25    1    1    2    0    0 -0.29776341414E+02 -0.70604686983E+02  0.40879513524E+03  0.43431857320E+03  0.12509000000E+03 0.  0.
<mgrwt>
<rscale>  2 0.44110630E+03</rscale>
<asrwt>0</asrwt>
<pdfrwt beam="1">  1       21 0.12237326E+00 0.44110630E+03</pdfrwt>
<pdfrwt beam="2">  1       21 0.85965099E-02 0.44110630E+03</pdfrwt>
<totfact> 0.48730496E+04</totfact>
</mgrwt>
</event>
<event>
 6    0  0.1539497E-004  0.4548965E+03  0.7546771E-02  0.1026272E+00
         21   -1    0    0  502  501  0.00000000000E+00  0.00000000000E+00  0.59367175222E+03  0.59367175222E+03  0.00000000000E+00 0. -1.
         21   -1    0    0  501  502 -0.00000000000E+00 -0.00000000000E+00 -0.87140262994E+02  0.87140262994E+02  0.00000000000E+00 0. -1.
      99925    2    1    2    0    0  0.45144162387E+02 -0.10301288443E+03  0.33689108481E+03  0.44190821728E+03  0.26294033490E+03 0.  0.
         25    1    3    3    0    0  0.61254685738E+02 -0.42070881334E+02  0.18348932578E+03  0.23417501224E+03  0.12509000000E+03 0.  0.
         25    1    1    2    0    0 -0.45144162387E+02  0.10301288443E+03  0.16964040441E+03  0.23890379793E+03  0.12509000000E+03 0.  0.
         25    1    3    3    0    0 -0.16110523352E+02 -0.60942003097E+02  0.15340175903E+03  0.20773320505E+03  0.12509000000E+03 0.  0.
<mgrwt>
<rscale>  2 0.45489653E+03</rscale>
<asrwt>0</asrwt>
<pdfrwt beam="1">  1       21 0.87304668E-01 0.45489653E+03</pdfrwt>
<pdfrwt beam="2">  1       21 0.12814745E-01 0.45489653E+03</pdfrwt>
<totfact> 0.54001545E+04</totfact>
</mgrwt>
</event>
<event>
 6    0  0.1539497E-004  0.4110546E+03  0.7546771E-02  0.1040018E+00
         21   -1    0    0  502  501  0.00000000000E+00  0.00000000000E+00  0.25247689165E+03  0.25247689165E+03  0.00000000000E+00 0.  1.
         21   -1    0    0  501  502 -0.00000000000E+00 -0.00000000000E+00 -0.16730825878E+03  0.16730825878E+03  0.00000000000E+00 0.  1.
      99925    2    1    2    0    0 -0.47427825636E+02 -0.30477096396E+02  0.25688379792E+02  0.27024030547E+03  0.26304311014E+03 0.  0.
         25    1    3    3    0    0 -0.42888781964E+02  0.20499277457E+02  0.10321784429E+02  0.13421518293E+03  0.12509000000E+03 0.  0.
         25    1    1    2    0    0  0.47427825636E+02  0.30477096396E+02  0.59480253080E+02  0.14954484497E+03  0.12509000000E+03 0.  0.
         25    1    3    3    0    0 -0.45390436718E+01 -0.50976373853E+02  0.15366595363E+02  0.13602512254E+03  0.12509000000E+03 0.  0.
<mgrwt>
<rscale>  2 0.41105459E+03</rscale>
<asrwt>0</asrwt>
<pdfrwt beam="1">  1       21 0.37128955E-01 0.41105459E+03</pdfrwt>
<pdfrwt beam="2">  1       21 0.24604156E-01 0.41105459E+03</pdfrwt>
<totfact> 0.10276371E+05</totfact>
</mgrwt>
</event>
<event>
 6    0  0.1539497E-004  0.4120833E+03  0.7546771E-02  0.1039674E+00
         21   -1    0    0  502  501  0.00000000000E+00  0.00000000000E+00  0.90829148411E+02  0.90829148411E+02  0.00000000000E+00 0. -1.
         21   -1    0    0  501  502 -0.00000000000E+00 -0.00000000000E+00 -0.46739569505E+03  0.46739569505E+03  0.00000000000E+00 0. -1.
      99925    2    1    2    0    0 -0.50537576822E+02 -0.14872733397E+02 -0.29948300255E+03  0.40213312126E+03  0.26314584080E+03 0.  0.
         25    1    3    3    0    0 -0.25769803857E+02  0.24232075242E+02 -0.18648712208E+03  0.22732406618E+03  0.12509000000E+03 0.  0.
         25    1    3    3    0    0 -0.24767772965E+02 -0.39104808639E+02 -0.11299588047E+03  0.17480905508E+03  0.12509000000E+03 0.  0.
         25    1    1    2    0    0  0.50537576822E+02  0.14872733397E+02 -0.77083544086E+02  0.15609172220E+03  0.12509000000E+03 0.  0.
<mgrwt>
<rscale>  2 0.41208326E+03</rscale>
<asrwt>0</asrwt>
<pdfrwt beam="1">  1       21 0.13357227E-01 0.41208326E+03</pdfrwt>
<pdfrwt beam="2">  1       21 0.68734663E-01 0.41208326E+03</pdfrwt>
<totfact> 0.87438566E+04</totfact>
</mgrwt>
</event>
<event>
 6    0  0.1539497E-004  0.4237289E+03  0.7546771E-02  0.1035859E+00
         21   -1    0    0  502  501  0.00000000000E+00  0.00000000000E+00  0.23036989812E+03  0.23036989812E+03  0.00000000000E+00 0. -1.
         21   -1    0    0  501  502 -0.00000000000E+00 -0.00000000000E+00 -0.19484554997E+03  0.19484554997E+03  0.00000000000E+00 0. -1.
      99925    2    1    2    0    0 -0.45030950842E+02 -0.64256768245E+02  0.40622184922E+02  0.27746493256E+03  0.26302073700E+03 0.  0.
         25    1    1    2    0    0  0.45030950842E+02  0.64256768245E+02 -0.50978367720E+01  0.14775051553E+03  0.12509000000E+03 0.  0.
         25    1    3    3    0    0 -0.37008438839E+02  0.63148198549E+01  0.17468316917E+02  0.13176551784E+03  0.12509000000E+03 0.  0.
         25    1    3    3    0    0 -0.80225120025E+01 -0.70571588100E+02  0.23153868005E+02  0.14569941472E+03  0.12509000000E+03 0.  0.
<mgrwt>
<rscale>  2 0.42372892E+03</rscale>
<asrwt>0</asrwt>
<pdfrwt beam="1">  1       21 0.33877926E-01 0.42372892E+03</pdfrwt>
<pdfrwt beam="2">  1       21 0.28653757E-01 0.42372892E+03</pdfrwt>
<totfact> 0.91591751E+04</totfact>
</mgrwt>
</event>
<event>
 6    0  0.1539497E-004  0.4268012E+03  0.7546771E-02  0.1034875E+00
         21   -1    0    0  502  501  0.00000000000E+00  0.00000000000E+00  0.15727770450E+03  0.15727770450E+03  0.00000000000E+00 0. -1.
         21   -1    0    0  501  502 -0.00000000000E+00 -0.00000000000E+00 -0.28955029319E+03  0.28955029319E+03  0.00000000000E+00 0. -1.
      99925    2    1    2    0    0 -0.74253722903E+02  0.19578209145E+02 -0.51060244175E+02  0.27907855763E+03  0.26340229907E+03 0.  0.
         25    1    3    3    0    0 -0.76885543392E+02 -0.44756384367E+00 -0.38196701334E+02  0.15171711568E+03  0.12509000000E+03 0.  0.
         25    1    3    3    0    0  0.26318204897E+01  0.20025772988E+02 -0.12863542841E+02  0.12736144196E+03  0.12509000000E+03 0.  0.
         25    1    1    2    0    0  0.74253722903E+02 -0.19578209145E+02 -0.81212344508E+02  0.16774944005E+03  0.12509000000E+03 0.  0.
<mgrwt>
<rscale>  2 0.42680115E+03</rscale>
<asrwt>0</asrwt>
<pdfrwt beam="1">  1       21 0.23129074E-01 0.42680115E+03</pdfrwt>
<pdfrwt beam="2">  1       21 0.42580925E-01 0.42680115E+03</pdfrwt>
<totfact> 0.87115412E+04</totfact>
</mgrwt>
</event>
<event>
 6    0  0.1539497E-004  0.3982112E+03  0.7546771E-02  0.1044401E+00
         21   -1    0    0  502  501  0.00000000000E+00  0.00000000000E+00  0.32012846835E+03  0.32012846835E+03  0.00000000000E+00 0.  1.
         21   -1    0    0  501  502 -0.00000000000E+00 -0.00000000000E+00 -0.12383478237E+03  0.12383478237E+03  0.00000000000E+00 0.  1.
      99925    2    1    2    0    0  0.28992953705E+02 -0.13521029523E+02  0.16142051912E+03  0.31022075384E+03  0.26297703800E+03 0.  0.
         25    1    3    3    0    0  0.35190385357E+02 -0.21413406014E+02  0.11972188540E+03  0.17798240116E+03  0.12509000000E+03 0.  0.
         25    1    1    2    0    0 -0.28992953705E+02  0.13521029523E+02  0.34873166860E+02  0.13374249688E+03  0.12509000000E+03 0.  0.
         25    1    3    3    0    0 -0.61974316515E+01  0.78923764907E+01  0.41698633726E+02  0.13223835268E+03  0.12509000000E+03 0.  0.
<mgrwt>
<rscale>  2 0.39821120E+03</rscale>
<asrwt>0</asrwt>
<pdfrwt beam="1">  1       21 0.47077716E-01 0.39821120E+03</pdfrwt>
<pdfrwt beam="2">  1       21 0.18210997E-01 0.39821120E+03</pdfrwt>
<totfact> 0.11201233E+05</totfact>
</mgrwt>
</event>
<event>
 6    0  0.1539497E-004  0.3962058E+03  0.7546771E-02  0.1045101E+00
         21   -1    0    0  502  501  0.00000000000E+00  0.00000000000E+00  0.24761066678E+03  0.24761066678E+03  0.00000000000E+00 0.  1.
         21   -1    0    0  501  502 -0.00000000000E+00 -0.00000000000E+00 -0.15849378729E+03  0.15849378729E+03  0.00000000000E+00 0.  1.
      99925    2    1    2    0    0  0.12340662833E+02 -0.35027139342E+02  0.55073340126E+02  0.27125022491E+03  0.26299129124E+03 0.  0.
         25    1    3    3    0    0 -0.30177512975E+02 -0.31896597616E+02  0.16599217052E+02  0.13360807362E+03  0.12509000000E+03 0.  0.
         25    1    1    2    0    0 -0.12340662833E+02  0.35027139342E+02  0.34043539367E+02  0.13485422916E+03  0.12509000000E+03 0.  0.
         25    1    3    3    0    0  0.42518175807E+02 -0.31305417255E+01  0.38474123074E+02  0.13764215129E+03  0.12509000000E+03 0.  0.
<mgrwt>
<rscale>  2 0.39620577E+03</rscale>
<asrwt>0</asrwt>
<pdfrwt beam="1">  1       21 0.36413333E-01 0.39620577E+03</pdfrwt>
<pdfrwt beam="2">  1       21 0.23307910E-01 0.39620577E+03</pdfrwt>
<totfact> 0.11905010E+05</totfact>
</mgrwt>
</event>
<event>
 6    0  0.1539497E-004  0.4273830E+03  0.7546771E-02  0.1034690E+00
         21   -1    0    0  502  501  0.00000000000E+00  0.00000000000E+00  0.25631038896E+03  0.25631038896E+03  0.00000000000E+00 0.  1.
         21   -1    0    0  501  502 -0.00000000000E+00 -0.00000000000E+00 -0.17815918209E+03  0.17815918209E+03  0.00000000000E+00 0.  1.
      99925    2    1    2    0    0  0.56851773545E+02 -0.59260574604E+02  0.24524471315E+02  0.27551273815E+03  0.26184323427E+03 0.  0.
         25    1    3    3    0    0  0.51696757313E+02 -0.29500818536E+02 -0.18648963692E+02  0.13977891457E+03  0.12509000000E+03 0.  0.
         25    1    3    3    0    0  0.51550162326E+01 -0.29759756068E+02  0.43173435007E+02  0.13573382358E+03  0.12509000000E+03 0.  0.
         25    1    1    2    0    0 -0.56851773545E+02  0.59260574604E+02  0.53626735557E+02  0.15895683290E+03  0.12509000000E+03 0.  0.
<mgrwt>
<rscale>  2 0.42738296E+03</rscale>
<asrwt>0</asrwt>
<pdfrwt beam="1">  1       21 0.37692705E-01 0.42738296E+03</pdfrwt>
<pdfrwt beam="2">  1       21 0.26199879E-01 0.42738296E+03</pdfrwt>
<totfact> 0.87898115E+04</totfact>
</mgrwt>
</event>
<event>
 6    0  0.1539497E-004  0.4567030E+03  0.7546771E-02  0.1025742E+00
         21   -1    0    0  502  501  0.00000000000E+00  0.00000000000E+00  0.41276675601E+02  0.41276675601E+02  0.00000000000E+00 0.  1.
         21   -1    0    0  501  502 -0.00000000000E+00 -0.00000000000E+00 -0.12632896943E+04  0.12632896943E+04  0.00000000000E+00 0.  1.
      99925    2    1    2    0    0 -0.57604256056E+02  0.95143627682E+02 -0.69886485192E+03  0.75529223733E+03  0.26397674579E+03 0.  0.
         25    1    3    3    0    0 -0.48682062926E+02  0.20301345541E+02 -0.26934178259E+03  0.30161994601E+03  0.12509000000E+03 0.  0.
         25    1    3    3    0    0 -0.89221931303E+01  0.74842282141E+02 -0.42952306933E+03  0.45367229132E+03  0.12509000000E+03 0.  0.
         25    1    1    2    0    0  0.57604256056E+02 -0.95143627682E+02 -0.52314816673E+03  0.54927413252E+03  0.12509000000E+03 0.  0.
<mgrwt>
<rscale>  2 0.45670296E+03</rscale>
<asrwt>0</asrwt>
<pdfrwt beam="1">  1       21 0.60701008E-02 0.45670296E+03</pdfrwt>
<pdfrwt beam="2">  1       21 0.18577785E+00 0.45670296E+03</pdfrwt>
<totfact> 0.28601689E+04</totfact>
</mgrwt>
</event>
<event>
 6    0  0.1539497E-004  0.4769758E+03  0.7546771E-02  0.1019970E+00
         21   -1    0    0  502  501  0.00000000000E+00  0.00000000000E+00  0.31692012857E+03  0.31692012857E+03  0.00000000000E+00 0.  1.
         21   -1    0    0  501  502 -0.00000000000E+00 -0.00000000000E+00 -0.17946627447E+03  0.17946627447E+03  0.00000000000E+00 0.  1.
      99925    2    1    2    0    0 -0.22599458575E+02 -0.12974951057E+03  0.67608943116E+02  0.30178041467E+03  0.26297296147E+03 0.  0.
         25    1    1    2    0    0  0.22599458575E+02  0.12974951057E+03  0.69844910987E+02  0.19460598838E+03  0.12509000000E+03 0.  0.
         25    1    3    3    0    0 -0.17068129546E+02 -0.44636495944E+02  0.68425105859E+02  0.15037699634E+03  0.12509000000E+03 0.  0.
         25    1    3    3    0    0 -0.55313290296E+01 -0.85113014625E+02 -0.81616274323E+00  0.15140341833E+03  0.12509000000E+03 0.  0.
<mgrwt>
<rscale>  2 0.47697578E+03</rscale>
<asrwt>0</asrwt>
<pdfrwt beam="1">  1       21 0.46605901E-01 0.47697578E+03</pdfrwt>
<pdfrwt beam="2">  1       21 0.26392099E-01 0.47697578E+03</pdfrwt>
<totfact> 0.55241560E+04</totfact>
</mgrwt>
</event>
<event>
 6    0  0.1539497E-004  0.3883265E+03  0.7546771E-02  0.1047898E+00
         21   -1    0    0  502  501  0.00000000000E+00  0.00000000000E+00  0.38255085078E+03  0.38255085078E+03  0.00000000000E+00 0.  1.
         21   -1    0    0  501  502 -0.00000000000E+00 -0.00000000000E+00 -0.98547318235E+02  0.98547318235E+02  0.00000000000E+00 0.  1.
      99925    2    1    2    0    0  0.12991716463E+01  0.41505784035E+01  0.19780537761E+03  0.32912269349E+03  0.26301305064E+03 0.  0.
         25    1    1    2    0    0 -0.12991716463E+01 -0.41505784035E+01  0.86198154928E+02  0.15197547552E+03  0.12509000000E+03 0.  0.
         25    1    3    3    0    0 -0.16664429560E+02 -0.32689709371E+02  0.83702277478E+02  0.15491901002E+03  0.12509000000E+03 0.  0.
         25    1    3    3    0    0  0.17963601206E+02  0.36840287774E+02  0.11410310014E+03  0.17420368346E+03  0.12509000000E+03 0.  0.
<mgrwt>
<rscale>  2 0.38832646E+03</rscale>
<asrwt>0</asrwt>
<pdfrwt beam="1">  1       21 0.56257478E-01 0.38832646E+03</pdfrwt>
<pdfrwt beam="2">  1       21 0.14492253E-01 0.38832646E+03</pdfrwt>
<totfact> 0.11750658E+05</totfact>
</mgrwt>
</event>
<event>
 6    0  0.1539497E-004  0.5006472E+03  0.7546771E-02  0.1013610E+00
         21   -1    0    0  502  501  0.00000000000E+00  0.00000000000E+00  0.62536635177E+02  0.62536635177E+02  0.00000000000E+00 0.  1.
         21   -1    0    0  501  502 -0.00000000000E+00 -0.00000000000E+00 -0.10020031615E+04  0.10020031615E+04  0.00000000000E+00 0.  1.
      99925    2    1    2    0    0  0.41010593819E+02  0.11895096893E+03 -0.75139547975E+03  0.80598723245E+03  0.26303811524E+03 0.  0.
         25    1    1    2    0    0 -0.41010593819E+02 -0.11895096893E+03 -0.18807104661E+03  0.25855256426E+03  0.12509000000E+03 0.  0.
         25    1    3    3    0    0 -0.13524692757E+02  0.74704358853E+02 -0.33464567335E+03  0.36523813237E+03  0.12509000000E+03 0.  0.
         25    1    3    3    0    0  0.54535286575E+02  0.44246610075E+02 -0.41674980640E+03  0.44074910008E+03  0.12509000000E+03 0.  0.
<mgrwt>
<rscale>  2 0.50064721E+03</rscale>
<asrwt>0</asrwt>
<pdfrwt beam="1">  1       21 0.91965639E-02 0.50064721E+03</pdfrwt>
<pdfrwt beam="2">  1       21 0.14735341E+00 0.50064721E+03</pdfrwt>
<totfact> 0.26124267E+04</totfact>
</mgrwt>
</event>
<event>
 6    0  0.1539497E-004  0.4156046E+03  0.7546771E-02  0.1038506E+00
         21   -1    0    0  502  501  0.00000000000E+00  0.00000000000E+00  0.19508061390E+03  0.19508061390E+03  0.00000000000E+00 0. -1.
         21   -1    0    0  501  502 -0.00000000000E+00 -0.00000000000E+00 -0.22135355866E+03  0.22135355866E+03  0.00000000000E+00 0. -1.
      99925    2    1    2    0    0 -0.16269489950E+01  0.10711480476E+02  0.52184882907E+02  0.26837836687E+03  0.26303289343E+03 0.  0.
         25    1    3    3    0    0 -0.11846868520E+02 -0.14699694731E+02 -0.82596529604E+01  0.12677602015E+03  0.12509000000E+03 0.  0.
         25    1    1    2    0    0  0.16269489950E+01 -0.10711480476E+02 -0.78457827667E+02  0.14805580569E+03  0.12509000000E+03 0.  0.
         25    1    3    3    0    0  0.10219919525E+02  0.25411175206E+02  0.60444535867E+02  0.14160234672E+03  0.12509000000E+03 0.  0.
<mgrwt>
<rscale>  2 0.41560456E+03</rscale>
<asrwt>0</asrwt>
<pdfrwt beam="1">  1       21 0.28688326E-01 0.41560456E+03</pdfrwt>
<pdfrwt beam="2">  1       21 0.32551994E-01 0.41560456E+03</pdfrwt>
<totfact> 0.99160651E+04</totfact>
</mgrwt>
</event>
<event>
 6    0  0.1539497E-004  0.4622893E+03  0.7546771E-02  0.1024119E+00
         21   -1    0    0  502  501  0.00000000000E+00  0.00000000000E+00  0.77401426386E+03  0.77401426386E+03  0.00000000000E+00 0. -1.
         21   -1    0    0  501  502 -0.00000000000E+00 -0.00000000000E+00 -0.69026959341E+02  0.69026959341E+02  0.00000000000E+00 0. -1.
      99925    2    1    2    0    0 -0.11145781722E+03 -0.25542910164E+02  0.50648437290E+03  0.58203124783E+03  0.26298035703E+03 0.  0.
         25    1    1    2    0    0  0.11145781722E+03  0.25542910164E+02  0.19850293162E+03  0.26100997537E+03  0.12509000000E+03 0.  0.
         25    1    3    3    0    0 -0.89549638114E+02 -0.38768533858E+02  0.26463137491E+03  0.30854401564E+03  0.12509000000E+03 0.  0.
         25    1    3    3    0    0 -0.21908179108E+02  0.13225623693E+02  0.24185299799E+03  0.27348723219E+03  0.12509000000E+03 0.  0.
<mgrwt>
<rscale>  2 0.46228931E+03</rscale>
<asrwt>0</asrwt>
<pdfrwt beam="1">  1       21 0.11382562E+00 0.46228931E+03</pdfrwt>
<pdfrwt beam="2">  1       21 0.10151024E-01 0.46228931E+03</pdfrwt>
<totfact> 0.43226773E+04</totfact>
</mgrwt>
</event>
<event>
 6    0  0.1539497E-004  0.4273963E+03  0.7546771E-02  0.1034686E+00
         21   -1    0    0  502  501  0.00000000000E+00  0.00000000000E+00  0.18956462160E+03  0.18956462160E+03  0.00000000000E+00 0. -1.
         21   -1    0    0  501  502 -0.00000000000E+00 -0.00000000000E+00 -0.24090408934E+03  0.24090408934E+03  0.00000000000E+00 0. -1.
      99925    2    1    2    0    0 -0.25771121133E+02 -0.80258056729E+02 -0.41940730679E+02  0.27933515838E+03  0.26298973262E+03 0.  0.
         25    1    3    3    0    0 -0.19758293909E+02 -0.18159033793E+02  0.14149564157E+02  0.12871619538E+03  0.12509000000E+03 0.  0.
         25    1    3    3    0    0 -0.60128272248E+01 -0.62099022936E+02 -0.56090294836E+02  0.15061896300E+03  0.12509000000E+03 0.  0.
         25    1    1    2    0    0  0.25771121133E+02  0.80258056729E+02 -0.93987370616E+01  0.15113355257E+03  0.12509000000E+03 0.  0.
<mgrwt>
<rscale>  2 0.42739627E+03</rscale>
<asrwt>0</asrwt>
<pdfrwt beam="1">  1       21 0.27877150E-01 0.42739627E+03</pdfrwt>
<pdfrwt beam="2">  1       21 0.35427072E-01 0.42739627E+03</pdfrwt>
<totfact> 0.88279560E+04</totfact>
</mgrwt>
</event>
<event>
 6    0  0.1539497E-004  0.4010979E+03  0.7546771E-02  0.1043400E+00
         21   -1    0    0  502  501  0.00000000000E+00  0.00000000000E+00  0.29197017104E+03  0.29197017104E+03  0.00000000000E+00 0. -1.
         21   -1    0    0  501  502 -0.00000000000E+00 -0.00000000000E+00 -0.13775339128E+03  0.13775339128E+03  0.00000000000E+00 0. -1.
      99925    2    1    2    0    0  0.35305794672E+01 -0.45874054806E+02  0.91323523169E+02  0.28234661799E+03  0.26317813912E+03 0.  0.
         25    1    3    3    0    0  0.28559824047E+02 -0.15149843473E+02  0.76863132058E+02  0.15033506070E+03  0.12509000000E+03 0.  0.
         25    1    1    2    0    0 -0.35305794672E+01  0.45874054806E+02  0.62893256597E+02  0.14737694433E+03  0.12509000000E+03 0.  0.
         25    1    3    3    0    0 -0.25029244580E+02 -0.30724211333E+02  0.14460391110E+02  0.13201155729E+03  0.12509000000E+03 0.  0.
<mgrwt>
<rscale>  2 0.40109790E+03</rscale>
<asrwt>0</asrwt>
<pdfrwt beam="1">  1       21 0.42936790E-01 0.40109790E+03</pdfrwt>
<pdfrwt beam="2">  1       21 0.20257852E-01 0.40109790E+03</pdfrwt>
<totfact> 0.11093115E+05</totfact>
</mgrwt>
</event>
<event>
 6    0  0.1539497E-004  0.4149954E+03  0.7546771E-02  0.1038708E+00
         21   -1    0    0  502  501  0.00000000000E+00  0.00000000000E+00  0.38627808963E+02  0.38627808963E+02  0.00000000000E+00 0. -1.
         21   -1    0    0  501  502 -0.00000000000E+00 -0.00000000000E+00 -0.11146192587E+04  0.11146192587E+04  0.00000000000E+00 0. -1.
      99925    2    1    2    0    0 -0.50775197562E+02  0.43290683359E+02 -0.75750557784E+03  0.80463128682E+03  0.26299164117E+03 0.  0.
         25    1    3    3    0    0 -0.29032130289E+02  0.38740806578E+02 -0.27932098705E+03  0.30985712286E+03  0.12509000000E+03 0.  0.
         25    1    3    3    0    0 -0.21743067273E+02  0.45498767805E+01 -0.47818459079E+03  0.49477416396E+03  0.12509000000E+03 0.  0.
         25    1    1    2    0    0  0.50775197562E+02 -0.43290683359E+02 -0.31848587192E+03  0.34861578086E+03  0.12509000000E+03 0.  0.
<mgrwt>
<rscale>  2 0.41499542E+03</rscale>
<asrwt>0</asrwt>
<pdfrwt beam="1">  1       21 0.56805607E-02 0.41499542E+03</pdfrwt>
<pdfrwt beam="2">  1       21 0.16391458E+00 0.41499542E+03</pdfrwt>
<totfact> 0.46589085E+04</totfact>
</mgrwt>
</event>
<event>
 6    0  0.1539497E-004  0.3941959E+03  0.7546771E-02  0.1045808E+00
         21   -1    0    0  502  501  0.00000000000E+00  0.00000000000E+00  0.72547048950E+02  0.72547048950E+02  0.00000000000E+00 0.  1.
         21   -1    0    0  501  502 -0.00000000000E+00 -0.00000000000E+00 -0.53548139289E+03  0.53548139289E+03  0.00000000000E+00 0.  1.
      99925    2    1    2    0    0 -0.23984982337E+02 -0.22408785508E+02 -0.30558083276E+03  0.40434960487E+03  0.26275753951E+03 0.  0.
         25    1    3    3    0    0 -0.14025297879E+02  0.29011592723E+02 -0.15111176497E+03  0.19879802591E+03  0.12509000000E+03 0.  0.
         25    1    3    3    0    0 -0.99596844577E+01 -0.51420378231E+02 -0.15446906779E+03  0.20555157896E+03  0.12509000000E+03 0.  0.
         25    1    1    2    0    0  0.23984982337E+02  0.22408785508E+02 -0.15735351118E+03  0.20367883696E+03  0.12509000000E+03 0.  0.
<mgrwt>
<rscale>  2 0.39419586E+03</rscale>
<asrwt>0</asrwt>
<pdfrwt beam="1">  1       21 0.10668683E-01 0.39419586E+03</pdfrwt>
<pdfrwt beam="2">  1       21 0.78747268E-01 0.39419586E+03</pdfrwt>
<totfact> 0.97031046E+04</totfact>
</mgrwt>
</event>
<event>
 6    0  0.1539497E-004  0.4329452E+03  0.7546771E-02  0.1032934E+00
         21   -1    0    0  502  501  0.00000000000E+00  0.00000000000E+00  0.15825099828E+03  0.15825099828E+03  0.00000000000E+00 0.  1.
         21   -1    0    0  501  502 -0.00000000000E+00 -0.00000000000E+00 -0.29611428653E+03  0.29611428653E+03  0.00000000000E+00 0.  1.
      99925    2    1    2    0    0  0.84977238358E+01 -0.89433912686E+02 -0.10370149830E+03  0.29661493761E+03  0.26297487411E+03 0.  0.
         25    1    3    3    0    0 -0.24838689057E+02 -0.39195771998E+02 -0.21199771913E+02  0.13509332865E+03  0.12509000000E+03 0.  0.
         25    1    1    2    0    0 -0.84977238358E+01  0.89433912686E+02 -0.34161789958E+02  0.15775034720E+03  0.12509000000E+03 0.  0.
         25    1    3    3    0    0  0.33336412893E+02 -0.50238140688E+02 -0.82501726383E+02  0.16152160896E+03  0.12509000000E+03 0.  0.
<mgrwt>
<rscale>  2 0.43294518E+03</rscale>
<asrwt>0</asrwt>
<pdfrwt beam="1">  1       21 0.23272206E-01 0.43294518E+03</pdfrwt>
<pdfrwt beam="2">  1       21 0.43546218E-01 0.43294518E+03</pdfrwt>
<totfact> 0.82062232E+04</totfact>
</mgrwt>
</event>
<event>
 6    0  0.1539497E-004  0.4651541E+03  0.7546771E-02  0.1023297E+00
         21   -1    0    0  502  501  0.00000000000E+00  0.00000000000E+00  0.20052717780E+03  0.20052717780E+03  0.00000000000E+00 0.  1.
         21   -1    0    0  501  502 -0.00000000000E+00 -0.00000000000E+00 -0.26974941440E+03  0.26974941440E+03  0.00000000000E+00 0.  1.
      99925    2    1    2    0    0  0.45882489224E+02  0.96308510870E+02 -0.10462808155E+03  0.30210520926E+03  0.26256425867E+03 0.  0.
         25    1    3    3    0    0  0.56883844797E+02  0.66251681415E+02 -0.73246338733E+02  0.16922644984E+03  0.12509000000E+03 0.  0.
         25    1    3    3    0    0 -0.11001355573E+02  0.30056829455E+02 -0.31381742818E+02  0.13287875941E+03  0.12509000000E+03 0.  0.
         25    1    1    2    0    0 -0.45882489224E+02 -0.96308510870E+02  0.35405844948E+02  0.16817138294E+03  0.12509000000E+03 0.  0.
<mgrwt>
<rscale>  2 0.46515412E+03</rscale>
<asrwt>0</asrwt>
<pdfrwt beam="1">  1       21 0.29489291E-01 0.46515412E+03</pdfrwt>
<pdfrwt beam="2">  1       21 0.39669031E-01 0.46515412E+03</pdfrwt>
<totfact> 0.62242320E+04</totfact>
</mgrwt>
</event>
<event>
 6    0  0.1539497E-004  0.4380345E+03  0.7546771E-02  0.1031352E+00
         21   -1    0    0  502  501  0.00000000000E+00  0.00000000000E+00  0.91299922959E+02  0.91299922959E+02  0.00000000000E+00 0. -1.
         21   -1    0    0  501  502 -0.00000000000E+00 -0.00000000000E+00 -0.52539524152E+03  0.52539524152E+03  0.00000000000E+00 0. -1.
      99925    2    1    2    0    0 -0.89597083357E+02 -0.97985851100E+01 -0.32571346036E+03  0.42823353734E+03  0.26300390611E+03 0.  0.
         25    1    3    3    0    0 -0.45663591660E+02 -0.22430124728E+02 -0.22024900014E+03  0.25835131945E+03  0.12509000000E+03 0.  0.
         25    1    1    2    0    0  0.89597083357E+02  0.97985851100E+01 -0.10838185819E+03  0.18846162713E+03  0.12509000000E+03 0.  0.
         25    1    3    3    0    0 -0.43933491696E+02  0.12631539618E+02 -0.10546446022E+03  0.16988221789E+03  0.12509000000E+03 0.  0.
<mgrwt>
<rscale>  2 0.43803445E+03</rscale>
<asrwt>0</asrwt>
<pdfrwt beam="1">  1       21 0.13426460E-01 0.43803445E+03</pdfrwt>
<pdfrwt beam="2">  1       21 0.77264004E-01 0.43803445E+03</pdfrwt>
<totfact> 0.66079773E+04</totfact>
</mgrwt>
</event>
<event>
 6    0  0.1539497E-004  0.4488138E+03  0.7546771E-02  0.1028076E+00
         21   -1    0    0  502  501  0.00000000000E+00  0.00000000000E+00  0.17519047164E+03  0.17519047164E+03  0.00000000000E+00 0.  1.
         21   -1    0    0  501  502 -0.00000000000E+00 -0.00000000000E+00 -0.28744981001E+03  0.28744981001E+03  0.00000000000E+00 0.  1.
      99925    2    1    2    0    0  0.33669036786E+02 -0.51914542605E+02 -0.16164345312E+03  0.31460304762E+03  0.26271229103E+03 0.  0.
         25    1    3    3    0    0  0.53700953090E+02 -0.11164703026E+02 -0.88470897696E+02  0.16273613857E+03  0.12509000000E+03 0.  0.
         25    1    1    2    0    0 -0.33669036786E+02  0.51914542605E+02  0.49384114748E+02  0.14803723404E+03  0.12509000000E+03 0.  0.
         25    1    3    3    0    0 -0.20031916304E+02 -0.40749839579E+02 -0.73172555427E+02  0.15186690905E+03  0.12509000000E+03 0.  0.
<mgrwt>
<rscale>  2 0.44881385E+03</rscale>
<asrwt>0</asrwt>
<pdfrwt beam="1">  1       21 0.25763305E-01 0.44881385E+03</pdfrwt>
<pdfrwt beam="2">  1       21 0.42272031E-01 0.44881385E+03</pdfrwt>
<totfact> 0.71428338E+04</totfact>
</mgrwt>
</event>
<event>
 6    0  0.1539497E-004  0.4045142E+03  0.7546771E-02  0.1042228E+00
         21   -1    0    0  502  501  0.00000000000E+00  0.00000000000E+00  0.51525521526E+02  0.51525521526E+02  0.00000000000E+00 0. -1.
         21   -1    0    0  501  502 -0.00000000000E+00 -0.00000000000E+00 -0.79393537825E+03  0.79393537825E+03  0.00000000000E+00 0. -1.
      99925    2    1    2    0    0 -0.43765185068E+02  0.18320401512E+02 -0.44016595161E+03  0.51493115101E+03  0.26297717923E+03 0.  0.
         25    1    3    3    0    0 -0.46055023170E+02  0.41003454773E+02 -0.24756062943E+03  0.28414102450E+03  0.12509000000E+03 0.  0.
         25    1    1    2    0    0  0.43765185068E+02 -0.18320401512E+02 -0.30224390511E+03  0.33052974876E+03  0.12509000000E+03 0.  0.
         25    1    3    3    0    0  0.22898381023E+01 -0.22683053261E+02 -0.19260532218E+03  0.23079012651E+03  0.12509000000E+03 0.  0.
<mgrwt>
<rscale>  2 0.40451420E+03</rscale>
<asrwt>0</asrwt>
<pdfrwt beam="1">  1       21 0.75772825E-02 0.40451420E+03</pdfrwt>
<pdfrwt beam="2">  1       21 0.11675520E+00 0.40451420E+03</pdfrwt>
<totfact> 0.69255441E+04</totfact>
</mgrwt>
</event>
<event>
 6    0  0.1539497E-004  0.3937301E+03  0.7546771E-02  0.1045973E+00
         21   -1    0    0  502  501  0.00000000000E+00  0.00000000000E+00  0.79999192455E+02  0.79999192455E+02  0.00000000000E+00 0. -1.
         21   -1    0    0  501  502 -0.00000000000E+00 -0.00000000000E+00 -0.48445309238E+03  0.48445309238E+03  0.00000000000E+00 0. -1.
      99925    2    1    2    0    0  0.15183280109E+02 -0.23063535826E+02 -0.29302829511E+03  0.39467115458E+03  0.26293968861E+03 0.  0.
         25    1    3    3    0    0  0.32438738676E+02 -0.34128379716E+02 -0.11622742452E+03  0.17712521102E+03  0.12509000000E+03 0.  0.
         25    1    3    3    0    0 -0.17255458567E+02  0.11064843890E+02 -0.17680087058E+03  0.21754594356E+03  0.12509000000E+03 0.  0.
         25    1    1    2    0    0 -0.15183280109E+02  0.23063535826E+02 -0.11142560482E+03  0.16978113025E+03  0.12509000000E+03 0.  0.
<mgrwt>
<rscale>  2 0.39373014E+03</rscale>
<asrwt>0</asrwt>
<pdfrwt beam="1">  1       21 0.11764587E-01 0.39373014E+03</pdfrwt>
<pdfrwt beam="2">  1       21 0.71243102E-01 0.39373014E+03</pdfrwt>
<totfact> 0.10210348E+05</totfact>
</mgrwt>
</event>
<event>
 6    0  0.1539497E-004  0.4620571E+03  0.7546771E-02  0.1024186E+00
         21   -1    0    0  502  501  0.00000000000E+00  0.00000000000E+00  0.73430660245E+02  0.73430660245E+02  0.00000000000E+00 0.  1.
         21   -1    0    0  501  502 -0.00000000000E+00 -0.00000000000E+00 -0.72686526659E+03  0.72686526659E+03  0.00000000000E+00 0.  1.
      99925    2    1    2    0    0  0.10894132994E+03 -0.31918329345E+02 -0.47448150765E+03  0.55420912762E+03  0.26292216132E+03 0.  0.
         25    1    1    2    0    0 -0.10894132994E+03  0.31918329345E+02 -0.17895309869E+03  0.24608679922E+03  0.12509000000E+03 0.  0.
         25    1    3    3    0    0  0.52239518220E+02 -0.71944306666E+01 -0.31055351317E+03  0.33892730745E+03  0.12509000000E+03 0.  0.
         25    1    3    3    0    0  0.56701811716E+02 -0.24723898679E+02 -0.16392799448E+03  0.21528182016E+03  0.12509000000E+03 0.  0.
<mgrwt>
<rscale>  2 0.46205712E+03</rscale>
<asrwt>0</asrwt>
<pdfrwt beam="1">  1       21 0.10798627E-01 0.46205712E+03</pdfrwt>
<pdfrwt beam="2">  1       21 0.10689195E+00 0.46205712E+03</pdfrwt>
<totfact> 0.45195016E+04</totfact>
</mgrwt>
</event>
<event>
 6    0  0.1539497E-004  0.5327049E+03  0.7546771E-02  0.1005578E+00
         21   -1    0    0  502  501  0.00000000000E+00  0.00000000000E+00  0.13871816935E+03  0.13871816935E+03  0.00000000000E+00 0. -1.
         21   -1    0    0  501  502 -0.00000000000E+00 -0.00000000000E+00 -0.51142281612E+03  0.51142281612E+03  0.00000000000E+00 0. -1.
      99925    2    1    2    0    0  0.11329989310E+03  0.13092774566E+03 -0.18140261635E+03  0.36339560137E+03  0.26300287739E+03 0.  0.
         25    1    3    3    0    0  0.14727657692E+02  0.71847976237E+02 -0.82180687997E+02  0.16667396068E+03  0.12509000000E+03 0.  0.
         25    1    3    3    0    0  0.98572235408E+02  0.59079769421E+02 -0.99221928349E+02  0.19672164068E+03  0.12509000000E+03 0.  0.
         25    1    1    2    0    0 -0.11329989310E+03 -0.13092774566E+03 -0.19130203042E+03  0.28674538410E+03  0.12509000000E+03 0.  0.
<mgrwt>
<rscale>  2 0.53270493E+03</rscale>
<asrwt>0</asrwt>
<pdfrwt beam="1">  1       21 0.20399731E-01 0.53270493E+03</pdfrwt>
<pdfrwt beam="2">  1       21 0.75209238E-01 0.53270493E+03</pdfrwt>
<totfact> 0.31469339E+04</totfact>
</mgrwt>
</event>
<event>
 6    0  0.1539497E-004  0.4404077E+03  0.7546771E-02  0.1030622E+00
         21   -1    0    0  502  501  0.00000000000E+00  0.00000000000E+00  0.28101966709E+03  0.28101966709E+03  0.00000000000E+00 0. -1.
         21   -1    0    0  501  502 -0.00000000000E+00 -0.00000000000E+00 -0.17254925867E+03  0.17254925867E+03  0.00000000000E+00 0. -1.
      99925    2    1    2    0    0  0.28154480738E+02  0.79802567058E+02  0.17239496281E+02  0.27712711687E+03  0.26332700996E+03 0.  0.
         25    1    3    3    0    0  0.51941296265E+02  0.36817276852E+02  0.24752704496E+02  0.14252583840E+03  0.12509000000E+03 0.  0.
         25    1    3    3    0    0 -0.23786815527E+02  0.42985290206E+02 -0.75132082145E+01  0.13460127847E+03  0.12509000000E+03 0.  0.
         25    1    1    2    0    0 -0.28154480738E+02 -0.79802567058E+02  0.91230912145E+02  0.17644180889E+03  0.12509000000E+03 0.  0.
<mgrwt>
<rscale>  2 0.44040770E+03</rscale>
<asrwt>0</asrwt>
<pdfrwt beam="1">  1       21 0.41326422E-01 0.44040770E+03</pdfrwt>
<pdfrwt beam="2">  1       21 0.25374891E-01 0.44040770E+03</pdfrwt>
<totfact> 0.77237819E+04</totfact>
</mgrwt>
</event>
<event>
 6    0  0.1539497E-004  0.4046934E+03  0.7546771E-02  0.1042167E+00
         21   -1    0    0  502  501  0.00000000000E+00  0.00000000000E+00  0.30745709936E+03  0.30745709936E+03  0.00000000000E+00 0.  1.
         21   -1    0    0  501  502 -0.00000000000E+00 -0.00000000000E+00 -0.13317043606E+03  0.13317043606E+03  0.00000000000E+00 0.  1.
      99925    2    1    2    0    0  0.62873749738E+00  0.48537033007E+02  0.90071303212E+02  0.28221044714E+03  0.26300885523E+03 0.  0.
         25    1    3    3    0    0 -0.82906739872E+01 -0.10105655978E+02  0.64794615712E+02  0.14148042226E+03  0.12509000000E+03 0.  0.
         25    1    1    2    0    0 -0.62873749738E+00 -0.48537033007E+02  0.84215360092E+02  0.15841708828E+03  0.12509000000E+03 0.  0.
         25    1    3    3    0    0  0.89194114846E+01  0.58642688985E+02  0.25276687501E+02  0.14073002488E+03  0.12509000000E+03 0.  0.
<mgrwt>
<rscale>  2 0.40469344E+03</rscale>
<asrwt>0</asrwt>
<pdfrwt beam="1">  1       21 0.45214279E-01 0.40469344E+03</pdfrwt>
<pdfrwt beam="2">  1       21 0.19583888E-01 0.40469344E+03</pdfrwt>
<totfact> 0.10613744E+05</totfact>
</mgrwt>
</event>
<event>
 6    0  0.1539497E-004  0.3983487E+03  0.7546771E-02  0.1044353E+00
         21   -1    0    0  502  501  0.00000000000E+00  0.00000000000E+00  0.12371565710E+03  0.12371565710E+03  0.00000000000E+00 0. -1.
         21   -1    0    0  501  502 -0.00000000000E+00 -0.00000000000E+00 -0.32065807755E+03  0.32065807755E+03  0.00000000000E+00 0. -1.
      99925    2    1    2    0    0 -0.40338540180E+01  0.26072990630E+02 -0.95098442859E+02  0.28092411951E+03  0.26301820140E+03 0.  0.
         25    1    3    3    0    0 -0.37178836296E+02  0.84802487428E+01 -0.26592402720E+02  0.13344978258E+03  0.12509000000E+03 0.  0.
         25    1    3    3    0    0  0.33144982278E+02  0.17592741887E+02 -0.68506040139E+02  0.14747433693E+03  0.12509000000E+03 0.  0.
         25    1    1    2    0    0  0.40338540180E+01 -0.26072990630E+02 -0.10184397759E+03  0.16344961514E+03  0.12509000000E+03 0.  0.
<mgrwt>
<rscale>  2 0.39834872E+03</rscale>
<asrwt>0</asrwt>
<pdfrwt beam="1">  1       21 0.18193479E-01 0.39834872E+03</pdfrwt>
<pdfrwt beam="2">  1       21 0.47155599E-01 0.39834872E+03</pdfrwt>
<totfact> 0.11182275E+05</totfact>
</mgrwt>
</event>
<event>
 6    0  0.1539497E-004  0.4361915E+03  0.7546771E-02  0.1031922E+00
         21   -1    0    0  502  501  0.00000000000E+00  0.00000000000E+00  0.19910594338E+03  0.19910594338E+03  0.00000000000E+00 0. -1.
         21   -1    0    0  501  502 -0.00000000000E+00 -0.00000000000E+00 -0.23889676430E+03  0.23889676430E+03  0.00000000000E+00 0. -1.
      99925    2    1    2    0    0  0.60519980763E+02 -0.66135628629E+02 -0.55039899151E+02  0.28335267718E+03  0.26310218495E+03 0.  0.
         25    1    1    2    0    0 -0.60519980763E+02  0.66135628629E+02  0.15249078233E+02  0.15465003050E+03  0.12509000000E+03 0.  0.
         25    1    3    3    0    0  0.36423020884E+02 -0.55532754796E+02  0.58796091618E+01  0.14174837286E+03  0.12509000000E+03 0.  0.
         25    1    3    3    0    0  0.24096959879E+02 -0.10602873833E+02 -0.60919508313E+02  0.14160430432E+03  0.12509000000E+03 0.  0.
<mgrwt>
<rscale>  2 0.43619154E+03</rscale>
<asrwt>0</asrwt>
<pdfrwt beam="1">  1       21 0.29280286E-01 0.43619154E+03</pdfrwt>
<pdfrwt beam="2">  1       21 0.35131877E-01 0.43619154E+03</pdfrwt>
<totfact> 0.81348594E+04</totfact>
</mgrwt>
</event>
<event>
 6    0  0.1539497E-004  0.4525488E+03  0.7546771E-02  0.1026965E+00
         21   -1    0    0  502  501  0.00000000000E+00  0.00000000000E+00  0.52907955594E+03  0.52907955594E+03  0.00000000000E+00 0. -1.
         21   -1    0    0  501  502 -0.00000000000E+00 -0.00000000000E+00 -0.96772028670E+02  0.96772028670E+02  0.00000000000E+00 0. -1.
      99925    2    1    2    0    0 -0.41452869447E+02  0.45712177028E+02  0.39998770402E+03  0.48267329510E+03  0.26301217256E+03 0.  0.
         25    1    1    2    0    0  0.41452869447E+02 -0.45712177028E+02  0.32319823249E+02  0.14317828952E+03  0.12509000000E+03 0.  0.
         25    1    3    3    0    0 -0.23807064133E+02 -0.58376442804E+01  0.14194751797E+03  0.19078118448E+03  0.12509000000E+03 0.  0.
         25    1    3    3    0    0 -0.17645805314E+02  0.51549821308E+02  0.25804018606E+03  0.29189211062E+03  0.12509000000E+03 0.  0.
<mgrwt>
<rscale>  2 0.45254879E+03</rscale>
<asrwt>0</asrwt>
<pdfrwt beam="1">  1       21 0.77805816E-01 0.45254879E+03</pdfrwt>
<pdfrwt beam="2">  1       21 0.14231181E-01 0.45254879E+03</pdfrwt>
<totfact> 0.58233383E+04</totfact>
</mgrwt>
</event>
<event>
 6    0  0.1539497E-004  0.5390736E+03  0.7546771E-02  0.1004055E+00
         21   -1    0    0  502  501  0.00000000000E+00  0.00000000000E+00  0.11455552723E+03  0.11455552723E+03  0.00000000000E+00 0.  1.
         21   -1    0    0  501  502 -0.00000000000E+00 -0.00000000000E+00 -0.63419096881E+03  0.63419096881E+03  0.00000000000E+00 0.  1.
      99925    2    1    2    0    0  0.24438267915E+01 -0.17848898184E+03 -0.26724455451E+03  0.41526042902E+03  0.26297772351E+03 0.  0.
         25    1    1    2    0    0 -0.24438267915E+01  0.17848898184E+03 -0.25239088706E+03  0.33348606702E+03  0.12509000000E+03 0.  0.
         25    1    3    3    0    0 -0.33237986177E+02 -0.93115411918E+02 -0.10772874369E+03  0.19242721735E+03  0.12509000000E+03 0.  0.
         25    1    3    3    0    0  0.35681812969E+02 -0.85373569919E+02 -0.15951581082E+03  0.22283321166E+03  0.12509000000E+03 0.  0.
<mgrwt>
<rscale>  2 0.53907358E+03</rscale>
<asrwt>0</asrwt>
<pdfrwt beam="1">  1       21 0.16846401E-01 0.53907358E+03</pdfrwt>
<pdfrwt beam="2">  1       21 0.93263377E-01 0.53907358E+03</pdfrwt>
<totfact> 0.27289602E+04</totfact>
</mgrwt>
</event>
<event>
 6    0  0.1539497E-004  0.4135106E+03  0.7546771E-02  0.1039199E+00
         21   -1    0    0  502  501  0.00000000000E+00  0.00000000000E+00  0.15382625813E+03  0.15382625813E+03  0.00000000000E+00 0. -1.
         21   -1    0    0  501  502 -0.00000000000E+00 -0.00000000000E+00 -0.27789630810E+03  0.27789630810E+03  0.00000000000E+00 0. -1.
      99925    2    1    2    0    0 -0.15016885897E+02 -0.53642424601E+02 -0.42110146312E+02  0.27213575447E+03  0.26302393020E+03 0.  0.
         25    1    1    2    0    0  0.15016885897E+02  0.53642424601E+02 -0.81959903661E+02  0.15958681176E+03  0.12509000000E+03 0.  0.
         25    1    3    3    0    0 -0.33520617081E+02 -0.27844239157E+02  0.10257900130E+02  0.13285957263E+03  0.12509000000E+03 0.  0.
         25    1    3    3    0    0  0.18503731183E+02 -0.25798185444E+02 -0.52368046441E+02  0.13927618184E+03  0.12509000000E+03 0.  0.
<mgrwt>
<rscale>  2 0.41351058E+03</rscale>
<asrwt>0</asrwt>
<pdfrwt beam="1">  1       21 0.22621508E-01 0.41351058E+03</pdfrwt>
<pdfrwt beam="2">  1       21 0.40867104E-01 0.41351058E+03</pdfrwt>
<totfact> 0.99250530E+04</totfact>
</mgrwt>
</event>
<event>
 6    0  0.1539497E-004  0.4203168E+03  0.7546771E-02  0.1036963E+00
         21   -1    0    0  502  501  0.00000000000E+00  0.00000000000E+00  0.22508958338E+03  0.22508958338E+03  0.00000000000E+00 0.  1.
         21   -1    0    0  501  502 -0.00000000000E+00 -0.00000000000E+00 -0.19621765547E+03  0.19621765547E+03  0.00000000000E+00 0.  1.
      99925    2    1    2    0    0 -0.52560447105E+02 -0.14517365789E+02  0.72267814905E+02  0.27811483118E+03  0.26296742715E+03 0.  0.
         25    1    3    3    0    0  0.26475654746E+01  0.91776374335E+01  0.59233545486E+02  0.13873485374E+03  0.12509000000E+03 0.  0.
         25    1    3    3    0    0 -0.55208012580E+02 -0.23695003222E+02  0.13034269419E+02  0.13937997744E+03  0.12509000000E+03 0.  0.
         25    1    1    2    0    0  0.52560447105E+02  0.14517365789E+02 -0.43395886993E+02  0.14319240768E+03  0.12509000000E+03 0.  0.
<mgrwt>
<rscale>  2 0.42031679E+03</rscale>
<asrwt>0</asrwt>
<pdfrwt beam="1">  1       21 0.33101409E-01 0.42031679E+03</pdfrwt>
<pdfrwt beam="2">  1       21 0.28855538E-01 0.42031679E+03</pdfrwt>
<totfact> 0.94705597E+04</totfact>
</mgrwt>
</event>
<event>
 6    0  0.1539497E-004  0.4561249E+03  0.7546771E-02  0.1025911E+00
         21   -1    0    0  502  501  0.00000000000E+00  0.00000000000E+00  0.38888956537E+03  0.38888956537E+03  0.00000000000E+00 0. -1.
         21   -1    0    0  501  502 -0.00000000000E+00 -0.00000000000E+00 -0.13374617391E+03  0.13374617391E+03  0.00000000000E+00 0. -1.
      99925    2    1    2    0    0  0.87952047624E+02 -0.99877513190E+01  0.24311981225E+03  0.36892369546E+03  0.26298694284E+03 0.  0.
         25    1    3    3    0    0  0.76389140880E+02 -0.65099140194E+01  0.95513791863E+02  0.17506590862E+03  0.12509000000E+03 0.  0.
         25    1    1    2    0    0 -0.87952047624E+02  0.99877513190E+01  0.12023579213E+02  0.15371204382E+03  0.12509000000E+03 0.  0.
         25    1    3    3    0    0  0.11562906745E+02 -0.34778372996E+01  0.14760602038E+03  0.19385778684E+03  0.12509000000E+03 0.  0.
<mgrwt>
<rscale>  2 0.45612495E+03</rscale>
<asrwt>0</asrwt>
<pdfrwt beam="1">  1       21 0.57189642E-01 0.45612495E+03</pdfrwt>
<pdfrwt beam="2">  1       21 0.19668555E-01 0.45612495E+03</pdfrwt>
<totfact> 0.63142620E+04</totfact>
</mgrwt>
</event>
<event>
 6    0  0.1539497E-004  0.4285482E+03  0.7546771E-02  0.1034320E+00
         21   -1    0    0  502  501  0.00000000000E+00  0.00000000000E+00  0.96819565709E+02  0.96819565709E+02  0.00000000000E+00 0.  1.
         21   -1    0    0  501  502 -0.00000000000E+00 -0.00000000000E+00 -0.47421608957E+03  0.47421608957E+03  0.00000000000E+00 0.  1.
      99925    2    1    2    0    0  0.80578197840E+02 -0.74932801209E+00 -0.28282113467E+03  0.39472507760E+03  0.26329961111E+03 0.  0.
         25    1    3    3    0    0  0.71944044405E+02  0.26780139508E+02 -0.15859413475E+03  0.21608500428E+03  0.12509000000E+03 0.  0.
         25    1    3    3    0    0  0.86341534349E+01 -0.27529467520E+02 -0.12422699992E+03  0.17864007332E+03  0.12509000000E+03 0.  0.
         25    1    1    2    0    0 -0.80578197840E+02  0.74932801209E+00 -0.94575389188E+02  0.17631057767E+03  0.12509000000E+03 0.  0.
<mgrwt>
<rscale>  2 0.42854823E+03</rscale>
<asrwt>0</asrwt>
<pdfrwt beam="1">  1       21 0.14238172E-01 0.42854823E+03</pdfrwt>
<pdfrwt beam="2">  1       21 0.69737660E-01 0.42854823E+03</pdfrwt>
<totfact> 0.74994915E+04</totfact>
</mgrwt>
</event>
<event>
 6    0  0.1539497E-004  0.4035935E+03  0.7546771E-02  0.1042542E+00
         21   -1    0    0  502  501  0.00000000000E+00  0.00000000000E+00  0.44593480266E+02  0.44593480266E+02  0.00000000000E+00 0.  1.
         21   -1    0    0  501  502 -0.00000000000E+00 -0.00000000000E+00 -0.91318117816E+03  0.91318117816E+03  0.00000000000E+00 0.  1.
      99925    2    1    2    0    0  0.21897753797E+02 -0.15453740901E+02 -0.47146755073E+03  0.54055738995E+03  0.26306332073E+03 0.  0.
         25    1    3    3    0    0  0.14603082317E+02  0.13747543847E+02 -0.16382820175E+03  0.20709764065E+03  0.12509000000E+03 0.  0.
         25    1    1    2    0    0 -0.21897753797E+02  0.15453740901E+02 -0.39712014717E+03  0.41721726848E+03  0.12509000000E+03 0.  0.
         25    1    3    3    0    0  0.72946714805E+01 -0.29201284747E+02 -0.30763934898E+03  0.33345974930E+03  0.12509000000E+03 0.  0.
<mgrwt>
<rscale>  2 0.40359349E+03</rscale>
<asrwt>0</asrwt>
<pdfrwt beam="1">  1       21 0.65578652E-02 0.40359349E+03</pdfrwt>
<pdfrwt beam="2">  1       21 0.13429134E+00 0.40359349E+03</pdfrwt>
<totfact> 0.62374934E+04</totfact>
</mgrwt>
</event>
<event>
 6    0  0.1539497E-004  0.3996372E+03  0.7546771E-02  0.1043905E+00
         21   -1    0    0  502  501  0.00000000000E+00  0.00000000000E+00  0.29759782345E+03  0.29759782345E+03  0.00000000000E+00 0. -1.
         21   -1    0    0  501  502 -0.00000000000E+00 -0.00000000000E+00 -0.13416588317E+03  0.13416588317E+03  0.00000000000E+00 0. -1.
      99925    2    1    2    0    0 -0.33254926516E+02  0.29764280980E+02  0.10477993246E+03  0.28657634946E+03  0.26297408098E+03 0.  0.
         25    1    1    2    0    0  0.33254926516E+02 -0.29764280980E+02  0.58652007819E+02  0.14518735717E+03  0.12509000000E+03 0.  0.
         25    1    3    3    0    0  0.94248025991E+01 -0.16770922736E+02  0.46952403083E+02  0.13498935887E+03  0.12509000000E+03 0.  0.
         25    1    3    3    0    0 -0.42679729115E+02  0.46535203716E+02  0.57827529378E+02  0.15158699059E+03  0.12509000000E+03 0.  0.
<mgrwt>
<rscale>  2 0.39963721E+03</rscale>
<asrwt>0</asrwt>
<pdfrwt beam="1">  1       21 0.43764386E-01 0.39963721E+03</pdfrwt>
<pdfrwt beam="2">  1       21 0.19730277E-01 0.39963721E+03</pdfrwt>
<totfact> 0.11212690E+05</totfact>
</mgrwt>
</event>
<event>
 6    0  0.1539497E-004  0.4399285E+03  0.7546771E-02  0.1030769E+00
         21   -1    0    0  502  501  0.00000000000E+00  0.00000000000E+00  0.18794395061E+03  0.18794395061E+03  0.00000000000E+00 0. -1.
         21   -1    0    0  501  502 -0.00000000000E+00 -0.00000000000E+00 -0.25743985151E+03  0.25743985151E+03  0.00000000000E+00 0. -1.
      99925    2    1    2    0    0 -0.33066363446E+02  0.87616649125E+02 -0.13880024842E+02  0.27952031800E+03  0.26299979371E+03 0.  0.
         25    1    3    3    0    0  0.17521877994E+02  0.65759418258E+02 -0.37205436345E+01  0.14245233534E+03  0.12509000000E+03 0.  0.
         25    1    3    3    0    0 -0.50588241440E+02  0.21857230867E+02 -0.10159481207E+02  0.13706798266E+03  0.12509000000E+03 0.  0.
         25    1    1    2    0    0  0.33066363446E+02 -0.87616649125E+02 -0.55615876049E+02  0.16586348412E+03  0.12509000000E+03 0.  0.
<mgrwt>
<rscale>  2 0.43992846E+03</rscale>
<asrwt>0</asrwt>
<pdfrwt beam="1">  1       21 0.27638816E-01 0.43992846E+03</pdfrwt>
<pdfrwt beam="2">  1       21 0.37858802E-01 0.43992846E+03</pdfrwt>
<totfact> 0.78249287E+04</totfact>
</mgrwt>
</event>
<event>
 6    0  0.1539497E-004  0.4410290E+03  0.7546771E-02  0.1030432E+00
         21   -1    0    0  502  501  0.00000000000E+00  0.00000000000E+00  0.11935311745E+03  0.11935311745E+03  0.00000000000E+00 0.  1.
         21   -1    0    0  501  502 -0.00000000000E+00 -0.00000000000E+00 -0.40741832901E+03  0.40741832901E+03  0.00000000000E+00 0.  1.
      99925    2    1    2    0    0  0.79235139974E+02 -0.77211948485E+01 -0.11232453604E+03  0.29683641783E+03  0.26297762889E+03 0.  0.
         25    1    3    3    0    0 -0.14062916160E+01  0.62337275889E+01 -0.49133300262E+02  0.13454525748E+03  0.12509000000E+03 0.  0.
         25    1    3    3    0    0  0.80641431590E+02 -0.13954922437E+02 -0.63191235779E+02  0.16229116035E+03  0.12509000000E+03 0.  0.
         25    1    1    2    0    0 -0.79235139974E+02  0.77211948485E+01 -0.17574067552E+03  0.22993502862E+03  0.12509000000E+03 0.  0.
<mgrwt>
<rscale>  2 0.44102901E+03</rscale>
<asrwt>0</asrwt>
<pdfrwt beam="1">  1       21 0.17551929E-01 0.44102901E+03</pdfrwt>
<pdfrwt beam="2">  1       21 0.59914460E-01 0.44102901E+03</pdfrwt>
<totfact> 0.70956217E+04</totfact>
</mgrwt>
</event>
<event>
 6    0  0.1539497E-004  0.4107915E+03  0.7546771E-02  0.1040106E+00
         21   -1    0    0  502  501  0.00000000000E+00  0.00000000000E+00  0.35239886211E+02  0.35239886211E+02  0.00000000000E+00 0. -1.
         21   -1    0    0  501  502 -0.00000000000E+00 -0.00000000000E+00 -0.11971495325E+04  0.11971495325E+04  0.00000000000E+00 0. -1.
      99925    2    1    2    0    0  0.18603178955E+02 -0.19562310771E+02 -0.59271727011E+03  0.64898884323E+03  0.26295245594E+03 0.  0.
         25    1    3    3    0    0 -0.29823507920E+02 -0.55191429379E+00 -0.30304201390E+03  0.32919859739E+03  0.12509000000E+03 0.  0.
         25    1    3    3    0    0  0.48426686876E+02 -0.19010396478E+02 -0.28967525621E+03  0.31979024584E+03  0.12509000000E+03 0.  0.
         25    1    1    2    0    0 -0.18603178955E+02  0.19562310771E+02 -0.56919237619E+03  0.58340057549E+03  0.12509000000E+03 0.  0.
<mgrwt>
<rscale>  2 0.41079150E+03</rscale>
<asrwt>0</asrwt>
<pdfrwt beam="1">  1       21 0.51823358E-02 0.41079150E+03</pdfrwt>
<pdfrwt beam="2">  1       21 0.17605142E+00 0.41079150E+03</pdfrwt>
<totfact> 0.44635413E+04</totfact>
</mgrwt>
</event>
<event>
 6    0  0.1539497E-004  0.5062782E+03  0.7546771E-02  0.1012153E+00
         21   -1    0    0  502  501  0.00000000000E+00  0.00000000000E+00  0.51372989111E+03  0.51372989111E+03  0.00000000000E+00 0.  1.
         21   -1    0    0  501  502 -0.00000000000E+00 -0.00000000000E+00 -0.12473366252E+03  0.12473366252E+03  0.00000000000E+00 0.  1.
      99925    2    1    2    0    0  0.11846267268E+03  0.25206458720E+02  0.11030623483E+03  0.30985376817E+03  0.26300783606E+03 0.  0.
         25    1    3    3    0    0  0.95010240987E+02  0.36340943477E+02  0.51873998324E+02  0.16936950690E+03  0.12509000000E+03 0.  0.
         25    1    1    2    0    0 -0.11846267268E+03 -0.25206458720E+02  0.27868999376E+03  0.32860978546E+03  0.12509000000E+03 0.  0.
         25    1    3    3    0    0  0.23452431688E+02 -0.11134484757E+02  0.58432236504E+02  0.14048426127E+03  0.12509000000E+03 0.  0.
<mgrwt>
<rscale>  2 0.50627823E+03</rscale>
<asrwt>0</asrwt>
<pdfrwt beam="1">  1       21 0.75548513E-01 0.50627823E+03</pdfrwt>
<pdfrwt beam="2">  1       21 0.18343186E-01 0.50627823E+03</pdfrwt>
<totfact> 0.38332710E+04</totfact>
</mgrwt>
</event>
<event>
 6    0  0.1539497E-004  0.4956453E+03  0.7546771E-02  0.1014922E+00
         21   -1    0    0  502  501  0.00000000000E+00  0.00000000000E+00  0.90817947255E+03  0.90817947255E+03  0.00000000000E+00 0. -1.
         21   -1    0    0  501  502 -0.00000000000E+00 -0.00000000000E+00 -0.67625473825E+02  0.67625473825E+02  0.00000000000E+00 0. -1.
      99925    2    1    2    0    0 -0.14216266775E+03  0.35120155659E+02  0.46985996609E+03  0.55806672289E+03  0.26310915989E+03 0.  0.
         25    1    1    2    0    0  0.14216266775E+03 -0.35120155659E+02  0.37069403263E+03  0.41773822349E+03  0.12509000000E+03 0.  0.
         25    1    3    3    0    0 -0.49445540251E+02 -0.14299295101E+02  0.24884390590E+03  0.28323158174E+03  0.12509000000E+03 0.  0.
         25    1    3    3    0    0 -0.92717127498E+02  0.49419450761E+02  0.22101606019E+03  0.27483514114E+03  0.12509000000E+03 0.  0.
<mgrwt>
<rscale>  2 0.49564531E+03</rscale>
<asrwt>0</asrwt>
<pdfrwt beam="1">  1       21 0.13355580E+00 0.49564531E+03</pdfrwt>
<pdfrwt beam="2">  1       21 0.99449232E-02 0.49564531E+03</pdfrwt>
<totfact> 0.29541924E+04</totfact>
</mgrwt>
</event>
<event>
 6    0  0.1539497E-004  0.4362430E+03  0.7546771E-02  0.1031906E+00
         21   -1    0    0  502  501  0.00000000000E+00  0.00000000000E+00  0.10942219070E+03  0.10942219070E+03  0.00000000000E+00 0.  1.
         21   -1    0    0  501  502 -0.00000000000E+00 -0.00000000000E+00 -0.43480201321E+03  0.43480201321E+03  0.00000000000E+00 0.  1.
      99925    2    1    2    0    0  0.71348306431E+02 -0.34158084720E+02 -0.14409538291E+03  0.31019661638E+03  0.26306103067E+03 0.  0.
         25    1    1    2    0    0 -0.71348306431E+02  0.34158084720E+02 -0.18128443960E+03  0.23402758753E+03  0.12509000000E+03 0.  0.
         25    1    3    3    0    0 -0.31159423327E+01 -0.29120727550E+02 -0.57660241245E+02  0.14081881050E+03  0.12509000000E+03 0.  0.
         25    1    3    3    0    0  0.74464248764E+02 -0.50373571693E+01 -0.86435141670E+02  0.16937780589E+03  0.12509000000E+03 0.  0.
<mgrwt>
<rscale>  2 0.43624300E+03</rscale>
<asrwt>0</asrwt>
<pdfrwt beam="1">  1       21 0.16091499E-01 0.43624300E+03</pdfrwt>
<pdfrwt beam="2">  1       21 0.63941471E-01 0.43624300E+03</pdfrwt>
<totfact> 0.72413941E+04</totfact>
</mgrwt>
</event>
<event>
 6    0  0.1539497E-004  0.4075771E+03  0.7546771E-02  0.1041187E+00
         21   -1    0    0  502  501  0.00000000000E+00  0.00000000000E+00  0.15906418730E+03  0.15906418730E+03  0.00000000000E+00 0.  1.
         21   -1    0    0  501  502 -0.00000000000E+00 -0.00000000000E+00 -0.26108813042E+03  0.26108813042E+03  0.00000000000E+00 0.  1.
      99925    2    1    2    0    0 -0.28230460040E+02  0.45105793842E+02 -0.43200486225E+02  0.27203345095E+03  0.26325733592E+03 0.  0.
         25    1    3    3    0    0  0.23448414256E+02  0.37427621837E+02 -0.14319349842E+02  0.13342865842E+03  0.12509000000E+03 0.  0.
         25    1    3    3    0    0 -0.51678874295E+02  0.76781720048E+01 -0.28881136382E+02  0.13860479253E+03  0.12509000000E+03 0.  0.
         25    1    1    2    0    0  0.28230460040E+02 -0.45105793842E+02 -0.58823456891E+02  0.14811886677E+03  0.12509000000E+03 0.  0.
<mgrwt>
<rscale>  2 0.40757709E+03</rscale>
<asrwt>0</asrwt>
<pdfrwt beam="1">  1       21 0.23391793E-01 0.40757709E+03</pdfrwt>
<pdfrwt beam="2">  1       21 0.38395313E-01 0.40757709E+03</pdfrwt>
<totfact> 0.10589569E+05</totfact>
</mgrwt>
</event>
<event>
 6    0  0.1539497E-004  0.4289157E+03  0.7546771E-02  0.1034203E+00
         21   -1    0    0  502  501  0.00000000000E+00  0.00000000000E+00  0.10087169346E+03  0.10087169346E+03  0.00000000000E+00 0.  1.
         21   -1    0    0  501  502 -0.00000000000E+00 -0.00000000000E+00 -0.45594715356E+03  0.45594715356E+03  0.00000000000E+00 0.  1.
      99925    2    1    2    0    0 -0.26062823445E+02 -0.69530496627E+02 -0.17194034640E+03  0.32293909436E+03  0.26308252550E+03 0.  0.
         25    1    1    2    0    0  0.26062823445E+02  0.69530496627E+02 -0.18313511370E+03  0.23387975265E+03  0.12509000000E+03 0.  0.
         25    1    3    3    0    0  0.10931941811E+02 -0.32299203948E+02 -0.45247584413E+02  0.13732296939E+03  0.12509000000E+03 0.  0.
         25    1    3    3    0    0 -0.36994765257E+02 -0.37231292679E+02 -0.12669276198E+03  0.18561612497E+03  0.12509000000E+03 0.  0.
<mgrwt>
<rscale>  2 0.42891566E+03</rscale>
<asrwt>0</asrwt>
<pdfrwt beam="1">  1       21 0.14834072E-01 0.42891566E+03</pdfrwt>
<pdfrwt beam="2">  1       21 0.67051052E-01 0.42891566E+03</pdfrwt>
<totfact> 0.75909842E+04</totfact>
</mgrwt>
</event>
<event>
 6    0  0.1539497E-004  0.4312721E+03  0.7546771E-02  0.1033459E+00
         21   -1    0    0  502  501  0.00000000000E+00  0.00000000000E+00  0.99504462750E+02  0.99504462750E+02  0.00000000000E+00 0. -1.
         21   -1    0    0  501  502 -0.00000000000E+00 -0.00000000000E+00 -0.46730475287E+03  0.46730475287E+03  0.00000000000E+00 0. -1.
      99925    2    1    2    0    0  0.18878647327E+01 -0.54898484935E+02 -0.14436479922E+03  0.30491546928E+03  0.26289701495E+03 0.  0.
         25    1    1    2    0    0 -0.18878647327E+01  0.54898484935E+02 -0.22343549089E+03  0.26189374634E+03  0.12509000000E+03 0.  0.
         25    1    3    3    0    0  0.31088391452E+02 -0.48631221262E+02 -0.55141757569E+02  0.14839004445E+03  0.12509000000E+03 0.  0.
         25    1    3    3    0    0 -0.29200526719E+02 -0.62672636731E+01 -0.89223041655E+02  0.15652542483E+03  0.12509000000E+03 0.  0.
<mgrwt>
<rscale>  2 0.43127211E+03</rscale>
<asrwt>0</asrwt>
<pdfrwt beam="1">  1       21 0.14633009E-01 0.43127211E+03</pdfrwt>
<pdfrwt beam="2">  1       21 0.68721288E-01 0.43127211E+03</pdfrwt>
<totfact> 0.73645677E+04</totfact>
</mgrwt>
</event>
<event>
 6    0  0.1539497E-004  0.6492123E+03  0.7546771E-02  0.9808258E-01
         21   -1    0    0  502  501  0.00000000000E+00  0.00000000000E+00  0.52365605133E+03  0.52365605133E+03  0.00000000000E+00 0. -1.
         21   -1    0    0  501  502 -0.00000000000E+00 -0.00000000000E+00 -0.20121823962E+03  0.20121823962E+03  0.00000000000E+00 0. -1.
      99925    2    1    2    0    0  0.33962062459E+01 -0.66570504657E+02 -0.91996785273E+02  0.28687119783E+03  0.26341698756E+03 0.  0.
         25    1    3    3    0    0  0.15878633402E+02 -0.70252546470E+02 -0.33564602804E+02  0.14819460836E+03  0.12509000000E+03 0.  0.
         25    1    1    2    0    0 -0.33962062459E+01  0.66570504657E+02  0.41443459699E+03  0.43800309312E+03  0.12509000000E+03 0.  0.
         25    1    3    3    0    0 -0.12482427156E+02  0.36820418128E+01 -0.58432182469E+02  0.13867658947E+03  0.12509000000E+03 0.  0.
<mgrwt>
<rscale>  2 0.64921229E+03</rscale>
<asrwt>0</asrwt>
<pdfrwt beam="1">  1       21 0.77008243E-01 0.64921229E+03</pdfrwt>
<pdfrwt beam="2">  1       21 0.29590917E-01 0.64921229E+03</pdfrwt>
<totfact> 0.14082196E+04</totfact>
</mgrwt>
</event>
<event>
 6    0  0.1539497E-004  0.1516375E+04  0.7546771E-02  0.8873636E-01
         21   -1    0    0  502  501  0.00000000000E+00  0.00000000000E+00  0.13735903627E+04  0.13735903627E+04  0.00000000000E+00 0. -1.
         21   -1    0    0  501  502 -0.00000000000E+00 -0.00000000000E+00 -0.41850054279E+03  0.41850054279E+03  0.00000000000E+00 0. -1.
      99925    2    1    2    0    0 -0.55471290217E+03  0.37474413226E+03  0.14488376877E+03  0.73368601041E+03  0.26299103962E+03 0.  0.
         25    1    1    2    0    0  0.55471290217E+03 -0.37474413226E+03  0.81020605110E+03  0.10584048950E+04  0.12509000000E+03 0.  0.
         25    1    3    3    0    0 -0.22035737383E+03  0.11927717285E+03  0.47998867101E+02  0.28414048551E+03  0.12509000000E+03 0.  0.
         25    1    3    3    0    0 -0.33435552834E+03  0.25546695941E+03  0.96884901670E+02  0.44954552490E+03  0.12509000000E+03 0.  0.
<mgrwt>
<rscale>  2 0.15163750E+04</rscale>
<asrwt>0</asrwt>
<pdfrwt beam="1">  1       21 0.20199858E+00 0.15163750E+04</pdfrwt>
<pdfrwt beam="2">  1       21 0.61544198E-01 0.15163750E+04</pdfrwt>
<totfact> 0.19759099E+02</totfact>
</mgrwt>
</event>
<event>
 6    0  0.1539497E-004  0.4383455E+03  0.7546771E-02  0.1031256E+00
         21   -1    0    0  502  501  0.00000000000E+00  0.00000000000E+00  0.12330312957E+03  0.12330312957E+03  0.00000000000E+00 0. -1.
         21   -1    0    0  501  502 -0.00000000000E+00 -0.00000000000E+00 -0.38958204702E+03  0.38958204702E+03  0.00000000000E+00 0. -1.
      99925    2    1    2    0    0  0.89311170585E+02  0.26390301142E+02 -0.13965829849E+03  0.31200406142E+03  0.26300030574E+03 0.  0.
         25    1    1    2    0    0 -0.89311170585E+02 -0.26390301142E+02 -0.12662061896E+03  0.20088111517E+03  0.12509000000E+03 0.  0.
         25    1    3    3    0    0  0.85821884238E+02  0.47149598958E+01 -0.82286296500E+02  0.17264463314E+03  0.12509000000E+03 0.  0.
         25    1    3    3    0    0  0.34892863469E+01  0.21675341246E+02 -0.57372001986E+02  0.13935942828E+03  0.12509000000E+03 0.  0.
<mgrwt>
<rscale>  2 0.43834546E+03</rscale>
<asrwt>0</asrwt>
<pdfrwt beam="1">  1       21 0.18132813E-01 0.43834546E+03</pdfrwt>
<pdfrwt beam="2">  1       21 0.57291478E-01 0.43834546E+03</pdfrwt>
<totfact> 0.73628732E+04</totfact>
</mgrwt>
</event>
<event>
 6    0  0.1539497E-004  0.5808058E+03  0.7546771E-02  0.9946048E-01
         21   -1    0    0  502  501  0.00000000000E+00  0.00000000000E+00  0.10439461476E+03  0.10439461476E+03  0.00000000000E+00 0.  1.
         21   -1    0    0  501  502 -0.00000000000E+00 -0.00000000000E+00 -0.80783700404E+03  0.80783700404E+03  0.00000000000E+00 0.  1.
      99925    2    1    2    0    0  0.14349712262E+02  0.26619432185E+02 -0.82262683131E+02  0.27786087243E+03  0.26367595071E+03 0.  0.
         25    1    3    3    0    0  0.28060213978E+02 -0.19139168985E+00 -0.76025395669E+02  0.14904623821E+03  0.12509000000E+03 0.  0.
         25    1    1    2    0    0 -0.14349712262E+02 -0.26619432185E+02 -0.62117970615E+03  0.63437074636E+03  0.12509000000E+03 0.  0.
         25    1    3    3    0    0 -0.13710501716E+02  0.26810823875E+02 -0.62372874614E+01  0.12881463422E+03  0.12509000000E+03 0.  0.
<mgrwt>
<rscale>  2 0.58080576E+03</rscale>
<asrwt>0</asrwt>
<pdfrwt beam="1">  1       21 0.15352150E-01 0.58080576E+03</pdfrwt>
<pdfrwt beam="2">  1       21 0.11879956E+00 0.58080576E+03</pdfrwt>
<totfact> 0.17699555E+04</totfact>
</mgrwt>
</event>
<event>
 6    0  0.1539497E-004  0.4308745E+03  0.7546771E-02  0.1033584E+00
         21   -1    0    0  502  501  0.00000000000E+00  0.00000000000E+00  0.26745929070E+03  0.26745929070E+03  0.00000000000E+00 0. -1.
         21   -1    0    0  501  502 -0.00000000000E+00 -0.00000000000E+00 -0.17353369944E+03  0.17353369944E+03  0.00000000000E+00 0. -1.
      99925    2    1    2    0    0 -0.31323187647E+02  0.50447809945E+02  0.12780927634E+03  0.29843866426E+03  0.26306710474E+03 0.  0.
         25    1    3    3    0    0  0.14423335647E+01 -0.12627843896E+02  0.56024815088E+02  0.13765111977E+03  0.12509000000E+03 0.  0.
         25    1    1    2    0    0  0.31323187647E+02 -0.50447809945E+02 -0.33883685070E+02  0.14255432588E+03  0.12509000000E+03 0.  0.
         25    1    3    3    0    0 -0.32765521212E+02  0.63075653841E+02  0.71784461248E+02  0.16078754449E+03  0.12509000000E+03 0.  0.
<mgrwt>
<rscale>  2 0.43087446E+03</rscale>
<asrwt>0</asrwt>
<pdfrwt beam="1">  1       21 0.39332249E-01 0.43087446E+03</pdfrwt>
<pdfrwt beam="2">  1       21 0.25519662E-01 0.43087446E+03</pdfrwt>
<totfact> 0.84746841E+04</totfact>
</mgrwt>
</event>
<event>
 6    0  0.1539497E-004  0.4210400E+03  0.7546771E-02  0.1036728E+00
         21   -1    0    0  502  501  0.00000000000E+00  0.00000000000E+00  0.39712663545E+02  0.39712663545E+02  0.00000000000E+00 0.  1.
         21   -1    0    0  501  502 -0.00000000000E+00 -0.00000000000E+00 -0.11159831914E+04  0.11159831914E+04  0.00000000000E+00 0.  1.
      99925    2    1    2    0    0  0.17055823127E+02 -0.18989241857E+02 -0.89927943886E+03  0.93746467915E+03  0.26360011967E+03 0.  0.
         25    1    1    2    0    0 -0.17055823127E+02  0.18989241857E+02 -0.17699108904E+03  0.21823117584E+03  0.12509000000E+03 0.  0.
         25    1    3    3    0    0 -0.30298334461E+01  0.94218280766E+01 -0.56699325957E+03  0.58071233432E+03  0.12509000000E+03 0.  0.
         25    1    3    3    0    0  0.20085656573E+02 -0.28411069933E+02 -0.33228617929E+03  0.35675234483E+03  0.12509000000E+03 0.  0.
<mgrwt>
<rscale>  2 0.42103997E+03</rscale>
<asrwt>0</asrwt>
<pdfrwt beam="1">  1       21 0.58400976E-02 0.42103997E+03</pdfrwt>
<pdfrwt beam="2">  1       21 0.16411517E+00 0.42103997E+03</pdfrwt>
<totfact> 0.44175040E+04</totfact>
</mgrwt>
</event>
<event>
 6    0  0.1539497E-004  0.4737349E+03  0.7546771E-02  0.1020871E+00
         21   -1    0    0  502  501  0.00000000000E+00  0.00000000000E+00  0.37446459624E+03  0.37446459624E+03  0.00000000000E+00 0. -1.
         21   -1    0    0  501  502 -0.00000000000E+00 -0.00000000000E+00 -0.14983041341E+03  0.14983041341E+03  0.00000000000E+00 0. -1.
      99925    2    1    2    0    0  0.45280526963E+02 -0.90475909830E+02  0.22932677626E+03  0.36334239267E+03  0.26304126600E+03 0.  0.
         25    1    3    3    0    0  0.35051938129E+02 -0.27469150109E+02  0.67092829688E+02  0.14876877518E+03  0.12509000000E+03 0.  0.
         25    1    1    2    0    0 -0.45280526963E+02  0.90475909830E+02 -0.46925934300E+01  0.16095261699E+03  0.12509000000E+03 0.  0.
         25    1    3    3    0    0  0.10228588834E+02 -0.63006759721E+02  0.16223394657E+03  0.21457361748E+03  0.12509000000E+03 0.  0.
<mgrwt>
<rscale>  2 0.47373488E+03</rscale>
<asrwt>0</asrwt>
<pdfrwt beam="1">  1       21 0.55068323E-01 0.47373488E+03</pdfrwt>
<pdfrwt beam="2">  1       21 0.22033884E-01 0.47373488E+03</pdfrwt>
<totfact> 0.54958973E+04</totfact>
</mgrwt>
</event>
<event>
 6    0  0.1539497E-004  0.4388872E+03  0.7546771E-02  0.1031089E+00
         21   -1    0    0  502  501  0.00000000000E+00  0.00000000000E+00  0.50539802072E+03  0.50539802072E+03  0.00000000000E+00 0.  1.
         21   -1    0    0  501  502 -0.00000000000E+00 -0.00000000000E+00 -0.95282330646E+02  0.95282330646E+02  0.00000000000E+00 0.  1.
      99925    2    1    2    0    0 -0.10445522443E+02 -0.43007427299E+02  0.14390101664E+03  0.30323034180E+03  0.26321548179E+03 0.  0.
         25    1    1    2    0    0  0.10445522443E+02  0.43007427299E+02  0.26621467343E+03  0.29745000957E+03  0.12509000000E+03 0.  0.
         25    1    3    3    0    0 -0.37382775337E+02 -0.19223504669E+01  0.89211051526E+02  0.15813692528E+03  0.12509000000E+03 0.  0.
         25    1    3    3    0    0  0.26937252894E+02 -0.41085076832E+02  0.54689965118E+02  0.14509341652E+03  0.12509000000E+03 0.  0.
<mgrwt>
<rscale>  2 0.43888724E+03</rscale>
<asrwt>0</asrwt>
<pdfrwt beam="1">  1       21 0.74323237E-01 0.43888724E+03</pdfrwt>
<pdfrwt beam="2">  1       21 0.14012108E-01 0.43888724E+03</pdfrwt>
<totfact> 0.66734467E+04</totfact>
</mgrwt>
</event>
<event>
 6    0  0.1539497E-004  0.4049244E+03  0.7546771E-02  0.1042088E+00
         21   -1    0    0  502  501  0.00000000000E+00  0.00000000000E+00  0.60291990791E+03  0.60291990791E+03  0.00000000000E+00 0.  1.
         21   -1    0    0  501  502 -0.00000000000E+00 -0.00000000000E+00 -0.67987365880E+02  0.67987365880E+02  0.00000000000E+00 0.  1.
      99925    2    1    2    0    0  0.14919346343E+02 -0.13749164191E+02  0.27271851590E+03  0.37967655767E+03  0.26337667535E+03 0.  0.
         25    1    1    2    0    0 -0.14919346343E+02  0.13749164191E+02  0.26221402613E+03  0.29123071612E+03  0.12509000000E+03 0.  0.
         25    1    3    3    0    0  0.96838943023E+01  0.21656026737E+02  0.92385710929E+02  0.15730667178E+03  0.12509000000E+03 0.  0.
         25    1    3    3    0    0  0.52354520405E+01 -0.35405190928E+02  0.18033280497E+03  0.22236988589E+03  0.12509000000E+03 0.  0.
<mgrwt>
<rscale>  2 0.40492437E+03</rscale>
<asrwt>0</asrwt>
<pdfrwt beam="1">  1       21 0.88664689E-01 0.40492437E+03</pdfrwt>
<pdfrwt beam="2">  1       21 0.99981424E-02 0.40492437E+03</pdfrwt>
<totfact> 0.82571034E+04</totfact>
</mgrwt>
</event>
<event>
 6    0  0.1539497E-004  0.4386817E+03  0.7546771E-02  0.1031152E+00
         21   -1    0    0  502  501  0.00000000000E+00  0.00000000000E+00  0.26149233698E+02  0.26149233698E+02  0.00000000000E+00 0. -1.
         21   -1    0    0  501  502 -0.00000000000E+00 -0.00000000000E+00 -0.18398399114E+04  0.18398399114E+04  0.00000000000E+00 0. -1.
      99925    2    1    2    0    0 -0.90501181139E+02 -0.15035131264E+02 -0.10231225258E+04  0.10603452847E+04  0.26293706651E+03 0.  0.
         25    1    3    3    0    0 -0.50771275684E+02 -0.15592595472E+02 -0.37005496983E+03  0.39421953308E+03  0.12509000000E+03 0.  0.
         25    1    3    3    0    0 -0.39729905455E+02  0.55746420840E+00 -0.65306755598E+03  0.66612575159E+03  0.12509000000E+03 0.  0.
         25    1    1    2    0    0  0.90501181139E+02  0.15035131264E+02 -0.79056815190E+03  0.80564386043E+03  0.12509000000E+03 0.  0.
<mgrwt>
<rscale>  2 0.43868168E+03</rscale>
<asrwt>0</asrwt>
<pdfrwt beam="1">  1       21 0.38454756E-02 0.43868168E+03</pdfrwt>
<pdfrwt beam="2">  1       21 0.27056469E+00 0.43868168E+03</pdfrwt>
<totfact> 0.18224739E+04</totfact>
</mgrwt>
</event>
<event>
 6    0  0.1539497E-004  0.4550256E+03  0.7546771E-02  0.1026234E+00
         21   -1    0    0  502  501  0.00000000000E+00  0.00000000000E+00  0.11796091192E+03  0.11796091192E+03  0.00000000000E+00 0. -1.
         21   -1    0    0  501  502 -0.00000000000E+00 -0.00000000000E+00 -0.43880707278E+03  0.43880707278E+03  0.00000000000E+00 0. -1.
      99925    2    1    2    0    0  0.14001383680E+02  0.95929097233E+02 -0.13043970002E+03  0.30917848802E+03  0.26301785428E+03 0.  0.
         25    1    1    2    0    0 -0.14001383680E+02 -0.95929097233E+02 -0.19040646084E+03  0.24758949669E+03  0.12509000000E+03 0.  0.
         25    1    3    3    0    0  0.11854133971E+02  0.53221661995E+02 -0.11028934507E+03  0.17545459109E+03  0.12509000000E+03 0.  0.
         25    1    3    3    0    0  0.21472497081E+01  0.42707435238E+02 -0.20150354948E+02  0.13372389693E+03  0.12509000000E+03 0.  0.
<mgrwt>
<rscale>  2 0.45502564E+03</rscale>
<asrwt>0</asrwt>
<pdfrwt beam="1">  1       21 0.17347193E-01 0.45502564E+03</pdfrwt>
<pdfrwt beam="2">  1       21 0.64530452E-01 0.45502564E+03</pdfrwt>
<totfact> 0.61409027E+04</totfact>
</mgrwt>
</event>
<event>
 6    0  0.1539497E-004  0.4799505E+03  0.7546771E-02  0.1019149E+00
         21   -1    0    0  502  501  0.00000000000E+00  0.00000000000E+00  0.21237239525E+03  0.21237239525E+03  0.00000000000E+00 0.  1.
         21   -1    0    0  501  502 -0.00000000000E+00 -0.00000000000E+00 -0.27116574848E+03  0.27116574848E+03  0.00000000000E+00 0.  1.
      99925    2    1    2    0    0 -0.11694718364E+03  0.28238178210E+02  0.26191688999E+02  0.29029217618E+03  0.26288686637E+03 0.  0.
         25    1    3    3    0    0 -0.64360984240E+02  0.39529867412E+02  0.44859593206E+02  0.15285561132E+03  0.12509000000E+03 0.  0.
         25    1    3    3    0    0 -0.52586199404E+02 -0.11291689202E+02 -0.18667904208E+02  0.13743656486E+03  0.12509000000E+03 0.  0.
         25    1    1    2    0    0  0.11694718364E+03 -0.28238178210E+02 -0.84985042231E+02  0.19324596755E+03  0.12509000000E+03 0.  0.
<mgrwt>
<rscale>  2 0.47995050E+03</rscale>
<asrwt>0</asrwt>
<pdfrwt beam="1">  1       21 0.31231235E-01 0.47995050E+03</pdfrwt>
<pdfrwt beam="2">  1       21 0.39877316E-01 0.47995050E+03</pdfrwt>
<totfact> 0.54761636E+04</totfact>
</mgrwt>
</event>
<event>
 6    0  0.1697340E-004  0.4172986E+03  0.7546771E-02  0.1037949E+00
         21   -1    0    0  502  501  0.00000000000E+00  0.00000000000E+00  0.83241697517E+02  0.83241697517E+02  0.00000000000E+00 0.  1.
         21   -1    0    0  501  502 -0.00000000000E+00 -0.00000000000E+00 -0.52298949252E+03  0.52298949252E+03  0.00000000000E+00 0.  1.
      99925    2    1    2    0    0  0.52016454581E+02  0.93432200291E+01 -0.21509249852E+03  0.34372306132E+03  0.26284549198E+03 0.  0.
         25    1    3    3    0    0  0.13065138515E+02 -0.23420676532E+02 -0.13817561231E+03  0.18830622366E+03  0.12509000000E+03 0.  0.
         25    1    3    3    0    0  0.38951316066E+02  0.32763896561E+02 -0.76916886213E+02  0.15541683765E+03  0.12509000000E+03 0.  0.
         25    1    1    2    0    0 -0.52016454581E+02 -0.93432200291E+01 -0.22465529648E+03  0.26250812872E+03  0.12509000000E+03 0.  0.
<mgrwt>
<rscale>  2 0.41729861E+03</rscale>
<asrwt>0</asrwt>
<pdfrwt beam="1">  1       21 0.12241426E-01 0.41729861E+03</pdfrwt>
<pdfrwt beam="2">  1       21 0.76910222E-01 0.41729861E+03</pdfrwt>
<totfact> 0.79432406E+04</totfact>
</mgrwt>
</event>
<event>
 6    0  0.1539497E-004  0.5042152E+03  0.7546771E-02  0.1012685E+00
         21   -1    0    0  502  501  0.00000000000E+00  0.00000000000E+00  0.85808015003E+02  0.85808015003E+02  0.00000000000E+00 0. -1.
         21   -1    0    0  501  502 -0.00000000000E+00 -0.00000000000E+00 -0.74070286684E+03  0.74070286684E+03  0.00000000000E+00 0. -1.
      99925    2    1    2    0    0 -0.14822076506E+03 -0.37930309822E+02 -0.43512891196E+03  0.53095601379E+03  0.26300002844E+03 0.  0.
         25    1    3    3    0    0 -0.10436104831E+03 -0.67720382519E+01 -0.28443474529E+03  0.32785320089E+03  0.12509000000E+03 0.  0.
         25    1    1    2    0    0  0.14822076506E+03  0.37930309822E+02 -0.21976593988E+03  0.29555486805E+03  0.12509000000E+03 0.  0.
         25    1    3    3    0    0 -0.43859716749E+02 -0.31158271570E+02 -0.15069416667E+03  0.20310281290E+03  0.12509000000E+03 0.  0.
<mgrwt>
<rscale>  2 0.50421520E+03</rscale>
<asrwt>0</asrwt>
<pdfrwt beam="1">  1       21 0.12618825E-01 0.50421520E+03</pdfrwt>
<pdfrwt beam="2">  1       21 0.10892690E+00 0.50421520E+03</pdfrwt>
<totfact> 0.32169112E+04</totfact>
</mgrwt>
</event>
<event>
 6    0  0.1539497E-004  0.4009961E+03  0.7546771E-02  0.1043435E+00
         21   -1    0    0  502  501  0.00000000000E+00  0.00000000000E+00  0.10092669081E+03  0.10092669081E+03  0.00000000000E+00 0. -1.
         21   -1    0    0  501  502 -0.00000000000E+00 -0.00000000000E+00 -0.39830372291E+03  0.39830372291E+03  0.00000000000E+00 0. -1.
      99925    2    1    2    0    0 -0.26122333715E+02  0.79086895279E+01 -0.14997473728E+03  0.30398731318E+03  0.26300369021E+03 0.  0.
         25    1    3    3    0    0 -0.18147225360E+02  0.28017385933E+02 -0.38572841131E+02  0.13509133161E+03  0.12509000000E+03 0.  0.
         25    1    1    2    0    0  0.26122333715E+02 -0.79086895279E+01 -0.14740229482E+03  0.19524310054E+03  0.12509000000E+03 0.  0.
         25    1    3    3    0    0 -0.79751083545E+01 -0.20108696405E+02 -0.11140189615E+03  0.16889598157E+03  0.12509000000E+03 0.  0.
<mgrwt>
<rscale>  2 0.40099614E+03</rscale>
<asrwt>0</asrwt>
<pdfrwt beam="1">  1       21 0.14842160E-01 0.40099614E+03</pdfrwt>
<pdfrwt beam="2">  1       21 0.58574077E-01 0.40099614E+03</pdfrwt>
<totfact> 0.10275028E+05</totfact>
</mgrwt>
</event>
<event>
 6    0  0.1539497E-004  0.4201615E+03  0.7546771E-02  0.1037014E+00
         21   -1    0    0  502  501  0.00000000000E+00  0.00000000000E+00  0.18983586913E+02  0.18983586913E+02  0.00000000000E+00 0. -1.
         21   -1    0    0  501  502 -0.00000000000E+00 -0.00000000000E+00 -0.23248458475E+04  0.23248458475E+04  0.00000000000E+00 0. -1.
      99925    2    1    2    0    0 -0.42436692522E+02  0.26492799030E+02 -0.11844036806E+04  0.12143075904E+04  0.26311234164E+03 0.  0.
         25    1    1    2    0    0  0.42436692522E+02 -0.26492799030E+02 -0.11214585800E+04  0.11295218440E+04  0.12509000000E+03 0.  0.
         25    1    3    3    0    0 -0.48670345791E+02  0.32574721709E+02 -0.51150114308E+03  0.52982151950E+03  0.12509000000E+03 0.  0.
         25    1    3    3    0    0  0.62336532696E+01 -0.60819226795E+01 -0.67290253749E+03  0.68448607092E+03  0.12509000000E+03 0.  0.
<mgrwt>
<rscale>  2 0.42016146E+03</rscale>
<asrwt>0</asrwt>
<pdfrwt beam="1">  1       21 0.27917054E-02 0.42016146E+03</pdfrwt>
<pdfrwt beam="2">  1       21 0.34188892E+00 0.42016146E+03</pdfrwt>
<totfact> 0.11734215E+04</totfact>
</mgrwt>
</event>
<event>
 6    0  0.1539497E-004  0.4645683E+03  0.7546771E-02  0.1023465E+00
         21   -1    0    0  502  501  0.00000000000E+00  0.00000000000E+00  0.31333672145E+02  0.31333672145E+02  0.00000000000E+00 0. -1.
         21   -1    0    0  501  502 -0.00000000000E+00 -0.00000000000E+00 -0.17219791919E+04  0.17219791919E+04  0.00000000000E+00 0. -1.
      99925    2    1    2    0    0  0.88334620948E+01  0.11955139155E+03 -0.11381041815E+04  0.11742446437E+04  0.26305662879E+03 0.  0.
         25    1    3    3    0    0  0.33459725139E+02  0.36404381180E+02 -0.60934084975E+03  0.62401010525E+03  0.12509000000E+03 0.  0.
         25    1    3    3    0    0 -0.24626263045E+02  0.83147010367E+02 -0.52876333178E+03  0.55023453845E+03  0.12509000000E+03 0.  0.
         25    1    1    2    0    0 -0.88334620948E+01 -0.11955139155E+03 -0.55254133820E+03  0.57906822033E+03  0.12509000000E+03 0.  0.
<mgrwt>
<rscale>  2 0.46456832E+03</rscale>
<asrwt>0</asrwt>
<pdfrwt beam="1">  1       21 0.46078929E-02 0.46456832E+03</pdfrwt>
<pdfrwt beam="2">  1       21 0.25323224E+00 0.46456832E+03</pdfrwt>
<totfact> 0.16884556E+04</totfact>
</mgrwt>
</event>
<event>
 6    0  0.1539497E-004  0.4541672E+03  0.7546771E-02  0.1026487E+00
         21   -1    0    0  502  501  0.00000000000E+00  0.00000000000E+00  0.10964776512E+03  0.10964776512E+03  0.00000000000E+00 0. -1.
         21   -1    0    0  501  502 -0.00000000000E+00 -0.00000000000E+00 -0.47029641870E+03  0.47029641870E+03  0.00000000000E+00 0. -1.
      99925    2    1    2    0    0  0.30900418467E+02  0.53836925784E+02 -0.10736375028E+03  0.29071417020E+03  0.26293440901E+03 0.  0.
         25    1    3    3    0    0 -0.21788664709E+02  0.15620213058E+02 -0.37308849156E+02  0.13325987878E+03  0.12509000000E+03 0.  0.
         25    1    1    2    0    0 -0.30900418467E+02 -0.53836925784E+02 -0.25328490330E+03  0.28923001362E+03  0.12509000000E+03 0.  0.
         25    1    3    3    0    0  0.52689083176E+02  0.38216712726E+02 -0.70054901125E+02  0.15745429143E+03  0.12509000000E+03 0.  0.
<mgrwt>
<rscale>  2 0.45416716E+03</rscale>
<asrwt>0</asrwt>
<pdfrwt beam="1">  1       21 0.16124671E-01 0.45416716E+03</pdfrwt>
<pdfrwt beam="2">  1       21 0.69161238E-01 0.45416716E+03</pdfrwt>
<totfact> 0.60326275E+04</totfact>
</mgrwt>
</event>
<event>
 6    0  0.1539497E-004  0.3980780E+03  0.7546771E-02  0.1044447E+00
         21   -1    0    0  502  501  0.00000000000E+00  0.00000000000E+00  0.53373375884E+03  0.53373375884E+03  0.00000000000E+00 0. -1.
         21   -1    0    0  501  502 -0.00000000000E+00 -0.00000000000E+00 -0.74225258110E+02  0.74225258110E+02  0.00000000000E+00 0. -1.
      99925    2    1    2    0    0  0.53734377267E+01 -0.41587845302E+02  0.31221622153E+03  0.41021942475E+03  0.26275955691E+03 0.  0.
         25    1    3    3    0    0  0.12167021819E+02 -0.55476356007E+02  0.19161325630E+03  0.23577279442E+03  0.12509000000E+03 0.  0.
         25    1    1    2    0    0 -0.53734377267E+01  0.41587845302E+02  0.14729227920E+03  0.19773959220E+03  0.12509000000E+03 0.  0.
         25    1    3    3    0    0 -0.67935840922E+01  0.13888510705E+02  0.12060296522E+03  0.17444663033E+03  0.12509000000E+03 0.  0.
<mgrwt>
<rscale>  2 0.39807801E+03</rscale>
<asrwt>0</asrwt>
<pdfrwt beam="1">  1       21 0.78490256E-01 0.39807801E+03</pdfrwt>
<pdfrwt beam="2">  1       21 0.10915479E-01 0.39807801E+03</pdfrwt>
<totfact> 0.93730788E+04</totfact>
</mgrwt>
</event>
<event>
 6    0  0.1539497E-004  0.4210899E+03  0.7546771E-02  0.1036712E+00
         21   -1    0    0  502  501  0.00000000000E+00  0.00000000000E+00  0.70251450822E+03  0.70251450822E+03  0.00000000000E+00 0.  1.
         21   -1    0    0  501  502 -0.00000000000E+00 -0.00000000000E+00 -0.63100725703E+02  0.63100725703E+02  0.00000000000E+00 0.  1.
      99925    2    1    2    0    0 -0.42805817486E+02 -0.61225955975E+02  0.45237342391E+03  0.52852335396E+03  0.26289592109E+03 0.  0.
         25    1    3    3    0    0 -0.19257231485E+02  0.18948028432E+01  0.16512502300E+03  0.20805819513E+03  0.12509000000E+03 0.  0.
         25    1    3    3    0    0 -0.23548586002E+02 -0.63120758818E+02  0.28724840091E+03  0.32046515883E+03  0.12509000000E+03 0.  0.
         25    1    1    2    0    0  0.42805817486E+02  0.61225955975E+02  0.18704035861E+03  0.23709187996E+03  0.12509000000E+03 0.  0.
<mgrwt>
<rscale>  2 0.42108990E+03</rscale>
<asrwt>0</asrwt>
<pdfrwt beam="1">  1       21 0.10331095E+00 0.42108990E+03</pdfrwt>
<pdfrwt beam="2">  1       21 0.92795189E-02 0.42108990E+03</pdfrwt>
<totfact> 0.65166321E+04</totfact>
</mgrwt>
</event>
<event>
 6    0  0.1539497E-004  0.3920656E+03  0.7546771E-02  0.1046562E+00
         21   -1    0    0  502  501  0.00000000000E+00  0.00000000000E+00  0.43157970498E+03  0.43157970498E+03  0.00000000000E+00 0. -1.
         21   -1    0    0  501  502 -0.00000000000E+00 -0.00000000000E+00 -0.89042333255E+02  0.89042333255E+02  0.00000000000E+00 0. -1.
      99925    2    1    2    0    0  0.80568557232E+01  0.12558698030E+01  0.19838899905E+03  0.32959127742E+03  0.26306981027E+03 0.  0.
         25    1    3    3    0    0 -0.34620089693E+02  0.15024673144E+01  0.82424289903E+02  0.15375981167E+03  0.12509000000E+03 0.  0.
         25    1    3    3    0    0  0.42676945416E+02 -0.24659751143E+00  0.11596470915E+03  0.17583146575E+03  0.12509000000E+03 0.  0.
         25    1    1    2    0    0 -0.80568557232E+01 -0.12558698030E+01  0.14414837267E+03  0.19103076081E+03  0.12509000000E+03 0.  0.
<mgrwt>
<rscale>  2 0.39206563E+03</rscale>
<asrwt>0</asrwt>
<pdfrwt beam="1">  1       21 0.63467603E-01 0.39206563E+03</pdfrwt>
<pdfrwt beam="2">  1       21 0.13094461E-01 0.39206563E+03</pdfrwt>
<totfact> 0.10872230E+05</totfact>
</mgrwt>
</event>
<event>
 6    0  0.1539497E-004  0.4028057E+03  0.7546771E-02  0.1042812E+00
         21   -1    0    0  502  501  0.00000000000E+00  0.00000000000E+00  0.22216824254E+03  0.22216824254E+03  0.00000000000E+00 0.  1.
         21   -1    0    0  501  502 -0.00000000000E+00 -0.00000000000E+00 -0.18257830928E+03  0.18257830928E+03  0.00000000000E+00 0.  1.
      99925    2    1    2    0    0  0.11316386852E+02  0.35614545763E+02  0.60573482116E+02  0.27251843868E+03  0.26306025204E+03 0.  0.
         25    1    1    2    0    0 -0.11316386852E+02 -0.35614545763E+02 -0.20983548856E+02  0.13222811314E+03  0.12509000000E+03 0.  0.
         25    1    3    3    0    0  0.18889029864E+01  0.48794672686E+02  0.41736834573E+01  0.13434811413E+03  0.12509000000E+03 0.  0.
         25    1    3    3    0    0  0.94274838653E+01 -0.13180126923E+02  0.56399798658E+02  0.13817032455E+03  0.12509000000E+03 0.  0.
<mgrwt>
<rscale>  2 0.40280567E+03</rscale>
<asrwt>0</asrwt>
<pdfrwt beam="1">  1       21 0.32671800E-01 0.40280567E+03</pdfrwt>
<pdfrwt beam="2">  1       21 0.26849751E-01 0.40280567E+03</pdfrwt>
<totfact> 0.11240383E+05</totfact>
</mgrwt>
</event>
<event>
 6    0  0.1539497E-004  0.3949744E+03  0.7546771E-02  0.1045534E+00
         21   -1    0    0  502  501  0.00000000000E+00  0.00000000000E+00  0.31883949863E+03  0.31883949863E+03  0.00000000000E+00 0.  1.
         21   -1    0    0  501  502 -0.00000000000E+00 -0.00000000000E+00 -0.12232235518E+03  0.12232235518E+03  0.00000000000E+00 0.  1.
      99925    2    1    2    0    0 -0.29261168308E+02 -0.75874589835E+00  0.15186128735E+03  0.30515286422E+03  0.26305822222E+03 0.  0.
         25    1    1    2    0    0  0.29261168308E+02  0.75874589835E+00  0.44655856093E+02  0.13600898959E+03  0.12509000000E+03 0.  0.
         25    1    3    3    0    0 -0.33163608457E+02 -0.35515478283E+02  0.87411268350E+02  0.16015433824E+03  0.12509000000E+03 0.  0.
         25    1    3    3    0    0  0.39024401482E+01  0.34756732385E+02  0.64450019001E+02  0.14499852597E+03  0.12509000000E+03 0.  0.
<mgrwt>
<rscale>  2 0.39497442E+03</rscale>
<asrwt>0</asrwt>
<pdfrwt beam="1">  1       21 0.46888162E-01 0.39497442E+03</pdfrwt>
<pdfrwt beam="2">  1       21 0.17988582E-01 0.39497442E+03</pdfrwt>
<totfact> 0.11568210E+05</totfact>
</mgrwt>
</event>
<event>
 6    0  0.1539497E-004  0.4395682E+03  0.7546771E-02  0.1030879E+00
         21   -1    0    0  502  501  0.00000000000E+00  0.00000000000E+00  0.27832629544E+03  0.27832629544E+03  0.00000000000E+00 0. -1.
         21   -1    0    0  501  502 -0.00000000000E+00 -0.00000000000E+00 -0.17355546933E+03  0.17355546933E+03  0.00000000000E+00 0. -1.
      99925    2    1    2    0    0 -0.17580981647E+02  0.94085331628E+02  0.45622606696E+02  0.28363444532E+03  0.26307021075E+03 0.  0.
         25    1    3    3    0    0 -0.58140411604E+01  0.37512166120E+02 -0.17833138852E+02  0.13193367509E+03  0.12509000000E+03 0.  0.
         25    1    3    3    0    0 -0.11766940486E+02  0.56573165507E+02  0.63455745548E+02  0.15170077023E+03  0.12509000000E+03 0.  0.
         25    1    1    2    0    0  0.17580981647E+02 -0.94085331628E+02  0.59148219420E+02  0.16824731945E+03  0.12509000000E+03 0.  0.
<mgrwt>
<rscale>  2 0.43956820E+03</rscale>
<asrwt>0</asrwt>
<pdfrwt beam="1">  1       21 0.40930338E-01 0.43956820E+03</pdfrwt>
<pdfrwt beam="2">  1       21 0.25522863E-01 0.43956820E+03</pdfrwt>
<totfact> 0.77916685E+04</totfact>
</mgrwt>
</event>
<event>
 6    0  0.1539497E-004  0.4893353E+03  0.7546771E-02  0.1016601E+00
         21   -1    0    0  502  501  0.00000000000E+00  0.00000000000E+00  0.12488030523E+03  0.12488030523E+03  0.00000000000E+00 0. -1.
         21   -1    0    0  501  502 -0.00000000000E+00 -0.00000000000E+00 -0.47935710603E+03  0.47935710603E+03  0.00000000000E+00 0. -1.
      99925    2    1    2    0    0  0.93939742314E+02 -0.76709325587E+02 -0.12342982807E+03  0.31486013584E+03  0.26304559846E+03 0.  0.
         25    1    3    3    0    0  0.48574494074E+02 -0.45560072518E+02 -0.10625911069E+03  0.17712624985E+03  0.12509000000E+03 0.  0.
         25    1    1    2    0    0 -0.93939742314E+02  0.76709325587E+02 -0.23104697273E+03  0.28937727541E+03  0.12509000000E+03 0.  0.
         25    1    3    3    0    0  0.45365248239E+02 -0.31149253069E+02 -0.17170717381E+02  0.13773388599E+03  0.12509000000E+03 0.  0.
<mgrwt>
<rscale>  2 0.48933531E+03</rscale>
<asrwt>0</asrwt>
<pdfrwt beam="1">  1       21 0.18364751E-01 0.48933531E+03</pdfrwt>
<pdfrwt beam="2">  1       21 0.70493691E-01 0.48933531E+03</pdfrwt>
<totfact> 0.44929885E+04</totfact>
</mgrwt>
</event>
<event>
 6    0  0.1539497E-004  0.4547895E+03  0.7546771E-02  0.1026303E+00
         21   -1    0    0  502  501  0.00000000000E+00  0.00000000000E+00  0.47864823355E+03  0.47864823355E+03  0.00000000000E+00 0. -1.
         21   -1    0    0  501  502 -0.00000000000E+00 -0.00000000000E+00 -0.10803000510E+03  0.10803000510E+03  0.00000000000E+00 0. -1.
      99925    2    1    2    0    0  0.71787294224E+02  0.39352738366E+02  0.13280744397E+03  0.30578051536E+03  0.26298641177E+03 0.  0.
         25    1    1    2    0    0 -0.71787294224E+02 -0.39352738366E+02  0.23781078448E+03  0.28089772328E+03  0.12509000000E+03 0.  0.
         25    1    3    3    0    0  0.48931211772E+01 -0.90795805334E+01  0.62625096160E+02  0.14027042520E+03  0.12509000000E+03 0.  0.
         25    1    3    3    0    0  0.66894173046E+02  0.48432318899E+02  0.70182347806E+02  0.16551009016E+03  0.12509000000E+03 0.  0.
<mgrwt>
<rscale>  2 0.45478949E+03</rscale>
<asrwt>0</asrwt>
<pdfrwt beam="1">  1       21 0.70389446E-01 0.45478949E+03</pdfrwt>
<pdfrwt beam="2">  1       21 0.15886766E-01 0.45478949E+03</pdfrwt>
<totfact> 0.59604953E+04</totfact>
</mgrwt>
</event>
<event>
 6    0  0.1539497E-004  0.4132525E+03  0.7546771E-02  0.1039285E+00
         21   -1    0    0  502  501  0.00000000000E+00  0.00000000000E+00  0.38983644098E+02  0.38983644098E+02  0.00000000000E+00 0.  1.
         21   -1    0    0  501  502 -0.00000000000E+00 -0.00000000000E+00 -0.10951874406E+04  0.10951874406E+04  0.00000000000E+00 0.  1.
      99925    2    1    2    0    0 -0.31485929976E+02  0.57144497114E+02 -0.65061973457E+03  0.70474961722E+03  0.26288614765E+03 0.  0.
         25    1    3    3    0    0 -0.45502956893E+02  0.35498476817E+02 -0.26729638124E+03  0.30070837113E+03  0.12509000000E+03 0.  0.
         25    1    1    2    0    0  0.31485929976E+02 -0.57144497114E+02 -0.40558406198E+03  0.42942146752E+03  0.12509000000E+03 0.  0.
         25    1    3    3    0    0  0.14017026917E+02  0.21646020297E+02 -0.38332335333E+03  0.40404124609E+03  0.12509000000E+03 0.  0.
<mgrwt>
<rscale>  2 0.41325245E+03</rscale>
<asrwt>0</asrwt>
<pdfrwt beam="1">  1       21 0.57328891E-02 0.41325245E+03</pdfrwt>
<pdfrwt beam="2">  1       21 0.16105697E+00 0.41325245E+03</pdfrwt>
<totfact> 0.48186351E+04</totfact>
</mgrwt>
</event>
<event>
 6    0  0.1539497E-004  0.4042589E+03  0.7546771E-02  0.1042315E+00
         21   -1    0    0  502  501  0.00000000000E+00  0.00000000000E+00  0.55413974404E+03  0.55413974404E+03  0.00000000000E+00 0. -1.
         21   -1    0    0  501  502 -0.00000000000E+00 -0.00000000000E+00 -0.73729262615E+02  0.73729262615E+02  0.00000000000E+00 0. -1.
      99925    2    1    2    0    0  0.30141254120E+02 -0.30593553046E+02  0.27056712538E+03  0.37982424685E+03  0.26308825226E+03 0.  0.
         25    1    3    3    0    0  0.49634614122E+02 -0.29095146161E+02  0.11611912811E+03  0.18011463700E+03  0.12509000000E+03 0.  0.
         25    1    3    3    0    0 -0.19493360002E+02 -0.14984068855E+01  0.15444799727E+03  0.19970960985E+03  0.12509000000E+03 0.  0.
         25    1    1    2    0    0 -0.30141254120E+02  0.30593553046E+02  0.20984335605E+03  0.24804475980E+03  0.12509000000E+03 0.  0.
<mgrwt>
<rscale>  2 0.40425890E+03</rscale>
<asrwt>0</asrwt>
<pdfrwt beam="1">  1       21 0.81491137E-01 0.40425890E+03</pdfrwt>
<pdfrwt beam="2">  1       21 0.10842539E-01 0.40425890E+03</pdfrwt>
<totfact> 0.86898076E+04</totfact>
</mgrwt>
</event>
<event>
 6    0  0.1539497E-004  0.4810141E+03  0.7546771E-02  0.1018857E+00
         21   -1    0    0  502  501  0.00000000000E+00  0.00000000000E+00  0.43710065103E+03  0.43710065103E+03  0.00000000000E+00 0. -1.
         21   -1    0    0  501  502 -0.00000000000E+00 -0.00000000000E+00 -0.13233480471E+03  0.13233480471E+03  0.00000000000E+00 0. -1.
      99925    2    1    2    0    0  0.88146289405E+02  0.17197275715E+02  0.30860703597E+03  0.41539722196E+03  0.26315591336E+03 0.  0.
         25    1    1    2    0    0 -0.88146289405E+02 -0.17197275715E+02 -0.38411896563E+01  0.15403823378E+03  0.12509000000E+03 0.  0.
         25    1    3    3    0    0  0.43679662912E+02  0.68154885886E+01  0.21494573962E+03  0.25259363199E+03  0.12509000000E+03 0.  0.
         25    1    3    3    0    0  0.44466626493E+02  0.10381787127E+02  0.93661296348E+02  0.16280358998E+03  0.12509000000E+03 0.  0.
<mgrwt>
<rscale>  2 0.48101405E+03</rscale>
<asrwt>0</asrwt>
<pdfrwt beam="1">  1       21 0.64279507E-01 0.48101405E+03</pdfrwt>
<pdfrwt beam="2">  1       21 0.19461001E-01 0.48101405E+03</pdfrwt>
<totfact> 0.49580908E+04</totfact>
</mgrwt>
</event>
<event>
 6    0  0.1539497E-004  0.4097338E+03  0.7546771E-02  0.1040460E+00
         21   -1    0    0  502  501  0.00000000000E+00  0.00000000000E+00  0.40707206653E+02  0.40707206653E+02  0.00000000000E+00 0. -1.
         21   -1    0    0  501  502 -0.00000000000E+00 -0.00000000000E+00 -0.10310324651E+04  0.10310324651E+04  0.00000000000E+00 0. -1.
      99925    2    1    2    0    0  0.60830054179E+02 -0.88885324244E+01 -0.63326983577E+03  0.68844424462E+03  0.26295530333E+03 0.  0.
         25    1    3    3    0    0  0.28397244482E+02 -0.37579128552E+02 -0.37721894232E+03  0.40020024106E+03  0.12509000000E+03 0.  0.
         25    1    3    3    0    0  0.32432809697E+02  0.28690596128E+02 -0.25605089345E+03  0.28824400356E+03  0.12509000000E+03 0.  0.
         25    1    1    2    0    0 -0.60830054179E+02  0.88885324244E+01 -0.35705542266E+03  0.38329542712E+03  0.12509000000E+03 0.  0.
<mgrwt>
<rscale>  2 0.40973382E+03</rscale>
<asrwt>0</asrwt>
<pdfrwt beam="1">  1       21 0.59863535E-02 0.40973382E+03</pdfrwt>
<pdfrwt beam="2">  1       21 0.15162243E+00 0.40973382E+03</pdfrwt>
<totfact> 0.52823381E+04</totfact>
</mgrwt>
</event>
<event>
 6    0  0.1539497E-004  0.4795623E+03  0.7546771E-02  0.1019256E+00
         21   -1    0    0  502  501  0.00000000000E+00  0.00000000000E+00  0.27966166319E+03  0.27966166319E+03  0.00000000000E+00 0.  1.
         21   -1    0    0  501  502 -0.00000000000E+00 -0.00000000000E+00 -0.20558766873E+03  0.20558766873E+03  0.00000000000E+00 0.  1.
      99925    2    1    2    0    0  0.88480249203E+02  0.68281124720E+02  0.12210962162E+03  0.31076152126E+03  0.26300360627E+03 0.  0.
         25    1    3    3    0    0  0.53974518964E+02  0.74529088498E+02  0.56763302281E+02  0.16534029852E+03  0.12509000000E+03 0.  0.
         25    1    1    2    0    0 -0.88480249203E+02 -0.68281124720E+02 -0.48035627166E+02  0.17448781066E+03  0.12509000000E+03 0.  0.
         25    1    3    3    0    0  0.34505730239E+02 -0.62479637785E+01  0.65346319337E+02  0.14542122273E+03  0.12509000000E+03 0.  0.
<mgrwt>
<rscale>  2 0.47956226E+03</rscale>
<asrwt>0</asrwt>
<pdfrwt beam="1">  1       21 0.41126715E-01 0.47956226E+03</pdfrwt>
<pdfrwt beam="2">  1       21 0.30233481E-01 0.47956226E+03</pdfrwt>
<totfact> 0.54821106E+04</totfact>
</mgrwt>
</event>
<event>
 6    0  0.1539497E-004  0.4117304E+03  0.7546771E-02  0.1039792E+00
         21   -1    0    0  502  501  0.00000000000E+00  0.00000000000E+00  0.25235203816E+03  0.25235203816E+03  0.00000000000E+00 0. -1.
         21   -1    0    0  501  502 -0.00000000000E+00 -0.00000000000E+00 -0.16794187033E+03  0.16794187033E+03  0.00000000000E+00 0. -1.
      99925    2    1    2    0    0 -0.42746698958E+01 -0.63570038548E+02  0.43681991727E+02  0.27412375069E+03  0.26301386215E+03 0.  0.
         25    1    3    3    0    0 -0.51855039020E+01 -0.49994375545E+02 -0.14324191890E+02  0.13556923549E+03  0.12509000000E+03 0.  0.
         25    1    1    2    0    0  0.42746698958E+01  0.63570038548E+02  0.40728176105E+02  0.14617015780E+03  0.12509000000E+03 0.  0.
         25    1    3    3    0    0  0.91083400625E+00 -0.13575663003E+02  0.58006183617E+02  0.13855451520E+03  0.12509000000E+03 0.  0.
<mgrwt>
<rscale>  2 0.41173036E+03</rscale>
<asrwt>0</asrwt>
<pdfrwt beam="1">  1       21 0.37110594E-01 0.41173036E+03</pdfrwt>
<pdfrwt beam="2">  1       21 0.24697334E-01 0.41173036E+03</pdfrwt>
<totfact> 0.10210211E+05</totfact>
</mgrwt>
</event>
<event>
 6    0  0.1539497E-004  0.4064246E+03  0.7546771E-02  0.1041577E+00
         21   -1    0    0  502  501  0.00000000000E+00  0.00000000000E+00  0.12746265688E+03  0.12746265688E+03  0.00000000000E+00 0. -1.
         21   -1    0    0  501  502 -0.00000000000E+00 -0.00000000000E+00 -0.32397910537E+03  0.32397910537E+03  0.00000000000E+00 0. -1.
      99925    2    1    2    0    0  0.53124849664E+02  0.17558028225E+02 -0.14011866450E+03  0.30325690422E+03  0.26306078349E+03 0.  0.
         25    1    3    3    0    0  0.11893832058E+01  0.11671921374E+02 -0.31466870155E+02  0.12951957535E+03  0.12509000000E+03 0.  0.
         25    1    3    3    0    0  0.51935466458E+02  0.58861068512E+01 -0.10865179435E+03  0.17373732888E+03  0.12509000000E+03 0.  0.
         25    1    1    2    0    0 -0.53124849664E+02 -0.17558028225E+02 -0.56397783990E+02  0.14818485802E+03  0.12509000000E+03 0.  0.
<mgrwt>
<rscale>  2 0.40642459E+03</rscale>
<asrwt>0</asrwt>
<pdfrwt beam="1">  1       21 0.18744509E-01 0.40642459E+03</pdfrwt>
<pdfrwt beam="2">  1       21 0.47643985E-01 0.40642459E+03</pdfrwt>
<totfact> 0.10327288E+05</totfact>
</mgrwt>
</event>
<event>
 6    0  0.1539497E-004  0.4230393E+03  0.7546771E-02  0.1036082E+00
         21   -1    0    0  502  501  0.00000000000E+00  0.00000000000E+00  0.15886966451E+03  0.15886966451E+03  0.00000000000E+00 0.  1.
         21   -1    0    0  501  502 -0.00000000000E+00 -0.00000000000E+00 -0.28161797625E+03  0.28161797625E+03  0.00000000000E+00 0.  1.
      99925    2    1    2    0    0  0.56093750087E+02  0.56130424167E+02 -0.85287367570E+02  0.28768723581E+03  0.26304539013E+03 0.  0.
         25    1    1    2    0    0 -0.56093750087E+02 -0.56130424167E+02 -0.37460944167E+02  0.15280040495E+03  0.12509000000E+03 0.  0.
         25    1    3    3    0    0  0.53314433297E+02  0.55248134069E+02 -0.25341373031E+02  0.14894454808E+03  0.12509000000E+03 0.  0.
         25    1    3    3    0    0  0.27793167895E+01  0.88229009825E+00 -0.59945994539E+02  0.13874268773E+03  0.12509000000E+03 0.  0.
<mgrwt>
<rscale>  2 0.42303926E+03</rscale>
<asrwt>0</asrwt>
<pdfrwt beam="1">  1       21 0.23363186E-01 0.42303926E+03</pdfrwt>
<pdfrwt beam="2">  1       21 0.41414408E-01 0.42303926E+03</pdfrwt>
<totfact> 0.90569264E+04</totfact>
</mgrwt>
</event>
<event>
 6    0  0.1539497E-004  0.4232199E+03  0.7546771E-02  0.1036023E+00
         21   -1    0    0  502  501  0.00000000000E+00  0.00000000000E+00  0.48061226289E+03  0.48061226289E+03  0.00000000000E+00 0. -1.
         21   -1    0    0  501  502 -0.00000000000E+00 -0.00000000000E+00 -0.93170269965E+02  0.93170269965E+02  0.00000000000E+00 0. -1.
      99925    2    1    2    0    0  0.68754015755E+02  0.25852148242E+02  0.21002188014E+03  0.34460824815E+03  0.26315433932E+03 0.  0.
         25    1    1    2    0    0 -0.68754015755E+02 -0.25852148242E+02  0.17742011279E+03  0.22917428471E+03  0.12509000000E+03 0.  0.
         25    1    3    3    0    0  0.17076349663E+02  0.22907526227E+02  0.57304206938E+02  0.14052628476E+03  0.12509000000E+03 0.  0.
         25    1    3    3    0    0  0.51677666092E+02  0.29446220150E+01  0.15271767321E+03  0.20408196339E+03  0.12509000000E+03 0.  0.
<mgrwt>
<rscale>  2 0.42321992E+03</rscale>
<asrwt>0</asrwt>
<pdfrwt beam="1">  1       21 0.70678273E-01 0.42321992E+03</pdfrwt>
<pdfrwt beam="2">  1       21 0.13701510E-01 0.42321992E+03</pdfrwt>
<totfact> 0.78193742E+04</totfact>
</mgrwt>
</event>
<event>
 6    0  0.1539497E-004  0.4291326E+03  0.7546771E-02  0.1034134E+00
         21   -1    0    0  502  501  0.00000000000E+00  0.00000000000E+00  0.42614136421E+02  0.42614136421E+02  0.00000000000E+00 0.  1.
         21   -1    0    0  501  502 -0.00000000000E+00 -0.00000000000E+00 -0.10803619275E+04  0.10803619275E+04  0.00000000000E+00 0.  1.
      99925    2    1    2    0    0  0.67251510692E+02  0.54196440307E+02 -0.65102626490E+03  0.70745101444E+03  0.26304319116E+03 0.  0.
         25    1    1    2    0    0 -0.67251510692E+02 -0.54196440307E+02 -0.38672152616E+03  0.41552504946E+03  0.12509000000E+03 0.  0.
         25    1    3    3    0    0  0.39766661831E+02  0.49196180210E+02 -0.25222978120E+03  0.28856372289E+03  0.12509000000E+03 0.  0.
         25    1    3    3    0    0  0.27484848861E+02  0.50002600968E+01 -0.39879648369E+03  0.41888729155E+03  0.12509000000E+03 0.  0.
<mgrwt>
<rscale>  2 0.42913257E+03</rscale>
<asrwt>0</asrwt>
<pdfrwt beam="1">  1       21 0.62667853E-02 0.42913257E+03</pdfrwt>
<pdfrwt beam="2">  1       21 0.15887674E+00 0.42913257E+03</pdfrwt>
<totfact> 0.42675677E+04</totfact>
</mgrwt>
</event>
<event>
 6    0  0.1539497E-004  0.4476527E+03  0.7546771E-02  0.1028424E+00
         21   -1    0    0  502  501  0.00000000000E+00  0.00000000000E+00  0.33456134449E+03  0.33456134449E+03  0.00000000000E+00 0.  1.
         21   -1    0    0  501  502 -0.00000000000E+00 -0.00000000000E+00 -0.14974302007E+03  0.14974302007E+03  0.00000000000E+00 0.  1.
      99925    2    1    2    0    0  0.62705740536E+00 -0.16867876352E+02  0.37714447411E+01  0.26360003929E+03  0.26303201034E+03 0.  0.
         25    1    3    3    0    0  0.44205475793E+01 -0.25332576230E+02  0.38616274680E+02  0.13341666099E+03  0.12509000000E+03 0.  0.
         25    1    3    3    0    0 -0.37934901739E+01  0.84646998780E+01 -0.34844829939E+02  0.13018337830E+03  0.12509000000E+03 0.  0.
         25    1    1    2    0    0 -0.62705740536E+00  0.16867876352E+02  0.18104687968E+03  0.22070432527E+03  0.12509000000E+03 0.  0.
<mgrwt>
<rscale>  2 0.44765266E+03</rscale>
<asrwt>0</asrwt>
<pdfrwt beam="1">  1       21 0.49200198E-01 0.44765266E+03</pdfrwt>
<pdfrwt beam="2">  1       21 0.22021032E-01 0.44765266E+03</pdfrwt>
<totfact> 0.70405957E+04</totfact>
</mgrwt>
</event>
<event>
 6    0  0.1539497E-004  0.3939108E+03  0.7546771E-02  0.1045909E+00
         21   -1    0    0  502  501  0.00000000000E+00  0.00000000000E+00  0.12814708330E+03  0.12814708330E+03  0.00000000000E+00 0. -1.
         21   -1    0    0  501  502 -0.00000000000E+00 -0.00000000000E+00 -0.30271015089E+03  0.30271015089E+03  0.00000000000E+00 0. -1.
      99925    2    1    2    0    0 -0.21998956863E+02 -0.11862485177E+02 -0.96734458978E+02  0.28142673839E+03  0.26309462342E+03 0.  0.
         25    1    3    3    0    0 -0.52208145611E+01  0.23872630147E+02 -0.18756381252E+02  0.12882728481E+03  0.12509000000E+03 0.  0.
         25    1    3    3    0    0 -0.16778142302E+02 -0.35735115324E+02 -0.77978077726E+02  0.15259945358E+03  0.12509000000E+03 0.  0.
         25    1    1    2    0    0  0.21998956863E+02  0.11862485177E+02 -0.77828608605E+02  0.14943049580E+03  0.12509000000E+03 0.  0.
<mgrwt>
<rscale>  2 0.39391077E+03</rscale>
<asrwt>0</asrwt>
<pdfrwt beam="1">  1       21 0.18845160E-01 0.39391077E+03</pdfrwt>
<pdfrwt beam="2">  1       21 0.44516198E-01 0.39391077E+03</pdfrwt>
<totfact> 0.11817271E+05</totfact>
</mgrwt>
</event>
<event>
 6    0  0.1539497E-004  0.4111277E+03  0.7546771E-02  0.1039993E+00
         21   -1    0    0  502  501  0.00000000000E+00  0.00000000000E+00  0.30725691207E+03  0.30725691207E+03  0.00000000000E+00 0. -1.
         21   -1    0    0  501  502 -0.00000000000E+00 -0.00000000000E+00 -0.13752822957E+03  0.13752822957E+03  0.00000000000E+00 0. -1.
      99925    2    1    2    0    0 -0.28867197003E+02  0.54562542373E+02  0.13079522644E+03  0.29996211794E+03  0.26279173283E+03 0.  0.
         25    1    3    3    0    0 -0.50619603238E+02  0.10465045784E+02  0.71223151831E+02  0.15294478374E+03  0.12509000000E+03 0.  0.
         25    1    3    3    0    0  0.21752406235E+02  0.44097496588E+02  0.59572074611E+02  0.14701733420E+03  0.12509000000E+03 0.  0.
         25    1    1    2    0    0  0.28867197003E+02 -0.54562542373E+02  0.38933456060E+02  0.14482302370E+03  0.12509000000E+03 0.  0.
<mgrwt>
<rscale>  2 0.41112771E+03</rscale>
<asrwt>0</asrwt>
<pdfrwt beam="1">  1       21 0.45184840E-01 0.41112771E+03</pdfrwt>
<pdfrwt beam="2">  1       21 0.20224740E-01 0.41112771E+03</pdfrwt>
<totfact> 0.99848670E+04</totfact>
</mgrwt>
</event>
<event>
 6    0  0.1539497E-004  0.4823810E+03  0.7546771E-02  0.1018483E+00
         21   -1    0    0  502  501  0.00000000000E+00  0.00000000000E+00  0.91706768019E+02  0.91706768019E+02  0.00000000000E+00 0.  1.
         21   -1    0    0  501  502 -0.00000000000E+00 -0.00000000000E+00 -0.63433560167E+03  0.63433560167E+03  0.00000000000E+00 0.  1.
      99925    2    1    2    0    0  0.10599900700E+03 -0.81288678958E+02 -0.28519426858E+03  0.41018844427E+03  0.26282151770E+03 0.  0.
         25    1    3    3    0    0  0.58734695233E+02 -0.56495716041E+02 -0.20047680827E+03  0.24995997501E+03  0.12509000000E+03 0.  0.
         25    1    3    3    0    0  0.47264311770E+02 -0.24792962917E+02 -0.84717460314E+02  0.16022846925E+03  0.12509000000E+03 0.  0.
         25    1    1    2    0    0 -0.10599900700E+03  0.81288678958E+02 -0.25743456507E+03  0.31585392542E+03  0.12509000000E+03 0.  0.
<mgrwt>
<rscale>  2 0.48238104E+03</rscale>
<asrwt>0</asrwt>
<pdfrwt beam="1">  1       21 0.13486290E-01 0.48238104E+03</pdfrwt>
<pdfrwt beam="2">  1       21 0.93284642E-01 0.48238104E+03</pdfrwt>
<totfact> 0.41761830E+04</totfact>
</mgrwt>
</event>
<event>
 6    0  0.1539497E-004  0.4054012E+03  0.7546771E-02  0.1041925E+00
         21   -1    0    0  502  501  0.00000000000E+00  0.00000000000E+00  0.32335621928E+04  0.32335621928E+04  0.00000000000E+00 0.  1.
         21   -1    0    0  501  502 -0.00000000000E+00 -0.00000000000E+00 -0.12706585415E+02  0.12706585415E+02  0.00000000000E+00 0.  1.
      99925    2    1    2    0    0 -0.47798592625E+02 -0.26589385641E+02  0.21471919355E+04  0.21639597238E+04  0.26324281070E+03 0.  0.
         25    1    3    3    0    0 -0.31265023274E+02 -0.50135734371E+02  0.97615996618E+03  0.98591423624E+03  0.12509000000E+03 0.  0.
         25    1    1    2    0    0  0.47798592625E+02  0.26589385641E+02  0.10736636719E+04  0.10823090544E+04  0.12509000000E+03 0.  0.
         25    1    3    3    0    0 -0.16533569351E+02  0.23546348730E+02  0.11710319693E+04  0.11780454875E+04  0.12509000000E+03 0.  0.
<mgrwt>
<rscale>  2 0.40540120E+03</rscale>
<asrwt>0</asrwt>
<pdfrwt beam="1">  1       21 0.47552328E+00 0.40540120E+03</pdfrwt>
<pdfrwt beam="2">  1       21 0.18686177E-02 0.40540120E+03</pdfrwt>
<totfact> 0.31425675E+03</totfact>
</mgrwt>
</event>
<event>
 6    0  0.1539497E-004  0.3989118E+03  0.7546771E-02  0.1044157E+00
         21   -1    0    0  502  501  0.00000000000E+00  0.00000000000E+00  0.14000238518E+03  0.14000238518E+03  0.00000000000E+00 0. -1.
         21   -1    0    0  501  502 -0.00000000000E+00 -0.00000000000E+00 -0.28415700719E+03  0.28415700719E+03  0.00000000000E+00 0. -1.
      99925    2    1    2    0    0 -0.15825330787E+02  0.41008258868E+02 -0.92407946597E+02  0.28183109264E+03  0.26259744438E+03 0.  0.
         25    1    1    2    0    0  0.15825330787E+02 -0.41008258868E+02 -0.51746675415E+02  0.14232829974E+03  0.12509000000E+03 0.  0.
         25    1    3    3    0    0  0.64303060245E+01  0.19563913579E+02 -0.85268739372E+02  0.15278207213E+03  0.12509000000E+03 0.  0.
         25    1    3    3    0    0 -0.22255636812E+02  0.21444345289E+02 -0.71392072247E+01  0.12904902051E+03  0.12509000000E+03 0.  0.
<mgrwt>
<rscale>  2 0.39891181E+03</rscale>
<asrwt>0</asrwt>
<pdfrwt beam="1">  1       21 0.20588586E-01 0.39891181E+03</pdfrwt>
<pdfrwt beam="2">  1       21 0.41787795E-01 0.39891181E+03</pdfrwt>
<totfact> 0.11383304E+05</totfact>
</mgrwt>
</event>
<event>
 6    0  0.1539497E-004  0.4246911E+03  0.7546771E-02  0.1035550E+00
         21   -1    0    0  502  501  0.00000000000E+00  0.00000000000E+00  0.13690367766E+04  0.13690367766E+04  0.00000000000E+00 0. -1.
         21   -1    0    0  501  502 -0.00000000000E+00 -0.00000000000E+00 -0.32936030889E+02  0.32936030889E+02  0.00000000000E+00 0. -1.
      99925    2    1    2    0    0 -0.16235894474E+02  0.10844533650E+02  0.60448718008E+03  0.65948568592E+03  0.26293613459E+03 0.  0.
         25    1    3    3    0    0 -0.34518111711E+02 -0.24126434966E+02  0.28279958699E+03  0.31208444274E+03  0.12509000000E+03 0.  0.
         25    1    1    2    0    0  0.16235894474E+02 -0.10844533650E+02  0.73161356563E+03  0.74248712156E+03  0.12509000000E+03 0.  0.
         25    1    3    3    0    0  0.18282217237E+02  0.34970968616E+02  0.32168759309E+03  0.34740124318E+03  0.12509000000E+03 0.  0.
<mgrwt>
<rscale>  2 0.42469112E+03</rscale>
<asrwt>0</asrwt>
<pdfrwt beam="1">  1       21 0.20132890E+00 0.42469112E+03</pdfrwt>
<pdfrwt beam="2">  1       21 0.48435349E-02 0.42469112E+03</pdfrwt>
<totfact> 0.33503222E+04</totfact>
</mgrwt>
</event>
<event>
 6    0  0.1539497E-004  0.4521597E+03  0.7546771E-02  0.1027080E+00
         21   -1    0    0  502  501  0.00000000000E+00  0.00000000000E+00  0.13976152606E+04  0.13976152606E+04  0.00000000000E+00 0.  1.
         21   -1    0    0  501  502 -0.00000000000E+00 -0.00000000000E+00 -0.36570939681E+02  0.36570939681E+02  0.00000000000E+00 0.  1.
      99925    2    1    2    0    0 -0.45719333297E+01  0.59738625789E+02  0.56197774978E+03  0.62317171262E+03  0.26255358725E+03 0.  0.
         25    1    3    3    0    0 -0.25971044636E+02  0.25131695175E+02  0.20634654364E+03  0.24399283070E+03  0.12509000000E+03 0.  0.
         25    1    3    3    0    0  0.21399111306E+02  0.34606930614E+02  0.35563120614E+03  0.37917888192E+03  0.12509000000E+03 0.  0.
         25    1    1    2    0    0  0.45719333297E+01 -0.59738625789E+02  0.79906657117E+03  0.81101448770E+03  0.12509000000E+03 0.  0.
<mgrwt>
<rscale>  2 0.45215972E+03</rscale>
<asrwt>0</asrwt>
<pdfrwt beam="1">  1       21 0.20553162E+00 0.45215972E+03</pdfrwt>
<pdfrwt beam="2">  1       21 0.53780803E-02 0.45215972E+03</pdfrwt>
<totfact> 0.26004275E+04</totfact>
</mgrwt>
</event>
<event>
 6    0  0.1539497E-004  0.4216683E+03  0.7546771E-02  0.1036525E+00
         21   -1    0    0  502  501  0.00000000000E+00  0.00000000000E+00  0.83310964640E+03  0.83310964640E+03  0.00000000000E+00 0.  1.
         21   -1    0    0  501  502 -0.00000000000E+00 -0.00000000000E+00 -0.53355573983E+02  0.53355573983E+02  0.00000000000E+00 0.  1.
      99925    2    1    2    0    0 -0.47626683028E+02  0.38197807956E+02  0.60909452084E+03  0.66623905456E+03  0.26296571836E+03 0.  0.
         25    1    3    3    0    0 -0.63917791253E+02  0.12325405597E+02  0.30640940798E+03  0.33730050854E+03  0.12509000000E+03 0.  0.
         25    1    1    2    0    0  0.47626683028E+02 -0.38197807956E+02  0.17065955158E+03  0.22022616582E+03  0.12509000000E+03 0.  0.
         25    1    3    3    0    0  0.16291108226E+02  0.25872402359E+02  0.30268511285E+03  0.32893854602E+03  0.12509000000E+03 0.  0.
<mgrwt>
<rscale>  2 0.42166832E+03</rscale>
<asrwt>0</asrwt>
<pdfrwt beam="1">  1       21 0.12251612E+00 0.42166832E+03</pdfrwt>
<pdfrwt beam="2">  1       21 0.78464084E-02 0.42166832E+03</pdfrwt>
<totfact> 0.57397723E+04</totfact>
</mgrwt>
</event>
<event>
 6    0  0.1539497E-004  0.4470021E+03  0.7546771E-02  0.1028620E+00
         21   -1    0    0  502  501  0.00000000000E+00  0.00000000000E+00  0.15662842153E+03  0.15662842153E+03  0.00000000000E+00 0. -1.
         21   -1    0    0  501  502 -0.00000000000E+00 -0.00000000000E+00 -0.31892505111E+03  0.31892505111E+03  0.00000000000E+00 0. -1.
      99925    2    1    2    0    0  0.42714453513E+02 -0.94999476771E+02 -0.85190697377E+02  0.29543612754E+03  0.26301259553E+03 0.  0.
         25    1    3    3    0    0  0.22034056367E+02 -0.98698226718E+01 -0.59366846600E+02  0.14055192498E+03  0.12509000000E+03 0.  0.
         25    1    3    3    0    0  0.20680397146E+02 -0.85129654099E+02 -0.25823850777E+02  0.15488420256E+03  0.12509000000E+03 0.  0.
         25    1    1    2    0    0 -0.42714453513E+02  0.94999476771E+02 -0.77105932211E+02  0.18011734511E+03  0.12509000000E+03 0.  0.
<mgrwt>
<rscale>  2 0.44700214E+03</rscale>
<asrwt>0</asrwt>
<pdfrwt beam="1">  1       21 0.23033591E-01 0.44700214E+03</pdfrwt>
<pdfrwt beam="2">  1       21 0.46900743E-01 0.44700214E+03</pdfrwt>
<totfact> 0.71454748E+04</totfact>
</mgrwt>
</event>
<event>
 6    0  0.1539497E-004  0.4689342E+03  0.7546771E-02  0.1022221E+00
         21   -1    0    0  502  501  0.00000000000E+00  0.00000000000E+00  0.25491814852E+03  0.25491814852E+03  0.00000000000E+00 0.  1.
         21   -1    0    0  501  502 -0.00000000000E+00 -0.00000000000E+00 -0.21565676586E+03  0.21565676586E+03  0.00000000000E+00 0.  1.
      99925    2    1    2    0    0  0.10105503258E+03 -0.64273101673E+02 -0.14186705565E+02  0.28933651490E+03  0.26300419205E+03 0.  0.
         25    1    3    3    0    0  0.31723274925E+02 -0.68081344784E+02 -0.84601249042E+01  0.14615237765E+03  0.12509000000E+03 0.  0.
         25    1    1    2    0    0 -0.10105503258E+03  0.64273101673E+02  0.53448088221E+02  0.18123839947E+03  0.12509000000E+03 0.  0.
         25    1    3    3    0    0  0.69331757655E+02  0.38082431110E+01 -0.57265806606E+01  0.14318413725E+03  0.12509000000E+03 0.  0.
<mgrwt>
<rscale>  2 0.46893421E+03</rscale>
<asrwt>0</asrwt>
<pdfrwt beam="1">  1       21 0.37487963E-01 0.46893421E+03</pdfrwt>
<pdfrwt beam="2">  1       21 0.31714230E-01 0.46893421E+03</pdfrwt>
<totfact> 0.60417871E+04</totfact>
</mgrwt>
</event>
<event>
 5    0  0.1539497E-004  0.6053425E+03  0.7546771E-02  0.9894384E-01
         21   -1    0    0  502  501  0.00000000000E+00  0.00000000000E+00  0.87985248784E+03  0.87985248784E+03  0.00000000000E+00 0.  1.
         21   -1    0    0  501  502 -0.00000000000E+00 -0.00000000000E+00 -0.10411959180E+03  0.10411959180E+03  0.00000000000E+00 0.  1.
         25    1    1    2    0    0  0.16427657974E+03 -0.81400453514E+02  0.11334294471E+03  0.24921267965E+03  0.12509000000E+03 0.  0.
         25    1    1    2    0    0 -0.11303939850E+03  0.38758629989E+02  0.31135461256E+03  0.35618722587E+03  0.12509000000E+03 0.  0.
         25    1    1    2    0    0 -0.51237181233E+02  0.42641823525E+02  0.35103533877E+03  0.37857217412E+03  0.12509000000E+03 0.  0.
<mgrwt>
<rscale>  2 0.60534249E+03</rscale>
<asrwt>0</asrwt>
<pdfrwt beam="1">  1       21 0.12939007E+00 0.60534249E+03</pdfrwt>
<pdfrwt beam="2">  1       21 0.15311705E-01 0.60534249E+03</pdfrwt>
<totfact> 0.14184900E+04</totfact>
</mgrwt>
</event>
<event>
 6    0  0.1539497E-004  0.4296569E+03  0.7546771E-02  0.1033968E+00
         21   -1    0    0  502  501  0.00000000000E+00  0.00000000000E+00  0.33451960653E+03  0.33451960653E+03  0.00000000000E+00 0. -1.
         21   -1    0    0  501  502 -0.00000000000E+00 -0.00000000000E+00 -0.13796278164E+03  0.13796278164E+03  0.00000000000E+00 0. -1.
      99925    2    1    2    0    0 -0.76511100477E+02  0.27330284621E+02  0.16199976990E+03  0.31937265267E+03  0.26297161990E+03 0.  0.
         25    1    1    2    0    0  0.76511100477E+02 -0.27330284621E+02  0.34557054991E+02  0.15310973550E+03  0.12509000000E+03 0.  0.
         25    1    3    3    0    0 -0.49023389448E+02  0.33852548404E+02  0.12316286816E+03  0.18538038715E+03  0.12509000000E+03 0.  0.
         25    1    3    3    0    0 -0.27487711030E+02 -0.65222637828E+01  0.38836901741E+02  0.13399226552E+03  0.12509000000E+03 0.  0.
<mgrwt>
<rscale>  2 0.42965687E+03</rscale>
<asrwt>0</asrwt>
<pdfrwt beam="1">  1       21 0.49194060E-01 0.42965687E+03</pdfrwt>
<pdfrwt beam="2">  1       21 0.20288644E-01 0.42965687E+03</pdfrwt>
<totfact> 0.82672989E+04</totfact>
</mgrwt>
</event>
<event>
 6    0  0.1539497E-004  0.4298185E+03  0.7546771E-02  0.1033917E+00
         21   -1    0    0  502  501  0.00000000000E+00  0.00000000000E+00  0.64165889771E+03  0.64165889771E+03  0.00000000000E+00 0. -1.
         21   -1    0    0  501  502 -0.00000000000E+00 -0.00000000000E+00 -0.71979041334E+02  0.71979041334E+02  0.00000000000E+00 0. -1.
      99925    2    1    2    0    0 -0.97834092614E+01 -0.32445671446E+02  0.50124664714E+03  0.56708061607E+03  0.26302811096E+03 0.  0.
         25    1    3    3    0    0 -0.66458663705E+01  0.20089043869E+02  0.20257594934E+03  0.23902355653E+03  0.12509000000E+03 0.  0.
         25    1    1    2    0    0  0.97834092614E+01  0.32445671446E+02  0.68433209233E+02  0.14655732298E+03  0.12509000000E+03 0.  0.
         25    1    3    3    0    0 -0.31375428909E+01 -0.52534715314E+02  0.29867069780E+03  0.32805705954E+03  0.12509000000E+03 0.  0.
<mgrwt>
<rscale>  2 0.42981853E+03</rscale>
<asrwt>0</asrwt>
<pdfrwt beam="1">  1       21 0.94361600E-01 0.42981853E+03</pdfrwt>
<pdfrwt beam="2">  1       21 0.10585153E-01 0.42981853E+03</pdfrwt>
<totfact> 0.63921143E+04</totfact>
</mgrwt>
</event>
<event>
 6    0  0.1539497E-004  0.4261801E+03  0.7546771E-02  0.1035073E+00
         21   -1    0    0  502  501  0.00000000000E+00  0.00000000000E+00  0.19918957840E+03  0.19918957840E+03  0.00000000000E+00 0. -1.
         21   -1    0    0  501  502 -0.00000000000E+00 -0.00000000000E+00 -0.22796057267E+03  0.22796057267E+03  0.00000000000E+00 0. -1.
      99925    2    1    2    0    0  0.27633796426E+02 -0.41667375790E+02  0.47852945184E+02  0.27217101341E+03  0.26322492145E+03 0.  0.
         25    1    3    3    0    0 -0.13431438330E+02  0.56236511822E+01  0.39682285719E+02  0.13203870981E+03  0.12509000000E+03 0.  0.
         25    1    3    3    0    0  0.41065234756E+02 -0.47291026972E+02  0.81706594648E+01  0.14013230361E+03  0.12509000000E+03 0.  0.
         25    1    1    2    0    0 -0.27633796426E+02  0.41667375790E+02 -0.76623939453E+02  0.15497913765E+03  0.12509000000E+03 0.  0.
<mgrwt>
<rscale>  2 0.42618010E+03</rscale>
<asrwt>0</asrwt>
<pdfrwt beam="1">  1       21 0.29292585E-01 0.42618010E+03</pdfrwt>
<pdfrwt beam="2">  1       21 0.33523614E-01 0.42618010E+03</pdfrwt>
<totfact> 0.89516315E+04</totfact>
</mgrwt>
</event>
<event>
 6    0  0.1539497E-004  0.4189619E+03  0.7546771E-02  0.1037405E+00
         21   -1    0    0  502  501  0.00000000000E+00  0.00000000000E+00  0.52797114629E+03  0.52797114629E+03  0.00000000000E+00 0.  1.
         21   -1    0    0  501  502 -0.00000000000E+00 -0.00000000000E+00 -0.83114879786E+02  0.83114879786E+02  0.00000000000E+00 0.  1.
      99925    2    1    2    0    0  0.70380766873E+02  0.25671041110E+02  0.28803454236E+03  0.39695285265E+03  0.26266940236E+03 0.  0.
         25    1    3    3    0    0  0.25298646200E+02  0.20860135391E+02  0.19731620825E+03  0.23591600388E+03  0.12509000000E+03 0.  0.
         25    1    1    2    0    0 -0.70380766873E+02 -0.25671041110E+02  0.15682172415E+03  0.21413317343E+03  0.12509000000E+03 0.  0.
         25    1    3    3    0    0  0.45082120672E+02  0.48109057186E+01  0.90718334102E+02  0.16103684877E+03  0.12509000000E+03 0.  0.
<mgrwt>
<rscale>  2 0.41896185E+03</rscale>
<asrwt>0</asrwt>
<pdfrwt beam="1">  1       21 0.77642814E-01 0.41896185E+03</pdfrwt>
<pdfrwt beam="2">  1       21 0.12222777E-01 0.41896185E+03</pdfrwt>
<totfact> 0.77914545E+04</totfact>
</mgrwt>
</event>
<event>
 6    0  0.1539497E-004  0.4353392E+03  0.7546771E-02  0.1032187E+00
         21   -1    0    0  502  501  0.00000000000E+00  0.00000000000E+00  0.30943844411E+02  0.30943844411E+02  0.00000000000E+00 0.  1.
         21   -1    0    0  501  502 -0.00000000000E+00 -0.00000000000E+00 -0.15311622313E+04  0.15311622313E+04  0.00000000000E+00 0.  1.
      99925    2    1    2    0    0 -0.19245795803E+02  0.85916742648E+02 -0.84542620650E+03  0.88968329582E+03  0.26275237181E+03 0.  0.
         25    1    1    2    0    0  0.19245795803E+02 -0.85916742648E+02 -0.65479218039E+03  0.67242277989E+03  0.12509000000E+03 0.  0.
         25    1    3    3    0    0 -0.12575302839E+02  0.74251450957E+02 -0.36664843479E+03  0.39465174400E+03  0.12509000000E+03 0.  0.
         25    1    3    3    0    0 -0.66704929644E+01  0.11665291691E+02 -0.47877777171E+03  0.49503155182E+03  0.12509000000E+03 0.  0.
<mgrwt>
<rscale>  2 0.43533916E+03</rscale>
<asrwt>0</asrwt>
<pdfrwt beam="1">  1       21 0.45505650E-02 0.43533916E+03</pdfrwt>
<pdfrwt beam="2">  1       21 0.22517093E+00 0.43533916E+03</pdfrwt>
<totfact> 0.26054311E+04</totfact>
</mgrwt>
</event>
<event>
 6    0  0.1539497E-004  0.4028863E+03  0.7546771E-02  0.1042785E+00
         21   -1    0    0  502  501  0.00000000000E+00  0.00000000000E+00  0.18656931523E+03  0.18656931523E+03  0.00000000000E+00 0.  1.
         21   -1    0    0  501  502 -0.00000000000E+00 -0.00000000000E+00 -0.21750274585E+03  0.21750274585E+03  0.00000000000E+00 0.  1.
      99925    2    1    2    0    0 -0.42563917496E+02 -0.21381585151E+02 -0.37989183304E+02  0.27003418956E+03  0.26307114290E+03 0.  0.
         25    1    3    3    0    0  0.16644018437E+02 -0.20591956137E+02 -0.60778158140E+01  0.12800585905E+03  0.12509000000E+03 0.  0.
         25    1    3    3    0    0 -0.59207935933E+02 -0.78962901380E+00 -0.31911367490E+02  0.14202833051E+03  0.12509000000E+03 0.  0.
         25    1    1    2    0    0  0.42563917496E+02  0.21381585151E+02  0.70557526861E+01  0.13403787152E+03  0.12509000000E+03 0.  0.
<mgrwt>
<rscale>  2 0.40288628E+03</rscale>
<asrwt>0</asrwt>
<pdfrwt beam="1">  1       21 0.27436664E-01 0.40288628E+03</pdfrwt>
<pdfrwt beam="2">  1       21 0.31985698E-01 0.40288628E+03</pdfrwt>
<totfact> 0.11241072E+05</totfact>
</mgrwt>
</event>
<event>
 6    0  0.1539497E-004  0.4874035E+03  0.7546771E-02  0.1017120E+00
         21   -1    0    0  502  501  0.00000000000E+00  0.00000000000E+00  0.13873392680E+04  0.13873392680E+04  0.00000000000E+00 0. -1.
         21   -1    0    0  501  502 -0.00000000000E+00 -0.00000000000E+00 -0.42808962191E+02  0.42808962191E+02  0.00000000000E+00 0. -1.
      99925    2    1    2    0    0 -0.10209706113E+02 -0.10193886188E+03  0.53783748213E+03  0.60741097594E+03  0.26302693179E+03 0.  0.
         25    1    3    3    0    0  0.10501962761E+02 -0.63349211219E+02  0.19977558267E+03  0.24429737067E+03  0.12509000000E+03 0.  0.
         25    1    1    2    0    0  0.10209706113E+02  0.10193886188E+03  0.80669282365E+03  0.82273725422E+03  0.12509000000E+03 0.  0.
         25    1    3    3    0    0 -0.20711668874E+02 -0.38589650659E+02  0.33806189946E+03  0.36311360527E+03  0.12509000000E+03 0.  0.
<mgrwt>
<rscale>  2 0.48740355E+03</rscale>
<asrwt>0</asrwt>
<pdfrwt beam="1">  1       21 0.20402045E+00 0.48740355E+03</pdfrwt>
<pdfrwt beam="2">  1       21 0.62954365E-02 0.48740355E+03</pdfrwt>
<totfact> 0.20007147E+04</totfact>
</mgrwt>
</event>
<event>
 6    0  0.1539497E-004  0.4076208E+03  0.7546771E-02  0.1041172E+00
         21   -1    0    0  502  501  0.00000000000E+00  0.00000000000E+00  0.35421692327E+02  0.35421692327E+02  0.00000000000E+00 0. -1.
         21   -1    0    0  501  502 -0.00000000000E+00 -0.00000000000E+00 -0.11726902934E+04  0.11726902934E+04  0.00000000000E+00 0. -1.
      99925    2    1    2    0    0  0.28446152443E+01 -0.57708557674E+02 -0.78446435494E+03  0.82935518558E+03  0.26288273092E+03 0.  0.
         25    1    1    2    0    0 -0.28446152443E+01  0.57708557674E+02 -0.35280424610E+03  0.37875680011E+03  0.12509000000E+03 0.  0.
         25    1    3    3    0    0  0.13309457723E+02  0.47206906144E+01 -0.30916772296E+03  0.33381374388E+03  0.12509000000E+03 0.  0.
         25    1    3    3    0    0 -0.10464842479E+02 -0.62429248288E+02 -0.47529663198E+03  0.49554144170E+03  0.12509000000E+03 0.  0.
<mgrwt>
<rscale>  2 0.40762078E+03</rscale>
<asrwt>0</asrwt>
<pdfrwt beam="1">  1       21 0.52090736E-02 0.40762078E+03</pdfrwt>
<pdfrwt beam="2">  1       21 0.17245441E+00 0.40762078E+03</pdfrwt>
<totfact> 0.46986716E+04</totfact>
</mgrwt>
</event>
<event>
 6    0  0.1539497E-004  0.4132015E+03  0.7546771E-02  0.1039302E+00
         21   -1    0    0  502  501  0.00000000000E+00  0.00000000000E+00  0.74696645608E+02  0.74696645608E+02  0.00000000000E+00 0. -1.
         21   -1    0    0  501  502 -0.00000000000E+00 -0.00000000000E+00 -0.57142964209E+03  0.57142964209E+03  0.00000000000E+00 0. -1.
      99925    2    1    2    0    0 -0.29414958494E+02 -0.26975326847E+02 -0.41016224290E+03  0.48885292213E+03  0.26296616880E+03 0.  0.
         25    1    3    3    0    0 -0.79654329425E+01  0.15760810978E+02 -0.24979654335E+03  0.27992440490E+03  0.12509000000E+03 0.  0.
         25    1    1    2    0    0  0.29414958494E+02  0.26975326847E+02 -0.86570753583E+02  0.15727336557E+03  0.12509000000E+03 0.  0.
         25    1    3    3    0    0 -0.21449525552E+02 -0.42736137825E+02 -0.16036569955E+03  0.20892851723E+03  0.12509000000E+03 0.  0.
<mgrwt>
<rscale>  2 0.41320154E+03</rscale>
<asrwt>0</asrwt>
<pdfrwt beam="1">  1       21 0.10984801E-01 0.41320154E+03</pdfrwt>
<pdfrwt beam="2">  1       21 0.84033770E-01 0.41320154E+03</pdfrwt>
<totfact> 0.78877961E+04</totfact>
</mgrwt>
</event>
<event>
 6    0  0.1539497E-004  0.3955007E+03  0.7546771E-02  0.1045349E+00
         21   -1    0    0  502  501  0.00000000000E+00  0.00000000000E+00  0.39911597064E+02  0.39911597064E+02  0.00000000000E+00 0.  1.
         21   -1    0    0  501  502 -0.00000000000E+00 -0.00000000000E+00 -0.97979540048E+03  0.97979540048E+03  0.00000000000E+00 0.  1.
      99925    2    1    2    0    0 -0.29450935526E+02 -0.64709188657E+01 -0.67889702504E+03  0.72872446030E+03  0.26311392596E+03 0.  0.
         25    1    3    3    0    0  0.50251000726E-01  0.24980643510E+02 -0.26327907766E+03  0.29255327021E+03  0.12509000000E+03 0.  0.
         25    1    3    3    0    0 -0.29501186527E+02 -0.31451562375E+02 -0.41561794738E+03  0.43617119009E+03  0.12509000000E+03 0.  0.
         25    1    1    2    0    0  0.29450935526E+02  0.64709188657E+01 -0.26098677837E+03  0.29098253724E+03  0.12509000000E+03 0.  0.
<mgrwt>
<rscale>  2 0.39550069E+03</rscale>
<asrwt>0</asrwt>
<pdfrwt beam="1">  1       21 0.58693522E-02 0.39550069E+03</pdfrwt>
<pdfrwt beam="2">  1       21 0.14408757E+00 0.39550069E+03</pdfrwt>
<totfact> 0.62958494E+04</totfact>
</mgrwt>
</event>
<event>
 6    0  0.1539497E-004  0.5621463E+03  0.7546771E-02  0.9987210E-01
         21   -1    0    0  502  501  0.00000000000E+00  0.00000000000E+00  0.23307459557E+03  0.23307459557E+03  0.00000000000E+00 0. -1.
         21   -1    0    0  501  502 -0.00000000000E+00 -0.00000000000E+00 -0.33895640473E+03  0.33895640473E+03  0.00000000000E+00 0. -1.
      99925    2    1    2    0    0  0.40573590830E+00  0.17056948195E+03 -0.16243046441E+03  0.35308038646E+03  0.26303610159E+03 0.  0.
         25    1    3    3    0    0  0.19194778554E+02  0.63590516870E+02 -0.10995167336E+03  0.17930162279E+03  0.12509000000E+03 0.  0.
         25    1    3    3    0    0 -0.18789042646E+02  0.10697896508E+03 -0.52478791045E+02  0.17377876367E+03  0.12509000000E+03 0.  0.
         25    1    1    2    0    0 -0.40573590830E+00 -0.17056948195E+03  0.56548655246E+02  0.21895061384E+03  0.12509000000E+03 0.  0.
<mgrwt>
<rscale>  2 0.56214634E+03</rscale>
<asrwt>0</asrwt>
<pdfrwt beam="1">  1       21 0.34275676E-01 0.56214634E+03</pdfrwt>
<pdfrwt beam="2">  1       21 0.49846530E-01 0.56214634E+03</pdfrwt>
<totfact> 0.27973813E+04</totfact>
</mgrwt>
</event>
<event>
 6    0  0.1868671E-004  0.4185989E+03  0.7546771E-02  0.1037523E+00
         21   -1    0    0  502  501  0.00000000000E+00  0.00000000000E+00  0.30152340192E+03  0.30152340192E+03  0.00000000000E+00 0.  1.
         21   -1    0    0  501  502 -0.00000000000E+00 -0.00000000000E+00 -0.14528311005E+03  0.14528311005E+03  0.00000000000E+00 0.  1.
      99925    2    1    2    0    0  0.41823527532E+02 -0.50485498656E+02  0.66482933983E+02  0.27946887596E+03  0.26341009678E+03 0.  0.
         25    1    3    3    0    0  0.26626319664E+02  0.79598525085E+01  0.56988026519E+02  0.14024073380E+03  0.12509000000E+03 0.  0.
         25    1    3    3    0    0  0.15197207868E+02 -0.58445351164E+02  0.94949074639E+01  0.13922814215E+03  0.12509000000E+03 0.  0.
         25    1    1    2    0    0 -0.41823527532E+02  0.50485498656E+02  0.89757357889E+02  0.16733763601E+03  0.12509000000E+03 0.  0.
<mgrwt>
<rscale>  2 0.41859889E+03</rscale>
<asrwt>0</asrwt>
<pdfrwt beam="1">  1       21 0.44341677E-01 0.41859889E+03</pdfrwt>
<pdfrwt beam="2">  1       21 0.21365163E-01 0.41859889E+03</pdfrwt>
<totfact> 0.93399336E+04</totfact>
</mgrwt>
</event>
<event>
 6    0  0.1539497E-004  0.4029050E+03  0.7546771E-02  0.1042778E+00
         21   -1    0    0  502  501  0.00000000000E+00  0.00000000000E+00  0.49352693311E+02  0.49352693311E+02  0.00000000000E+00 0.  1.
         21   -1    0    0  501  502 -0.00000000000E+00 -0.00000000000E+00 -0.82230786655E+03  0.82230786655E+03  0.00000000000E+00 0.  1.
      99925    2    1    2    0    0  0.20267935508E+02  0.26225321239E+02 -0.43070785881E+03  0.50576537129E+03  0.26304143110E+03 0.  0.
         25    1    3    3    0    0 -0.91161243925E+01  0.31114470444E+02 -0.15688282839E+03  0.20325093835E+03  0.12509000000E+03 0.  0.
         25    1    1    2    0    0 -0.20267935508E+02 -0.26225321239E+02 -0.34224731443E+03  0.36589518857E+03  0.12509000000E+03 0.  0.
         25    1    3    3    0    0  0.29384059900E+02 -0.48891492052E+01 -0.27382503041E+03  0.30251443294E+03  0.12509000000E+03 0.  0.
<mgrwt>
<rscale>  2 0.40290499E+03</rscale>
<asrwt>0</asrwt>
<pdfrwt beam="1">  1       21 0.72577499E-02 0.40290499E+03</pdfrwt>
<pdfrwt beam="2">  1       21 0.12092761E+00 0.40290499E+03</pdfrwt>
<totfact> 0.68403104E+04</totfact>
</mgrwt>
</event>
<event>
 6    0  0.1539497E-004  0.4100722E+03  0.7546771E-02  0.1040347E+00
         21   -1    0    0  502  501  0.00000000000E+00  0.00000000000E+00  0.20760426535E+03  0.20760426535E+03  0.00000000000E+00 0.  1.
         21   -1    0    0  501  502 -0.00000000000E+00 -0.00000000000E+00 -0.20249973676E+03  0.20249973676E+03  0.00000000000E+00 0.  1.
      99925    2    1    2    0    0 -0.47789991227E+02 -0.40034650364E+02  0.23317359136E+01  0.27031182432E+03  0.26301404694E+03 0.  0.
         25    1    1    2    0    0  0.47789991227E+02  0.40034650364E+02  0.27727926687E+01  0.13979217779E+03  0.12509000000E+03 0.  0.
         25    1    3    3    0    0 -0.56703704016E+02 -0.45419125043E+02  0.52952634623E+01  0.14475411871E+03  0.12509000000E+03 0.  0.
         25    1    3    3    0    0  0.89137127893E+01  0.53844746795E+01 -0.29635275487E+01  0.12555770561E+03  0.12509000000E+03 0.  0.
<mgrwt>
<rscale>  2 0.41007223E+03</rscale>
<asrwt>0</asrwt>
<pdfrwt beam="1">  1       21 0.30530039E-01 0.41007223E+03</pdfrwt>
<pdfrwt beam="2">  1       21 0.29779373E-01 0.41007223E+03</pdfrwt>
<totfact> 0.10478948E+05</totfact>
</mgrwt>
</event>
<event>
 6    0  0.1539497E-004  0.4463446E+03  0.7546771E-02  0.1028818E+00
         21   -1    0    0  502  501  0.00000000000E+00  0.00000000000E+00  0.29761402423E+03  0.29761402423E+03  0.00000000000E+00 0.  1.
         21   -1    0    0  501  502 -0.00000000000E+00 -0.00000000000E+00 -0.16735060029E+03  0.16735060029E+03  0.00000000000E+00 0.  1.
      99925    2    1    2    0    0 -0.68159645599E+02 -0.70554838448E+02  0.44052380508E+02  0.28412332773E+03  0.26298617951E+03 0.  0.
         25    1    1    2    0    0  0.68159645599E+02  0.70554838448E+02  0.86211043430E+02  0.18084129679E+03  0.12509000000E+03 0.  0.
         25    1    3    3    0    0 -0.29977434459E+02 -0.76157241334E+02  0.29967629413E+02  0.15246028629E+03  0.12509000000E+03 0.  0.
         25    1    3    3    0    0 -0.38182211140E+02  0.56024028857E+01  0.14084751095E+02  0.13166304143E+03  0.12509000000E+03 0.  0.
<mgrwt>
<rscale>  2 0.44634465E+03</rscale>
<asrwt>0</asrwt>
<pdfrwt beam="1">  1       21 0.43766768E-01 0.44634465E+03</pdfrwt>
<pdfrwt beam="2">  1       21 0.24610382E-01 0.44634465E+03</pdfrwt>
<totfact> 0.72675768E+04</totfact>
</mgrwt>
</event>
<event>
 6    0  0.1539497E-004  0.4841407E+03  0.7546771E-02  0.1018003E+00
         21   -1    0    0  502  501  0.00000000000E+00  0.00000000000E+00  0.58795997711E+03  0.58795997711E+03  0.00000000000E+00 0. -1.
         21   -1    0    0  501  502 -0.00000000000E+00 -0.00000000000E+00 -0.99663354751E+02  0.99663354751E+02  0.00000000000E+00 0. -1.
      99925    2    1    2    0    0 -0.41579855233E+02  0.60533454163E+02  0.13265220738E+03  0.30353526717E+03  0.26295221402E+03 0.  0.
         25    1    3    3    0    0 -0.46294382557E+02  0.33756316543E+02  0.10370329855E+03  0.17229202243E+03  0.12509000000E+03 0.  0.
         25    1    3    3    0    0  0.47145273239E+01  0.26777137620E+02  0.28948908831E+02  0.13124324474E+03  0.12509000000E+03 0.  0.
         25    1    1    2    0    0  0.41579855233E+02 -0.60533454163E+02  0.35564441498E+03  0.38408806469E+03  0.12509000000E+03 0.  0.
<mgrwt>
<rscale>  2 0.48414074E+03</rscale>
<asrwt>0</asrwt>
<pdfrwt beam="1">  1       21 0.86464701E-01 0.48414074E+03</pdfrwt>
<pdfrwt beam="2">  1       21 0.14656376E-01 0.48414074E+03</pdfrwt>
<totfact> 0.42857958E+04</totfact>
</mgrwt>
</event>
<event>
 6    0  0.1539497E-004  0.4475320E+03  0.7546771E-02  0.1028461E+00
         21   -1    0    0  502  501  0.00000000000E+00  0.00000000000E+00  0.10530928614E+04  0.10530928614E+04  0.00000000000E+00 0.  1.
         21   -1    0    0  501  502 -0.00000000000E+00 -0.00000000000E+00 -0.47546835648E+02  0.47546835648E+02  0.00000000000E+00 0.  1.
      99925    2    1    2    0    0  0.76179923629E+02  0.28297605973E+02  0.47162731279E+03  0.54627444253E+03  0.26339952377E+03 0.  0.
         25    1    3    3    0    0  0.72405757624E+02  0.35880870916E+02  0.28278944508E+03  0.31960508285E+03  0.12509000000E+03 0.  0.
         25    1    1    2    0    0 -0.76179923629E+02 -0.28297605973E+02  0.53391871297E+03  0.55436525452E+03  0.12509000000E+03 0.  0.
         25    1    3    3    0    0  0.37741660054E+01 -0.75832649427E+01  0.18883786771E+03  0.22666935968E+03  0.12509000000E+03 0.  0.
<mgrwt>
<rscale>  2 0.44753205E+03</rscale>
<asrwt>0</asrwt>
<pdfrwt beam="1">  1       21 0.15486658E+00 0.44753205E+03</pdfrwt>
<pdfrwt beam="2">  1       21 0.69921824E-02 0.44753205E+03</pdfrwt>
<totfact> 0.37616117E+04</totfact>
</mgrwt>
</event>
<event>
 6    0  0.1539497E-004  0.3992201E+03  0.7546771E-02  0.1044050E+00
         21   -1    0    0  502  501  0.00000000000E+00  0.00000000000E+00  0.81760930446E+03  0.81760930446E+03  0.00000000000E+00 0.  1.
         21   -1    0    0  501  502 -0.00000000000E+00 -0.00000000000E+00 -0.48732541752E+02  0.48732541752E+02  0.00000000000E+00 0.  1.
      99925    2    1    2    0    0 -0.48730873394E+01 -0.36388620477E+02  0.56601692917E+03  0.62520392127E+03  0.26297699593E+03 0.  0.
         25    1    3    3    0    0  0.32992142729E+02 -0.27180193851E+02  0.24305139257E+03  0.27667441506E+03  0.12509000000E+03 0.  0.
         25    1    3    3    0    0 -0.37865230068E+02 -0.92084266259E+01  0.32296553660E+03  0.34852950621E+03  0.12509000000E+03 0.  0.
         25    1    1    2    0    0  0.48730873394E+01  0.36388620477E+02  0.20285983354E+03  0.24113792494E+03  0.12509000000E+03 0.  0.
<mgrwt>
<rscale>  2 0.39922014E+03</rscale>
<asrwt>0</asrwt>
<pdfrwt beam="1">  1       21 0.12023665E+00 0.39922014E+03</pdfrwt>
<pdfrwt beam="2">  1       21 0.71665508E-02 0.39922014E+03</pdfrwt>
<totfact> 0.71032199E+04</totfact>
</mgrwt>
</event>
<event>
 6    0  0.1539497E-004  0.4176550E+03  0.7546771E-02  0.1037832E+00
         21   -1    0    0  502  501  0.00000000000E+00  0.00000000000E+00  0.38884682599E+02  0.38884682599E+02  0.00000000000E+00 0.  1.
         21   -1    0    0  501  502 -0.00000000000E+00 -0.00000000000E+00 -0.11214936203E+04  0.11214936203E+04  0.00000000000E+00 0.  1.
      99925    2    1    2    0    0  0.51466888397E+02 -0.41791846024E+02 -0.79061716349E+03  0.83587544728E+03  0.26309098268E+03 0.  0.
         25    1    1    2    0    0 -0.51466888397E+02  0.41791846024E+02 -0.29199177416E+03  0.32450285557E+03  0.12509000000E+03 0.  0.
         25    1    3    3    0    0  0.66837134947E+02 -0.25451298887E+02 -0.40676129212E+03  0.43152894235E+03  0.12509000000E+03 0.  0.
         25    1    3    3    0    0 -0.15370246550E+02 -0.16340547137E+02 -0.38385587138E+03  0.40434650493E+03  0.12509000000E+03 0.  0.
<mgrwt>
<rscale>  2 0.41765499E+03</rscale>
<asrwt>0</asrwt>
<pdfrwt beam="1">  1       21 0.57183359E-02 0.41765499E+03</pdfrwt>
<pdfrwt beam="2">  1       21 0.16492553E+00 0.41765499E+03</pdfrwt>
<totfact> 0.45234988E+04</totfact>
</mgrwt>
</event>
<event>
 6    0  0.1539497E-004  0.4004530E+03  0.7546771E-02  0.1043623E+00
         21   -1    0    0  502  501  0.00000000000E+00  0.00000000000E+00  0.19811313720E+03  0.19811313720E+03  0.00000000000E+00 0.  1.
         21   -1    0    0  501  502 -0.00000000000E+00 -0.00000000000E+00 -0.20236243915E+03  0.20236243915E+03  0.00000000000E+00 0.  1.
      99925    2    1    2    0    0  0.42643726920E+02  0.41853826790E+01  0.13658185510E+02  0.26704322989E+03  0.26322905563E+03 0.  0.
         25    1    3    3    0    0  0.62675215058E+02 -0.29788991815E+00  0.56508329154E+01  0.14002753777E+03  0.12509000000E+03 0.  0.
         25    1    3    3    0    0 -0.20031488138E+02  0.44832725971E+01  0.80073525946E+01  0.12701569212E+03  0.12509000000E+03 0.  0.
         25    1    1    2    0    0 -0.42643726920E+02 -0.41853826790E+01 -0.17907487467E+02  0.13343234646E+03  0.12509000000E+03 0.  0.
<mgrwt>
<rscale>  2 0.40045303E+03</rscale>
<asrwt>0</asrwt>
<pdfrwt beam="1">  1       21 0.29134285E-01 0.40045303E+03</pdfrwt>
<pdfrwt beam="2">  1       21 0.29759182E-01 0.40045303E+03</pdfrwt>
<totfact> 0.11534429E+05</totfact>
</mgrwt>
</event>
<event>
 6    0  0.1539497E-004  0.4313719E+03  0.7546771E-02  0.1033427E+00
         21   -1    0    0  502  501  0.00000000000E+00  0.00000000000E+00  0.40093482031E+02  0.40093482031E+02  0.00000000000E+00 0.  1.
         21   -1    0    0  501  502 -0.00000000000E+00 -0.00000000000E+00 -0.11602989771E+04  0.11602989771E+04  0.00000000000E+00 0.  1.
      99925    2    1    2    0    0  0.19305207500E+01 -0.84509874086E+02 -0.64208240065E+03  0.69899955208E+03  0.26303026224E+03 0.  0.
         25    1    3    3    0    0 -0.11758253795E+02 -0.65579720947E+02 -0.41711943218E+03  0.44053953867E+03  0.12509000000E+03 0.  0.
         25    1    1    2    0    0 -0.19305207500E+01  0.84509874086E+02 -0.47812309445E+03  0.50139290708E+03  0.12509000000E+03 0.  0.
         25    1    3    3    0    0  0.13688774545E+02 -0.18930153139E+02 -0.22496296847E+03  0.25846001341E+03  0.12509000000E+03 0.  0.
<mgrwt>
<rscale>  2 0.43137189E+03</rscale>
<asrwt>0</asrwt>
<pdfrwt beam="1">  1       21 0.58961010E-02 0.43137189E+03</pdfrwt>
<pdfrwt beam="2">  1       21 0.17063218E+00 0.43137189E+03</pdfrwt>
<totfact> 0.38808322E+04</totfact>
</mgrwt>
</event>
<event>
 6    0  0.1539497E-004  0.3940868E+03  0.7546771E-02  0.1045847E+00
         21   -1    0    0  502  501  0.00000000000E+00  0.00000000000E+00  0.42647582823E+02  0.42647582823E+02  0.00000000000E+00 0.  1.
         21   -1    0    0  501  502 -0.00000000000E+00 -0.00000000000E+00 -0.91039412771E+03  0.91039412771E+03  0.00000000000E+00 0.  1.
      99925    2    1    2    0    0 -0.20633479723E+02  0.21246599875E+02 -0.55310744350E+03  0.61315580215E+03  0.26297344955E+03 0.  0.
         25    1    3    3    0    0  0.20452973941E+02 -0.14153107839E+02 -0.24422807307E+03  0.27552403594E+03  0.12509000000E+03 0.  0.
         25    1    3    3    0    0 -0.41086453664E+02  0.35399707715E+02 -0.30887937043E+03  0.33763176622E+03  0.12509000000E+03 0.  0.
         25    1    1    2    0    0  0.20633479723E+02 -0.21246599875E+02 -0.31463910139E+03  0.33988590838E+03  0.12509000000E+03 0.  0.
<mgrwt>
<rscale>  2 0.39408684E+03</rscale>
<asrwt>0</asrwt>
<pdfrwt beam="1">  1       21 0.62717031E-02 0.39408684E+03</pdfrwt>
<pdfrwt beam="2">  1       21 0.13388150E+00 0.39408684E+03</pdfrwt>
<totfact> 0.68135991E+04</totfact>
</mgrwt>
</event>
<event>
 6    0  0.1539497E-004  0.4056932E+03  0.7546771E-02  0.1041826E+00
         21   -1    0    0  502  501  0.00000000000E+00  0.00000000000E+00  0.13408208988E+03  0.13408208988E+03  0.00000000000E+00 0. -1.
         21   -1    0    0  501  502 -0.00000000000E+00 -0.00000000000E+00 -0.30687721939E+03  0.30687721939E+03  0.00000000000E+00 0. -1.
      99925    2    1    2    0    0  0.38618815475E+02 -0.89032462200E+01 -0.71952785111E+02  0.27546801878E+03  0.26293486909E+03 0.  0.
         25    1    3    3    0    0  0.47119293529E+02 -0.27436130339E+02 -0.56868619643E+02  0.14783273342E+03  0.12509000000E+03 0.  0.
         25    1    1    2    0    0 -0.38618815475E+02  0.89032462200E+01 -0.10084234440E+03  0.16549129048E+03  0.12509000000E+03 0.  0.
         25    1    3    3    0    0 -0.85004780536E+01  0.18532884119E+02 -0.15084165468E+02  0.12763528536E+03  0.12509000000E+03 0.  0.
<mgrwt>
<rscale>  2 0.40569318E+03</rscale>
<asrwt>0</asrwt>
<pdfrwt beam="1">  1       21 0.19717955E-01 0.40569318E+03</pdfrwt>
<pdfrwt beam="2">  1       21 0.45129003E-01 0.40569318E+03</pdfrwt>
<totfact> 0.10516630E+05</totfact>
</mgrwt>
</event>
<event>
 6    0  0.1539497E-004  0.4106521E+03  0.7546771E-02  0.1040152E+00
         21   -1    0    0  502  501  0.00000000000E+00  0.00000000000E+00  0.50929853214E+02  0.50929853214E+02  0.00000000000E+00 0.  1.
         21   -1    0    0  501  502 -0.00000000000E+00 -0.00000000000E+00 -0.82778131212E+03  0.82778131212E+03  0.00000000000E+00 0.  1.
      99925    2    1    2    0    0 -0.54300939445E+02  0.60764837482E+01 -0.44325998671E+03  0.51827213568E+03  0.26294690552E+03 0.  0.
         25    1    1    2    0    0  0.54300939445E+02 -0.60764837482E+01 -0.33359147219E+03  0.36043902966E+03  0.12509000000E+03 0.  0.
         25    1    3    3    0    0 -0.60011658052E+02 -0.99681537269E+01 -0.19213728880E+03  0.23720246423E+03  0.12509000000E+03 0.  0.
         25    1    3    3    0    0  0.57107186074E+01  0.16044637475E+02 -0.25112269792E+03  0.28106967145E+03  0.12509000000E+03 0.  0.
<mgrwt>
<rscale>  2 0.41065207E+03</rscale>
<asrwt>0</asrwt>
<pdfrwt beam="1">  1       21 0.74896850E-02 0.41065207E+03</pdfrwt>
<pdfrwt beam="2">  1       21 0.12173253E+00 0.41065207E+03</pdfrwt>
<totfact> 0.63510852E+04</totfact>
</mgrwt>
</event>
<event>
 6    0  0.1539497E-004  0.4094769E+03  0.7546771E-02  0.1040547E+00
         21   -1    0    0  502  501  0.00000000000E+00  0.00000000000E+00  0.30919435338E+04  0.30919435338E+04  0.00000000000E+00 0.  1.
         21   -1    0    0  501  502 -0.00000000000E+00 -0.00000000000E+00 -0.13557113261E+02  0.13557113261E+02  0.00000000000E+00 0.  1.
      99925    2    1    2    0    0  0.22613692493E+02  0.45376970918E+02  0.17723721528E+04  0.17925302650E+04  0.26323231997E+03 0.  0.
         25    1    3    3    0    0  0.20436431370E+02 -0.16533703586E+02  0.78464638467E+03  0.79498960255E+03  0.12509000000E+03 0.  0.
         25    1    3    3    0    0  0.21772611234E+01  0.61910674504E+02  0.98772576815E+03  0.99754066246E+03  0.12509000000E+03 0.  0.
         25    1    1    2    0    0 -0.22613692493E+02 -0.45376970918E+02  0.13060142677E+04  0.13129703821E+04  0.12509000000E+03 0.  0.
<mgrwt>
<rscale>  2 0.40947688E+03</rscale>
<asrwt>0</asrwt>
<pdfrwt beam="1">  1       21 0.45469709E+00 0.40947688E+03</pdfrwt>
<pdfrwt beam="2">  1       21 0.19936953E-02 0.40947688E+03</pdfrwt>
<totfact> 0.39151487E+03</totfact>
</mgrwt>
</event>
<event>
 6    0  0.1539497E-004  0.5802643E+03  0.7546771E-02  0.9947219E-01
         21   -1    0    0  502  501  0.00000000000E+00  0.00000000000E+00  0.64991040227E+02  0.64991040227E+02  0.00000000000E+00 0.  1.
         21   -1    0    0  501  502 -0.00000000000E+00 -0.00000000000E+00 -0.12952040124E+04  0.12952040124E+04  0.00000000000E+00 0.  1.
      99925    2    1    2    0    0  0.76864116605E+02  0.67416084464E+01 -0.25638179225E+03  0.37533556173E+03  0.26304299801E+03 0.  0.
         25    1    3    3    0    0  0.15054442502E+02  0.26276005963E+02 -0.15654603075E+03  0.20266038728E+03  0.12509000000E+03 0.  0.
         25    1    1    2    0    0 -0.76864116605E+02 -0.67416084464E+01 -0.97383117989E+03  0.98485949086E+03  0.12509000000E+03 0.  0.
         25    1    3    3    0    0  0.61809674102E+02 -0.19534397517E+02 -0.99835761493E+02  0.17267517445E+03  0.12509000000E+03 0.  0.
<mgrwt>
<rscale>  2 0.58026427E+03</rscale>
<asrwt>0</asrwt>
<pdfrwt beam="1">  1       21 0.95575057E-02 0.58026427E+03</pdfrwt>
<pdfrwt beam="2">  1       21 0.19047118E+00 0.58026427E+03</pdfrwt>
<totfact> 0.11472710E+04</totfact>
</mgrwt>
</event>
<event>
 6    0  0.1539497E-004  0.4386077E+03  0.7546771E-02  0.1031175E+00
         21   -1    0    0  502  501  0.00000000000E+00  0.00000000000E+00  0.22093833687E+02  0.22093833687E+02  0.00000000000E+00 0. -1.
         21   -1    0    0  501  502 -0.00000000000E+00 -0.00000000000E+00 -0.21768145845E+04  0.21768145845E+04  0.00000000000E+00 0. -1.
      99925    2    1    2    0    0 -0.63573096599E+02 -0.50587019292E+02 -0.16426775276E+04  0.16655826681E+04  0.26301250839E+03 0.  0.
         25    1    3    3    0    0 -0.58666087022E+01 -0.54860524374E+02 -0.75734180075E+03  0.76958313748E+03  0.12509000000E+03 0.  0.
         25    1    1    2    0    0  0.63573096599E+02  0.50587019292E+02 -0.51204322320E+03  0.53332575004E+03  0.12509000000E+03 0.  0.
         25    1    3    3    0    0 -0.57706487896E+02  0.42735050821E+01 -0.88533572682E+03  0.89599953063E+03  0.12509000000E+03 0.  0.
<mgrwt>
<rscale>  2 0.43860770E+03</rscale>
<asrwt>0</asrwt>
<pdfrwt beam="1">  1       21 0.32490954E-02 0.43860770E+03</pdfrwt>
<pdfrwt beam="2">  1       21 0.32011957E+00 0.43860770E+03</pdfrwt>
<totfact> 0.12207835E+04</totfact>
</mgrwt>
</event>
<event>
 6    0  0.1539497E-004  0.4100755E+03  0.7546771E-02  0.1040346E+00
         21   -1    0    0  502  501  0.00000000000E+00  0.00000000000E+00  0.40901671319E+03  0.40901671319E+03  0.00000000000E+00 0. -1.
         21   -1    0    0  501  502 -0.00000000000E+00 -0.00000000000E+00 -0.10278424623E+03  0.10278424623E+03  0.00000000000E+00 0. -1.
      99925    2    1    2    0    0  0.14639875642E+02 -0.98996749421E+00  0.12622595357E+03  0.29210763009E+03  0.26301819368E+03 0.  0.
         25    1    3    3    0    0  0.26223152861E+02  0.42402556439E+01  0.24114984188E+02  0.13013329350E+03  0.12509000000E+03 0.  0.
         25    1    1    2    0    0 -0.14639875642E+02  0.98996749421E+00  0.18000651338E+03  0.21969332934E+03  0.12509000000E+03 0.  0.
         25    1    3    3    0    0 -0.11583277219E+02 -0.52302231381E+01  0.10211096938E+03  0.16197433659E+03  0.12509000000E+03 0.  0.
<mgrwt>
<rscale>  2 0.41007548E+03</rscale>
<asrwt>0</asrwt>
<pdfrwt beam="1">  1       21 0.60149516E-01 0.41007548E+03</pdfrwt>
<pdfrwt beam="2">  1       21 0.15115330E-01 0.41007548E+03</pdfrwt>
<totfact> 0.93570867E+04</totfact>
</mgrwt>
</event>
<event>
 6    0  0.1539497E-004  0.3906675E+03  0.7546771E-02  0.1047060E+00
         21   -1    0    0  502  501  0.00000000000E+00  0.00000000000E+00  0.72661006240E+02  0.72661006240E+02  0.00000000000E+00 0.  1.
         21   -1    0    0  501  502 -0.00000000000E+00 -0.00000000000E+00 -0.52511355744E+03  0.52511355744E+03  0.00000000000E+00 0.  1.
      99925    2    1    2    0    0  0.66064677832E+00  0.20589589138E+02 -0.29997835705E+03  0.39948120620E+03  0.26300922375E+03 0.  0.
         25    1    3    3    0    0 -0.34661692027E+02  0.46416923818E+01 -0.11949013473E+03  0.17648903252E+03  0.12509000000E+03 0.  0.
         25    1    1    2    0    0 -0.66064677832E+00 -0.20589589138E+02 -0.15247419415E+03  0.19829335747E+03  0.12509000000E+03 0.  0.
         25    1    3    3    0    0  0.35322338806E+02  0.15947896756E+02 -0.18048822232E+03  0.22299217368E+03  0.12509000000E+03 0.  0.
<mgrwt>
<rscale>  2 0.39066753E+03</rscale>
<asrwt>0</asrwt>
<pdfrwt beam="1">  1       21 0.10685442E-01 0.39066753E+03</pdfrwt>
<pdfrwt beam="2">  1       21 0.77222582E-01 0.39066753E+03</pdfrwt>
<totfact> 0.10126773E+05</totfact>
</mgrwt>
</event>
<event>
 6    0  0.1539497E-004  0.3965777E+03  0.7546771E-02  0.1044971E+00
         21   -1    0    0  502  501  0.00000000000E+00  0.00000000000E+00  0.38960622580E+03  0.38960622580E+03  0.00000000000E+00 0. -1.
         21   -1    0    0  501  502 -0.00000000000E+00 -0.00000000000E+00 -0.10091846133E+03  0.10091846133E+03  0.00000000000E+00 0. -1.
      99925    2    1    2    0    0  0.97862077953E+01 -0.21166171112E+02  0.23139733572E+03  0.35097728303E+03  0.26286222544E+03 0.  0.
         25    1    3    3    0    0 -0.10510172474E+02  0.19025854302E+02  0.82747365709E+02  0.15154894090E+03  0.12509000000E+03 0.  0.
         25    1    3    3    0    0  0.20296380269E+02 -0.40192025414E+02  0.14864997001E+03  0.19942834213E+03  0.12509000000E+03 0.  0.
         25    1    1    2    0    0 -0.97862077953E+01  0.21166171112E+02  0.57290428753E+02  0.13954740409E+03  0.12509000000E+03 0.  0.
<mgrwt>
<rscale>  2 0.39657766E+03</rscale>
<asrwt>0</asrwt>
<pdfrwt beam="1">  1       21 0.57295033E-01 0.39657766E+03</pdfrwt>
<pdfrwt beam="2">  1       21 0.14840950E-01 0.39657766E+03</pdfrwt>
<totfact> 0.10791552E+05</totfact>
</mgrwt>
</event>
<event>
 6    0  0.1539497E-004  0.4814277E+03  0.7546771E-02  0.1018744E+00
         21   -1    0    0  502  501  0.00000000000E+00  0.00000000000E+00  0.43959477166E+02  0.43959477166E+02  0.00000000000E+00 0. -1.
         21   -1    0    0  501  502 -0.00000000000E+00 -0.00000000000E+00 -0.13181040010E+04  0.13181040010E+04  0.00000000000E+00 0. -1.
      99925    2    1    2    0    0 -0.10286527180E+02  0.79301876677E+02 -0.10971269886E+04  0.11310281645E+04  0.26294957593E+03 0.  0.
         25    1    3    3    0    0 -0.13621339116E+02  0.45507809294E+02 -0.39529512368E+03  0.41732750267E+03  0.12509000000E+03 0.  0.
         25    1    1    2    0    0  0.10286527180E+02 -0.79301876677E+02 -0.17701753526E+03  0.23103531370E+03  0.12509000000E+03 0.  0.
         25    1    3    3    0    0  0.33348119355E+01  0.33794067383E+02 -0.70183186493E+03  0.71370066183E+03  0.12509000000E+03 0.  0.
<mgrwt>
<rscale>  2 0.48142772E+03</rscale>
<asrwt>0</asrwt>
<pdfrwt beam="1">  1       21 0.64646284E-02 0.48142772E+03</pdfrwt>
<pdfrwt beam="2">  1       21 0.19383884E+00 0.48142772E+03</pdfrwt>
<totfact> 0.22393713E+04</totfact>
</mgrwt>
</event>
<event>
 6    0  0.1539497E-004  0.4799863E+03  0.7546771E-02  0.1019139E+00
         21   -1    0    0  502  501  0.00000000000E+00  0.00000000000E+00  0.33739787295E+03  0.33739787295E+03  0.00000000000E+00 0.  1.
         21   -1    0    0  501  502 -0.00000000000E+00 -0.00000000000E+00 -0.17070857769E+03  0.17070857769E+03  0.00000000000E+00 0.  1.
      99925    2    1    2    0    0 -0.12856957676E+03 -0.32772188968E+02  0.76621587042E+02  0.30472539794E+03  0.26340567213E+03 0.  0.
         25    1    3    3    0    0 -0.60316811114E+02  0.22837646333E+02  0.22830934047E+02  0.14257782241E+03  0.12509000000E+03 0.  0.
         25    1    3    3    0    0 -0.68252765644E+02 -0.55609835301E+02  0.53790652994E+02  0.16214757553E+03  0.12509000000E+03 0.  0.
         25    1    1    2    0    0  0.12856957676E+03  0.32772188968E+02  0.90067708216E+02  0.20338105271E+03  0.12509000000E+03 0.  0.
<mgrwt>
<rscale>  2 0.47998630E+03</rscale>
<asrwt>0</asrwt>
<pdfrwt beam="1">  1       21 0.49617334E-01 0.47998630E+03</pdfrwt>
<pdfrwt beam="2">  1       21 0.25104203E-01 0.47998630E+03</pdfrwt>
<totfact> 0.53318194E+04</totfact>
</mgrwt>
</event>
<event>
 6    0  0.1539497E-004  0.4171153E+03  0.7546771E-02  0.1038009E+00
         21   -1    0    0  502  501  0.00000000000E+00  0.00000000000E+00  0.86717813706E+02  0.86717813706E+02  0.00000000000E+00 0. -1.
         21   -1    0    0  501  502 -0.00000000000E+00 -0.00000000000E+00 -0.50158418857E+03  0.50158418857E+03  0.00000000000E+00 0. -1.
      99925    2    1    2    0    0  0.46627561876E+02  0.49969856941E+02 -0.23857177475E+03  0.36158982736E+03  0.26298211994E+03 0.  0.
         25    1    1    2    0    0 -0.46627561876E+02 -0.49969856941E+02 -0.17629460012E+03  0.22671217493E+03  0.12509000000E+03 0.  0.
         25    1    3    3    0    0  0.36173539157E+02 -0.42257459261E+01 -0.83005328411E+02  0.15447904230E+03  0.12509000000E+03 0.  0.
         25    1    3    3    0    0  0.10454022719E+02  0.54195602867E+02 -0.15556644634E+03  0.20711078506E+03  0.12509000000E+03 0.  0.
<mgrwt>
<rscale>  2 0.41711526E+03</rscale>
<asrwt>0</asrwt>
<pdfrwt beam="1">  1       21 0.12752620E-01 0.41711526E+03</pdfrwt>
<pdfrwt beam="2">  1       21 0.73762380E-01 0.41711526E+03</pdfrwt>
<totfact> 0.81087460E+04</totfact>
</mgrwt>
</event>
<event>
 6    0  0.1539497E-004  0.4699248E+03  0.7546771E-02  0.1021941E+00
         21   -1    0    0  502  501  0.00000000000E+00  0.00000000000E+00  0.81228616023E+02  0.81228616023E+02  0.00000000000E+00 0. -1.
         21   -1    0    0  501  502 -0.00000000000E+00 -0.00000000000E+00 -0.67965359750E+03  0.67965359750E+03  0.00000000000E+00 0. -1.
      99925    2    1    2    0    0  0.93017840052E+02  0.37305865207E+02 -0.49681453651E+03  0.57110277108E+03  0.26322926377E+03 0.  0.
         25    1    1    2    0    0 -0.93017840052E+02 -0.37305865207E+02 -0.10161044497E+03  0.18977944244E+03  0.12509000000E+03 0.  0.
         25    1    3    3    0    0  0.27337191971E+02  0.54840709556E+02 -0.24488429277E+03  0.28172797241E+03  0.12509000000E+03 0.  0.
         25    1    3    3    0    0  0.65680648081E+02 -0.17534844349E+02 -0.25193024373E+03  0.28937479867E+03  0.12509000000E+03 0.  0.
<mgrwt>
<rscale>  2 0.46992476E+03</rscale>
<asrwt>0</asrwt>
<pdfrwt beam="1">  1       21 0.11945384E-01 0.46992476E+03</pdfrwt>
<pdfrwt beam="2">  1       21 0.99949063E-01 0.46992476E+03</pdfrwt>
<totfact> 0.44291863E+04</totfact>
</mgrwt>
</event>
<event>
 6    0  0.1539497E-004  0.4647490E+03  0.7546771E-02  0.1023413E+00
         21   -1    0    0  502  501  0.00000000000E+00  0.00000000000E+00  0.41324492774E+03  0.41324492774E+03  0.00000000000E+00 0.  1.
         21   -1    0    0  501  502 -0.00000000000E+00 -0.00000000000E+00 -0.13066802389E+03  0.13066802389E+03  0.00000000000E+00 0.  1.
      99925    2    1    2    0    0 -0.82710984515E+02  0.83360583870E+02  0.21518101165E+03  0.35957682308E+03  0.26306373756E+03 0.  0.
         25    1    1    2    0    0  0.82710984515E+02 -0.83360583870E+02  0.67395892204E+02  0.18433612855E+03  0.12509000000E+03 0.  0.
         25    1    3    3    0    0 -0.49636564134E+02  0.15126696437E+02  0.66024327811E+02  0.15066295300E+03  0.12509000000E+03 0.  0.
         25    1    3    3    0    0 -0.33074420381E+02  0.68233887433E+02  0.14915668384E+03  0.20891387008E+03  0.12509000000E+03 0.  0.
<mgrwt>
<rscale>  2 0.46474896E+03</rscale>
<asrwt>0</asrwt>
<pdfrwt beam="1">  1       21 0.60771313E-01 0.46474896E+03</pdfrwt>
<pdfrwt beam="2">  1       21 0.19215886E-01 0.46474896E+03</pdfrwt>
<totfact> 0.57687248E+04</totfact>
</mgrwt>
</event>
<event>
 6    0  0.1539497E-004  0.4591395E+03  0.7546771E-02  0.1025031E+00
         21   -1    0    0  502  501  0.00000000000E+00  0.00000000000E+00  0.39744965565E+03  0.39744965565E+03  0.00000000000E+00 0. -1.
         21   -1    0    0  501  502 -0.00000000000E+00 -0.00000000000E+00 -0.13260110736E+03  0.13260110736E+03  0.00000000000E+00 0. -1.
      99925    2    1    2    0    0  0.88951428616E+02  0.14884085083E+02  0.25212064646E+03  0.37531421198E+03  0.26298677666E+03 0.  0.
         25    1    1    2    0    0 -0.88951428616E+02 -0.14884085083E+02  0.12727901830E+02  0.15473655104E+03  0.12509000000E+03 0.  0.
         25    1    3    3    0    0  0.80723952197E+02  0.22413218785E+02  0.15901543839E+03  0.21897974011E+03  0.12509000000E+03 0.  0.
         25    1    3    3    0    0  0.82274764193E+01 -0.75291337019E+01  0.93105208073E+02  0.15633447186E+03  0.12509000000E+03 0.  0.
<mgrwt>
<rscale>  2 0.45913948E+03</rscale>
<asrwt>0</asrwt>
<pdfrwt beam="1">  1       21 0.58448478E-01 0.45913948E+03</pdfrwt>
<pdfrwt beam="2">  1       21 0.19500163E-01 0.45913948E+03</pdfrwt>
<totfact> 0.61171181E+04</totfact>
</mgrwt>
</event>
<event>
 6    0  0.1539497E-004  0.4319672E+03  0.7546771E-02  0.1033240E+00
         21   -1    0    0  502  501  0.00000000000E+00  0.00000000000E+00  0.78240477899E+02  0.78240477899E+02  0.00000000000E+00 0. -1.
         21   -1    0    0  501  502 -0.00000000000E+00 -0.00000000000E+00 -0.59622481674E+03  0.59622481674E+03  0.00000000000E+00 0. -1.
      99925    2    1    2    0    0 -0.77830594697E+01  0.10823653467E+02 -0.19439795966E+03  0.32728611844E+03  0.26295990021E+03 0.  0.
         25    1    3    3    0    0 -0.39503569119E+02  0.23995018022E+02 -0.91821325834E+02  0.16191033581E+03  0.12509000000E+03 0.  0.
         25    1    3    3    0    0  0.31720509649E+02 -0.13171364555E+02 -0.10257663382E+03  0.16537578264E+03  0.12509000000E+03 0.  0.
         25    1    1    2    0    0  0.77830594697E+01 -0.10823653467E+02 -0.32358637919E+03  0.34717917620E+03  0.12509000000E+03 0.  0.
<mgrwt>
<rscale>  2 0.43196720E+03</rscale>
<asrwt>0</asrwt>
<pdfrwt beam="1">  1       21 0.11505953E-01 0.43196720E+03</pdfrwt>
<pdfrwt beam="2">  1       21 0.87680119E-01 0.43196720E+03</pdfrwt>
<totfact> 0.65389906E+04</totfact>
</mgrwt>
</event>
<event>
 6    0  0.1539497E-004  0.4092474E+03  0.7546771E-02  0.1040624E+00
         21   -1    0    0  502  501  0.00000000000E+00  0.00000000000E+00  0.13370454994E+04  0.13370454994E+04  0.00000000000E+00 0. -1.
         21   -1    0    0  501  502 -0.00000000000E+00 -0.00000000000E+00 -0.31315954617E+02  0.31315954617E+02  0.00000000000E+00 0. -1.
      99925    2    1    2    0    0  0.25861883896E+02 -0.49555092561E+02  0.77949725822E+03  0.82458533118E+03  0.26305978142E+03 0.  0.
         25    1    1    2    0    0 -0.25861883896E+02  0.49555092561E+02  0.52623228656E+03  0.54377612282E+03  0.12509000000E+03 0.  0.
         25    1    3    3    0    0  0.41156444699E+02  0.77533077389E+00  0.42807737725E+03  0.44787520928E+03  0.12509000000E+03 0.  0.
         25    1    3    3    0    0 -0.15294560803E+02 -0.50330423335E+02  0.35141988097E+03  0.37671012190E+03  0.12509000000E+03 0.  0.
<mgrwt>
<rscale>  2 0.40924739E+03</rscale>
<asrwt>0</asrwt>
<pdfrwt beam="1">  1       21 0.19662430E+00 0.40924739E+03</pdfrwt>
<pdfrwt beam="2">  1       21 0.46052883E-02 0.40924739E+03</pdfrwt>
<totfact> 0.39465872E+04</totfact>
</mgrwt>
</event>
<event>
 6    0  0.1539497E-004  0.4305245E+03  0.7546771E-02  0.1033694E+00
         21   -1    0    0  502  501  0.00000000000E+00  0.00000000000E+00  0.23414603255E+03  0.23414603255E+03  0.00000000000E+00 0. -1.
         21   -1    0    0  501  502 -0.00000000000E+00 -0.00000000000E+00 -0.19790147932E+03  0.19790147932E+03  0.00000000000E+00 0. -1.
      99925    2    1    2    0    0 -0.25574295244E+02 -0.81801560163E+02  0.15219098138E+01  0.27648816664E+03  0.26286469953E+03 0.  0.
         25    1    3    3    0    0  0.24786988760E+01 -0.20169836934E+02 -0.31235288013E+02  0.13052247924E+03  0.12509000000E+03 0.  0.
         25    1    1    2    0    0  0.25574295244E+02  0.81801560163E+02  0.34722643412E+02  0.15555934523E+03  0.12509000000E+03 0.  0.
         25    1    3    3    0    0 -0.28052994120E+02 -0.61631723229E+02  0.32757197827E+02  0.14596568740E+03  0.12509000000E+03 0.  0.
<mgrwt>
<rscale>  2 0.43052455E+03</rscale>
<asrwt>0</asrwt>
<pdfrwt beam="1">  1       21 0.34433240E-01 0.43052455E+03</pdfrwt>
<pdfrwt beam="2">  1       21 0.29103159E-01 0.43052455E+03</pdfrwt>
<totfact> 0.85838438E+04</totfact>
</mgrwt>
</event>
<event>
 6    0  0.1539497E-004  0.5464680E+03  0.7546771E-02  0.1002315E+00
         21   -1    0    0  502  501  0.00000000000E+00  0.00000000000E+00  0.10535193923E+04  0.10535193923E+04  0.00000000000E+00 0. -1.
         21   -1    0    0  501  502 -0.00000000000E+00 -0.00000000000E+00 -0.70864212395E+02  0.70864212395E+02  0.00000000000E+00 0. -1.
      99925    2    1    2    0    0  0.27141949744E+02 -0.17418342303E+03  0.70212014906E+03  0.77023114892E+03  0.26307179392E+03 0.  0.
         25    1    3    3    0    0  0.38310966436E+02 -0.63931476991E+02  0.26702925523E+03  0.30414979064E+03  0.12509000000E+03 0.  0.
         25    1    3    3    0    0 -0.11169016692E+02 -0.11025194604E+03  0.43509089383E+03  0.46608135828E+03  0.12509000000E+03 0.  0.
         25    1    1    2    0    0 -0.27141949744E+02  0.17418342303E+03  0.28053503079E+03  0.35415245572E+03  0.12509000000E+03 0.  0.
<mgrwt>
<rscale>  2 0.54646801E+03</rscale>
<asrwt>0</asrwt>
<pdfrwt beam="1">  1       21 0.15492931E+00 0.54646801E+03</pdfrwt>
<pdfrwt beam="2">  1       21 0.10421208E-01 0.54646801E+03</pdfrwt>
<totfact> 0.17980066E+04</totfact>
</mgrwt>
</event>
<event>
 6    0  0.1539497E-004  0.4175368E+03  0.7546771E-02  0.1037871E+00
         21   -1    0    0  502  501  0.00000000000E+00  0.00000000000E+00  0.46030216739E+02  0.46030216739E+02  0.00000000000E+00 0. -1.
         21   -1    0    0  501  502 -0.00000000000E+00 -0.00000000000E+00 -0.94686154220E+03  0.94686154220E+03  0.00000000000E+00 0. -1.
      99925    2    1    2    0    0  0.15164647104E+02 -0.71780502280E+00 -0.75787733189E+03  0.80232986835E+03  0.26291573877E+03 0.  0.
         25    1    1    2    0    0 -0.15164647104E+02  0.71780502280E+00 -0.14295399357E+03  0.19056189059E+03  0.12509000000E+03 0.  0.
         25    1    3    3    0    0 -0.10915875150E+02  0.33921267552E+02 -0.40865564161E+03  0.42885516231E+03  0.12509000000E+03 0.  0.
         25    1    3    3    0    0  0.26080522254E+02 -0.34639072575E+02 -0.34922169028E+03  0.37347470604E+03  0.12509000000E+03 0.  0.
<mgrwt>
<rscale>  2 0.41753679E+03</rscale>
<asrwt>0</asrwt>
<pdfrwt beam="1">  1       21 0.67691499E-02 0.41753679E+03</pdfrwt>
<pdfrwt beam="2">  1       21 0.13924434E+00 0.41753679E+03</pdfrwt>
<totfact> 0.53455029E+04</totfact>
</mgrwt>
</event>
<event>
 6    0  0.1539497E-004  0.4186405E+03  0.7546771E-02  0.1037510E+00
         21   -1    0    0  502  501  0.00000000000E+00  0.00000000000E+00  0.31567778862E+02  0.31567778862E+02  0.00000000000E+00 0. -1.
         21   -1    0    0  501  502 -0.00000000000E+00 -0.00000000000E+00 -0.13879649462E+04  0.13879649462E+04  0.00000000000E+00 0. -1.
      99925    2    1    2    0    0  0.58475838541E+01  0.73732984848E+02 -0.90510295995E+03  0.94541805853E+03  0.26293191135E+03 0.  0.
         25    1    1    2    0    0 -0.58475838541E+01 -0.73732984848E+02 -0.45129420737E+03  0.47411466651E+03  0.12509000000E+03 0.  0.
         25    1    3    3    0    0  0.11676170579E+02  0.69005464543E+02 -0.56704731014E+03  0.58488310553E+03  0.12509000000E+03 0.  0.
         25    1    3    3    0    0 -0.58285867253E+01  0.47275203054E+01 -0.33805564981E+03  0.36053495301E+03  0.12509000000E+03 0.  0.
<mgrwt>
<rscale>  2 0.41864052E+03</rscale>
<asrwt>0</asrwt>
<pdfrwt beam="1">  1       21 0.46423206E-02 0.41864052E+03</pdfrwt>
<pdfrwt beam="2">  1       21 0.20411248E+00 0.41864052E+03</pdfrwt>
<totfact> 0.34610527E+04</totfact>
</mgrwt>
</event>
<event>
 6    0  0.1539497E-004  0.4125251E+03  0.7546771E-02  0.1039527E+00
         21   -1    0    0  502  501  0.00000000000E+00  0.00000000000E+00  0.74333745581E+03  0.74333745581E+03  0.00000000000E+00 0. -1.
         21   -1    0    0  501  502 -0.00000000000E+00 -0.00000000000E+00 -0.57234089237E+02  0.57234089237E+02  0.00000000000E+00 0. -1.
      99925    2    1    2    0    0 -0.52335055477E+02 -0.38932900776E+02  0.43191945844E+03  0.50986259085E+03  0.26296523378E+03 0.  0.
         25    1    1    2    0    0  0.52335055477E+02  0.38932900776E+02  0.25418390814E+03  0.29070895420E+03  0.12509000000E+03 0.  0.
         25    1    3    3    0    0 -0.46131581409E+02 -0.81810334619E+01  0.28248014679E+03  0.31247014824E+03  0.12509000000E+03 0.  0.
         25    1    3    3    0    0 -0.62034740682E+01 -0.30751867314E+02  0.14943931165E+03  0.19739244261E+03  0.12509000000E+03 0.  0.
<mgrwt>
<rscale>  2 0.41252511E+03</rscale>
<asrwt>0</asrwt>
<pdfrwt beam="1">  1       21 0.10931433E+00 0.41252511E+03</pdfrwt>
<pdfrwt beam="2">  1       21 0.84167783E-02 0.41252511E+03</pdfrwt>
<totfact> 0.67608817E+04</totfact>
</mgrwt>
</event>
<event>
 6    0  0.1539497E-004  0.4261492E+03  0.7546771E-02  0.1035083E+00
         21   -1    0    0  502  501  0.00000000000E+00  0.00000000000E+00  0.43035824807E+03  0.43035824807E+03  0.00000000000E+00 0. -1.
         21   -1    0    0  501  502 -0.00000000000E+00 -0.00000000000E+00 -0.10549530592E+03  0.10549530592E+03  0.00000000000E+00 0. -1.
      99925    2    1    2    0    0 -0.15802026186E+02 -0.35077866573E+01  0.10775809061E+03  0.28476784500E+03  0.26309487044E+03 0.  0.
         25    1    3    3    0    0  0.69766515317E+01 -0.97323447287E+01  0.13529498985E+02  0.12638808347E+03  0.12509000000E+03 0.  0.
         25    1    3    3    0    0 -0.22778677717E+02  0.62245580714E+01  0.94228591627E+02  0.15837976153E+03  0.12509000000E+03 0.  0.
         25    1    1    2    0    0  0.15802026186E+02  0.35077866573E+01  0.21710485153E+03  0.25108570899E+03  0.12509000000E+03 0.  0.
<mgrwt>
<rscale>  2 0.42614915E+03</rscale>
<asrwt>0</asrwt>
<pdfrwt beam="1">  1       21 0.63287977E-01 0.42614915E+03</pdfrwt>
<pdfrwt beam="2">  1       21 0.15514016E-01 0.42614915E+03</pdfrwt>
<totfact> 0.79459558E+04</totfact>
</mgrwt>
</event>
<event>
 6    0  0.1539497E-004  0.4200707E+03  0.7546771E-02  0.1037043E+00
         21   -1    0    0  502  501  0.00000000000E+00  0.00000000000E+00  0.78160223363E+03  0.78160223363E+03  0.00000000000E+00 0.  1.
         21   -1    0    0  501  502 -0.00000000000E+00 -0.00000000000E+00 -0.56441563877E+02  0.56441563877E+02  0.00000000000E+00 0.  1.
      99925    2    1    2    0    0  0.71675396355E+02 -0.15485289886E+02  0.51172470529E+03  0.58001361386E+03  0.26301418520E+03 0.  0.
         25    1    3    3    0    0  0.11483582160E+02 -0.11239901002E+02  0.17445493691E+03  0.21526783583E+03  0.12509000000E+03 0.  0.
         25    1    3    3    0    0  0.60191814195E+02 -0.42453888841E+01  0.33726976838E+03  0.36474577803E+03  0.12509000000E+03 0.  0.
         25    1    1    2    0    0 -0.71675396355E+02  0.15485289886E+02  0.21343596446E+03  0.25803018365E+03  0.12509000000E+03 0.  0.
<mgrwt>
<rscale>  2 0.42007072E+03</rscale>
<asrwt>0</asrwt>
<pdfrwt beam="1">  1       21 0.11494150E+00 0.42007072E+03</pdfrwt>
<pdfrwt beam="2">  1       21 0.83002305E-02 0.42007072E+03</pdfrwt>
<totfact> 0.61067964E+04</totfact>
</mgrwt>
</event>
<event>
 6    0  0.1539497E-004  0.4377126E+03  0.7546771E-02  0.1031451E+00
         21   -1    0    0  502  501  0.00000000000E+00  0.00000000000E+00  0.11016816952E+03  0.11016816952E+03  0.00000000000E+00 0. -1.
         21   -1    0    0  501  502 -0.00000000000E+00 -0.00000000000E+00 -0.43477239078E+03  0.43477239078E+03  0.00000000000E+00 0. -1.
      99925    2    1    2    0    0  0.62094560112E+02  0.43960514903E+01 -0.11699475513E+03  0.29469216731E+03  0.26321215983E+03 0.  0.
         25    1    3    3    0    0 -0.71529729518E+01  0.10675050874E+02 -0.70778177647E+02  0.14429892676E+03  0.12509000000E+03 0.  0.
         25    1    1    2    0    0 -0.62094560112E+02 -0.43960514903E+01 -0.20760946614E+03  0.25024839299E+03  0.12509000000E+03 0.  0.
         25    1    3    3    0    0  0.69247533064E+02 -0.62789993835E+01 -0.46216577480E+02  0.15039324055E+03  0.12509000000E+03 0.  0.
<mgrwt>
<rscale>  2 0.43771259E+03</rscale>
<asrwt>0</asrwt>
<pdfrwt beam="1">  1       21 0.16201201E-01 0.43771259E+03</pdfrwt>
<pdfrwt beam="2">  1       21 0.63937117E-01 0.43771259E+03</pdfrwt>
<totfact> 0.71490967E+04</totfact>
</mgrwt>
</event>
<event>
 6    0  0.1539497E-004  0.4897558E+03  0.7546771E-02  0.1016488E+00
         21   -1    0    0  502  501  0.00000000000E+00  0.00000000000E+00  0.17121020834E+03  0.17121020834E+03  0.00000000000E+00 0. -1.
         21   -1    0    0  501  502 -0.00000000000E+00 -0.00000000000E+00 -0.35024305310E+03  0.35024305310E+03  0.00000000000E+00 0. -1.
      99925    2    1    2    0    0 -0.69484805878E+02 -0.12272685777E+03 -0.13670544822E+03  0.32824576556E+03  0.26299597558E+03 0.  0.
         25    1    1    2    0    0  0.69484805878E+02  0.12272685777E+03 -0.42327396546E+02  0.19320749588E+03  0.12509000000E+03 0.  0.
         25    1    3    3    0    0 -0.28011564587E+02 -0.10282156275E+03 -0.87486098511E+02  0.18616725558E+03  0.12509000000E+03 0.  0.
         25    1    3    3    0    0 -0.41473241291E+02 -0.19905295023E+02 -0.49219349706E+02  0.14207850998E+03  0.12509000000E+03 0.  0.
<mgrwt>
<rscale>  2 0.48975580E+03</rscale>
<asrwt>0</asrwt>
<pdfrwt beam="1">  1       21 0.25177972E-01 0.48975580E+03</pdfrwt>
<pdfrwt beam="2">  1       21 0.51506331E-01 0.48975580E+03</pdfrwt>
<totfact> 0.48854596E+04</totfact>
</mgrwt>
</event>
<event>
 6    0  0.1539497E-004  0.4133311E+03  0.7546771E-02  0.1039259E+00
         21   -1    0    0  502  501  0.00000000000E+00  0.00000000000E+00  0.17171475648E+02  0.17171475648E+02  0.00000000000E+00 0.  1.
         21   -1    0    0  501  502 -0.00000000000E+00 -0.00000000000E+00 -0.24873016615E+04  0.24873016615E+04  0.00000000000E+00 0.  1.
      99925    2    1    2    0    0  0.33362343931E+02  0.57647859024E+02 -0.15986871158E+04  0.16215819467E+04  0.26323220577E+03 0.  0.
         25    1    3    3    0    0  0.45602204094E+02  0.56247412422E+02 -0.77560548227E+03  0.78895798662E+03  0.12509000000E+03 0.  0.
         25    1    3    3    0    0 -0.12239860163E+02  0.14004466011E+01 -0.82308163350E+03  0.83262396010E+03  0.12509000000E+03 0.  0.
         25    1    1    2    0    0 -0.33362343931E+02 -0.57647859024E+02 -0.87144307004E+03  0.88289119039E+03  0.12509000000E+03 0.  0.
<mgrwt>
<rscale>  2 0.41333105E+03</rscale>
<asrwt>0</asrwt>
<pdfrwt beam="1">  1       21 0.25252154E-02 0.41333105E+03</pdfrwt>
<pdfrwt beam="2">  1       21 0.36577988E+00 0.41333105E+03</pdfrwt>
<totfact> 0.99352035E+03</totfact>
</mgrwt>
</event>
<event>
 6    0  0.1539497E-004  0.4030528E+03  0.7546771E-02  0.1042728E+00
         21   -1    0    0  502  501  0.00000000000E+00  0.00000000000E+00  0.27329829797E+02  0.27329829797E+02  0.00000000000E+00 0.  1.
         21   -1    0    0  501  502 -0.00000000000E+00 -0.00000000000E+00 -0.14860278184E+04  0.14860278184E+04  0.00000000000E+00 0.  1.
      99925    2    1    2    0    0  0.70327087562E+01 -0.29180328661E+02 -0.11253199164E+04  0.11560211154E+04  0.26294287278E+03 0.  0.
         25    1    1    2    0    0 -0.70327087562E+01  0.29180328661E+02 -0.33337807221E+03  0.35733653284E+03  0.12509000000E+03 0.  0.
         25    1    3    3    0    0 -0.24742689842E+02 -0.22112843095E+02 -0.44083730524E+03  0.45944120007E+03  0.12509000000E+03 0.  0.
         25    1    3    3    0    0  0.31775398598E+02 -0.70674855660E+01 -0.68448261119E+03  0.69657991532E+03  0.12509000000E+03 0.  0.
<mgrwt>
<rscale>  2 0.40305279E+03</rscale>
<asrwt>0</asrwt>
<pdfrwt beam="1">  1       21 0.40190918E-02 0.40305279E+03</pdfrwt>
<pdfrwt beam="2">  1       21 0.21853355E+00 0.40305279E+03</pdfrwt>
<totfact> 0.35900928E+04</totfact>
</mgrwt>
</event>
<event>
 6    0  0.1539497E-004  0.4602216E+03  0.7546771E-02  0.1024717E+00
         21   -1    0    0  502  501  0.00000000000E+00  0.00000000000E+00  0.95021476942E+02  0.95021476942E+02  0.00000000000E+00 0. -1.
         21   -1    0    0  501  502 -0.00000000000E+00 -0.00000000000E+00 -0.55725269882E+03  0.55725269882E+03  0.00000000000E+00 0. -1.
      99925    2    1    2    0    0  0.10727955919E+03  0.48873178039E+02 -0.29698054751E+03  0.41383595561E+03  0.26299289193E+03 0.  0.
         25    1    3    3    0    0  0.79499938198E+02 -0.52579455170E+01 -0.16857636074E+03  0.22452924902E+03  0.12509000000E+03 0.  0.
         25    1    1    2    0    0 -0.10727955919E+03 -0.48873178039E+02 -0.16525067437E+03  0.23843822015E+03  0.12509000000E+03 0.  0.
         25    1    3    3    0    0  0.27779620991E+02  0.54131123556E+02 -0.12840418677E+03  0.18930670659E+03  0.12509000000E+03 0.  0.
<mgrwt>
<rscale>  2 0.46022157E+03</rscale>
<asrwt>0</asrwt>
<pdfrwt beam="1">  1       21 0.13973747E-01 0.46022157E+03</pdfrwt>
<pdfrwt beam="2">  1       21 0.81948925E-01 0.46022157E+03</pdfrwt>
<totfact> 0.53339345E+04</totfact>
</mgrwt>
</event>
<event>
 6    0  0.1539497E-004  0.4211020E+03  0.7546771E-02  0.1036708E+00
         21   -1    0    0  502  501  0.00000000000E+00  0.00000000000E+00  0.41853793847E+02  0.41853793847E+02  0.00000000000E+00 0.  1.
         21   -1    0    0  501  502 -0.00000000000E+00 -0.00000000000E+00 -0.10592045299E+04  0.10592045299E+04  0.00000000000E+00 0.  1.
      99925    2    1    2    0    0 -0.73944075436E+02  0.17134856696E+02 -0.69203691323E+03  0.74435407506E+03  0.26341330677E+03 0.  0.
         25    1    1    2    0    0  0.73944075436E+02 -0.17134856696E+02 -0.32531382278E+03  0.35670424864E+03  0.12509000000E+03 0.  0.
         25    1    3    3    0    0 -0.46600602535E+02 -0.11315895744E+02 -0.25487134437E+03  0.28793502033E+03  0.12509000000E+03 0.  0.
         25    1    3    3    0    0 -0.27343472900E+02  0.28450752440E+02 -0.43716556886E+03  0.45641905473E+03  0.12509000000E+03 0.  0.
<mgrwt>
<rscale>  2 0.42110202E+03</rscale>
<asrwt>0</asrwt>
<pdfrwt beam="1">  1       21 0.61549703E-02 0.42110202E+03</pdfrwt>
<pdfrwt beam="2">  1       21 0.15576536E+00 0.42110202E+03</pdfrwt>
<totfact> 0.46614895E+04</totfact>
</mgrwt>
</event>
<event>
 6    0  0.1539497E-004  0.4585913E+03  0.7546771E-02  0.1025191E+00
         21   -1    0    0  502  501  0.00000000000E+00  0.00000000000E+00  0.17058796210E+03  0.17058796210E+03  0.00000000000E+00 0.  1.
         21   -1    0    0  501  502 -0.00000000000E+00 -0.00000000000E+00 -0.30820753827E+03  0.30820753827E+03  0.00000000000E+00 0.  1.
      99925    2    1    2    0    0  0.62711039100E+02  0.67820319436E+02 -0.16044013964E+03  0.32163139387E+03  0.26300845036E+03 0.  0.
         25    1    3    3    0    0  0.87705721557E+01  0.36642428158E+02 -0.11676847537E+03  0.17521979174E+03  0.12509000000E+03 0.  0.
         25    1    1    2    0    0 -0.62711039100E+02 -0.67820319436E+02  0.22820563469E+02  0.15716410650E+03  0.12509000000E+03 0.  0.
         25    1    3    3    0    0  0.53940466945E+02  0.31177891278E+02 -0.43671664277E+02  0.14641160213E+03  0.12509000000E+03 0.  0.
<mgrwt>
<rscale>  2 0.45859130E+03</rscale>
<asrwt>0</asrwt>
<pdfrwt beam="1">  1       21 0.25086465E-01 0.45859130E+03</pdfrwt>
<pdfrwt beam="2">  1       21 0.45324638E-01 0.45859130E+03</pdfrwt>
<totfact> 0.64917757E+04</totfact>
</mgrwt>
</event>
<event>
 6    0  0.1539497E-004  0.4324951E+03  0.7546771E-02  0.1033075E+00
         21   -1    0    0  502  501  0.00000000000E+00  0.00000000000E+00  0.97185888409E+02  0.97185888409E+02  0.00000000000E+00 0. -1.
         21   -1    0    0  501  502 -0.00000000000E+00 -0.00000000000E+00 -0.48117069695E+03  0.48117069695E+03  0.00000000000E+00 0. -1.
      99925    2    1    2    0    0  0.28614159294E+02 -0.85020589748E+02 -0.26245499698E+03  0.38223347608E+03  0.26300671856E+03 0.  0.
         25    1    3    3    0    0  0.39986273056E+02 -0.53903133602E+02 -0.95889866238E+02  0.17130914859E+03  0.12509000000E+03 0.  0.
         25    1    1    2    0    0 -0.28614159294E+02  0.85020589748E+02 -0.12152981157E+03  0.19612310928E+03  0.12509000000E+03 0.  0.
         25    1    3    3    0    0 -0.11372113761E+02 -0.31117456145E+02 -0.16656513074E+03  0.21092432749E+03  0.12509000000E+03 0.  0.
<mgrwt>
<rscale>  2 0.43249509E+03</rscale>
<asrwt>0</asrwt>
<pdfrwt beam="1">  1       21 0.14292042E-01 0.43249509E+03</pdfrwt>
<pdfrwt beam="2">  1       21 0.70760396E-01 0.43249509E+03</pdfrwt>
<totfact> 0.72012681E+04</totfact>
</mgrwt>
</event>
<event>
 6    0  0.1539497E-004  0.6387910E+03  0.7546771E-02  0.9828042E-01
         21   -1    0    0  502  501  0.00000000000E+00  0.00000000000E+00  0.13710922499E+04  0.13710922499E+04  0.00000000000E+00 0. -1.
         21   -1    0    0  501  502 -0.00000000000E+00 -0.00000000000E+00 -0.74403083716E+02  0.74403083716E+02  0.00000000000E+00 0. -1.
      99925    2    1    2    0    0  0.14160711841E+03 -0.16443820235E+03  0.46309915277E+03  0.57508605234E+03  0.26300312531E+03 0.  0.
         25    1    3    3    0    0  0.47771579513E+02 -0.72740785610E+02  0.27137335188E+03  0.31123038076E+03  0.12509000000E+03 0.  0.
         25    1    1    2    0    0 -0.14160711841E+03  0.16443820235E+03  0.83359001346E+03  0.87040928132E+03  0.12509000000E+03 0.  0.
         25    1    3    3    0    0  0.93835538894E+02 -0.91697416735E+02  0.19172580089E+03  0.26385567158E+03  0.12509000000E+03 0.  0.
<mgrwt>
<rscale>  2 0.63879102E+03</rscale>
<asrwt>0</asrwt>
<pdfrwt beam="1">  1       21 0.20163120E+00 0.63879102E+03</pdfrwt>
<pdfrwt beam="2">  1       21 0.10941631E-01 0.63879102E+03</pdfrwt>
<totfact> 0.74228327E+03</totfact>
</mgrwt>
</event>
<event>
 6    0  0.1539497E-004  0.4045869E+03  0.7546771E-02  0.1042203E+00
         21   -1    0    0  502  501  0.00000000000E+00  0.00000000000E+00  0.85753774976E+02  0.85753774976E+02  0.00000000000E+00 0.  1.
         21   -1    0    0  501  502 -0.00000000000E+00 -0.00000000000E+00 -0.47721086469E+03  0.47721086469E+03  0.00000000000E+00 0.  1.
      99925    2    1    2    0    0 -0.49494978238E+02  0.17254114632E+02 -0.24544180213E+03  0.36367733538E+03  0.26319587514E+03 0.  0.
         25    1    1    2    0    0  0.49494978238E+02 -0.17254114632E+02 -0.14601528758E+03  0.19928730429E+03  0.12509000000E+03 0.  0.
         25    1    3    3    0    0 -0.10936094546E+02  0.27965219562E+02 -0.76429945561E+02  0.14963521092E+03  0.12509000000E+03 0.  0.
         25    1    3    3    0    0 -0.38558883692E+02 -0.10711104929E+02 -0.16901185657E+03  0.21404212446E+03  0.12509000000E+03 0.  0.
<mgrwt>
<rscale>  2 0.40458687E+03</rscale>
<asrwt>0</asrwt>
<pdfrwt beam="1">  1       21 0.12610849E-01 0.40458687E+03</pdfrwt>
<pdfrwt beam="2">  1       21 0.70178068E-01 0.40458687E+03</pdfrwt>
<totfact> 0.92863587E+04</totfact>
</mgrwt>
</event>
<event>
 6    0  0.1539497E-004  0.4480258E+03  0.7546771E-02  0.1028312E+00
         21   -1    0    0  502  501  0.00000000000E+00  0.00000000000E+00  0.27446457950E+03  0.27446457950E+03  0.00000000000E+00 0. -1.
         21   -1    0    0  501  502 -0.00000000000E+00 -0.00000000000E+00 -0.18283520846E+03  0.18283520846E+03  0.00000000000E+00 0. -1.
      99925    2    1    2    0    0 -0.10188576337E+03  0.14483671415E+02  0.86075758547E+02  0.29522315107E+03  0.26297754125E+03 0.  0.
         25    1    3    3    0    0 -0.13021211308E+02  0.86205256064E+01  0.59457563056E+02  0.13937924993E+03  0.12509000000E+03 0.  0.
         25    1    1    2    0    0  0.10188576337E+03 -0.14483671415E+02  0.55536124897E+01  0.16207663690E+03  0.12509000000E+03 0.  0.
         25    1    3    3    0    0 -0.88864552064E+02  0.58631458082E+01  0.26618195492E+02  0.15584390114E+03  0.12509000000E+03 0.  0.
<mgrwt>
<rscale>  2 0.44802584E+03</rscale>
<asrwt>0</asrwt>
<pdfrwt beam="1">  1       21 0.40362438E-01 0.44802584E+03</pdfrwt>
<pdfrwt beam="2">  1       21 0.26887531E-01 0.44802584E+03</pdfrwt>
<totfact> 0.72310878E+04</totfact>
</mgrwt>
</event>
<event>
 6    0  0.1539497E-004  0.4014531E+03  0.7546771E-02  0.1043278E+00
         21   -1    0    0  502  501  0.00000000000E+00  0.00000000000E+00  0.27154369168E+02  0.27154369168E+02  0.00000000000E+00 0.  1.
         21   -1    0    0  501  502 -0.00000000000E+00 -0.00000000000E+00 -0.14837817592E+04  0.14837817592E+04  0.00000000000E+00 0.  1.
      99925    2    1    2    0    0 -0.31602097420E+02  0.18145491290E+02 -0.10896807753E+04  0.11215452224E+04  0.26292877863E+03 0.  0.
         25    1    3    3    0    0  0.20481963942E+01  0.43564028147E+02 -0.49814523750E+03  0.51545921798E+03  0.12509000000E+03 0.  0.
         25    1    3    3    0    0 -0.33650293814E+02 -0.25418536857E+02 -0.59153553775E+03  0.60608600447E+03  0.12509000000E+03 0.  0.
         25    1    1    2    0    0  0.31602097420E+02 -0.18145491290E+02 -0.36694661481E+03  0.38939090595E+03  0.12509000000E+03 0.  0.
<mgrwt>
<rscale>  2 0.40145315E+03</rscale>
<asrwt>0</asrwt>
<pdfrwt beam="1">  1       21 0.39932873E-02 0.40145315E+03</pdfrwt>
<pdfrwt beam="2">  1       21 0.21820332E+00 0.40145315E+03</pdfrwt>
<totfact> 0.36494385E+04</totfact>
</mgrwt>
</event>
<event>
 6    0  0.1539497E-004  0.3944017E+03  0.7546771E-02  0.1045736E+00
         21   -1    0    0  502  501  0.00000000000E+00  0.00000000000E+00  0.45061201004E+03  0.45061201004E+03  0.00000000000E+00 0.  1.
         21   -1    0    0  501  502 -0.00000000000E+00 -0.00000000000E+00 -0.86300797546E+02  0.86300797546E+02  0.00000000000E+00 0.  1.
      99925    2    1    2    0    0  0.12454410073E+02 -0.15984324422E+02  0.28176834141E+03  0.38567972713E+03  0.26257349969E+03 0.  0.
         25    1    3    3    0    0 -0.32525115500E+02 -0.19455398251E+01  0.14941504647E+03  0.19757032286E+03  0.12509000000E+03 0.  0.
         25    1    1    2    0    0 -0.12454410073E+02  0.15984324422E+02  0.82542871086E+02  0.15123308046E+03  0.12509000000E+03 0.  0.
         25    1    3    3    0    0  0.44979525573E+02 -0.14038784597E+02  0.13235329494E+03  0.18810940427E+03  0.12509000000E+03 0.  0.
<mgrwt>
<rscale>  2 0.39440170E+03</rscale>
<asrwt>0</asrwt>
<pdfrwt beam="1">  1       21 0.66266471E-01 0.39440170E+03</pdfrwt>
<pdfrwt beam="2">  1       21 0.12691294E-01 0.39440170E+03</pdfrwt>
<totfact> 0.10457336E+05</totfact>
</mgrwt>
</event>
<event>
 6    0  0.1539497E-004  0.4096903E+03  0.7546771E-02  0.1040475E+00
         21   -1    0    0  502  501  0.00000000000E+00  0.00000000000E+00  0.68021387782E+03  0.68021387782E+03  0.00000000000E+00 0. -1.
         21   -1    0    0  501  502 -0.00000000000E+00 -0.00000000000E+00 -0.61688737924E+02  0.61688737924E+02  0.00000000000E+00 0. -1.
      99925    2    1    2    0    0  0.74361232114E+01 -0.40111294626E+02  0.49162444198E+03  0.55910352626E+03  0.26313104955E+03 0.  0.
         25    1    1    2    0    0 -0.74361232114E+01  0.40111294626E+02  0.12690069791E+03  0.18279908948E+03  0.12509000000E+03 0.  0.
         25    1    3    3    0    0 -0.36576130283E+02 -0.26070507215E+02  0.24227417865E+03  0.27633633564E+03  0.12509000000E+03 0.  0.
         25    1    3    3    0    0  0.44012253494E+02 -0.14040787411E+02  0.24935026333E+03  0.28276719062E+03  0.12509000000E+03 0.  0.
<mgrwt>
<rscale>  2 0.40969030E+03</rscale>
<asrwt>0</asrwt>
<pdfrwt beam="1">  1       21 0.10003145E+00 0.40969030E+03</pdfrwt>
<pdfrwt beam="2">  1       21 0.90718736E-02 0.40969030E+03</pdfrwt>
<totfact> 0.73604424E+04</totfact>
</mgrwt>
</event>
<event>
 6    0  0.1539497E-004  0.5796372E+03  0.7546771E-02  0.9948577E-01
         21   -1    0    0  502  501  0.00000000000E+00  0.00000000000E+00  0.15800760449E+03  0.15800760449E+03  0.00000000000E+00 0. -1.
         21   -1    0    0  501  502 -0.00000000000E+00 -0.00000000000E+00 -0.53158721316E+03  0.53158721316E+03  0.00000000000E+00 0. -1.
      99925    2    1    2    0    0  0.29914704168E+02 -0.14080841415E+03 -0.36107915679E+02  0.30196541900E+03  0.26297800987E+03 0.  0.
         25    1    1    2    0    0 -0.29914704168E+02  0.14080841415E+03 -0.33747169300E+03  0.38762939865E+03  0.12509000000E+03 0.  0.
         25    1    3    3    0    0  0.10540778376E+02 -0.11433291720E+03 -0.10397848430E+02  0.17011392452E+03  0.12509000000E+03 0.  0.
         25    1    3    3    0    0  0.19373925791E+02 -0.26475496956E+02 -0.25710067249E+02  0.13185149448E+03  0.12509000000E+03 0.  0.
<mgrwt>
<rscale>  2 0.57963720E+03</rscale>
<asrwt>0</asrwt>
<pdfrwt beam="1">  1       21 0.23236412E-01 0.57963720E+03</pdfrwt>
<pdfrwt beam="2">  1       21 0.78174590E-01 0.57963720E+03</pdfrwt>
<totfact> 0.22189107E+04</totfact>
</mgrwt>
</event>
<event>
 6    0  0.1539497E-004  0.4273022E+03  0.7546771E-02  0.1034716E+00
         21   -1    0    0  502  501  0.00000000000E+00  0.00000000000E+00  0.23023370259E+03  0.23023370259E+03  0.00000000000E+00 0. -1.
         21   -1    0    0  501  502 -0.00000000000E+00 -0.00000000000E+00 -0.19826282624E+03  0.19826282624E+03  0.00000000000E+00 0. -1.
      99925    2    1    2    0    0 -0.49151128479E+01  0.50004263299E+02 -0.47676416782E+02  0.27192135811E+03  0.26295170582E+03 0.  0.
         25    1    1    2    0    0  0.49151128479E+01 -0.50004263299E+02  0.79647293132E+02  0.15657517072E+03  0.12509000000E+03 0.  0.
         25    1    3    3    0    0 -0.82402787779E+01  0.65802074245E+02 -0.25369821842E+02  0.14383654310E+03  0.12509000000E+03 0.  0.
         25    1    3    3    0    0  0.33251659300E+01 -0.15797810946E+02 -0.22306594940E+02  0.12808481501E+03  0.12509000000E+03 0.  0.
<mgrwt>
<rscale>  2 0.42730216E+03</rscale>
<asrwt>0</asrwt>
<pdfrwt beam="1">  1       21 0.33857897E-01 0.42730216E+03</pdfrwt>
<pdfrwt beam="2">  1       21 0.29156298E-01 0.42730216E+03</pdfrwt>
<totfact> 0.88540639E+04</totfact>
</mgrwt>
</event>
<event>
 6    0  0.1539497E-004  0.4558088E+03  0.7546771E-02  0.1026004E+00
         21   -1    0    0  502  501  0.00000000000E+00  0.00000000000E+00  0.39395597440E+03  0.39395597440E+03  0.00000000000E+00 0.  1.
         21   -1    0    0  501  502 -0.00000000000E+00 -0.00000000000E+00 -0.13184319297E+03  0.13184319297E+03  0.00000000000E+00 0.  1.
      99925    2    1    2    0    0  0.14395384494E+02 -0.15669495685E+02  0.29381121383E+03  0.39501285728E+03  0.26316794610E+03 0.  0.
         25    1    3    3    0    0 -0.20012682842E+02 -0.36079224617E+00  0.10052369116E+03  0.16171938112E+03  0.12509000000E+03 0.  0.
         25    1    3    3    0    0  0.34408067336E+02 -0.15308703439E+02  0.19328752267E+03  0.23329347616E+03  0.12509000000E+03 0.  0.
         25    1    1    2    0    0 -0.14395384494E+02  0.15669495685E+02 -0.31698432408E+02  0.13078631009E+03  0.12509000000E+03 0.  0.
<mgrwt>
<rscale>  2 0.45580879E+03</rscale>
<asrwt>0</asrwt>
<pdfrwt beam="1">  1       21 0.57934702E-01 0.45580879E+03</pdfrwt>
<pdfrwt beam="2">  1       21 0.19388705E-01 0.45580879E+03</pdfrwt>
<totfact> 0.63086345E+04</totfact>
</mgrwt>
</event>
<event>
 6    0  0.1539497E-004  0.3939384E+03  0.7546771E-02  0.1045899E+00
         21   -1    0    0  502  501  0.00000000000E+00  0.00000000000E+00  0.42924809760E+03  0.42924809760E+03  0.00000000000E+00 0. -1.
         21   -1    0    0  501  502 -0.00000000000E+00 -0.00000000000E+00 -0.90383310547E+02  0.90383310547E+02  0.00000000000E+00 0. -1.
      99925    2    1    2    0    0  0.17184810735E+02 -0.21028298315E+02  0.24983632340E+03  0.36371129241E+03  0.26292624191E+03 0.  0.
         25    1    1    2    0    0 -0.17184810735E+02  0.21028298315E+02  0.89028463647E+02  0.15592011573E+03  0.12509000000E+03 0.  0.
         25    1    3    3    0    0  0.82738297353E+00  0.20076181493E+02  0.87123959860E+02  0.15375900009E+03  0.12509000000E+03 0.  0.
         25    1    3    3    0    0  0.16357427761E+02 -0.41104479809E+02  0.16271236354E+03  0.20995229233E+03  0.12509000000E+03 0.  0.
<mgrwt>
<rscale>  2 0.39393839E+03</rscale>
<asrwt>0</asrwt>
<pdfrwt beam="1">  1       21 0.63124719E-01 0.39393839E+03</pdfrwt>
<pdfrwt beam="2">  1       21 0.13291664E-01 0.39393839E+03</pdfrwt>
<totfact> 0.10701548E+05</totfact>
</mgrwt>
</event>
<event>
 6    0  0.1539497E-004  0.4573105E+03  0.7546771E-02  0.1025564E+00
         21   -1    0    0  502  501  0.00000000000E+00  0.00000000000E+00  0.13427404676E+03  0.13427404676E+03  0.00000000000E+00 0.  1.
         21   -1    0    0  501  502 -0.00000000000E+00 -0.00000000000E+00 -0.38937693162E+03  0.38937693162E+03  0.00000000000E+00 0.  1.
      99925    2    1    2    0    0  0.26171173981E+02 -0.11150811114E+03 -0.15095540492E+03  0.32462034035E+03  0.26357511623E+03 0.  0.
         25    1    3    3    0    0  0.13314955088E+02 -0.57028960349E+02 -0.28915419861E+02  0.14111413803E+03  0.12509000000E+03 0.  0.
         25    1    3    3    0    0  0.12856218892E+02 -0.54479150788E+02 -0.12203998506E+03  0.18350620232E+03  0.12509000000E+03 0.  0.
         25    1    1    2    0    0 -0.26171173981E+02  0.11150811114E+03 -0.10414747993E+03  0.19903063803E+03  0.12509000000E+03 0.  0.
<mgrwt>
<rscale>  2 0.45731047E+03</rscale>
<asrwt>0</asrwt>
<pdfrwt beam="1">  1       21 0.19746184E-01 0.45731047E+03</pdfrwt>
<pdfrwt beam="2">  1       21 0.57261313E-01 0.45731047E+03</pdfrwt>
<totfact> 0.62485870E+04</totfact>
</mgrwt>
</event>
<event>
 6    0  0.1539497E-004  0.5456098E+03  0.7546771E-02  0.1002515E+00
         21   -1    0    0  502  501  0.00000000000E+00  0.00000000000E+00  0.11406368331E+04  0.11406368331E+04  0.00000000000E+00 0.  1.
         21   -1    0    0  501  502 -0.00000000000E+00 -0.00000000000E+00 -0.65246468377E+02  0.65246468377E+02  0.00000000000E+00 0.  1.
      99925    2    1    2    0    0 -0.15844597001E+03  0.79597534354E+02  0.75479915825E+03  0.81875654877E+03  0.26305821404E+03 0.  0.
         25    1    1    2    0    0  0.15844597001E+03 -0.79597534354E+02  0.32059120642E+03  0.38712675265E+03  0.12509000000E+03 0.  0.
         25    1    3    3    0    0 -0.11210754258E+03  0.72386955876E+02  0.46351463087E+03  0.49829839816E+03  0.12509000000E+03 0.  0.
         25    1    3    3    0    0 -0.46338427427E+02  0.72105784783E+01  0.29128452739E+03  0.32045815061E+03  0.12509000000E+03 0.  0.
<mgrwt>
<rscale>  2 0.54560984E+03</rscale>
<asrwt>0</asrwt>
<pdfrwt beam="1">  1       21 0.16774070E+00 0.54560984E+03</pdfrwt>
<pdfrwt beam="2">  1       21 0.95950696E-02 0.54560984E+03</pdfrwt>
<totfact> 0.16695628E+04</totfact>
</mgrwt>
</event>
<event>
 6    0  0.1539497E-004  0.4497312E+03  0.7546771E-02  0.1027802E+00
         21   -1    0    0  502  501  0.00000000000E+00  0.00000000000E+00  0.57659470752E+02  0.57659470752E+02  0.00000000000E+00 0.  1.
         21   -1    0    0  501  502 -0.00000000000E+00 -0.00000000000E+00 -0.87695108052E+03  0.87695108052E+03  0.00000000000E+00 0.  1.
      99925    2    1    2    0    0 -0.77517894996E+02 -0.31900470298E+02 -0.37593077841E+03  0.46637663651E+03  0.26297633520E+03 0.  0.
         25    1    3    3    0    0 -0.70630341588E+02 -0.42271098703E+02 -0.18948356764E+03  0.24150987857E+03  0.12509000000E+03 0.  0.
         25    1    1    2    0    0  0.77517894996E+02  0.31900470298E+02 -0.44336083136E+03  0.46823391476E+03  0.12509000000E+03 0.  0.
         25    1    3    3    0    0 -0.68875534081E+01  0.10370628405E+02 -0.18644721076E+03  0.22486675794E+03  0.12509000000E+03 0.  0.
<mgrwt>
<rscale>  2 0.44973119E+03</rscale>
<asrwt>0</asrwt>
<pdfrwt beam="1">  1       21 0.84793337E-02 0.44973119E+03</pdfrwt>
<pdfrwt beam="2">  1       21 0.12896340E+00 0.44973119E+03</pdfrwt>
<totfact> 0.43536891E+04</totfact>
</mgrwt>
</event>
<event>
 6    0  0.1539497E-004  0.4129947E+03  0.7546771E-02  0.1039371E+00
         21   -1    0    0  502  501  0.00000000000E+00  0.00000000000E+00  0.27761314156E+03  0.27761314156E+03  0.00000000000E+00 0.  1.
         21   -1    0    0  501  502 -0.00000000000E+00 -0.00000000000E+00 -0.15359917321E+03  0.15359917321E+03  0.00000000000E+00 0.  1.
      99925    2    1    2    0    0  0.49681838375E+02 -0.35764266107E+01  0.34961624577E+02  0.26978460983E+03  0.26283139961E+03 0.  0.
         25    1    3    3    0    0  0.46453104981E+02 -0.89271437513E+01  0.51790152720E+02  0.14341308475E+03  0.12509000000E+03 0.  0.
         25    1    3    3    0    0  0.32287333944E+01  0.53507171406E+01 -0.16828528143E+02  0.12637152509E+03  0.12509000000E+03 0.  0.
         25    1    1    2    0    0 -0.49681838375E+02  0.35764266107E+01  0.89052343768E+02  0.16142770494E+03  0.12509000000E+03 0.  0.
<mgrwt>
<rscale>  2 0.41299467E+03</rscale>
<asrwt>0</asrwt>
<pdfrwt beam="1">  1       21 0.40825462E-01 0.41299467E+03</pdfrwt>
<pdfrwt beam="2">  1       21 0.22588114E-01 0.41299467E+03</pdfrwt>
<totfact> 0.99752701E+04</totfact>
</mgrwt>
</event>
<event>
 6    0  0.1539497E-004  0.4027658E+03  0.7546771E-02  0.1042826E+00
         21   -1    0    0  502  501  0.00000000000E+00  0.00000000000E+00  0.51334745730E+03  0.51334745730E+03  0.00000000000E+00 0.  1.
         21   -1    0    0  501  502 -0.00000000000E+00 -0.00000000000E+00 -0.79001232865E+02  0.79001232865E+02  0.00000000000E+00 0.  1.
      99925    2    1    2    0    0 -0.11925298023E+01  0.41184274786E+02  0.24544650723E+03  0.36207021120E+03  0.26297011866E+03 0.  0.
         25    1    1    2    0    0  0.11925298023E+01 -0.41184274786E+02  0.18889971720E+03  0.23027847897E+03  0.12509000000E+03 0.  0.
         25    1    3    3    0    0  0.85151885636E+01 -0.17798207123E+02  0.10232333034E+03  0.16280926462E+03  0.12509000000E+03 0.  0.
         25    1    3    3    0    0 -0.97077183659E+01  0.58982481909E+02  0.14312317689E+03  0.19926094658E+03  0.12509000000E+03 0.  0.
<mgrwt>
<rscale>  2 0.40276585E+03</rscale>
<asrwt>0</asrwt>
<pdfrwt beam="1">  1       21 0.75492272E-01 0.40276585E+03</pdfrwt>
<pdfrwt beam="2">  1       21 0.11617829E-01 0.40276585E+03</pdfrwt>
<totfact> 0.91431473E+04</totfact>
</mgrwt>
</event>
<event>
 6    0  0.1539497E-004  0.4637368E+03  0.7546771E-02  0.1023703E+00
         21   -1    0    0  502  501  0.00000000000E+00  0.00000000000E+00  0.12959024968E+04  0.12959024968E+04  0.00000000000E+00 0.  1.
         21   -1    0    0  501  502 -0.00000000000E+00 -0.00000000000E+00 -0.41486876907E+02  0.41486876907E+02  0.00000000000E+00 0.  1.
      99925    2    1    2    0    0 -0.92792162958E+02 -0.63864636135E+02  0.65681483175E+03  0.71653247607E+03  0.26329449064E+03 0.  0.
         25    1    3    3    0    0 -0.45843708114E+02 -0.63289351011E+02  0.41238934358E+03  0.43797222095E+03  0.12509000000E+03 0.  0.
         25    1    1    2    0    0  0.92792162958E+02  0.63864636135E+02  0.59760078816E+03  0.62085689765E+03  0.12509000000E+03 0.  0.
         25    1    3    3    0    0 -0.46948454844E+02 -0.57528512382E+00  0.24442548817E+03  0.27856025512E+03  0.12509000000E+03 0.  0.
<mgrwt>
<rscale>  2 0.46373677E+03</rscale>
<asrwt>0</asrwt>
<pdfrwt beam="1">  1       21 0.19057387E+00 0.46373677E+03</pdfrwt>
<pdfrwt beam="2">  1       21 0.61010122E-02 0.46373677E+03</pdfrwt>
<totfact> 0.26220993E+04</totfact>
</mgrwt>
</event>
<event>
 6    0  0.1539497E-004  0.4009634E+03  0.7546771E-02  0.1043447E+00
         21   -1    0    0  502  501  0.00000000000E+00  0.00000000000E+00  0.60208626826E+03  0.60208626826E+03  0.00000000000E+00 0. -1.
         21   -1    0    0  501  502 -0.00000000000E+00 -0.00000000000E+00 -0.66756057433E+02  0.66756057433E+02  0.00000000000E+00 0. -1.
      99925    2    1    2    0    0  0.32673986547E+02 -0.31402693900E+02  0.33424693272E+03  0.42772884325E+03  0.26301565112E+03 0.  0.
         25    1    3    3    0    0  0.53950063531E+02 -0.28403457685E+02  0.19141053849E+03  0.23664925123E+03  0.12509000000E+03 0.  0.
         25    1    1    2    0    0 -0.32673986547E+02  0.31402693900E+02  0.20108327811E+03  0.24111348245E+03  0.12509000000E+03 0.  0.
         25    1    3    3    0    0 -0.21276076983E+02 -0.29992362152E+01  0.14283639423E+03  0.19107959202E+03  0.12509000000E+03 0.  0.
<mgrwt>
<rscale>  2 0.40096337E+03</rscale>
<asrwt>0</asrwt>
<pdfrwt beam="1">  1       21 0.88542095E-01 0.40096337E+03</pdfrwt>
<pdfrwt beam="2">  1       21 0.98170676E-02 0.40096337E+03</pdfrwt>
<totfact> 0.85678483E+04</totfact>
</mgrwt>
</event>
<event>
 6    0  0.1539497E-004  0.3998043E+03  0.7546771E-02  0.1043847E+00
         21   -1    0    0  502  501  0.00000000000E+00  0.00000000000E+00  0.11860092399E+03  0.11860092399E+03  0.00000000000E+00 0. -1.
         21   -1    0    0  501  502 -0.00000000000E+00 -0.00000000000E+00 -0.33693564711E+03  0.33693564711E+03  0.00000000000E+00 0. -1.
      99925    2    1    2    0    0  0.15307166139E+02 -0.41183390686E+02 -0.12986303210E+03  0.29614670563E+03  0.26250349168E+03 0.  0.
         25    1    3    3    0    0  0.50106756431E+01 -0.46846918756E+02 -0.33487155978E+02  0.13779926844E+03  0.12509000000E+03 0.  0.
         25    1    3    3    0    0  0.10296490495E+02  0.56635280699E+01 -0.96375876121E+02  0.15834743719E+03  0.12509000000E+03 0.  0.
         25    1    1    2    0    0 -0.15307166139E+02  0.41183390686E+02 -0.88471691024E+02  0.15938986548E+03  0.12509000000E+03 0.  0.
<mgrwt>
<rscale>  2 0.39980435E+03</rscale>
<asrwt>0</asrwt>
<pdfrwt beam="1">  1       21 0.17441312E-01 0.39980435E+03</pdfrwt>
<pdfrwt beam="2">  1       21 0.49549359E-01 0.39980435E+03</pdfrwt>
<totfact> 0.10900109E+05</totfact>
</mgrwt>
</event>
<event>
 6    0  0.1539497E-004  0.3933461E+03  0.7546771E-02  0.1046108E+00
         21   -1    0    0  502  501  0.00000000000E+00  0.00000000000E+00  0.15734273396E+03  0.15734273396E+03  0.00000000000E+00 0.  1.
         21   -1    0    0  501  502 -0.00000000000E+00 -0.00000000000E+00 -0.24583465393E+03  0.24583465393E+03  0.00000000000E+00 0.  1.
      99925    2    1    2    0    0  0.10749897726E+02  0.26865438902E+02 -0.68078434627E+02  0.27317150113E+03  0.26296517575E+03 0.  0.
         25    1    3    3    0    0 -0.29092630979E+01  0.43837881961E+02 -0.83278594024E+01  0.13284233154E+03  0.12509000000E+03 0.  0.
         25    1    3    3    0    0  0.13659160824E+02 -0.16972443058E+02 -0.59750575225E+02  0.14032916959E+03  0.12509000000E+03 0.  0.
         25    1    1    2    0    0 -0.10749897726E+02 -0.26865438902E+02 -0.20413485350E+02  0.13000588676E+03  0.12509000000E+03 0.  0.
<mgrwt>
<rscale>  2 0.39334614E+03</rscale>
<asrwt>0</asrwt>
<pdfrwt beam="1">  1       21 0.23138638E-01 0.39334614E+03</pdfrwt>
<pdfrwt beam="2">  1       21 0.36152154E-01 0.39334614E+03</pdfrwt>
<totfact> 0.12257761E+05</totfact>
</mgrwt>
</event>
<event>
 6    0  0.1539497E-004  0.5121847E+03  0.7546771E-02  0.1010647E+00
         21   -1    0    0  502  501  0.00000000000E+00  0.00000000000E+00  0.21041612273E+03  0.21041612273E+03  0.00000000000E+00 0.  1.
         21   -1    0    0  501  502 -0.00000000000E+00 -0.00000000000E+00 -0.31168380912E+03  0.31168380912E+03  0.00000000000E+00 0.  1.
      99925    2    1    2    0    0 -0.14070689579E+03 -0.49977930015E+02  0.25979251953E+00  0.30243755208E+03  0.26300604823E+03 0.  0.
         25    1    3    3    0    0 -0.37282113793E+02 -0.50540469659E+02 -0.47351381560E+01  0.14005079334E+03  0.12509000000E+03 0.  0.
         25    1    3    3    0    0 -0.10342478199E+03  0.56253964365E+00  0.49949306756E+01  0.16238675874E+03  0.12509000000E+03 0.  0.
         25    1    1    2    0    0  0.14070689579E+03  0.49977930015E+02 -0.10152747892E+03  0.21966237977E+03  0.12509000000E+03 0.  0.
<mgrwt>
<rscale>  2 0.51218473E+03</rscale>
<asrwt>0</asrwt>
<pdfrwt beam="1">  1       21 0.30943548E-01 0.51218473E+03</pdfrwt>
<pdfrwt beam="2">  1       21 0.45835854E-01 0.51218473E+03</pdfrwt>
<totfact> 0.41466004E+04</totfact>
</mgrwt>
</event>
<event>
 6    0  0.1539497E-004  0.4907501E+03  0.7546771E-02  0.1016222E+00
         21   -1    0    0  502  501  0.00000000000E+00  0.00000000000E+00  0.60448646471E+03  0.60448646471E+03  0.00000000000E+00 0.  1.
         21   -1    0    0  501  502 -0.00000000000E+00 -0.00000000000E+00 -0.99603407593E+02  0.99603407593E+02  0.00000000000E+00 0.  1.
      99925    2    1    2    0    0 -0.10936168413E+02 -0.45111547094E+02  0.11292025348E+03  0.29004035957E+03  0.26309271193E+03 0.  0.
         25    1    1    2    0    0  0.10936168413E+02  0.45111547094E+02  0.39196280364E+03  0.41404951274E+03  0.12509000000E+03 0.  0.
         25    1    3    3    0    0 -0.50546118595E+01 -0.47807762817E+02  0.93218511767E+02  0.16324316317E+03  0.12509000000E+03 0.  0.
         25    1    3    3    0    0 -0.58815565533E+01  0.26962157234E+01  0.19701741710E+02  0.12679719639E+03  0.12509000000E+03 0.  0.
<mgrwt>
<rscale>  2 0.49075009E+03</rscale>
<asrwt>0</asrwt>
<pdfrwt beam="1">  1       21 0.88895066E-01 0.49075009E+03</pdfrwt>
<pdfrwt beam="2">  1       21 0.14647560E-01 0.49075009E+03</pdfrwt>
<totfact> 0.40131463E+04</totfact>
</mgrwt>
</event>
<event>
 6    0  0.1539497E-004  0.4259017E+03  0.7546771E-02  0.1035162E+00
         21   -1    0    0  502  501  0.00000000000E+00  0.00000000000E+00  0.39267149406E+03  0.39267149406E+03  0.00000000000E+00 0.  1.
         21   -1    0    0  501  502 -0.00000000000E+00 -0.00000000000E+00 -0.11548601034E+03  0.11548601034E+03  0.00000000000E+00 0.  1.
      99925    2    1    2    0    0  0.22899789958E+02  0.78195759406E+02  0.19775243781E+03  0.33905370772E+03  0.26308252107E+03 0.  0.
         25    1    1    2    0    0 -0.22899789958E+02 -0.78195759406E+02  0.79433045903E+02  0.16910379668E+03  0.12509000000E+03 0.  0.
         25    1    3    3    0    0  0.46113327137E+02  0.54628041260E+02  0.84032569388E+02  0.16679221400E+03  0.12509000000E+03 0.  0.
         25    1    3    3    0    0 -0.23213537179E+02  0.23567718146E+02  0.11371986843E+03  0.17226149373E+03  0.12509000000E+03 0.  0.
<mgrwt>
<rscale>  2 0.42590170E+03</rscale>
<asrwt>0</asrwt>
<pdfrwt beam="1">  1       21 0.57745808E-01 0.42590170E+03</pdfrwt>
<pdfrwt beam="2">  1       21 0.16983237E-01 0.42590170E+03</pdfrwt>
<totfact> 0.82057760E+04</totfact>
</mgrwt>
</event>
<event>
 6    0  0.1539497E-004  0.4395870E+03  0.7546771E-02  0.1030874E+00
         21   -1    0    0  502  501  0.00000000000E+00  0.00000000000E+00  0.28120587899E+03  0.28120587899E+03  0.00000000000E+00 0.  1.
         21   -1    0    0  501  502 -0.00000000000E+00 -0.00000000000E+00 -0.17179296005E+03  0.17179296005E+03  0.00000000000E+00 0.  1.
      99925    2    1    2    0    0  0.29153520363E+02 -0.79842456287E+02  0.19580814481E+02  0.27709528402E+03  0.26300882600E+03 0.  0.
         25    1    3    3    0    0 -0.13162973046E+02 -0.60244153010E+02  0.31780399567E+02  0.14303888887E+03  0.12509000000E+03 0.  0.
         25    1    1    2    0    0 -0.29153520363E+02  0.79842456287E+02  0.89832104466E+02  0.17590355502E+03  0.12509000000E+03 0.  0.
         25    1    3    3    0    0  0.42316493409E+02 -0.19598303277E+02 -0.12199585086E+02  0.13405639516E+03  0.12509000000E+03 0.  0.
<mgrwt>
<rscale>  2 0.43958703E+03</rscale>
<asrwt>0</asrwt>
<pdfrwt beam="1">  1       21 0.41353806E-01 0.43958703E+03</pdfrwt>
<pdfrwt beam="2">  1       21 0.25263671E-01 0.43958703E+03</pdfrwt>
<totfact> 0.77807469E+04</totfact>
</mgrwt>
</event>
<event>
 6    0  0.1539497E-004  0.5469567E+03  0.7546771E-02  0.1002201E+00
         21   -1    0    0  502  501  0.00000000000E+00  0.00000000000E+00  0.10316083083E+03  0.10316083083E+03  0.00000000000E+00 0. -1.
         21   -1    0    0  501  502 -0.00000000000E+00 -0.00000000000E+00 -0.72498844576E+03  0.72498844576E+03  0.00000000000E+00 0. -1.
      99925    2    1    2    0    0 -0.10873790672E+03  0.41586165723E+02 -0.14587762266E+03  0.32245248525E+03  0.26294863170E+03 0.  0.
         25    1    3    3    0    0 -0.92506481813E+02  0.22282871898E+02 -0.10266379944E+03  0.18772676786E+03  0.12509000000E+03 0.  0.
         25    1    3    3    0    0 -0.16231424902E+02  0.19303293825E+02 -0.43213823216E+02  0.13472571738E+03  0.12509000000E+03 0.  0.
         25    1    1    2    0    0  0.10873790672E+03 -0.41586165723E+02 -0.47594999228E+03  0.50569679135E+03  0.12509000000E+03 0.  0.
<mgrwt>
<rscale>  2 0.54695671E+03</rscale>
<asrwt>0</asrwt>
<pdfrwt beam="1">  1       21 0.15170710E-01 0.54695671E+03</pdfrwt>
<pdfrwt beam="2">  1       21 0.10661595E+00 0.54695671E+03</pdfrwt>
<totfact> 0.23912727E+04</totfact>
</mgrwt>
</event>
<event>
 6    0  0.1539497E-004  0.4967382E+03  0.7546771E-02  0.1014634E+00
         21   -1    0    0  502  501  0.00000000000E+00  0.00000000000E+00  0.45907735685E+03  0.45907735685E+03  0.00000000000E+00 0. -1.
         21   -1    0    0  501  502 -0.00000000000E+00 -0.00000000000E+00 -0.13437214957E+03  0.13437214957E+03  0.00000000000E+00 0. -1.
      99925    2    1    2    0    0 -0.35128131907E+02 -0.13291346784E+03  0.12897755229E+03  0.32352952085E+03  0.26293757107E+03 0.  0.
         25    1    3    3    0    0  0.70092407000E+00 -0.91929065724E+02  0.38854742058E+02  0.16002700866E+03  0.12509000000E+03 0.  0.
         25    1    1    2    0    0  0.35128131907E+02  0.13291346784E+03  0.19572765499E+03  0.26991998557E+03  0.12509000000E+03 0.  0.
         25    1    3    3    0    0 -0.35829055977E+02 -0.40984402113E+02  0.90122810232E+02  0.16350251219E+03  0.12509000000E+03 0.  0.
<mgrwt>
<rscale>  2 0.49673821E+03</rscale>
<asrwt>0</asrwt>
<pdfrwt beam="1">  1       21 0.67511376E-01 0.49673821E+03</pdfrwt>
<pdfrwt beam="2">  1       21 0.19760610E-01 0.49673821E+03</pdfrwt>
<totfact> 0.43026707E+04</totfact>
</mgrwt>
</event>
<event>
 6    0  0.1539497E-004  0.5144497E+03  0.7546771E-02  0.1010075E+00
         21   -1    0    0  502  501  0.00000000000E+00  0.00000000000E+00  0.16374696938E+03  0.16374696938E+03  0.00000000000E+00 0.  1.
         21   -1    0    0  501  502 -0.00000000000E+00 -0.00000000000E+00 -0.40406625142E+03  0.40406625142E+03  0.00000000000E+00 0.  1.
      99925    2    1    2    0    0 -0.94498616286E+02  0.71006442419E+02 -0.26785145360E+03  0.39352199349E+03  0.26295105024E+03 0.  0.
         25    1    1    2    0    0  0.94498616286E+02 -0.71006442419E+02  0.27532171565E+02  0.17429122731E+03  0.12509000000E+03 0.  0.
         25    1    3    3    0    0 -0.60522861148E+02  0.57601875309E+02 -0.98381501264E+02  0.17974265118E+03  0.12509000000E+03 0.  0.
         25    1    3    3    0    0 -0.33975755138E+02  0.13404567110E+02 -0.16946995234E+03  0.21377934232E+03  0.12509000000E+03 0.  0.
<mgrwt>
<rscale>  2 0.51444970E+03</rscale>
<asrwt>0</asrwt>
<pdfrwt beam="1">  1       21 0.24080437E-01 0.51444970E+03</pdfrwt>
<pdfrwt beam="2">  1       21 0.59421508E-01 0.51444970E+03</pdfrwt>
<totfact> 0.38899184E+04</totfact>
</mgrwt>
</event>
<event>
 6    0  0.1539497E-004  0.4995639E+03  0.7546771E-02  0.1013893E+00
         21   -1    0    0  502  501  0.00000000000E+00  0.00000000000E+00  0.39737105220E+03  0.39737105220E+03  0.00000000000E+00 0. -1.
         21   -1    0    0  501  502 -0.00000000000E+00 -0.00000000000E+00 -0.15700946149E+03  0.15700946149E+03  0.00000000000E+00 0. -1.
      99925    2    1    2    0    0  0.65469810051E+02 -0.11426549306E+03  0.22836444142E+03  0.37235211310E+03  0.26296935010E+03 0.  0.
         25    1    3    3    0    0  0.68762029007E+02 -0.49505214986E+02  0.95811822450E+02  0.17890331569E+03  0.12509000000E+03 0.  0.
         25    1    3    3    0    0 -0.32922189556E+01 -0.64760278071E+02  0.13255261897E+03  0.19344879741E+03  0.12509000000E+03 0.  0.
         25    1    1    2    0    0 -0.65469810051E+02  0.11426549306E+03  0.11997149294E+02  0.18202840059E+03  0.12509000000E+03 0.  0.
<mgrwt>
<rscale>  2 0.49956387E+03</rscale>
<asrwt>0</asrwt>
<pdfrwt beam="1">  1       21 0.58436919E-01 0.49956387E+03</pdfrwt>
<pdfrwt beam="2">  1       21 0.23089627E-01 0.49956387E+03</pdfrwt>
<totfact> 0.43904628E+04</totfact>
</mgrwt>
</event>
<event>
 6    0  0.1539497E-004  0.3969656E+03  0.7546771E-02  0.1044835E+00
         21   -1    0    0  502  501  0.00000000000E+00  0.00000000000E+00  0.11760750204E+03  0.11760750204E+03  0.00000000000E+00 0. -1.
         21   -1    0    0  501  502 -0.00000000000E+00 -0.00000000000E+00 -0.33497374935E+03  0.33497374935E+03  0.00000000000E+00 0. -1.
      99925    2    1    2    0    0  0.25988493674E+02  0.20448858982E+02 -0.12143503140E+03  0.29151026106E+03  0.26294145321E+03 0.  0.
         25    1    3    3    0    0  0.30858263980E+02 -0.11081948217E+02 -0.93099207031E+02  0.15934243779E+03  0.12509000000E+03 0.  0.
         25    1    1    2    0    0 -0.25988493674E+02 -0.20448858982E+02 -0.95931215920E+02  0.16107099033E+03  0.12509000000E+03 0.  0.
         25    1    3    3    0    0 -0.48697703059E+01  0.31530807199E+02 -0.28335824367E+02  0.13216782327E+03  0.12509000000E+03 0.  0.
<mgrwt>
<rscale>  2 0.39696562E+03</rscale>
<asrwt>0</asrwt>
<pdfrwt beam="1">  1       21 0.17295221E-01 0.39696562E+03</pdfrwt>
<pdfrwt beam="2">  1       21 0.49260846E-01 0.39696562E+03</pdfrwt>
<totfact> 0.11217502E+05</totfact>
</mgrwt>
</event>
<event>
 6    0  0.1539497E-004  0.4627176E+03  0.7546771E-02  0.1023996E+00
         21   -1    0    0  502  501  0.00000000000E+00  0.00000000000E+00  0.70406506180E+03  0.70406506180E+03  0.00000000000E+00 0. -1.
         21   -1    0    0  501  502 -0.00000000000E+00 -0.00000000000E+00 -0.76025486018E+02  0.76025486018E+02  0.00000000000E+00 0. -1.
      99925    2    1    2    0    0  0.31369361478E+02  0.28687122491E+02  0.20273637419E+03  0.33473977683E+03  0.26294808030E+03 0.  0.
         25    1    3    3    0    0  0.41520278941E+02  0.42162540600E+02  0.12514764014E+03  0.18657720473E+03  0.12509000000E+03 0.  0.
         25    1    3    3    0    0 -0.10150917463E+02 -0.13475418109E+02  0.77588734053E+02  0.14816257210E+03  0.12509000000E+03 0.  0.
         25    1    1    2    0    0 -0.31369361478E+02 -0.28687122491E+02  0.42530320160E+03  0.44535077099E+03  0.12509000000E+03 0.  0.
<mgrwt>
<rscale>  2 0.46271757E+03</rscale>
<asrwt>0</asrwt>
<pdfrwt beam="1">  1       21 0.10353898E+00 0.46271757E+03</pdfrwt>
<pdfrwt beam="2">  1       21 0.11180219E-01 0.46271757E+03</pdfrwt>
<totfact> 0.45898752E+04</totfact>
</mgrwt>
</event>
<event>
 6    0  0.1539497E-004  0.4408356E+03  0.7546771E-02  0.1030491E+00
         21   -1    0    0  502  501  0.00000000000E+00  0.00000000000E+00  0.29581268604E+03  0.29581268604E+03  0.00000000000E+00 0. -1.
         21   -1    0    0  501  502 -0.00000000000E+00 -0.00000000000E+00 -0.16423911946E+03  0.16423911946E+03  0.00000000000E+00 0. -1.
      99925    2    1    2    0    0  0.12707829733E+02  0.98390909169E+02  0.87647419234E+02  0.29446414152E+03  0.26303003744E+03 0.  0.
         25    1    3    3    0    0 -0.23037479367E+02  0.21040912571E+02  0.51677623211E+02  0.13889395343E+03  0.12509000000E+03 0.  0.
         25    1    1    2    0    0 -0.12707829733E+02 -0.98390909169E+02  0.43926147353E+02  0.16558766399E+03  0.12509000000E+03 0.  0.
         25    1    3    3    0    0  0.35745309100E+02  0.77349996598E+02  0.35969796022E+02  0.15557018809E+03  0.12509000000E+03 0.  0.
<mgrwt>
<rscale>  2 0.44083564E+03</rscale>
<asrwt>0</asrwt>
<pdfrwt beam="1">  1       21 0.43501865E-01 0.44083564E+03</pdfrwt>
<pdfrwt beam="2">  1       21 0.24152812E-01 0.44083564E+03</pdfrwt>
<totfact> 0.76415367E+04</totfact>
</mgrwt>
</event>
<event>
 6    0  0.1539497E-004  0.4447250E+03  0.7546771E-02  0.1029307E+00
         21   -1    0    0  502  501  0.00000000000E+00  0.00000000000E+00  0.47744628386E+03  0.47744628386E+03  0.00000000000E+00 0.  1.
         21   -1    0    0  501  502 -0.00000000000E+00 -0.00000000000E+00 -0.10356157922E+03  0.10356157922E+03  0.00000000000E+00 0.  1.
      99925    2    1    2    0    0  0.43367379845E+02 -0.77798768686E+02  0.30586028233E+03  0.41305486914E+03  0.26292667146E+03 0.  0.
         25    1    1    2    0    0 -0.43367379845E+02  0.77798768686E+02  0.68024422310E+02  0.16795299394E+03  0.12509000000E+03 0.  0.
         25    1    3    3    0    0  0.61106939888E+02 -0.41160621170E+02  0.17684409245E+03  0.22880034084E+03  0.12509000000E+03 0.  0.
         25    1    3    3    0    0 -0.17739560042E+02 -0.36638147517E+02  0.12901618989E+03  0.18425452829E+03  0.12509000000E+03 0.  0.
<mgrwt>
<rscale>  2 0.44472504E+03</rscale>
<asrwt>0</asrwt>
<pdfrwt beam="1">  1       21 0.70212688E-01 0.44472504E+03</pdfrwt>
<pdfrwt beam="2">  1       21 0.15229644E-01 0.44472504E+03</pdfrwt>
<totfact> 0.64982355E+04</totfact>
</mgrwt>
</event>
<event>
 6    0  0.1539497E-004  0.4025132E+03  0.7546771E-02  0.1042913E+00
         21   -1    0    0  502  501  0.00000000000E+00  0.00000000000E+00  0.85500261484E+03  0.85500261484E+03  0.00000000000E+00 0. -1.
         21   -1    0    0  501  502 -0.00000000000E+00 -0.00000000000E+00 -0.47373209945E+02  0.47373209945E+02  0.00000000000E+00 0. -1.
      99925    2    1    2    0    0  0.37150195955E+02 -0.13859807871E+02  0.60736293757E+03  0.66294650877E+03  0.26274722495E+03 0.  0.
         25    1    1    2    0    0 -0.37150195955E+02  0.13859807871E+02  0.20026646732E+03  0.23942931601E+03  0.12509000000E+03 0.  0.
         25    1    3    3    0    0  0.89626164593E+01  0.25143986406E+02  0.35254443139E+03  0.37503017579E+03  0.12509000000E+03 0.  0.
         25    1    3    3    0    0  0.28187579496E+02 -0.39003794277E+02  0.25481850618E+03  0.28791633298E+03  0.12509000000E+03 0.  0.
<mgrwt>
<rscale>  2 0.40251320E+03</rscale>
<asrwt>0</asrwt>
<pdfrwt beam="1">  1       21 0.12573567E+00 0.40251320E+03</pdfrwt>
<pdfrwt beam="2">  1       21 0.69666490E-02 0.40251320E+03</pdfrwt>
<totfact> 0.66537983E+04</totfact>
</mgrwt>
</event>
<event>
 6    0  0.1539497E-004  0.4083843E+03  0.7546771E-02  0.1040915E+00
         21   -1    0    0  502  501  0.00000000000E+00  0.00000000000E+00  0.65444605867E+02  0.65444605867E+02  0.00000000000E+00 0. -1.
         21   -1    0    0  501  502 -0.00000000000E+00 -0.00000000000E+00 -0.63709512463E+03  0.63709512463E+03  0.00000000000E+00 0. -1.
      99925    2    1    2    0    0  0.54101680898E+02 -0.21147093847E+02 -0.35458589227E+03  0.44536517572E+03  0.26314405425E+03 0.  0.
         25    1    1    2    0    0 -0.54101680898E+02  0.21147093847E+02 -0.21706462649E+03  0.25717455479E+03  0.12509000000E+03 0.  0.
         25    1    3    3    0    0  0.51999645959E+02  0.56514209416E+01 -0.13569890433E+03  0.19182701185E+03  0.12509000000E+03 0.  0.
         25    1    3    3    0    0  0.21020349391E+01 -0.26798514789E+02 -0.21888698795E+03  0.25353816387E+03  0.12509000000E+03 0.  0.
<mgrwt>
<rscale>  2 0.40838433E+03</rscale>
<asrwt>0</asrwt>
<pdfrwt beam="1">  1       21 0.96242064E-02 0.40838433E+03</pdfrwt>
<pdfrwt beam="2">  1       21 0.93690462E-01 0.40838433E+03</pdfrwt>
<totfact> 0.77525965E+04</totfact>
</mgrwt>
</event>
<event>
 6    0  0.1539497E-004  0.4441487E+03  0.7546771E-02  0.1029481E+00
         21   -1    0    0  502  501  0.00000000000E+00  0.00000000000E+00  0.21131915835E+04  0.21131915835E+04  0.00000000000E+00 0. -1.
         21   -1    0    0  501  502 -0.00000000000E+00 -0.00000000000E+00 -0.23337697802E+02  0.23337697802E+02  0.00000000000E+00 0. -1.
      99925    2    1    2    0    0 -0.30839567307E+02 -0.87399874947E+02  0.15412373710E+04  0.15662509235E+04  0.26294391914E+03 0.  0.
         25    1    3    3    0    0 -0.46685555746E+02 -0.69709274639E+02  0.77374125940E+03  0.78826516394E+03  0.12509000000E+03 0.  0.
         25    1    1    2    0    0  0.30839567307E+02  0.87399874947E+02  0.54861651468E+03  0.57027835777E+03  0.12509000000E+03 0.  0.
         25    1    3    3    0    0  0.15845988439E+02 -0.17690600308E+02  0.76749611162E+03  0.77798575960E+03  0.12509000000E+03 0.  0.
<mgrwt>
<rscale>  2 0.44414874E+03</rscale>
<asrwt>0</asrwt>
<pdfrwt beam="1">  1       21 0.31076334E+00 0.44414874E+03</pdfrwt>
<pdfrwt beam="2">  1       21 0.34320158E-02 0.44414874E+03</pdfrwt>
<totfact> 0.12637943E+04</totfact>
</mgrwt>
</event>
<event>
 6    0  0.1539497E-004  0.3997380E+03  0.7546771E-02  0.1043870E+00
         21   -1    0    0  502  501  0.00000000000E+00  0.00000000000E+00  0.10469433175E+04  0.10469433175E+04  0.00000000000E+00 0.  1.
         21   -1    0    0  501  502 -0.00000000000E+00 -0.00000000000E+00 -0.38156433604E+02  0.38156433604E+02  0.00000000000E+00 0.  1.
      99925    2    1    2    0    0 -0.39280956148E+02  0.23011595454E+02  0.67675127780E+03  0.72737404773E+03  0.26269409255E+03 0.  0.
         25    1    3    3    0    0  0.13534261853E+02  0.10668033755E+02  0.26310236663E+03  0.29183445070E+03  0.12509000000E+03 0.  0.
         25    1    3    3    0    0 -0.52815218002E+02  0.12343561699E+02  0.41364891116E+03  0.43553959702E+03  0.12509000000E+03 0.  0.
         25    1    1    2    0    0  0.39280956148E+02 -0.23011595454E+02  0.33203560611E+03  0.35772570339E+03  0.12509000000E+03 0.  0.
<mgrwt>
<rscale>  2 0.39973803E+03</rscale>
<asrwt>0</asrwt>
<pdfrwt beam="1">  1       21 0.15396223E+00 0.39973803E+03</pdfrwt>
<pdfrwt beam="2">  1       21 0.56112409E-02 0.39973803E+03</pdfrwt>
<totfact> 0.56849179E+04</totfact>
</mgrwt>
</event>
<event>
 6    0  0.1539497E-004  0.4127086E+03  0.7546771E-02  0.1039466E+00
         21   -1    0    0  502  501  0.00000000000E+00  0.00000000000E+00  0.24913007500E+03  0.24913007500E+03  0.00000000000E+00 0. -1.
         21   -1    0    0  501  502 -0.00000000000E+00 -0.00000000000E+00 -0.17092314981E+03  0.17092314981E+03  0.00000000000E+00 0. -1.
      99925    2    1    2    0    0  0.52566830822E+02  0.30309737137E+01  0.10369886697E+02  0.26832376032E+03  0.26290235316E+03 0.  0.
         25    1    1    2    0    0 -0.52566830822E+02 -0.30309737137E+01  0.67837038489E+02  0.15172946449E+03  0.12509000000E+03 0.  0.
         25    1    3    3    0    0  0.48020088130E+02  0.93626013329E+01  0.38796265555E+02  0.13980788779E+03  0.12509000000E+03 0.  0.
         25    1    3    3    0    0  0.45467426921E+01 -0.63316276192E+01 -0.28426378858E+02  0.12851587253E+03  0.12509000000E+03 0.  0.
<mgrwt>
<rscale>  2 0.41270860E+03</rscale>
<asrwt>0</asrwt>
<pdfrwt beam="1">  1       21 0.36636776E-01 0.41270860E+03</pdfrwt>
<pdfrwt beam="2">  1       21 0.25135757E-01 0.41270860E+03</pdfrwt>
<totfact> 0.10126499E+05</totfact>
</mgrwt>
</event>
<event>
 6    0  0.1539497E-004  0.4022082E+03  0.7546771E-02  0.1043018E+00
         21   -1    0    0  502  501  0.00000000000E+00  0.00000000000E+00  0.15402683198E+03  0.15402683198E+03  0.00000000000E+00 0.  1.
         21   -1    0    0  501  502 -0.00000000000E+00 -0.00000000000E+00 -0.26257017815E+03  0.26257017815E+03  0.00000000000E+00 0.  1.
      99925    2    1    2    0    0 -0.59928028262E+01 -0.33958363482E+02 -0.35336088451E+02  0.26761414260E+03  0.26302016279E+03 0.  0.
         25    1    3    3    0    0  0.74623436000E+01  0.20217309070E+02 -0.30514942646E+02  0.13054920905E+03  0.12509000000E+03 0.  0.
         25    1    1    2    0    0  0.59928028262E+01  0.33958363482E+02 -0.73207257720E+02  0.14898286754E+03  0.12509000000E+03 0.  0.
         25    1    3    3    0    0 -0.13455146426E+02 -0.54175672552E+02 -0.48211458050E+01  0.13706493355E+03  0.12509000000E+03 0.  0.
<mgrwt>
<rscale>  2 0.40220817E+03</rscale>
<asrwt>0</asrwt>
<pdfrwt beam="1">  1       21 0.22651005E-01 0.40220817E+03</pdfrwt>
<pdfrwt beam="2">  1       21 0.38613261E-01 0.40220817E+03</pdfrwt>
<totfact> 0.11148823E+05</totfact>
</mgrwt>
</event>
<event>
 6    0  0.1539497E-004  0.4023464E+03  0.7546771E-02  0.1042970E+00
         21   -1    0    0  502  501  0.00000000000E+00  0.00000000000E+00  0.11286994872E+03  0.11286994872E+03  0.00000000000E+00 0. -1.
         21   -1    0    0  501  502 -0.00000000000E+00 -0.00000000000E+00 -0.35856014161E+03  0.35856014161E+03  0.00000000000E+00 0. -1.
      99925    2    1    2    0    0  0.37520447788E+02  0.29456000374E+02 -0.18036580174E+03  0.32246625532E+03  0.26301563342E+03 0.  0.
         25    1    3    3    0    0  0.13497921328E+02  0.39235967051E+02 -0.13007836725E+03  0.18517436302E+03  0.12509000000E+03 0.  0.
         25    1    3    3    0    0  0.24022526460E+02 -0.97799666774E+01 -0.50287434488E+02  0.13729189231E+03  0.12509000000E+03 0.  0.
         25    1    1    2    0    0 -0.37520447788E+02 -0.29456000374E+02 -0.65324391147E+02  0.14896383500E+03  0.12509000000E+03 0.  0.
<mgrwt>
<rscale>  2 0.40234644E+03</rscale>
<asrwt>0</asrwt>
<pdfrwt beam="1">  1       21 0.16598522E-01 0.40234644E+03</pdfrwt>
<pdfrwt beam="2">  1       21 0.52729432E-01 0.40234644E+03</pdfrwt>
<totfact> 0.10469344E+05</totfact>
</mgrwt>
</event>
<event>
 6    0  0.1539497E-004  0.4352755E+03  0.7546771E-02  0.1032206E+00
         21   -1    0    0  502  501  0.00000000000E+00  0.00000000000E+00  0.51206684419E+02  0.51206684419E+02  0.00000000000E+00 0. -1.
         21   -1    0    0  501  502 -0.00000000000E+00 -0.00000000000E+00 -0.92500018276E+03  0.92500018276E+03  0.00000000000E+00 0. -1.
      99925    2    1    2    0    0 -0.29690746912E+02  0.74167431644E+02 -0.45130870765E+03  0.52840863713E+03  0.26297108173E+03 0.  0.
         25    1    3    3    0    0 -0.48759127990E+02  0.27603821389E+02 -0.26602516279E+03  0.29925961781E+03  0.12509000000E+03 0.  0.
         25    1    3    3    0    0  0.19068381078E+02  0.46563610255E+02 -0.18528354486E+03  0.22914901931E+03  0.12509000000E+03 0.  0.
         25    1    1    2    0    0  0.29690746912E+02 -0.74167431644E+02 -0.42248479069E+03  0.44779823005E+03  0.12509000000E+03 0.  0.
<mgrwt>
<rscale>  2 0.43527551E+03</rscale>
<asrwt>0</asrwt>
<pdfrwt beam="1">  1       21 0.75303951E-02 0.43527551E+03</pdfrwt>
<pdfrwt beam="2">  1       21 0.13602943E+00 0.43527551E+03</pdfrwt>
<totfact> 0.46925717E+04</totfact>
</mgrwt>
</event>
<event>
 6    0  0.1539497E-004  0.6304093E+03  0.7546771E-02  0.9844250E-01
         21   -1    0    0  502  501  0.00000000000E+00  0.00000000000E+00  0.22125777019E+03  0.22125777019E+03  0.00000000000E+00 0.  1.
         21   -1    0    0  501  502 -0.00000000000E+00 -0.00000000000E+00 -0.44904175089E+03  0.44904175089E+03  0.00000000000E+00 0.  1.
      99925    2    1    2    0    0 -0.50115401238E+02 -0.18405321636E+03 -0.28768439196E+03  0.43445485342E+03  0.26382109541E+03 0.  0.
         25    1    3    3    0    0 -0.32929138227E+02 -0.48318944558E+02 -0.98735410772E+02  0.16975051690E+03  0.12509000000E+03 0.  0.
         25    1    1    2    0    0  0.50115401238E+02  0.18405321636E+03  0.59900411262E+02  0.23584466766E+03  0.12509000000E+03 0.  0.
         25    1    3    3    0    0 -0.17186263011E+02 -0.13573427180E+03 -0.18894898119E+03  0.26470433652E+03  0.12509000000E+03 0.  0.
<mgrwt>
<rscale>  2 0.63040932E+03</rscale>
<asrwt>0</asrwt>
<pdfrwt beam="1">  1       21 0.32537907E-01 0.63040932E+03</pdfrwt>
<pdfrwt beam="2">  1       21 0.66035552E-01 0.63040932E+03</pdfrwt>
<totfact> 0.16575090E+04</totfact>
</mgrwt>
</event>
<event>
 6    0  0.1539497E-004  0.4159040E+03  0.7546771E-02  0.1038408E+00
         21   -1    0    0  502  501  0.00000000000E+00  0.00000000000E+00  0.63833632649E+02  0.63833632649E+02  0.00000000000E+00 0.  1.
         21   -1    0    0  501  502 -0.00000000000E+00 -0.00000000000E+00 -0.67744910799E+03  0.67744910799E+03  0.00000000000E+00 0.  1.
      99925    2    1    2    0    0 -0.86076228835E+00 -0.61973756179E+02 -0.46342860632E+03  0.53623374383E+03  0.26256250208E+03 0.  0.
         25    1    3    3    0    0 -0.39599141086E+01 -0.64167482168E+02 -0.29067849998E+03  0.32291584838E+03  0.12509000000E+03 0.  0.
         25    1    1    2    0    0  0.86076228835E+00  0.61973756179E+02 -0.15018686901E+03  0.20504899681E+03  0.12509000000E+03 0.  0.
         25    1    3    3    0    0  0.30991518202E+01  0.21937259892E+01 -0.17275010635E+03  0.21331789545E+03  0.12509000000E+03 0.  0.
<mgrwt>
<rscale>  2 0.41590402E+03</rscale>
<asrwt>0</asrwt>
<pdfrwt beam="1">  1       21 0.93872986E-02 0.41590402E+03</pdfrwt>
<pdfrwt beam="2">  1       21 0.99624872E-01 0.41590402E+03</pdfrwt>
<totfact> 0.69830697E+04</totfact>
</mgrwt>
</event>
<event>
 6    0  0.1539497E-004  0.4531559E+03  0.7546771E-02  0.1026785E+00
         21   -1    0    0  502  501  0.00000000000E+00  0.00000000000E+00  0.92012914322E+02  0.92012914322E+02  0.00000000000E+00 0.  1.
         21   -1    0    0  501  502 -0.00000000000E+00 -0.00000000000E+00 -0.55793868613E+03  0.55793868613E+03  0.00000000000E+00 0.  1.
      99925    2    1    2    0    0 -0.60220032119E+02 -0.73889468591E+02 -0.21104567621E+03  0.35045622976E+03  0.26304597638E+03 0.  0.
         25    1    1    2    0    0  0.60220032119E+02  0.73889468591E+02 -0.25488009559E+03  0.29949537069E+03  0.12509000000E+03 0.  0.
         25    1    3    3    0    0 -0.69892143004E+02 -0.26821559920E+02 -0.11073094947E+03  0.18306599630E+03  0.12509000000E+03 0.  0.
         25    1    3    3    0    0  0.96721108849E+01 -0.47067908672E+02 -0.10031472674E+03  0.16739023346E+03  0.12509000000E+03 0.  0.
<mgrwt>
<rscale>  2 0.45315589E+03</rscale>
<asrwt>0</asrwt>
<pdfrwt beam="1">  1       21 0.13531311E-01 0.45315589E+03</pdfrwt>
<pdfrwt beam="2">  1       21 0.82049806E-01 0.45315589E+03</pdfrwt>
<totfact> 0.56522080E+04</totfact>
</mgrwt>
</event>
<event>
 6    0  0.1539497E-004  0.4300504E+03  0.7546771E-02  0.1033844E+00
         21   -1    0    0  502  501  0.00000000000E+00  0.00000000000E+00  0.56508899825E+03  0.56508899825E+03  0.00000000000E+00 0. -1.
         21   -1    0    0  501  502 -0.00000000000E+00 -0.00000000000E+00 -0.81820468262E+02  0.81820468262E+02  0.00000000000E+00 0. -1.
      99925    2    1    2    0    0  0.45641525884E+02 -0.25298506014E+01  0.42427414737E+03  0.50124754867E+03  0.26296578464E+03 0.  0.
         25    1    3    3    0    0  0.18654624857E+02  0.37346936688E+02  0.23209479335E+03  0.26694248427E+03  0.12509000000E+03 0.  0.
         25    1    1    2    0    0 -0.45641525884E+02  0.25298506014E+01  0.58994382617E+02  0.14566191784E+03  0.12509000000E+03 0.  0.
         25    1    3    3    0    0  0.26986901027E+02 -0.39876787289E+02  0.19217935402E+03  0.23430506440E+03  0.12509000000E+03 0.  0.
<mgrwt>
<rscale>  2 0.43005045E+03</rscale>
<asrwt>0</asrwt>
<pdfrwt beam="1">  1       21 0.83101321E-01 0.43005045E+03</pdfrwt>
<pdfrwt beam="2">  1       21 0.12032422E-01 0.43005045E+03</pdfrwt>
<totfact> 0.68369693E+04</totfact>
</mgrwt>
</event>
<event>
 6    0  0.1539497E-004  0.4581182E+03  0.7546771E-02  0.1025328E+00
         21   -1    0    0  502  501  0.00000000000E+00  0.00000000000E+00  0.10099468012E+03  0.10099468012E+03  0.00000000000E+00 0. -1.
         21   -1    0    0  501  502 -0.00000000000E+00 -0.00000000000E+00 -0.51951322795E+03  0.51951322795E+03  0.00000000000E+00 0. -1.
      99925    2    1    2    0    0  0.39270610980E+02 -0.63814859828E+02 -0.14365119623E+03  0.30935828764E+03  0.26353816940E+03 0.  0.
         25    1    3    3    0    0  0.51071573361E+02 -0.48435658500E+02 -0.10205245132E+03  0.17611510310E+03  0.12509000000E+03 0.  0.
         25    1    3    3    0    0 -0.11800962381E+02 -0.15379201329E+02 -0.41598744906E+02  0.13324318453E+03  0.12509000000E+03 0.  0.
         25    1    1    2    0    0 -0.39270610980E+02  0.63814859828E+02 -0.27486735160E+03  0.31114962043E+03  0.12509000000E+03 0.  0.
<mgrwt>
<rscale>  2 0.45811820E+03</rscale>
<asrwt>0</asrwt>
<pdfrwt beam="1">  1       21 0.14852159E-01 0.45811820E+03</pdfrwt>
<pdfrwt beam="2">  1       21 0.76399004E-01 0.45811820E+03</pdfrwt>
<totfact> 0.56040687E+04</totfact>
</mgrwt>
</event>
<event>
 6    0  0.1539497E-004  0.4528091E+03  0.7546771E-02  0.1026888E+00
         21   -1    0    0  502  501  0.00000000000E+00  0.00000000000E+00  0.10972710106E+03  0.10972710106E+03  0.00000000000E+00 0. -1.
         21   -1    0    0  501  502 -0.00000000000E+00 -0.00000000000E+00 -0.46715004816E+03  0.46715004816E+03  0.00000000000E+00 0. -1.
      99925    2    1    2    0    0 -0.10191971831E+03 -0.40556197235E+02 -0.24816712339E+03  0.37783751189E+03  0.26294834121E+03 0.  0.
         25    1    3    3    0    0 -0.54600339237E+02 -0.16713696013E+02 -0.17803119438E+03  0.22495145910E+03  0.12509000000E+03 0.  0.
         25    1    1    2    0    0  0.10191971831E+03  0.40556197235E+02 -0.10925582371E+03  0.19903963733E+03  0.12509000000E+03 0.  0.
         25    1    3    3    0    0 -0.47319379074E+02 -0.23842501222E+02 -0.70135929008E+02  0.15288605279E+03  0.12509000000E+03 0.  0.
<mgrwt>
<rscale>  2 0.45280910E+03</rscale>
<asrwt>0</asrwt>
<pdfrwt beam="1">  1       21 0.16136339E-01 0.45280910E+03</pdfrwt>
<pdfrwt beam="2">  1       21 0.68698535E-01 0.45280910E+03</pdfrwt>
<totfact> 0.61177447E+04</totfact>
</mgrwt>
</event>
<event>
 6    0  0.1539497E-004  0.4180476E+03  0.7546771E-02  0.1037704E+00
         21   -1    0    0  502  501  0.00000000000E+00  0.00000000000E+00  0.19203360950E+03  0.19203360950E+03  0.00000000000E+00 0.  1.
         21   -1    0    0  501  502 -0.00000000000E+00 -0.00000000000E+00 -0.22751724746E+03  0.22751724746E+03  0.00000000000E+00 0.  1.
      99925    2    1    2    0    0 -0.16396584270E+02 -0.59696511149E+02 -0.63321999362E+02  0.27723078148E+03  0.26270650768E+03 0.  0.
         25    1    1    2    0    0  0.16396584270E+02  0.59696511149E+02  0.27838361398E+02  0.14232007548E+03  0.12509000000E+03 0.  0.
         25    1    3    3    0    0 -0.13883396537E+02 -0.36923679123E+02  0.80344396781E+01  0.13140839813E+03  0.12509000000E+03 0.  0.
         25    1    3    3    0    0 -0.25131877331E+01 -0.22772832026E+02 -0.71356439040E+02  0.14582238334E+03  0.12509000000E+03 0.  0.
<mgrwt>
<rscale>  2 0.41804764E+03</rscale>
<asrwt>0</asrwt>
<pdfrwt beam="1">  1       21 0.28240237E-01 0.41804764E+03</pdfrwt>
<pdfrwt beam="2">  1       21 0.33458418E-01 0.41804764E+03</pdfrwt>
<totfact> 0.96756947E+04</totfact>
</mgrwt>
</event>
<event>
 6    0  0.1539497E-004  0.3908779E+03  0.7546771E-02  0.1046985E+00
         21   -1    0    0  502  501  0.00000000000E+00  0.00000000000E+00  0.14504775129E+03  0.14504775129E+03  0.00000000000E+00 0.  1.
         21   -1    0    0  501  502 -0.00000000000E+00 -0.00000000000E+00 -0.26333660197E+03  0.26333660197E+03  0.00000000000E+00 0.  1.
      99925    2    1    2    0    0 -0.12866256517E+02  0.58421889107E+01 -0.62621425985E+02  0.27073973114E+03  0.26301879647E+03 0.  0.
         25    1    1    2    0    0  0.12866256517E+02 -0.58421889107E+01 -0.55667424690E+02  0.13764462212E+03  0.12509000000E+03 0.  0.
         25    1    3    3    0    0 -0.36581427145E+02 -0.21338646973E+02 -0.44148222313E+02  0.13924838347E+03  0.12509000000E+03 0.  0.
         25    1    3    3    0    0  0.23715170628E+02  0.27180835884E+02 -0.18473203671E+02  0.13149134767E+03  0.12509000000E+03 0.  0.
<mgrwt>
<rscale>  2 0.39087789E+03</rscale>
<asrwt>0</asrwt>
<pdfrwt beam="1">  1       21 0.21330552E-01 0.39087789E+03</pdfrwt>
<pdfrwt beam="2">  1       21 0.38725970E-01 0.39087789E+03</pdfrwt>
<totfact> 0.12462303E+05</totfact>
</mgrwt>
</event>
<event>
 6    0  0.1539497E-004  0.4013828E+03  0.7546771E-02  0.1043302E+00
         21   -1    0    0  502  501  0.00000000000E+00  0.00000000000E+00  0.43048549488E+03  0.43048549488E+03  0.00000000000E+00 0. -1.
         21   -1    0    0  501  502 -0.00000000000E+00 -0.00000000000E+00 -0.93561879572E+02  0.93561879572E+02  0.00000000000E+00 0. -1.
      99925    2    1    2    0    0 -0.32476679309E+02 -0.35446583883E+02  0.22778399629E+03  0.35121751723E+03  0.26297718615E+03 0.  0.
         25    1    3    3    0    0 -0.11652343314E+02  0.18635001511E+02  0.85526904406E+02  0.15311890760E+03  0.12509000000E+03 0.  0.
         25    1    3    3    0    0 -0.20824335995E+02 -0.54081585394E+02  0.14225709188E+03  0.19809860963E+03  0.12509000000E+03 0.  0.
         25    1    1    2    0    0  0.32476679309E+02  0.35446583883E+02  0.10913961902E+03  0.17282985722E+03  0.12509000000E+03 0.  0.
<mgrwt>
<rscale>  2 0.40138277E+03</rscale>
<asrwt>0</asrwt>
<pdfrwt beam="1">  1       21 0.63306690E-01 0.40138277E+03</pdfrwt>
<pdfrwt beam="2">  1       21 0.13759100E-01 0.40138277E+03</pdfrwt>
<totfact> 0.99645972E+04</totfact>
</mgrwt>
</event>
<event>
 6    0  0.1539497E-004  0.3909155E+03  0.7546771E-02  0.1046972E+00
         21   -1    0    0  502  501  0.00000000000E+00  0.00000000000E+00  0.83238128530E+02  0.83238128530E+02  0.00000000000E+00 0.  1.
         21   -1    0    0  501  502 -0.00000000000E+00 -0.00000000000E+00 -0.45896908803E+03  0.45896908803E+03  0.00000000000E+00 0.  1.
      99925    2    1    2    0    0 -0.18325555696E+02 -0.17019090955E+01 -0.27147744811E+03  0.37833218727E+03  0.26286216276E+03 0.  0.
         25    1    3    3    0    0 -0.27310280666E+01  0.35557606766E+01 -0.78430349761E+02  0.14771232112E+03  0.12509000000E+03 0.  0.
         25    1    1    2    0    0  0.18325555696E+02  0.17019090955E+01 -0.10425351140E+03  0.16387502929E+03  0.12509000000E+03 0.  0.
         25    1    3    3    0    0 -0.15594527629E+02 -0.52576697721E+01 -0.19304709835E+03  0.23061986615E+03  0.12509000000E+03 0.  0.
<mgrwt>
<rscale>  2 0.39091548E+03</rscale>
<asrwt>0</asrwt>
<pdfrwt beam="1">  1       21 0.12240901E-01 0.39091548E+03</pdfrwt>
<pdfrwt beam="2">  1       21 0.67495455E-01 0.39091548E+03</pdfrwt>
<totfact> 0.10729282E+05</totfact>
</mgrwt>
</event>
<event>
 6    0  0.1539497E-004  0.4545433E+03  0.7546771E-02  0.1026376E+00
         21   -1    0    0  502  501  0.00000000000E+00  0.00000000000E+00  0.32644658215E+03  0.32644658215E+03  0.00000000000E+00 0. -1.
         21   -1    0    0  501  502 -0.00000000000E+00 -0.00000000000E+00 -0.15822618475E+03  0.15822618475E+03  0.00000000000E+00 0. -1.
      99925    2    1    2    0    0  0.48249820805E+02  0.45965493567E+02  0.20298149051E+03  0.33873883150E+03  0.26287190544E+03 0.  0.
         25    1    3    3    0    0  0.62991020608E+01  0.20591555735E+02  0.53479414265E+02  0.13773614887E+03  0.12509000000E+03 0.  0.
         25    1    3    3    0    0  0.41950718744E+02  0.25373937831E+02  0.14950207625E+03  0.20100268264E+03  0.12509000000E+03 0.  0.
         25    1    1    2    0    0 -0.48249820805E+02 -0.45965493567E+02 -0.34761093118E+02  0.14593393540E+03  0.12509000000E+03 0.  0.
<mgrwt>
<rscale>  2 0.45454328E+03</rscale>
<asrwt>0</asrwt>
<pdfrwt beam="1">  1       21 0.48006850E-01 0.45454328E+03</pdfrwt>
<pdfrwt beam="2">  1       21 0.23268557E-01 0.45454328E+03</pdfrwt>
<totfact> 0.66602652E+04</totfact>
</mgrwt>
</event>
<event>
 6    0  0.1539497E-004  0.4108905E+03  0.7546771E-02  0.1040073E+00
         21   -1    0    0  502  501  0.00000000000E+00  0.00000000000E+00  0.48499720974E+03  0.48499720974E+03  0.00000000000E+00 0.  1.
         21   -1    0    0  501  502 -0.00000000000E+00 -0.00000000000E+00 -0.87026804748E+02  0.87026804748E+02  0.00000000000E+00 0.  1.
      99925    2    1    2    0    0  0.34324710782E+02 -0.53065739045E+02  0.25178513411E+03  0.36951031136E+03  0.26295999318E+03 0.  0.
         25    1    3    3    0    0  0.32446567465E+02 -0.18574706420E+02  0.17630929483E+03  0.21938613220E+03  0.12509000000E+03 0.  0.
         25    1    1    2    0    0 -0.34324710782E+02  0.53065739045E+02  0.14618527088E+03  0.20251370313E+03  0.12509000000E+03 0.  0.
         25    1    3    3    0    0  0.18781433167E+01 -0.34491032625E+02  0.75475839277E+02  0.15012417916E+03  0.12509000000E+03 0.  0.
<mgrwt>
<rscale>  2 0.41089053E+03</rscale>
<asrwt>0</asrwt>
<pdfrwt beam="1">  1       21 0.71323118E-01 0.41089053E+03</pdfrwt>
<pdfrwt beam="2">  1       21 0.12798060E-01 0.41089053E+03</pdfrwt>
<totfact> 0.87045868E+04</totfact>
</mgrwt>
</event>
<event>
 6    0  0.1539497E-004  0.6841351E+03  0.7546771E-02  0.9744755E-01
         21   -1    0    0  502  501  0.00000000000E+00  0.00000000000E+00  0.29422271363E+03  0.29422271363E+03  0.00000000000E+00 0.  1.
         21   -1    0    0  501  502 -0.00000000000E+00 -0.00000000000E+00 -0.39769267177E+03  0.39769267177E+03  0.00000000000E+00 0.  1.
      99925    2    1    2    0    0  0.20310084769E+03  0.15524858623E+03 -0.16338064784E+03  0.40107371592E+03  0.26232577390E+03 0.  0.
         25    1    1    2    0    0 -0.20310084769E+03 -0.15524858623E+03  0.59910689698E+02  0.29084166947E+03  0.12509000000E+03 0.  0.
         25    1    3    3    0    0  0.11879339853E+03  0.42990494802E+02 -0.89536339287E+02  0.19905858015E+03  0.12509000000E+03 0.  0.
         25    1    3    3    0    0  0.84307449159E+02  0.11225809143E+03 -0.73844308553E+02  0.20201513577E+03  0.12509000000E+03 0.  0.
<mgrwt>
<rscale>  2 0.68413512E+03</rscale>
<asrwt>0</asrwt>
<pdfrwt beam="1">  1       21 0.43268046E-01 0.68413512E+03</pdfrwt>
<pdfrwt beam="2">  1       21 0.58484216E-01 0.68413512E+03</pdfrwt>
<totfact> 0.11954799E+04</totfact>
</mgrwt>
</event>
<event>
 6    0  0.1539497E-004  0.4055929E+03  0.7546771E-02  0.1041860E+00
         21   -1    0    0  502  501  0.00000000000E+00  0.00000000000E+00  0.86339428217E+02  0.86339428217E+02  0.00000000000E+00 0.  1.
         21   -1    0    0  501  502 -0.00000000000E+00 -0.00000000000E+00 -0.47633388319E+03  0.47633388319E+03  0.00000000000E+00 0.  1.
      99925    2    1    2    0    0 -0.34188859500E+02 -0.17687071757E+02 -0.20321058594E+03  0.33460000641E+03  0.26302264433E+03 0.  0.
         25    1    1    2    0    0  0.34188859500E+02  0.17687071757E+02 -0.18678386903E+03  0.22807330500E+03  0.12509000000E+03 0.  0.
         25    1    3    3    0    0  0.71658075115E+01  0.24118669320E+02 -0.96358608872E+02  0.15989230316E+03  0.12509000000E+03 0.  0.
         25    1    3    3    0    0 -0.41354667011E+02 -0.41805741077E+02 -0.10685197707E+03  0.17470770325E+03  0.12509000000E+03 0.  0.
<mgrwt>
<rscale>  2 0.40559288E+03</rscale>
<asrwt>0</asrwt>
<pdfrwt beam="1">  1       21 0.12696975E-01 0.40559288E+03</pdfrwt>
<pdfrwt beam="2">  1       21 0.70049099E-01 0.40559288E+03</pdfrwt>
<totfact> 0.92076951E+04</totfact>
</mgrwt>
</event>
<event>
 6    0  0.1539497E-004  0.4153300E+03  0.7546771E-02  0.1038597E+00
         21   -1    0    0  502  501  0.00000000000E+00  0.00000000000E+00  0.30371674479E+03  0.30371674479E+03  0.00000000000E+00 0.  1.
         21   -1    0    0  501  502 -0.00000000000E+00 -0.00000000000E+00 -0.14199001132E+03  0.14199001132E+03  0.00000000000E+00 0.  1.
      99925    2    1    2    0    0 -0.49909872366E+02 -0.44619235744E+02  0.84845790301E+02  0.28433743103E+03  0.26299637829E+03 0.  0.
         25    1    1    2    0    0  0.49909872366E+02  0.44619235744E+02  0.76880943170E+02  0.16136932509E+03  0.12509000000E+03 0.  0.
         25    1    3    3    0    0 -0.31737189051E+02 -0.75397638330E+01  0.80996540057E+02  0.15255177747E+03  0.12509000000E+03 0.  0.
         25    1    3    3    0    0 -0.18172683316E+02 -0.37079471911E+02  0.38492502439E+01  0.13178565356E+03  0.12509000000E+03 0.  0.
<mgrwt>
<rscale>  2 0.41532996E+03</rscale>
<asrwt>0</asrwt>
<pdfrwt beam="1">  1       21 0.44664227E-01 0.41532996E+03</pdfrwt>
<pdfrwt beam="2">  1       21 0.20880884E-01 0.41532996E+03</pdfrwt>
<totfact> 0.96178884E+04</totfact>
</mgrwt>
</event>
<event>
 5    0  0.1539497E-004  0.4403668E+03  0.7546771E-02  0.1030634E+00
         21   -1    0    0  502  501  0.00000000000E+00  0.00000000000E+00  0.86240598943E+02  0.86240598943E+02  0.00000000000E+00 0. -1.
         21   -1    0    0  501  502 -0.00000000000E+00 -0.00000000000E+00 -0.56215660492E+03  0.56215660492E+03  0.00000000000E+00 0. -1.
         25    1    1    2    0    0  0.23880114468E+02  0.85697110463E+02 -0.11362219497E+03  0.19097582543E+03  0.12509000000E+03 0.  0.
         25    1    1    2    0    0  0.22935443296E+02 -0.57860922688E+02 -0.14931578137E+03  0.20449115286E+03  0.12509000000E+03 0.  0.
         25    1    1    2    0    0 -0.46815557764E+02 -0.27836187774E+02 -0.21297802964E+03  0.25293022557E+03  0.12509000000E+03 0.  0.
<mgrwt>
<rscale>  2 0.44036677E+03</rscale>
<asrwt>0</asrwt>
<pdfrwt beam="1">  1       21 0.12682441E-01 0.44036677E+03</pdfrwt>
<pdfrwt beam="2">  1       21 0.82670088E-01 0.44036677E+03</pdfrwt>
<totfact> 0.62725727E+04</totfact>
</mgrwt>
</event>
<event>
 6    0  0.1539497E-004  0.5267289E+03  0.7546771E-02  0.1007029E+00
         21   -1    0    0  502  501  0.00000000000E+00  0.00000000000E+00  0.53213075546E+03  0.53213075546E+03  0.00000000000E+00 0. -1.
         21   -1    0    0  501  502 -0.00000000000E+00 -0.00000000000E+00 -0.13034546913E+03  0.13034546913E+03  0.00000000000E+00 0. -1.
      99925    2    1    2    0    0 -0.14383461219E+03 -0.93120885631E+02  0.25599700934E+03  0.40506289003E+03  0.26302391732E+03 0.  0.
         25    1    3    3    0    0 -0.46062834440E+02 -0.60304847090E+02  0.15930256520E+03  0.21629441666E+03  0.12509000000E+03 0.  0.
         25    1    3    3    0    0 -0.97771777752E+02 -0.32816038540E+02  0.96694444139E+02  0.18876847337E+03  0.12509000000E+03 0.  0.
         25    1    1    2    0    0  0.14383461219E+03  0.93120885631E+02  0.14578827699E+03  0.25741333457E+03  0.12509000000E+03 0.  0.
<mgrwt>
<rscale>  2 0.52672890E+03</rscale>
<asrwt>0</asrwt>
<pdfrwt beam="1">  1       21 0.78254522E-01 0.52672890E+03</pdfrwt>
<pdfrwt beam="2">  1       21 0.19168451E-01 0.52672890E+03</pdfrwt>
<totfact> 0.32385664E+04</totfact>
</mgrwt>
</event>
<event>
 6    0  0.1539497E-004  0.5249830E+03  0.7546771E-02  0.1007456E+00
         21   -1    0    0  502  501  0.00000000000E+00  0.00000000000E+00  0.71978732389E+03  0.71978732389E+03  0.00000000000E+00 0.  1.
         21   -1    0    0  501  502 -0.00000000000E+00 -0.00000000000E+00 -0.95725209743E+02  0.95725209743E+02  0.00000000000E+00 0.  1.
      99925    2    1    2    0    0  0.11926107376E+03 -0.10175802466E+03  0.26792956562E+03  0.40678793257E+03  0.26289212740E+03 0.  0.
         25    1    1    2    0    0 -0.11926107376E+03  0.10175802466E+03  0.35613254852E+03  0.40872460106E+03  0.12509000000E+03 0.  0.
         25    1    3    3    0    0  0.23738631878E+02 -0.44875389180E+02  0.15147278650E+03  0.20290105063E+03  0.12509000000E+03 0.  0.
         25    1    3    3    0    0  0.95522441883E+02 -0.56882635481E+02  0.11645677913E+03  0.20388688194E+03  0.12509000000E+03 0.  0.
<mgrwt>
<rscale>  2 0.52498302E+03</rscale>
<asrwt>0</asrwt>
<pdfrwt beam="1">  1       21 0.10585107E+00 0.52498302E+03</pdfrwt>
<pdfrwt beam="2">  1       21 0.14077237E-01 0.52498302E+03</pdfrwt>
<totfact> 0.28105761E+04</totfact>
</mgrwt>
</event>
<event>
 6    0  0.1539497E-004  0.4436030E+03  0.7546771E-02  0.1029647E+00
         21   -1    0    0  502  501  0.00000000000E+00  0.00000000000E+00  0.11907882263E+04  0.11907882263E+04  0.00000000000E+00 0. -1.
         21   -1    0    0  501  502 -0.00000000000E+00 -0.00000000000E+00 -0.41313733935E+02  0.41313733935E+02  0.00000000000E+00 0. -1.
      99925    2    1    2    0    0  0.67394308581E+02  0.43779900431E+02  0.90575729370E+03  0.94661246211E+03  0.26309733146E+03 0.  0.
         25    1    1    2    0    0 -0.67394308581E+02 -0.43779900431E+02  0.24371719863E+03  0.28548949809E+03  0.12509000000E+03 0.  0.
         25    1    3    3    0    0  0.50175555746E+02  0.31739452376E+02  0.34629425350E+03  0.37295066341E+03  0.12509000000E+03 0.  0.
         25    1    3    3    0    0  0.17218752835E+02  0.12040448054E+02  0.55946304020E+03  0.57366179870E+03  0.12509000000E+03 0.  0.
<mgrwt>
<rscale>  2 0.44360301E+03</rscale>
<asrwt>0</asrwt>
<pdfrwt beam="1">  1       21 0.17511589E+00 0.44360301E+03</pdfrwt>
<pdfrwt beam="2">  1       21 0.60755499E-02 0.44360301E+03</pdfrwt>
<totfact> 0.34076621E+04</totfact>
</mgrwt>
</event>
<event>
 6    0  0.1539497E-004  0.4297767E+03  0.7546771E-02  0.1033931E+00
         21   -1    0    0  502  501  0.00000000000E+00  0.00000000000E+00  0.18872013888E+02  0.18872013888E+02  0.00000000000E+00 0. -1.
         21   -1    0    0  501  502 -0.00000000000E+00 -0.00000000000E+00 -0.24468509762E+04  0.24468509762E+04  0.00000000000E+00 0. -1.
      99925    2    1    2    0    0  0.33208439815E+01 -0.72598601721E+02 -0.18446441014E+04  0.18647166232E+04  0.26301072043E+03 0.  0.
         25    1    1    2    0    0 -0.33208439815E+01  0.72598601721E+02 -0.58333486093E+03  0.60100636690E+03  0.12509000000E+03 0.  0.
         25    1    3    3    0    0  0.39160709578E+02 -0.52186080589E+02 -0.97495899861E+03  0.98511395547E+03  0.12509000000E+03 0.  0.
         25    1    3    3    0    0 -0.35839865596E+02 -0.20412521131E+02 -0.86968510277E+03  0.87960266772E+03  0.12509000000E+03 0.  0.
<mgrwt>
<rscale>  2 0.42977671E+03</rscale>
<asrwt>0</asrwt>
<pdfrwt beam="1">  1       21 0.27752938E-02 0.42977671E+03</pdfrwt>
<pdfrwt beam="2">  1       21 0.35983134E+00 0.42977671E+03</pdfrwt>
<totfact> 0.91568428E+03</totfact>
</mgrwt>
</event>
<event>
 6    0  0.1539497E-004  0.3988137E+03  0.7546771E-02  0.1044191E+00
         21   -1    0    0  502  501  0.00000000000E+00  0.00000000000E+00  0.25204857597E+03  0.25204857597E+03  0.00000000000E+00 0.  1.
         21   -1    0    0  501  502 -0.00000000000E+00 -0.00000000000E+00 -0.15775962992E+03  0.15775962992E+03  0.00000000000E+00 0.  1.
      99925    2    1    2    0    0  0.64047020204E+01 -0.23821865753E+02  0.27790102018E+02  0.26600936774E+03  0.26340120057E+03 0.  0.
         25    1    3    3    0    0  0.33920239801E+02  0.60381062415E+01 -0.71087479204E+01  0.12994261731E+03  0.12509000000E+03 0.  0.
         25    1    3    3    0    0 -0.27515537781E+02 -0.29859971995E+02  0.34898849938E+02  0.13606675043E+03  0.12509000000E+03 0.  0.
         25    1    1    2    0    0 -0.64047020204E+01  0.23821865753E+02  0.66498844034E+02  0.14379883815E+03  0.12509000000E+03 0.  0.
<mgrwt>
<rscale>  2 0.39881369E+03</rscale>
<asrwt>0</asrwt>
<pdfrwt beam="1">  1       21 0.37065968E-01 0.39881369E+03</pdfrwt>
<pdfrwt beam="2">  1       21 0.23199945E-01 0.39881369E+03</pdfrwt>
<totfact> 0.11580366E+05</totfact>
</mgrwt>
</event>
<event>
 6    0  0.1956297E-004  0.4119692E+03  0.7546771E-02  0.1039712E+00
         21   -1    0    0  502  501  0.00000000000E+00  0.00000000000E+00  0.22493774129E+03  0.22493774129E+03  0.00000000000E+00 0.  1.
         21   -1    0    0  501  502 -0.00000000000E+00 -0.00000000000E+00 -0.18862844031E+03  0.18862844031E+03  0.00000000000E+00 0.  1.
      99925    2    1    2    0    0  0.11211862584E+02  0.19411475120E+02 -0.37246152638E+02  0.26673149876E+03  0.26316516737E+03 0.  0.
         25    1    3    3    0    0  0.27637844548E+02  0.23800692244E+02  0.12814792446E+02  0.13092765334E+03  0.12509000000E+03 0.  0.
         25    1    3    3    0    0 -0.16425981964E+02 -0.43892171244E+01 -0.50060945083E+02  0.13580384543E+03  0.12509000000E+03 0.  0.
         25    1    1    2    0    0 -0.11211862584E+02 -0.19411475120E+02  0.73555453615E+02  0.14683468284E+03  0.12509000000E+03 0.  0.
<mgrwt>
<rscale>  2 0.41196920E+03</rscale>
<asrwt>0</asrwt>
<pdfrwt beam="1">  1       21 0.33079080E-01 0.41196920E+03</pdfrwt>
<pdfrwt beam="2">  1       21 0.27739476E-01 0.41196920E+03</pdfrwt>
<totfact> 0.10266950E+05</totfact>
</mgrwt>
</event>
<event>
 6    0  0.1539497E-004  0.4397992E+03  0.7546771E-02  0.1030808E+00
         21   -1    0    0  502  501  0.00000000000E+00  0.00000000000E+00  0.17132685147E+02  0.17132685147E+02  0.00000000000E+00 0. -1.
         21   -1    0    0  501  502 -0.00000000000E+00 -0.00000000000E+00 -0.28224316949E+04  0.28224316949E+04  0.00000000000E+00 0. -1.
      99925    2    1    2    0    0 -0.34328982885E+02 -0.47759831225E+02 -0.12826413124E+04  0.13106453332E+04  0.26298854062E+03 0.  0.
         25    1    1    2    0    0  0.34328982885E+02  0.47759831225E+02 -0.15226576973E+04  0.15289190469E+04  0.12509000000E+03 0.  0.
         25    1    3    3    0    0 -0.36995369419E+02 -0.24153382295E+02 -0.82597425330E+03  0.83656023002E+03  0.12509000000E+03 0.  0.
         25    1    3    3    0    0  0.26663865332E+01 -0.23606448930E+02 -0.45666705913E+03  0.47408510316E+03  0.12509000000E+03 0.  0.
<mgrwt>
<rscale>  2 0.43979920E+03</rscale>
<asrwt>0</asrwt>
<pdfrwt beam="1">  1       21 0.25195127E-02 0.43979920E+03</pdfrwt>
<pdfrwt beam="2">  1       21 0.41506345E+00 0.43979920E+03</pdfrwt>
<totfact> 0.47854322E+03</totfact>
</mgrwt>
</event>
<event>
 6    0  0.1539497E-004  0.4426629E+03  0.7546771E-02  0.1029933E+00
         21   -1    0    0  502  501  0.00000000000E+00  0.00000000000E+00  0.10318632145E+04  0.10318632145E+04  0.00000000000E+00 0.  1.
         21   -1    0    0  501  502 -0.00000000000E+00 -0.00000000000E+00 -0.47474914782E+02  0.47474914782E+02  0.00000000000E+00 0.  1.
      99925    2    1    2    0    0  0.58104219725E+02 -0.62177680485E+02  0.49471416758E+03  0.56682429719E+03  0.26325940056E+03 0.  0.
         25    1    3    3    0    0  0.71236374485E+01 -0.15110068274E+01  0.18378766415E+03  0.22243750346E+03  0.12509000000E+03 0.  0.
         25    1    1    2    0    0 -0.58104219725E+02  0.62177680485E+02  0.48967413217E+03  0.51251383212E+03  0.12509000000E+03 0.  0.
         25    1    3    3    0    0  0.50980582277E+02 -0.60666673657E+02  0.31092650343E+03  0.34438679373E+03  0.12509000000E+03 0.  0.
<mgrwt>
<rscale>  2 0.44266293E+03</rscale>
<asrwt>0</asrwt>
<pdfrwt beam="1">  1       21 0.15174458E+00 0.44266293E+03</pdfrwt>
<pdfrwt beam="2">  1       21 0.69816057E-02 0.44266293E+03</pdfrwt>
<totfact> 0.39926096E+04</totfact>
</mgrwt>
</event>
<event>
 5    0  0.1539497E-004  0.4542244E+03  0.7546771E-02  0.1026470E+00
         21   -1    0    0  502  501  0.00000000000E+00  0.00000000000E+00  0.15382844666E+03  0.15382844666E+03  0.00000000000E+00 0. -1.
         21   -1    0    0  501  502 -0.00000000000E+00 -0.00000000000E+00 -0.33530822803E+03  0.33530822803E+03  0.00000000000E+00 0. -1.
         25    1    1    2    0    0  0.31126021382E+01 -0.18222646921E+02 -0.10254106800E+03  0.16280028219E+03  0.12509000000E+03 0.  0.
         25    1    1    2    0    0  0.21195157670E+02  0.84526760304E+02 -0.98291467681E+02  0.18139109304E+03  0.12509000000E+03 0.  0.
         25    1    1    2    0    0 -0.24307759808E+02 -0.66304113383E+02  0.19352754308E+02  0.14494529947E+03  0.12509000000E+03 0.  0.
<mgrwt>
<rscale>  2 0.45422437E+03</rscale>
<asrwt>0</asrwt>
<pdfrwt beam="1">  1       21 0.22621831E-01 0.45422437E+03</pdfrwt>
<pdfrwt beam="2">  1       21 0.49310033E-01 0.45422437E+03</pdfrwt>
<totfact> 0.66449008E+04</totfact>
</mgrwt>
</event>
<event>
 6    0  0.1539497E-004  0.4753772E+03  0.7546771E-02  0.1020413E+00
         21   -1    0    0  502  501  0.00000000000E+00  0.00000000000E+00  0.12516801475E+03  0.12516801475E+03  0.00000000000E+00 0. -1.
         21   -1    0    0  501  502 -0.00000000000E+00 -0.00000000000E+00 -0.45136033676E+03  0.45136033676E+03  0.00000000000E+00 0. -1.
      99925    2    1    2    0    0 -0.11722933651E+03 -0.54423722356E+02 -0.23006302203E+03  0.37258470903E+03  0.26303177072E+03 0.  0.
         25    1    1    2    0    0  0.11722933651E+03  0.54423722356E+02 -0.96129299975E+02  0.20394364248E+03  0.12509000000E+03 0.  0.
         25    1    3    3    0    0 -0.39554267236E+02 -0.25574537116E+02 -0.15544603767E+03  0.20501116002E+03  0.12509000000E+03 0.  0.
         25    1    3    3    0    0 -0.77675069271E+02 -0.28849185240E+02 -0.74616984359E+02  0.16757354902E+03  0.12509000000E+03 0.  0.
<mgrwt>
<rscale>  2 0.47537723E+03</rscale>
<asrwt>0</asrwt>
<pdfrwt beam="1">  1       21 0.18407061E-01 0.47537723E+03</pdfrwt>
<pdfrwt beam="2">  1       21 0.66376521E-01 0.47537723E+03</pdfrwt>
<totfact> 0.51357890E+04</totfact>
</mgrwt>
</event>
<event>
 6    0  0.1539497E-004  0.4125640E+03  0.7546771E-02  0.1039514E+00
         21   -1    0    0  502  501  0.00000000000E+00  0.00000000000E+00  0.67365483930E+03  0.67365483930E+03  0.00000000000E+00 0.  1.
         21   -1    0    0  501  502 -0.00000000000E+00 -0.00000000000E+00 -0.63166263248E+02  0.63166263248E+02  0.00000000000E+00 0.  1.
      99925    2    1    2    0    0  0.26532059134E+02 -0.59832155660E+02  0.38751626883E+03  0.47291203696E+03  0.26304581175E+03 0.  0.
         25    1    1    2    0    0 -0.26532059134E+02  0.59832155660E+02  0.22297230722E+03  0.26390906558E+03  0.12509000000E+03 0.  0.
         25    1    3    3    0    0  0.25668972200E+02 -0.68104591346E+02  0.22755546387E+03  0.26967782396E+03  0.12509000000E+03 0.  0.
         25    1    3    3    0    0  0.86308693439E+00  0.82724356857E+01  0.15996080496E+03  0.20323421300E+03  0.12509000000E+03 0.  0.
<mgrwt>
<rscale>  2 0.41256398E+03</rscale>
<asrwt>0</asrwt>
<pdfrwt beam="1">  1       21 0.99066884E-01 0.41256398E+03</pdfrwt>
<pdfrwt beam="2">  1       21 0.92891567E-02 0.41256398E+03</pdfrwt>
<totfact> 0.72182803E+04</totfact>
</mgrwt>
</event>
<event>
 6    0  0.1539497E-004  0.4265434E+03  0.7546771E-02  0.1034957E+00
         21   -1    0    0  502  501  0.00000000000E+00  0.00000000000E+00  0.17946082319E+02  0.17946082319E+02  0.00000000000E+00 0.  1.
         21   -1    0    0  501  502 -0.00000000000E+00 -0.00000000000E+00 -0.25345265542E+04  0.25345265542E+04  0.00000000000E+00 0.  1.
      99925    2    1    2    0    0 -0.30136012527E+02 -0.27080929604E+02 -0.11911334969E+04  0.12205196541E+04  0.26311150187E+03 0.  0.
         25    1    1    2    0    0  0.30136012527E+02  0.27080929604E+02 -0.13254469749E+04  0.13319529824E+04  0.12509000000E+03 0.  0.
         25    1    3    3    0    0  0.63315513655E+01 -0.33312905856E+02 -0.72426692192E+03  0.73577164972E+03  0.12509000000E+03 0.  0.
         25    1    3    3    0    0 -0.36467563892E+02  0.62319762527E+01 -0.46686657501E+03  0.48474800434E+03  0.12509000000E+03 0.  0.
<mgrwt>
<rscale>  2 0.42654342E+03</rscale>
<asrwt>0</asrwt>
<pdfrwt beam="1">  1       21 0.26391287E-02 0.42654342E+03</pdfrwt>
<pdfrwt beam="2">  1       21 0.37272464E+00 0.42654342E+03</pdfrwt>
<totfact> 0.82993908E+03</totfact>
</mgrwt>
</event>
<event>
 6    0  0.1539497E-004  0.4273684E+03  0.7546771E-02  0.1034695E+00
         21   -1    0    0  502  501  0.00000000000E+00  0.00000000000E+00  0.49840690627E+02  0.49840690627E+02  0.00000000000E+00 0. -1.
         21   -1    0    0  501  502 -0.00000000000E+00 -0.00000000000E+00 -0.91613753111E+03  0.91613753111E+03  0.00000000000E+00 0. -1.
      99925    2    1    2    0    0  0.63610204428E+01  0.15872690892E+02 -0.37245778591E+03  0.45625582198E+03  0.26296799787E+03 0.  0.
         25    1    3    3    0    0  0.35453114744E+01  0.34137689643E+02 -0.24201592403E+03  0.27458544512E+03  0.12509000000E+03 0.  0.
         25    1    3    3    0    0  0.28157089684E+01 -0.18264998751E+02 -0.13044186188E+03  0.18167037686E+03  0.12509000000E+03 0.  0.
         25    1    1    2    0    0 -0.63610204428E+01 -0.15872690892E+02 -0.49383905458E+03  0.50972239976E+03  0.12509000000E+03 0.  0.
<mgrwt>
<rscale>  2 0.42736835E+03</rscale>
<asrwt>0</asrwt>
<pdfrwt beam="1">  1       21 0.73295132E-02 0.42736835E+03</pdfrwt>
<pdfrwt beam="2">  1       21 0.13472611E+00 0.42736835E+03</pdfrwt>
<totfact> 0.50573548E+04</totfact>
</mgrwt>
</event>
<event>
 6    0  0.1539497E-004  0.4074116E+03  0.7546771E-02  0.1041243E+00
         21   -1    0    0  502  501  0.00000000000E+00  0.00000000000E+00  0.25892017286E+02  0.25892017286E+02  0.00000000000E+00 0.  1.
         21   -1    0    0  501  502 -0.00000000000E+00 -0.00000000000E+00 -0.16026580606E+04  0.16026580606E+04  0.00000000000E+00 0.  1.
      99925    2    1    2    0    0 -0.14063740483E+02  0.50096060757E+02 -0.93339949347E+03  0.97107351583E+03  0.26275797729E+03 0.  0.
         25    1    3    3    0    0 -0.90332424888E+01  0.56910661518E+02 -0.57885940218E+03  0.59501776315E+03  0.12509000000E+03 0.  0.
         25    1    1    2    0    0  0.14063740483E+02 -0.50096060757E+02 -0.64336654985E+03  0.65747656206E+03  0.12509000000E+03 0.  0.
         25    1    3    3    0    0 -0.50304979943E+01 -0.68146007614E+01 -0.35454009129E+03  0.37605575268E+03  0.12509000000E+03 0.  0.
<mgrwt>
<rscale>  2 0.40741159E+03</rscale>
<asrwt>0</asrwt>
<pdfrwt beam="1">  1       21 0.38076490E-02 0.40741159E+03</pdfrwt>
<pdfrwt beam="2">  1       21 0.23568505E+00 0.40741159E+03</pdfrwt>
<totfact> 0.30647048E+04</totfact>
</mgrwt>
</event>
<event>
 6    0  0.1539497E-004  0.4122895E+03  0.7546771E-02  0.1039605E+00
         21   -1    0    0  502  501  0.00000000000E+00  0.00000000000E+00  0.44888441812E+03  0.44888441812E+03  0.00000000000E+00 0. -1.
         21   -1    0    0  501  502 -0.00000000000E+00 -0.00000000000E+00 -0.94669477785E+02  0.94669477785E+02  0.00000000000E+00 0. -1.
      99925    2    1    2    0    0  0.86174775149E+00 -0.60384876769E+02  0.20049266884E+03  0.33637011081E+03  0.26324981527E+03 0.  0.
         25    1    1    2    0    0 -0.86174775149E+00  0.60384876769E+02  0.15372227150E+03  0.20718378509E+03  0.12509000000E+03 0.  0.
         25    1    3    3    0    0 -0.12849592660E+02 -0.52038375322E+02  0.63533973852E+02  0.15019047397E+03  0.12509000000E+03 0.  0.
         25    1    3    3    0    0  0.13711340412E+02 -0.83465014467E+01  0.13695869498E+03  0.18617963684E+03  0.12509000000E+03 0.  0.
<mgrwt>
<rscale>  2 0.41228948E+03</rscale>
<asrwt>0</asrwt>
<pdfrwt beam="1">  1       21 0.66012414E-01 0.41228948E+03</pdfrwt>
<pdfrwt beam="2">  1       21 0.13921982E-01 0.41228948E+03</pdfrwt>
<totfact> 0.88674680E+04</totfact>
</mgrwt>
</event>
<event>
 6    0  0.1539497E-004  0.4145630E+03  0.7546771E-02  0.1038851E+00
         21   -1    0    0  502  501  0.00000000000E+00  0.00000000000E+00  0.56149847516E+02  0.56149847516E+02  0.00000000000E+00 0. -1.
         21   -1    0    0  501  502 -0.00000000000E+00 -0.00000000000E+00 -0.76519554938E+03  0.76519554938E+03  0.00000000000E+00 0. -1.
      99925    2    1    2    0    0  0.25206487207E+02  0.61339000421E+02 -0.50081051895E+03  0.56953745526E+03  0.26299029845E+03 0.  0.
         25    1    3    3    0    0 -0.11184094245E+02  0.63553669877E+02 -0.27025119176E+03  0.30470866031E+03  0.12509000000E+03 0.  0.
         25    1    1    2    0    0 -0.25206487207E+02 -0.61339000421E+02 -0.20823518291E+03  0.25180794164E+03  0.12509000000E+03 0.  0.
         25    1    3    3    0    0  0.36390581452E+02 -0.22146694552E+01 -0.23055932719E+03  0.26482879495E+03  0.12509000000E+03 0.  0.
<mgrwt>
<rscale>  2 0.41456297E+03</rscale>
<asrwt>0</asrwt>
<pdfrwt beam="1">  1       21 0.82573303E-02 0.41456297E+03</pdfrwt>
<pdfrwt beam="2">  1       21 0.11252876E+00 0.41456297E+03</pdfrwt>
<totfact> 0.65061369E+04</totfact>
</mgrwt>
</event>
<event>
 6    0  0.1539497E-004  0.4423598E+03  0.7546771E-02  0.1030025E+00
         21   -1    0    0  502  501  0.00000000000E+00  0.00000000000E+00  0.59950163835E+02  0.59950163835E+02  0.00000000000E+00 0. -1.
         21   -1    0    0  501  502 -0.00000000000E+00 -0.00000000000E+00 -0.81602014656E+03  0.81602014656E+03  0.00000000000E+00 0. -1.
      99925    2    1    2    0    0 -0.77729007586E+02  0.31791632893E+02 -0.59189269602E+03  0.65313809524E+03  0.26305874117E+03 0.  0.
         25    1    1    2    0    0  0.77729007586E+02 -0.31791632893E+02 -0.16417728671E+03  0.22283221516E+03  0.12509000000E+03 0.  0.
         25    1    3    3    0    0 -0.64917122856E+02  0.48988011134E+02 -0.31586778465E+03  0.34933368512E+03  0.12509000000E+03 0.  0.
         25    1    3    3    0    0 -0.12811884730E+02 -0.17196378240E+02 -0.27602491137E+03  0.30380441012E+03  0.12509000000E+03 0.  0.
<mgrwt>
<rscale>  2 0.44235977E+03</rscale>
<asrwt>0</asrwt>
<pdfrwt beam="1">  1       21 0.88162013E-02 0.44235977E+03</pdfrwt>
<pdfrwt beam="2">  1       21 0.12000295E+00 0.44235977E+03</pdfrwt>
<totfact> 0.48958585E+04</totfact>
</mgrwt>
</event>
<event>
 6    0  0.1539497E-004  0.5013701E+03  0.7546771E-02  0.1013422E+00
         21   -1    0    0  502  501  0.00000000000E+00  0.00000000000E+00  0.11061482388E+03  0.11061482388E+03  0.00000000000E+00 0. -1.
         21   -1    0    0  501  502 -0.00000000000E+00 -0.00000000000E+00 -0.56812444340E+03  0.56812444340E+03  0.00000000000E+00 0. -1.
      99925    2    1    2    0    0  0.14788696801E+03  0.34271472867E+02 -0.29814398987E+03  0.42557923653E+03  0.26302615595E+03 0.  0.
         25    1    3    3    0    0  0.11895203537E+03  0.29735490183E+02 -0.17604477799E+03  0.24834060895E+03  0.12509000000E+03 0.  0.
         25    1    3    3    0    0  0.28934932632E+02  0.45359826844E+01 -0.12209921188E+03  0.17723862758E+03  0.12509000000E+03 0.  0.
         25    1    1    2    0    0 -0.14788696801E+03 -0.34271472867E+02 -0.15936562965E+03  0.25316003076E+03  0.12509000000E+03 0.  0.
<mgrwt>
<rscale>  2 0.50137006E+03</rscale>
<asrwt>0</asrwt>
<pdfrwt beam="1">  1       21 0.16266886E-01 0.50137006E+03</pdfrwt>
<pdfrwt beam="2">  1       21 0.83547711E-01 0.50137006E+03</pdfrwt>
<totfact> 0.38110666E+04</totfact>
</mgrwt>
</event>
<event>
 5    0  0.1539497E-004  0.4007726E+03  0.7546771E-02  0.1043512E+00
         21   -1    0    0  502  501  0.00000000000E+00  0.00000000000E+00  0.32110773794E+02  0.32110773794E+02  0.00000000000E+00 0. -1.
         21   -1    0    0  501  502 -0.00000000000E+00 -0.00000000000E+00 -0.12505048092E+04  0.12505048092E+04  0.00000000000E+00 0. -1.
         25    1    1    2    0    0 -0.31603390794E+02  0.39787526076E+02 -0.39315609947E+03  0.41569345459E+03  0.12509000000E+03 0.  0.
         25    1    1    2    0    0 -0.10020603075E+02 -0.43855720214E+02 -0.38151543249E+03  0.40401147262E+03  0.12509000000E+03 0.  0.
         25    1    1    2    0    0  0.41623993870E+02  0.40681941379E+01 -0.44372250344E+03  0.46291065578E+03  0.12509000000E+03 0.  0.
<mgrwt>
<rscale>  2 0.40077264E+03</rscale>
<asrwt>0</asrwt>
<pdfrwt beam="1">  1       21 0.47221728E-02 0.40077264E+03</pdfrwt>
<pdfrwt beam="2">  1       21 0.18389776E+00 0.40077264E+03</pdfrwt>
<totfact> 0.46282223E+04</totfact>
</mgrwt>
</event>
<event>
 6    0  0.1539497E-004  0.4156953E+03  0.7546771E-02  0.1038476E+00
         21   -1    0    0  502  501  0.00000000000E+00  0.00000000000E+00  0.95810492546E+03  0.95810492546E+03  0.00000000000E+00 0.  1.
         21   -1    0    0  501  502 -0.00000000000E+00 -0.00000000000E+00 -0.45089684091E+02  0.45089684091E+02  0.00000000000E+00 0.  1.
      99925    2    1    2    0    0 -0.22375459481E+02 -0.59166692160E+02  0.52485983101E+03  0.59050406042E+03  0.26308904295E+03 0.  0.
         25    1    3    3    0    0  0.20912631160E+02 -0.45074139888E+02  0.22094283316E+03  0.25871269751E+03  0.12509000000E+03 0.  0.
         25    1    3    3    0    0 -0.43288090641E+02 -0.14092552272E+02  0.30391699785E+03  0.33179136292E+03  0.12509000000E+03 0.  0.
         25    1    1    2    0    0  0.22375459481E+02  0.59166692160E+02  0.38815541036E+03  0.41269054913E+03  0.12509000000E+03 0.  0.
<mgrwt>
<rscale>  2 0.41569531E+03</rscale>
<asrwt>0</asrwt>
<pdfrwt beam="1">  1       21 0.14089777E+00 0.41569531E+03</pdfrwt>
<pdfrwt beam="2">  1       21 0.66308365E-02 0.41569531E+03</pdfrwt>
<totfact> 0.53738014E+04</totfact>
</mgrwt>
</event>
<event>
 6    0  0.1539497E-004  0.4056226E+03  0.7546771E-02  0.1041850E+00
         21   -1    0    0  502  501  0.00000000000E+00  0.00000000000E+00  0.25796987488E+02  0.25796987488E+02  0.00000000000E+00 0.  1.
         21   -1    0    0  501  502 -0.00000000000E+00 -0.00000000000E+00 -0.15944663966E+04  0.15944663966E+04  0.00000000000E+00 0.  1.
      99925    2    1    2    0    0  0.37880192532E+02 -0.53965064618E+01 -0.12005665650E+04  0.12296084939E+04  0.26289340056E+03 0.  0.
         25    1    3    3    0    0  0.45332222474E+02  0.25379950713E+02 -0.67251969135E+03  0.68602434042E+03  0.12509000000E+03 0.  0.
         25    1    1    2    0    0 -0.37880192532E+02  0.53965064618E+01 -0.36810284411E+03  0.39065489017E+03  0.12509000000E+03 0.  0.
         25    1    3    3    0    0 -0.74520299424E+01 -0.30776457175E+02 -0.52804687362E+03  0.54358415348E+03  0.12509000000E+03 0.  0.
<mgrwt>
<rscale>  2 0.40562263E+03</rscale>
<asrwt>0</asrwt>
<pdfrwt beam="1">  1       21 0.37936727E-02 0.40562263E+03</pdfrwt>
<pdfrwt beam="2">  1       21 0.23448047E+00 0.40562263E+03</pdfrwt>
<totfact> 0.31397246E+04</totfact>
</mgrwt>
</event>
<event>
 5    0  0.1539497E-004  0.4735767E+03  0.7546771E-02  0.1020916E+00
         21   -1    0    0  502  501  0.00000000000E+00  0.00000000000E+00  0.54492441217E+03  0.54492441217E+03  0.00000000000E+00 0. -1.
         21   -1    0    0  501  502 -0.00000000000E+00 -0.00000000000E+00 -0.10289264896E+03  0.10289264896E+03  0.00000000000E+00 0. -1.
         25    1    1    2    0    0 -0.32957160826E+02 -0.41035145902E+02  0.32499748874E+03  0.35219445401E+03  0.12509000000E+03 0.  0.
         25    1    1    2    0    0  0.37271952753E+02  0.61927048449E+02  0.66371197820E+02  0.15898679754E+03  0.12509000000E+03 0.  0.
         25    1    1    2    0    0 -0.43147919269E+01 -0.20891902548E+02  0.50663076651E+02  0.13663580957E+03  0.12509000000E+03 0.  0.
<mgrwt>
<rscale>  2 0.47357667E+03</rscale>
<asrwt>0</asrwt>
<pdfrwt beam="1">  1       21 0.80135942E-01 0.47357667E+03</pdfrwt>
<pdfrwt beam="2">  1       21 0.15131272E-01 0.47357667E+03</pdfrwt>
<totfact> 0.48341898E+04</totfact>
</mgrwt>
</event>
<event>
 6    0  0.1539497E-004  0.4072367E+03  0.7546771E-02  0.1041302E+00
         21   -1    0    0  502  501  0.00000000000E+00  0.00000000000E+00  0.40770355011E+02  0.40770355011E+02  0.00000000000E+00 0.  1.
         21   -1    0    0  501  502 -0.00000000000E+00 -0.00000000000E+00 -0.10169261521E+04  0.10169261521E+04  0.00000000000E+00 0.  1.
      99925    2    1    2    0    0  0.46386931190E+02  0.33724828339E+02 -0.62783344487E+03  0.68317670712E+03  0.26318523367E+03 0.  0.
         25    1    1    2    0    0 -0.46386931190E+02 -0.33724828339E+02 -0.34832235225E+03  0.37451980002E+03  0.12509000000E+03 0.  0.
         25    1    3    3    0    0  0.51482038055E+02  0.29525308618E+02 -0.39843556935E+03  0.42180630047E+03  0.12509000000E+03 0.  0.
         25    1    3    3    0    0 -0.50951068646E+01  0.41995197206E+01 -0.22939787551E+03  0.26137040664E+03  0.12509000000E+03 0.  0.
<mgrwt>
<rscale>  2 0.40723674E+03</rscale>
<asrwt>0</asrwt>
<pdfrwt beam="1">  1       21 0.59956400E-02 0.40723674E+03</pdfrwt>
<pdfrwt beam="2">  1       21 0.14954798E+00 0.40723674E+03</pdfrwt>
<totfact> 0.54722548E+04</totfact>
</mgrwt>
</event>
<event>
 6    0  0.1539497E-004  0.4217438E+03  0.7546771E-02  0.1036500E+00
         21   -1    0    0  502  501  0.00000000000E+00  0.00000000000E+00  0.30697966022E+02  0.30697966022E+02  0.00000000000E+00 0.  1.
         21   -1    0    0  501  502 -0.00000000000E+00 -0.00000000000E+00 -0.14485313446E+04  0.14485313446E+04  0.00000000000E+00 0.  1.
      99925    2    1    2    0    0  0.56386322907E+02 -0.53202462335E+02 -0.89014507979E+03  0.93140418507E+03  0.26295545911E+03 0.  0.
         25    1    3    3    0    0 -0.77390898306E+01 -0.41095243610E+02 -0.47300051180E+03  0.49104552215E+03  0.12509000000E+03 0.  0.
         25    1    3    3    0    0  0.64125412737E+02 -0.12107218725E+02 -0.41714456799E+03  0.44035866292E+03  0.12509000000E+03 0.  0.
         25    1    1    2    0    0 -0.56386322907E+02  0.53202462335E+02 -0.52768829874E+03  0.54782512551E+03  0.12509000000E+03 0.  0.
<mgrwt>
<rscale>  2 0.42174384E+03</rscale>
<asrwt>0</asrwt>
<pdfrwt beam="1">  1       21 0.45144070E-02 0.42174384E+03</pdfrwt>
<pdfrwt beam="2">  1       21 0.21301930E+00 0.42174384E+03</pdfrwt>
<totfact> 0.31732988E+04</totfact>
</mgrwt>
</event>
<event>
 6    0  0.1539497E-004  0.3910625E+03  0.7546771E-02  0.1046919E+00
         21   -1    0    0  502  501  0.00000000000E+00  0.00000000000E+00  0.10148235284E+04  0.10148235284E+04  0.00000000000E+00 0.  1.
         21   -1    0    0  501  502 -0.00000000000E+00 -0.00000000000E+00 -0.37673999725E+02  0.37673999725E+02  0.00000000000E+00 0.  1.
      99925    2    1    2    0    0  0.49191670251E+01  0.10383365795E+02  0.60673119528E+03  0.66135910978E+03  0.26294698377E+03 0.  0.
         25    1    3    3    0    0 -0.34391054139E+02  0.19220295413E+02  0.28015870809E+03  0.30933569820E+03  0.12509000000E+03 0.  0.
         25    1    3    3    0    0  0.39310221164E+02 -0.88369296183E+01  0.32657248719E+03  0.35202341158E+03  0.12509000000E+03 0.  0.
         25    1    1    2    0    0 -0.49191670251E+01 -0.10383365795E+02  0.37041833339E+03  0.39113841834E+03  0.12509000000E+03 0.  0.
<mgrwt>
<rscale>  2 0.39106246E+03</rscale>
<asrwt>0</asrwt>
<pdfrwt beam="1">  1       21 0.14923874E+00 0.39106246E+03</pdfrwt>
<pdfrwt beam="2">  1       21 0.55402947E-02 0.39106246E+03</pdfrwt>
<totfact> 0.63393563E+04</totfact>
</mgrwt>
</event>
<event>
 6    0  0.1539497E-004  0.4424719E+03  0.7546771E-02  0.1029991E+00
         21   -1    0    0  502  501  0.00000000000E+00  0.00000000000E+00  0.27069858219E+02  0.27069858219E+02  0.00000000000E+00 0.  1.
         21   -1    0    0  501  502 -0.00000000000E+00 -0.00000000000E+00 -0.18081125442E+04  0.18081125442E+04  0.00000000000E+00 0.  1.
      99925    2    1    2    0    0  0.24197723300E+02  0.92974337028E+02 -0.12625194363E+04  0.12932011982E+04  0.26302900001E+03 0.  0.
         25    1    1    2    0    0 -0.24197723300E+02 -0.92974337028E+02 -0.51852324962E+03  0.54198120415E+03  0.12509000000E+03 0.  0.
         25    1    3    3    0    0  0.26633969371E+02  0.41703013756E+02 -0.80344985030E+03  0.81463346342E+03  0.12509000000E+03 0.  0.
         25    1    3    3    0    0 -0.24362460715E+01  0.51271323272E+02 -0.45906958602E+03  0.47856773481E+03  0.12509000000E+03 0.  0.
<mgrwt>
<rscale>  2 0.44247192E+03</rscale>
<asrwt>0</asrwt>
<pdfrwt beam="1">  1       21 0.39808602E-02 0.44247192E+03</pdfrwt>
<pdfrwt beam="2">  1       21 0.26589899E+00 0.44247192E+03</pdfrwt>
<totfact> 0.18309426E+04</totfact>
</mgrwt>
</event>
<event>
 6    0  0.1539497E-004  0.4135211E+03  0.7546771E-02  0.1039196E+00
         21   -1    0    0  502  501  0.00000000000E+00  0.00000000000E+00  0.82636903367E+03  0.82636903367E+03  0.00000000000E+00 0. -1.
         21   -1    0    0  501  502 -0.00000000000E+00 -0.00000000000E+00 -0.51732240860E+02  0.51732240860E+02  0.00000000000E+00 0. -1.
      99925    2    1    2    0    0  0.55805346081E+02  0.16079737458E+02  0.58022768500E+03  0.63974187382E+03  0.26312108252E+03 0.  0.
         25    1    3    3    0    0  0.60987449933E+02  0.24403332943E+02  0.26194956509E+03  0.29762404886E+03  0.12509000000E+03 0.  0.
         25    1    3    3    0    0 -0.51821038520E+01 -0.83235954852E+01  0.31827811991E+03  0.34211782496E+03  0.12509000000E+03 0.  0.
         25    1    1    2    0    0 -0.55805346081E+02 -0.16079737458E+02  0.19440910782E+03  0.23835940072E+03  0.12509000000E+03 0.  0.
<mgrwt>
<rscale>  2 0.41352108E+03</rscale>
<asrwt>0</asrwt>
<pdfrwt beam="1">  1       21 0.12152485E+00 0.41352108E+03</pdfrwt>
<pdfrwt beam="2">  1       21 0.76076829E-02 0.41352108E+03</pdfrwt>
<totfact> 0.62010184E+04</totfact>
</mgrwt>
</event>
<event>
 6    0  0.1539497E-004  0.4702606E+03  0.7546771E-02  0.1021847E+00
         21   -1    0    0  502  501  0.00000000000E+00  0.00000000000E+00  0.62550481959E+03  0.62550481959E+03  0.00000000000E+00 0. -1.
         21   -1    0    0  501  502 -0.00000000000E+00 -0.00000000000E+00 -0.88386624903E+02  0.88386624903E+02  0.00000000000E+00 0. -1.
      99925    2    1    2    0    0  0.96535077503E+02 -0.13557745962E+02  0.21002712267E+03  0.35038228208E+03  0.26297056428E+03 0.  0.
         25    1    3    3    0    0  0.69576853009E+02  0.20575927615E+02  0.82297783052E+02  0.16638732063E+03  0.12509000000E+03 0.  0.
         25    1    3    3    0    0  0.26958224494E+02 -0.34133673577E+02  0.12772933962E+03  0.18399496145E+03  0.12509000000E+03 0.  0.
         25    1    1    2    0    0 -0.96535077503E+02  0.13557745962E+02  0.32709107201E+03  0.36350916241E+03  0.12509000000E+03 0.  0.
<mgrwt>
<rscale>  2 0.47026061E+03</rscale>
<asrwt>0</asrwt>
<pdfrwt beam="1">  1       21 0.91986000E-01 0.47026061E+03</pdfrwt>
<pdfrwt beam="2">  1       21 0.12998033E-01 0.47026061E+03</pdfrwt>
<totfact> 0.46336063E+04</totfact>
</mgrwt>
</event>
<event>
 6    0  0.1539497E-004  0.4574218E+03  0.7546771E-02  0.1025532E+00
         21   -1    0    0  502  501  0.00000000000E+00  0.00000000000E+00  0.29146492563E+02  0.29146492563E+02  0.00000000000E+00 0. -1.
         21   -1    0    0  501  502 -0.00000000000E+00 -0.00000000000E+00 -0.17946817181E+04  0.17946817181E+04  0.00000000000E+00 0. -1.
      99925    2    1    2    0    0  0.41472419795E+02  0.36703404732E+02 -0.70501006449E+03  0.75451617630E+03  0.26303681822E+03 0.  0.
         25    1    1    2    0    0 -0.41472419795E+02 -0.36703404732E+02 -0.10605251611E+04  0.10693120344E+04  0.12509000000E+03 0.  0.
         25    1    3    3    0    0 -0.70090898290E+00 -0.94708821986E+01 -0.39448857113E+03  0.41395522673E+03  0.12509000000E+03 0.  0.
         25    1    3    3    0    0  0.42173328778E+02  0.46174286931E+02 -0.31052149336E+03  0.34056094957E+03  0.12509000000E+03 0.  0.
<mgrwt>
<rscale>  2 0.45742181E+03</rscale>
<asrwt>0</asrwt>
<pdfrwt beam="1">  1       21 0.42862486E-02 0.45742181E+03</pdfrwt>
<pdfrwt beam="2">  1       21 0.26392380E+00 0.45742181E+03</pdfrwt>
<totfact> 0.16493799E+04</totfact>
</mgrwt>
</event>
<event>
 6    0  0.1539497E-004  0.4623192E+03  0.7546771E-02  0.1024111E+00
         21   -1    0    0  502  501  0.00000000000E+00  0.00000000000E+00  0.12539819488E+04  0.12539819488E+04  0.00000000000E+00 0.  1.
         21   -1    0    0  501  502 -0.00000000000E+00 -0.00000000000E+00 -0.42612069907E+02  0.42612069907E+02  0.00000000000E+00 0.  1.
      99925    2    1    2    0    0 -0.83362467547E+02  0.67789366317E+02  0.60878817240E+03  0.67185653762E+03  0.26310353305E+03 0.  0.
         25    1    3    3    0    0 -0.75489367626E+02  0.11025047864E+02  0.30567547712E+03  0.33897669790E+03  0.12509000000E+03 0.  0.
         25    1    1    2    0    0  0.83362467547E+02 -0.67789366317E+02  0.60258170654E+03  0.62473748113E+03  0.12509000000E+03 0.  0.
         25    1    3    3    0    0 -0.78730999210E+01  0.56764318453E+02  0.30311269528E+03  0.33287983972E+03  0.12509000000E+03 0.  0.
<mgrwt>
<rscale>  2 0.46231923E+03</rscale>
<asrwt>0</asrwt>
<pdfrwt beam="1">  1       21 0.18440909E+00 0.46231923E+03</pdfrwt>
<pdfrwt beam="2">  1       21 0.62664817E-02 0.46231923E+03</pdfrwt>
<totfact> 0.27607892E+04</totfact>
</mgrwt>
</event>
<event>
 6    0  0.1539497E-004  0.4329759E+03  0.7546771E-02  0.1032924E+00
         21   -1    0    0  502  501  0.00000000000E+00  0.00000000000E+00  0.10737139317E+03  0.10737139317E+03  0.00000000000E+00 0.  1.
         21   -1    0    0  501  502 -0.00000000000E+00 -0.00000000000E+00 -0.43649453605E+03  0.43649453605E+03  0.00000000000E+00 0.  1.
      99925    2    1    2    0    0  0.76674557193E+02 -0.46096514831E+02 -0.23257946012E+03  0.36228380681E+03  0.26296858178E+03 0.  0.
         25    1    3    3    0    0  0.76374635263E+01 -0.32215657885E+02 -0.14403668645E+03  0.19362400318E+03  0.12509000000E+03 0.  0.
         25    1    1    2    0    0 -0.76674557193E+02  0.46096514831E+02 -0.96543682760E+02  0.18158212242E+03  0.12509000000E+03 0.  0.
         25    1    3    3    0    0  0.69037093666E+02 -0.13880856946E+02 -0.88542773666E+02  0.16865980363E+03  0.12509000000E+03 0.  0.
<mgrwt>
<rscale>  2 0.43297587E+03</rscale>
<asrwt>0</asrwt>
<pdfrwt beam="1">  1       21 0.15789911E-01 0.43297587E+03</pdfrwt>
<pdfrwt beam="2">  1       21 0.64190372E-01 0.43297587E+03</pdfrwt>
<totfact> 0.74419836E+04</totfact>
</mgrwt>
</event>
<event>
 6    0  0.1539497E-004  0.4333662E+03  0.7546771E-02  0.1032802E+00
         21   -1    0    0  502  501  0.00000000000E+00  0.00000000000E+00  0.37895724534E+03  0.37895724534E+03  0.00000000000E+00 0. -1.
         21   -1    0    0  501  502 -0.00000000000E+00 -0.00000000000E+00 -0.12389672196E+03  0.12389672196E+03  0.00000000000E+00 0. -1.
      99925    2    1    2    0    0  0.71506032134E+02 -0.41240903869E+02  0.11816053439E+03  0.29986864795E+03  0.26295507098E+03 0.  0.
         25    1    3    3    0    0  0.38463185100E+02 -0.44883871256E+02  0.25488618119E+02  0.14068104443E+03  0.12509000000E+03 0.  0.
         25    1    1    2    0    0 -0.71506032134E+02  0.41240903869E+02  0.13689998899E+03  0.20298531935E+03  0.12509000000E+03 0.  0.
         25    1    3    3    0    0  0.33042847034E+02  0.36429673866E+01  0.92671916272E+02  0.15918760353E+03  0.12509000000E+03 0.  0.
<mgrwt>
<rscale>  2 0.43336618E+03</rscale>
<asrwt>0</asrwt>
<pdfrwt beam="1">  1       21 0.55729007E-01 0.43336618E+03</pdfrwt>
<pdfrwt beam="2">  1       21 0.18220106E-01 0.43336618E+03</pdfrwt>
<totfact> 0.77549354E+04</totfact>
</mgrwt>
</event>
<event>
 6    0  0.1539497E-004  0.4964335E+03  0.7546771E-02  0.1014714E+00
         21   -1    0    0  502  501  0.00000000000E+00  0.00000000000E+00  0.11855722210E+03  0.11855722210E+03  0.00000000000E+00 0. -1.
         21   -1    0    0  501  502 -0.00000000000E+00 -0.00000000000E+00 -0.51967780327E+03  0.51967780327E+03  0.00000000000E+00 0. -1.
      99925    2    1    2    0    0  0.10810804999E+03  0.27993432414E+01 -0.11274774853E+03  0.30581723779E+03  0.26290101052E+03 0.  0.
         25    1    3    3    0    0  0.53175727909E+02 -0.32407599603E+02 -0.32333175810E+02  0.14342542630E+03  0.12509000000E+03 0.  0.
         25    1    1    2    0    0 -0.10810804999E+03 -0.27993432414E+01 -0.28837283264E+03  0.33241778758E+03  0.12509000000E+03 0.  0.
         25    1    3    3    0    0  0.54932322083E+02  0.35206942845E+02 -0.80414572717E+02  0.16239181149E+03  0.12509000000E+03 0.  0.
<mgrwt>
<rscale>  2 0.49643351E+03</rscale>
<asrwt>0</asrwt>
<pdfrwt beam="1">  1       21 0.17434885E-01 0.49643351E+03</pdfrwt>
<pdfrwt beam="2">  1       21 0.76423207E-01 0.49643351E+03</pdfrwt>
<totfact> 0.41172117E+04</totfact>
</mgrwt>
</event>
<event>
 6    0  0.1539497E-004  0.4683029E+03  0.7546771E-02  0.1022400E+00
         21   -1    0    0  502  501  0.00000000000E+00  0.00000000000E+00  0.45081385720E+03  0.45081385720E+03  0.00000000000E+00 0.  1.
         21   -1    0    0  501  502 -0.00000000000E+00 -0.00000000000E+00 -0.12161762656E+03  0.12161762656E+03  0.00000000000E+00 0.  1.
      99925    2    1    2    0    0  0.72590026237E+02  0.68833880275E+01  0.32920453645E+03  0.42764128689E+03  0.26302994220E+03 0.  0.
         25    1    1    2    0    0 -0.72590026237E+02 -0.68833880275E+01 -0.83058068616E-02  0.14479019687E+03  0.12509000000E+03 0.  0.
         25    1    3    3    0    0  0.96396444418E+01  0.32007940155E+02  0.17690550221E+03  0.21922704165E+03  0.12509000000E+03 0.  0.
         25    1    3    3    0    0  0.62950381795E+02 -0.25124552128E+02  0.15229903424E+03  0.20841424524E+03  0.12509000000E+03 0.  0.
<mgrwt>
<rscale>  2 0.46830294E+03</rscale>
<asrwt>0</asrwt>
<pdfrwt beam="1">  1       21 0.66296155E-01 0.46830294E+03</pdfrwt>
<pdfrwt beam="2">  1       21 0.17884945E-01 0.46830294E+03</pdfrwt>
<totfact> 0.54450131E+04</totfact>
</mgrwt>
</event>
<event>
 6    0  0.1539497E-004  0.5668507E+03  0.7546771E-02  0.9976672E-01
         21   -1    0    0  502  501  0.00000000000E+00  0.00000000000E+00  0.11390423166E+04  0.11390423166E+04  0.00000000000E+00 0.  1.
         21   -1    0    0  501  502 -0.00000000000E+00 -0.00000000000E+00 -0.70524104720E+02  0.70524104720E+02  0.00000000000E+00 0.  1.
      99925    2    1    2    0    0 -0.57894874783E+02  0.20827018727E+02  0.21652060254E+03  0.34623970700E+03  0.26308778410E+03 0.  0.
         25    1    3    3    0    0 -0.65952689786E+02  0.28725161827E+02  0.12373179188E+03  0.19008407780E+03  0.12509000000E+03 0.  0.
         25    1    3    3    0    0  0.80578150023E+01 -0.78981431004E+01  0.92788810661E+02  0.15615562920E+03  0.12509000000E+03 0.  0.
         25    1    1    2    0    0  0.57894874783E+02 -0.20827018727E+02  0.85199760929E+03  0.86332671427E+03  0.12509000000E+03 0.  0.
<mgrwt>
<rscale>  2 0.56685074E+03</rscale>
<asrwt>0</asrwt>
<pdfrwt beam="1">  1       21 0.16750621E+00 0.56685074E+03</pdfrwt>
<pdfrwt beam="2">  1       21 0.10371193E-01 0.56685074E+03</pdfrwt>
<totfact> 0.14487687E+04</totfact>
</mgrwt>
</event>
<event>
 6    0  0.1539497E-004  0.4793805E+03  0.7546771E-02  0.1019306E+00
         21   -1    0    0  502  501  0.00000000000E+00  0.00000000000E+00  0.88949529274E+03  0.88949529274E+03  0.00000000000E+00 0.  1.
         21   -1    0    0  501  502 -0.00000000000E+00 -0.00000000000E+00 -0.64588790290E+02  0.64588790290E+02  0.00000000000E+00 0.  1.
      99925    2    1    2    0    0  0.31647490919E+02 -0.12703361001E+03  0.57211719527E+03  0.64313546400E+03  0.26299436909E+03 0.  0.
         25    1    3    3    0    0 -0.13626708695E+02 -0.48221715826E+02  0.32231807708E+03  0.34935293326E+03  0.12509000000E+03 0.  0.
         25    1    1    2    0    0 -0.31647490919E+02  0.12703361001E+03  0.25278930718E+03  0.31094861903E+03  0.12509000000E+03 0.  0.
         25    1    3    3    0    0  0.45274199614E+02 -0.78811894186E+02  0.24979911819E+03  0.29378253074E+03  0.12509000000E+03 0.  0.
<mgrwt>
<rscale>  2 0.47938054E+03</rscale>
<asrwt>0</asrwt>
<pdfrwt beam="1">  1       21 0.13080812E+00 0.47938054E+03</pdfrwt>
<pdfrwt beam="2">  1       21 0.94983521E-02 0.47938054E+03</pdfrwt>
<totfact> 0.34010517E+04</totfact>
</mgrwt>
</event>
<event>
 6    0  0.1539497E-004  0.4035750E+03  0.7546771E-02  0.1042549E+00
         21   -1    0    0  502  501  0.00000000000E+00  0.00000000000E+00  0.14590875532E+03  0.14590875532E+03  0.00000000000E+00 0.  1.
         21   -1    0    0  501  502 -0.00000000000E+00 -0.00000000000E+00 -0.27906614687E+03  0.27906614687E+03  0.00000000000E+00 0.  1.
      99925    2    1    2    0    0  0.21784352768E+02  0.47180965000E+02 -0.86811607593E+02  0.28181051669E+03  0.26302150221E+03 0.  0.
         25    1    3    3    0    0  0.10916883962E+02  0.64048269917E+02 -0.53951832484E+02  0.15092934626E+03  0.12509000000E+03 0.  0.
         25    1    1    2    0    0 -0.21784352768E+02 -0.47180965000E+02 -0.46345783962E+02  0.14316438550E+03  0.12509000000E+03 0.  0.
         25    1    3    3    0    0  0.10867468806E+02 -0.16867304917E+02 -0.32859775109E+02  0.13088117043E+03  0.12509000000E+03 0.  0.
<mgrwt>
<rscale>  2 0.40357499E+03</rscale>
<asrwt>0</asrwt>
<pdfrwt beam="1">  1       21 0.21457170E-01 0.40357499E+03</pdfrwt>
<pdfrwt beam="2">  1       21 0.41039139E-01 0.40357499E+03</pdfrwt>
<totfact> 0.10910317E+05</totfact>
</mgrwt>
</event>
<event>
 6    0  0.1539497E-004  0.4008186E+03  0.7546771E-02  0.1043497E+00
         21   -1    0    0  502  501  0.00000000000E+00  0.00000000000E+00  0.16163022057E+03  0.16163022057E+03  0.00000000000E+00 0.  1.
         21   -1    0    0  501  502 -0.00000000000E+00 -0.00000000000E+00 -0.24849246666E+03  0.24849246666E+03  0.00000000000E+00 0.  1.
      99925    2    1    2    0    0 -0.13020230017E+02  0.23209809044E+02 -0.18262278162E+02  0.26499624125E+03  0.26302333631E+03 0.  0.
         25    1    3    3    0    0 -0.19224195738E+02  0.47525228154E+02 -0.23924377610E+02  0.13728838610E+03  0.12509000000E+03 0.  0.
         25    1    3    3    0    0  0.62039657206E+01 -0.24315419109E+02  0.56620994473E+01  0.12770785515E+03  0.12509000000E+03 0.  0.
         25    1    1    2    0    0  0.13020230017E+02 -0.23209809044E+02 -0.68599967922E+02  0.14512644599E+03  0.12509000000E+03 0.  0.
<mgrwt>
<rscale>  2 0.40081862E+03</rscale>
<asrwt>0</asrwt>
<pdfrwt beam="1">  1       21 0.23769150E-01 0.40081862E+03</pdfrwt>
<pdfrwt beam="2">  1       21 0.36543010E-01 0.40081862E+03</pdfrwt>
<totfact> 0.11370562E+05</totfact>
</mgrwt>
</event>
<event>
 6    0  0.1539497E-004  0.4467842E+03  0.7546771E-02  0.1028685E+00
         21   -1    0    0  502  501  0.00000000000E+00  0.00000000000E+00  0.14422548543E+03  0.14422548543E+03  0.00000000000E+00 0.  1.
         21   -1    0    0  501  502 -0.00000000000E+00 -0.00000000000E+00 -0.34601401251E+03  0.34601401251E+03  0.00000000000E+00 0.  1.
      99925    2    1    2    0    0 -0.30060628427E+02  0.20152461229E+02 -0.23640131874E+03  0.35549783206E+03  0.26302730281E+03 0.  0.
         25    1    1    2    0    0  0.30060628427E+02 -0.20152461229E+02  0.34612791662E+02  0.13474166587E+03  0.12509000000E+03 0.  0.
         25    1    3    3    0    0 -0.18308925800E+02  0.80694045593E+01 -0.64278148796E+02  0.14205463937E+03  0.12509000000E+03 0.  0.
         25    1    3    3    0    0 -0.11751702627E+02  0.12083056670E+02 -0.17212316995E+03  0.21344319269E+03  0.12509000000E+03 0.  0.
<mgrwt>
<rscale>  2 0.44678424E+03</rscale>
<asrwt>0</asrwt>
<pdfrwt beam="1">  1       21 0.21209630E-01 0.44678424E+03</pdfrwt>
<pdfrwt beam="2">  1       21 0.50884413E-01 0.44678424E+03</pdfrwt>
<totfact> 0.70445586E+04</totfact>
</mgrwt>
</event>
<event>
 6    0  0.1539497E-004  0.4560438E+03  0.7546771E-02  0.1025935E+00
         21   -1    0    0  502  501  0.00000000000E+00  0.00000000000E+00  0.16817774275E+04  0.16817774275E+04  0.00000000000E+00 0.  1.
         21   -1    0    0  501  502 -0.00000000000E+00 -0.00000000000E+00 -0.30916093370E+02  0.30916093370E+02  0.00000000000E+00 0.  1.
      99925    2    1    2    0    0  0.25386662358E+02  0.64554441242E+02  0.69792523711E+03  0.74908235883E+03  0.26308360877E+03 0.  0.
         25    1    3    3    0    0  0.16871458585E+02 -0.91065228044E+01  0.31426354865E+03  0.33878704371E+03  0.12509000000E+03 0.  0.
         25    1    3    3    0    0  0.85152037725E+01  0.73660964046E+02  0.38366168846E+03  0.41029531512E+03  0.12509000000E+03 0.  0.
         25    1    1    2    0    0 -0.25386662358E+02 -0.64554441242E+02  0.95293609701E+03  0.96361116203E+03  0.12509000000E+03 0.  0.
<mgrwt>
<rscale>  2 0.45604380E+03</rscale>
<asrwt>0</asrwt>
<pdfrwt beam="1">  1       21 0.24732015E+00 0.45604380E+03</pdfrwt>
<pdfrwt beam="2">  1       21 0.45464854E-02 0.45604380E+03</pdfrwt>
<totfact> 0.18845717E+04</totfact>
</mgrwt>
</event>
<event>
 6    0  0.1539497E-004  0.5128463E+03  0.7546771E-02  0.1010479E+00
         21   -1    0    0  502  501  0.00000000000E+00  0.00000000000E+00  0.26825574404E+03  0.26825574404E+03  0.00000000000E+00 0.  1.
         21   -1    0    0  501  502 -0.00000000000E+00 -0.00000000000E+00 -0.24511246210E+03  0.24511246210E+03  0.00000000000E+00 0.  1.
      99925    2    1    2    0    0 -0.13569600135E+03 -0.49501431807E+02  0.86128234954E+02  0.31217573874E+03  0.26300536585E+03 0.  0.
         25    1    3    3    0    0 -0.10101806095E+03 -0.61350202247E+01  0.65699093848E+02  0.17379921215E+03  0.12509000000E+03 0.  0.
         25    1    1    2    0    0  0.13569600135E+03  0.49501431807E+02 -0.62984953018E+02  0.20119246740E+03  0.12509000000E+03 0.  0.
         25    1    3    3    0    0 -0.34677940399E+02 -0.43366411582E+02  0.20429141106E+02  0.13837652659E+03  0.12509000000E+03 0.  0.
<mgrwt>
<rscale>  2 0.51284628E+03</rscale>
<asrwt>0</asrwt>
<pdfrwt beam="1">  1       21 0.39449374E-01 0.51284628E+03</pdfrwt>
<pdfrwt beam="2">  1       21 0.36045950E-01 0.51284628E+03</pdfrwt>
<totfact> 0.41657708E+04</totfact>
</mgrwt>
</event>
<event>
 6    0  0.1539497E-004  0.4759728E+03  0.7546771E-02  0.1020248E+00
         21   -1    0    0  502  501  0.00000000000E+00  0.00000000000E+00  0.42635077575E+02  0.42635077575E+02  0.00000000000E+00 0.  1.
         21   -1    0    0  501  502 -0.00000000000E+00 -0.00000000000E+00 -0.13284255677E+04  0.13284255677E+04  0.00000000000E+00 0.  1.
      99925    2    1    2    0    0 -0.39511483291E+02  0.98142497848E+02 -0.56773418212E+03  0.63455166586E+03  0.26294601708E+03 0.  0.
         25    1    3    3    0    0 -0.96013268776E+01  0.12550064217E+02 -0.30039093801E+03  0.32577893322E+03  0.12509000000E+03 0.  0.
         25    1    3    3    0    0 -0.29910156413E+02  0.85592433630E+02 -0.26734324411E+03  0.30877273264E+03  0.12509000000E+03 0.  0.
         25    1    1    2    0    0  0.39511483291E+02 -0.98142497848E+02 -0.71805630798E+03  0.73650897939E+03  0.12509000000E+03 0.  0.
<mgrwt>
<rscale>  2 0.47597280E+03</rscale>
<asrwt>0</asrwt>
<pdfrwt beam="1">  1       21 0.62698638E-02 0.47597280E+03</pdfrwt>
<pdfrwt beam="2">  1       21 0.19535672E+00 0.47597280E+03</pdfrwt>
<totfact> 0.23109956E+04</totfact>
</mgrwt>
</event>
<event>
 6    0  0.1539497E-004  0.3925798E+03  0.7546771E-02  0.1046380E+00
         21   -1    0    0  502  501  0.00000000000E+00  0.00000000000E+00  0.87622739156E+03  0.87622739156E+03  0.00000000000E+00 0. -1.
         21   -1    0    0  501  502 -0.00000000000E+00 -0.00000000000E+00 -0.43972287804E+02  0.43972287804E+02  0.00000000000E+00 0. -1.
      99925    2    1    2    0    0  0.11892679261E+02 -0.15142558108E+02  0.60761935812E+03  0.66236357017E+03  0.26297049614E+03 0.  0.
         25    1    3    3    0    0  0.20749367355E+02  0.29676108574E+02  0.28523609393E+03  0.31355756257E+03  0.12509000000E+03 0.  0.
         25    1    3    3    0    0 -0.88566880936E+01 -0.44818666682E+02  0.32238326420E+03  0.34880600760E+03  0.12509000000E+03 0.  0.
         25    1    1    2    0    0 -0.11892679261E+02  0.15142558108E+02  0.22463574563E+03  0.25783610919E+03  0.12509000000E+03 0.  0.
<mgrwt>
<rscale>  2 0.39257979E+03</rscale>
<asrwt>0</asrwt>
<pdfrwt beam="1">  1       21 0.12885696E+00 0.39257979E+03</pdfrwt>
<pdfrwt beam="2">  1       21 0.64665135E-02 0.39257979E+03</pdfrwt>
<totfact> 0.71350951E+04</totfact>
</mgrwt>
</event>
<event>
 6    0  0.1539497E-004  0.4241436E+03  0.7546771E-02  0.1035726E+00
         21   -1    0    0  502  501  0.00000000000E+00  0.00000000000E+00  0.37378367663E+03  0.37378367663E+03  0.00000000000E+00 0. -1.
         21   -1    0    0  501  502 -0.00000000000E+00 -0.00000000000E+00 -0.12032211902E+03  0.12032211902E+03  0.00000000000E+00 0. -1.
      99925    2    1    2    0    0 -0.38163158332E+02 -0.67595415362E+02  0.19111012414E+03  0.33422841706E+03  0.26298286710E+03 0.  0.
         25    1    1    2    0    0  0.38163158332E+02  0.67595415362E+02  0.62351433460E+02  0.15987737860E+03  0.12509000000E+03 0.  0.
         25    1    3    3    0    0 -0.31413162283E+02 -0.38255450598E+02  0.14438593115E+03  0.19734505689E+03  0.12509000000E+03 0.  0.
         25    1    3    3    0    0 -0.67499960486E+01 -0.29339964764E+02  0.46724192992E+02  0.13688336016E+03  0.12509000000E+03 0.  0.
<mgrwt>
<rscale>  2 0.42414358E+03</rscale>
<asrwt>0</asrwt>
<pdfrwt beam="1">  1       21 0.54968188E-01 0.42414358E+03</pdfrwt>
<pdfrwt beam="2">  1       21 0.17694429E-01 0.42414358E+03</pdfrwt>
<totfact> 0.84568132E+04</totfact>
</mgrwt>
</event>
<event>
 6    0  0.1539497E-004  0.4673169E+03  0.7546771E-02  0.1022680E+00
         21   -1    0    0  502  501  0.00000000000E+00  0.00000000000E+00  0.78658699935E+02  0.78658699935E+02  0.00000000000E+00 0.  1.
         21   -1    0    0  501  502 -0.00000000000E+00 -0.00000000000E+00 -0.69409066820E+03  0.69409066820E+03  0.00000000000E+00 0.  1.
      99925    2    1    2    0    0 -0.35144232038E+02  0.27219579833E+02 -0.57502998207E+03  0.63398391437E+03  0.26324912311E+03 0.  0.
         25    1    1    2    0    0  0.35144232038E+02 -0.27219579833E+02 -0.40401986193E+02  0.13876545377E+03  0.12509000000E+03 0.  0.
         25    1    3    3    0    0 -0.31116724235E+02 -0.73947121474E+01 -0.20968428981E+03  0.24624772443E+03  0.12509000000E+03 0.  0.
         25    1    3    3    0    0 -0.40275078029E+01  0.34614291980E+02 -0.36534569227E+03  0.38773618994E+03  0.12509000000E+03 0.  0.
<mgrwt>
<rscale>  2 0.46731689E+03</rscale>
<asrwt>0</asrwt>
<pdfrwt beam="1">  1       21 0.11567456E-01 0.46731689E+03</pdfrwt>
<pdfrwt beam="2">  1       21 0.10207215E+00 0.46731689E+03</pdfrwt>
<totfact> 0.44636450E+04</totfact>
</mgrwt>
</event>
<event>
 6    0  0.1539497E-004  0.4119126E+03  0.7546771E-02  0.1039731E+00
         21   -1    0    0  502  501  0.00000000000E+00  0.00000000000E+00  0.28856359153E+03  0.28856359153E+03  0.00000000000E+00 0.  1.
         21   -1    0    0  501  502 -0.00000000000E+00 -0.00000000000E+00 -0.14699703177E+03  0.14699703177E+03  0.00000000000E+00 0.  1.
      99925    2    1    2    0    0 -0.20202350724E+01  0.57445929168E+02  0.12608719795E+03  0.29702819075E+03  0.26272352099E+03 0.  0.
         25    1    1    2    0    0  0.20202350724E+01 -0.57445929168E+02  0.15479361810E+02  0.13853243256E+03  0.12509000000E+03 0.  0.
         25    1    3    3    0    0  0.38797062241E+02  0.33321122009E+02  0.61414258272E+02  0.14844099309E+03  0.12509000000E+03 0.  0.
         25    1    3    3    0    0 -0.40817297314E+02  0.24124807159E+02  0.64672939680E+02  0.14858719766E+03  0.12509000000E+03 0.  0.
<mgrwt>
<rscale>  2 0.41191257E+03</rscale>
<asrwt>0</asrwt>
<pdfrwt beam="1">  1       21 0.42435823E-01 0.41191257E+03</pdfrwt>
<pdfrwt beam="2">  1       21 0.21617210E-01 0.41191257E+03</pdfrwt>
<totfact> 0.10020128E+05</totfact>
</mgrwt>
</event>
<event>
 6    0  0.1539497E-004  0.3949396E+03  0.7546771E-02  0.1045546E+00
         21   -1    0    0  502  501  0.00000000000E+00  0.00000000000E+00  0.11867233040E+03  0.11867233040E+03  0.00000000000E+00 0.  1.
         21   -1    0    0  501  502 -0.00000000000E+00 -0.00000000000E+00 -0.32858813808E+03  0.32858813808E+03  0.00000000000E+00 0.  1.
      99925    2    1    2    0    0 -0.21972633091E+02  0.11749859159E+02 -0.16806509501E+03  0.31302244836E+03  0.26289983115E+03 0.  0.
         25    1    3    3    0    0 -0.17548802496E+02 -0.39115095359E+01 -0.12989981839E+03  0.18123115431E+03  0.12509000000E+03 0.  0.
         25    1    3    3    0    0 -0.44238305953E+01  0.15661368695E+02 -0.38165276628E+02  0.13179129405E+03  0.12509000000E+03 0.  0.
         25    1    1    2    0    0  0.21972633091E+02 -0.11749859159E+02 -0.41850712661E+02  0.13423802012E+03  0.12509000000E+03 0.  0.
<mgrwt>
<rscale>  2 0.39493959E+03</rscale>
<asrwt>0</asrwt>
<pdfrwt beam="1">  1       21 0.17451813E-01 0.39493959E+03</pdfrwt>
<pdfrwt beam="2">  1       21 0.48321785E-01 0.39493959E+03</pdfrwt>
<totfact> 0.11492377E+05</totfact>
</mgrwt>
</event>
<event>
 6    0  0.1539497E-004  0.4441009E+03  0.7546771E-02  0.1029496E+00
         21   -1    0    0  502  501  0.00000000000E+00  0.00000000000E+00  0.59930871359E+02  0.59930871359E+02  0.00000000000E+00 0.  1.
         21   -1    0    0  501  502 -0.00000000000E+00 -0.00000000000E+00 -0.82272115536E+03  0.82272115536E+03  0.00000000000E+00 0.  1.
      99925    2    1    2    0    0  0.18466196418E+02  0.44830459922E+02 -0.30978625248E+03  0.41019998553E+03  0.26447256069E+03 0.  0.
         25    1    1    2    0    0 -0.18466196418E+02 -0.44830459922E+02 -0.45300403152E+03  0.47245204119E+03  0.12509000000E+03 0.  0.
         25    1    3    3    0    0 -0.15638302490E+02  0.80687656670E+01 -0.19916241953E+03  0.23584494682E+03  0.12509000000E+03 0.  0.
         25    1    3    3    0    0  0.34104498909E+02  0.36761694255E+02 -0.11062383295E+03  0.17435503872E+03  0.12509000000E+03 0.  0.
<mgrwt>
<rscale>  2 0.44410087E+03</rscale>
<asrwt>0</asrwt>
<pdfrwt beam="1">  1       21 0.88133641E-02 0.44410087E+03</pdfrwt>
<pdfrwt beam="2">  1       21 0.12098840E+00 0.44410087E+03</pdfrwt>
<totfact> 0.47955995E+04</totfact>
</mgrwt>
</event>
<event>
 6    0  0.1539497E-004  0.4776735E+03  0.7546771E-02  0.1019777E+00
         21   -1    0    0  502  501  0.00000000000E+00  0.00000000000E+00  0.19252465398E+03  0.19252465398E+03  0.00000000000E+00 0.  1.
         21   -1    0    0  501  502 -0.00000000000E+00 -0.00000000000E+00 -0.29628923040E+03  0.29628923040E+03  0.00000000000E+00 0.  1.
      99925    2    1    2    0    0  0.13320023609E+03 -0.51053267715E+01 -0.61961261086E+02  0.30129483860E+03  0.26300383008E+03 0.  0.
         25    1    1    2    0    0 -0.13320023609E+03  0.51053267715E+01 -0.41803315336E+02  0.18751904578E+03  0.12509000000E+03 0.  0.
         25    1    3    3    0    0  0.56205326849E+02 -0.27199097523E+02 -0.61545148999E+02  0.15275517385E+03  0.12509000000E+03 0.  0.
         25    1    3    3    0    0  0.76994909242E+02  0.22093770752E+02 -0.41611208686E+00  0.14853966475E+03  0.12509000000E+03 0.  0.
<mgrwt>
<rscale>  2 0.47767345E+03</rscale>
<asrwt>0</asrwt>
<pdfrwt beam="1">  1       21 0.28312449E-01 0.47767345E+03</pdfrwt>
<pdfrwt beam="2">  1       21 0.43571945E-01 0.47767345E+03</pdfrwt>
<totfact> 0.55399747E+04</totfact>
</mgrwt>
</event>
<event>
 6    0  0.1539497E-004  0.4228137E+03  0.7546771E-02  0.1036154E+00
         21   -1    0    0  502  501  0.00000000000E+00  0.00000000000E+00  0.18307193505E+03  0.18307193505E+03  0.00000000000E+00 0.  1.
         21   -1    0    0  501  502 -0.00000000000E+00 -0.00000000000E+00 -0.24412729336E+03  0.24412729336E+03  0.00000000000E+00 0.  1.
      99925    2    1    2    0    0  0.37959056203E+02 -0.56219359227E+02  0.17207335351E+01  0.27166835654E+03  0.26305746277E+03 0.  0.
         25    1    1    2    0    0 -0.37959056203E+02  0.56219359227E+02 -0.62776091845E+02  0.15553087188E+03  0.12509000000E+03 0.  0.
         25    1    3    3    0    0  0.56088951341E+02 -0.26619044771E+02 -0.16335540499E+02  0.14060192741E+03  0.12509000000E+03 0.  0.
         25    1    3    3    0    0 -0.18129895139E+02 -0.29600314455E+02  0.18056274034E+02  0.13106642913E+03  0.12509000000E+03 0.  0.
<mgrwt>
<rscale>  2 0.42281370E+03</rscale>
<asrwt>0</asrwt>
<pdfrwt beam="1">  1       21 0.26922343E-01 0.42281370E+03</pdfrwt>
<pdfrwt beam="2">  1       21 0.35901073E-01 0.42281370E+03</pdfrwt>
<totfact> 0.92105566E+04</totfact>
</mgrwt>
</event>
<event>
 6    0  0.1539497E-004  0.4577219E+03  0.7546771E-02  0.1025444E+00
         21   -1    0    0  502  501  0.00000000000E+00  0.00000000000E+00  0.92577474305E+03  0.92577474305E+03  0.00000000000E+00 0. -1.
         21   -1    0    0  501  502 -0.00000000000E+00 -0.00000000000E+00 -0.56576746833E+02  0.56576746833E+02  0.00000000000E+00 0. -1.
      99925    2    1    2    0    0 -0.11177654085E+03  0.29107435108E+02  0.56223639683E+03  0.63133273046E+03  0.26292586935E+03 0.  0.
         25    1    1    2    0    0  0.11177654085E+03 -0.29107435108E+02  0.30696159939E+03  0.35101875942E+03  0.12509000000E+03 0.  0.
         25    1    3    3    0    0 -0.30489542424E+02 -0.90793682462E+01  0.20402916222E+03  0.24142794838E+03  0.12509000000E+03 0.  0.
         25    1    3    3    0    0 -0.81286998427E+02  0.38186803354E+02  0.35820723461E+03  0.38990478208E+03  0.12509000000E+03 0.  0.
<mgrwt>
<rscale>  2 0.45772185E+03</rscale>
<asrwt>0</asrwt>
<pdfrwt beam="1">  1       21 0.13614334E+00 0.45772185E+03</pdfrwt>
<pdfrwt beam="2">  1       21 0.83201104E-02 0.45772185E+03</pdfrwt>
<totfact> 0.39020784E+04</totfact>
</mgrwt>
</event>
<event>
 6    0  0.1539497E-004  0.4243212E+03  0.7546771E-02  0.1035669E+00
         21   -1    0    0  502  501  0.00000000000E+00  0.00000000000E+00  0.20828539670E+02  0.20828539670E+02  0.00000000000E+00 0. -1.
         21   -1    0    0  501  502 -0.00000000000E+00 -0.00000000000E+00 -0.21610787682E+04  0.21610787682E+04  0.00000000000E+00 0. -1.
      99925    2    1    2    0    0  0.69192908029E+02  0.32859547788E+02 -0.15296295485E+04  0.15539164390E+04  0.26272102191E+03 0.  0.
         25    1    3    3    0    0  0.16568220754E+02 -0.16293064358E+02 -0.81311827337E+03  0.82301203179E+03  0.12509000000E+03 0.  0.
         25    1    1    2    0    0 -0.69192908029E+02 -0.32859547788E+02 -0.61062068007E+03  0.62799086891E+03  0.12509000000E+03 0.  0.
         25    1    3    3    0    0  0.52624687275E+02  0.49152612146E+02 -0.71651127508E+03  0.73090440717E+03  0.12509000000E+03 0.  0.
<mgrwt>
<rscale>  2 0.42432117E+03</rscale>
<asrwt>0</asrwt>
<pdfrwt beam="1">  1       21 0.30630231E-02 0.42432117E+03</pdfrwt>
<pdfrwt beam="2">  1       21 0.31780544E+00 0.42432117E+03</pdfrwt>
<totfact> 0.14014717E+04</totfact>
</mgrwt>
</event>
<event>
 6    0  0.1539497E-004  0.4701933E+03  0.7546771E-02  0.1021866E+00
         21   -1    0    0  502  501  0.00000000000E+00  0.00000000000E+00  0.22272300179E+03  0.22272300179E+03  0.00000000000E+00 0.  1.
         21   -1    0    0  501  502 -0.00000000000E+00 -0.00000000000E+00 -0.24815772411E+03  0.24815772411E+03  0.00000000000E+00 0.  1.
      99925    2    1    2    0    0  0.99435294777E+02  0.75180683976E+02  0.63022439422E+01  0.29145314658E+03  0.26337369892E+03 0.  0.
         25    1    3    3    0    0  0.79471993883E+02  0.34055509772E+02  0.33048189217E+02  0.15561255241E+03  0.12509000000E+03 0.  0.
         25    1    3    3    0    0  0.19963300894E+02  0.41125174204E+02 -0.26745945274E+02  0.13584059417E+03  0.12509000000E+03 0.  0.
         25    1    1    2    0    0 -0.99435294777E+02 -0.75180683976E+02 -0.31736966268E+02  0.17942757931E+03  0.12509000000E+03 0.  0.
<mgrwt>
<rscale>  2 0.47019329E+03</rscale>
<asrwt>0</asrwt>
<pdfrwt beam="1">  1       21 0.32753383E-01 0.47019329E+03</pdfrwt>
<pdfrwt beam="2">  1       21 0.36493783E-01 0.47019329E+03</pdfrwt>
<totfact> 0.59811531E+04</totfact>
</mgrwt>
</event>
<event>
 6    0  0.1539497E-004  0.4545447E+03  0.7546771E-02  0.1026375E+00
         21   -1    0    0  502  501  0.00000000000E+00  0.00000000000E+00  0.53300911273E+03  0.53300911273E+03  0.00000000000E+00 0. -1.
         21   -1    0    0  501  502 -0.00000000000E+00 -0.00000000000E+00 -0.96907782463E+02  0.96907782463E+02  0.00000000000E+00 0. -1.
      99925    2    1    2    0    0  0.29831819244E+02  0.98086898550E+02  0.33950868840E+03  0.44153265045E+03  0.26300941961E+03 0.  0.
         25    1    3    3    0    0  0.25345129426E+01  0.72961209671E+02  0.22688227959E+03  0.26917064989E+03  0.12509000000E+03 0.  0.
         25    1    1    2    0    0 -0.29831819244E+02 -0.98086898550E+02  0.96592641869E+02  0.18838424475E+03  0.12509000000E+03 0.  0.
         25    1    3    3    0    0  0.27297306301E+02  0.25125688879E+02  0.11262640881E+03  0.17236200055E+03  0.12509000000E+03 0.  0.
<mgrwt>
<rscale>  2 0.45454474E+03</rscale>
<asrwt>0</asrwt>
<pdfrwt beam="1">  1       21 0.78383692E-01 0.45454474E+03</pdfrwt>
<pdfrwt beam="2">  1       21 0.14251145E-01 0.45454474E+03</pdfrwt>
<totfact> 0.57078429E+04</totfact>
</mgrwt>
</event>
<event>
 6    0  0.1539497E-004  0.3963737E+03  0.7546771E-02  0.1045043E+00
         21   -1    0    0  502  501  0.00000000000E+00  0.00000000000E+00  0.35176223210E+03  0.35176223210E+03  0.00000000000E+00 0. -1.
         21   -1    0    0  501  502 -0.00000000000E+00 -0.00000000000E+00 -0.11166075467E+03  0.11166075467E+03  0.00000000000E+00 0. -1.
      99925    2    1    2    0    0 -0.18859816801E+02  0.32554023595E+02  0.16450208889E+03  0.31249839370E+03  0.26301872876E+03 0.  0.
         25    1    3    3    0    0 -0.30715996284E+02  0.31083201896E+02  0.12124046145E+03  0.17960065551E+03  0.12509000000E+03 0.  0.
         25    1    1    2    0    0  0.18859816801E+02 -0.32554023595E+02  0.75599388547E+02  0.15092459306E+03  0.12509000000E+03 0.  0.
         25    1    3    3    0    0  0.11856179483E+02  0.14708216987E+01  0.43261627440E+02  0.13289773819E+03  0.12509000000E+03 0.  0.
<mgrwt>
<rscale>  2 0.39637374E+03</rscale>
<asrwt>0</asrwt>
<pdfrwt beam="1">  1       21 0.51729740E-01 0.39637374E+03</pdfrwt>
<pdfrwt beam="2">  1       21 0.16420699E-01 0.39637374E+03</pdfrwt>
<totfact> 0.11141155E+05</totfact>
</mgrwt>
</event>
<event>
 6    0  0.1539497E-004  0.3983121E+03  0.7546771E-02  0.1044366E+00
         21   -1    0    0  502  501  0.00000000000E+00  0.00000000000E+00  0.18364823223E+03  0.18364823223E+03  0.00000000000E+00 0.  1.
         21   -1    0    0  501  502 -0.00000000000E+00 -0.00000000000E+00 -0.21597334552E+03  0.21597334552E+03  0.00000000000E+00 0.  1.
      99925    2    1    2    0    0 -0.89654598546E+01 -0.38584626421E+02 -0.35865234240E+02  0.26836155558E+03  0.26298755982E+03 0.  0.
         25    1    3    3    0    0  0.28805231524E+02 -0.31698906882E+02 -0.37734231241E+02  0.13749888133E+03  0.12509000000E+03 0.  0.
         25    1    3    3    0    0 -0.37770691378E+02 -0.68857195387E+01  0.18689970015E+01  0.13086267424E+03  0.12509000000E+03 0.  0.
         25    1    1    2    0    0  0.89654598546E+01  0.38584626421E+02  0.35401209507E+01  0.13126002218E+03  0.12509000000E+03 0.  0.
<mgrwt>
<rscale>  2 0.39831205E+03</rscale>
<asrwt>0</asrwt>
<pdfrwt beam="1">  1       21 0.27007093E-01 0.39831205E+03</pdfrwt>
<pdfrwt beam="2">  1       21 0.31760786E-01 0.39831205E+03</pdfrwt>
<totfact> 0.11769295E+05</totfact>
</mgrwt>
</event>
<event>
 6    0  0.1539497E-004  0.3985169E+03  0.7546771E-02  0.1044294E+00
         21   -1    0    0  502  501  0.00000000000E+00  0.00000000000E+00  0.70267822168E+02  0.70267822168E+02  0.00000000000E+00 0.  1.
         21   -1    0    0  501  502 -0.00000000000E+00 -0.00000000000E+00 -0.56503727765E+03  0.56503727765E+03  0.00000000000E+00 0.  1.
      99925    2    1    2    0    0  0.22472063266E+02 -0.17295753378E+02 -0.38106119773E+03  0.46389561147E+03  0.26303491255E+03 0.  0.
         25    1    3    3    0    0  0.48299636030E+02 -0.38257204973E+00 -0.16862940918E+03  0.21544462616E+03  0.12509000000E+03 0.  0.
         25    1    3    3    0    0 -0.25827572763E+02 -0.16913181328E+02 -0.21243178854E+03  0.24845098531E+03  0.12509000000E+03 0.  0.
         25    1    1    2    0    0 -0.22472063266E+02  0.17295753378E+02 -0.11370825776E+03  0.17140948835E+03  0.12509000000E+03 0.  0.
<mgrwt>
<rscale>  2 0.39851695E+03</rscale>
<asrwt>0</asrwt>
<pdfrwt beam="1">  1       21 0.10333503E-01 0.39851695E+03</pdfrwt>
<pdfrwt beam="2">  1       21 0.83093716E-01 0.39851695E+03</pdfrwt>
<totfact> 0.90698254E+04</totfact>
</mgrwt>
</event>
<event>
 6    0  0.1539497E-004  0.4222313E+03  0.7546771E-02  0.1036343E+00
         21   -1    0    0  502  501  0.00000000000E+00  0.00000000000E+00  0.40505786063E+02  0.40505786063E+02  0.00000000000E+00 0.  1.
         21   -1    0    0  501  502 -0.00000000000E+00 -0.00000000000E+00 -0.11003321243E+04  0.11003321243E+04  0.00000000000E+00 0.  1.
      99925    2    1    2    0    0 -0.64191558348E+02 -0.37646986059E+02 -0.62182883762E+03  0.67928924514E+03  0.26310629705E+03 0.  0.
         25    1    3    3    0    0 -0.46596825772E+02 -0.49860840175E+02 -0.27042681254E+03  0.30567226992E+03  0.12509000000E+03 0.  0.
         25    1    1    2    0    0  0.64191558348E+02  0.37646986059E+02 -0.43799750066E+03  0.46154866526E+03  0.12509000000E+03 0.  0.
         25    1    3    3    0    0 -0.17594732577E+02  0.12213854116E+02 -0.35140202508E+03  0.37361697522E+03  0.12509000000E+03 0.  0.
<mgrwt>
<rscale>  2 0.42223130E+03</rscale>
<asrwt>0</asrwt>
<pdfrwt beam="1">  1       21 0.59567330E-02 0.42223130E+03</pdfrwt>
<pdfrwt beam="2">  1       21 0.16181355E+00 0.42223130E+03</pdfrwt>
<totfact> 0.44387982E+04</totfact>
</mgrwt>
</event>
<event>
 5    0  0.1601345E-004  0.4106178E+03  0.7546771E-02  0.1040164E+00
         21   -1    0    0  502  501  0.00000000000E+00  0.00000000000E+00  0.45111526121E+02  0.45111526121E+02  0.00000000000E+00 0. -1.
         21   -1    0    0  501  502 -0.00000000000E+00 -0.00000000000E+00 -0.93438977103E+03  0.93438977103E+03  0.00000000000E+00 0. -1.
         25    1    1    2    0    0  0.38690696137E+02 -0.11264321028E+02 -0.33273869443E+03  0.35775187179E+03  0.12509000000E+03 0.  0.
         25    1    1    2    0    0 -0.12417116920E+02  0.58778437791E+02 -0.31849382923E+03  0.34741173972E+03  0.12509000000E+03 0.  0.
         25    1    1    2    0    0 -0.26273579218E+02 -0.47514116763E+02 -0.23804572125E+03  0.27433768564E+03  0.12509000000E+03 0.  0.
<mgrwt>
<rscale>  2 0.41061782E+03</rscale>
<asrwt>0</asrwt>
<pdfrwt beam="1">  1       21 0.66340475E-02 0.41061782E+03</pdfrwt>
<pdfrwt beam="2">  1       21 0.13741027E+00 0.41061782E+03</pdfrwt>
<totfact> 0.57455791E+04</totfact>
</mgrwt>
</event>
<event>
 6    0  0.1539497E-004  0.4196988E+03  0.7546771E-02  0.1037164E+00
         21   -1    0    0  502  501  0.00000000000E+00  0.00000000000E+00  0.42942660312E+03  0.42942660312E+03  0.00000000000E+00 0.  1.
         21   -1    0    0  501  502 -0.00000000000E+00 -0.00000000000E+00 -0.10254785642E+03  0.10254785642E+03  0.00000000000E+00 0.  1.
      99925    2    1    2    0    0 -0.46684566225E+02  0.47890021525E+02  0.16948093545E+03  0.32009127952E+03  0.26317624676E+03 0.  0.
         25    1    3    3    0    0 -0.54224019238E+02  0.32091878433E+02  0.57910811690E+02  0.15156286859E+03  0.12509000000E+03 0.  0.
         25    1    1    2    0    0  0.46684566225E+02 -0.47890021525E+02  0.15739781126E+03  0.21188318001E+03  0.12509000000E+03 0.  0.
         25    1    3    3    0    0  0.75394530132E+01  0.15798143092E+02  0.11157012376E+03  0.16852841093E+03  0.12509000000E+03 0.  0.
<mgrwt>
<rscale>  2 0.41969883E+03</rscale>
<asrwt>0</asrwt>
<pdfrwt beam="1">  1       21 0.63150970E-01 0.41969883E+03</pdfrwt>
<pdfrwt beam="2">  1       21 0.15080567E-01 0.41969883E+03</pdfrwt>
<totfact> 0.84264656E+04</totfact>
</mgrwt>
</event>
<event>
 6    0  0.1539497E-004  0.4326293E+03  0.7546771E-02  0.1033033E+00
         21   -1    0    0  502  501  0.00000000000E+00  0.00000000000E+00  0.48666064146E+03  0.48666064146E+03  0.00000000000E+00 0.  1.
         21   -1    0    0  501  502 -0.00000000000E+00 -0.00000000000E+00 -0.96149171450E+02  0.96149171450E+02  0.00000000000E+00 0.  1.
      99925    2    1    2    0    0 -0.43205208114E+02 -0.76276802095E+02  0.28319635929E+03  0.39613126129E+03  0.26274504317E+03 0.  0.
         25    1    1    2    0    0  0.43205208114E+02  0.76276802095E+02  0.10731511073E+03  0.18667855162E+03  0.12509000000E+03 0.  0.
         25    1    3    3    0    0  0.71604358500E+01 -0.39463407215E+02  0.96954360688E+02  0.16326753660E+03  0.12509000000E+03 0.  0.
         25    1    3    3    0    0 -0.50365643964E+02 -0.36813394881E+02  0.18624199860E+03  0.23286372469E+03  0.12509000000E+03 0.  0.
<mgrwt>
<rscale>  2 0.43262925E+03</rscale>
<asrwt>0</asrwt>
<pdfrwt beam="1">  1       21 0.71567740E-01 0.43262925E+03</pdfrwt>
<pdfrwt beam="2">  1       21 0.14139584E-01 0.43262925E+03</pdfrwt>
<totfact> 0.71593643E+04</totfact>
</mgrwt>
</event>
<event>
 6    0  0.1539497E-004  0.4461048E+03  0.7546771E-02  0.1028890E+00
         21   -1    0    0  502  501  0.00000000000E+00  0.00000000000E+00  0.52869438225E+02  0.52869438225E+02  0.00000000000E+00 0.  1.
         21   -1    0    0  501  502 -0.00000000000E+00 -0.00000000000E+00 -0.94104237632E+03  0.94104237632E+03  0.00000000000E+00 0.  1.
      99925    2    1    2    0    0 -0.24441694075E+02  0.39926775338E+02 -0.77190645592E+03  0.81683288645E+03  0.26303011975E+03 0.  0.
         25    1    1    2    0    0  0.24441694075E+02 -0.39926775338E+02 -0.11626648218E+03  0.17707892810E+03  0.12509000000E+03 0.  0.
         25    1    3    3    0    0  0.27208912167E+02  0.27110846666E+02 -0.35713711188E+03  0.38035476557E+03  0.12509000000E+03 0.  0.
         25    1    3    3    0    0 -0.51650606242E+02  0.12815928672E+02 -0.41476934404E+03  0.43647812088E+03  0.12509000000E+03 0.  0.
<mgrwt>
<rscale>  2 0.44610484E+03</rscale>
<asrwt>0</asrwt>
<pdfrwt beam="1">  1       21 0.77749173E-02 0.44610484E+03</pdfrwt>
<pdfrwt beam="2">  1       21 0.13838859E+00 0.44610484E+03</pdfrwt>
<totfact> 0.42265300E+04</totfact>
</mgrwt>
</event>
<event>
 6    0  0.1539497E-004  0.4850602E+03  0.7546771E-02  0.1017754E+00
         21   -1    0    0  502  501  0.00000000000E+00  0.00000000000E+00  0.40992791037E+03  0.40992791037E+03  0.00000000000E+00 0. -1.
         21   -1    0    0  501  502 -0.00000000000E+00 -0.00000000000E+00 -0.14349072590E+03  0.14349072590E+03  0.00000000000E+00 0. -1.
      99925    2    1    2    0    0 -0.52385051970E+02  0.47217627347E+02  0.26301637447E+02  0.27362176879E+03  0.26306538773E+03 0.  0.
         25    1    3    3    0    0 -0.26588462758E+02 -0.81299465653E+01  0.38733850519E+02  0.13386882258E+03  0.12509000000E+03 0.  0.
         25    1    3    3    0    0 -0.25796589212E+02  0.55347573912E+02 -0.12432213072E+02  0.13975294621E+03  0.12509000000E+03 0.  0.
         25    1    1    2    0    0  0.52385051970E+02 -0.47217627347E+02  0.24013554702E+03  0.27979686747E+03  0.12509000000E+03 0.  0.
<mgrwt>
<rscale>  2 0.48506022E+03</rscale>
<asrwt>0</asrwt>
<pdfrwt beam="1">  1       21 0.60283516E-01 0.48506022E+03</pdfrwt>
<pdfrwt beam="2">  1       21 0.21101577E-01 0.48506022E+03</pdfrwt>
<totfact> 0.48915068E+04</totfact>
</mgrwt>
</event>
<event>
 6    0  0.1539497E-004  0.4114929E+03  0.7546771E-02  0.1039871E+00
         21   -1    0    0  502  501  0.00000000000E+00  0.00000000000E+00  0.30464226447E+03  0.30464226447E+03  0.00000000000E+00 0.  1.
         21   -1    0    0  501  502 -0.00000000000E+00 -0.00000000000E+00 -0.13895512462E+03  0.13895512462E+03  0.00000000000E+00 0.  1.
      99925    2    1    2    0    0 -0.70877148104E-01 -0.44650758105E+02  0.57922258010E+02  0.27255799864E+03  0.26256271523E+03 0.  0.
         25    1    3    3    0    0  0.16164769550E+02 -0.51156307284E+02  0.67436224343E+01  0.13627638127E+03  0.12509000000E+03 0.  0.
         25    1    1    2    0    0  0.70877148104E-01  0.44650758105E+02  0.10776488184E+03  0.17103939044E+03  0.12509000000E+03 0.  0.
         25    1    3    3    0    0 -0.16235646698E+02  0.65055491790E+01  0.51178635575E+02  0.13628161737E+03  0.12509000000E+03 0.  0.
<mgrwt>
<rscale>  2 0.41149291E+03</rscale>
<asrwt>0</asrwt>
<pdfrwt beam="1">  1       21 0.44800333E-01 0.41149291E+03</pdfrwt>
<pdfrwt beam="2">  1       21 0.20434577E-01 0.41149291E+03</pdfrwt>
<totfact> 0.99664241E+04</totfact>
</mgrwt>
</event>
<event>
 6    0  0.1539497E-004  0.3951174E+03  0.7546771E-02  0.1045484E+00
         21   -1    0    0  502  501  0.00000000000E+00  0.00000000000E+00  0.18598468885E+02  0.18598468885E+02  0.00000000000E+00 0. -1.
         21   -1    0    0  501  502 -0.00000000000E+00 -0.00000000000E+00 -0.20985297419E+04  0.20985297419E+04  0.00000000000E+00 0. -1.
      99925    2    1    2    0    0 -0.33565767819E+02  0.58789782354E+01 -0.13602437396E+04  0.13858561157E+04  0.26300745090E+03 0.  0.
         25    1    1    2    0    0  0.33565767819E+02 -0.58789782354E+01 -0.71968753346E+03  0.73127209510E+03  0.12509000000E+03 0.  0.
         25    1    3    3    0    0  0.20651471827E+02  0.18797261585E+02 -0.67584784954E+03  0.68789362852E+03  0.12509000000E+03 0.  0.
         25    1    3    3    0    0 -0.54217239646E+02 -0.12918283349E+02 -0.68439589003E+03  0.69796248718E+03  0.12509000000E+03 0.  0.
<mgrwt>
<rscale>  2 0.39511740E+03</rscale>
<asrwt>0</asrwt>
<pdfrwt beam="1">  1       21 0.27350685E-02 0.39511740E+03</pdfrwt>
<pdfrwt beam="2">  1       21 0.30860737E+00 0.39511740E+03</pdfrwt>
<totfact> 0.19511760E+04</totfact>
</mgrwt>
</event>
<event>
 6    0  0.1539497E-004  0.4676203E+03  0.7546771E-02  0.1022594E+00
         21   -1    0    0  502  501  0.00000000000E+00  0.00000000000E+00  0.17560693228E+03  0.17560693228E+03  0.00000000000E+00 0.  1.
         21   -1    0    0  501  502 -0.00000000000E+00 -0.00000000000E+00 -0.31130431426E+03  0.31130431426E+03  0.00000000000E+00 0.  1.
      99925    2    1    2    0    0  0.57685682719E+02 -0.55531762464E+02 -0.18386700298E+03  0.33077273393E+03  0.26304393567E+03 0.  0.
         25    1    3    3    0    0  0.39943165193E+02 -0.31984577808E+02 -0.47165516974E+02  0.14314525404E+03  0.12509000000E+03 0.  0.
         25    1    3    3    0    0  0.17742517526E+02 -0.23547184656E+02 -0.13670148600E+03  0.18762747989E+03  0.12509000000E+03 0.  0.
         25    1    1    2    0    0 -0.57685682719E+02  0.55531762464E+02  0.48169620993E+02  0.15613851261E+03  0.12509000000E+03 0.  0.
<mgrwt>
<rscale>  2 0.46762034E+03</rscale>
<asrwt>0</asrwt>
<pdfrwt beam="1">  1       21 0.25824549E-01 0.46762034E+03</pdfrwt>
<pdfrwt beam="2">  1       21 0.45780046E-01 0.46762034E+03</pdfrwt>
<totfact> 0.59964764E+04</totfact>
</mgrwt>
</event>
<event>
 6    0  0.1539497E-004  0.3968086E+03  0.7546771E-02  0.1044890E+00
         21   -1    0    0  502  501  0.00000000000E+00  0.00000000000E+00  0.33860348702E+03  0.33860348702E+03  0.00000000000E+00 0.  1.
         21   -1    0    0  501  502 -0.00000000000E+00 -0.00000000000E+00 -0.11625473179E+03  0.11625473179E+03  0.00000000000E+00 0.  1.
      99925    2    1    2    0    0 -0.20664663587E+02  0.12728248334E+02  0.11575194097E+03  0.28872747050E+03  0.26339324926E+03 0.  0.
         25    1    1    2    0    0  0.20664663587E+02 -0.12728248334E+02  0.10659681426E+03  0.16613074832E+03  0.12509000000E+03 0.  0.
         25    1    3    3    0    0  0.23668101175E+02  0.19176777587E+02  0.78274654803E+02  0.15067301516E+03  0.12509000000E+03 0.  0.
         25    1    3    3    0    0 -0.44332764762E+02 -0.64485292532E+01  0.37477286168E+02  0.13805445534E+03  0.12509000000E+03 0.  0.
<mgrwt>
<rscale>  2 0.39680856E+03</rscale>
<asrwt>0</asrwt>
<pdfrwt beam="1">  1       21 0.49794630E-01 0.39680856E+03</pdfrwt>
<pdfrwt beam="2">  1       21 0.17096284E-01 0.39680856E+03</pdfrwt>
<totfact> 0.11204640E+05</totfact>
</mgrwt>
</event>
<event>
 6    0  0.1539497E-004  0.3971866E+03  0.7546771E-02  0.1044758E+00
         21   -1    0    0  502  501  0.00000000000E+00  0.00000000000E+00  0.11891428227E+03  0.11891428227E+03  0.00000000000E+00 0.  1.
         21   -1    0    0  501  502 -0.00000000000E+00 -0.00000000000E+00 -0.33166164500E+03  0.33166164500E+03  0.00000000000E+00 0.  1.
      99925    2    1    2    0    0 -0.11329432022E+02 -0.33842767435E+02 -0.16208598088E+03  0.31097731465E+03  0.26298542942E+03 0.  0.
         25    1    3    3    0    0 -0.10373801773E+02  0.10338773261E+02 -0.11396520122E+03  0.16985311650E+03  0.12509000000E+03 0.  0.
         25    1    3    3    0    0 -0.95563024913E+00 -0.44181540696E+02 -0.48120779662E+02  0.14112419815E+03  0.12509000000E+03 0.  0.
         25    1    1    2    0    0  0.11329432022E+02  0.33842767435E+02 -0.50661381850E+02  0.13959861263E+03  0.12509000000E+03 0.  0.
<mgrwt>
<rscale>  2 0.39718664E+03</rscale>
<asrwt>0</asrwt>
<pdfrwt beam="1">  1       21 0.17487395E-01 0.39718664E+03</pdfrwt>
<pdfrwt beam="2">  1       21 0.48773771E-01 0.39718664E+03</pdfrwt>
<totfact> 0.11220553E+05</totfact>
</mgrwt>
</event>
<event>
 6    0  0.1539497E-004  0.3969305E+03  0.7546771E-02  0.1044848E+00
         21   -1    0    0  502  501  0.00000000000E+00  0.00000000000E+00  0.16605274423E+03  0.16605274423E+03  0.00000000000E+00 0.  1.
         21   -1    0    0  501  502 -0.00000000000E+00 -0.00000000000E+00 -0.23720444538E+03  0.23720444538E+03  0.00000000000E+00 0.  1.
      99925    2    1    2    0    0 -0.17669927730E+02  0.16031209626E+02 -0.16088550024E+02  0.26451756030E+03  0.26294766064E+03 0.  0.
         25    1    3    3    0    0 -0.17252758479E+02 -0.27354597288E+02 -0.25826267861E+02  0.13175900683E+03  0.12509000000E+03 0.  0.
         25    1    1    2    0    0  0.17669927730E+02 -0.16031209626E+02 -0.55063151131E+02  0.13873962931E+03  0.12509000000E+03 0.  0.
         25    1    3    3    0    0 -0.41716925023E+00  0.43385806914E+02  0.97377178370E+01  0.13275855347E+03  0.12509000000E+03 0.  0.
<mgrwt>
<rscale>  2 0.39693047E+03</rscale>
<asrwt>0</asrwt>
<pdfrwt beam="1">  1       21 0.24419521E-01 0.39693047E+03</pdfrwt>
<pdfrwt beam="2">  1       21 0.34883006E-01 0.39693047E+03</pdfrwt>
<totfact> 0.11866054E+05</totfact>
</mgrwt>
</event>
<event>
 6    0  0.1539497E-004  0.4289248E+03  0.7546771E-02  0.1034200E+00
         21   -1    0    0  502  501  0.00000000000E+00  0.00000000000E+00  0.17721736540E+02  0.17721736540E+02  0.00000000000E+00 0.  1.
         21   -1    0    0  501  502 -0.00000000000E+00 -0.00000000000E+00 -0.25953510752E+04  0.25953510752E+04  0.00000000000E+00 0.  1.
      99925    2    1    2    0    0 -0.46846285178E+02  0.72191369423E+02 -0.17154218801E+04  0.17375984387E+04  0.26300178515E+03 0.  0.
         25    1    3    3    0    0 -0.36145544764E+02 -0.31488595180E+01 -0.78946359816E+03  0.80013542394E+03  0.12509000000E+03 0.  0.
         25    1    1    2    0    0  0.46846285178E+02 -0.72191369423E+02 -0.86220745857E+03  0.87547437311E+03  0.12509000000E+03 0.  0.
         25    1    3    3    0    0 -0.10700740414E+02  0.75340228941E+02 -0.92595828195E+03  0.93746301472E+03  0.12509000000E+03 0.  0.
<mgrwt>
<rscale>  2 0.42892483E+03</rscale>
<asrwt>0</asrwt>
<pdfrwt beam="1">  1       21 0.26061369E-02 0.42892483E+03</pdfrwt>
<pdfrwt beam="2">  1       21 0.38166939E+00 0.42892483E+03</pdfrwt>
<totfact> 0.74406006E+03</totfact>
</mgrwt>
</event>
<event>
 6    0  0.1539497E-004  0.4524636E+03  0.7546771E-02  0.1026990E+00
         21   -1    0    0  502  501  0.00000000000E+00  0.00000000000E+00  0.78518236953E+02  0.78518236953E+02  0.00000000000E+00 0. -1.
         21   -1    0    0  501  502 -0.00000000000E+00 -0.00000000000E+00 -0.65183351184E+03  0.65183351184E+03  0.00000000000E+00 0. -1.
      99925    2    1    2    0    0  0.10441563022E+01 -0.94317123498E+02 -0.26579324440E+03  0.38522261734E+03  0.26239970673E+03 0.  0.
         25    1    3    3    0    0 -0.19564501906E+02 -0.11810128878E+02 -0.11093556376E+03  0.16874968529E+03  0.12509000000E+03 0.  0.
         25    1    3    3    0    0  0.20608658208E+02 -0.82506994620E+02 -0.15485768064E+03  0.21647293205E+03  0.12509000000E+03 0.  0.
         25    1    1    2    0    0 -0.10441563022E+01  0.94317123498E+02 -0.30752203049E+03  0.34512913146E+03  0.12509000000E+03 0.  0.
<mgrwt>
<rscale>  2 0.45246356E+03</rscale>
<asrwt>0</asrwt>
<pdfrwt beam="1">  1       21 0.11546800E-01 0.45246356E+03</pdfrwt>
<pdfrwt beam="2">  1       21 0.95857867E-01 0.45246356E+03</pdfrwt>
<totfact> 0.52321654E+04</totfact>
</mgrwt>
</event>
<event>
 6    0  0.1539497E-004  0.4561650E+03  0.7546771E-02  0.1025899E+00
         21   -1    0    0  502  501  0.00000000000E+00  0.00000000000E+00  0.13402053772E+03  0.13402053772E+03  0.00000000000E+00 0.  1.
         21   -1    0    0  501  502 -0.00000000000E+00 -0.00000000000E+00 -0.38816161111E+03  0.38816161111E+03  0.00000000000E+00 0.  1.
      99925    2    1    2    0    0  0.11137145986E+03 -0.56645720646E+01 -0.13171460415E+03  0.31464555467E+03  0.26309199661E+03 0.  0.
         25    1    3    3    0    0  0.55931950283E+02  0.37842366822E+02 -0.63668305118E+02  0.15576132051E+03  0.12509000000E+03 0.  0.
         25    1    1    2    0    0 -0.11137145986E+03  0.56645720646E+01 -0.12242646924E+03  0.20753659417E+03  0.12509000000E+03 0.  0.
         25    1    3    3    0    0  0.55439509572E+02 -0.43506938887E+02 -0.68046299028E+02  0.15888423416E+03  0.12509000000E+03 0.  0.
<mgrwt>
<rscale>  2 0.45616500E+03</rscale>
<asrwt>0</asrwt>
<pdfrwt beam="1">  1       21 0.19708902E-01 0.45616500E+03</pdfrwt>
<pdfrwt beam="2">  1       21 0.57082591E-01 0.45616500E+03</pdfrwt>
<totfact> 0.63153109E+04</totfact>
</mgrwt>
</event>
<event>
 6    0  0.1539497E-004  0.4326970E+03  0.7546771E-02  0.1033011E+00
         21   -1    0    0  502  501  0.00000000000E+00  0.00000000000E+00  0.84669552683E+02  0.84669552683E+02  0.00000000000E+00 0.  1.
         21   -1    0    0  501  502 -0.00000000000E+00 -0.00000000000E+00 -0.55281575991E+03  0.55281575991E+03  0.00000000000E+00 0.  1.
      99925    2    1    2    0    0 -0.88372623875E+01  0.24348760635E+02 -0.17272999917E+03  0.31563254589E+03  0.26290167756E+03 0.  0.
         25    1    3    3    0    0 -0.32022560982E+02  0.21838234756E+02 -0.12091417212E+03  0.17824168432E+03  0.12509000000E+03 0.  0.
         25    1    1    2    0    0  0.88372623875E+01 -0.24348760635E+02 -0.29541620805E+03  0.32185276670E+03  0.12509000000E+03 0.  0.
         25    1    3    3    0    0  0.23185298594E+02  0.25105258789E+01 -0.51815827048E+02  0.13739086157E+03  0.12509000000E+03 0.  0.
<mgrwt>
<rscale>  2 0.43269695E+03</rscale>
<asrwt>0</asrwt>
<pdfrwt beam="1">  1       21 0.12451405E-01 0.43269695E+03</pdfrwt>
<pdfrwt beam="2">  1       21 0.81296436E-01 0.43269695E+03</pdfrwt>
<totfact> 0.67552186E+04</totfact>
</mgrwt>
</event>
<event>
 6    0  0.1539497E-004  0.3943082E+03  0.7546771E-02  0.1045769E+00
         21   -1    0    0  502  501  0.00000000000E+00  0.00000000000E+00  0.41952759425E+03  0.41952759425E+03  0.00000000000E+00 0.  1.
         21   -1    0    0  501  502 -0.00000000000E+00 -0.00000000000E+00 -0.92651213787E+02  0.92651213787E+02  0.00000000000E+00 0.  1.
      99925    2    1    2    0    0  0.32397326074E+01 -0.19938325561E+02  0.18710240375E+03  0.32351957725E+03  0.26315313922E+03 0.  0.
         25    1    1    2    0    0 -0.32397326074E+01  0.19938325561E+02  0.13977397671E+03  0.18865923078E+03  0.12509000000E+03 0.  0.
         25    1    3    3    0    0 -0.38240209152E+01  0.69447747634E+01  0.13765270947E+03  0.18616828290E+03  0.12509000000E+03 0.  0.
         25    1    3    3    0    0  0.70637535226E+01 -0.26883100325E+02  0.49449694280E+02  0.13735129436E+03  0.12509000000E+03 0.  0.
<mgrwt>
<rscale>  2 0.39430821E+03</rscale>
<asrwt>0</asrwt>
<pdfrwt beam="1">  1       21 0.61695234E-01 0.39430821E+03</pdfrwt>
<pdfrwt beam="2">  1       21 0.13625179E-01 0.39430821E+03</pdfrwt>
<totfact> 0.10753627E+05</totfact>
</mgrwt>
</event>
<event>
 6    0  0.1539497E-004  0.4008705E+03  0.7546771E-02  0.1043479E+00
         21   -1    0    0  502  501  0.00000000000E+00  0.00000000000E+00  0.64772224363E+03  0.64772224363E+03  0.00000000000E+00 0.  1.
         21   -1    0    0  501  502 -0.00000000000E+00 -0.00000000000E+00 -0.62023961155E+02  0.62023961155E+02  0.00000000000E+00 0.  1.
      99925    2    1    2    0    0  0.15781186773E+02  0.35924311680E+02  0.34212172239E+03  0.43312977225E+03  0.26270615648E+03 0.  0.
         25    1    3    3    0    0  0.39222574125E+02  0.39236790634E+02  0.19989284514E+03  0.24224490438E+03  0.12509000000E+03 0.  0.
         25    1    1    2    0    0 -0.15781186773E+02 -0.35924311680E+02  0.24357656008E+03  0.27661643253E+03  0.12509000000E+03 0.  0.
         25    1    3    3    0    0 -0.23441387352E+02 -0.33124789545E+01  0.14222887725E+03  0.19088486787E+03  0.12509000000E+03 0.  0.
<mgrwt>
<rscale>  2 0.40087055E+03</rscale>
<asrwt>0</asrwt>
<pdfrwt beam="1">  1       21 0.95253267E-01 0.40087055E+03</pdfrwt>
<pdfrwt beam="2">  1       21 0.91211711E-02 0.40087055E+03</pdfrwt>
<totfact> 0.82171805E+04</totfact>
</mgrwt>
</event>
<event>
 6    0  0.1539497E-004  0.4317967E+03  0.7546771E-02  0.1033294E+00
         21   -1    0    0  502  501  0.00000000000E+00  0.00000000000E+00  0.23764257309E+03  0.23764257309E+03  0.00000000000E+00 0. -1.
         21   -1    0    0  501  502 -0.00000000000E+00 -0.00000000000E+00 -0.19614376029E+03  0.19614376029E+03  0.00000000000E+00 0. -1.
      99925    2    1    2    0    0 -0.52041290447E+02  0.11123120156E+02  0.99247806894E+02  0.28608909532E+03  0.26299205990E+03 0.  0.
         25    1    1    2    0    0  0.52041290447E+02 -0.11123120156E+02 -0.57748994098E+02  0.14769723807E+03  0.12509000000E+03 0.  0.
         25    1    3    3    0    0 -0.28235342366E+02 -0.20421813901E+02  0.16278860165E+02  0.13086937927E+03  0.12509000000E+03 0.  0.
         25    1    3    3    0    0 -0.23805948081E+02  0.31544934057E+02  0.82968946730E+02  0.15521971605E+03  0.12509000000E+03 0.  0.
<mgrwt>
<rscale>  2 0.43179675E+03</rscale>
<asrwt>0</asrwt>
<pdfrwt beam="1">  1       21 0.34947437E-01 0.43179675E+03</pdfrwt>
<pdfrwt beam="2">  1       21 0.28844670E-01 0.43179675E+03</pdfrwt>
<totfact> 0.84767884E+04</totfact>
</mgrwt>
</event>
<event>
 6    0  0.1539497E-004  0.4201762E+03  0.7546771E-02  0.1037009E+00
         21   -1    0    0  502  501  0.00000000000E+00  0.00000000000E+00  0.85396507819E+02  0.85396507819E+02  0.00000000000E+00 0.  1.
         21   -1    0    0  501  502 -0.00000000000E+00 -0.00000000000E+00 -0.51684785443E+03  0.51684785443E+03  0.00000000000E+00 0.  1.
      99925    2    1    2    0    0  0.13410726193E+02 -0.48184889770E+02 -0.36338841421E+03  0.45130827629E+03  0.26291897893E+03 0.  0.
         25    1    3    3    0    0  0.42825837090E+02 -0.20594915766E+02 -0.21339405628E+03  0.25187841161E+03  0.12509000000E+03 0.  0.
         25    1    1    2    0    0 -0.13410726193E+02  0.48184889770E+02 -0.68062932398E+02  0.15093608596E+03  0.12509000000E+03 0.  0.
         25    1    3    3    0    0 -0.29415110896E+02 -0.27589974004E+02 -0.14999435793E+03  0.19942986468E+03  0.12509000000E+03 0.  0.
<mgrwt>
<rscale>  2 0.42017616E+03</rscale>
<asrwt>0</asrwt>
<pdfrwt beam="1">  1       21 0.12558310E-01 0.42017616E+03</pdfrwt>
<pdfrwt beam="2">  1       21 0.76007038E-01 0.42017616E+03</pdfrwt>
<totfact> 0.77841508E+04</totfact>
</mgrwt>
</event>
<event>
 6    0  0.1539497E-004  0.4376891E+03  0.7546771E-02  0.1031458E+00
         21   -1    0    0  502  501  0.00000000000E+00  0.00000000000E+00  0.18441361255E+04  0.18441361255E+04  0.00000000000E+00 0.  1.
         21   -1    0    0  501  502 -0.00000000000E+00 -0.00000000000E+00 -0.25970394128E+02  0.25970394128E+02  0.00000000000E+00 0.  1.
      99925    2    1    2    0    0  0.31722890915E+02 -0.19729814503E+02  0.15412788057E+04  0.15639864695E+04  0.26290247712E+03 0.  0.
         25    1    3    3    0    0 -0.21211583456E+02 -0.21223853373E+02  0.81985203590E+03  0.82988267369E+03  0.12509000000E+03 0.  0.
         25    1    3    3    0    0  0.52934474372E+02  0.14940388704E+01  0.72142676976E+03  0.73410379576E+03  0.12509000000E+03 0.  0.
         25    1    1    2    0    0 -0.31722890915E+02  0.19729814503E+02  0.27688692574E+03  0.30612005020E+03  0.12509000000E+03 0.  0.
<mgrwt>
<rscale>  2 0.43768912E+03</rscale>
<asrwt>0</asrwt>
<pdfrwt beam="1">  1       21 0.27119640E+00 0.43768912E+03</pdfrwt>
<pdfrwt beam="2">  1       21 0.38191769E-02 0.43768912E+03</pdfrwt>
<totfact> 0.18284551E+04</totfact>
</mgrwt>
</event>
<event>
 6    0  0.1539497E-004  0.4529038E+03  0.7546771E-02  0.1026860E+00
         21   -1    0    0  502  501  0.00000000000E+00  0.00000000000E+00  0.16369694239E+04  0.16369694239E+04  0.00000000000E+00 0.  1.
         21   -1    0    0  501  502 -0.00000000000E+00 -0.00000000000E+00 -0.31326460832E+02  0.31326460832E+02  0.00000000000E+00 0.  1.
      99925    2    1    2    0    0  0.17369626499E+02 -0.70891698928E+02  0.13206594414E+04  0.13486234702E+04  0.26328039666E+03 0.  0.
         25    1    3    3    0    0  0.45135775179E+02 -0.51549178104E+02  0.63419799367E+03  0.65003781370E+03  0.12509000000E+03 0.  0.
         25    1    1    2    0    0 -0.17369626499E+02  0.70891698928E+02  0.28498352166E+03  0.31967241455E+03  0.12509000000E+03 0.  0.
         25    1    3    3    0    0 -0.27766148679E+02 -0.19342520823E+02  0.68646144774E+03  0.69858565650E+03  0.12509000000E+03 0.  0.
<mgrwt>
<rscale>  2 0.45290378E+03</rscale>
<asrwt>0</asrwt>
<pdfrwt beam="1">  1       21 0.24073074E+00 0.45290378E+03</pdfrwt>
<pdfrwt beam="2">  1       21 0.46068336E-02 0.45290378E+03</pdfrwt>
<totfact> 0.20257292E+04</totfact>
</mgrwt>
</event>
<event>
 6    0  0.1539497E-004  0.5222308E+03  0.7546771E-02  0.1008134E+00
         21   -1    0    0  502  501  0.00000000000E+00  0.00000000000E+00  0.14175287296E+04  0.14175287296E+04  0.00000000000E+00 0.  1.
         21   -1    0    0  501  502 -0.00000000000E+00 -0.00000000000E+00 -0.48098676496E+02  0.48098676496E+02  0.00000000000E+00 0.  1.
      99925    2    1    2    0    0  0.13762407247E+03  0.88209507977E+02  0.70391494637E+03  0.76900759012E+03  0.26297360955E+03 0.  0.
         25    1    3    3    0    0  0.46757149105E+02  0.60302681905E+02  0.41546839555E+03  0.44054981584E+03  0.12509000000E+03 0.  0.
         25    1    1    2    0    0 -0.13762407247E+03 -0.88209507977E+02  0.66551510677E+03  0.69661981601E+03  0.12509000000E+03 0.  0.
         25    1    3    3    0    0  0.90866923368E+02  0.27906826073E+02  0.28844655082E+03  0.32845777428E+03  0.12509000000E+03 0.  0.
<mgrwt>
<rscale>  2 0.52223081E+03</rscale>
<asrwt>0</asrwt>
<pdfrwt beam="1">  1       21 0.20846008E+00 0.52223081E+03</pdfrwt>
<pdfrwt beam="2">  1       21 0.70733357E-02 0.52223081E+03</pdfrwt>
<totfact> 0.15083473E+04</totfact>
</mgrwt>
</event>
<event>
 6    0  0.1539497E-004  0.6644343E+03  0.7546771E-02  0.9780065E-01
         21   -1    0    0  502  501  0.00000000000E+00  0.00000000000E+00  0.11909096345E+04  0.11909096345E+04  0.00000000000E+00 0.  1.
         21   -1    0    0  501  502 -0.00000000000E+00 -0.00000000000E+00 -0.92675561743E+02  0.92675561743E+02  0.00000000000E+00 0.  1.
      99925    2    1    2    0    0 -0.43629938451E+02 -0.22519546914E+03  0.36409154501E+03  0.50433598706E+03  0.26301247851E+03 0.  0.
         25    1    1    2    0    0  0.43629938451E+02  0.22519546914E+03  0.73414252770E+03  0.77924920913E+03  0.12509000000E+03 0.  0.
         25    1    3    3    0    0  0.12639756215E+02 -0.79143093002E+02  0.15973541042E+03  0.21814284781E+03  0.12509000000E+03 0.  0.
         25    1    3    3    0    0 -0.56269694666E+02 -0.14605237614E+03  0.20435613458E+03  0.28619313926E+03  0.12509000000E+03 0.  0.
<mgrwt>
<rscale>  2 0.66443425E+03</rscale>
<asrwt>0</asrwt>
<pdfrwt beam="1">  1       21 0.17513376E+00 0.66443425E+03</pdfrwt>
<pdfrwt beam="2">  1       21 0.13628760E-01 0.66443425E+03</pdfrwt>
<totfact> 0.75441499E+03</totfact>
</mgrwt>
</event>
<event>
 6    0  0.1539497E-004  0.4083515E+03  0.7546771E-02  0.1040926E+00
         21   -1    0    0  502  501  0.00000000000E+00  0.00000000000E+00  0.54670671146E+03  0.54670671146E+03  0.00000000000E+00 0. -1.
         21   -1    0    0  501  502 -0.00000000000E+00 -0.00000000000E+00 -0.76252457416E+02  0.76252457416E+02  0.00000000000E+00 0. -1.
      99925    2    1    2    0    0 -0.13226782173E+02  0.35812197364E+02  0.24060775956E+03  0.35850807628E+03  0.26301803275E+03 0.  0.
         25    1    1    2    0    0  0.13226782173E+02 -0.35812197364E+02  0.22984649448E+03  0.26445109259E+03  0.12509000000E+03 0.  0.
         25    1    3    3    0    0  0.28445694429E+02  0.36718205159E+02  0.13186958705E+03  0.18760191953E+03  0.12509000000E+03 0.  0.
         25    1    3    3    0    0 -0.41672476602E+02 -0.90600779566E+00  0.10873817251E+03  0.17090615675E+03  0.12509000000E+03 0.  0.
<mgrwt>
<rscale>  2 0.40835147E+03</rscale>
<asrwt>0</asrwt>
<pdfrwt beam="1">  1       21 0.80398044E-01 0.40835147E+03</pdfrwt>
<pdfrwt beam="2">  1       21 0.11213597E-01 0.40835147E+03</pdfrwt>
<totfact> 0.84284847E+04</totfact>
</mgrwt>
</event>
<event>
 6    0  0.1539497E-004  0.4128072E+03  0.7546771E-02  0.1039433E+00
         21   -1    0    0  502  501  0.00000000000E+00  0.00000000000E+00  0.11956624635E+03  0.11956624635E+03  0.00000000000E+00 0. -1.
         21   -1    0    0  501  502 -0.00000000000E+00 -0.00000000000E+00 -0.35630830901E+03  0.35630830901E+03  0.00000000000E+00 0. -1.
      99925    2    1    2    0    0 -0.64218326637E+02 -0.15967403305E+02 -0.15965213799E+03  0.31472457544E+03  0.26302813875E+03 0.  0.
         25    1    1    2    0    0  0.64218326637E+02  0.15967403305E+02 -0.77089924671E+02  0.16114997993E+03  0.12509000000E+03 0.  0.
         25    1    3    3    0    0 -0.48778772837E+02  0.29062960614E+02 -0.79578778401E+02  0.15875866726E+03  0.12509000000E+03 0.  0.
         25    1    3    3    0    0 -0.15439553800E+02 -0.45030363919E+02 -0.80073359593E+02  0.15596590817E+03  0.12509000000E+03 0.  0.
<mgrwt>
<rscale>  2 0.41280720E+03</rscale>
<asrwt>0</asrwt>
<pdfrwt beam="1">  1       21 0.17583271E-01 0.41280720E+03</pdfrwt>
<pdfrwt beam="2">  1       21 0.52398281E-01 0.41280720E+03</pdfrwt>
<totfact> 0.95059695E+04</totfact>
</mgrwt>
</event>
<event>
 6    0  0.1539497E-004  0.4417048E+03  0.7546771E-02  0.1030225E+00
         21   -1    0    0  502  501  0.00000000000E+00  0.00000000000E+00  0.52856210977E+03  0.52856210977E+03  0.00000000000E+00 0.  1.
         21   -1    0    0  501  502 -0.00000000000E+00 -0.00000000000E+00 -0.92280144843E+02  0.92280144843E+02  0.00000000000E+00 0.  1.
      99925    2    1    2    0    0 -0.25591174827E+01  0.18652587978E+02  0.13976692489E+03  0.29847112503E+03  0.26305085261E+03 0.  0.
         25    1    1    2    0    0  0.25591174827E+01 -0.18652587978E+02  0.29651504004E+03  0.32237112959E+03  0.12509000000E+03 0.  0.
         25    1    3    3    0    0 -0.21195958936E+02  0.62023385238E+01  0.29935121767E+02  0.13050424244E+03  0.12509000000E+03 0.  0.
         25    1    3    3    0    0  0.18636841453E+02  0.12450249454E+02  0.10983180312E+03  0.16796688259E+03  0.12509000000E+03 0.  0.
<mgrwt>
<rscale>  2 0.44170482E+03</rscale>
<asrwt>0</asrwt>
<pdfrwt beam="1">  1       21 0.77729721E-01 0.44170482E+03</pdfrwt>
<pdfrwt beam="2">  1       21 0.13570610E-01 0.44170482E+03</pdfrwt>
<totfact> 0.63857323E+04</totfact>
</mgrwt>
</event>
<event>
 6    0  0.1539497E-004  0.4410026E+03  0.7546771E-02  0.1030440E+00
         21   -1    0    0  502  501  0.00000000000E+00  0.00000000000E+00  0.36512864957E+02  0.36512864957E+02  0.00000000000E+00 0. -1.
         21   -1    0    0  501  502 -0.00000000000E+00 -0.00000000000E+00 -0.13316079400E+04  0.13316079400E+04  0.00000000000E+00 0. -1.
      99925    2    1    2    0    0 -0.13783486152E+02  0.78380411733E+02 -0.10108423229E+04  0.10475266556E+04  0.26301410395E+03 0.  0.
         25    1    1    2    0    0  0.13783486152E+02 -0.78380411733E+02 -0.28425275211E+03  0.32059414938E+03  0.12509000000E+03 0.  0.
         25    1    3    3    0    0  0.17582470505E+02  0.71180703224E+02 -0.49900018644E+03  0.51963884569E+03  0.12509000000E+03 0.  0.
         25    1    3    3    0    0 -0.31365956657E+02  0.71997085090E+01 -0.51184213649E+03  0.52788780989E+03  0.12509000000E+03 0.  0.
<mgrwt>
<rscale>  2 0.44100259E+03</rscale>
<asrwt>0</asrwt>
<pdfrwt beam="1">  1       21 0.53695386E-02 0.44100259E+03</pdfrwt>
<pdfrwt beam="2">  1       21 0.19582471E+00 0.44100259E+03</pdfrwt>
<totfact> 0.30365811E+04</totfact>
</mgrwt>
</event>
<event>
 6    0  0.1539497E-004  0.4101395E+03  0.7546771E-02  0.1040324E+00
         21   -1    0    0  502  501  0.00000000000E+00  0.00000000000E+00  0.98820650442E+02  0.98820650442E+02  0.00000000000E+00 0. -1.
         21   -1    0    0  501  502 -0.00000000000E+00 -0.00000000000E+00 -0.42555482555E+03  0.42555482555E+03  0.00000000000E+00 0. -1.
      99925    2    1    2    0    0  0.29587579506E+01 -0.57776562877E+02 -0.18521933109E+03  0.32683853098E+03  0.26300254610E+03 0.  0.
         25    1    3    3    0    0 -0.12838832840E+02 -0.45568278644E+02 -0.13654089430E+03  0.19113405652E+03  0.12509000000E+03 0.  0.
         25    1    3    3    0    0  0.15797590790E+02 -0.12208284233E+02 -0.48678436788E+02  0.13570447445E+03  0.12509000000E+03 0.  0.
         25    1    1    2    0    0 -0.29587579506E+01  0.57776562877E+02 -0.14151484402E+03  0.19753694501E+03  0.12509000000E+03 0.  0.
<mgrwt>
<rscale>  2 0.41013951E+03</rscale>
<asrwt>0</asrwt>
<pdfrwt beam="1">  1       21 0.14532449E-01 0.41013951E+03</pdfrwt>
<pdfrwt beam="2">  1       21 0.62581592E-01 0.41013951E+03</pdfrwt>
<totfact> 0.92242798E+04</totfact>
</mgrwt>
</event>
<event>
 6    0  0.1539497E-004  0.4069293E+03  0.7546771E-02  0.1041406E+00
         21   -1    0    0  502  501  0.00000000000E+00  0.00000000000E+00  0.57928010190E+02  0.57928010190E+02  0.00000000000E+00 0.  1.
         21   -1    0    0  501  502 -0.00000000000E+00 -0.00000000000E+00 -0.71464312992E+03  0.71464312992E+03  0.00000000000E+00 0.  1.
      99925    2    1    2    0    0  0.25418875774E+02  0.51150608035E+02 -0.42399999436E+03  0.50226327559E+03  0.26311575178E+03 0.  0.
         25    1    3    3    0    0  0.41139062014E+02  0.55952781770E+02 -0.22410592164E+03  0.26588363701E+03  0.12509000000E+03 0.  0.
         25    1    3    3    0    0 -0.15720186240E+02 -0.48021737347E+01 -0.19989407272E+03  0.23637963858E+03  0.12509000000E+03 0.  0.
         25    1    1    2    0    0 -0.25418875774E+02 -0.51150608035E+02 -0.23271512536E+03  0.27030786452E+03  0.12509000000E+03 0.  0.
<mgrwt>
<rscale>  2 0.40692925E+03</rscale>
<asrwt>0</asrwt>
<pdfrwt beam="1">  1       21 0.85188246E-02 0.40692925E+03</pdfrwt>
<pdfrwt beam="2">  1       21 0.10509458E+00 0.40692925E+03</pdfrwt>
<totfact> 0.73015322E+04</totfact>
</mgrwt>
</event>
<event>
 6    0  0.1539497E-004  0.4172900E+03  0.7546771E-02  0.1037952E+00
         21   -1    0    0  502  501  0.00000000000E+00  0.00000000000E+00  0.58204505092E+03  0.58204505092E+03  0.00000000000E+00 0.  1.
         21   -1    0    0  501  502 -0.00000000000E+00 -0.00000000000E+00 -0.74792730198E+02  0.74792730198E+02  0.00000000000E+00 0.  1.
      99925    2    1    2    0    0 -0.27893001451E+01 -0.60404865156E+02  0.39389896329E+03  0.47752515002E+03  0.26309189971E+03 0.  0.
         25    1    1    2    0    0  0.27893001451E+01  0.60404865156E+02  0.11335335743E+03  0.17931263109E+03  0.12509000000E+03 0.  0.
         25    1    3    3    0    0  0.29292354930E+02 -0.50649495384E+01  0.16901922810E+03  0.21236455292E+03  0.12509000000E+03 0.  0.
         25    1    3    3    0    0 -0.32081655075E+02 -0.55339915617E+02  0.22487973519E+03  0.26516059709E+03  0.12509000000E+03 0.  0.
<mgrwt>
<rscale>  2 0.41729001E+03</rscale>
<asrwt>0</asrwt>
<pdfrwt beam="1">  1       21 0.85594858E-01 0.41729001E+03</pdfrwt>
<pdfrwt beam="2">  1       21 0.10998931E-01 0.41729001E+03</pdfrwt>
<totfact> 0.75317590E+04</totfact>
</mgrwt>
</event>
<event>
 6    0  0.1539497E-004  0.4185500E+03  0.7546771E-02  0.1037539E+00
         21   -1    0    0  502  501  0.00000000000E+00  0.00000000000E+00  0.12581442391E+03  0.12581442391E+03  0.00000000000E+00 0. -1.
         21   -1    0    0  501  502 -0.00000000000E+00 -0.00000000000E+00 -0.34810015912E+03  0.34810015912E+03  0.00000000000E+00 0. -1.
      99925    2    1    2    0    0  0.13391240327E+02  0.12683272337E+02 -0.64203680533E+02  0.27148525012E+03  0.26313862834E+03 0.  0.
         25    1    1    2    0    0 -0.13391240327E+02 -0.12683272337E+02 -0.15808205467E+03  0.20242933291E+03  0.12509000000E+03 0.  0.
         25    1    3    3    0    0  0.29954089735E+02 -0.47537323506E+01 -0.64794481838E+02  0.14410301329E+03  0.12509000000E+03 0.  0.
         25    1    3    3    0    0 -0.16562849407E+02  0.17437004688E+02  0.59080130510E+00  0.12738223683E+03  0.12509000000E+03 0.  0.
<mgrwt>
<rscale>  2 0.41854998E+03</rscale>
<asrwt>0</asrwt>
<pdfrwt beam="1">  1       21 0.18502121E-01 0.41854998E+03</pdfrwt>
<pdfrwt beam="2">  1       21 0.51191200E-01 0.41854998E+03</pdfrwt>
<totfact> 0.90674091E+04</totfact>
</mgrwt>
</event>
<event>
 6    0  0.1539497E-004  0.4093730E+03  0.7546771E-02  0.1040582E+00
         21   -1    0    0  502  501  0.00000000000E+00  0.00000000000E+00  0.17552194332E+04  0.17552194332E+04  0.00000000000E+00 0. -1.
         21   -1    0    0  501  502 -0.00000000000E+00 -0.00000000000E+00 -0.23869703940E+02  0.23869703940E+02  0.00000000000E+00 0. -1.
      99925    2    1    2    0    0 -0.55813768744E+02  0.22870331733E+02  0.11854332718E+04  0.12157859190E+04  0.26314469456E+03 0.  0.
         25    1    1    2    0    0  0.55813768744E+02 -0.22870331733E+02  0.54591645746E+03  0.56330321806E+03  0.12509000000E+03 0.  0.
         25    1    3    3    0    0 -0.45186940741E+02 -0.24076506136E+02  0.64121110548E+03  0.65530201255E+03  0.12509000000E+03 0.  0.
         25    1    3    3    0    0 -0.10626828003E+02  0.46946837868E+02  0.54422216628E+03  0.56048390649E+03  0.12509000000E+03 0.  0.
<mgrwt>
<rscale>  2 0.40937302E+03</rscale>
<asrwt>0</asrwt>
<pdfrwt beam="1">  1       21 0.25812042E+00 0.40937302E+03</pdfrwt>
<pdfrwt beam="2">  1       21 0.35102518E-02 0.40937302E+03</pdfrwt>
<totfact> 0.25600618E+04</totfact>
</mgrwt>
</event>
<event>
 6    0  0.1539497E-004  0.5629782E+03  0.7546771E-02  0.9985338E-01
         21   -1    0    0  502  501  0.00000000000E+00  0.00000000000E+00  0.18582077599E+03  0.18582077599E+03  0.00000000000E+00 0. -1.
         21   -1    0    0  501  502 -0.00000000000E+00 -0.00000000000E+00 -0.42641154194E+03  0.42641154194E+03  0.00000000000E+00 0. -1.
      99925    2    1    2    0    0  0.96633582596E+02 -0.15644952659E+03 -0.21963756891E+03  0.38884689266E+03  0.26295767835E+03 0.  0.
         25    1    3    3    0    0  0.15376117715E+02 -0.75440560427E+02 -0.13354907779E+03  0.19852094961E+03  0.12509000000E+03 0.  0.
         25    1    3    3    0    0  0.81257464882E+02 -0.81008966161E+02 -0.86088491115E+02  0.19032594306E+03  0.12509000000E+03 0.  0.
         25    1    1    2    0    0 -0.96633582596E+02  0.15644952659E+03 -0.20953197047E+02  0.22338542527E+03  0.12509000000E+03 0.  0.
<mgrwt>
<rscale>  2 0.56297824E+03</rscale>
<asrwt>0</asrwt>
<pdfrwt beam="1">  1       21 0.27326585E-01 0.56297824E+03</pdfrwt>
<pdfrwt beam="2">  1       21 0.62707580E-01 0.56297824E+03</pdfrwt>
<totfact> 0.26706945E+04</totfact>
</mgrwt>
</event>
<event>
 6    0  0.1539497E-004  0.4146259E+03  0.7546771E-02  0.1038830E+00
         21   -1    0    0  502  501  0.00000000000E+00  0.00000000000E+00  0.18946651750E+03  0.18946651750E+03  0.00000000000E+00 0.  1.
         21   -1    0    0  501  502 -0.00000000000E+00 -0.00000000000E+00 -0.22684043094E+03  0.22684043094E+03  0.00000000000E+00 0.  1.
      99925    2    1    2    0    0 -0.26439268096E+02 -0.63403156133E+02 -0.19899075621E+02  0.27252978349E+03  0.26297816369E+03 0.  0.
         25    1    3    3    0    0  0.21113420770E+02 -0.16911830322E+02  0.76364987285E+01  0.12820924598E+03  0.12509000000E+03 0.  0.
         25    1    1    2    0    0  0.26439268096E+02  0.63403156133E+02 -0.17474837817E+02  0.14377716495E+03  0.12509000000E+03 0.  0.
         25    1    3    3    0    0 -0.47552688866E+02 -0.46491325811E+02 -0.27535574349E+02  0.14432053752E+03  0.12509000000E+03 0.  0.
<mgrwt>
<rscale>  2 0.41462593E+03</rscale>
<asrwt>0</asrwt>
<pdfrwt beam="1">  1       21 0.27862723E-01 0.41462593E+03</pdfrwt>
<pdfrwt beam="2">  1       21 0.33358887E-01 0.41462593E+03</pdfrwt>
<totfact> 0.10001918E+05</totfact>
</mgrwt>
</event>
<event>
 6    0  0.1539497E-004  0.4574033E+03  0.7546771E-02  0.1025537E+00
         21   -1    0    0  502  501  0.00000000000E+00  0.00000000000E+00  0.12798838113E+03  0.12798838113E+03  0.00000000000E+00 0.  1.
         21   -1    0    0  501  502 -0.00000000000E+00 -0.00000000000E+00 -0.40866558060E+03  0.40866558060E+03  0.00000000000E+00 0.  1.
      99925    2    1    2    0    0 -0.93517372332E+02  0.60736835282E+02 -0.21125388276E+03  0.35526607049E+03  0.26296637764E+03 0.  0.
         25    1    3    3    0    0 -0.24618747719E+02  0.25370387707E+02 -0.56497096610E+02  0.14173626684E+03  0.12509000000E+03 0.  0.
         25    1    1    2    0    0  0.93517372332E+02 -0.60736835282E+02 -0.69423316702E+02  0.18138789124E+03  0.12509000000E+03 0.  0.
         25    1    3    3    0    0 -0.68898624613E+02  0.35366447575E+02 -0.15475678615E+03  0.21352980365E+03  0.12509000000E+03 0.  0.
<mgrwt>
<rscale>  2 0.45740331E+03</rscale>
<asrwt>0</asrwt>
<pdfrwt beam="1">  1       21 0.18821821E-01 0.45740331E+03</pdfrwt>
<pdfrwt beam="2">  1       21 0.60097880E-01 0.45740331E+03</pdfrwt>
<totfact> 0.61577052E+04</totfact>
</mgrwt>
</event>
<event>
 6    0  0.1539497E-004  0.4300613E+03  0.7546771E-02  0.1033841E+00
         21   -1    0    0  502  501  0.00000000000E+00  0.00000000000E+00  0.85471557186E+03  0.85471557186E+03  0.00000000000E+00 0. -1.
         21   -1    0    0  501  502 -0.00000000000E+00 -0.00000000000E+00 -0.54097733391E+02  0.54097733391E+02  0.00000000000E+00 0. -1.
      99925    2    1    2    0    0  0.19310817160E+02  0.26481641926E+02  0.68798840436E+03  0.73732837138E+03  0.26315565295E+03 0.  0.
         25    1    3    3    0    0 -0.49455723980E+01  0.47839031897E+02  0.30530537230E+03  0.33342451937E+03  0.12509000000E+03 0.  0.
         25    1    3    3    0    0  0.24256389558E+02 -0.21357389970E+02  0.38268303206E+03  0.40390385201E+03  0.12509000000E+03 0.  0.
         25    1    1    2    0    0 -0.19310817160E+02 -0.26481641926E+02  0.11262943410E+03  0.17148493387E+03  0.12509000000E+03 0.  0.
<mgrwt>
<rscale>  2 0.43006128E+03</rscale>
<asrwt>0</asrwt>
<pdfrwt beam="1">  1       21 0.12569346E+00 0.43006128E+03</pdfrwt>
<pdfrwt beam="2">  1       21 0.79555496E-02 0.43006128E+03</pdfrwt>
<totfact> 0.52345895E+04</totfact>
</mgrwt>
</event>
<event>
 6    0  0.1539497E-004  0.4042321E+03  0.7546771E-02  0.1042324E+00
         21   -1    0    0  502  501  0.00000000000E+00  0.00000000000E+00  0.12838261189E+03  0.12838261189E+03  0.00000000000E+00 0. -1.
         21   -1    0    0  501  502 -0.00000000000E+00 -0.00000000000E+00 -0.31819657141E+03  0.31819657141E+03  0.00000000000E+00 0. -1.
      99925    2    1    2    0    0 -0.65726673316E+01  0.24582403799E+02 -0.74735427017E+02  0.27471274889E+03  0.26312395524E+03 0.  0.
         25    1    3    3    0    0 -0.40300601079E+02 -0.47240687575E+01 -0.38616248881E+02  0.13705903126E+03  0.12509000000E+03 0.  0.
         25    1    1    2    0    0  0.65726673316E+01 -0.24582403799E+02 -0.11507853250E+03  0.17186643441E+03  0.12509000000E+03 0.  0.
         25    1    3    3    0    0  0.33727933748E+02  0.29306472556E+02 -0.36119178137E+02  0.13765371763E+03  0.12509000000E+03 0.  0.
<mgrwt>
<rscale>  2 0.40423215E+03</rscale>
<asrwt>0</asrwt>
<pdfrwt beam="1">  1       21 0.18879796E-01 0.40423215E+03</pdfrwt>
<pdfrwt beam="2">  1       21 0.46793613E-01 0.40423215E+03</pdfrwt>
<totfact> 0.10586227E+05</totfact>
</mgrwt>
</event>
<event>
 6    0  0.1539497E-004  0.4327944E+03  0.7546771E-02  0.1032981E+00
         21   -1    0    0  502  501  0.00000000000E+00  0.00000000000E+00  0.10562597349E+03  0.10562597349E+03  0.00000000000E+00 0.  1.
         21   -1    0    0  501  502 -0.00000000000E+00 -0.00000000000E+00 -0.44333551284E+03  0.44333551284E+03  0.00000000000E+00 0.  1.
      99925    2    1    2    0    0 -0.29238767853E+02  0.29023221093E+02 -0.31971030019E+03  0.41603769757E+03  0.26301223706E+03 0.  0.
         25    1    3    3    0    0 -0.51855626399E+01  0.53681440958E+02 -0.17278950600E+03  0.22002797242E+03  0.12509000000E+03 0.  0.
         25    1    1    2    0    0  0.29238767853E+02 -0.29023221093E+02 -0.17999239170E+02  0.13292378876E+03  0.12509000000E+03 0.  0.
         25    1    3    3    0    0 -0.24053205213E+02 -0.24658219865E+02 -0.14692079419E+03  0.19600972515E+03  0.12509000000E+03 0.  0.
<mgrwt>
<rscale>  2 0.43279439E+03</rscale>
<asrwt>0</asrwt>
<pdfrwt beam="1">  1       21 0.15533231E-01 0.43279439E+03</pdfrwt>
<pdfrwt beam="2">  1       21 0.65196400E-01 0.43279439E+03</pdfrwt>
<totfact> 0.74124738E+04</totfact>
</mgrwt>
</event>
<event>
 6    0  0.1539497E-004  0.4309211E+03  0.7546771E-02  0.1033569E+00
         21   -1    0    0  502  501  0.00000000000E+00  0.00000000000E+00  0.21331159466E+03  0.21331159466E+03  0.00000000000E+00 0. -1.
         21   -1    0    0  501  502 -0.00000000000E+00 -0.00000000000E+00 -0.21763110417E+03  0.21763110417E+03  0.00000000000E+00 0. -1.
      99925    2    1    2    0    0 -0.56813702461E+02 -0.49938763388E+02 -0.47454557212E+02  0.27852938800E+03  0.26382761058E+03 0.  0.
         25    1    3    3    0    0 -0.76567834683E+00  0.39072532845E+01 -0.38699110011E+02  0.13099993171E+03  0.12509000000E+03 0.  0.
         25    1    3    3    0    0 -0.56048024114E+02 -0.53846016673E+02 -0.87554472007E+01  0.14752945629E+03  0.12509000000E+03 0.  0.
         25    1    1    2    0    0  0.56813702461E+02  0.49938763388E+02  0.43135047698E+02  0.15241331082E+03  0.12509000000E+03 0.  0.
<mgrwt>
<rscale>  2 0.43092105E+03</rscale>
<asrwt>0</asrwt>
<pdfrwt beam="1">  1       21 0.31369352E-01 0.43092105E+03</pdfrwt>
<pdfrwt beam="2">  1       21 0.32004574E-01 0.43092105E+03</pdfrwt>
<totfact> 0.85656753E+04</totfact>
</mgrwt>
</event>
<event>
 6    0  0.1539497E-004  0.4405509E+03  0.7546771E-02  0.1030578E+00
         21   -1    0    0  502  501  0.00000000000E+00  0.00000000000E+00  0.46917514657E+03  0.46917514657E+03  0.00000000000E+00 0.  1.
         21   -1    0    0  501  502 -0.00000000000E+00 -0.00000000000E+00 -0.10341825991E+03  0.10341825991E+03  0.00000000000E+00 0.  1.
      99925    2    1    2    0    0 -0.77041949929E+02  0.12900743213E+02  0.15415637477E+03  0.31467059641E+03  0.26296673770E+03 0.  0.
         25    1    3    3    0    0 -0.39530106274E+01 -0.17071930963E+02  0.74456790081E+02  0.14662332287E+03  0.12509000000E+03 0.  0.
         25    1    3    3    0    0 -0.73088939302E+02  0.29972674176E+02  0.79699584691E+02  0.16804727354E+03  0.12509000000E+03 0.  0.
         25    1    1    2    0    0  0.77041949929E+02 -0.12900743213E+02  0.21160051189E+03  0.25792281007E+03  0.12509000000E+03 0.  0.
<mgrwt>
<rscale>  2 0.44055092E+03</rscale>
<asrwt>0</asrwt>
<pdfrwt beam="1">  1       21 0.68996344E-01 0.44055092E+03</pdfrwt>
<pdfrwt beam="2">  1       21 0.15208568E-01 0.44055092E+03</pdfrwt>
<totfact> 0.67820326E+04</totfact>
</mgrwt>
</event>
<event>
 5    0  0.1539497E-004  0.4100387E+03  0.7546771E-02  0.1040358E+00
         21   -1    0    0  502  501  0.00000000000E+00  0.00000000000E+00  0.15012959702E+03  0.15012959702E+03  0.00000000000E+00 0.  1.
         21   -1    0    0  501  502 -0.00000000000E+00 -0.00000000000E+00 -0.27997761985E+03  0.27997761985E+03  0.00000000000E+00 0.  1.
         25    1    1    2    0    0 -0.27452101902E+02  0.73479586109E+01 -0.80866796214E+02  0.15163956352E+03  0.12509000000E+03 0.  0.
         25    1    1    2    0    0 -0.22171244573E+02  0.91367864928E+01  0.15551557086E+02  0.12831369366E+03  0.12509000000E+03 0.  0.
         25    1    1    2    0    0  0.49623346474E+02 -0.16484745104E+02 -0.64532783710E+02  0.15015395969E+03  0.12509000000E+03 0.  0.
<mgrwt>
<rscale>  2 0.41003867E+03</rscale>
<asrwt>0</asrwt>
<pdfrwt beam="1">  1       21 0.22077882E-01 0.41003867E+03</pdfrwt>
<pdfrwt beam="2">  1       21 0.41173180E-01 0.41003867E+03</pdfrwt>
<totfact> 0.10247876E+05</totfact>
</mgrwt>
</event>
<event>
 6    0  0.1539497E-004  0.4271504E+03  0.7546771E-02  0.1034764E+00
         21   -1    0    0  502  501  0.00000000000E+00  0.00000000000E+00  0.50272072189E+03  0.50272072189E+03  0.00000000000E+00 0.  1.
         21   -1    0    0  501  502 -0.00000000000E+00 -0.00000000000E+00 -0.90735000461E+02  0.90735000461E+02  0.00000000000E+00 0.  1.
      99925    2    1    2    0    0  0.49896194306E+02 -0.67936117378E+02  0.26196731842E+03  0.38071650267E+03  0.26308408016E+03 0.  0.
         25    1    1    2    0    0 -0.49896194306E+02  0.67936117378E+02  0.15001840301E+03  0.21273921968E+03  0.12509000000E+03 0.  0.
         25    1    3    3    0    0  0.65415171212E+01  0.35970246156E+00  0.14276453742E+03  0.18992667553E+03  0.12509000000E+03 0.  0.
         25    1    3    3    0    0  0.43354677185E+02 -0.68295819840E+02  0.11920278100E+03  0.19078982714E+03  0.12509000000E+03 0.  0.
<mgrwt>
<rscale>  2 0.42715039E+03</rscale>
<asrwt>0</asrwt>
<pdfrwt beam="1">  1       21 0.73929517E-01 0.42715039E+03</pdfrwt>
<pdfrwt beam="2">  1       21 0.13343383E-01 0.42715039E+03</pdfrwt>
<totfact> 0.74090113E+04</totfact>
</mgrwt>
</event>
<event>
 6    0  0.1539497E-004  0.4753361E+03  0.7546771E-02  0.1020425E+00
         21   -1    0    0  502  501  0.00000000000E+00  0.00000000000E+00  0.13113337305E+04  0.13113337305E+04  0.00000000000E+00 0.  1.
         21   -1    0    0  501  502 -0.00000000000E+00 -0.00000000000E+00 -0.43075308385E+02  0.43075308385E+02  0.00000000000E+00 0.  1.
      99925    2    1    2    0    0 -0.95467114786E+02 -0.68642821417E+02  0.95108192862E+03  0.99375096943E+03  0.26297974705E+03 0.  0.
         25    1    3    3    0    0 -0.32874118298E+02 -0.41514311294E+02  0.59308437425E+03  0.60844122870E+03  0.12509000000E+03 0.  0.
         25    1    1    2    0    0  0.95467114786E+02  0.68642821417E+02  0.31717649350E+03  0.36065806946E+03  0.12509000000E+03 0.  0.
         25    1    3    3    0    0 -0.62592996488E+02 -0.27128510124E+02  0.35799755437E+03  0.38530974073E+03  0.12509000000E+03 0.  0.
<mgrwt>
<rscale>  2 0.47533611E+03</rscale>
<asrwt>0</asrwt>
<pdfrwt beam="1">  1       21 0.19284317E+00 0.47533611E+03</pdfrwt>
<pdfrwt beam="2">  1       21 0.63346050E-02 0.47533611E+03</pdfrwt>
<totfact> 0.23612748E+04</totfact>
</mgrwt>
</event>
<event>
 6    0  0.1539497E-004  0.4278838E+03  0.7546771E-02  0.1034531E+00
         21   -1    0    0  502  501  0.00000000000E+00  0.00000000000E+00  0.39588559735E+03  0.39588559735E+03  0.00000000000E+00 0.  1.
         21   -1    0    0  501  502 -0.00000000000E+00 -0.00000000000E+00 -0.11561708923E+03  0.11561708923E+03  0.00000000000E+00 0.  1.
      99925    2    1    2    0    0 -0.68730513023E+02 -0.23188410789E+02  0.12700688145E+03  0.30079383502E+03  0.26283948987E+03 0.  0.
         25    1    3    3    0    0 -0.20365232431E+02  0.16317741768E+02  0.31915052696E+02  0.13170835234E+03  0.12509000000E+03 0.  0.
         25    1    1    2    0    0  0.68730513023E+02  0.23188410789E+02  0.15326162667E+03  0.21070885156E+03  0.12509000000E+03 0.  0.
         25    1    3    3    0    0 -0.48365280592E+02 -0.39506152558E+02  0.95091828751E+02  0.16908548268E+03  0.12509000000E+03 0.  0.
<mgrwt>
<rscale>  2 0.42788382E+03</rscale>
<asrwt>0</asrwt>
<pdfrwt beam="1">  1       21 0.58218470E-01 0.42788382E+03</pdfrwt>
<pdfrwt beam="2">  1       21 0.17002513E-01 0.42788382E+03</pdfrwt>
<totfact> 0.80410651E+04</totfact>
</mgrwt>
</event>
<event>
 6    0  0.1539497E-004  0.4226519E+03  0.7546771E-02  0.1036207E+00
         21   -1    0    0  502  501  0.00000000000E+00  0.00000000000E+00  0.33593609622E+03  0.33593609622E+03  0.00000000000E+00 0.  1.
         21   -1    0    0  501  502 -0.00000000000E+00 -0.00000000000E+00 -0.13293797809E+03  0.13293797809E+03  0.00000000000E+00 0.  1.
      99925    2    1    2    0    0  0.44026232185E+02  0.63966786515E+02  0.14515575271E+03  0.31068650769E+03  0.26348786427E+03 0.  0.
         25    1    3    3    0    0  0.26546885366E+02  0.50284377896E+00  0.38300020925E+02  0.13348928675E+03  0.12509000000E+03 0.  0.
         25    1    3    3    0    0  0.17479346819E+02  0.63463942736E+02  0.10685573178E+03  0.17719722093E+03  0.12509000000E+03 0.  0.
         25    1    1    2    0    0 -0.44026232185E+02 -0.63966786515E+02  0.57842365424E+02  0.15818756663E+03  0.12509000000E+03 0.  0.
<mgrwt>
<rscale>  2 0.42265194E+03</rscale>
<asrwt>0</asrwt>
<pdfrwt beam="1">  1       21 0.49402367E-01 0.42265194E+03</pdfrwt>
<pdfrwt beam="2">  1       21 0.19549703E-01 0.42265194E+03</pdfrwt>
<totfact> 0.88047016E+04</totfact>
</mgrwt>
</event>
<event>
 6    0  0.1539497E-004  0.4077930E+03  0.7546771E-02  0.1041114E+00
         21   -1    0    0  502  501  0.00000000000E+00  0.00000000000E+00  0.27131599280E+04  0.27131599280E+04  0.00000000000E+00 0. -1.
         21   -1    0    0  501  502 -0.00000000000E+00 -0.00000000000E+00 -0.15323012868E+02  0.15323012868E+02  0.00000000000E+00 0. -1.
      99925    2    1    2    0    0  0.52136767420E+02  0.12963586301E+02  0.19435163137E+04  0.19619756840E+04  0.26307152192E+03 0.  0.
         25    1    3    3    0    0  0.58294273232E+02  0.32245937074E+02  0.10052331183E+04  0.10151744446E+04  0.12509000000E+03 0.  0.
         25    1    1    2    0    0 -0.52136767420E+02 -0.12963586301E+02  0.75432060139E+03  0.76650725689E+03  0.12509000000E+03 0.  0.
         25    1    3    3    0    0 -0.61575058120E+01 -0.19282350773E+02  0.93828319543E+03  0.94680123936E+03  0.12509000000E+03 0.  0.
<mgrwt>
<rscale>  2 0.40779301E+03</rscale>
<asrwt>0</asrwt>
<pdfrwt beam="1">  1       21 0.39899377E+00 0.40779301E+03</pdfrwt>
<pdfrwt beam="2">  1       21 0.22533861E-02 0.40779301E+03</pdfrwt>
<totfact> 0.74470855E+03</totfact>
</mgrwt>
</event>
<event>
 6    0  0.1539497E-004  0.4041853E+03  0.7546771E-02  0.1042340E+00
         21   -1    0    0  502  501  0.00000000000E+00  0.00000000000E+00  0.32905563301E+03  0.32905563301E+03  0.00000000000E+00 0. -1.
         21   -1    0    0  501  502 -0.00000000000E+00 -0.00000000000E+00 -0.12411713436E+03  0.12411713436E+03  0.00000000000E+00 0. -1.
      99925    2    1    2    0    0  0.52342597033E+02  0.31752448076E+01  0.12442593850E+03  0.29544005015E+03  0.26277971652E+03 0.  0.
         25    1    1    2    0    0 -0.52342597033E+02 -0.31752448076E+01  0.80512560152E+02  0.15773271723E+03  0.12509000000E+03 0.  0.
         25    1    3    3    0    0 -0.94240126649E+01  0.18375378824E+02  0.47379811296E+02  0.13534703979E+03  0.12509000000E+03 0.  0.
         25    1    3    3    0    0  0.61766609698E+02 -0.15200134016E+02  0.77046127202E+02  0.16009301035E+03  0.12509000000E+03 0.  0.
<mgrwt>
<rscale>  2 0.40418532E+03</rscale>
<asrwt>0</asrwt>
<pdfrwt beam="1">  1       21 0.48390534E-01 0.40418532E+03</pdfrwt>
<pdfrwt beam="2">  1       21 0.18252520E-01 0.40418532E+03</pdfrwt>
<totfact> 0.10512489E+05</totfact>
</mgrwt>
</event>
<event>
 6    0  0.1848869E-004  0.4209854E+03  0.7546771E-02  0.1036746E+00
         21   -1    0    0  502  501  0.00000000000E+00  0.00000000000E+00  0.61149827233E+02  0.61149827233E+02  0.00000000000E+00 0. -1.
         21   -1    0    0  501  502 -0.00000000000E+00 -0.00000000000E+00 -0.72456761984E+03  0.72456761984E+03  0.00000000000E+00 0. -1.
      99925    2    1    2    0    0 -0.88764098545E+01 -0.71375216712E+02 -0.37885385376E+03  0.46666046845E+03  0.26280893839E+03 0.  0.
         25    1    1    2    0    0  0.88764098545E+01  0.71375216712E+02 -0.28456393886E+03  0.31905697863E+03  0.12509000000E+03 0.  0.
         25    1    3    3    0    0  0.80388852433E+01 -0.65952977678E+02 -0.15777510263E+03  0.21202572969E+03  0.12509000000E+03 0.  0.
         25    1    3    3    0    0 -0.16915295098E+02 -0.54222390339E+01 -0.22107875113E+03  0.25463473876E+03  0.12509000000E+03 0.  0.
<mgrwt>
<rscale>  2 0.42098544E+03</rscale>
<asrwt>0</asrwt>
<pdfrwt beam="1">  1       21 0.89926225E-02 0.42098544E+03</pdfrwt>
<pdfrwt beam="2">  1       21 0.10655405E+00 0.42098544E+03</pdfrwt>
<totfact> 0.63888298E+04</totfact>
</mgrwt>
</event>
<event>
 6    0  0.1539497E-004  0.4503512E+03  0.7546771E-02  0.1027617E+00
         21   -1    0    0  502  501  0.00000000000E+00  0.00000000000E+00  0.18615932713E+03  0.18615932713E+03  0.00000000000E+00 0. -1.
         21   -1    0    0  501  502 -0.00000000000E+00 -0.00000000000E+00 -0.27236914895E+03  0.27236914895E+03  0.00000000000E+00 0. -1.
      99925    2    1    2    0    0 -0.30062872859E+02 -0.97650041606E+02 -0.17277853593E+02  0.28291973116E+03  0.26325983952E+03 0.  0.
         25    1    3    3    0    0  0.25542361231E+02 -0.51197932187E+02 -0.21436818665E+01  0.13757086883E+03  0.12509000000E+03 0.  0.
         25    1    3    3    0    0 -0.55605234089E+02 -0.46452109418E+02 -0.15134171727E+02  0.14534886233E+03  0.12509000000E+03 0.  0.
         25    1    1    2    0    0  0.30062872859E+02  0.97650041606E+02 -0.68931968228E+02  0.17560874492E+03  0.12509000000E+03 0.  0.
<mgrwt>
<rscale>  2 0.45035123E+03</rscale>
<asrwt>0</asrwt>
<pdfrwt beam="1">  1       21 0.27376372E-01 0.45035123E+03</pdfrwt>
<pdfrwt beam="2">  1       21 0.40054286E-01 0.45035123E+03</pdfrwt>
<totfact> 0.70876502E+04</totfact>
</mgrwt>
</event>
<event>
 6    0  0.1539497E-004  0.4383321E+03  0.7546771E-02  0.1031260E+00
         21   -1    0    0  502  501  0.00000000000E+00  0.00000000000E+00  0.85020339502E+03  0.85020339502E+03  0.00000000000E+00 0. -1.
         21   -1    0    0  501  502 -0.00000000000E+00 -0.00000000000E+00 -0.56496789881E+02  0.56496789881E+02  0.00000000000E+00 0. -1.
      99925    2    1    2    0    0 -0.31901425929E+02 -0.88361638657E+02  0.55434576615E+03  0.62075158899E+03  0.26307380452E+03 0.  0.
         25    1    1    2    0    0  0.31901425929E+02  0.88361638657E+02  0.23936083899E+03  0.28594859591E+03  0.12509000000E+03 0.  0.
         25    1    3    3    0    0 -0.48621262628E+02 -0.70234088620E+02  0.28496183067E+03  0.32271908438E+03  0.12509000000E+03 0.  0.
         25    1    3    3    0    0  0.16719836699E+02 -0.18127550037E+02  0.26938393548E+03  0.29803250461E+03  0.12509000000E+03 0.  0.
<mgrwt>
<rscale>  2 0.43833212E+03</rscale>
<asrwt>0</asrwt>
<pdfrwt beam="1">  1       21 0.12502990E+00 0.43833212E+03</pdfrwt>
<pdfrwt beam="2">  1       21 0.83083520E-02 0.43833212E+03</pdfrwt>
<totfact> 0.49034387E+04</totfact>
</mgrwt>
</event>
<event>
 6    0  0.1539497E-004  0.4038726E+03  0.7546771E-02  0.1042447E+00
         21   -1    0    0  502  501  0.00000000000E+00  0.00000000000E+00  0.21763103497E+03  0.21763103497E+03  0.00000000000E+00 0.  1.
         21   -1    0    0  501  502 -0.00000000000E+00 -0.00000000000E+00 -0.18737342051E+03  0.18737342051E+03  0.00000000000E+00 0.  1.
      99925    2    1    2    0    0 -0.16628380132E+02 -0.26186213547E+02  0.62526860726E+02  0.27214726463E+03  0.26304430145E+03 0.  0.
         25    1    3    3    0    0  0.12469854154E+02  0.17526153106E+01  0.63196329895E+02  0.14071195093E+03  0.12509000000E+03 0.  0.
         25    1    3    3    0    0 -0.29098234286E+02 -0.27938828858E+02 -0.66946916894E+00  0.13143531369E+03  0.12509000000E+03 0.  0.
         25    1    1    2    0    0  0.16628380132E+02  0.26186213547E+02 -0.32269246272E+02  0.13285719085E+03  0.12509000000E+03 0.  0.
<mgrwt>
<rscale>  2 0.40387261E+03</rscale>
<asrwt>0</asrwt>
<pdfrwt beam="1">  1       21 0.32004564E-01 0.40387261E+03</pdfrwt>
<pdfrwt beam="2">  1       21 0.27554915E-01 0.40387261E+03</pdfrwt>
<totfact> 0.11131272E+05</totfact>
</mgrwt>
</event>
<event>
 6    0  0.2611988E-004  0.4022720E+03  0.7546771E-02  0.1042996E+00
         21   -1    0    0  502  501  0.00000000000E+00  0.00000000000E+00  0.29509557005E+03  0.29509557005E+03  0.00000000000E+00 0. -1.
         21   -1    0    0  501  502 -0.00000000000E+00 -0.00000000000E+00 -0.13709352777E+03  0.13709352777E+03  0.00000000000E+00 0. -1.
      99925    2    1    2    0    0  0.13885963139E+02 -0.46548822771E+02  0.11078022664E+03  0.28993221453E+03  0.26349348670E+03 0.  0.
         25    1    3    3    0    0 -0.32128341421E+02 -0.35183978759E+02  0.62361867209E+02  0.14767075968E+03  0.12509000000E+03 0.  0.
         25    1    3    3    0    0  0.46014304559E+02 -0.11364844011E+02  0.48418359436E+02  0.14226145484E+03  0.12509000000E+03 0.  0.
         25    1    1    2    0    0 -0.13885963139E+02  0.46548822771E+02  0.47221815627E+02  0.14225688329E+03  0.12509000000E+03 0.  0.
<mgrwt>
<rscale>  2 0.40227201E+03</rscale>
<asrwt>0</asrwt>
<pdfrwt beam="1">  1       21 0.43396407E-01 0.40227201E+03</pdfrwt>
<pdfrwt beam="2">  1       21 0.20160813E-01 0.40227201E+03</pdfrwt>
<totfact> 0.10947342E+05</totfact>
</mgrwt>
</event>
<event>
 6    0  0.1539497E-004  0.4248505E+03  0.7546771E-02  0.1035499E+00
         21   -1    0    0  502  501  0.00000000000E+00  0.00000000000E+00  0.26346737183E+03  0.26346737183E+03  0.00000000000E+00 0.  1.
         21   -1    0    0  501  502 -0.00000000000E+00 -0.00000000000E+00 -0.17127167253E+03  0.17127167253E+03  0.00000000000E+00 0.  1.
      99925    2    1    2    0    0 -0.41503109539E+02 -0.69694898513E+02  0.69683476963E+02  0.28396041446E+03  0.26305482896E+03 0.  0.
         25    1    3    3    0    0 -0.59563949760E+02 -0.44603839698E+02  0.25666430923E+02  0.14779594177E+03  0.12509000000E+03 0.  0.
         25    1    1    2    0    0  0.41503109539E+02  0.69694898513E+02  0.22512222337E+02  0.15077862990E+03  0.12509000000E+03 0.  0.
         25    1    3    3    0    0  0.18060840221E+02 -0.25091058815E+02  0.44017046040E+02  0.13616447269E+03  0.12509000000E+03 0.  0.
<mgrwt>
<rscale>  2 0.42485055E+03</rscale>
<asrwt>0</asrwt>
<pdfrwt beam="1">  1       21 0.38745202E-01 0.42485055E+03</pdfrwt>
<pdfrwt beam="2">  1       21 0.25187010E-01 0.42485055E+03</pdfrwt>
<totfact> 0.89768861E+04</totfact>
</mgrwt>
</event>
<event>
 6    0  0.1539497E-004  0.4132256E+03  0.7546771E-02  0.1039294E+00
         21   -1    0    0  502  501  0.00000000000E+00  0.00000000000E+00  0.14998040606E+04  0.14998040606E+04  0.00000000000E+00 0.  1.
         21   -1    0    0  501  502 -0.00000000000E+00 -0.00000000000E+00 -0.28462949237E+02  0.28462949237E+02  0.00000000000E+00 0.  1.
      99925    2    1    2    0    0  0.62401790851E+02  0.22037831361E+02  0.93336777579E+03  0.97199147793E+03  0.26308245622E+03 0.  0.
         25    1    1    2    0    0 -0.62401790851E+02 -0.22037831361E+02  0.53797333557E+03  0.55627553190E+03  0.12509000000E+03 0.  0.
         25    1    3    3    0    0  0.57741244051E+02  0.93470429904E+01  0.59961800130E+03  0.61531347626E+03  0.12509000000E+03 0.  0.
         25    1    3    3    0    0  0.46605467994E+01  0.12690788371E+02  0.33374977449E+03  0.35667800167E+03  0.12509000000E+03 0.  0.
<mgrwt>
<rscale>  2 0.41322559E+03</rscale>
<asrwt>0</asrwt>
<pdfrwt beam="1">  1       21 0.22055937E+00 0.41322559E+03</pdfrwt>
<pdfrwt beam="2">  1       21 0.41857288E-02 0.41322559E+03</pdfrwt>
<totfact> 0.32400742E+04</totfact>
</mgrwt>
</event>
<event>
 6    0  0.1539497E-004  0.4253863E+03  0.7546771E-02  0.1035327E+00
         21   -1    0    0  502  501  0.00000000000E+00  0.00000000000E+00  0.17813866484E+03  0.17813866484E+03  0.00000000000E+00 0. -1.
         21   -1    0    0  501  502 -0.00000000000E+00 -0.00000000000E+00 -0.25395028987E+03  0.25395028987E+03  0.00000000000E+00 0. -1.
      99925    2    1    2    0    0 -0.35343583116E+01  0.81872638419E+02 -0.42643827893E+02  0.27891183018E+03  0.26316856261E+03 0.  0.
         25    1    1    2    0    0  0.35343583116E+01 -0.81872638419E+02 -0.33167797142E+02  0.15317712452E+03  0.12509000000E+03 0.  0.
         25    1    3    3    0    0  0.93236018932E+01  0.13610163828E+02 -0.49811851853E+02  0.13564989789E+03  0.12509000000E+03 0.  0.
         25    1    3    3    0    0 -0.12857960205E+02  0.68262474591E+02  0.71680239602E+01  0.14326193230E+03  0.12509000000E+03 0.  0.
<mgrwt>
<rscale>  2 0.42538625E+03</rscale>
<asrwt>0</asrwt>
<pdfrwt beam="1">  1       21 0.26196863E-01 0.42538625E+03</pdfrwt>
<pdfrwt beam="2">  1       21 0.37345630E-01 0.42538625E+03</pdfrwt>
<totfact> 0.89627772E+04</totfact>
</mgrwt>
</event>
<event>
 6    0  0.1539497E-004  0.4046936E+03  0.7546771E-02  0.1042166E+00
         21   -1    0    0  502  501  0.00000000000E+00  0.00000000000E+00  0.41438067279E+02  0.41438067279E+02  0.00000000000E+00 0.  1.
         21   -1    0    0  501  502 -0.00000000000E+00 -0.00000000000E+00 -0.98808266458E+03  0.98808266458E+03  0.00000000000E+00 0.  1.
      99925    2    1    2    0    0  0.19439651272E+02  0.42337087162E+02 -0.69721665363E+03  0.74662121582E+03  0.26298640425E+03 0.  0.
         25    1    3    3    0    0  0.12287116813E+01  0.61174141438E+02 -0.36852422619E+03  0.39395608728E+03  0.12509000000E+03 0.  0.
         25    1    1    2    0    0 -0.19439651272E+02 -0.42337087162E+02 -0.24942794367E+03  0.28289951604E+03  0.12509000000E+03 0.  0.
         25    1    3    3    0    0  0.18210939590E+02 -0.18837054276E+02 -0.32869242744E+03  0.35266512854E+03  0.12509000000E+03 0.  0.
<mgrwt>
<rscale>  2 0.40469364E+03</rscale>
<asrwt>0</asrwt>
<pdfrwt beam="1">  1       21 0.60938337E-02 0.40469364E+03</pdfrwt>
<pdfrwt beam="2">  1       21 0.14530627E+00 0.40469364E+03</pdfrwt>
<totfact> 0.57522962E+04</totfact>
</mgrwt>
</event>
<event>
 6    0  0.1539497E-004  0.4137618E+03  0.7546771E-02  0.1039116E+00
         21   -1    0    0  502  501  0.00000000000E+00  0.00000000000E+00  0.12010114636E+03  0.12010114636E+03  0.00000000000E+00 0.  1.
         21   -1    0    0  501  502 -0.00000000000E+00 -0.00000000000E+00 -0.35636383509E+03  0.35636383509E+03  0.00000000000E+00 0.  1.
      99925    2    1    2    0    0  0.63166061711E+02  0.44332893165E+01 -0.12890281466E+03  0.29987716740E+03  0.26325040265E+03 0.  0.
         25    1    1    2    0    0 -0.63166061711E+02 -0.44332893165E+01 -0.10735987407E+03  0.17658781404E+03  0.12509000000E+03 0.  0.
         25    1    3    3    0    0  0.46189884111E+02 -0.16844490889E+02 -0.10283444537E+03  0.16923260183E+03  0.12509000000E+03 0.  0.
         25    1    3    3    0    0  0.16976177600E+02  0.21277780205E+02 -0.26068369288E+02  0.13064456557E+03  0.12509000000E+03 0.  0.
<mgrwt>
<rscale>  2 0.41376179E+03</rscale>
<asrwt>0</asrwt>
<pdfrwt beam="1">  1       21 0.17661933E-01 0.41376179E+03</pdfrwt>
<pdfrwt beam="2">  1       21 0.52406447E-01 0.41376179E+03</pdfrwt>
<totfact> 0.94216803E+04</totfact>
</mgrwt>
</event>
<event>
 6    0  0.1539497E-004  0.4206530E+03  0.7546771E-02  0.1036854E+00
         21   -1    0    0  502  501  0.00000000000E+00  0.00000000000E+00  0.39194092477E+03  0.39194092477E+03  0.00000000000E+00 0. -1.
         21   -1    0    0  501  502 -0.00000000000E+00 -0.00000000000E+00 -0.11286710906E+03  0.11286710906E+03  0.00000000000E+00 0. -1.
      99925    2    1    2    0    0 -0.42180634446E+02  0.15477515475E+01  0.25847849207E+03  0.37119187870E+03  0.26304121064E+03 0.  0.
         25    1    3    3    0    0 -0.59933257555E+01 -0.12441698870E+02  0.77511467679E+02  0.14780477511E+03  0.12509000000E+03 0.  0.
         25    1    3    3    0    0 -0.36187308691E+02  0.13989450418E+02  0.18096702439E+03  0.22338710359E+03  0.12509000000E+03 0.  0.
         25    1    1    2    0    0  0.42180634446E+02 -0.15477515475E+01  0.20595323645E+02  0.13361615514E+03  0.12509000000E+03 0.  0.
<mgrwt>
<rscale>  2 0.42065301E+03</rscale>
<asrwt>0</asrwt>
<pdfrwt beam="1">  1       21 0.57638371E-01 0.42065301E+03</pdfrwt>
<pdfrwt beam="2">  1       21 0.16598104E-01 0.42065301E+03</pdfrwt>
<totfact> 0.86095012E+04</totfact>
</mgrwt>
</event>
<event>
 6    0  0.1539497E-004  0.4512203E+03  0.7546771E-02  0.1027359E+00
         21   -1    0    0  502  501  0.00000000000E+00  0.00000000000E+00  0.11810411677E+03  0.11810411677E+03  0.00000000000E+00 0.  1.
         21   -1    0    0  501  502 -0.00000000000E+00 -0.00000000000E+00 -0.43097523851E+03  0.43097523851E+03  0.00000000000E+00 0.  1.
      99925    2    1    2    0    0 -0.49102623442E+02  0.93794083503E+02 -0.23191966283E+03  0.36629794339E+03  0.26301911641E+03 0.  0.
         25    1    1    2    0    0  0.49102623442E+02 -0.93794083503E+02 -0.80951458910E+02  0.18278141188E+03  0.12509000000E+03 0.  0.
         25    1    3    3    0    0 -0.17850512769E+02  0.52748150377E+02 -0.16776361036E+03  0.21654825152E+03  0.12509000000E+03 0.  0.
         25    1    3    3    0    0 -0.31252110674E+02  0.41045933126E+02 -0.64156052470E+02  0.14974969187E+03  0.12509000000E+03 0.  0.
<mgrwt>
<rscale>  2 0.45122034E+03</rscale>
<asrwt>0</asrwt>
<pdfrwt beam="1">  1       21 0.17368253E-01 0.45122034E+03</pdfrwt>
<pdfrwt beam="2">  1       21 0.63378711E-01 0.45122034E+03</pdfrwt>
<totfact> 0.63814442E+04</totfact>
</mgrwt>
</event>
<event>
 6    0  0.1539497E-004  0.4040265E+03  0.7546771E-02  0.1042394E+00
         21   -1    0    0  502  501  0.00000000000E+00  0.00000000000E+00  0.17101632852E+03  0.17101632852E+03  0.00000000000E+00 0. -1.
         21   -1    0    0  501  502 -0.00000000000E+00 -0.00000000000E+00 -0.23862844333E+03  0.23862844333E+03  0.00000000000E+00 0. -1.
      99925    2    1    2    0    0 -0.16826383937E+02  0.23061595305E+02 -0.89703274976E+02  0.27945071733E+03  0.26311796119E+03 0.  0.
         25    1    3    3    0    0 -0.37960151569E+01  0.35223521190E+02 -0.80163269291E+02  0.15273756584E+03  0.12509000000E+03 0.  0.
         25    1    1    2    0    0  0.16826383937E+02 -0.23061595305E+02  0.22091160173E+02  0.13019405452E+03  0.12509000000E+03 0.  0.
         25    1    3    3    0    0 -0.13030368780E+02 -0.12161925885E+02 -0.95400056854E+01  0.12671315149E+03  0.12509000000E+03 0.  0.
<mgrwt>
<rscale>  2 0.40402654E+03</rscale>
<asrwt>0</asrwt>
<pdfrwt beam="1">  1       21 0.25149460E-01 0.40402654E+03</pdfrwt>
<pdfrwt beam="2">  1       21 0.35092418E-01 0.40402654E+03</pdfrwt>
<totfact> 0.11057040E+05</totfact>
</mgrwt>
</event>
<event>
 6    0  0.1539497E-004  0.3955522E+03  0.7546771E-02  0.1045331E+00
         21   -1    0    0  502  501  0.00000000000E+00  0.00000000000E+00  0.69358442598E+02  0.69358442598E+02  0.00000000000E+00 0.  1.
         21   -1    0    0  501  502 -0.00000000000E+00 -0.00000000000E+00 -0.56395993794E+03  0.56395993794E+03  0.00000000000E+00 0.  1.
      99925    2    1    2    0    0 -0.19170640479E+02  0.16497658029E+02 -0.37228930393E+03  0.45654885137E+03  0.26305482638E+03 0.  0.
         25    1    3    3    0    0 -0.37775387922E+02  0.15926550660E+02 -0.14069364787E+03  0.19267289794E+03  0.12509000000E+03 0.  0.
         25    1    3    3    0    0  0.18604747443E+02  0.57110736897E+00 -0.23159565606E+03  0.26387595343E+03  0.12509000000E+03 0.  0.
         25    1    1    2    0    0  0.19170640479E+02 -0.16497658029E+02 -0.12231219141E+03  0.17676952918E+03  0.12509000000E+03 0.  0.
<mgrwt>
<rscale>  2 0.39555219E+03</rscale>
<asrwt>0</asrwt>
<pdfrwt beam="1">  1       21 0.10199771E-01 0.39555219E+03</pdfrwt>
<pdfrwt beam="2">  1       21 0.82935284E-01 0.39555219E+03</pdfrwt>
<totfact> 0.93321090E+04</totfact>
</mgrwt>
</event>
<event>
 6    0  0.1539497E-004  0.4639993E+03  0.7546771E-02  0.1023628E+00
         21   -1    0    0  502  501  0.00000000000E+00  0.00000000000E+00  0.57166834999E+03  0.57166834999E+03  0.00000000000E+00 0.  1.
         21   -1    0    0  501  502 -0.00000000000E+00 -0.00000000000E+00 -0.94152220748E+02  0.94152220748E+02  0.00000000000E+00 0.  1.
      99925    2    1    2    0    0 -0.59337772356E+02 -0.47735573477E+02  0.43387736946E+03  0.51300857625E+03  0.26292312827E+03 0.  0.
         25    1    3    3    0    0  0.39472478010E+00  0.12835608387E+01  0.22727090792E+03  0.25942508942E+03  0.12509000000E+03 0.  0.
         25    1    1    2    0    0  0.59337772356E+02  0.47735573477E+02  0.43638759786E+02  0.15281199449E+03  0.12509000000E+03 0.  0.
         25    1    3    3    0    0 -0.59732497136E+02 -0.49019134316E+02  0.20660646154E+03  0.25358348683E+03  0.12509000000E+03 0.  0.
<mgrwt>
<rscale>  2 0.46399933E+03</rscale>
<asrwt>0</asrwt>
<pdfrwt beam="1">  1       21 0.84068874E-01 0.46399933E+03</pdfrwt>
<pdfrwt beam="2">  1       21 0.13845915E-01 0.46399933E+03</pdfrwt>
<totfact> 0.51076256E+04</totfact>
</mgrwt>
</event>
<event>
 6    0  0.1539497E-004  0.3997413E+03  0.7546771E-02  0.1043869E+00
         21   -1    0    0  502  501  0.00000000000E+00  0.00000000000E+00  0.26818645906E+03  0.26818645906E+03  0.00000000000E+00 0. -1.
         21   -1    0    0  501  502 -0.00000000000E+00 -0.00000000000E+00 -0.14895706638E+03  0.14895706638E+03  0.00000000000E+00 0. -1.
      99925    2    1    2    0    0 -0.27998202453E+02 -0.34630397943E+02  0.85530984113E+02  0.28015354537E+03  0.26303478085E+03 0.  0.
         25    1    3    3    0    0 -0.44795691232E+01  0.12657937249E+02  0.13728752804E+02  0.12655542923E+03  0.12509000000E+03 0.  0.
         25    1    3    3    0    0 -0.23518633329E+02 -0.47288335192E+02  0.71802231309E+02  0.15359811613E+03  0.12509000000E+03 0.  0.
         25    1    1    2    0    0  0.27998202453E+02  0.34630397943E+02  0.33698408564E+02  0.13698998008E+03  0.12509000000E+03 0.  0.
<mgrwt>
<rscale>  2 0.39974126E+03</rscale>
<asrwt>0</asrwt>
<pdfrwt beam="1">  1       21 0.39439185E-01 0.39974126E+03</pdfrwt>
<pdfrwt beam="2">  1       21 0.21905451E-01 0.39974126E+03</pdfrwt>
<totfact> 0.11389849E+05</totfact>
</mgrwt>
</event>
<event>
 6    0  0.1539497E-004  0.3975568E+03  0.7546771E-02  0.1044629E+00
         21   -1    0    0  502  501  0.00000000000E+00  0.00000000000E+00  0.82673234551E+03  0.82673234551E+03  0.00000000000E+00 0.  1.
         21   -1    0    0  501  502 -0.00000000000E+00 -0.00000000000E+00 -0.47794003358E+02  0.47794003358E+02  0.00000000000E+00 0.  1.
      99925    2    1    2    0    0 -0.20101173379E+02 -0.33791575525E+02  0.54354515455E+03  0.60507618906E+03  0.26292571535E+03 0.  0.
         25    1    3    3    0    0  0.17121506674E+02 -0.39843521399E+02  0.22970855074E+03  0.26513049347E+03  0.12509000000E+03 0.  0.
         25    1    1    2    0    0  0.20101173379E+02  0.33791575525E+02  0.23539318760E+03  0.26945015980E+03  0.12509000000E+03 0.  0.
         25    1    3    3    0    0 -0.37222680053E+02  0.60519458744E+01  0.31383660381E+03  0.33994569559E+03  0.12509000000E+03 0.  0.
<mgrwt>
<rscale>  2 0.39755678E+03</rscale>
<asrwt>0</asrwt>
<pdfrwt beam="1">  1       21 0.12157828E+00 0.39755678E+03</pdfrwt>
<pdfrwt beam="2">  1       21 0.70285304E-02 0.39755678E+03</pdfrwt>
<totfact> 0.71484114E+04</totfact>
</mgrwt>
</event>
<event>
 6    0  0.1539497E-004  0.4491004E+03  0.7546771E-02  0.1027991E+00
         21   -1    0    0  502  501  0.00000000000E+00  0.00000000000E+00  0.47175569042E+03  0.47175569042E+03  0.00000000000E+00 0.  1.
         21   -1    0    0  501  502 -0.00000000000E+00 -0.00000000000E+00 -0.10688329653E+03  0.10688329653E+03  0.00000000000E+00 0.  1.
      99925    2    1    2    0    0 -0.41854813268E+02 -0.96045156372E+02  0.19981564128E+03  0.34654474501E+03  0.26304081876E+03 0.  0.
         25    1    1    2    0    0  0.41854813268E+02  0.96045156372E+02  0.16505675261E+03  0.23209424193E+03  0.12509000000E+03 0.  0.
         25    1    3    3    0    0 -0.31844669584E+02 -0.80597304757E+02  0.13957003389E+03  0.20648804076E+03  0.12509000000E+03 0.  0.
         25    1    3    3    0    0 -0.10010143684E+02 -0.15447851616E+02  0.60245607386E+02  0.14005670425E+03  0.12509000000E+03 0.  0.
<mgrwt>
<rscale>  2 0.44910045E+03</rscale>
<asrwt>0</asrwt>
<pdfrwt beam="1">  1       21 0.69375836E-01 0.44910045E+03</pdfrwt>
<pdfrwt beam="2">  1       21 0.15718132E-01 0.44910045E+03</pdfrwt>
<totfact> 0.62895309E+04</totfact>
</mgrwt>
</event>
<event>
 6    0  0.1539497E-004  0.5030134E+03  0.7546771E-02  0.1012995E+00
         21   -1    0    0  502  501  0.00000000000E+00  0.00000000000E+00  0.16448314113E+03  0.16448314113E+03  0.00000000000E+00 0. -1.
         21   -1    0    0  501  502 -0.00000000000E+00 -0.00000000000E+00 -0.38457200889E+03  0.38457200889E+03  0.00000000000E+00 0. -1.
      99925    2    1    2    0    0 -0.54039225685E+02  0.14122701161E+03 -0.16420343405E+03  0.34500614482E+03  0.26306114401E+03 0.  0.
         25    1    3    3    0    0 -0.56262907737E+02  0.58222177586E+02 -0.52935650447E+02  0.15812978195E+03  0.12509000000E+03 0.  0.
         25    1    1    2    0    0  0.54039225685E+02 -0.14122701161E+03 -0.55885433717E+02  0.20404900520E+03  0.12509000000E+03 0.  0.
         25    1    3    3    0    0  0.22236820520E+01  0.83004834022E+02 -0.11126778360E+03  0.18687636287E+03  0.12509000000E+03 0.  0.
<mgrwt>
<rscale>  2 0.50301337E+03</rscale>
<asrwt>0</asrwt>
<pdfrwt beam="1">  1       21 0.24188697E-01 0.50301337E+03</pdfrwt>
<pdfrwt beam="2">  1       21 0.56554707E-01 0.50301337E+03</pdfrwt>
<totfact> 0.43058613E+04</totfact>
</mgrwt>
</event>
<event>
 6    0  0.1539497E-004  0.4275316E+03  0.7546771E-02  0.1034643E+00
         21   -1    0    0  502  501  0.00000000000E+00  0.00000000000E+00  0.21683470618E+02  0.21683470618E+02  0.00000000000E+00 0.  1.
         21   -1    0    0  501  502 -0.00000000000E+00 -0.00000000000E+00 -0.21074037403E+04  0.21074037403E+04  0.00000000000E+00 0.  1.
      99925    2    1    2    0    0  0.71029196898E+02  0.15533587524E+02 -0.11246981848E+04  0.11572346527E+04  0.26260159062E+03 0.  0.
         25    1    1    2    0    0 -0.71029196898E+02 -0.15533587524E+02 -0.96102208490E+03  0.97185255822E+03  0.12509000000E+03 0.  0.
         25    1    3    3    0    0  0.38204671527E+02 -0.28745095018E+02 -0.62433064238E+03  0.63853123379E+03  0.12509000000E+03 0.  0.
         25    1    3    3    0    0  0.32824525371E+02  0.44278682543E+02 -0.50036754239E+03  0.51870341890E+03  0.12509000000E+03 0.  0.
<mgrwt>
<rscale>  2 0.42753165E+03</rscale>
<asrwt>0</asrwt>
<pdfrwt beam="1">  1       21 0.31887459E-02 0.42753165E+03</pdfrwt>
<pdfrwt beam="2">  1       21 0.30991230E+00 0.42753165E+03</pdfrwt>
<totfact> 0.14586653E+04</totfact>
</mgrwt>
</event>
<event>
 6    0  0.1539497E-004  0.4336086E+03  0.7546771E-02  0.1032726E+00
         21   -1    0    0  502  501  0.00000000000E+00  0.00000000000E+00  0.41344874540E+03  0.41344874540E+03  0.00000000000E+00 0. -1.
         21   -1    0    0  501  502 -0.00000000000E+00 -0.00000000000E+00 -0.11368784130E+03  0.11368784130E+03  0.00000000000E+00 0. -1.
      99925    2    1    2    0    0 -0.61311100279E+00 -0.79670029079E+02  0.24770058300E+03  0.36995683428E+03  0.26299199792E+03 0.  0.
         25    1    1    2    0    0  0.61311100279E+00  0.79670029079E+02  0.52060321105E+02  0.15717975242E+03  0.12509000000E+03 0.  0.
         25    1    3    3    0    0 -0.23366112381E+02 -0.32542937199E+02  0.78096094510E+02  0.15281206120E+03  0.12509000000E+03 0.  0.
         25    1    3    3    0    0  0.22753001378E+02 -0.47127091880E+02  0.16960448849E+03  0.21714477308E+03  0.12509000000E+03 0.  0.
<mgrwt>
<rscale>  2 0.43360856E+03</rscale>
<asrwt>0</asrwt>
<pdfrwt beam="1">  1       21 0.60801286E-01 0.43360856E+03</pdfrwt>
<pdfrwt beam="2">  1       21 0.16718800E-01 0.43360856E+03</pdfrwt>
<totfact> 0.75379941E+04</totfact>
</mgrwt>
</event>
<event>
 6    0  0.1539497E-004  0.4474330E+03  0.7546771E-02  0.1028490E+00
         21   -1    0    0  502  501  0.00000000000E+00  0.00000000000E+00  0.26431806022E+03  0.26431806022E+03  0.00000000000E+00 0. -1.
         21   -1    0    0  501  502 -0.00000000000E+00 -0.00000000000E+00 -0.18935167819E+03  0.18935167819E+03  0.00000000000E+00 0. -1.
      99925    2    1    2    0    0  0.11307127542E+01  0.89989239053E+02 -0.93346155427E+01  0.27801807189E+03  0.26288319002E+03 0.  0.
         25    1    1    2    0    0 -0.11307127542E+01 -0.89989239053E+02  0.84300997575E+02  0.17565166651E+03  0.12509000000E+03 0.  0.
         25    1    3    3    0    0 -0.34205354760E+02  0.64042230358E+02  0.48258632308E+01  0.14471423779E+03  0.12509000000E+03 0.  0.
         25    1    3    3    0    0  0.35336067515E+02  0.25947008695E+02 -0.14160478774E+02  0.13330383410E+03  0.12509000000E+03 0.  0.
<mgrwt>
<rscale>  2 0.44743298E+03</rscale>
<asrwt>0</asrwt>
<pdfrwt beam="1">  1       21 0.38870303E-01 0.44743298E+03</pdfrwt>
<pdfrwt beam="2">  1       21 0.27845835E-01 0.44743298E+03</pdfrwt>
<totfact> 0.72947776E+04</totfact>
</mgrwt>
</event>
<event>
 6    0  0.1539497E-004  0.5137903E+03  0.7546771E-02  0.1010241E+00
         21   -1    0    0  502  501  0.00000000000E+00  0.00000000000E+00  0.33469703920E+03  0.33469703920E+03  0.00000000000E+00 0. -1.
         21   -1    0    0  501  502 -0.00000000000E+00 -0.00000000000E+00 -0.19717867251E+03  0.19717867251E+03  0.00000000000E+00 0. -1.
      99925    2    1    2    0    0  0.28782870665E+02 -0.57130177262E+02 -0.71555052706E+02  0.27997987294E+03  0.26301386443E+03 0.  0.
         25    1    1    2    0    0 -0.28782870665E+02  0.57130177262E+02  0.20907341939E+03  0.25189583878E+03  0.12509000000E+03 0.  0.
         25    1    3    3    0    0 -0.10866116546E+02 -0.59553598184E+02 -0.28574105830E+02  0.14187561866E+03  0.12509000000E+03 0.  0.
         25    1    3    3    0    0  0.39648987211E+02  0.24234209218E+01 -0.42980946876E+02  0.13810425428E+03  0.12509000000E+03 0.  0.
<mgrwt>
<rscale>  2 0.51379030E+03</rscale>
<asrwt>0</asrwt>
<pdfrwt beam="1">  1       21 0.49220153E-01 0.51379030E+03</pdfrwt>
<pdfrwt beam="2">  1       21 0.28996864E-01 0.51379030E+03</pdfrwt>
<totfact> 0.40575987E+04</totfact>
</mgrwt>
</event>
<event>
 6    0  0.1539497E-004  0.4400421E+03  0.7546771E-02  0.1030734E+00
         21   -1    0    0  502  501  0.00000000000E+00  0.00000000000E+00  0.23595614803E+03  0.23595614803E+03  0.00000000000E+00 0.  1.
         21   -1    0    0  501  502 -0.00000000000E+00 -0.00000000000E+00 -0.20516212640E+03  0.20516212640E+03  0.00000000000E+00 0.  1.
      99925    2    1    2    0    0  0.84437085647E+02 -0.79194129291E+01  0.69768654262E+02  0.28504499478E+03  0.26304114772E+03 0.  0.
         25    1    3    3    0    0  0.21239247078E+02 -0.30912256480E+02  0.10047521809E+02  0.13097760882E+03  0.12509000000E+03 0.  0.
         25    1    3    3    0    0  0.63197838569E+02  0.22992843551E+02  0.59721132453E+02  0.15406738596E+03  0.12509000000E+03 0.  0.
         25    1    1    2    0    0 -0.84437085647E+02  0.79194129291E+01 -0.38974632638E+02  0.15607327966E+03  0.12509000000E+03 0.  0.
<mgrwt>
<rscale>  2 0.44004211E+03</rscale>
<asrwt>0</asrwt>
<pdfrwt beam="1">  1       21 0.34699433E-01 0.44004211E+03</pdfrwt>
<pdfrwt beam="2">  1       21 0.30170901E-01 0.44004211E+03</pdfrwt>
<totfact> 0.78537871E+04</totfact>
</mgrwt>
</event>
<event>
 6    0  0.1539497E-004  0.4283400E+03  0.7546771E-02  0.1034386E+00
         21   -1    0    0  502  501  0.00000000000E+00  0.00000000000E+00  0.96091031813E+02  0.96091031813E+02  0.00000000000E+00 0.  1.
         21   -1    0    0  501  502 -0.00000000000E+00 -0.00000000000E+00 -0.47734723963E+03  0.47734723963E+03  0.00000000000E+00 0.  1.
      99925    2    1    2    0    0 -0.50972229228E+02  0.67195426451E+02 -0.26553742327E+03  0.38330216576E+03  0.26324329740E+03 0.  0.
         25    1    1    2    0    0  0.50972229228E+02 -0.67195426451E+02 -0.11571878454E+03  0.19013610568E+03  0.12509000000E+03 0.  0.
         25    1    3    3    0    0 -0.51718113634E+02  0.64994071187E+02 -0.12729589501E+03  0.19685209055E+03  0.12509000000E+03 0.  0.
         25    1    3    3    0    0  0.74588440645E+00  0.22013552645E+01 -0.13824152826E+03  0.18645007520E+03  0.12509000000E+03 0.  0.
<mgrwt>
<rscale>  2 0.42834000E+03</rscale>
<asrwt>0</asrwt>
<pdfrwt beam="1">  1       21 0.14131034E-01 0.42834000E+03</pdfrwt>
<pdfrwt beam="2">  1       21 0.70198124E-01 0.42834000E+03</pdfrwt>
<totfact> 0.74933260E+04</totfact>
</mgrwt>
</event>
<event>
 6    0  0.1539497E-004  0.4962336E+03  0.7546771E-02  0.1014767E+00
         21   -1    0    0  502  501  0.00000000000E+00  0.00000000000E+00  0.80058269502E+02  0.80058269502E+02  0.00000000000E+00 0.  1.
         21   -1    0    0  501  502 -0.00000000000E+00 -0.00000000000E+00 -0.76896411048E+03  0.76896411048E+03  0.00000000000E+00 0.  1.
      99925    2    1    2    0    0  0.99282425781E+02  0.10490332962E+03 -0.36024706485E+03  0.46885687937E+03  0.26303444064E+03 0.  0.
         25    1    3    3    0    0  0.58317343392E+02  0.16254154455E+02 -0.19800099530E+03  0.24190289853E+03  0.12509000000E+03 0.  0.
         25    1    3    3    0    0  0.40965082390E+02  0.88649175165E+02 -0.16224606956E+03  0.22695398084E+03  0.12509000000E+03 0.  0.
         25    1    1    2    0    0 -0.99282425781E+02 -0.10490332962E+03 -0.32865877613E+03  0.38016550062E+03  0.12509000000E+03 0.  0.
<mgrwt>
<rscale>  2 0.49623356E+03</rscale>
<asrwt>0</asrwt>
<pdfrwt beam="1">  1       21 0.11773275E-01 0.49623356E+03</pdfrwt>
<pdfrwt beam="2">  1       21 0.11308296E+00 0.49623356E+03</pdfrwt>
<totfact> 0.33322981E+04</totfact>
</mgrwt>
</event>
<event>
 6    0  0.1539497E-004  0.4138395E+03  0.7546771E-02  0.1039090E+00
         21   -1    0    0  502  501  0.00000000000E+00  0.00000000000E+00  0.23032595545E+02  0.23032595545E+02  0.00000000000E+00 0.  1.
         21   -1    0    0  501  502 -0.00000000000E+00 -0.00000000000E+00 -0.18589216477E+04  0.18589216477E+04  0.00000000000E+00 0.  1.
      99925    2    1    2    0    0 -0.39493101417E+02  0.52310359894E+02 -0.11269937404E+04  0.11591291262E+04  0.26300068692E+03 0.  0.
         25    1    1    2    0    0  0.39493101417E+02 -0.52310359894E+02 -0.70889531171E+03  0.72282511708E+03  0.12509000000E+03 0.  0.
         25    1    3    3    0    0  0.35700393032E+01 -0.62337335444E+01 -0.57491425038E+03  0.58840930312E+03  0.12509000000E+03 0.  0.
         25    1    3    3    0    0 -0.43063140720E+02  0.58544093439E+02 -0.55207949006E+03  0.57071982304E+03  0.12509000000E+03 0.  0.
<mgrwt>
<rscale>  2 0.41383954E+03</rscale>
<asrwt>0</asrwt>
<pdfrwt beam="1">  1       21 0.33871452E-02 0.41383954E+03</pdfrwt>
<pdfrwt beam="2">  1       21 0.27337093E+00 0.41383954E+03</pdfrwt>
<totfact> 0.21954807E+04</totfact>
</mgrwt>
</event>
<event>
 6    0  0.1539497E-004  0.1240679E+04  0.7546771E-02  0.9077977E-01
         21   -1    0    0  502  501  0.00000000000E+00  0.00000000000E+00  0.74600896813E+03  0.74600896813E+03  0.00000000000E+00 0. -1.
         21   -1    0    0  501  502 -0.00000000000E+00 -0.00000000000E+00 -0.51583969644E+03  0.51583969644E+03  0.00000000000E+00 0. -1.
      99925    2    1    2    0    0  0.32121861735E+03 -0.17842589599E+03 -0.34460727197E+03  0.56828339458E+03  0.26301073015E+03 0.  0.
         25    1    3    3    0    0  0.20562090559E+03 -0.12895197418E+03 -0.18634872543E+03  0.33057816630E+03  0.12509000000E+03 0.  0.
         25    1    1    2    0    0 -0.32121861735E+03  0.17842589599E+03  0.57477654365E+03  0.69356526998E+03  0.12509000000E+03 0.  0.
         25    1    3    3    0    0  0.11559771176E+03 -0.49473921808E+02 -0.15825854654E+03  0.23770522829E+03  0.12509000000E+03 0.  0.
<mgrwt>
<rscale>  2 0.12406789E+04</rscale>
<asrwt>0</asrwt>
<pdfrwt beam="1">  1       21 0.10970720E+00 0.12406789E+04</pdfrwt>
<pdfrwt beam="2">  1       21 0.75858779E-01 0.12406789E+04</pdfrwt>
<totfact> 0.71623206E+02</totfact>
</mgrwt>
</event>
<event>
 6    0  0.1539497E-004  0.4044555E+03  0.7546771E-02  0.1042248E+00
         21   -1    0    0  502  501  0.00000000000E+00  0.00000000000E+00  0.24426191801E+03  0.24426191801E+03  0.00000000000E+00 0. -1.
         21   -1    0    0  501  502 -0.00000000000E+00 -0.00000000000E+00 -0.16742705941E+03  0.16742705941E+03  0.00000000000E+00 0. -1.
      99925    2    1    2    0    0 -0.42855686519E+02  0.28073576780E+02  0.35343998642E+02  0.27028977254E+03  0.26302590617E+03 0.  0.
         25    1    3    3    0    0  0.61498598753E+01  0.14007658750E+01 -0.10906389731E+02  0.12572287126E+03  0.12509000000E+03 0.  0.
         25    1    1    2    0    0  0.42855686519E+02 -0.28073576780E+02  0.41490859957E+02  0.14139920488E+03  0.12509000000E+03 0.  0.
         25    1    3    3    0    0 -0.49005546394E+02  0.26672810905E+02  0.46250388374E+02  0.14456690127E+03  0.12509000000E+03 0.  0.
<mgrwt>
<rscale>  2 0.40445546E+03</rscale>
<asrwt>0</asrwt>
<pdfrwt beam="1">  1       21 0.35920870E-01 0.40445546E+03</pdfrwt>
<pdfrwt beam="2">  1       21 0.24621626E-01 0.40445546E+03</pdfrwt>
<totfact> 0.10989565E+05</totfact>
</mgrwt>
</event>
<event>
 6    0  0.1539497E-004  0.3994981E+03  0.7546771E-02  0.1043954E+00
         21   -1    0    0  502  501  0.00000000000E+00  0.00000000000E+00  0.72622364823E+02  0.72622364823E+02  0.00000000000E+00 0. -1.
         21   -1    0    0  501  502 -0.00000000000E+00 -0.00000000000E+00 -0.54941328319E+03  0.54941328319E+03  0.00000000000E+00 0. -1.
      99925    2    1    2    0    0 -0.32570374353E+02  0.53291174762E+01 -0.36477317932E+03  0.45090788656E+03  0.26300042021E+03 0.  0.
         25    1    1    2    0    0  0.32570374353E+02 -0.53291174762E+01 -0.11201773905E+03  0.17112776146E+03  0.12509000000E+03 0.  0.
         25    1    3    3    0    0 -0.19147354525E+02 -0.29021184163E+02 -0.13920436665E+03  0.19035286735E+03  0.12509000000E+03 0.  0.
         25    1    3    3    0    0 -0.13423019828E+02  0.34350301639E+02 -0.22556881267E+03  0.26055501921E+03  0.12509000000E+03 0.  0.
<mgrwt>
<rscale>  2 0.39949814E+03</rscale>
<asrwt>0</asrwt>
<pdfrwt beam="1">  1       21 0.10679759E-01 0.39949814E+03</pdfrwt>
<pdfrwt beam="2">  1       21 0.80796072E-01 0.39949814E+03</pdfrwt>
<totfact> 0.91183141E+04</totfact>
</mgrwt>
</event>
<event>
 6    0  0.1539497E-004  0.4135617E+03  0.7546771E-02  0.1039182E+00
         21   -1    0    0  502  501  0.00000000000E+00  0.00000000000E+00  0.34563789824E+02  0.34563789824E+02  0.00000000000E+00 0. -1.
         21   -1    0    0  501  502 -0.00000000000E+00 -0.00000000000E+00 -0.12370839659E+04  0.12370839659E+04  0.00000000000E+00 0. -1.
      99925    2    1    2    0    0 -0.32021594934E+02 -0.99447662983E+01 -0.96790851561E+03  0.10036656290E+04  0.26338853301E+03 0.  0.
         25    1    3    3    0    0 -0.53413902994E+02 -0.42040793755E+01 -0.56752987676E+03  0.58361664509E+03  0.12509000000E+03 0.  0.
         25    1    3    3    0    0  0.21392308060E+02 -0.57406869228E+01 -0.40037863885E+03  0.42004898390E+03  0.12509000000E+03 0.  0.
         25    1    1    2    0    0  0.32021594934E+02  0.99447662983E+01 -0.23461166047E+03  0.26798212673E+03  0.12509000000E+03 0.  0.
<mgrwt>
<rscale>  2 0.41356165E+03</rscale>
<asrwt>0</asrwt>
<pdfrwt beam="1">  1       21 0.50829094E-02 0.41356165E+03</pdfrwt>
<pdfrwt beam="2">  1       21 0.18192414E+00 0.41356165E+03</pdfrwt>
<totfact> 0.41919819E+04</totfact>
</mgrwt>
</event>
<event>
 6    0  0.1539497E-004  0.4343429E+03  0.7546771E-02  0.1032497E+00
         21   -1    0    0  502  501  0.00000000000E+00  0.00000000000E+00  0.60978136164E+03  0.60978136164E+03  0.00000000000E+00 0. -1.
         21   -1    0    0  501  502 -0.00000000000E+00 -0.00000000000E+00 -0.77344842520E+02  0.77344842520E+02  0.00000000000E+00 0. -1.
      99925    2    1    2    0    0  0.85469438394E+02  0.28689897804E+02  0.30922583837E+03  0.41583549065E+03  0.26300266355E+03 0.  0.
         25    1    3    3    0    0  0.66675765487E+02  0.42828942508E+02  0.13742844494E+03  0.20202490341E+03  0.12509000000E+03 0.  0.
         25    1    3    3    0    0  0.18793672908E+02 -0.14139044705E+02  0.17179739342E+03  0.21381058723E+03  0.12509000000E+03 0.  0.
         25    1    1    2    0    0 -0.85469438394E+02 -0.28689897804E+02  0.22321068076E+03  0.27129071352E+03  0.12509000000E+03 0.  0.
<mgrwt>
<rscale>  2 0.43434292E+03</rscale>
<asrwt>0</asrwt>
<pdfrwt beam="1">  1       21 0.89673727E-01 0.43434292E+03</pdfrwt>
<pdfrwt beam="2">  1       21 0.11374242E-01 0.43434292E+03</pdfrwt>
<totfact> 0.63288620E+04</totfact>
</mgrwt>
</event>
<event>
 6    0  0.1539497E-004  0.4050813E+03  0.7546771E-02  0.1042034E+00
         21   -1    0    0  502  501  0.00000000000E+00  0.00000000000E+00  0.10147863070E+03  0.10147863070E+03  0.00000000000E+00 0. -1.
         21   -1    0    0  501  502 -0.00000000000E+00 -0.00000000000E+00 -0.40424981572E+03  0.40424981572E+03  0.00000000000E+00 0. -1.
      99925    2    1    2    0    0 -0.48950137424E+02 -0.24247955022E+01 -0.22978359164E+03  0.35283406303E+03  0.26322876260E+03 0.  0.
         25    1    3    3    0    0 -0.59008944261E+02  0.30533645806E+01 -0.14984360842E+03  0.20394115235E+03  0.12509000000E+03 0.  0.
         25    1    3    3    0    0  0.10058806836E+02 -0.54781600829E+01 -0.79939983216E+02  0.14889291068E+03  0.12509000000E+03 0.  0.
         25    1    1    2    0    0  0.48950137424E+02  0.24247955022E+01 -0.72987593376E+02  0.15289438340E+03  0.12509000000E+03 0.  0.
<mgrwt>
<rscale>  2 0.40508131E+03</rscale>
<asrwt>0</asrwt>
<pdfrwt beam="1">  1       21 0.14923328E-01 0.40508131E+03</pdfrwt>
<pdfrwt beam="2">  1       21 0.59448502E-01 0.40508131E+03</pdfrwt>
<totfact> 0.98401289E+04</totfact>
</mgrwt>
</event>
<event>
 6    0  0.1539497E-004  0.4064295E+03  0.7546771E-02  0.1041576E+00
         21   -1    0    0  502  501  0.00000000000E+00  0.00000000000E+00  0.50388156751E+03  0.50388156751E+03  0.00000000000E+00 0.  1.
         21   -1    0    0  501  502 -0.00000000000E+00 -0.00000000000E+00 -0.81956234998E+02  0.81956234998E+02  0.00000000000E+00 0.  1.
      99925    2    1    2    0    0  0.57310455976E+02  0.11457819395E+02  0.27622175314E+03  0.38510710946E+03  0.26190314786E+03 0.  0.
         25    1    3    3    0    0  0.57816562921E+02  0.17820526959E+01  0.18153864536E+03  0.22792480891E+03  0.12509000000E+03 0.  0.
         25    1    1    2    0    0 -0.57310455976E+02 -0.11457819395E+02  0.14570357938E+03  0.20073069305E+03  0.12509000000E+03 0.  0.
         25    1    3    3    0    0 -0.50610694445E+00  0.96757666993E+01  0.94683107776E+02  0.15718230054E+03  0.12509000000E+03 0.  0.
<mgrwt>
<rscale>  2 0.40642951E+03</rscale>
<asrwt>0</asrwt>
<pdfrwt beam="1">  1       21 0.74100229E-01 0.40642951E+03</pdfrwt>
<pdfrwt beam="2">  1       21 0.12052388E-01 0.40642951E+03</pdfrwt>
<totfact> 0.89158682E+04</totfact>
</mgrwt>
</event>
<event>
 6    0  0.1539497E-004  0.4894079E+03  0.7546771E-02  0.1016581E+00
         21   -1    0    0  502  501  0.00000000000E+00  0.00000000000E+00  0.17061171102E+04  0.17061171102E+04  0.00000000000E+00 0.  1.
         21   -1    0    0  501  502 -0.00000000000E+00 -0.00000000000E+00 -0.35097245717E+02  0.35097245717E+02  0.00000000000E+00 0.  1.
      99925    2    1    2    0    0  0.44456676750E+02 -0.26920953323E+02  0.14963989946E+04  0.15202141520E+04  0.26294482887E+03 0.  0.
         25    1    1    2    0    0 -0.44456676750E+02  0.26920953323E+02  0.17462086986E+03  0.22100020391E+03  0.12509000000E+03 0.  0.
         25    1    3    3    0    0 -0.16051099403E+02 -0.31033819186E+01  0.76894817768E+03  0.77922787221E+03  0.12509000000E+03 0.  0.
         25    1    3    3    0    0  0.60507776153E+02 -0.23817571404E+02  0.72745081690E+03  0.74098627976E+03  0.12509000000E+03 0.  0.
<mgrwt>
<rscale>  2 0.48940785E+03</rscale>
<asrwt>0</asrwt>
<pdfrwt beam="1">  1       21 0.25089952E+00 0.48940785E+03</pdfrwt>
<pdfrwt beam="2">  1       21 0.51613608E-02 0.48940785E+03</pdfrwt>
<totfact> 0.14221610E+04</totfact>
</mgrwt>
</event>
<event>
 6    0  0.1539497E-004  0.4088515E+03  0.7546771E-02  0.1040757E+00
         21   -1    0    0  502  501  0.00000000000E+00  0.00000000000E+00  0.12138644392E+04  0.12138644392E+04  0.00000000000E+00 0.  1.
         21   -1    0    0  501  502 -0.00000000000E+00 -0.00000000000E+00 -0.34427145521E+02  0.34427145521E+02  0.00000000000E+00 0.  1.
      99925    2    1    2    0    0  0.18208561562E+02 -0.11589344217E+02  0.95126948267E+03  0.98719021994E+03  0.26299246581E+03 0.  0.
         25    1    1    2    0    0 -0.18208561562E+02  0.11589344217E+02  0.22816781106E+03  0.26110136483E+03  0.12509000000E+03 0.  0.
         25    1    3    3    0    0  0.33405661707E+01 -0.53429528952E+01  0.32399500549E+03  0.34736145182E+03  0.12509000000E+03 0.  0.
         25    1    3    3    0    0  0.14867995392E+02 -0.62463913215E+01  0.62727447718E+03  0.63982876812E+03  0.12509000000E+03 0.  0.
<mgrwt>
<rscale>  2 0.40885150E+03</rscale>
<asrwt>0</asrwt>
<pdfrwt beam="1">  1       21 0.17850945E+00 0.40885150E+03</pdfrwt>
<pdfrwt beam="2">  1       21 0.50628163E-02 0.40885150E+03</pdfrwt>
<totfact> 0.44666164E+04</totfact>
</mgrwt>
</event>
<event>
 6    0  0.1539497E-004  0.4167118E+03  0.7546771E-02  0.1038142E+00
         21   -1    0    0  502  501  0.00000000000E+00  0.00000000000E+00  0.28152444357E+03  0.28152444357E+03  0.00000000000E+00 0. -1.
         21   -1    0    0  501  502 -0.00000000000E+00 -0.00000000000E+00 -0.15420396065E+03  0.15420396065E+03  0.00000000000E+00 0. -1.
      99925    2    1    2    0    0  0.62568178353E+02  0.21226086242E+02  0.11176719748E+03  0.29340926823E+03  0.26311930483E+03 0.  0.
         25    1    3    3    0    0  0.30079542921E+02  0.33953198985E+01  0.98900765165E+02  0.16231197291E+03  0.12509000000E+03 0.  0.
         25    1    1    2    0    0 -0.62568178353E+02 -0.21226086242E+02  0.15553285446E+02  0.14231913599E+03  0.12509000000E+03 0.  0.
         25    1    3    3    0    0  0.32488635433E+02  0.17830766343E+02  0.12866432311E+02  0.13109729532E+03  0.12509000000E+03 0.  0.
<mgrwt>
<rscale>  2 0.41671182E+03</rscale>
<asrwt>0</asrwt>
<pdfrwt beam="1">  1       21 0.41400654E-01 0.41671182E+03</pdfrwt>
<pdfrwt beam="2">  1       21 0.22677053E-01 0.41671182E+03</pdfrwt>
<totfact> 0.96110905E+04</totfact>
</mgrwt>
</event>
<event>
 6    0  0.1539497E-004  0.4068141E+03  0.7546771E-02  0.1041445E+00
         21   -1    0    0  502  501  0.00000000000E+00  0.00000000000E+00  0.16292048977E+03  0.16292048977E+03  0.00000000000E+00 0.  1.
         21   -1    0    0  501  502 -0.00000000000E+00 -0.00000000000E+00 -0.25395471232E+03  0.25395471232E+03  0.00000000000E+00 0.  1.
      99925    2    1    2    0    0  0.32628628157E+02  0.42451165515E+02 -0.39214890614E+02  0.27127478968E+03  0.26303131951E+03 0.  0.
         25    1    1    2    0    0 -0.32628628157E+02 -0.42451165515E+02 -0.51819331936E+02  0.14560041240E+03  0.12509000000E+03 0.  0.
         25    1    3    3    0    0 -0.14289002991E+02  0.19331111446E+02 -0.46229339714E+02  0.13550840353E+03  0.12509000000E+03 0.  0.
         25    1    3    3    0    0  0.46917631148E+02  0.23120054069E+02  0.70144490996E+01  0.13576638615E+03  0.12509000000E+03 0.  0.
<mgrwt>
<rscale>  2 0.40681409E+03</rscale>
<asrwt>0</asrwt>
<pdfrwt beam="1">  1       21 0.23958896E-01 0.40681409E+03</pdfrwt>
<pdfrwt beam="2">  1       21 0.37346281E-01 0.40681409E+03</pdfrwt>
<totfact> 0.10700260E+05</totfact>
</mgrwt>
</event>
<event>
 6    0  0.1539497E-004  0.4439742E+03  0.7546771E-02  0.1029534E+00
         21   -1    0    0  502  501  0.00000000000E+00  0.00000000000E+00  0.92540410415E+03  0.92540410415E+03  0.00000000000E+00 0.  1.
         21   -1    0    0  501  502 -0.00000000000E+00 -0.00000000000E+00 -0.53250544010E+02  0.53250544010E+02  0.00000000000E+00 0.  1.
      99925    2    1    2    0    0 -0.64744095635E+02  0.75558407467E+02  0.50087988006E+03  0.57443623631E+03  0.26305030789E+03 0.  0.
         25    1    3    3    0    0 -0.44142881474E+02  0.75417852156E+02  0.30624345788E+03  0.34215348895E+03  0.12509000000E+03 0.  0.
         25    1    1    2    0    0  0.64744095635E+02 -0.75558407467E+02  0.37127368008E+03  0.40421841185E+03  0.12509000000E+03 0.  0.
         25    1    3    3    0    0 -0.20601214161E+02  0.14055531067E+00  0.19463642218E+03  0.23228274736E+03  0.12509000000E+03 0.  0.
<mgrwt>
<rscale>  2 0.44397420E+03</rscale>
<asrwt>0</asrwt>
<pdfrwt beam="1">  1       21 0.13608883E+00 0.44397420E+03</pdfrwt>
<pdfrwt beam="2">  1       21 0.78309629E-02 0.44397420E+03</pdfrwt>
<totfact> 0.43643543E+04</totfact>
</mgrwt>
</event>
<event>
 6    0  0.1539497E-004  0.4438713E+03  0.7546771E-02  0.1029566E+00
         21   -1    0    0  502  501  0.00000000000E+00  0.00000000000E+00  0.18037173833E+03  0.18037173833E+03  0.00000000000E+00 0.  1.
         21   -1    0    0  501  502 -0.00000000000E+00 -0.00000000000E+00 -0.27307737129E+03  0.27307737129E+03  0.00000000000E+00 0.  1.
      99925    2    1    2    0    0 -0.44495682152E+02 -0.14009407728E+02  0.33990767281E+02  0.26939581524E+03  0.26313989392E+03 0.  0.
         25    1    1    2    0    0  0.44495682152E+02  0.14009407728E+02 -0.12669640025E+03  0.18405329438E+03  0.12509000000E+03 0.  0.
         25    1    3    3    0    0 -0.39079265482E+02 -0.31467986465E+01 -0.20009062189E+02  0.13260830292E+03  0.12509000000E+03 0.  0.
         25    1    3    3    0    0 -0.54164166700E+01 -0.10862609082E+02  0.53999829470E+02  0.13678751233E+03  0.12509000000E+03 0.  0.
<mgrwt>
<rscale>  2 0.44387133E+03</rscale>
<asrwt>0</asrwt>
<pdfrwt beam="1">  1       21 0.26525256E-01 0.44387133E+03</pdfrwt>
<pdfrwt beam="2">  1       21 0.40158437E-01 0.44387133E+03</pdfrwt>
<totfact> 0.75100637E+04</totfact>
</mgrwt>
</event>
<event>
 6    0  0.1539497E-004  0.4446904E+03  0.7546771E-02  0.1029317E+00
         21   -1    0    0  502  501  0.00000000000E+00  0.00000000000E+00  0.69333029729E+03  0.69333029729E+03  0.00000000000E+00 0. -1.
         21   -1    0    0  501  502 -0.00000000000E+00 -0.00000000000E+00 -0.71304235218E+02  0.71304235218E+02  0.00000000000E+00 0. -1.
      99925    2    1    2    0    0 -0.30873966871E+02 -0.98065418301E+02  0.41140751020E+03  0.49896987436E+03  0.26295392747E+03 0.  0.
         25    1    3    3    0    0 -0.51567860237E+02 -0.52475828285E+02  0.24616587237E+03  0.28575881716E+03  0.12509000000E+03 0.  0.
         25    1    1    2    0    0  0.30873966871E+02  0.98065418301E+02  0.21061855187E+03  0.26566465815E+03  0.12509000000E+03 0.  0.
         25    1    3    3    0    0  0.20693893367E+02 -0.45589590016E+02  0.16524163783E+03  0.21321105720E+03  0.12509000000E+03 0.  0.
<mgrwt>
<rscale>  2 0.44469039E+03</rscale>
<asrwt>0</asrwt>
<pdfrwt beam="1">  1       21 0.10196033E+00 0.44469039E+03</pdfrwt>
<pdfrwt beam="2">  1       21 0.10485917E-01 0.44469039E+03</pdfrwt>
<totfact> 0.53742390E+04</totfact>
</mgrwt>
</event>
<event>
 6    0  0.1539497E-004  0.5394059E+03  0.7546771E-02  0.1003976E+00
         21   -1    0    0  502  501  0.00000000000E+00  0.00000000000E+00  0.61723399656E+03  0.61723399656E+03  0.00000000000E+00 0.  1.
         21   -1    0    0  501  502 -0.00000000000E+00 -0.00000000000E+00 -0.11784782078E+03  0.11784782078E+03  0.00000000000E+00 0.  1.
      99925    2    1    2    0    0 -0.59532004375E+02  0.19225456045E+02  0.64045621525E+02  0.27782632641E+03  0.26300560508E+03 0.  0.
         25    1    3    3    0    0  0.96705294135E+01  0.15187735408E+02  0.18439534286E+02  0.12771730881E+03  0.12509000000E+03 0.  0.
         25    1    1    2    0    0  0.59532004375E+02 -0.19225456045E+02  0.43534055425E+03  0.45725549093E+03  0.12509000000E+03 0.  0.
         25    1    3    3    0    0 -0.69202533789E+02  0.40377206374E+01  0.45606087239E+02  0.15010901760E+03  0.12509000000E+03 0.  0.
<mgrwt>
<rscale>  2 0.53940590E+03</rscale>
<asrwt>0</asrwt>
<pdfrwt beam="1">  1       21 0.90769704E-01 0.53940590E+03</pdfrwt>
<pdfrwt beam="2">  1       21 0.17330562E-01 0.53940590E+03</pdfrwt>
<totfact> 0.27602420E+04</totfact>
</mgrwt>
</event>
<event>
 6    0  0.1539497E-004  0.4333668E+03  0.7546771E-02  0.1032802E+00
         21   -1    0    0  502  501  0.00000000000E+00  0.00000000000E+00  0.44514130164E+03  0.44514130164E+03  0.00000000000E+00 0.  1.
         21   -1    0    0  501  502 -0.00000000000E+00 -0.00000000000E+00 -0.10547593556E+03  0.10547593556E+03  0.00000000000E+00 0.  1.
      99925    2    1    2    0    0 -0.69601290537E+02 -0.39268296083E+02  0.16200087534E+03  0.31910369960E+03  0.26305236887E+03 0.  0.
         25    1    3    3    0    0 -0.62267334303E+02 -0.44291790668E+02  0.63989784200E+02  0.15994118989E+03  0.12509000000E+03 0.  0.
         25    1    1    2    0    0  0.69601290537E+02  0.39268296083E+02  0.17766449073E+03  0.23151353759E+03  0.12509000000E+03 0.  0.
         25    1    3    3    0    0 -0.73339562344E+01  0.50234945855E+01  0.98011091139E+02  0.15916250971E+03  0.12509000000E+03 0.  0.
<mgrwt>
<rscale>  2 0.43336680E+03</rscale>
<asrwt>0</asrwt>
<pdfrwt beam="1">  1       21 0.65461956E-01 0.43336680E+03</pdfrwt>
<pdfrwt beam="2">  1       21 0.15511167E-01 0.43336680E+03</pdfrwt>
<totfact> 0.73643722E+04</totfact>
</mgrwt>
</event>
<event>
 6    0  0.1539497E-004  0.4879737E+03  0.7546771E-02  0.1016967E+00
         21   -1    0    0  502  501  0.00000000000E+00  0.00000000000E+00  0.11545523040E+03  0.11545523040E+03  0.00000000000E+00 0.  1.
         21   -1    0    0  501  502 -0.00000000000E+00 -0.00000000000E+00 -0.51560749273E+03  0.51560749273E+03  0.00000000000E+00 0.  1.
      99925    2    1    2    0    0 -0.39348578146E+02  0.11202982328E+03 -0.34535080061E+03  0.45009394070E+03  0.26309387692E+03 0.  0.
         25    1    1    2    0    0  0.39348578146E+02 -0.11202982328E+03 -0.54801461725E+02  0.18096878243E+03  0.12509000000E+03 0.  0.
         25    1    3    3    0    0 -0.21485586292E+02  0.14929706442E+02 -0.17661108769E+03  0.21799887832E+03  0.12509000000E+03 0.  0.
         25    1    3    3    0    0 -0.17862991855E+02  0.97100116836E+02 -0.16873971292E+03  0.23209506238E+03  0.12509000000E+03 0.  0.
<mgrwt>
<rscale>  2 0.48797370E+03</rscale>
<asrwt>0</asrwt>
<pdfrwt beam="1">  1       21 0.16978710E-01 0.48797370E+03</pdfrwt>
<pdfrwt beam="2">  1       21 0.75824633E-01 0.48797370E+03</pdfrwt>
<totfact> 0.44141289E+04</totfact>
</mgrwt>
</event>
<event>
 6    0  0.1539497E-004  0.4729123E+03  0.7546771E-02  0.1021101E+00
         21   -1    0    0  502  501  0.00000000000E+00  0.00000000000E+00  0.34288983854E+03  0.34288983854E+03  0.00000000000E+00 0. -1.
         21   -1    0    0  501  502 -0.00000000000E+00 -0.00000000000E+00 -0.16305972020E+03  0.16305972020E+03  0.00000000000E+00 0. -1.
      99925    2    1    2    0    0 -0.88432251167E+01 -0.83056942533E+02  0.59285334298E+01  0.27602364095E+03  0.26301567353E+03 0.  0.
         25    1    3    3    0    0  0.34710040226E+02 -0.33298519658E+02 -0.49729518886E+01  0.13411121002E+03  0.12509000000E+03 0.  0.
         25    1    1    2    0    0  0.88432251167E+01  0.83056942533E+02  0.17390158491E+03  0.22992591778E+03  0.12509000000E+03 0.  0.
         25    1    3    3    0    0 -0.43553265342E+02 -0.49758422875E+02  0.10901485318E+02  0.14191243093E+03  0.12509000000E+03 0.  0.
<mgrwt>
<rscale>  2 0.47291234E+03</rscale>
<asrwt>0</asrwt>
<pdfrwt beam="1">  1       21 0.50424976E-01 0.47291234E+03</pdfrwt>
<pdfrwt beam="2">  1       21 0.23979371E-01 0.47291234E+03</pdfrwt>
<totfact> 0.56398341E+04</totfact>
</mgrwt>
</event>
<event>
 6    0  0.1539497E-004  0.4206891E+03  0.7546771E-02  0.1036842E+00
         21   -1    0    0  502  501  0.00000000000E+00  0.00000000000E+00  0.42665401172E+02  0.42665401172E+02  0.00000000000E+00 0.  1.
         21   -1    0    0  501  502 -0.00000000000E+00 -0.00000000000E+00 -0.10370189680E+04  0.10370189680E+04  0.00000000000E+00 0.  1.
      99925    2    1    2    0    0 -0.41094921499E+02  0.39554197719E+02 -0.51815552586E+03  0.58403791306E+03  0.26336629964E+03 0.  0.
         25    1    3    3    0    0 -0.98536657740E+01  0.12177490947E+02 -0.33852799612E+03  0.36123966874E+03  0.12509000000E+03 0.  0.
         25    1    1    2    0    0  0.41094921499E+02 -0.39554197719E+02 -0.47619804100E+03  0.49564645614E+03  0.12509000000E+03 0.  0.
         25    1    3    3    0    0 -0.31241255725E+02  0.27376706772E+02 -0.17962752973E+03  0.22279824432E+03  0.12509000000E+03 0.  0.
<mgrwt>
<rscale>  2 0.42068910E+03</rscale>
<asrwt>0</asrwt>
<pdfrwt beam="1">  1       21 0.62743237E-02 0.42068910E+03</pdfrwt>
<pdfrwt beam="2">  1       21 0.15250279E+00 0.42068910E+03</pdfrwt>
<totfact> 0.47770617E+04</totfact>
</mgrwt>
</event>
<event>
 6    0  0.1539497E-004  0.4346028E+03  0.7546771E-02  0.1032416E+00
         21   -1    0    0  502  501  0.00000000000E+00  0.00000000000E+00  0.12216866899E+04  0.12216866899E+04  0.00000000000E+00 0. -1.
         21   -1    0    0  501  502 -0.00000000000E+00 -0.00000000000E+00 -0.38651395243E+02  0.38651395243E+02  0.00000000000E+00 0. -1.
      99925    2    1    2    0    0  0.48822068200E+02 -0.61420873004E+02  0.90252479855E+03  0.94333687930E+03  0.26301585097E+03 0.  0.
         25    1    3    3    0    0 -0.11069873858E+02 -0.49542645847E+02  0.46546343096E+03  0.48464495202E+03  0.12509000000E+03 0.  0.
         25    1    1    2    0    0 -0.48822068200E+02  0.61420873004E+02  0.28051049614E+03  0.31700120588E+03  0.12509000000E+03 0.  0.
         25    1    3    3    0    0  0.59891942058E+02 -0.11878227158E+02  0.43706136759E+03  0.45869192728E+03  0.12509000000E+03 0.  0.
<mgrwt>
<rscale>  2 0.43460278E+03</rscale>
<asrwt>0</asrwt>
<pdfrwt beam="1">  1       21 0.17965978E+00 0.43460278E+03</pdfrwt>
<pdfrwt beam="2">  1       21 0.56840295E-02 0.43460278E+03</pdfrwt>
<totfact> 0.35613796E+04</totfact>
</mgrwt>
</event>
<event>
 6    0  0.1539497E-004  0.4679221E+03  0.7546771E-02  0.1022508E+00
         21   -1    0    0  502  501  0.00000000000E+00  0.00000000000E+00  0.62983448019E+03  0.62983448019E+03  0.00000000000E+00 0. -1.
         21   -1    0    0  501  502 -0.00000000000E+00 -0.00000000000E+00 -0.86908197336E+02  0.86908197336E+02  0.00000000000E+00 0. -1.
      99925    2    1    2    0    0  0.29693238869E+02 -0.86402156331E+02  0.46985523447E+03  0.54547123430E+03  0.26158727996E+03 0.  0.
         25    1    1    2    0    0 -0.29693238869E+02  0.86402156331E+02  0.73071048384E+02  0.17127144323E+03  0.12509000000E+03 0.  0.
         25    1    3    3    0    0 -0.18156231833E+02 -0.25484221850E+02  0.19639419388E+03  0.23494101772E+03  0.12509000000E+03 0.  0.
         25    1    3    3    0    0  0.47849470702E+02 -0.60917934481E+02  0.27346104059E+03  0.31053021658E+03  0.12509000000E+03 0.  0.
<mgrwt>
<rscale>  2 0.46792213E+03</rscale>
<asrwt>0</asrwt>
<pdfrwt beam="1">  1       21 0.92622716E-01 0.46792213E+03</pdfrwt>
<pdfrwt beam="2">  1       21 0.12780618E-01 0.46792213E+03</pdfrwt>
<totfact> 0.47036487E+04</totfact>
</mgrwt>
</event>
<event>
 6    0  0.1539497E-004  0.4142370E+03  0.7546771E-02  0.1038958E+00
         21   -1    0    0  502  501  0.00000000000E+00  0.00000000000E+00  0.24611774058E+04  0.24611774058E+04  0.00000000000E+00 0.  1.
         21   -1    0    0  501  502 -0.00000000000E+00 -0.00000000000E+00 -0.17429902195E+02  0.17429902195E+02  0.00000000000E+00 0.  1.
      99925    2    1    2    0    0  0.52804507262E+02  0.29580725813E+02  0.17911142268E+04  0.18113434640E+04  0.26308104461E+03 0.  0.
         25    1    3    3    0    0 -0.30835276786E+01  0.34538267741E+02  0.73594978335E+03  0.74730983654E+03  0.12509000000E+03 0.  0.
         25    1    3    3    0    0  0.55888034941E+02 -0.49575419288E+01  0.10551644434E+04  0.10640336275E+04  0.12509000000E+03 0.  0.
         25    1    1    2    0    0 -0.52804507262E+02 -0.29580725813E+02  0.65263327686E+03  0.66726384398E+03  0.12509000000E+03 0.  0.
<mgrwt>
<rscale>  2 0.41423704E+03</rscale>
<asrwt>0</asrwt>
<pdfrwt beam="1">  1       21 0.36193761E+00 0.41423704E+03</pdfrwt>
<pdfrwt beam="2">  1       21 0.25632226E-02 0.41423704E+03</pdfrwt>
<totfact> 0.10230757E+04</totfact>
</mgrwt>
</event>
<event>
 6    0  0.1539497E-004  0.4171244E+03  0.7546771E-02  0.1038006E+00
         21   -1    0    0  502  501  0.00000000000E+00  0.00000000000E+00  0.14390212763E+03  0.14390212763E+03  0.00000000000E+00 0.  1.
         21   -1    0    0  501  502 -0.00000000000E+00 -0.00000000000E+00 -0.30227618919E+03  0.30227618919E+03  0.00000000000E+00 0.  1.
      99925    2    1    2    0    0 -0.44456317143E+02  0.56059333901E+02 -0.10670029949E+03  0.29308782451E+03  0.26343216568E+03 0.  0.
         25    1    1    2    0    0  0.44456317143E+02 -0.56059333901E+02 -0.51673762071E+02  0.15309049232E+03  0.12509000000E+03 0.  0.
         25    1    3    3    0    0 -0.49663957481E+02  0.37294085341E+02 -0.88115986158E+02  0.16513416543E+03  0.12509000000E+03 0.  0.
         25    1    3    3    0    0  0.52076403389E+01  0.18765248559E+02 -0.18584313330E+02  0.12795365909E+03  0.12509000000E+03 0.  0.
<mgrwt>
<rscale>  2 0.41712438E+03</rscale>
<asrwt>0</asrwt>
<pdfrwt beam="1">  1       21 0.21162078E-01 0.41712438E+03</pdfrwt>
<pdfrwt beam="2">  1       21 0.44452381E-01 0.41712438E+03</pdfrwt>
<totfact> 0.94654626E+04</totfact>
</mgrwt>
</event>
<event>
 6    0  0.1539497E-004  0.4404547E+03  0.7546771E-02  0.1030607E+00
         21   -1    0    0  502  501  0.00000000000E+00  0.00000000000E+00  0.26655048449E+03  0.26655048449E+03  0.00000000000E+00 0.  1.
         21   -1    0    0  501  502 -0.00000000000E+00 -0.00000000000E+00 -0.18195463417E+03  0.18195463417E+03  0.00000000000E+00 0.  1.
      99925    2    1    2    0    0 -0.11746714951E+02 -0.86302973202E+02  0.10182657964E+03  0.29510826528E+03  0.26293354183E+03 0.  0.
         25    1    3    3    0    0 -0.42002421863E+02 -0.44037138364E+02  0.71025596972E+02  0.15619096172E+03  0.12509000000E+03 0.  0.
         25    1    3    3    0    0  0.30255706912E+02 -0.42265834838E+02  0.30800982671E+02  0.13891730356E+03  0.12509000000E+03 0.  0.
         25    1    1    2    0    0  0.11746714951E+02  0.86302973202E+02 -0.17230729320E+02  0.15339685339E+03  0.12509000000E+03 0.  0.
<mgrwt>
<rscale>  2 0.44045475E+03</rscale>
<asrwt>0</asrwt>
<pdfrwt beam="1">  1       21 0.39198601E-01 0.44045475E+03</pdfrwt>
<pdfrwt beam="2">  1       21 0.26758034E-01 0.44045475E+03</pdfrwt>
<totfact> 0.77646781E+04</totfact>
</mgrwt>
</event>
<event>
 6    0  0.1539497E-004  0.5032986E+03  0.7546771E-02  0.1012921E+00
         21   -1    0    0  502  501  0.00000000000E+00  0.00000000000E+00  0.50513951645E+02  0.50513951645E+02  0.00000000000E+00 0. -1.
         21   -1    0    0  501  502 -0.00000000000E+00 -0.00000000000E+00 -0.12536611817E+04  0.12536611817E+04  0.00000000000E+00 0. -1.
      99925    2    1    2    0    0 -0.12658096282E+03  0.59229744859E+02 -0.56065730861E+03  0.63486824552E+03  0.26304024151E+03 0.  0.
         25    1    1    2    0    0  0.12658096282E+03 -0.59229744859E+02 -0.64248992143E+03  0.66930688781E+03  0.12509000000E+03 0.  0.
         25    1    3    3    0    0 -0.89153076213E+02  0.47902131269E+02 -0.37039184721E+03  0.40383228419E+03  0.12509000000E+03 0.  0.
         25    1    3    3    0    0 -0.37427886606E+02  0.11327613590E+02 -0.19026546140E+03  0.23103596133E+03  0.12509000000E+03 0.  0.
<mgrwt>
<rscale>  2 0.50329864E+03</rscale>
<asrwt>0</asrwt>
<pdfrwt beam="1">  1       21 0.74285220E-02 0.50329864E+03</pdfrwt>
<pdfrwt beam="2">  1       21 0.18436195E+00 0.50329864E+03</pdfrwt>
<totfact> 0.20247844E+04</totfact>
</mgrwt>
</event>
<event>
 6    0  0.1539497E-004  0.4170962E+03  0.7546771E-02  0.1038016E+00
         21   -1    0    0  502  501  0.00000000000E+00  0.00000000000E+00  0.35557649930E+03  0.35557649930E+03  0.00000000000E+00 0. -1.
         21   -1    0    0  501  502 -0.00000000000E+00 -0.00000000000E+00 -0.12231493676E+03  0.12231493676E+03  0.00000000000E+00 0. -1.
      99925    2    1    2    0    0 -0.45052903005E+02 -0.44355762100E+02  0.19251118667E+03  0.33192808815E+03  0.26290397678E+03 0.  0.
         25    1    1    2    0    0  0.45052903005E+02  0.44355762100E+02  0.40750375859E+02  0.14596334791E+03  0.12509000000E+03 0.  0.
         25    1    3    3    0    0 -0.51329489168E+02 -0.37836981455E+02  0.71143660019E+02  0.15740165846E+03  0.12509000000E+03 0.  0.
         25    1    3    3    0    0  0.62765861627E+01 -0.65187806453E+01  0.12136752665E+03  0.17452642969E+03  0.12509000000E+03 0.  0.
<mgrwt>
<rscale>  2 0.41709623E+03</rscale>
<asrwt>0</asrwt>
<pdfrwt beam="1">  1       21 0.52290661E-01 0.41709623E+03</pdfrwt>
<pdfrwt beam="2">  1       21 0.17987491E-01 0.41709623E+03</pdfrwt>
<totfact> 0.91407388E+04</totfact>
</mgrwt>
</event>
<event>
 6    0  0.1539497E-004  0.4295496E+03  0.7546771E-02  0.1034002E+00
         21   -1    0    0  502  501  0.00000000000E+00  0.00000000000E+00  0.35603985300E+03  0.35603985300E+03  0.00000000000E+00 0.  1.
         21   -1    0    0  501  502 -0.00000000000E+00 -0.00000000000E+00 -0.12955913666E+03  0.12955913666E+03  0.00000000000E+00 0.  1.
      99925    2    1    2    0    0 -0.34050953002E+02 -0.35777040208E+02  0.64852528561E+02  0.27533571852E+03  0.26299133717E+03 0.  0.
         25    1    1    2    0    0  0.34050953002E+02  0.35777040208E+02  0.16162818777E+03  0.21026327114E+03  0.12509000000E+03 0.  0.
         25    1    3    3    0    0  0.83553731847E+01  0.14529128504E+02  0.28130938347E+02  0.12930493273E+03  0.12509000000E+03 0.  0.
         25    1    3    3    0    0 -0.42406326187E+02 -0.50306168712E+02  0.36721590214E+02  0.14603078579E+03  0.12509000000E+03 0.  0.
<mgrwt>
<rscale>  2 0.42954961E+03</rscale>
<asrwt>0</asrwt>
<pdfrwt beam="1">  1       21 0.52358802E-01 0.42954961E+03</pdfrwt>
<pdfrwt beam="2">  1       21 0.19052814E-01 0.42954961E+03</pdfrwt>
<totfact> 0.81569143E+04</totfact>
</mgrwt>
</event>
<event>
 6    0  0.1539497E-004  0.5159756E+03  0.7546771E-02  0.1009691E+00
         21   -1    0    0  502  501  0.00000000000E+00  0.00000000000E+00  0.17804919643E+03  0.17804919643E+03  0.00000000000E+00 0. -1.
         21   -1    0    0  501  502 -0.00000000000E+00 -0.00000000000E+00 -0.37381635762E+03  0.37381635762E+03  0.00000000000E+00 0. -1.
      99925    2    1    2    0    0  0.12698313107E+03 -0.47061612105E+02 -0.21615775703E+03  0.36638564837E+03  0.26301094369E+03 0.  0.
         25    1    3    3    0    0  0.85155773548E+02 -0.46981488783E+02 -0.15255738117E+03  0.21995460601E+03  0.12509000000E+03 0.  0.
         25    1    1    2    0    0 -0.12698313107E+03  0.47061612105E+02  0.20390595838E+02  0.18547990567E+03  0.12509000000E+03 0.  0.
         25    1    3    3    0    0  0.41827357523E+02 -0.80123322314E-01 -0.63600375862E+02  0.14643104236E+03  0.12509000000E+03 0.  0.
<mgrwt>
<rscale>  2 0.51597559E+03</rscale>
<asrwt>0</asrwt>
<pdfrwt beam="1">  1       21 0.26183706E-01 0.51597559E+03</pdfrwt>
<pdfrwt beam="2">  1       21 0.54972992E-01 0.51597559E+03</pdfrwt>
<totfact> 0.39127033E+04</totfact>
</mgrwt>
</event>
<event>
 6    0  0.1539497E-004  0.3993214E+03  0.7546771E-02  0.1044015E+00
         21   -1    0    0  502  501  0.00000000000E+00  0.00000000000E+00  0.49205388083E+03  0.49205388083E+03  0.00000000000E+00 0. -1.
         21   -1    0    0  501  502 -0.00000000000E+00 -0.00000000000E+00 -0.81016316101E+02  0.81016316101E+02  0.00000000000E+00 0. -1.
      99925    2    1    2    0    0  0.30701333387E+02 -0.22306356174E+02  0.30333493109E+03  0.40369631822E+03  0.26366359538E+03 0.  0.
         25    1    3    3    0    0 -0.19676023709E+02 -0.35126164636E+01  0.17915279676E+03  0.21941448692E+03  0.12509000000E+03 0.  0.
         25    1    1    2    0    0 -0.30701333387E+02  0.22306356174E+02  0.10770263364E+03  0.16937387872E+03  0.12509000000E+03 0.  0.
         25    1    3    3    0    0  0.50377357095E+02 -0.18793739710E+02  0.12418213433E+03  0.18428183130E+03  0.12509000000E+03 0.  0.
<mgrwt>
<rscale>  2 0.39932139E+03</rscale>
<asrwt>0</asrwt>
<pdfrwt beam="1">  1       21 0.72360863E-01 0.39932139E+03</pdfrwt>
<pdfrwt beam="2">  1       21 0.11914164E-01 0.39932139E+03</pdfrwt>
<totfact> 0.96228343E+04</totfact>
</mgrwt>
</event>
<event>
 6    0  0.1539497E-004  0.4051025E+03  0.7546771E-02  0.1042027E+00
         21   -1    0    0  502  501  0.00000000000E+00  0.00000000000E+00  0.29329764748E+02  0.29329764748E+02  0.00000000000E+00 0. -1.
         21   -1    0    0  501  502 -0.00000000000E+00 -0.00000000000E+00 -0.13988181220E+04  0.13988181220E+04  0.00000000000E+00 0. -1.
      99925    2    1    2    0    0  0.16803275610E+01 -0.24591398921E+02 -0.73641470220E+03  0.78236361842E+03  0.26301835945E+03 0.  0.
         25    1    3    3    0    0  0.54292974617E+01  0.26082445349E+02 -0.32019877949E+03  0.34479637137E+03  0.12509000000E+03 0.  0.
         25    1    3    3    0    0 -0.37489699007E+01 -0.50673844270E+02 -0.41621592272E+03  0.43756724705E+03  0.12509000000E+03 0.  0.
         25    1    1    2    0    0 -0.16803275610E+01  0.24591398921E+02 -0.63307365508E+03  0.64578426836E+03  0.12509000000E+03 0.  0.
<mgrwt>
<rscale>  2 0.40510249E+03</rscale>
<asrwt>0</asrwt>
<pdfrwt beam="1">  1       21 0.43131989E-02 0.40510249E+03</pdfrwt>
<pdfrwt beam="2">  1       21 0.20570863E+00 0.40510249E+03</pdfrwt>
<totfact> 0.38492478E+04</totfact>
</mgrwt>
</event>
<event>
 6    0  0.1539497E-004  0.4032230E+03  0.7546771E-02  0.1042669E+00
         21   -1    0    0  502  501  0.00000000000E+00  0.00000000000E+00  0.10753612736E+03  0.10753612736E+03  0.00000000000E+00 0.  1.
         21   -1    0    0  501  502 -0.00000000000E+00 -0.00000000000E+00 -0.37798635448E+03  0.37798635448E+03  0.00000000000E+00 0.  1.
      99925    2    1    2    0    0 -0.46953286788E+02 -0.12465370241E+02 -0.16335766993E+03  0.31383578900E+03  0.26352832397E+03 0.  0.
         25    1    3    3    0    0 -0.55730429292E+02  0.18620816471E+02 -0.94662202268E+02  0.16751434623E+03  0.12509000000E+03 0.  0.
         25    1    3    3    0    0  0.87771425033E+01 -0.31086186712E+02 -0.68695467665E+02  0.14632144276E+03  0.12509000000E+03 0.  0.
         25    1    1    2    0    0  0.46953286788E+02  0.12465370241E+02 -0.10709255718E+03  0.17168669284E+03  0.12509000000E+03 0.  0.
<mgrwt>
<rscale>  2 0.40322296E+03</rscale>
<asrwt>0</asrwt>
<pdfrwt beam="1">  1       21 0.15814136E-01 0.40322296E+03</pdfrwt>
<pdfrwt beam="2">  1       21 0.55586229E-01 0.40322296E+03</pdfrwt>
<totfact> 0.10227760E+05</totfact>
</mgrwt>
</event>
<event>
 6    0  0.1539497E-004  0.4931019E+03  0.7546771E-02  0.1015595E+00
         21   -1    0    0  502  501  0.00000000000E+00  0.00000000000E+00  0.58059802163E+03  0.58059802163E+03  0.00000000000E+00 0.  1.
         21   -1    0    0  501  502 -0.00000000000E+00 -0.00000000000E+00 -0.10469786101E+03  0.10469786101E+03  0.00000000000E+00 0.  1.
      99925    2    1    2    0    0  0.13463930519E+03 -0.48806596695E+02  0.25037979236E+03  0.39030983045E+03  0.26294846822E+03 0.  0.
         25    1    3    3    0    0  0.63649538752E+02  0.79329625928E+00  0.16206428899E+03  0.21439271202E+03  0.12509000000E+03 0.  0.
         25    1    1    2    0    0 -0.13463930519E+03  0.48806596695E+02  0.22552036826E+03  0.29498605219E+03  0.12509000000E+03 0.  0.
         25    1    3    3    0    0  0.70989766437E+02 -0.49599892954E+02  0.88315503369E+02  0.17591711843E+03  0.12509000000E+03 0.  0.
<mgrwt>
<rscale>  2 0.49310190E+03</rscale>
<asrwt>0</asrwt>
<pdfrwt beam="1">  1       21 0.85382061E-01 0.49310190E+03</pdfrwt>
<pdfrwt beam="2">  1       21 0.15396744E-01 0.49310190E+03</pdfrwt>
<totfact> 0.40205083E+04</totfact>
</mgrwt>
</event>
<event>
 6    0  0.1539497E-004  0.4396930E+03  0.7546771E-02  0.1030841E+00
         21   -1    0    0  502  501  0.00000000000E+00  0.00000000000E+00  0.64868354686E+02  0.64868354686E+02  0.00000000000E+00 0.  1.
         21   -1    0    0  501  502 -0.00000000000E+00 -0.00000000000E+00 -0.74508570560E+03  0.74508570560E+03  0.00000000000E+00 0.  1.
      99925    2    1    2    0    0 -0.10497067564E+01  0.56441248820E+02 -0.28797668501E+03  0.39439784923E+03  0.26350023894E+03 0.  0.
         25    1    3    3    0    0 -0.91194130793E+01 -0.11783762679E+02 -0.12000118286E+03  0.17398221963E+03  0.12509000000E+03 0.  0.
         25    1    1    2    0    0  0.10497067564E+01 -0.56441248820E+02 -0.39224066591E+03  0.41555621105E+03  0.12509000000E+03 0.  0.
         25    1    3    3    0    0  0.80697063228E+01  0.68225011499E+02 -0.16797550214E+03  0.22041562960E+03  0.12509000000E+03 0.  0.
<mgrwt>
<rscale>  2 0.43969300E+03</rscale>
<asrwt>0</asrwt>
<pdfrwt beam="1">  1       21 0.95394637E-02 0.43969300E+03</pdfrwt>
<pdfrwt beam="2">  1       21 0.10957143E+00 0.43969300E+03</pdfrwt>
<totfact> 0.53420641E+04</totfact>
</mgrwt>
</event>
<event>
 5    0  0.2407817E-004  0.6199962E+03  0.7546771E-02  0.9864767E-01
         21   -1    0    0  502  501  0.00000000000E+00  0.00000000000E+00  0.68914166175E+03  0.68914166175E+03  0.00000000000E+00 0.  1.
         21   -1    0    0  501  502 -0.00000000000E+00 -0.00000000000E+00 -0.13944713450E+03  0.13944713450E+03  0.00000000000E+00 0.  1.
         25    1    1    2    0    0 -0.29302117996E+02  0.63879328963E+02  0.51486327412E+02  0.15243861977E+03  0.12509000000E+03 0.  0.
         25    1    1    2    0    0  0.12745213247E+03 -0.11711579724E+03  0.45556482956E+03  0.50313713644E+03  0.12509000000E+03 0.  0.
         25    1    1    2    0    0 -0.98150014471E+02  0.53236468278E+02  0.42643370276E+02  0.17301304004E+03  0.12509000000E+03 0.  0.
<mgrwt>
<rscale>  2 0.61999623E+03</rscale>
<asrwt>0</asrwt>
<pdfrwt beam="1">  1       21 0.10134436E+00 0.61999623E+03</pdfrwt>
<pdfrwt beam="2">  1       21 0.20506932E-01 0.61999623E+03</pdfrwt>
<totfact> 0.15099189E+04</totfact>
</mgrwt>
</event>
<event>
 5    0  0.1539497E-004  0.4047093E+03  0.7546771E-02  0.1042161E+00
         21   -1    0    0  502  501  0.00000000000E+00  0.00000000000E+00  0.45299315606E+03  0.45299315606E+03  0.00000000000E+00 0. -1.
         21   -1    0    0  501  502 -0.00000000000E+00 -0.00000000000E+00 -0.90392973298E+02  0.90392973298E+02  0.00000000000E+00 0. -1.
         25    1    1    2    0    0  0.11671666691E+02  0.62446537682E+02  0.14898326439E+03  0.20464437212E+03  0.12509000000E+03 0.  0.
         25    1    1    2    0    0 -0.41331461504E+01 -0.12713001350E+02  0.12536000845E+03  0.17759882635E+03  0.12509000000E+03 0.  0.
         25    1    1    2    0    0 -0.75385205406E+01 -0.49733536332E+02  0.88256909919E+02  0.16114293089E+03  0.12509000000E+03 0.  0.
<mgrwt>
<rscale>  2 0.40470927E+03</rscale>
<asrwt>0</asrwt>
<pdfrwt beam="1">  1       21 0.66616640E-01 0.40470927E+03</pdfrwt>
<pdfrwt beam="2">  1       21 0.13293085E-01 0.40470927E+03</pdfrwt>
<totfact> 0.94748553E+04</totfact>
</mgrwt>
</event>
<event>
 6    0  0.1539497E-004  0.4972091E+03  0.7546771E-02  0.1014510E+00
         21   -1    0    0  502  501  0.00000000000E+00  0.00000000000E+00  0.29880129626E+03  0.29880129626E+03  0.00000000000E+00 0.  1.
         21   -1    0    0  501  502 -0.00000000000E+00 -0.00000000000E+00 -0.20684053142E+03  0.20684053142E+03  0.00000000000E+00 0.  1.
      99925    2    1    2    0    0  0.44628542834E+02  0.57321268633E+02  0.18857915414E+03  0.33168765003E+03  0.26301552260E+03 0.  0.
         25    1    1    2    0    0 -0.44628542834E+02 -0.57321268633E+02 -0.96618389304E+02  0.17395417766E+03  0.12509000000E+03 0.  0.
         25    1    3    3    0    0  0.62647162246E+02  0.29527162209E+02  0.10879292985E+03  0.17966616245E+03  0.12509000000E+03 0.  0.
         25    1    3    3    0    0 -0.18018619412E+02  0.27794106425E+02  0.79786224296E+02  0.15202148758E+03  0.12509000000E+03 0.  0.
<mgrwt>
<rscale>  2 0.49720909E+03</rscale>
<asrwt>0</asrwt>
<pdfrwt beam="1">  1       21 0.43941367E-01 0.49720909E+03</pdfrwt>
<pdfrwt beam="2">  1       21 0.30417725E-01 0.49720909E+03</pdfrwt>
<totfact> 0.47023580E+04</totfact>
</mgrwt>
</event>
<event>
 6    0  0.1539497E-004  0.4144287E+03  0.7546771E-02  0.1038895E+00
         21   -1    0    0  502  501  0.00000000000E+00  0.00000000000E+00  0.48387769072E+03  0.48387769072E+03  0.00000000000E+00 0. -1.
         21   -1    0    0  501  502 -0.00000000000E+00 -0.00000000000E+00 -0.88736875179E+02  0.88736875179E+02  0.00000000000E+00 0. -1.
      99925    2    1    2    0    0 -0.37625948809E+02 -0.19917683005E+01  0.18009305731E+03  0.32099436483E+03  0.26302888396E+03 0.  0.
         25    1    3    3    0    0 -0.14841805152E+02  0.35036642672E+02  0.11159715311E+03  0.17189903488E+03  0.12509000000E+03 0.  0.
         25    1    3    3    0    0 -0.22784143657E+02 -0.37028410973E+02  0.68495904197E+02  0.14909532995E+03  0.12509000000E+03 0.  0.
         25    1    1    2    0    0  0.37625948809E+02  0.19917683005E+01  0.21504775823E+03  0.25162020106E+03  0.12509000000E+03 0.  0.
<mgrwt>
<rscale>  2 0.41442874E+03</rscale>
<asrwt>0</asrwt>
<pdfrwt beam="1">  1       21 0.71158483E-01 0.41442874E+03</pdfrwt>
<pdfrwt beam="2">  1       21 0.13049541E-01 0.41442874E+03</pdfrwt>
<totfact> 0.84376473E+04</totfact>
</mgrwt>
</event>
<event>
 5    0  0.1802715E-004  0.4133840E+03  0.7546771E-02  0.1039241E+00
         21   -1    0    0  502  501  0.00000000000E+00  0.00000000000E+00  0.13085349065E+03  0.13085349065E+03  0.00000000000E+00 0.  1.
         21   -1    0    0  501  502 -0.00000000000E+00 -0.00000000000E+00 -0.32648414429E+03  0.32648414429E+03  0.00000000000E+00 0.  1.
         25    1    1    2    0    0 -0.44147573247E+02  0.42576442625E+02 -0.87667864123E+02  0.16460535893E+03  0.12509000000E+03 0.  0.
         25    1    1    2    0    0 -0.11360856931E+02 -0.49430627133E+02 -0.49806277829E+02  0.14387713293E+03  0.12509000000E+03 0.  0.
         25    1    1    2    0    0  0.55508430179E+02  0.68541845077E+01 -0.58156511687E+02  0.14885514307E+03  0.12509000000E+03 0.  0.
<mgrwt>
<rscale>  2 0.41338403E+03</rscale>
<asrwt>0</asrwt>
<pdfrwt beam="1">  1       21 0.19243161E-01 0.41338403E+03</pdfrwt>
<pdfrwt beam="2">  1       21 0.48012373E-01 0.41338403E+03</pdfrwt>
<totfact> 0.96551564E+04</totfact>
</mgrwt>
</event>
<event>
 6    0  0.1539497E-004  0.4604995E+03  0.7546771E-02  0.1024636E+00
         21   -1    0    0  502  501  0.00000000000E+00  0.00000000000E+00  0.12407500946E+03  0.12407500946E+03  0.00000000000E+00 0.  1.
         21   -1    0    0  501  502 -0.00000000000E+00 -0.00000000000E+00 -0.42728148688E+03  0.42728148688E+03  0.00000000000E+00 0.  1.
      99925    2    1    2    0    0  0.59456875978E+02  0.84911448308E+02 -0.25802365608E+03  0.38273244823E+03  0.26298829950E+03 0.  0.
         25    1    1    2    0    0 -0.59456875978E+02 -0.84911448308E+02 -0.45182821344E+02  0.16862404811E+03  0.12509000000E+03 0.  0.
         25    1    3    3    0    0 -0.77298676952E+01  0.58263254966E+02 -0.12617796362E+03  0.18714364627E+03  0.12509000000E+03 0.  0.
         25    1    3    3    0    0  0.67186743673E+02  0.26648193343E+02 -0.13184569245E+03  0.19558880196E+03  0.12509000000E+03 0.  0.
<mgrwt>
<rscale>  2 0.46049953E+03</rscale>
<asrwt>0</asrwt>
<pdfrwt beam="1">  1       21 0.18246325E-01 0.46049953E+03</pdfrwt>
<pdfrwt beam="2">  1       21 0.62835513E-01 0.46049953E+03</pdfrwt>
<totfact> 0.59160509E+04</totfact>
</mgrwt>
</event>
<event>
 6    0  0.1539497E-004  0.4286428E+03  0.7546771E-02  0.1034290E+00
         21   -1    0    0  502  501  0.00000000000E+00  0.00000000000E+00  0.17523734761E+04  0.17523734761E+04  0.00000000000E+00 0.  1.
         21   -1    0    0  501  502 -0.00000000000E+00 -0.00000000000E+00 -0.26212259878E+02  0.26212259878E+02  0.00000000000E+00 0.  1.
      99925    2    1    2    0    0  0.36143428078E+01 -0.46363500705E+02  0.81454665854E+03  0.85725449937E+03  0.26312806783E+03 0.  0.
         25    1    1    2    0    0 -0.36143428078E+01  0.46363500705E+02  0.91161455767E+03  0.92133123659E+03  0.12509000000E+03 0.  0.
         25    1    3    3    0    0  0.22776394039E+02 -0.48129588317E+02  0.34140090941E+03  0.36747423099E+03  0.12509000000E+03 0.  0.
         25    1    3    3    0    0 -0.19162051231E+02  0.17660876117E+01  0.47314574913E+03  0.48978026837E+03  0.12509000000E+03 0.  0.
<mgrwt>
<rscale>  2 0.42864283E+03</rscale>
<asrwt>0</asrwt>
<pdfrwt beam="1">  1       21 0.25770190E+00 0.42864283E+03</pdfrwt>
<pdfrwt beam="2">  1       21 0.38547453E-02 0.42864283E+03</pdfrwt>
<totfact> 0.21805799E+04</totfact>
</mgrwt>
</event>
<event>
 6    0  0.1539497E-004  0.4624934E+03  0.7546771E-02  0.1024061E+00
         21   -1    0    0  502  501  0.00000000000E+00  0.00000000000E+00  0.11167267747E+03  0.11167267747E+03  0.00000000000E+00 0. -1.
         21   -1    0    0  501  502 -0.00000000000E+00 -0.00000000000E+00 -0.47885519438E+03  0.47885519438E+03  0.00000000000E+00 0. -1.
      99925    2    1    2    0    0 -0.95757421752E+02  0.71852869063E+02 -0.21779159721E+03  0.36184146298E+03  0.26299001103E+03 0.  0.
         25    1    1    2    0    0  0.95757421752E+02 -0.71852869063E+02 -0.14939091971E+03  0.22868640887E+03  0.12509000000E+03 0.  0.
         25    1    3    3    0    0 -0.20183643470E+02  0.28548902950E+02 -0.62136382793E+02  0.14398214296E+03  0.12509000000E+03 0.  0.
         25    1    3    3    0    0 -0.75573778282E+02  0.43303966113E+02 -0.15565521442E+03  0.21785932002E+03  0.12509000000E+03 0.  0.
<mgrwt>
<rscale>  2 0.46249342E+03</rscale>
<asrwt>0</asrwt>
<pdfrwt beam="1">  1       21 0.16422453E-01 0.46249342E+03</pdfrwt>
<pdfrwt beam="2">  1       21 0.70419881E-01 0.46249342E+03</pdfrwt>
<totfact> 0.55881259E+04</totfact>
</mgrwt>
</event>
<event>
 6    0  0.1539497E-004  0.4015907E+03  0.7546771E-02  0.1043230E+00
         21   -1    0    0  502  501  0.00000000000E+00  0.00000000000E+00  0.64757299010E+02  0.64757299010E+02  0.00000000000E+00 0.  1.
         21   -1    0    0  501  502 -0.00000000000E+00 -0.00000000000E+00 -0.62261369905E+03  0.62261369905E+03  0.00000000000E+00 0.  1.
      99925    2    1    2    0    0  0.12347322993E+02 -0.41665547548E+02 -0.33360505633E+03  0.42693934197E+03  0.26286192930E+03 0.  0.
         25    1    1    2    0    0 -0.12347322993E+02  0.41665547548E+02 -0.22425134371E+03  0.26043165609E+03  0.12509000000E+03 0.  0.
         25    1    3    3    0    0  0.54466157392E-02 -0.61141039724E+02 -0.17430715166E+03  0.22308903601E+03  0.12509000000E+03 0.  0.
         25    1    3    3    0    0  0.12341876378E+02  0.19475492176E+02 -0.15929790467E+03  0.20385030596E+03  0.12509000000E+03 0.  0.
<mgrwt>
<rscale>  2 0.40159074E+03</rscale>
<asrwt>0</asrwt>
<pdfrwt beam="1">  1       21 0.95231324E-02 0.40159074E+03</pdfrwt>
<pdfrwt beam="2">  1       21 0.91560837E-01 0.40159074E+03</pdfrwt>
<totfact> 0.83573027E+04</totfact>
</mgrwt>
</event>
<event>
 5    0  0.1539497E-004  0.4357222E+03  0.7546771E-02  0.1032067E+00
         21   -1    0    0  502  501  0.00000000000E+00  0.00000000000E+00  0.26705157166E+03  0.26705157166E+03  0.00000000000E+00 0.  1.
         21   -1    0    0  501  502 -0.00000000000E+00 -0.00000000000E+00 -0.17773145273E+03  0.17773145273E+03  0.00000000000E+00 0.  1.
         25    1    1    2    0    0  0.37664835538E+02 -0.14386600443E+02  0.31180364051E+02  0.13507530237E+03  0.12509000000E+03 0.  0.
         25    1    1    2    0    0  0.21645991573E+02  0.36174556479E+02 -0.40793884321E+02  0.13816221113E+03  0.12509000000E+03 0.  0.
         25    1    1    2    0    0 -0.59310827110E+02 -0.21787956036E+02  0.98933639195E+02  0.17154551089E+03  0.12509000000E+03 0.  0.
<mgrwt>
<rscale>  2 0.43572222E+03</rscale>
<asrwt>0</asrwt>
<pdfrwt beam="1">  1       21 0.39272290E-01 0.43572222E+03</pdfrwt>
<pdfrwt beam="2">  1       21 0.26136978E-01 0.43572222E+03</pdfrwt>
<totfact> 0.81060919E+04</totfact>
</mgrwt>
</event>
<event>
 6    0  0.1539497E-004  0.4364253E+03  0.7546771E-02  0.1031849E+00
         21   -1    0    0  502  501  0.00000000000E+00  0.00000000000E+00  0.83796152212E+03  0.83796152212E+03  0.00000000000E+00 0. -1.
         21   -1    0    0  501  502 -0.00000000000E+00 -0.00000000000E+00 -0.56824527031E+02  0.56824527031E+02  0.00000000000E+00 0. -1.
      99925    2    1    2    0    0  0.46171952685E+02  0.18778694782E+02  0.66550053636E+03  0.71729298653E+03  0.26293302575E+03 0.  0.
         25    1    3    3    0    0  0.33691231748E+01  0.41133693289E+02  0.28823295025E+03  0.31690546449E+03  0.12509000000E+03 0.  0.
         25    1    3    3    0    0  0.42802829511E+02 -0.22354998506E+02  0.37726758611E+03  0.40038752204E+03  0.12509000000E+03 0.  0.
         25    1    1    2    0    0 -0.46171952685E+02 -0.18778694782E+02  0.11563645873E+03  0.17749306262E+03  0.12509000000E+03 0.  0.
<mgrwt>
<rscale>  2 0.43642533E+03</rscale>
<asrwt>0</asrwt>
<pdfrwt beam="1">  1       21 0.12322963E+00 0.43642533E+03</pdfrwt>
<pdfrwt beam="2">  1       21 0.83565486E-02 0.43642533E+03</pdfrwt>
<totfact> 0.50396682E+04</totfact>
</mgrwt>
</event>
<event>
 6    0  0.1539497E-004  0.4585129E+03  0.7546771E-02  0.1025213E+00
         21   -1    0    0  502  501  0.00000000000E+00  0.00000000000E+00  0.64156894216E+02  0.64156894216E+02  0.00000000000E+00 0.  1.
         21   -1    0    0  501  502 -0.00000000000E+00 -0.00000000000E+00 -0.81921860065E+03  0.81921860065E+03  0.00000000000E+00 0.  1.
      99925    2    1    2    0    0  0.54271290615E+02  0.22077069840E+02 -0.28032029566E+03  0.38894684966E+03  0.26318703179E+03 0.  0.
         25    1    3    3    0    0  0.61553328373E+02  0.31892082097E+02 -0.16523080839E+03  0.21852836263E+03  0.12509000000E+03 0.  0.
         25    1    1    2    0    0 -0.54271290615E+02 -0.22077069840E+02 -0.47474141078E+03  0.49442864522E+03  0.12509000000E+03 0.  0.
         25    1    3    3    0    0 -0.72820377588E+01 -0.98150122576E+01 -0.11508948727E+03  0.17041848702E+03  0.12509000000E+03 0.  0.
<mgrwt>
<rscale>  2 0.45851291E+03</rscale>
<asrwt>0</asrwt>
<pdfrwt beam="1">  1       21 0.94348382E-02 0.45851291E+03</pdfrwt>
<pdfrwt beam="2">  1       21 0.12047331E+00 0.45851291E+03</pdfrwt>
<totfact> 0.42771410E+04</totfact>
</mgrwt>
</event>
<event>
 6    0  0.1539497E-004  0.4196712E+03  0.7546771E-02  0.1037173E+00
         21   -1    0    0  502  501  0.00000000000E+00  0.00000000000E+00  0.26547396077E+03  0.26547396077E+03  0.00000000000E+00 0. -1.
         21   -1    0    0  501  502 -0.00000000000E+00 -0.00000000000E+00 -0.16585803171E+03  0.16585803171E+03  0.00000000000E+00 0. -1.
      99925    2    1    2    0    0 -0.49637800266E+02  0.45356170516E+02  0.28371754533E+02  0.27244733645E+03  0.26249095464E+03 0.  0.
         25    1    3    3    0    0 -0.12405415734E+02  0.56618146880E+02 -0.23854865082E+01  0.13788657491E+03  0.12509000000E+03 0.  0.
         25    1    3    3    0    0 -0.37232384532E+02 -0.11261976364E+02  0.30757241042E+02  0.13456076154E+03  0.12509000000E+03 0.  0.
         25    1    1    2    0    0  0.49637800266E+02 -0.45356170516E+02  0.71244174526E+02  0.15888465603E+03  0.12509000000E+03 0.  0.
<mgrwt>
<rscale>  2 0.41967125E+03</rscale>
<asrwt>0</asrwt>
<pdfrwt beam="1">  1       21 0.39040288E-01 0.41967125E+03</pdfrwt>
<pdfrwt beam="2">  1       21 0.24390887E-01 0.41967125E+03</pdfrwt>
<totfact> 0.94168938E+04</totfact>
</mgrwt>
</event>
<event>
 6    0  0.1539497E-004  0.4101277E+03  0.7546771E-02  0.1040328E+00
         21   -1    0    0  502  501  0.00000000000E+00  0.00000000000E+00  0.17147062068E+03  0.17147062068E+03  0.00000000000E+00 0.  1.
         21   -1    0    0  501  502 -0.00000000000E+00 -0.00000000000E+00 -0.24523842885E+03  0.24523842885E+03  0.00000000000E+00 0.  1.
      99925    2    1    2    0    0 -0.50426619340E+02 -0.17081144518E+02 -0.81366786772E+02  0.28054788763E+03  0.26315765964E+03 0.  0.
         25    1    1    2    0    0  0.50426619340E+02  0.17081144518E+02  0.75989786031E+01  0.13616116191E+03  0.12509000000E+03 0.  0.
         25    1    3    3    0    0 -0.61943658396E+02  0.92521481704E+01 -0.36425283416E+02  0.14455769932E+03  0.12509000000E+03 0.  0.
         25    1    3    3    0    0  0.11517039056E+02 -0.26333292688E+02 -0.44941503356E+02  0.13599018831E+03  0.12509000000E+03 0.  0.
<mgrwt>
<rscale>  2 0.41012771E+03</rscale>
<asrwt>0</asrwt>
<pdfrwt beam="1">  1       21 0.25216268E-01 0.41012771E+03</pdfrwt>
<pdfrwt beam="2">  1       21 0.36064475E-01 0.41012771E+03</pdfrwt>
<totfact> 0.10395847E+05</totfact>
</mgrwt>
</event>
<event>
 6    0  0.1539497E-004  0.4221587E+03  0.7546771E-02  0.1036366E+00
         21   -1    0    0  502  501  0.00000000000E+00  0.00000000000E+00  0.29825559635E+03  0.29825559635E+03  0.00000000000E+00 0. -1.
         21   -1    0    0  501  502 -0.00000000000E+00 -0.00000000000E+00 -0.14938356666E+03  0.14938356666E+03  0.00000000000E+00 0. -1.
      99925    2    1    2    0    0  0.34740752132E+02  0.66784186908E+02  0.73263479444E+02  0.28322745889E+03  0.26302701110E+03 0.  0.
         25    1    1    2    0    0 -0.34740752132E+02 -0.66784186908E+02  0.75608550253E+02  0.16441170412E+03  0.12509000000E+03 0.  0.
         25    1    3    3    0    0  0.34211180147E+02  0.12547548812E+02  0.41209247916E+01  0.13035465450E+03  0.12509000000E+03 0.  0.
         25    1    3    3    0    0  0.52957198471E+00  0.54236638096E+02  0.69142554653E+02  0.15287280439E+03  0.12509000000E+03 0.  0.
<mgrwt>
<rscale>  2 0.42215867E+03</rscale>
<asrwt>0</asrwt>
<pdfrwt beam="1">  1       21 0.43861117E-01 0.42215867E+03</pdfrwt>
<pdfrwt beam="2">  1       21 0.21968172E-01 0.42215867E+03</pdfrwt>
<totfact> 0.90521217E+04</totfact>
</mgrwt>
</event>
<event>
 6    0  0.1539497E-004  0.4699720E+03  0.7546771E-02  0.1021928E+00
         21   -1    0    0  502  501  0.00000000000E+00  0.00000000000E+00  0.54435313187E+03  0.54435313187E+03  0.00000000000E+00 0.  1.
         21   -1    0    0  501  502 -0.00000000000E+00 -0.00000000000E+00 -0.10143858012E+03  0.10143858012E+03  0.00000000000E+00 0.  1.
      99925    2    1    2    0    0 -0.91962202421E+02  0.71635422345E+01  0.15554664933E+03  0.31908667308E+03  0.26289386034E+03 0.  0.
         25    1    1    2    0    0  0.91962202421E+02 -0.71635422345E+01  0.28736790242E+03  0.32670503891E+03  0.12509000000E+03 0.  0.
         25    1    3    3    0    0 -0.31115758044E+02  0.10854553084E+02  0.11767165288E+03  0.17487177506E+03  0.12509000000E+03 0.  0.
         25    1    3    3    0    0 -0.60846444376E+02 -0.36910108490E+01  0.37874996457E+02  0.14421489802E+03  0.12509000000E+03 0.  0.
<mgrwt>
<rscale>  2 0.46997195E+03</rscale>
<asrwt>0</asrwt>
<pdfrwt beam="1">  1       21 0.80051930E-01 0.46997195E+03</pdfrwt>
<pdfrwt beam="2">  1       21 0.14917438E-01 0.46997195E+03</pdfrwt>
<totfact> 0.49795556E+04</totfact>
</mgrwt>
</event>
<event>
 6    0  0.1539497E-004  0.4619030E+03  0.7546771E-02  0.1024231E+00
         21   -1    0    0  502  501  0.00000000000E+00  0.00000000000E+00  0.23907898844E+03  0.23907898844E+03  0.00000000000E+00 0.  1.
         21   -1    0    0  501  502 -0.00000000000E+00 -0.00000000000E+00 -0.22310029356E+03  0.22310029356E+03  0.00000000000E+00 0.  1.
      99925    2    1    2    0    0  0.88508350731E+02 -0.79066004402E+02 -0.38630888229E+01  0.28860979827E+03  0.26305043433E+03 0.  0.
         25    1    3    3    0    0  0.46379926871E+02 -0.58662799643E+02 -0.38285374413E+02  0.15068410557E+03  0.12509000000E+03 0.  0.
         25    1    1    2    0    0 -0.88508350731E+02  0.79066004402E+02  0.19841783697E+02  0.17356948373E+03  0.12509000000E+03 0.  0.
         25    1    3    3    0    0  0.42128423860E+02 -0.20403204758E+02  0.34422285590E+02  0.13792569270E+03  0.12509000000E+03 0.  0.
<mgrwt>
<rscale>  2 0.46190299E+03</rscale>
<asrwt>0</asrwt>
<pdfrwt beam="1">  1       21 0.35158675E-01 0.46190299E+03</pdfrwt>
<pdfrwt beam="2">  1       21 0.32808867E-01 0.46190299E+03</pdfrwt>
<totfact> 0.64402098E+04</totfact>
</mgrwt>
</event>
<event>
 6    0  0.1539497E-004  0.4010725E+03  0.7546771E-02  0.1043409E+00
         21   -1    0    0  502  501  0.00000000000E+00  0.00000000000E+00  0.16368583443E+03  0.16368583443E+03  0.00000000000E+00 0. -1.
         21   -1    0    0  501  502 -0.00000000000E+00 -0.00000000000E+00 -0.24568271911E+03  0.24568271911E+03  0.00000000000E+00 0. -1.
      99925    2    1    2    0    0  0.37850006476E+02 -0.22218992865E+02 -0.72960236725E+02  0.27649464436E+03  0.26305852122E+03 0.  0.
         25    1    3    3    0    0  0.42998549781E+02 -0.32548852982E+02 -0.11668958924E+02  0.13671860084E+03  0.12509000000E+03 0.  0.
         25    1    3    3    0    0 -0.51485433050E+01  0.10329860118E+02 -0.61291277800E+02  0.13977604352E+03  0.12509000000E+03 0.  0.
         25    1    1    2    0    0 -0.37850006476E+02  0.22218992865E+02 -0.90366479482E+01  0.13287390918E+03  0.12509000000E+03 0.  0.
<mgrwt>
<rscale>  2 0.40107247E+03</rscale>
<asrwt>0</asrwt>
<pdfrwt beam="1">  1       21 0.24071446E-01 0.40107247E+03</pdfrwt>
<pdfrwt beam="2">  1       21 0.36129811E-01 0.40107247E+03</pdfrwt>
<totfact> 0.11354571E+05</totfact>
</mgrwt>
</event>
<event>
 6    0  0.1539497E-004  0.4095000E+03  0.7546771E-02  0.1040539E+00
         21   -1    0    0  502  501  0.00000000000E+00  0.00000000000E+00  0.83655902063E+03  0.83655902063E+03  0.00000000000E+00 0.  1.
         21   -1    0    0  501  502 -0.00000000000E+00 -0.00000000000E+00 -0.50113102641E+02  0.50113102641E+02  0.00000000000E+00 0.  1.
      99925    2    1    2    0    0  0.71345355339E+01  0.60362729264E+02  0.53755242643E+03  0.60155804273E+03  0.26308726106E+03 0.  0.
         25    1    3    3    0    0  0.85644184809E+01  0.86746840417E+01  0.18259640602E+03  0.22166992353E+03  0.12509000000E+03 0.  0.
         25    1    3    3    0    0 -0.14298829470E+01  0.51688045223E+02  0.35495602040E+03  0.37988811919E+03  0.12509000000E+03 0.  0.
         25    1    1    2    0    0 -0.71345355339E+01 -0.60362729264E+02  0.24889349156E+03  0.28511408054E+03  0.12509000000E+03 0.  0.
<mgrwt>
<rscale>  2 0.40950003E+03</rscale>
<asrwt>0</asrwt>
<pdfrwt beam="1">  1       21 0.12302338E+00 0.40950003E+03</pdfrwt>
<pdfrwt beam="2">  1       21 0.73695744E-02 0.40950003E+03</pdfrwt>
<totfact> 0.63627507E+04</totfact>
</mgrwt>
</event>
<event>
 6    0  0.1539497E-004  0.4604326E+03  0.7546771E-02  0.1024656E+00
         21   -1    0    0  502  501  0.00000000000E+00  0.00000000000E+00  0.51367941022E+02  0.51367941022E+02  0.00000000000E+00 0.  1.
         21   -1    0    0  501  502 -0.00000000000E+00 -0.00000000000E+00 -0.10317629939E+04  0.10317629939E+04  0.00000000000E+00 0.  1.
      99925    2    1    2    0    0 -0.75139761828E+02 -0.13178022097E+02 -0.82560377894E+03  0.86999367714E+03  0.26352941844E+03 0.  0.
         25    1    3    3    0    0 -0.70558802651E+02  0.16278219213E+02 -0.47757296533E+03  0.49896590101E+03  0.12509000000E+03 0.  0.
         25    1    1    2    0    0  0.75139761828E+02  0.13178022097E+02 -0.15479127398E+03  0.21313725783E+03  0.12509000000E+03 0.  0.
         25    1    3    3    0    0 -0.45809591769E+01 -0.29456241309E+02 -0.34803081361E+03  0.37102777613E+03  0.12509000000E+03 0.  0.
<mgrwt>
<rscale>  2 0.46043258E+03</rscale>
<asrwt>0</asrwt>
<pdfrwt beam="1">  1       21 0.75541093E-02 0.46043258E+03</pdfrwt>
<pdfrwt beam="2">  1       21 0.15172985E+00 0.46043258E+03</pdfrwt>
<totfact> 0.34594849E+04</totfact>
</mgrwt>
</event>
<event>
 6    0  0.1539497E-004  0.3910342E+03  0.7546771E-02  0.1046929E+00
         21   -1    0    0  502  501  0.00000000000E+00  0.00000000000E+00  0.19035919636E+03  0.19035919636E+03  0.00000000000E+00 0. -1.
         21   -1    0    0  501  502 -0.00000000000E+00 -0.00000000000E+00 -0.20081473042E+03  0.20081473042E+03  0.00000000000E+00 0. -1.
      99925    2    1    2    0    0  0.15298502198E+02 -0.16291265344E+02 -0.79904779394E+01  0.26407933957E+03  0.26301064685E+03 0.  0.
         25    1    1    2    0    0 -0.15298502198E+02  0.16291265344E+02 -0.24650561212E+01  0.12709458721E+03  0.12509000000E+03 0.  0.
         25    1    3    3    0    0 -0.17273755345E+02 -0.32827317908E+02 -0.24398297339E+02  0.13273582952E+03  0.12509000000E+03 0.  0.
         25    1    3    3    0    0  0.32572257543E+02  0.16536052565E+02  0.16407819400E+02  0.13134351005E+03  0.12509000000E+03 0.  0.
<mgrwt>
<rscale>  2 0.39103417E+03</rscale>
<asrwt>0</asrwt>
<pdfrwt beam="1">  1       21 0.27994000E-01 0.39103417E+03</pdfrwt>
<pdfrwt beam="2">  1       21 0.29531578E-01 0.39103417E+03</pdfrwt>
<totfact> 0.12693216E+05</totfact>
</mgrwt>
</event>
<event>
 6    0  0.1539497E-004  0.4279727E+03  0.7546771E-02  0.1034502E+00
         21   -1    0    0  502  501  0.00000000000E+00  0.00000000000E+00  0.18326129702E+03  0.18326129702E+03  0.00000000000E+00 0.  1.
         21   -1    0    0  501  502 -0.00000000000E+00 -0.00000000000E+00 -0.24986270972E+03  0.24986270972E+03  0.00000000000E+00 0.  1.
      99925    2    1    2    0    0  0.68681805257E+02  0.46868445061E+02 -0.23141829291E+02  0.27675877721E+03  0.26295633665E+03 0.  0.
         25    1    3    3    0    0  0.52688563510E+02  0.25690653638E+02  0.24497860884E+02  0.14029878010E+03  0.12509000000E+03 0.  0.
         25    1    3    3    0    0  0.15993241748E+02  0.21177791423E+02 -0.47639690175E+02  0.13645999711E+03  0.12509000000E+03 0.  0.
         25    1    1    2    0    0 -0.68681805257E+02 -0.46868445061E+02 -0.43459583416E+02  0.15636522953E+03  0.12509000000E+03 0.  0.
<mgrwt>
<rscale>  2 0.42797273E+03</rscale>
<asrwt>0</asrwt>
<pdfrwt beam="1">  1       21 0.26950191E-01 0.42797273E+03</pdfrwt>
<pdfrwt beam="2">  1       21 0.36744516E-01 0.42797273E+03</pdfrwt>
<totfact> 0.87595195E+04</totfact>
</mgrwt>
</event>
<event>
 6    0  0.1539497E-004  0.4619314E+03  0.7546771E-02  0.1024223E+00
         21   -1    0    0  502  501  0.00000000000E+00  0.00000000000E+00  0.22128825522E+03  0.22128825522E+03  0.00000000000E+00 0.  1.
         21   -1    0    0  501  502 -0.00000000000E+00 -0.00000000000E+00 -0.24106631670E+03  0.24106631670E+03  0.00000000000E+00 0.  1.
      99925    2    1    2    0    0 -0.11425104349E+03 -0.85110304891E+01 -0.46467015961E+02  0.29064101110E+03  0.26303474140E+03 0.  0.
         25    1    3    3    0    0 -0.51727897162E+02 -0.36031616687E+02 -0.48097249818E+02  0.14810437632E+03  0.12509000000E+03 0.  0.
         25    1    1    2    0    0  0.11425104349E+03  0.85110304891E+01  0.26688954483E+02  0.17171356082E+03  0.12509000000E+03 0.  0.
         25    1    3    3    0    0 -0.62523146325E+02  0.27520586198E+02  0.16302338576E+01  0.14253663478E+03  0.12509000000E+03 0.  0.
<mgrwt>
<rscale>  2 0.46193136E+03</rscale>
<asrwt>0</asrwt>
<pdfrwt beam="1">  1       21 0.32542391E-01 0.46193136E+03</pdfrwt>
<pdfrwt beam="2">  1       21 0.35450929E-01 0.46193136E+03</pdfrwt>
<totfact> 0.64375732E+04</totfact>
</mgrwt>
</event>
<event>
 6    0  0.1539497E-004  0.4310909E+03  0.7546771E-02  0.1033516E+00
         21   -1    0    0  502  501  0.00000000000E+00  0.00000000000E+00  0.45946832037E+02  0.45946832037E+02  0.00000000000E+00 0.  1.
         21   -1    0    0  501  502 -0.00000000000E+00 -0.00000000000E+00 -0.10111653631E+04  0.10111653631E+04  0.00000000000E+00 0.  1.
      99925    2    1    2    0    0 -0.72771384372E+02  0.15670354396E+02 -0.74029309037E+03  0.78919393080E+03  0.26315768348E+03 0.  0.
         25    1    3    3    0    0 -0.46383468577E+01  0.31401571385E+02 -0.38658077505E+03  0.40755340348E+03  0.12509000000E+03 0.  0.
         25    1    3    3    0    0 -0.68133037515E+02 -0.15731216990E+02 -0.35371231532E+03  0.38164052733E+03  0.12509000000E+03 0.  0.
         25    1    1    2    0    0  0.72771384372E+02 -0.15670354396E+02 -0.22492544067E+03  0.26791826431E+03  0.12509000000E+03 0.  0.
<mgrwt>
<rscale>  2 0.43109092E+03</rscale>
<asrwt>0</asrwt>
<pdfrwt beam="1">  1       21 0.67568877E-02 0.43109092E+03</pdfrwt>
<pdfrwt beam="2">  1       21 0.14870077E+00 0.43109092E+03</pdfrwt>
<totfact> 0.44813761E+04</totfact>
</mgrwt>
</event>
<event>
 6    0  0.1539497E-004  0.4009397E+03  0.7546771E-02  0.1043455E+00
         21   -1    0    0  502  501  0.00000000000E+00  0.00000000000E+00  0.30802725667E+02  0.30802725667E+02  0.00000000000E+00 0. -1.
         21   -1    0    0  501  502 -0.00000000000E+00 -0.00000000000E+00 -0.13046950241E+04  0.13046950241E+04  0.00000000000E+00 0. -1.
      99925    2    1    2    0    0  0.29513292037E+02 -0.28528237736E+02 -0.77034624766E+03  0.81502582151E+03  0.26296169624E+03 0.  0.
         25    1    1    2    0    0 -0.29513292037E+02  0.28528237736E+02 -0.50354605078E+03  0.52047192827E+03  0.12509000000E+03 0.  0.
         25    1    3    3    0    0  0.20746973882E+02 -0.23192113194E+02 -0.27020996157E+03  0.29938143308E+03  0.12509000000E+03 0.  0.
         25    1    3    3    0    0  0.87663181547E+01 -0.53361245413E+01 -0.50013628608E+03  0.51564438843E+03  0.12509000000E+03 0.  0.
<mgrwt>
<rscale>  2 0.40093971E+03</rscale>
<asrwt>0</asrwt>
<pdfrwt beam="1">  1       21 0.45298127E-02 0.40093971E+03</pdfrwt>
<pdfrwt beam="2">  1       21 0.19186691E+00 0.40093971E+03</pdfrwt>
<totfact> 0.43832532E+04</totfact>
</mgrwt>
</event>
<event>
 6    0  0.1539497E-004  0.4069186E+03  0.7546771E-02  0.1041410E+00
         21   -1    0    0  502  501  0.00000000000E+00  0.00000000000E+00  0.10338130096E+04  0.10338130096E+04  0.00000000000E+00 0. -1.
         21   -1    0    0  501  502 -0.00000000000E+00 -0.00000000000E+00 -0.40041757974E+02  0.40041757974E+02  0.00000000000E+00 0. -1.
      99925    2    1    2    0    0 -0.39219171140E+01  0.24872218393E+02  0.79390769888E+03  0.83673252800E+03  0.26305489995E+03 0.  0.
         25    1    3    3    0    0 -0.33412164599E+02  0.21829493462E+02  0.32499519638E+03  0.35051716834E+03  0.12509000000E+03 0.  0.
         25    1    3    3    0    0  0.29490247485E+02  0.30427249302E+01  0.46891250250E+03  0.48621535966E+03  0.12509000000E+03 0.  0.
         25    1    1    2    0    0  0.39219171140E+01 -0.24872218393E+02  0.19986355270E+03  0.23712223953E+03  0.12509000000E+03 0.  0.
<mgrwt>
<rscale>  2 0.40691862E+03</rscale>
<asrwt>0</asrwt>
<pdfrwt beam="1">  1       21 0.15203131E+00 0.40691862E+03</pdfrwt>
<pdfrwt beam="2">  1       21 0.58884945E-02 0.40691862E+03</pdfrwt>
<totfact> 0.54004647E+04</totfact>
</mgrwt>
</event>
<event>
 6    0  0.1539497E-004  0.4105531E+03  0.7546771E-02  0.1040186E+00
         21   -1    0    0  502  501  0.00000000000E+00  0.00000000000E+00  0.68923152529E+03  0.68923152529E+03  0.00000000000E+00 0. -1.
         21   -1    0    0  501  502 -0.00000000000E+00 -0.00000000000E+00 -0.61138321371E+02  0.61138321371E+02  0.00000000000E+00 0. -1.
      99925    2    1    2    0    0  0.62534548155E+02  0.78840004497E+01  0.41753149501E+03  0.49747368510E+03  0.26301100901E+03 0.  0.
         25    1    3    3    0    0  0.25268289514E+02 -0.19004373206E+02  0.26626026933E+03  0.29587445273E+03  0.12509000000E+03 0.  0.
         25    1    3    3    0    0  0.37266258641E+02  0.26888373656E+02  0.15127122568E+03  0.20159923237E+03  0.12509000000E+03 0.  0.
         25    1    1    2    0    0 -0.62534548155E+02 -0.78840004497E+01  0.21056170891E+03  0.25289616157E+03  0.12509000000E+03 0.  0.
<mgrwt>
<rscale>  2 0.41055308E+03</rscale>
<asrwt>0</asrwt>
<pdfrwt beam="1">  1       21 0.10135757E+00 0.41055308E+03</pdfrwt>
<pdfrwt beam="2">  1       21 0.89909300E-02 0.41055308E+03</pdfrwt>
<totfact> 0.72416346E+04</totfact>
</mgrwt>
</event>
<event>
 6    0  0.1539497E-004  0.4315332E+03  0.7546771E-02  0.1033377E+00
         21   -1    0    0  502  501  0.00000000000E+00  0.00000000000E+00  0.35261441845E+03  0.35261441845E+03  0.00000000000E+00 0.  1.
         21   -1    0    0  501  502 -0.00000000000E+00 -0.00000000000E+00 -0.13202873551E+03  0.13202873551E+03  0.00000000000E+00 0.  1.
      99925    2    1    2    0    0 -0.17766309282E+02  0.64916014663E+02  0.20911979156E+03  0.34213453853E+03  0.26228843766E+03 0.  0.
         25    1    1    2    0    0  0.17766309282E+02 -0.64916014663E+02  0.11465891385E+02  0.14250861543E+03  0.12509000000E+03 0.  0.
         25    1    3    3    0    0  0.13617368346E+02  0.22265588841E+01  0.79636200361E+02  0.14892891859E+03  0.12509000000E+03 0.  0.
         25    1    3    3    0    0 -0.31383677628E+02  0.62689455779E+02  0.12948359120E+03  0.19320561994E+03  0.12509000000E+03 0.  0.
<mgrwt>
<rscale>  2 0.43153325E+03</rscale>
<asrwt>0</asrwt>
<pdfrwt beam="1">  1       21 0.51855061E-01 0.43153325E+03</pdfrwt>
<pdfrwt beam="2">  1       21 0.19415991E-01 0.43153325E+03</pdfrwt>
<totfact> 0.80313779E+04</totfact>
</mgrwt>
</event>
<event>
 6    0  0.1539497E-004  0.4532896E+03  0.7546771E-02  0.1026746E+00
         21   -1    0    0  502  501  0.00000000000E+00  0.00000000000E+00  0.27676706781E+03  0.27676706781E+03  0.00000000000E+00 0. -1.
         21   -1    0    0  501  502 -0.00000000000E+00 -0.00000000000E+00 -0.18559961354E+03  0.18559961354E+03  0.00000000000E+00 0. -1.
      99925    2    1    2    0    0 -0.10380112479E+03 -0.37268366623E+02  0.71517117563E+02  0.29444631781E+03  0.26347738292E+03 0.  0.
         25    1    1    2    0    0  0.10380112479E+03  0.37268366623E+02  0.19650336714E+02  0.16792036354E+03  0.12509000000E+03 0.  0.
         25    1    3    3    0    0 -0.40702830056E+02 -0.87157619852E+01  0.74508070235E+02  0.15143198312E+03  0.12509000000E+03 0.  0.
         25    1    3    3    0    0 -0.63098294730E+02 -0.28552604638E+02 -0.29909526718E+01  0.14301433469E+03  0.12509000000E+03 0.  0.
<mgrwt>
<rscale>  2 0.45328958E+03</rscale>
<asrwt>0</asrwt>
<pdfrwt beam="1">  1       21 0.40701039E-01 0.45328958E+03</pdfrwt>
<pdfrwt beam="2">  1       21 0.27294061E-01 0.45328958E+03</pdfrwt>
<totfact> 0.68938734E+04</totfact>
</mgrwt>
</event>
<event>
 6    0  0.1539497E-004  0.4129027E+03  0.7546771E-02  0.1039401E+00
         21   -1    0    0  502  501  0.00000000000E+00  0.00000000000E+00  0.34030920199E+03  0.34030920199E+03  0.00000000000E+00 0. -1.
         21   -1    0    0  501  502 -0.00000000000E+00 -0.00000000000E+00 -0.12524542294E+03  0.12524542294E+03  0.00000000000E+00 0. -1.
      99925    2    1    2    0    0 -0.47296931520E+02 -0.46035290681E+02  0.13183122805E+03  0.30144669287E+03  0.26293418993E+03 0.  0.
         25    1    1    2    0    0  0.47296931520E+02  0.46035290681E+02  0.83232551000E+02  0.16410793206E+03  0.12509000000E+03 0.  0.
         25    1    3    3    0    0 -0.54315354446E+02 -0.28419434731E+02  0.98503932078E+02  0.17061170749E+03  0.12509000000E+03 0.  0.
         25    1    3    3    0    0  0.70184229267E+01 -0.17615855950E+02  0.33327295967E+02  0.13083498537E+03  0.12509000000E+03 0.  0.
<mgrwt>
<rscale>  2 0.41290275E+03</rscale>
<asrwt>0</asrwt>
<pdfrwt beam="1">  1       21 0.50045471E-01 0.41290275E+03</pdfrwt>
<pdfrwt beam="2">  1       21 0.18418445E-01 0.41290275E+03</pdfrwt>
<totfact> 0.96074126E+04</totfact>
</mgrwt>
</event>
<event>
 6    0  0.1718726E-004  0.3946878E+03  0.7546771E-02  0.1045635E+00
         21   -1    0    0  502  501  0.00000000000E+00  0.00000000000E+00  0.76280206881E+02  0.76280206881E+02  0.00000000000E+00 0. -1.
         21   -1    0    0  501  502 -0.00000000000E+00 -0.00000000000E+00 -0.51054671201E+03  0.51054671201E+03  0.00000000000E+00 0. -1.
      99925    2    1    2    0    0  0.26555506180E+02 -0.14482051125E+02 -0.31277755565E+03  0.40984670062E+03  0.26311517246E+03 0.  0.
         25    1    3    3    0    0 -0.25937762170E+02 -0.18254568907E+02 -0.15777736598E+03  0.20383130797E+03  0.12509000000E+03 0.  0.
         25    1    3    3    0    0  0.52493268350E+02  0.37725177817E+01 -0.15500018967E+03  0.20601539265E+03  0.12509000000E+03 0.  0.
         25    1    1    2    0    0 -0.26555506180E+02  0.14482051125E+02 -0.12148894948E+03  0.17698021827E+03  0.12509000000E+03 0.  0.
<mgrwt>
<rscale>  2 0.39468777E+03</rscale>
<asrwt>0</asrwt>
<pdfrwt beam="1">  1       21 0.11217678E-01 0.39468777E+03</pdfrwt>
<pdfrwt beam="2">  1       21 0.75080398E-01 0.39468777E+03</pdfrwt>
<totfact> 0.98818575E+04</totfact>
</mgrwt>
</event>
<event>
 6    0  0.1539497E-004  0.4753907E+03  0.7546771E-02  0.1020410E+00
         21   -1    0    0  502  501  0.00000000000E+00  0.00000000000E+00  0.13834917378E+03  0.13834917378E+03  0.00000000000E+00 0.  1.
         21   -1    0    0  501  502 -0.00000000000E+00 -0.00000000000E+00 -0.40838036579E+03  0.40838036579E+03  0.00000000000E+00 0.  1.
      99925    2    1    2    0    0  0.60595973221E+02 -0.93901544135E+02 -0.24602400223E+03  0.37727976759E+03  0.26329231169E+03 0.  0.
         25    1    3    3    0    0  0.55859804978E+02 -0.80884408626E+02 -0.15353508475E+03  0.22109530913E+03  0.12509000000E+03 0.  0.
         25    1    1    2    0    0 -0.60595973221E+02  0.93901544135E+02 -0.24007189781E+02  0.16944977198E+03  0.12509000000E+03 0.  0.
         25    1    3    3    0    0  0.47361682432E+01 -0.13017135510E+02 -0.92488917482E+02  0.15618445846E+03  0.12509000000E+03 0.  0.
<mgrwt>
<rscale>  2 0.47539073E+03</rscale>
<asrwt>0</asrwt>
<pdfrwt beam="1">  1       21 0.20345467E-01 0.47539073E+03</pdfrwt>
<pdfrwt beam="2">  1       21 0.60055935E-01 0.47539073E+03</pdfrwt>
<totfact> 0.52992603E+04</totfact>
</mgrwt>
</event>
<event>
 6    0  0.1539497E-004  0.4186773E+03  0.7546771E-02  0.1037498E+00
         21   -1    0    0  502  501  0.00000000000E+00  0.00000000000E+00  0.19235771730E+04  0.19235771730E+04  0.00000000000E+00 0.  1.
         21   -1    0    0  501  502 -0.00000000000E+00 -0.00000000000E+00 -0.22781864110E+02  0.22781864110E+02  0.00000000000E+00 0.  1.
      99925    2    1    2    0    0  0.49346428352E+02  0.54028956706E+02  0.12992921378E+04  0.13276444252E+04  0.26291721522E+03 0.  0.
         25    1    1    2    0    0 -0.49346428352E+02 -0.54028956706E+02  0.60150317107E+03  0.61871461196E+03  0.12509000000E+03 0.  0.
         25    1    3    3    0    0  0.62721736031E+02  0.40112456015E+02  0.64505177550E+03  0.66127326157E+03  0.12509000000E+03 0.  0.
         25    1    3    3    0    0 -0.13375307679E+02  0.13916500691E+02  0.65424036233E+03  0.66637116358E+03  0.12509000000E+03 0.  0.
<mgrwt>
<rscale>  2 0.41867732E+03</rscale>
<asrwt>0</asrwt>
<pdfrwt beam="1">  1       21 0.28287889E+00 0.41867732E+03</pdfrwt>
<pdfrwt beam="2">  1       21 0.33502754E-02 0.41867732E+03</pdfrwt>
<totfact> 0.19568673E+04</totfact>
</mgrwt>
</event>
<event>
 6    0  0.1620024E-004  0.4155667E+03  0.7546771E-02  0.1038519E+00
         21   -1    0    0  502  501  0.00000000000E+00  0.00000000000E+00  0.22212872893E+03  0.22212872893E+03  0.00000000000E+00 0. -1.
         21   -1    0    0  501  502 -0.00000000000E+00 -0.00000000000E+00 -0.19436438942E+03  0.19436438942E+03  0.00000000000E+00 0. -1.
      99925    2    1    2    0    0 -0.66709197661E+02 -0.18700104112E+02  0.29401101224E+02  0.27348962876E+03  0.26293029749E+03 0.  0.
         25    1    1    2    0    0  0.66709197661E+02  0.18700104112E+02 -0.16367617138E+01  0.14300348959E+03  0.12509000000E+03 0.  0.
         25    1    3    3    0    0 -0.65459499564E+02  0.92991269112E+01  0.32850768869E+02  0.14525185355E+03  0.12509000000E+03 0.  0.
         25    1    3    3    0    0 -0.12496980971E+01 -0.27999231023E+02 -0.34496676447E+01  0.12823777521E+03  0.12509000000E+03 0.  0.
<mgrwt>
<rscale>  2 0.41556667E+03</rscale>
<asrwt>0</asrwt>
<pdfrwt beam="1">  1       21 0.32665990E-01 0.41556667E+03</pdfrwt>
<pdfrwt beam="2">  1       21 0.28582998E-01 0.41556667E+03</pdfrwt>
<totfact> 0.99186706E+04</totfact>
</mgrwt>
</event>
<event>
 6    0  0.1539497E-004  0.4522625E+03  0.7546771E-02  0.1027049E+00
         21   -1    0    0  502  501  0.00000000000E+00  0.00000000000E+00  0.48888221488E+03  0.48888221488E+03  0.00000000000E+00 0.  1.
         21   -1    0    0  501  502 -0.00000000000E+00 -0.00000000000E+00 -0.10459645057E+03  0.10459645057E+03  0.00000000000E+00 0.  1.
      99925    2    1    2    0    0  0.10429569824E+03  0.14320998221E+02  0.28689975563E+03  0.40317830694E+03  0.26298021549E+03 0.  0.
         25    1    3    3    0    0  0.62815739538E+02 -0.30488096527E+02  0.16076466821E+03  0.21533259811E+03  0.12509000000E+03 0.  0.
         25    1    3    3    0    0  0.41479958704E+02  0.44809094748E+02  0.12613508742E+03  0.18784570883E+03  0.12509000000E+03 0.  0.
         25    1    1    2    0    0 -0.10429569824E+03 -0.14320998221E+02  0.97386008679E+02  0.19030035851E+03  0.12509000000E+03 0.  0.
<mgrwt>
<rscale>  2 0.45226251E+03</rscale>
<asrwt>0</asrwt>
<pdfrwt beam="1">  1       21 0.71894442E-01 0.45226251E+03</pdfrwt>
<pdfrwt beam="2">  1       21 0.15381831E-01 0.45226251E+03</pdfrwt>
<totfact> 0.60377077E+04</totfact>
</mgrwt>
</event>
<event>
 6    0  0.1539497E-004  0.4341836E+03  0.7546771E-02  0.1032546E+00
         21   -1    0    0  502  501  0.00000000000E+00  0.00000000000E+00  0.15216660043E+03  0.15216660043E+03  0.00000000000E+00 0. -1.
         21   -1    0    0  501  502 -0.00000000000E+00 -0.00000000000E+00 -0.30971871805E+03  0.30971871805E+03  0.00000000000E+00 0. -1.
      99925    2    1    2    0    0  0.71050451708E+02  0.57174278561E+02 -0.11714121110E+03  0.30189277402E+03  0.26286901463E+03 0.  0.
         25    1    3    3    0    0  0.63309144792E+00  0.47631712958E+02 -0.47239281552E+02  0.14194449164E+03  0.12509000000E+03 0.  0.
         25    1    3    3    0    0  0.70417360260E+02  0.95425656031E+01 -0.69901929546E+02  0.15994828239E+03  0.12509000000E+03 0.  0.
         25    1    1    2    0    0 -0.71050451708E+02 -0.57174278561E+02 -0.40410906516E+02  0.15999254446E+03  0.12509000000E+03 0.  0.
<mgrwt>
<rscale>  2 0.43418358E+03</rscale>
<asrwt>0</asrwt>
<pdfrwt beam="1">  1       21 0.22377442E-01 0.43418358E+03</pdfrwt>
<pdfrwt beam="2">  1       21 0.45546870E-01 0.43418358E+03</pdfrwt>
<totfact> 0.80549778E+04</totfact>
</mgrwt>
</event>
<event>
 6    0  0.1539497E-004  0.5029382E+03  0.7546771E-02  0.1013015E+00
         21   -1    0    0  502  501  0.00000000000E+00  0.00000000000E+00  0.22772196015E+03  0.22772196015E+03  0.00000000000E+00 0. -1.
         21   -1    0    0  501  502 -0.00000000000E+00 -0.00000000000E+00 -0.27769261097E+03  0.27769261097E+03  0.00000000000E+00 0. -1.
      99925    2    1    2    0    0 -0.40497078878E+02  0.13857164341E+03 -0.83037653125E+02  0.31155109210E+03  0.26329967223E+03 0.  0.
         25    1    3    3    0    0  0.96278769989E+01  0.39613193189E+02 -0.21048540576E+02  0.13323832125E+03  0.12509000000E+03 0.  0.
         25    1    3    3    0    0 -0.50124955877E+02  0.98958450222E+02 -0.61989112549E+02  0.17831277085E+03  0.12509000000E+03 0.  0.
         25    1    1    2    0    0  0.40497078878E+02 -0.13857164341E+03  0.33067002309E+02  0.19386347902E+03  0.12509000000E+03 0.  0.
<mgrwt>
<rscale>  2 0.50293819E+03</rscale>
<asrwt>0</asrwt>
<pdfrwt beam="1">  1       21 0.33488524E-01 0.50293819E+03</pdfrwt>
<pdfrwt beam="2">  1       21 0.40837148E-01 0.50293819E+03</pdfrwt>
<totfact> 0.45111333E+04</totfact>
</mgrwt>
</event>
<event>
 6    0  0.1539497E-004  0.4131872E+03  0.7546771E-02  0.1039307E+00
         21   -1    0    0  502  501  0.00000000000E+00  0.00000000000E+00  0.61905548055E+02  0.61905548055E+02  0.00000000000E+00 0. -1.
         21   -1    0    0  501  502 -0.00000000000E+00 -0.00000000000E+00 -0.68945219634E+03  0.68945219634E+03  0.00000000000E+00 0. -1.
      99925    2    1    2    0    0  0.17420715864E+02  0.49503105159E+02 -0.33722036970E+03  0.43090354346E+03  0.26307080276E+03 0.  0.
         25    1    1    2    0    0 -0.17420715864E+02 -0.49503105159E+02 -0.29032627859E+03  0.32045420094E+03  0.12509000000E+03 0.  0.
         25    1    3    3    0    0  0.39601514673E+02  0.30562106646E+02 -0.13073084150E+03  0.18772422152E+03  0.12509000000E+03 0.  0.
         25    1    3    3    0    0 -0.22180798809E+02  0.18940998513E+02 -0.20648952820E+03  0.24317932194E+03  0.12509000000E+03 0.  0.
<mgrwt>
<rscale>  2 0.41318720E+03</rscale>
<asrwt>0</asrwt>
<pdfrwt beam="1">  1       21 0.91037569E-02 0.41318720E+03</pdfrwt>
<pdfrwt beam="2">  1       21 0.10139003E+00 0.41318720E+03</pdfrwt>
<totfact> 0.70724685E+04</totfact>
</mgrwt>
</event>
<event>
 6    0  0.1539497E-004  0.4202508E+03  0.7546771E-02  0.1036985E+00
         21   -1    0    0  502  501  0.00000000000E+00  0.00000000000E+00  0.64528797313E+03  0.64528797313E+03  0.00000000000E+00 0.  1.
         21   -1    0    0  501  502 -0.00000000000E+00 -0.00000000000E+00 -0.68423209590E+02  0.68423209590E+02  0.00000000000E+00 0.  1.
      99925    2    1    2    0    0 -0.47281591347E+02  0.59582004556E+02  0.37763270712E+03  0.46647347412E+03  0.26306933768E+03 0.  0.
         25    1    3    3    0    0 -0.22304162155E+02 -0.55152991246E+01  0.21476138961E+03  0.24959538605E+03  0.12509000000E+03 0.  0.
         25    1    3    3    0    0 -0.24977429191E+02  0.65097303681E+02  0.16287131752E+03  0.21687808807E+03  0.12509000000E+03 0.  0.
         25    1    1    2    0    0  0.47281591347E+02 -0.59582004556E+02  0.19923205642E+03  0.24723770860E+03  0.12509000000E+03 0.  0.
<mgrwt>
<rscale>  2 0.42025075E+03</rscale>
<asrwt>0</asrwt>
<pdfrwt beam="1">  1       21 0.94895287E-01 0.42025075E+03</pdfrwt>
<pdfrwt beam="2">  1       21 0.10062237E-01 0.42025075E+03</pdfrwt>
<totfact> 0.69238711E+04</totfact>
</mgrwt>
</event>
<event>
 6    0  0.1539497E-004  0.4548751E+03  0.7546771E-02  0.1026278E+00
         21   -1    0    0  502  501  0.00000000000E+00  0.00000000000E+00  0.70562330029E+02  0.70562330029E+02  0.00000000000E+00 0. -1.
         21   -1    0    0  501  502 -0.00000000000E+00 -0.00000000000E+00 -0.73308001894E+03  0.73308001894E+03  0.00000000000E+00 0. -1.
      99925    2    1    2    0    0 -0.44528225668E+02 -0.91067877971E+02 -0.50550361860E+03  0.57874893498E+03  0.26294543169E+03 0.  0.
         25    1    1    2    0    0  0.44528225668E+02  0.91067877971E+02 -0.15701407032E+03  0.22489341399E+03  0.12509000000E+03 0.  0.
         25    1    3    3    0    0 -0.19453721941E+02 -0.49165686694E+01 -0.25471362284E+03  0.28448050497E+03  0.12509000000E+03 0.  0.
         25    1    3    3    0    0 -0.25074503727E+02 -0.86151309301E+02 -0.25078999576E+03  0.29426843001E+03  0.12509000000E+03 0.  0.
<mgrwt>
<rscale>  2 0.45487508E+03</rscale>
<asrwt>0</asrwt>
<pdfrwt beam="1">  1       21 0.10376813E-01 0.45487508E+03</pdfrwt>
<pdfrwt beam="2">  1       21 0.10780589E+00 0.45487508E+03</pdfrwt>
<totfact> 0.47635814E+04</totfact>
</mgrwt>
</event>
<event>
 5    0  0.1539497E-004  0.4257101E+03  0.7546771E-02  0.1035224E+00
         21   -1    0    0  502  501  0.00000000000E+00  0.00000000000E+00  0.32257887098E+03  0.32257887098E+03  0.00000000000E+00 0.  1.
         21   -1    0    0  501  502 -0.00000000000E+00 -0.00000000000E+00 -0.14045329717E+03  0.14045329717E+03  0.00000000000E+00 0.  1.
         25    1    1    2    0    0 -0.55458245355E+02 -0.44728583287E+02  0.10211962661E+03  0.17649982827E+03  0.12509000000E+03 0.  0.
         25    1    1    2    0    0  0.51589466316E+02  0.61712130460E+02  0.47478232601E+02  0.15611390313E+03  0.12509000000E+03 0.  0.
         25    1    1    2    0    0  0.38687790391E+01 -0.16983547173E+02  0.32527714591E+02  0.13041843674E+03  0.12509000000E+03 0.  0.
<mgrwt>
<rscale>  2 0.42571007E+03</rscale>
<asrwt>0</asrwt>
<pdfrwt beam="1">  1       21 0.47438069E-01 0.42571007E+03</pdfrwt>
<pdfrwt beam="2">  1       21 0.20654897E-01 0.42571007E+03</pdfrwt>
<totfact> 0.86352360E+04</totfact>
</mgrwt>
</event>
<event>
 6    0  0.1539497E-004  0.4080035E+03  0.7546771E-02  0.1041043E+00
         21   -1    0    0  502  501  0.00000000000E+00  0.00000000000E+00  0.61471557507E+02  0.61471557507E+02  0.00000000000E+00 0.  1.
         21   -1    0    0  501  502 -0.00000000000E+00 -0.00000000000E+00 -0.67700751593E+03  0.67700751593E+03  0.00000000000E+00 0.  1.
      99925    2    1    2    0    0 -0.17373543005E+02 -0.12273326561E+02 -0.30668387224E+03  0.40457849875E+03  0.26301385821E+03 0.  0.
         25    1    3    3    0    0 -0.35558150956E+02 -0.27128616781E+02 -0.12254602339E+03  0.18073566305E+03  0.12509000000E+03 0.  0.
         25    1    1    2    0    0  0.17373543005E+02  0.12273326561E+02 -0.30885208618E+03  0.33390057469E+03  0.12509000000E+03 0.  0.
         25    1    3    3    0    0  0.18184607951E+02  0.14855290220E+02 -0.18413784885E+03  0.22384283570E+03  0.12509000000E+03 0.  0.
<mgrwt>
<rscale>  2 0.40800346E+03</rscale>
<asrwt>0</asrwt>
<pdfrwt beam="1">  1       21 0.90399357E-02 0.40800346E+03</pdfrwt>
<pdfrwt beam="2">  1       21 0.99559920E-01 0.40800346E+03</pdfrwt>
<totfact> 0.74949828E+04</totfact>
</mgrwt>
</event>
<event>
 6    0  0.1539497E-004  0.4583838E+03  0.7546771E-02  0.1025251E+00
         21   -1    0    0  502  501  0.00000000000E+00  0.00000000000E+00  0.21352366312E+03  0.21352366312E+03  0.00000000000E+00 0.  1.
         21   -1    0    0  501  502 -0.00000000000E+00 -0.00000000000E+00 -0.24600983629E+03  0.24600983629E+03  0.00000000000E+00 0.  1.
      99925    2    1    2    0    0 -0.11404931901E-01 -0.11612291269E+03 -0.27172123613E+02  0.28876969116E+03  0.26299254600E+03 0.  0.
         25    1    1    2    0    0  0.11404931901E-01  0.11612291269E+03 -0.53140495551E+01  0.17076380824E+03  0.12509000000E+03 0.  0.
         25    1    3    3    0    0  0.32380621600E+02 -0.80134404286E+02 -0.28169509956E+02  0.15463200444E+03  0.12509000000E+03 0.  0.
         25    1    3    3    0    0 -0.32392026531E+02 -0.35988508408E+02  0.99738634302E+00  0.13413768672E+03  0.12509000000E+03 0.  0.
<mgrwt>
<rscale>  2 0.45838378E+03</rscale>
<asrwt>0</asrwt>
<pdfrwt beam="1">  1       21 0.31400539E-01 0.45838378E+03</pdfrwt>
<pdfrwt beam="2">  1       21 0.36177917E-01 0.45838378E+03</pdfrwt>
<totfact> 0.66403989E+04</totfact>
</mgrwt>
</event>
<event>
 6    0  0.1539497E-004  0.4393803E+03  0.7546771E-02  0.1030937E+00
         21   -1    0    0  502  501  0.00000000000E+00  0.00000000000E+00  0.68505376837E+03  0.68505376837E+03  0.00000000000E+00 0. -1.
         21   -1    0    0  501  502 -0.00000000000E+00 -0.00000000000E+00 -0.70452519378E+02  0.70452519378E+02  0.00000000000E+00 0. -1.
      99925    2    1    2    0    0 -0.12256500011E+02  0.72500190214E+02  0.28204910830E+03  0.39267721814E+03  0.26312962353E+03 0.  0.
         25    1    1    2    0    0  0.12256500011E+02 -0.72500190214E+02  0.33255214069E+03  0.36282906961E+03  0.12509000000E+03 0.  0.
         25    1    3    3    0    0 -0.25503873939E+01  0.22219678897E+02  0.81961480275E+02  0.15121313089E+03  0.12509000000E+03 0.  0.
         25    1    3    3    0    0 -0.97061126167E+01  0.50280511317E+02  0.20008762802E+03  0.24146408724E+03  0.12509000000E+03 0.  0.
<mgrwt>
<rscale>  2 0.43938031E+03</rscale>
<asrwt>0</asrwt>
<pdfrwt beam="1">  1       21 0.10074320E+00 0.43938031E+03</pdfrwt>
<pdfrwt beam="2">  1       21 0.10360665E-01 0.43938031E+03</pdfrwt>
<totfact> 0.56623269E+04</totfact>
</mgrwt>
</event>
<event>
 6    0  0.1539497E-004  0.3994978E+03  0.7546771E-02  0.1043954E+00
         21   -1    0    0  502  501  0.00000000000E+00  0.00000000000E+00  0.46219514232E+03  0.46219514232E+03  0.00000000000E+00 0.  1.
         21   -1    0    0  501  502 -0.00000000000E+00 -0.00000000000E+00 -0.86326352198E+02  0.86326352198E+02  0.00000000000E+00 0.  1.
      99925    2    1    2    0    0  0.26718860995E+02  0.19423014857E+02  0.21041039937E+03  0.33848545426E+03  0.26307549399E+03 0.  0.
         25    1    3    3    0    0  0.10980287963E+02  0.42286986270E+02  0.75835120136E+02  0.15266705433E+03  0.12509000000E+03 0.  0.
         25    1    1    2    0    0 -0.26718860995E+02 -0.19423014857E+02  0.16545839075E+03  0.21003604026E+03  0.12509000000E+03 0.  0.
         25    1    3    3    0    0  0.15738573032E+02 -0.22863971413E+02  0.13457527924E+03  0.18581839993E+03  0.12509000000E+03 0.  0.
<mgrwt>
<rscale>  2 0.39949779E+03</rscale>
<asrwt>0</asrwt>
<pdfrwt beam="1">  1       21 0.67969873E-01 0.39949779E+03</pdfrwt>
<pdfrwt beam="2">  1       21 0.12695052E-01 0.39949779E+03</pdfrwt>
<totfact> 0.98662704E+04</totfact>
</mgrwt>
</event>
<event>
 6    0  0.1539497E-004  0.4683511E+03  0.7546771E-02  0.1022387E+00
         21   -1    0    0  502  501  0.00000000000E+00  0.00000000000E+00  0.11828709391E+03  0.11828709391E+03  0.00000000000E+00 0.  1.
         21   -1    0    0  501  502 -0.00000000000E+00 -0.00000000000E+00 -0.46360246702E+03  0.46360246702E+03  0.00000000000E+00 0.  1.
      99925    2    1    2    0    0  0.15720079453E+02  0.12372711924E+03 -0.22973936851E+03  0.37079517002E+03  0.26297026398E+03 0.  0.
         25    1    3    3    0    0  0.21357358218E+02  0.62510478172E+02 -0.16432909855E+03  0.21683001951E+03  0.12509000000E+03 0.  0.
         25    1    1    2    0    0 -0.15720079453E+02 -0.12372711924E+03 -0.11557600460E+03  0.21109439091E+03  0.12509000000E+03 0.  0.
         25    1    3    3    0    0 -0.56372787651E+01  0.61216641068E+02 -0.65410269955E+02  0.15396515051E+03  0.12509000000E+03 0.  0.
<mgrwt>
<rscale>  2 0.46835110E+03</rscale>
<asrwt>0</asrwt>
<pdfrwt beam="1">  1       21 0.17395161E-01 0.46835110E+03</pdfrwt>
<pdfrwt beam="2">  1       21 0.68176833E-01 0.46835110E+03</pdfrwt>
<totfact> 0.53889777E+04</totfact>
</mgrwt>
</event>
<event>
 6    0  0.1539497E-004  0.5097639E+03  0.7546771E-02  0.1011261E+00
         21   -1    0    0  502  501  0.00000000000E+00  0.00000000000E+00  0.28128793020E+03  0.28128793020E+03  0.00000000000E+00 0. -1.
         21   -1    0    0  501  502 -0.00000000000E+00 -0.00000000000E+00 -0.23095486332E+03  0.23095486332E+03  0.00000000000E+00 0. -1.
      99925    2    1    2    0    0  0.11514668044E+02 -0.12220162511E+03  0.13210764322E+03  0.31885092659E+03  0.26295942507E+03 0.  0.
         25    1    1    2    0    0 -0.11514668044E+02  0.12220162511E+03 -0.81774576346E+02  0.19339186693E+03  0.12509000000E+03 0.  0.
         25    1    3    3    0    0 -0.13992476051E+02 -0.25869534967E+02  0.41498420424E+02  0.13503573313E+03  0.12509000000E+03 0.  0.
         25    1    3    3    0    0  0.25507144095E+02 -0.96332090138E+02  0.90609222796E+02  0.18381519346E+03  0.12509000000E+03 0.  0.
<mgrwt>
<rscale>  2 0.50976393E+03</rscale>
<asrwt>0</asrwt>
<pdfrwt beam="1">  1       21 0.41365872E-01 0.50976393E+03</pdfrwt>
<pdfrwt beam="2">  1       21 0.33963950E-01 0.50976393E+03</pdfrwt>
<totfact> 0.42633908E+04</totfact>
</mgrwt>
</event>
<event>
 6    0  0.1539497E-004  0.4069952E+03  0.7546771E-02  0.1041384E+00
         21   -1    0    0  502  501  0.00000000000E+00  0.00000000000E+00  0.44785220151E+02  0.44785220151E+02  0.00000000000E+00 0. -1.
         21   -1    0    0  501  502 -0.00000000000E+00 -0.00000000000E+00 -0.92466383308E+03  0.92466383308E+03  0.00000000000E+00 0. -1.
      99925    2    1    2    0    0  0.98724119678E+01 -0.42346090045E+02 -0.67170304236E+03  0.72271998696E+03  0.26315118578E+03 0.  0.
         25    1    3    3    0    0  0.18984234392E+02  0.89558304837E+01 -0.25998603337E+03  0.28927643129E+03  0.12509000000E+03 0.  0.
         25    1    1    2    0    0 -0.98724119678E+01  0.42346090045E+02 -0.20817557056E+03  0.24672906627E+03  0.12509000000E+03 0.  0.
         25    1    3    3    0    0 -0.91118224245E+01 -0.51301920529E+02 -0.41171700899E+03  0.43344355567E+03  0.12509000000E+03 0.  0.
<mgrwt>
<rscale>  2 0.40699520E+03</rscale>
<asrwt>0</asrwt>
<pdfrwt beam="1">  1       21 0.65860620E-02 0.40699520E+03</pdfrwt>
<pdfrwt beam="2">  1       21 0.13597997E+00 0.40699520E+03</pdfrwt>
<totfact> 0.59868529E+04</totfact>
</mgrwt>
</event>
<event>
 6    0  0.1539497E-004  0.4174472E+03  0.7546771E-02  0.1037900E+00
         21   -1    0    0  502  501  0.00000000000E+00  0.00000000000E+00  0.11887892409E+03  0.11887892409E+03  0.00000000000E+00 0. -1.
         21   -1    0    0  501  502 -0.00000000000E+00 -0.00000000000E+00 -0.36646984130E+03  0.36646984130E+03  0.00000000000E+00 0. -1.
      99925    2    1    2    0    0 -0.10159743412E+01  0.38218079994E+01 -0.24646094565E+03  0.36019117131E+03  0.26263861815E+03 0.  0.
         25    1    3    3    0    0 -0.38266245102E+02  0.14657546685E+02 -0.12770076811E+03  0.18339613809E+03  0.12509000000E+03 0.  0.
         25    1    1    2    0    0  0.10159743412E+01 -0.38218079994E+01 -0.11299715652E+01  0.12515759408E+03  0.12509000000E+03 0.  0.
         25    1    3    3    0    0  0.37250270760E+02 -0.10835738685E+02 -0.11876017753E+03  0.17679503322E+03  0.12509000000E+03 0.  0.
<mgrwt>
<rscale>  2 0.41744720E+03</rscale>
<asrwt>0</asrwt>
<pdfrwt beam="1">  1       21 0.17482195E-01 0.41744720E+03</pdfrwt>
<pdfrwt beam="2">  1       21 0.53892624E-01 0.41744720E+03</pdfrwt>
<totfact> 0.90387542E+04</totfact>
</mgrwt>
</event>
<event>
 6    0  0.1539497E-004  0.3900221E+03  0.7546771E-02  0.1047290E+00
         21   -1    0    0  502  501  0.00000000000E+00  0.00000000000E+00  0.53784220599E+02  0.53784220599E+02  0.00000000000E+00 0. -1.
         21   -1    0    0  501  502 -0.00000000000E+00 -0.00000000000E+00 -0.70707180959E+03  0.70707180959E+03  0.00000000000E+00 0. -1.
      99925    2    1    2    0    0 -0.12480130797E+02  0.11818067532E+02 -0.45183220688E+03  0.52310153609E+03  0.26303508035E+03 0.  0.
         25    1    3    3    0    0 -0.31253242768E+02  0.17560852703E+02 -0.16961066159E+03  0.21377659684E+03  0.12509000000E+03 0.  0.
         25    1    1    2    0    0  0.12480130797E+02 -0.11818067532E+02 -0.20145538211E+03  0.23775449411E+03  0.12509000000E+03 0.  0.
         25    1    3    3    0    0  0.18773111971E+02 -0.57427851715E+01 -0.28222154529E+03  0.30932493925E+03  0.12509000000E+03 0.  0.
<mgrwt>
<rscale>  2 0.39002208E+03</rscale>
<asrwt>0</asrwt>
<pdfrwt beam="1">  1       21 0.79094440E-02 0.39002208E+03</pdfrwt>
<pdfrwt beam="2">  1       21 0.10398115E+00 0.39002208E+03</pdfrwt>
<totfact> 0.85819353E+04</totfact>
</mgrwt>
</event>
<event>
 6    0  0.1539497E-004  0.4298298E+03  0.7546771E-02  0.1033914E+00
         21   -1    0    0  502  501  0.00000000000E+00  0.00000000000E+00  0.57083055924E+02  0.57083055924E+02  0.00000000000E+00 0.  1.
         21   -1    0    0  501  502 -0.00000000000E+00 -0.00000000000E+00 -0.80914392137E+03  0.80914392137E+03  0.00000000000E+00 0.  1.
      99925    2    1    2    0    0 -0.32512638696E+02  0.11135111267E+02 -0.32251501487E+03  0.41751971389E+03  0.26291769491E+03 0.  0.
         25    1    3    3    0    0 -0.24866226543E+02  0.11088146270E+02 -0.10121209990E+03  0.16319520053E+03  0.12509000000E+03 0.  0.
         25    1    1    2    0    0  0.32512638696E+02 -0.11135111267E+02 -0.42954585058E+03  0.44870726340E+03  0.12509000000E+03 0.  0.
         25    1    3    3    0    0 -0.76464121536E+01  0.46964997007E-01 -0.22130291497E+03  0.25432451337E+03  0.12509000000E+03 0.  0.
<mgrwt>
<rscale>  2 0.42982977E+03</rscale>
<asrwt>0</asrwt>
<pdfrwt beam="1">  1       21 0.83945676E-02 0.42982977E+03</pdfrwt>
<pdfrwt beam="2">  1       21 0.11899175E+00 0.42982977E+03</pdfrwt>
<totfact> 0.54746010E+04</totfact>
</mgrwt>
</event>
<event>
 6    0  0.1539497E-004  0.4076203E+03  0.7546771E-02  0.1041173E+00
         21   -1    0    0  502  501  0.00000000000E+00  0.00000000000E+00  0.13215703406E+03  0.13215703406E+03  0.00000000000E+00 0. -1.
         21   -1    0    0  501  502 -0.00000000000E+00 -0.00000000000E+00 -0.31431219282E+03  0.31431219282E+03  0.00000000000E+00 0. -1.
      99925    2    1    2    0    0  0.18587153799E+02 -0.53428379240E+02 -0.13798832810E+03  0.30225310079E+03  0.26289938047E+03 0.  0.
         25    1    3    3    0    0  0.66847182477E+01 -0.23969554398E+02 -0.11382845591E+03  0.17094926286E+03  0.12509000000E+03 0.  0.
         25    1    1    2    0    0 -0.18587153799E+02  0.53428379240E+02 -0.44166830661E+02  0.14421612609E+03  0.12509000000E+03 0.  0.
         25    1    3    3    0    0  0.11902435551E+02 -0.29458824841E+02 -0.24159872186E+02  0.13130383794E+03  0.12509000000E+03 0.  0.
<mgrwt>
<rscale>  2 0.40762025E+03</rscale>
<asrwt>0</asrwt>
<pdfrwt beam="1">  1       21 0.19434858E-01 0.40762025E+03</pdfrwt>
<pdfrwt beam="2">  1       21 0.46222381E-01 0.40762025E+03</pdfrwt>
<totfact> 0.10276304E+05</totfact>
</mgrwt>
</event>
<event>
 6    0  0.1539497E-004  0.4671012E+03  0.7546771E-02  0.1022742E+00
         21   -1    0    0  502  501  0.00000000000E+00  0.00000000000E+00  0.11141961059E+03  0.11141961059E+03  0.00000000000E+00 0. -1.
         21   -1    0    0  501  502 -0.00000000000E+00 -0.00000000000E+00 -0.48955378296E+03  0.48955378296E+03  0.00000000000E+00 0. -1.
      99925    2    1    2    0    0 -0.73164923538E+02 -0.10025111592E+03 -0.22971982641E+03  0.37058737301E+03  0.26298366889E+03 0.  0.
         25    1    1    2    0    0  0.73164923538E+02  0.10025111592E+03 -0.14841434596E+03  0.23038602055E+03  0.12509000000E+03 0.  0.
         25    1    3    3    0    0 -0.43589455525E+02 -0.27660986521E+02 -0.15287140212E+03  0.20416254430E+03  0.12509000000E+03 0.  0.
         25    1    3    3    0    0 -0.29575468013E+02 -0.72590129397E+02 -0.76848424294E+02  0.16642482871E+03  0.12509000000E+03 0.  0.
<mgrwt>
<rscale>  2 0.46710124E+03</rscale>
<asrwt>0</asrwt>
<pdfrwt beam="1">  1       21 0.16385237E-01 0.46710124E+03</pdfrwt>
<pdfrwt beam="2">  1       21 0.71993205E-01 0.46710124E+03</pdfrwt>
<totfact> 0.53332908E+04</totfact>
</mgrwt>
</event>
<event>
 6    0  0.1539497E-004  0.4470741E+03  0.7546771E-02  0.1028598E+00
         21   -1    0    0  502  501  0.00000000000E+00  0.00000000000E+00  0.20839039246E+03  0.20839039246E+03  0.00000000000E+00 0.  1.
         21   -1    0    0  501  502 -0.00000000000E+00 -0.00000000000E+00 -0.23978461886E+03  0.23978461886E+03  0.00000000000E+00 0.  1.
      99925    2    1    2    0    0  0.38312162966E+02  0.98418532849E+02 -0.19940228631E+02  0.28406306293E+03  0.26294520639E+03 0.  0.
         25    1    3    3    0    0  0.26142403401E+02  0.10154294644E+02 -0.24042264932E+02  0.13043033987E+03  0.12509000000E+03 0.  0.
         25    1    1    2    0    0 -0.38312162966E+02 -0.98418532849E+02 -0.11453997760E+02  0.16411194839E+03  0.12509000000E+03 0.  0.
         25    1    3    3    0    0  0.12169759565E+02  0.88264238205E+02  0.41020363011E+01  0.15363272306E+03  0.12509000000E+03 0.  0.
<mgrwt>
<rscale>  2 0.44707409E+03</rscale>
<asrwt>0</asrwt>
<pdfrwt beam="1">  1       21 0.30645646E-01 0.44707409E+03</pdfrwt>
<pdfrwt beam="2">  1       21 0.35262444E-01 0.44707409E+03</pdfrwt>
<totfact> 0.73593775E+04</totfact>
</mgrwt>
</event>
<event>
 6    0  0.1539497E-004  0.4029770E+03  0.7546771E-02  0.1042754E+00
         21   -1    0    0  502  501  0.00000000000E+00  0.00000000000E+00  0.16837144923E+03  0.16837144923E+03  0.00000000000E+00 0. -1.
         21   -1    0    0  501  502 -0.00000000000E+00 -0.00000000000E+00 -0.24111934082E+03  0.24111934082E+03  0.00000000000E+00 0. -1.
      99925    2    1    2    0    0 -0.14593509505E+02  0.34982328554E+01 -0.97996101146E+02  0.28099881232E+03  0.26292943641E+03 0.  0.
         25    1    3    3    0    0  0.30699454474E+02  0.84299738720E+01 -0.61367016581E+02  0.14292284558E+03  0.12509000000E+03 0.  0.
         25    1    3    3    0    0 -0.45292963979E+02 -0.49317410165E+01 -0.36629084565E+02  0.13807596674E+03  0.12509000000E+03 0.  0.
         25    1    1    2    0    0  0.14593509505E+02 -0.34982328554E+01  0.25248209557E+02  0.12849197772E+03  0.12509000000E+03 0.  0.
<mgrwt>
<rscale>  2 0.40297699E+03</rscale>
<asrwt>0</asrwt>
<pdfrwt beam="1">  1       21 0.24760507E-01 0.40297699E+03</pdfrwt>
<pdfrwt beam="2">  1       21 0.35458726E-01 0.40297699E+03</pdfrwt>
<totfact> 0.11162315E+05</totfact>
</mgrwt>
</event>
<event>
 6    0  0.1539497E-004  0.4172290E+03  0.7546771E-02  0.1037972E+00
         21   -1    0    0  502  501  0.00000000000E+00  0.00000000000E+00  0.11227520681E+03  0.11227520681E+03  0.00000000000E+00 0.  1.
         21   -1    0    0  501  502 -0.00000000000E+00 -0.00000000000E+00 -0.38761899209E+03  0.38761899209E+03  0.00000000000E+00 0.  1.
      99925    2    1    2    0    0 -0.49387527080E+02 -0.52594347139E+02 -0.18583705653E+03  0.32999936150E+03  0.26298074802E+03 0.  0.
         25    1    3    3    0    0 -0.25072557085E+02 -0.47190963135E+02 -0.13801942292E+03  0.19378464677E+03  0.12509000000E+03 0.  0.
         25    1    1    2    0    0  0.49387527080E+02  0.52594347139E+02 -0.89506728759E+02  0.16989483740E+03  0.12509000000E+03 0.  0.
         25    1    3    3    0    0 -0.24314969994E+02 -0.54033840046E+01 -0.47817633605E+02  0.13621471473E+03  0.12509000000E+03 0.  0.
<mgrwt>
<rscale>  2 0.41722897E+03</rscale>
<asrwt>0</asrwt>
<pdfrwt beam="1">  1       21 0.16511060E-01 0.41722897E+03</pdfrwt>
<pdfrwt beam="2">  1       21 0.57002793E-01 0.41722897E+03</pdfrwt>
<totfact> 0.89125748E+04</totfact>
</mgrwt>
</event>
<event>
 6    0  0.1539497E-004  0.4070563E+03  0.7546771E-02  0.1041363E+00
         21   -1    0    0  502  501  0.00000000000E+00  0.00000000000E+00  0.48519560002E+03  0.48519560002E+03  0.00000000000E+00 0. -1.
         21   -1    0    0  501  502 -0.00000000000E+00 -0.00000000000E+00 -0.85375259410E+02  0.85375259410E+02  0.00000000000E+00 0. -1.
      99925    2    1    2    0    0 -0.55221950938E+02  0.12072945956E+02  0.24828480542E+03  0.36610632359E+03  0.26304614744E+03 0.  0.
         25    1    1    2    0    0  0.55221950938E+02 -0.12072945956E+02  0.15153553519E+03  0.20446453584E+03  0.12509000000E+03 0.  0.
         25    1    3    3    0    0  0.89664002108E+01 -0.13170318114E+02  0.11131864841E+03  0.16820583579E+03  0.12509000000E+03 0.  0.
         25    1    3    3    0    0 -0.64188351148E+02  0.25243264070E+02  0.13696615701E+03  0.19790048780E+03  0.12509000000E+03 0.  0.
<mgrwt>
<rscale>  2 0.40705626E+03</rscale>
<asrwt>0</asrwt>
<pdfrwt beam="1">  1       21 0.71352293E-01 0.40705626E+03</pdfrwt>
<pdfrwt beam="2">  1       21 0.12555185E-01 0.40705626E+03</pdfrwt>
<totfact> 0.90136167E+04</totfact>
</mgrwt>
</event>
<event>
 6    0  0.1539497E-004  0.4129240E+03  0.7546771E-02  0.1039394E+00
         21   -1    0    0  502  501  0.00000000000E+00  0.00000000000E+00  0.99762646351E+02  0.99762646351E+02  0.00000000000E+00 0. -1.
         21   -1    0    0  501  502 -0.00000000000E+00 -0.00000000000E+00 -0.42727975356E+03  0.42727975356E+03  0.00000000000E+00 0. -1.
      99925    2    1    2    0    0 -0.26590380710E+02  0.35815873454E+02 -0.27789132255E+03  0.38526774865E+03  0.26309280846E+03 0.  0.
         25    1    3    3    0    0 -0.11234858315E+02 -0.18728694771E+02 -0.10711859500E+03  0.16612912913E+03  0.12509000000E+03 0.  0.
         25    1    3    3    0    0 -0.15355522395E+02  0.54544568225E+02 -0.17077272755E+03  0.21913861952E+03  0.12509000000E+03 0.  0.
         25    1    1    2    0    0  0.26590380710E+02 -0.35815873454E+02 -0.49625784653E+02  0.14177465126E+03  0.12509000000E+03 0.  0.
<mgrwt>
<rscale>  2 0.41292401E+03</rscale>
<asrwt>0</asrwt>
<pdfrwt beam="1">  1       21 0.14670978E-01 0.41292401E+03</pdfrwt>
<pdfrwt beam="2">  1       21 0.62835257E-01 0.41292401E+03</pdfrwt>
<totfact> 0.89783256E+04</totfact>
</mgrwt>
</event>
<event>
 6    0  0.1539497E-004  0.4359895E+03  0.7546771E-02  0.1031984E+00
         21   -1    0    0  502  501  0.00000000000E+00  0.00000000000E+00  0.33351478627E+03  0.33351478627E+03  0.00000000000E+00 0. -1.
         21   -1    0    0  501  502 -0.00000000000E+00 -0.00000000000E+00 -0.14248753899E+03  0.14248753899E+03  0.00000000000E+00 0. -1.
      99925    2    1    2    0    0  0.88659018448E+02 -0.32294940319E+02  0.12777378717E+03  0.30702927108E+03  0.26274978191E+03 0.  0.
         25    1    3    3    0    0  0.79622524280E+02  0.38386553897E+01  0.60503410516E+02  0.16019566920E+03  0.12509000000E+03 0.  0.
         25    1    3    3    0    0  0.90364941686E+01 -0.36133595709E+02  0.67270376655E+02  0.14683360188E+03  0.12509000000E+03 0.  0.
         25    1    1    2    0    0 -0.88659018448E+02  0.32294940319E+02  0.63253460107E+02  0.16897305418E+03  0.12509000000E+03 0.  0.
<mgrwt>
<rscale>  2 0.43598945E+03</rscale>
<asrwt>0</asrwt>
<pdfrwt beam="1">  1       21 0.49046292E-01 0.43598945E+03</pdfrwt>
<pdfrwt beam="2">  1       21 0.20954050E-01 0.43598945E+03</pdfrwt>
<totfact> 0.78134484E+04</totfact>
</mgrwt>
</event>
<event>
 6    0  0.1539497E-004  0.4352654E+03  0.7546771E-02  0.1032209E+00
         21   -1    0    0  502  501  0.00000000000E+00  0.00000000000E+00  0.58000472438E+03  0.58000472438E+03  0.00000000000E+00 0.  1.
         21   -1    0    0  501  502 -0.00000000000E+00 -0.00000000000E+00 -0.81661384657E+02  0.81661384657E+02  0.00000000000E+00 0.  1.
      99925    2    1    2    0    0 -0.64573921140E+02  0.46642342779E+02  0.24410405359E+03  0.36733564485E+03  0.26268495879E+03 0.  0.
         25    1    3    3    0    0 -0.49690480385E+02  0.60708140023E+02  0.13594053067E+03  0.20070365738E+03  0.12509000000E+03 0.  0.
         25    1    1    2    0    0  0.64573921140E+02 -0.46642342779E+02  0.25423928614E+03  0.29433046419E+03  0.12509000000E+03 0.  0.
         25    1    3    3    0    0 -0.14883440755E+02 -0.14065797244E+02  0.10816352291E+03  0.16663198747E+03  0.12509000000E+03 0.  0.
<mgrwt>
<rscale>  2 0.43526539E+03</rscale>
<asrwt>0</asrwt>
<pdfrwt beam="1">  1       21 0.85294810E-01 0.43526539E+03</pdfrwt>
<pdfrwt beam="2">  1       21 0.12009027E-01 0.43526539E+03</pdfrwt>
<totfact> 0.64492685E+04</totfact>
</mgrwt>
</event>
<event>
 6    0  0.1539497E-004  0.4026680E+03  0.7546771E-02  0.1042860E+00
         21   -1    0    0  502  501  0.00000000000E+00  0.00000000000E+00  0.35549954081E+03  0.35549954081E+03  0.00000000000E+00 0.  1.
         21   -1    0    0  501  502 -0.00000000000E+00 -0.00000000000E+00 -0.11402372724E+03  0.11402372724E+03  0.00000000000E+00 0.  1.
      99925    2    1    2    0    0  0.25008038708E+02 -0.15506153530E+02  0.11270023256E+03  0.28759882999E+03  0.26295608339E+03 0.  0.
         25    1    1    2    0    0 -0.25008038708E+02  0.15506153530E+02  0.12877558102E+03  0.18192443806E+03  0.12509000000E+03 0.  0.
         25    1    3    3    0    0  0.37258527482E+02 -0.26029133960E+02  0.86638246959E+02  0.15880619516E+03  0.12509000000E+03 0.  0.
         25    1    3    3    0    0 -0.12250488774E+02  0.10522980430E+02  0.26061985597E+02  0.12879263483E+03  0.12509000000E+03 0.  0.
<mgrwt>
<rscale>  2 0.40266802E+03</rscale>
<asrwt>0</asrwt>
<pdfrwt beam="1">  1       21 0.52279344E-01 0.40266802E+03</pdfrwt>
<pdfrwt beam="2">  1       21 0.16768195E-01 0.40266802E+03</pdfrwt>
<totfact> 0.10461704E+05</totfact>
</mgrwt>
</event>
<event>
 6    0  0.1539497E-004  0.4236339E+03  0.7546771E-02  0.1035890E+00
         21   -1    0    0  502  501  0.00000000000E+00  0.00000000000E+00  0.89058995332E+03  0.89058995332E+03  0.00000000000E+00 0. -1.
         21   -1    0    0  501  502 -0.00000000000E+00 -0.00000000000E+00 -0.50378310449E+02  0.50378310449E+02  0.00000000000E+00 0. -1.
      99925    2    1    2    0    0 -0.15668760204E+02 -0.31594625895E+02  0.38526702980E+03  0.46782363525E+03  0.26302954020E+03 0.  0.
         25    1    3    3    0    0 -0.16546859682E+02 -0.53767203639E+02  0.22198553641E+03  0.26094021773E+03  0.12509000000E+03 0.  0.
         25    1    3    3    0    0  0.87809947836E+00  0.22172577744E+02  0.16328149339E+03  0.20688341752E+03  0.12509000000E+03 0.  0.
         25    1    1    2    0    0  0.15668760204E+02  0.31594625895E+02  0.45494461307E+03  0.47314462852E+03  0.12509000000E+03 0.  0.
<mgrwt>
<rscale>  2 0.42363389E+03</rscale>
<asrwt>0</asrwt>
<pdfrwt beam="1">  1       21 0.13096910E+00 0.42363389E+03</pdfrwt>
<pdfrwt beam="2">  1       21 0.74085756E-02 0.42363389E+03</pdfrwt>
<totfact> 0.53468242E+04</totfact>
</mgrwt>
</event>
<event>
 6    0  0.1539497E-004  0.4410851E+03  0.7546771E-02  0.1030414E+00
         21   -1    0    0  502  501  0.00000000000E+00  0.00000000000E+00  0.11583886134E+03  0.11583886134E+03  0.00000000000E+00 0. -1.
         21   -1    0    0  501  502 -0.00000000000E+00 -0.00000000000E+00 -0.41988510228E+03  0.41988510228E+03  0.00000000000E+00 0. -1.
      99925    2    1    2    0    0 -0.23720643475E+02  0.49561086014E+02 -0.93094259465E+02  0.28439307264E+03  0.26304735020E+03 0.  0.
         25    1    3    3    0    0  0.49288293237E+01  0.67633272247E+01 -0.10303912899E+02  0.12579234744E+03  0.12509000000E+03 0.  0.
         25    1    3    3    0    0 -0.28649472799E+02  0.42797758789E+02 -0.82790346566E+02  0.15860072520E+03  0.12509000000E+03 0.  0.
         25    1    1    2    0    0  0.23720643475E+02 -0.49561086014E+02 -0.21095198148E+03  0.25133089098E+03  0.12509000000E+03 0.  0.
<mgrwt>
<rscale>  2 0.44108508E+03</rscale>
<asrwt>0</asrwt>
<pdfrwt beam="1">  1       21 0.17035127E-01 0.44108508E+03</pdfrwt>
<pdfrwt beam="2">  1       21 0.61747809E-01 0.44108508E+03</pdfrwt>
<totfact> 0.70241943E+04</totfact>
</mgrwt>
</event>
<event>
 6    0  0.1539497E-004  0.4578139E+03  0.7546771E-02  0.1025417E+00
         21   -1    0    0  502  501  0.00000000000E+00  0.00000000000E+00  0.70125854311E+03  0.70125854311E+03  0.00000000000E+00 0. -1.
         21   -1    0    0  501  502 -0.00000000000E+00 -0.00000000000E+00 -0.74720508024E+02  0.74720508024E+02  0.00000000000E+00 0. -1.
      99925    2    1    2    0    0  0.59459473922E+02  0.62388796186E+02  0.52432242489E+03  0.59288527736E+03  0.26300409870E+03 0.  0.
         25    1    3    3    0    0  0.11514494172E+02  0.30150631893E+00  0.28836197395E+03  0.31453586537E+03  0.12509000000E+03 0.  0.
         25    1    1    2    0    0 -0.59459473922E+02 -0.62388796186E+02  0.10221561019E+03  0.18309377378E+03  0.12509000000E+03 0.  0.
         25    1    3    3    0    0  0.47944979750E+02  0.62087289867E+02  0.23596045094E+03  0.27834941199E+03  0.12509000000E+03 0.  0.
<mgrwt>
<rscale>  2 0.45781391E+03</rscale>
<asrwt>0</asrwt>
<pdfrwt beam="1">  1       21 0.10312625E+00 0.45781391E+03</pdfrwt>
<pdfrwt beam="2">  1       21 0.10988310E-01 0.45781391E+03</pdfrwt>
<totfact> 0.47882237E+04</totfact>
</mgrwt>
</event>
<event>
 6    0  0.1539497E-004  0.5825595E+03  0.7546771E-02  0.9942265E-01
         21   -1    0    0  502  501  0.00000000000E+00  0.00000000000E+00  0.32587707841E+03  0.32587707841E+03  0.00000000000E+00 0. -1.
         21   -1    0    0  501  502 -0.00000000000E+00 -0.00000000000E+00 -0.26035548060E+03  0.26035548060E+03  0.00000000000E+00 0. -1.
      99925    2    1    2    0    0 -0.46040731593E+02  0.39429536950E+02  0.24137083094E+03  0.36207882104E+03  0.26299573621E+03 0.  0.
         25    1    3    3    0    0 -0.33945344515E+02  0.52230505231E+02  0.96264989550E+02  0.16969021305E+03  0.12509000000E+03 0.  0.
         25    1    1    2    0    0  0.46040731593E+02 -0.39429536950E+02 -0.17584923313E+03  0.22415373796E+03  0.12509000000E+03 0.  0.
         25    1    3    3    0    0 -0.12095387078E+02 -0.12800968281E+02  0.14510584139E+03  0.19238860799E+03  0.12509000000E+03 0.  0.
<mgrwt>
<rscale>  2 0.58255947E+03</rscale>
<asrwt>0</asrwt>
<pdfrwt beam="1">  1       21 0.47923100E-01 0.58255947E+03</pdfrwt>
<pdfrwt beam="2">  1       21 0.38287571E-01 0.58255947E+03</pdfrwt>
<totfact> 0.24169176E+04</totfact>
</mgrwt>
</event>
<event>
 6    0  0.1539497E-004  0.4859571E+03  0.7546771E-02  0.1017511E+00
         21   -1    0    0  502  501  0.00000000000E+00  0.00000000000E+00  0.57163690488E+03  0.57163690488E+03  0.00000000000E+00 0.  1.
         21   -1    0    0  501  502 -0.00000000000E+00 -0.00000000000E+00 -0.10327984169E+03  0.10327984169E+03  0.00000000000E+00 0.  1.
      99925    2    1    2    0    0  0.87507648198E+02  0.91867117616E+02  0.36991986583E+03  0.47136197331E+03  0.26314301617E+03 0.  0.
         25    1    3    3    0    0  0.15128401282E+02  0.14725350932E+02  0.13838559865E+03  0.18773328554E+03  0.12509000000E+03 0.  0.
         25    1    1    2    0    0 -0.87507648198E+02 -0.91867117616E+02  0.98437197358E+02  0.20355477326E+03  0.12509000000E+03 0.  0.
         25    1    3    3    0    0  0.72379246917E+02  0.77141766684E+02  0.23153426718E+03  0.28362868778E+03  0.12509000000E+03 0.  0.
<mgrwt>
<rscale>  2 0.48595707E+03</rscale>
<asrwt>0</asrwt>
<pdfrwt beam="1">  1       21 0.84064249E-01 0.48595707E+03</pdfrwt>
<pdfrwt beam="2">  1       21 0.15188212E-01 0.48595707E+03</pdfrwt>
<totfact> 0.42834851E+04</totfact>
</mgrwt>
</event>
<event>
 6    0  0.1539497E-004  0.5754478E+03  0.7546771E-02  0.9957695E-01
         21   -1    0    0  502  501  0.00000000000E+00  0.00000000000E+00  0.55941790227E+03  0.55941790227E+03  0.00000000000E+00 0.  1.
         21   -1    0    0  501  502 -0.00000000000E+00 -0.00000000000E+00 -0.14798427390E+03  0.14798427390E+03  0.00000000000E+00 0.  1.
      99925    2    1    2    0    0  0.17668304252E+03  0.78577143671E+02  0.15132300505E+03  0.35998843222E+03  0.26325226391E+03 0.  0.
         25    1    3    3    0    0  0.12254848741E+03  0.53087040902E+02  0.54723467295E+02  0.19099353824E+03  0.12509000000E+03 0.  0.
         25    1    1    2    0    0 -0.17668304252E+03 -0.78577143671E+02  0.26011062333E+03  0.34741374395E+03  0.12509000000E+03 0.  0.
         25    1    3    3    0    0  0.54134555113E+02  0.25490102769E+02  0.96599537754E+02  0.16899489398E+03  0.12509000000E+03 0.  0.
<mgrwt>
<rscale>  2 0.57544783E+03</rscale>
<asrwt>0</asrwt>
<pdfrwt beam="1">  1       21 0.82267338E-01 0.57544783E+03</pdfrwt>
<pdfrwt beam="2">  1       21 0.21762393E-01 0.57544783E+03</pdfrwt>
<totfact> 0.22389767E+04</totfact>
</mgrwt>
</event>
<event>
 6    0  0.1539497E-004  0.5547879E+03  0.7546771E-02  0.1000392E+00
         21   -1    0    0  502  501  0.00000000000E+00  0.00000000000E+00  0.91265038580E+02  0.91265038580E+02  0.00000000000E+00 0. -1.
         21   -1    0    0  501  502 -0.00000000000E+00 -0.00000000000E+00 -0.84312013128E+03  0.84312013128E+03  0.00000000000E+00 0. -1.
      99925    2    1    2    0    0 -0.10251321394E+03  0.75287696143E+02 -0.68353950355E+03  0.74335709851E+03  0.26301392886E+03 0.  0.
         25    1    1    2    0    0  0.10251321394E+03 -0.75287696143E+02 -0.68315589158E+02  0.19102807136E+03  0.12509000000E+03 0.  0.
         25    1    3    3    0    0 -0.82420715536E+02  0.15388616634E+02 -0.31731797686E+03  0.35123808223E+03  0.12509000000E+03 0.  0.
         25    1    3    3    0    0 -0.20092498408E+02  0.59899079509E+02 -0.36622152668E+03  0.39211901628E+03  0.12509000000E+03 0.  0.
<mgrwt>
<rscale>  2 0.55478786E+03</rscale>
<asrwt>0</asrwt>
<pdfrwt beam="1">  1       21 0.13421330E-01 0.55478786E+03</pdfrwt>
<pdfrwt beam="2">  1       21 0.12398825E+00 0.55478786E+03</pdfrwt>
<totfact> 0.20470060E+04</totfact>
</mgrwt>
</event>
<event>
 6    0  0.1539497E-004  0.1101039E+04  0.7546771E-02  0.9204180E-01
         21   -1    0    0  502  501  0.00000000000E+00  0.00000000000E+00  0.19598913146E+03  0.19598913146E+03  0.00000000000E+00 0.  1.
         21   -1    0    0  501  502 -0.00000000000E+00 -0.00000000000E+00 -0.15463693434E+04  0.15463693434E+04  0.00000000000E+00 0.  1.
      99925    2    1    2    0    0 -0.18775320691E+03  0.46854656054E+03 -0.83210729588E+03  0.10081640390E+04  0.26306849201E+03 0.  0.
         25    1    3    3    0    0 -0.60871544211E+02  0.24971195884E+03 -0.45086181967E+03  0.53384014070E+03  0.12509000000E+03 0.  0.
         25    1    1    2    0    0  0.18775320691E+03 -0.46854656054E+03 -0.51827291606E+03  0.73419443591E+03  0.12509000000E+03 0.  0.
         25    1    3    3    0    0 -0.12688166270E+03  0.21883460170E+03 -0.38124547621E+03  0.47432389826E+03  0.12509000000E+03 0.  0.
<mgrwt>
<rscale>  2 0.11010388E+04</rscale>
<asrwt>0</asrwt>
<pdfrwt beam="1">  1       21 0.28821931E-01 0.11010388E+04</pdfrwt>
<pdfrwt beam="2">  1       21 0.22740725E+00 0.11010388E+04</pdfrwt>
<totfact> 0.71328985E+02</totfact>
</mgrwt>
</event>
<event>
 6    0  0.1539497E-004  0.4198044E+03  0.7546771E-02  0.1037130E+00
         21   -1    0    0  502  501  0.00000000000E+00  0.00000000000E+00  0.12267038903E+03  0.12267038903E+03  0.00000000000E+00 0.  1.
         21   -1    0    0  501  502 -0.00000000000E+00 -0.00000000000E+00 -0.35916515030E+03  0.35916515030E+03  0.00000000000E+00 0.  1.
      99925    2    1    2    0    0  0.29276272958E+02 -0.69065039933E+02 -0.16491332370E+03  0.31935941738E+03  0.26299610878E+03 0.  0.
         25    1    3    3    0    0  0.38761280770E+02 -0.57798184591E+02 -0.59131294149E+02  0.15487764550E+03  0.12509000000E+03 0.  0.
         25    1    1    2    0    0 -0.29276272958E+02  0.69065039933E+02 -0.71581437569E+02  0.16247612195E+03  0.12509000000E+03 0.  0.
         25    1    3    3    0    0 -0.94850078121E+01 -0.11266855342E+02 -0.10578202955E+03  0.16448177187E+03  0.12509000000E+03 0.  0.
<mgrwt>
<rscale>  2 0.41980438E+03</rscale>
<asrwt>0</asrwt>
<pdfrwt beam="1">  1       21 0.18039763E-01 0.41980438E+03</pdfrwt>
<pdfrwt beam="2">  1       21 0.52818404E-01 0.41980438E+03</pdfrwt>
<totfact> 0.88927902E+04</totfact>
</mgrwt>
</event>
<event>
 6    0  0.1539497E-004  0.3929665E+03  0.7546771E-02  0.1046243E+00
         21   -1    0    0  502  501  0.00000000000E+00  0.00000000000E+00  0.86057671735E+02  0.86057671735E+02  0.00000000000E+00 0.  1.
         21   -1    0    0  501  502 -0.00000000000E+00 -0.00000000000E+00 -0.44860233210E+03  0.44860233210E+03  0.00000000000E+00 0.  1.
      99925    2    1    2    0    0  0.26068727297E+02  0.10034676642E+02 -0.25391180232E+03  0.36664548296E+03  0.26301603285E+03 0.  0.
         25    1    3    3    0    0  0.11530857922E+02 -0.14846192769E+02 -0.77063800017E+02  0.14812058431E+03  0.12509000000E+03 0.  0.
         25    1    1    2    0    0 -0.26068727297E+02 -0.10034676642E+02 -0.10863285804E+03  0.16801452087E+03  0.12509000000E+03 0.  0.
         25    1    3    3    0    0  0.14537869375E+02  0.24880869410E+02 -0.17684800231E+03  0.21852489865E+03  0.12509000000E+03 0.  0.
<mgrwt>
<rscale>  2 0.39296652E+03</rscale>
<asrwt>0</asrwt>
<pdfrwt beam="1">  1       21 0.12655540E-01 0.39296652E+03</pdfrwt>
<pdfrwt beam="2">  1       21 0.65970933E-01 0.39296652E+03</pdfrwt>
<totfact> 0.10619459E+05</totfact>
</mgrwt>
</event>
<event>
 6    0  0.1539497E-004  0.3971120E+03  0.7546771E-02  0.1044784E+00
         21   -1    0    0  502  501  0.00000000000E+00  0.00000000000E+00  0.49597596404E+03  0.49597596404E+03  0.00000000000E+00 0. -1.
         21   -1    0    0  501  502 -0.00000000000E+00 -0.00000000000E+00 -0.79488705786E+02  0.79488705786E+02  0.00000000000E+00 0. -1.
      99925    2    1    2    0    0  0.14800572760E+02  0.25156078150E+02  0.31755859125E+03  0.41333424555E+03  0.26296359908E+03 0.  0.
         25    1    3    3    0    0 -0.10582539042E+02  0.48940790036E+02  0.16081977757E+03  0.20980395616E+03  0.12509000000E+03 0.  0.
         25    1    1    2    0    0 -0.14800572760E+02 -0.25156078150E+02  0.98928667002E+02  0.16213042428E+03  0.12509000000E+03 0.  0.
         25    1    3    3    0    0  0.25383111802E+02 -0.23784711886E+02  0.15673881368E+03  0.20353028939E+03  0.12509000000E+03 0.  0.
<mgrwt>
<rscale>  2 0.39711201E+03</rscale>
<asrwt>0</asrwt>
<pdfrwt beam="1">  1       21 0.72937640E-01 0.39711201E+03</pdfrwt>
<pdfrwt beam="2">  1       21 0.11689516E-01 0.39711201E+03</pdfrwt>
<totfact> 0.97886684E+04</totfact>
</mgrwt>
</event>
<event>
 6    0  0.1539497E-004  0.4068471E+03  0.7546771E-02  0.1041434E+00
         21   -1    0    0  502  501  0.00000000000E+00  0.00000000000E+00  0.14089931240E+03  0.14089931240E+03  0.00000000000E+00 0.  1.
         21   -1    0    0  501  502 -0.00000000000E+00 -0.00000000000E+00 -0.29369304172E+03  0.29369304172E+03  0.00000000000E+00 0.  1.
      99925    2    1    2    0    0 -0.42500499798E+02  0.38738244479E+02 -0.10788639807E+03  0.28977826444E+03  0.26272613799E+03 0.  0.
         25    1    3    3    0    0 -0.58253852261E+02  0.74931447157E+01 -0.44020324084E+02  0.14503432543E+03  0.12509000000E+03 0.  0.
         25    1    1    2    0    0  0.42500499798E+02 -0.38738244479E+02 -0.44907331243E+02  0.14481408967E+03  0.12509000000E+03 0.  0.
         25    1    3    3    0    0  0.15753352463E+02  0.31245099764E+02 -0.63866073990E+02  0.14474393901E+03  0.12509000000E+03 0.  0.
<mgrwt>
<rscale>  2 0.40684713E+03</rscale>
<asrwt>0</asrwt>
<pdfrwt beam="1">  1       21 0.20720487E-01 0.40684713E+03</pdfrwt>
<pdfrwt beam="2">  1       21 0.43190153E-01 0.40684713E+03</pdfrwt>
<totfact> 0.10485170E+05</totfact>
</mgrwt>
</event>
<event>
 6    0  0.1539497E-004  0.4267568E+03  0.7546771E-02  0.1034889E+00
         21   -1    0    0  502  501  0.00000000000E+00  0.00000000000E+00  0.51184789869E+02  0.51184789869E+02  0.00000000000E+00 0. -1.
         21   -1    0    0  501  502 -0.00000000000E+00 -0.00000000000E+00 -0.88952880788E+03  0.88952880788E+03  0.00000000000E+00 0. -1.
      99925    2    1    2    0    0  0.36650059057E+02  0.43531271039E+02 -0.40679014253E+03  0.48780692532E+03  0.26313338432E+03 0.  0.
         25    1    3    3    0    0  0.58803352213E+02  0.29956738038E+02 -0.21707150655E+03  0.25908065818E+03  0.12509000000E+03 0.  0.
         25    1    1    2    0    0 -0.36650059057E+02 -0.43531271039E+02 -0.43155387548E+03  0.45290667243E+03  0.12509000000E+03 0.  0.
         25    1    3    3    0    0 -0.22153293156E+02  0.13574533001E+02 -0.18971863597E+03  0.22872626714E+03  0.12509000000E+03 0.  0.
<mgrwt>
<rscale>  2 0.42675682E+03</rscale>
<asrwt>0</asrwt>
<pdfrwt beam="1">  1       21 0.75271756E-02 0.42675682E+03</pdfrwt>
<pdfrwt beam="2">  1       21 0.13081305E+00 0.42675682E+03</pdfrwt>
<totfact> 0.52112022E+04</totfact>
</mgrwt>
</event>
<event>
 6    0  0.1539497E-004  0.4514437E+03  0.7546771E-02  0.1027292E+00
         21   -1    0    0  502  501  0.00000000000E+00  0.00000000000E+00  0.52885696416E+03  0.52885696416E+03  0.00000000000E+00 0. -1.
         21   -1    0    0  501  502 -0.00000000000E+00 -0.00000000000E+00 -0.96340500291E+02  0.96340500291E+02  0.00000000000E+00 0. -1.
      99925    2    1    2    0    0 -0.74487357355E+02  0.17565736619E+02  0.16421679121E+03  0.31943751946E+03  0.26308981892E+03 0.  0.
         25    1    3    3    0    0 -0.33627636536E+02  0.60646148477E+01  0.34238359933E+02  0.13411700445E+03  0.12509000000E+03 0.  0.
         25    1    3    3    0    0 -0.40859720818E+02  0.11501121771E+02  0.12997843128E+03  0.18532051501E+03  0.12509000000E+03 0.  0.
         25    1    1    2    0    0  0.74487357355E+02 -0.17565736619E+02  0.26829967266E+03  0.30575994498E+03  0.12509000000E+03 0.  0.
<mgrwt>
<rscale>  2 0.45144366E+03</rscale>
<asrwt>0</asrwt>
<pdfrwt beam="1">  1       21 0.77773082E-01 0.45144366E+03</pdfrwt>
<pdfrwt beam="2">  1       21 0.14167721E-01 0.45144366E+03</pdfrwt>
<totfact> 0.58786778E+04</totfact>
</mgrwt>
</event>
<event>
 6    0  0.1539497E-004  0.4535116E+03  0.7546771E-02  0.1026680E+00
         21   -1    0    0  502  501  0.00000000000E+00  0.00000000000E+00  0.81947889352E+03  0.81947889352E+03  0.00000000000E+00 0. -1.
         21   -1    0    0  501  502 -0.00000000000E+00 -0.00000000000E+00 -0.62744997890E+02  0.62744997890E+02  0.00000000000E+00 0. -1.
      99925    2    1    2    0    0 -0.98264176345E+02  0.48604147600E+02  0.51928680416E+03  0.59231555958E+03  0.26298426879E+03 0.  0.
         25    1    1    2    0    0  0.98264176345E+02 -0.48604147600E+02  0.23744709147E+03  0.28990833183E+03  0.12509000000E+03 0.  0.
         25    1    3    3    0    0 -0.49079587279E+02  0.77526720401E+01  0.33160442990E+03  0.35787975053E+03  0.12509000000E+03 0.  0.
         25    1    3    3    0    0 -0.49184589066E+02  0.40851475560E+02  0.18768237426E+03  0.23443580905E+03  0.12509000000E+03 0.  0.
<mgrwt>
<rscale>  2 0.45351164E+03</rscale>
<asrwt>0</asrwt>
<pdfrwt beam="1">  1       21 0.12051160E+00 0.45351164E+03</pdfrwt>
<pdfrwt beam="2">  1       21 0.92272061E-02 0.45351164E+03</pdfrwt>
<totfact> 0.44527981E+04</totfact>
</mgrwt>
</event>
<event>
 6    0  0.1539497E-004  0.3996957E+03  0.7546771E-02  0.1043885E+00
         21   -1    0    0  502  501  0.00000000000E+00  0.00000000000E+00  0.56330995003E+03  0.56330995003E+03  0.00000000000E+00 0.  1.
         21   -1    0    0  501  502 -0.00000000000E+00 -0.00000000000E+00 -0.70900869637E+02  0.70900869637E+02  0.00000000000E+00 0.  1.
      99925    2    1    2    0    0  0.29812756646E+02  0.19547455798E+02  0.28557234742E+03  0.38987530098E+03  0.26302144630E+03 0.  0.
         25    1    3    3    0    0 -0.66649866589E+01  0.23215911706E+02  0.94711390521E+02  0.15874872030E+03  0.12509000000E+03 0.  0.
         25    1    1    2    0    0 -0.29812756646E+02 -0.19547455798E+02  0.20683673298E+03  0.24433551870E+03  0.12509000000E+03 0.  0.
         25    1    3    3    0    0  0.36477743305E+02 -0.36684559075E+01  0.19086095690E+03  0.23112658067E+03  0.12509000000E+03 0.  0.
<mgrwt>
<rscale>  2 0.39969571E+03</rscale>
<asrwt>0</asrwt>
<pdfrwt beam="1">  1       21 0.82839696E-01 0.39969571E+03</pdfrwt>
<pdfrwt beam="2">  1       21 0.10426599E-01 0.39969571E+03</pdfrwt>
<totfact> 0.89859127E+04</totfact>
</mgrwt>
</event>
<event>
 6    0  0.1539497E-004  0.4134890E+03  0.7546771E-02  0.1039206E+00
         21   -1    0    0  502  501  0.00000000000E+00  0.00000000000E+00  0.53708344013E+02  0.53708344013E+02  0.00000000000E+00 0. -1.
         21   -1    0    0  501  502 -0.00000000000E+00 -0.00000000000E+00 -0.79584066980E+03  0.79584066980E+03  0.00000000000E+00 0. -1.
      99925    2    1    2    0    0 -0.26882426339E+02  0.55806292424E+02 -0.43142756708E+03  0.50892904625E+03  0.26275848485E+03 0.  0.
         25    1    3    3    0    0  0.73125704715E+01  0.33992677813E+02 -0.27823732017E+03  0.30703825538E+03  0.12509000000E+03 0.  0.
         25    1    1    2    0    0  0.26882426339E+02 -0.55806292424E+02 -0.31070475870E+03  0.34061996756E+03  0.12509000000E+03 0.  0.
         25    1    3    3    0    0 -0.34194996810E+02  0.21813614611E+02 -0.15319024691E+03  0.20189079087E+03  0.12509000000E+03 0.  0.
<mgrwt>
<rscale>  2 0.41348898E+03</rscale>
<asrwt>0</asrwt>
<pdfrwt beam="1">  1       21 0.78982863E-02 0.41348898E+03</pdfrwt>
<pdfrwt beam="2">  1       21 0.11703539E+00 0.41348898E+03</pdfrwt>
<totfact> 0.63838376E+04</totfact>
</mgrwt>
</event>
<event>
 6    0  0.1539497E-004  0.4076113E+03  0.7546771E-02  0.1041176E+00
         21   -1    0    0  502  501  0.00000000000E+00  0.00000000000E+00  0.41054561750E+02  0.41054561750E+02  0.00000000000E+00 0.  1.
         21   -1    0    0  501  502 -0.00000000000E+00 -0.00000000000E+00 -0.10117449439E+04  0.10117449439E+04  0.00000000000E+00 0.  1.
      99925    2    1    2    0    0  0.52201114025E+02 -0.21118635501E+02 -0.68331740995E+03  0.73436319126E+03  0.26305068118E+03 0.  0.
         25    1    3    3    0    0  0.44371665235E+02  0.73605354762E+01 -0.26072088843E+03  0.29265322811E+03  0.12509000000E+03 0.  0.
         25    1    3    3    0    0  0.78294487907E+01 -0.28479170977E+02 -0.42259652152E+03  0.44170996315E+03  0.12509000000E+03 0.  0.
         25    1    1    2    0    0 -0.52201114025E+02  0.21118635501E+02 -0.28737297221E+03  0.31843631440E+03  0.12509000000E+03 0.  0.
<mgrwt>
<rscale>  2 0.40761131E+03</rscale>
<asrwt>0</asrwt>
<pdfrwt beam="1">  1       21 0.60374363E-02 0.40761131E+03</pdfrwt>
<pdfrwt beam="2">  1       21 0.14878600E+00 0.40761131E+03</pdfrwt>
<totfact> 0.54810994E+04</totfact>
</mgrwt>
</event>
<event>
 6    0  0.1539497E-004  0.4005164E+03  0.7546771E-02  0.1043601E+00
         21   -1    0    0  502  501  0.00000000000E+00  0.00000000000E+00  0.54231027368E+03  0.54231027368E+03  0.00000000000E+00 0.  1.
         21   -1    0    0  501  502 -0.00000000000E+00 -0.00000000000E+00 -0.73949081756E+02  0.73949081756E+02  0.00000000000E+00 0.  1.
      99925    2    1    2    0    0 -0.73104908336E+00  0.23015384164E+02  0.24955735674E+03  0.36317267318E+03  0.26284077672E+03 0.  0.
         25    1    3    3    0    0  0.29550280646E+02 -0.15194346173E+02  0.12890537689E+03  0.18266962400E+03  0.12509000000E+03 0.  0.
         25    1    3    3    0    0 -0.30281329729E+02  0.38209730337E+02  0.12065197985E+03  0.18050304918E+03  0.12509000000E+03 0.  0.
         25    1    1    2    0    0  0.73104908336E+00 -0.23015384164E+02  0.21880383518E+03  0.25308668225E+03  0.12509000000E+03 0.  0.
<mgrwt>
<rscale>  2 0.40051640E+03</rscale>
<asrwt>0</asrwt>
<pdfrwt beam="1">  1       21 0.79751509E-01 0.40051640E+03</pdfrwt>
<pdfrwt beam="2">  1       21 0.10874865E-01 0.40051640E+03</pdfrwt>
<totfact> 0.90920047E+04</totfact>
</mgrwt>
</event>
<event>
 6    0  0.1539497E-004  0.4619391E+03  0.7546771E-02  0.1024220E+00
         21   -1    0    0  502  501  0.00000000000E+00  0.00000000000E+00  0.79739747718E+02  0.79739747718E+02  0.00000000000E+00 0. -1.
         21   -1    0    0  501  502 -0.00000000000E+00 -0.00000000000E+00 -0.66901298337E+03  0.66901298337E+03  0.00000000000E+00 0. -1.
      99925    2    1    2    0    0 -0.94286650900E+02 -0.55684201216E+01 -0.48737430567E+03  0.56179851243E+03  0.26298835508E+03 0.  0.
         25    1    3    3    0    0 -0.37823777911E+02  0.34194201964E+02 -0.26563409121E+03  0.29800815448E+03  0.12509000000E+03 0.  0.
         25    1    1    2    0    0  0.94286650900E+02  0.55684201216E+01 -0.10189892998E+03  0.18695421865E+03  0.12509000000E+03 0.  0.
         25    1    3    3    0    0 -0.56462872989E+02 -0.39762622085E+02 -0.22174021446E+03  0.26379035795E+03  0.12509000000E+03 0.  0.
<mgrwt>
<rscale>  2 0.46193907E+03</rscale>
<asrwt>0</asrwt>
<pdfrwt beam="1">  1       21 0.11726433E-01 0.46193907E+03</pdfrwt>
<pdfrwt beam="2">  1       21 0.98384263E-01 0.46193907E+03</pdfrwt>
<totfact> 0.47680450E+04</totfact>
</mgrwt>
</event>
<event>
 6    0  0.1539497E-004  0.4035715E+03  0.7546771E-02  0.1042550E+00
         21   -1    0    0  502  501  0.00000000000E+00  0.00000000000E+00  0.31366993158E+03  0.31366993158E+03  0.00000000000E+00 0. -1.
         21   -1    0    0  501  502 -0.00000000000E+00 -0.00000000000E+00 -0.12980998320E+03  0.12980998320E+03  0.00000000000E+00 0. -1.
      99925    2    1    2    0    0 -0.24060510533E+02  0.45530735563E+02  0.11473852622E+03  0.29156798257E+03  0.26304943074E+03 0.  0.
         25    1    3    3    0    0 -0.15710115829E+02  0.19334807853E+02  0.13398512052E+02  0.12824847274E+03  0.12509000000E+03 0.  0.
         25    1    3    3    0    0 -0.83503947035E+01  0.26195927710E+02  0.10134001417E+03  0.16331950983E+03  0.12509000000E+03 0.  0.
         25    1    1    2    0    0  0.24060510533E+02 -0.45530735563E+02  0.69121422155E+02  0.15191193221E+03  0.12509000000E+03 0.  0.
<mgrwt>
<rscale>  2 0.40357150E+03</rscale>
<asrwt>0</asrwt>
<pdfrwt beam="1">  1       21 0.46127931E-01 0.40357150E+03</pdfrwt>
<pdfrwt beam="2">  1       21 0.19089703E-01 0.40357150E+03</pdfrwt>
<totfact> 0.10685308E+05</totfact>
</mgrwt>
</event>
<event>
 6    0  0.1539497E-004  0.4883684E+03  0.7546771E-02  0.1016860E+00
         21   -1    0    0  502  501  0.00000000000E+00  0.00000000000E+00  0.31185329996E+03  0.31185329996E+03  0.00000000000E+00 0.  1.
         21   -1    0    0  501  502 -0.00000000000E+00 -0.00000000000E+00 -0.19119860735E+03  0.19119860735E+03  0.00000000000E+00 0.  1.
      99925    2    1    2    0    0 -0.13535748966E+03 -0.24349510958E+02  0.11097484943E+03  0.31689134179E+03  0.26304021861E+03 0.  0.
         25    1    1    2    0    0  0.13535748966E+03  0.24349510958E+02  0.96798431833E+01  0.18616056552E+03  0.12509000000E+03 0.  0.
         25    1    3    3    0    0 -0.86274372682E+02 -0.49776470418E+02  0.54571831175E+02  0.16895726456E+03  0.12509000000E+03 0.  0.
         25    1    3    3    0    0 -0.49083116980E+02  0.25426959460E+02  0.56403018253E+02  0.14793407724E+03  0.12509000000E+03 0.  0.
<mgrwt>
<rscale>  2 0.48836837E+03</rscale>
<asrwt>0</asrwt>
<pdfrwt beam="1">  1       21 0.45860780E-01 0.48836837E+03</pdfrwt>
<pdfrwt beam="2">  1       21 0.28117442E-01 0.48836837E+03</pdfrwt>
<totfact> 0.50339368E+04</totfact>
</mgrwt>
</event>
<event>
 6    0  0.1539497E-004  0.4168744E+03  0.7546771E-02  0.1038088E+00
         21   -1    0    0  502  501  0.00000000000E+00  0.00000000000E+00  0.48235540897E+03  0.48235540897E+03  0.00000000000E+00 0. -1.
         21   -1    0    0  501  502 -0.00000000000E+00 -0.00000000000E+00 -0.90070662432E+02  0.90070662432E+02  0.00000000000E+00 0. -1.
      99925    2    1    2    0    0  0.39362803283E+02 -0.59186868658E+02  0.24274693626E+03  0.36491322721E+03  0.26302675267E+03 0.  0.
         25    1    3    3    0    0  0.16612188863E+02  0.33108725802E+01  0.81429328943E+02  0.15021707762E+03  0.12509000000E+03 0.  0.
         25    1    3    3    0    0  0.22750614421E+02 -0.62497741239E+02  0.16131760732E+03  0.21469614959E+03  0.12509000000E+03 0.  0.
         25    1    1    2    0    0 -0.39362803283E+02  0.59186868658E+02  0.14953781027E+03  0.20751284419E+03  0.12509000000E+03 0.  0.
<mgrwt>
<rscale>  2 0.41687442E+03</rscale>
<asrwt>0</asrwt>
<pdfrwt beam="1">  1       21 0.70934618E-01 0.41687442E+03</pdfrwt>
<pdfrwt beam="2">  1       21 0.13245686E-01 0.41687442E+03</pdfrwt>
<totfact> 0.82642610E+04</totfact>
</mgrwt>
</event>
<event>
 6    0  0.1539497E-004  0.3892600E+03  0.7546771E-02  0.1047563E+00
         21   -1    0    0  502  501  0.00000000000E+00  0.00000000000E+00  0.12327654753E+03  0.12327654753E+03  0.00000000000E+00 0. -1.
         21   -1    0    0  501  502 -0.00000000000E+00 -0.00000000000E+00 -0.30728333253E+03  0.30728333253E+03  0.00000000000E+00 0. -1.
      99925    2    1    2    0    0  0.10359951461E+02 -0.24409577989E+01 -0.11318592094E+03  0.28641970607E+03  0.26289143854E+03 0.  0.
         25    1    3    3    0    0 -0.11227061863E+02 -0.23888905828E+01 -0.16169223435E+02  0.12665190722E+03  0.12509000000E+03 0.  0.
         25    1    3    3    0    0  0.21587013324E+02 -0.52067216032E-01 -0.97016697502E+02  0.15976779885E+03  0.12509000000E+03 0.  0.
         25    1    1    2    0    0 -0.10359951461E+02  0.24409577989E+01 -0.70820864066E+02  0.14414017398E+03  0.12509000000E+03 0.  0.
<mgrwt>
<rscale>  2 0.38925996E+03</rscale>
<asrwt>0</asrwt>
<pdfrwt beam="1">  1       21 0.18128904E-01 0.38925996E+03</pdfrwt>
<pdfrwt beam="2">  1       21 0.45188725E-01 0.38925996E+03</pdfrwt>
<totfact> 0.12331621E+05</totfact>
</mgrwt>
</event>
<event>
 6    0  0.1539497E-004  0.4106070E+03  0.7546771E-02  0.1040167E+00
         21   -1    0    0  502  501  0.00000000000E+00  0.00000000000E+00  0.85360410540E+02  0.85360410540E+02  0.00000000000E+00 0. -1.
         21   -1    0    0  501  502 -0.00000000000E+00 -0.00000000000E+00 -0.49378316785E+03  0.49378316785E+03  0.00000000000E+00 0. -1.
      99925    2    1    2    0    0 -0.29652723804E+02  0.20170050119E+02 -0.19580972177E+03  0.32986877835E+03  0.26303203007E+03 0.  0.
         25    1    3    3    0    0 -0.22988098809E+02 -0.13547156871E+02 -0.57477084733E+02  0.14022518146E+03  0.12509000000E+03 0.  0.
         25    1    3    3    0    0 -0.66646249950E+01  0.33717206990E+02 -0.13833263704E+03  0.18964359689E+03  0.12509000000E+03 0.  0.
         25    1    1    2    0    0  0.29652723804E+02 -0.20170050119E+02 -0.21261303554E+03  0.24927480003E+03  0.12509000000E+03 0.  0.
<mgrwt>
<rscale>  2 0.41060703E+03</rscale>
<asrwt>0</asrwt>
<pdfrwt beam="1">  1       21 0.12553002E-01 0.41060703E+03</pdfrwt>
<pdfrwt beam="2">  1       21 0.72615172E-01 0.41060703E+03</pdfrwt>
<totfact> 0.86595915E+04</totfact>
</mgrwt>
</event>
<event>
 6    0  0.1539497E-004  0.4162376E+03  0.7546771E-02  0.1038298E+00
         21   -1    0    0  502  501  0.00000000000E+00  0.00000000000E+00  0.18936774130E+03  0.18936774130E+03  0.00000000000E+00 0. -1.
         21   -1    0    0  501  502 -0.00000000000E+00 -0.00000000000E+00 -0.22872659179E+03  0.22872659179E+03  0.00000000000E+00 0. -1.
      99925    2    1    2    0    0  0.49564203317E+02 -0.46445528837E+02 -0.49422544115E+01  0.27165046131E+03  0.26297480839E+03 0.  0.
         25    1    1    2    0    0 -0.49564203317E+02  0.46445528837E+02 -0.34416596077E+02  0.14644387179E+03  0.12509000000E+03 0.  0.
         25    1    3    3    0    0  0.24727581493E+02 -0.44746980496E+01 -0.38477954597E+02  0.13326491398E+03  0.12509000000E+03 0.  0.
         25    1    3    3    0    0  0.24836621824E+02 -0.41970830788E+02  0.33535700185E+02  0.13838554732E+03  0.12509000000E+03 0.  0.
<mgrwt>
<rscale>  2 0.41623762E+03</rscale>
<asrwt>0</asrwt>
<pdfrwt beam="1">  1       21 0.27848197E-01 0.41623762E+03</pdfrwt>
<pdfrwt beam="2">  1       21 0.33636263E-01 0.41623762E+03</pdfrwt>
<totfact> 0.98438041E+04</totfact>
</mgrwt>
</event>
<event>
 6    0  0.1539497E-004  0.3926583E+03  0.7546771E-02  0.1046352E+00
         21   -1    0    0  502  501  0.00000000000E+00  0.00000000000E+00  0.34573018280E+03  0.34573018280E+03  0.00000000000E+00 0. -1.
         21   -1    0    0  501  502 -0.00000000000E+00 -0.00000000000E+00 -0.11148906360E+03  0.11148906360E+03  0.00000000000E+00 0. -1.
      99925    2    1    2    0    0 -0.19452405127E+02  0.75389408886E+01  0.13595014641E+03  0.29677032890E+03  0.26297329543E+03 0.  0.
         25    1    3    3    0    0  0.51247825560E+01 -0.28295691929E+02  0.44536006095E+02  0.13585975680E+03  0.12509000000E+03 0.  0.
         25    1    1    2    0    0  0.19452405127E+02 -0.75389408886E+01  0.98290972789E+02  0.16044891750E+03  0.12509000000E+03 0.  0.
         25    1    3    3    0    0 -0.24577187683E+02  0.35834632817E+02  0.91414140317E+02  0.16091057210E+03  0.12509000000E+03 0.  0.
<mgrwt>
<rscale>  2 0.39265830E+03</rscale>
<asrwt>0</asrwt>
<pdfrwt beam="1">  1       21 0.50842674E-01 0.39265830E+03</pdfrwt>
<pdfrwt beam="2">  1       21 0.16395451E-01 0.39265830E+03</pdfrwt>
<totfact> 0.11601124E+05</totfact>
</mgrwt>
</event>
<event>
 5    0  0.1539497E-004  0.5041529E+03  0.7546771E-02  0.1012701E+00
         21   -1    0    0  502  501  0.00000000000E+00  0.00000000000E+00  0.18778478762E+03  0.18778478762E+03  0.00000000000E+00 0. -1.
         21   -1    0    0  501  502 -0.00000000000E+00 -0.00000000000E+00 -0.33837958210E+03  0.33837958210E+03  0.00000000000E+00 0. -1.
         25    1    1    2    0    0  0.11671060498E+03 -0.12889814057E+02 -0.39947737736E+02  0.17615573358E+03  0.12509000000E+03 0.  0.
         25    1    1    2    0    0 -0.15306880734E+03  0.29024019490E+02 -0.79969090399E+02  0.21520924006E+03  0.12509000000E+03 0.  0.
         25    1    1    2    0    0  0.36358202361E+02 -0.16134205433E+02 -0.30677966350E+02  0.13479939608E+03  0.12509000000E+03 0.  0.
<mgrwt>
<rscale>  2 0.50415291E+03</rscale>
<asrwt>0</asrwt>
<pdfrwt beam="1">  1       21 0.27615410E-01 0.50415291E+03</pdfrwt>
<pdfrwt beam="2">  1       21 0.49761703E-01 0.50415291E+03</pdfrwt>
<totfact> 0.43744615E+04</totfact>
</mgrwt>
</event>
<event>
 6    0  0.1539497E-004  0.3906507E+03  0.7546771E-02  0.1047066E+00
         21   -1    0    0  502  501  0.00000000000E+00  0.00000000000E+00  0.16227759734E+04  0.16227759734E+04  0.00000000000E+00 0.  1.
         21   -1    0    0  501  502 -0.00000000000E+00 -0.00000000000E+00 -0.23510330515E+02  0.23510330515E+02  0.00000000000E+00 0.  1.
      99925    2    1    2    0    0  0.15650440071E+02  0.19350648056E+02  0.10907008303E+04  0.11219724089E+04  0.26186714409E+03 0.  0.
         25    1    3    3    0    0  0.68553876338E+01 -0.22387355669E+02  0.62809275355E+03  0.64085583807E+03  0.12509000000E+03 0.  0.
         25    1    3    3    0    0  0.87950524375E+01  0.41738003724E+02  0.46260807677E+03  0.48111657080E+03  0.12509000000E+03 0.  0.
         25    1    1    2    0    0 -0.15650440071E+02 -0.19350648056E+02  0.50856481256E+03  0.52431389504E+03  0.12509000000E+03 0.  0.
<mgrwt>
<rscale>  2 0.39065074E+03</rscale>
<asrwt>0</asrwt>
<pdfrwt beam="1">  1       21 0.23864345E+00 0.39065074E+03</pdfrwt>
<pdfrwt beam="2">  1       21 0.34574026E-02 0.39065074E+03</pdfrwt>
<totfact> 0.34823576E+04</totfact>
</mgrwt>
</event>
<event>
 6    0  0.1539497E-004  0.4076048E+03  0.7546771E-02  0.1041178E+00
         21   -1    0    0  502  501  0.00000000000E+00  0.00000000000E+00  0.15425800159E+03  0.15425800159E+03  0.00000000000E+00 0.  1.
         21   -1    0    0  501  502 -0.00000000000E+00 -0.00000000000E+00 -0.26925939699E+03  0.26925939699E+03  0.00000000000E+00 0.  1.
      99925    2    1    2    0    0  0.32226629713E+02  0.42145340778E+02 -0.10357288824E+03  0.28716159823E+03  0.26252553192E+03 0.  0.
         25    1    1    2    0    0 -0.32226629713E+02 -0.42145340778E+02 -0.11428507164E+02  0.13635580035E+03  0.12509000000E+03 0.  0.
         25    1    3    3    0    0  0.26852643642E+02  0.30127915071E+02 -0.92845779528E+02  0.16092421388E+03  0.12509000000E+03 0.  0.
         25    1    3    3    0    0  0.53739860713E+01  0.12017425708E+02 -0.10727108714E+02  0.12623738435E+03  0.12509000000E+03 0.  0.
<mgrwt>
<rscale>  2 0.40760479E+03</rscale>
<asrwt>0</asrwt>
<pdfrwt beam="1">  1       21 0.22685000E-01 0.40760479E+03</pdfrwt>
<pdfrwt beam="2">  1       21 0.39596970E-01 0.40760479E+03</pdfrwt>
<totfact> 0.10547022E+05</totfact>
</mgrwt>
</event>
<event>
 6    0  0.1539497E-004  0.4006941E+03  0.7546771E-02  0.1043540E+00
         21   -1    0    0  502  501  0.00000000000E+00  0.00000000000E+00  0.17266737676E+03  0.17266737676E+03  0.00000000000E+00 0. -1.
         21   -1    0    0  501  502 -0.00000000000E+00 -0.00000000000E+00 -0.23246396418E+03  0.23246396418E+03  0.00000000000E+00 0. -1.
      99925    2    1    2    0    0 -0.14409076252E+02 -0.41679401779E+02 -0.23897617647E+02  0.26772305101E+03  0.26298239846E+03 0.  0.
         25    1    3    3    0    0 -0.42974318995E+02 -0.23062101642E+02 -0.31287632468E+02  0.13785890131E+03  0.12509000000E+03 0.  0.
         25    1    1    2    0    0  0.14409076252E+02  0.41679401779E+02 -0.35898969773E+02  0.13740828993E+03  0.12509000000E+03 0.  0.
         25    1    3    3    0    0  0.28565242743E+02 -0.18617300137E+02  0.73900148207E+01  0.12986414970E+03  0.12509000000E+03 0.  0.
<mgrwt>
<rscale>  2 0.40069411E+03</rscale>
<asrwt>0</asrwt>
<pdfrwt beam="1">  1       21 0.25392261E-01 0.40069411E+03</pdfrwt>
<pdfrwt beam="2">  1       21 0.34185877E-01 0.40069411E+03</pdfrwt>
<totfact> 0.11448177E+05</totfact>
</mgrwt>
</event>
<event>
 6    0  0.1539497E-004  0.4351226E+03  0.7546771E-02  0.1032254E+00
         21   -1    0    0  502  501  0.00000000000E+00  0.00000000000E+00  0.31289774107E+03  0.31289774107E+03  0.00000000000E+00 0.  1.
         21   -1    0    0  501  502 -0.00000000000E+00 -0.00000000000E+00 -0.15127281824E+03  0.15127281824E+03  0.00000000000E+00 0.  1.
      99925    2    1    2    0    0 -0.19322680385E+02 -0.80672968177E+02  0.14988510557E+03  0.31361550234E+03  0.26269306170E+03 0.  0.
         25    1    3    3    0    0 -0.17892776730E+01 -0.50920379886E+02  0.33174451906E+02  0.13908320877E+03  0.12509000000E+03 0.  0.
         25    1    1    2    0    0  0.19322680385E+02  0.80672968177E+02  0.11739817258E+02  0.15055505698E+03  0.12509000000E+03 0.  0.
         25    1    3    3    0    0 -0.17533402712E+02 -0.29752588291E+02  0.11671065366E+03  0.17453229357E+03  0.12509000000E+03 0.  0.
<mgrwt>
<rscale>  2 0.43512262E+03</rscale>
<asrwt>0</asrwt>
<pdfrwt beam="1">  1       21 0.46014374E-01 0.43512262E+03</pdfrwt>
<pdfrwt beam="2">  1       21 0.22246003E-01 0.43512262E+03</pdfrwt>
<totfact> 0.79724921E+04</totfact>
</mgrwt>
</event>
<event>
 6    0  0.1539497E-004  0.4907371E+03  0.7546771E-02  0.1016225E+00
         21   -1    0    0  502  501  0.00000000000E+00  0.00000000000E+00  0.15268614831E+03  0.15268614831E+03  0.00000000000E+00 0. -1.
         21   -1    0    0  501  502 -0.00000000000E+00 -0.00000000000E+00 -0.39431030504E+03  0.39431030504E+03  0.00000000000E+00 0. -1.
      99925    2    1    2    0    0  0.22073422643E+02  0.14183255223E+03 -0.14014308369E+03  0.33124283196E+03  0.26358683761E+03 0.  0.
         25    1    3    3    0    0 -0.28029948215E+02  0.78760110478E+02 -0.83282117430E+02  0.17196584598E+03  0.12509000000E+03 0.  0.
         25    1    1    2    0    0 -0.22073422643E+02 -0.14183255223E+03 -0.10148107304E+03  0.21575362140E+03  0.12509000000E+03 0.  0.
         25    1    3    3    0    0  0.50103370857E+02  0.63072441754E+02 -0.56860966256E+02  0.15927698598E+03  0.12509000000E+03 0.  0.
<mgrwt>
<rscale>  2 0.49073709E+03</rscale>
<asrwt>0</asrwt>
<pdfrwt beam="1">  1       21 0.22453846E-01 0.49073709E+03</pdfrwt>
<pdfrwt beam="2">  1       21 0.57986808E-01 0.49073709E+03</pdfrwt>
<totfact> 0.47210570E+04</totfact>
</mgrwt>
</event>
<event>
 6    0  0.1539497E-004  0.4547169E+03  0.7546771E-02  0.1026325E+00
         21   -1    0    0  502  501  0.00000000000E+00  0.00000000000E+00  0.91423999414E+03  0.91423999414E+03  0.00000000000E+00 0. -1.
         21   -1    0    0  501  502 -0.00000000000E+00 -0.00000000000E+00 -0.56540804238E+02  0.56540804238E+02  0.00000000000E+00 0. -1.
      99925    2    1    2    0    0  0.26657857602E+02 -0.13976134420E+02  0.30696976382E+03  0.40522232876E+03  0.26280929610E+03 0.  0.
         25    1    3    3    0    0  0.25261746150E+02  0.16245939450E+01  0.21174467119E+03  0.24723290437E+03  0.12509000000E+03 0.  0.
         25    1    1    2    0    0 -0.26657857602E+02  0.13976134420E+02  0.55072942608E+03  0.56555846962E+03  0.12509000000E+03 0.  0.
         25    1    3    3    0    0  0.13961114514E+01 -0.15600728365E+02  0.95225092624E+02  0.15798942439E+03  0.12509000000E+03 0.  0.
<mgrwt>
<rscale>  2 0.45471690E+03</rscale>
<asrwt>0</asrwt>
<pdfrwt beam="1">  1       21 0.13444705E+00 0.45471690E+03</pdfrwt>
<pdfrwt beam="2">  1       21 0.83148248E-02 0.45471690E+03</pdfrwt>
<totfact> 0.40399943E+04</totfact>
</mgrwt>
</event>
<event>
 6    0  0.1539497E-004  0.3997523E+03  0.7546771E-02  0.1043865E+00
         21   -1    0    0  502  501  0.00000000000E+00  0.00000000000E+00  0.11283086511E+03  0.11283086511E+03  0.00000000000E+00 0. -1.
         21   -1    0    0  501  502 -0.00000000000E+00 -0.00000000000E+00 -0.35407404012E+03  0.35407404012E+03  0.00000000000E+00 0. -1.
      99925    2    1    2    0    0 -0.45025123111E+02  0.23661204100E+01 -0.16661107623E+03  0.31442435399E+03  0.26281279159E+03 0.  0.
         25    1    3    3    0    0  0.14040599964E+00  0.28345444246E+01 -0.41484364285E+02  0.13182000962E+03  0.12509000000E+03 0.  0.
         25    1    3    3    0    0 -0.45165529111E+02 -0.46842401463E+00 -0.12512671194E+03  0.18260434437E+03  0.12509000000E+03 0.  0.
         25    1    1    2    0    0  0.45025123111E+02 -0.23661204100E+01 -0.74632098790E+02  0.15248055124E+03  0.12509000000E+03 0.  0.
<mgrwt>
<rscale>  2 0.39975232E+03</rscale>
<asrwt>0</asrwt>
<pdfrwt beam="1">  1       21 0.16592774E-01 0.39975232E+03</pdfrwt>
<pdfrwt beam="2">  1       21 0.52069712E-01 0.39975232E+03</pdfrwt>
<totfact> 0.10767530E+05</totfact>
</mgrwt>
</event>
<event>
 6    0  0.1539497E-004  0.5241200E+03  0.7546771E-02  0.1007668E+00
         21   -1    0    0  502  501  0.00000000000E+00  0.00000000000E+00  0.63986090033E+02  0.63986090033E+02  0.00000000000E+00 0. -1.
         21   -1    0    0  501  502 -0.00000000000E+00 -0.00000000000E+00 -0.10732871229E+04  0.10732871229E+04  0.00000000000E+00 0. -1.
      99925    2    1    2    0    0  0.15903460646E+03  0.19222105956E+02 -0.47893921015E+03  0.56930079591E+03  0.26279104587E+03 0.  0.
         25    1    1    2    0    0 -0.15903460646E+03 -0.19222105956E+02 -0.53036182272E+03  0.56797241703E+03  0.12509000000E+03 0.  0.
         25    1    3    3    0    0  0.11070443632E+03  0.41811381559E+01 -0.20964675566E+03  0.26808995579E+03  0.12509000000E+03 0.  0.
         25    1    3    3    0    0  0.48330170143E+02  0.15040967800E+02 -0.26929245449E+03  0.30121084012E+03  0.12509000000E+03 0.  0.
<mgrwt>
<rscale>  2 0.52412001E+03</rscale>
<asrwt>0</asrwt>
<pdfrwt beam="1">  1       21 0.94097195E-02 0.52412001E+03</pdfrwt>
<pdfrwt beam="2">  1       21 0.15783634E+00 0.52412001E+03</pdfrwt>
<totfact> 0.20641134E+04</totfact>
</mgrwt>
</event>
<event>
 6    0  0.1539497E-004  0.4139936E+03  0.7546771E-02  0.1039039E+00
         21   -1    0    0  502  501  0.00000000000E+00  0.00000000000E+00  0.85599403578E+02  0.85599403578E+02  0.00000000000E+00 0. -1.
         21   -1    0    0  501  502 -0.00000000000E+00 -0.00000000000E+00 -0.50056046718E+03  0.50056046718E+03  0.00000000000E+00 0. -1.
      99925    2    1    2    0    0  0.36008214945E+02  0.39558195368E+02 -0.33105688170E+03  0.42631975625E+03  0.26322696154E+03 0.  0.
         25    1    3    3    0    0  0.57186448961E+02  0.29507754196E+02 -0.18877412700E+03  0.23542339864E+03  0.12509000000E+03 0.  0.
         25    1    1    2    0    0 -0.36008214945E+02 -0.39558195368E+02 -0.83904181894E+02  0.15984011450E+03  0.12509000000E+03 0.  0.
         25    1    3    3    0    0 -0.21178234016E+02  0.10050441172E+02 -0.14228275471E+03  0.19089635762E+03  0.12509000000E+03 0.  0.
<mgrwt>
<rscale>  2 0.41399361E+03</rscale>
<asrwt>0</asrwt>
<pdfrwt beam="1">  1       21 0.12588148E-01 0.41399361E+03</pdfrwt>
<pdfrwt beam="2">  1       21 0.73611832E-01 0.41399361E+03</pdfrwt>
<totfact> 0.83474630E+04</totfact>
</mgrwt>
</event>
<event>
 6    0  0.1539497E-004  0.3958036E+03  0.7546771E-02  0.1045243E+00
         21   -1    0    0  502  501  0.00000000000E+00  0.00000000000E+00  0.56587632485E+02  0.56587632485E+02  0.00000000000E+00 0. -1.
         21   -1    0    0  501  502 -0.00000000000E+00 -0.00000000000E+00 -0.69211441487E+03  0.69211441487E+03  0.00000000000E+00 0. -1.
      99925    2    1    2    0    0  0.33397347774E+02  0.13322108229E+02 -0.42210299066E+03  0.49872187938E+03  0.26317240897E+03 0.  0.
         25    1    3    3    0    0  0.86262648728E+01 -0.33127744852E+02 -0.19630137136E+03  0.23527345031E+03  0.12509000000E+03 0.  0.
         25    1    1    2    0    0 -0.33397347774E+02 -0.13322108229E+02 -0.21342379173E+03  0.24998016798E+03  0.12509000000E+03 0.  0.
         25    1    3    3    0    0  0.24771082901E+02  0.46449853081E+02 -0.22580161929E+03  0.26344842906E+03  0.12509000000E+03 0.  0.
<mgrwt>
<rscale>  2 0.39580357E+03</rscale>
<asrwt>0</asrwt>
<pdfrwt beam="1">  1       21 0.83217105E-02 0.39580357E+03</pdfrwt>
<pdfrwt beam="2">  1       21 0.10178153E+00 0.39580357E+03</pdfrwt>
<totfact> 0.82533089E+04</totfact>
</mgrwt>
</event>
<event>
 6    0  0.1539497E-004  0.3983851E+03  0.7546771E-02  0.1044340E+00
         21   -1    0    0  502  501  0.00000000000E+00  0.00000000000E+00  0.50819572738E+03  0.50819572738E+03  0.00000000000E+00 0.  1.
         21   -1    0    0  501  502 -0.00000000000E+00 -0.00000000000E+00 -0.78075577542E+02  0.78075577542E+02  0.00000000000E+00 0.  1.
      99925    2    1    2    0    0 -0.32423078908E+02  0.23148140761E+02  0.26554313156E+03  0.37574768271E+03  0.26284229848E+03 0.  0.
         25    1    3    3    0    0 -0.53062680989E+02 -0.15271191439E+01  0.15064662528E+03  0.20287901324E+03  0.12509000000E+03 0.  0.
         25    1    3    3    0    0  0.20639602081E+02  0.24675259905E+02  0.11489650628E+03  0.17286866946E+03  0.12509000000E+03 0.  0.
         25    1    1    2    0    0  0.32423078908E+02 -0.23148140761E+02  0.16457701827E+03  0.21052362221E+03  0.12509000000E+03 0.  0.
<mgrwt>
<rscale>  2 0.39838511E+03</rscale>
<asrwt>0</asrwt>
<pdfrwt beam="1">  1       21 0.74734664E-01 0.39838511E+03</pdfrwt>
<pdfrwt beam="2">  1       21 0.11481703E-01 0.39838511E+03</pdfrwt>
<totfact> 0.95665877E+04</totfact>
</mgrwt>
</event>
<event>
 6    0  0.1539497E-004  0.4112893E+03  0.7546771E-02  0.1039939E+00
         21   -1    0    0  502  501  0.00000000000E+00  0.00000000000E+00  0.33076286608E+03  0.33076286608E+03  0.00000000000E+00 0. -1.
         21   -1    0    0  501  502 -0.00000000000E+00 -0.00000000000E+00 -0.12785512728E+03  0.12785512728E+03  0.00000000000E+00 0. -1.
      99925    2    1    2    0    0 -0.55061215616E+02 -0.32573850587E+02  0.13034106543E+03  0.30048443149E+03  0.26307661816E+03 0.  0.
         25    1    3    3    0    0  0.90322095065E+01 -0.30406448955E+02  0.48746577444E+02  0.13794879434E+03  0.12509000000E+03 0.  0.
         25    1    3    3    0    0 -0.64093425123E+02 -0.21674016325E+01  0.81594487989E+02  0.16253563715E+03  0.12509000000E+03 0.  0.
         25    1    1    2    0    0  0.55061215616E+02  0.32573850587E+02  0.72566673364E+02  0.15813356187E+03  0.12509000000E+03 0.  0.
<mgrwt>
<rscale>  2 0.41128933E+03</rscale>
<asrwt>0</asrwt>
<pdfrwt beam="1">  1       21 0.48641598E-01 0.41128933E+03</pdfrwt>
<pdfrwt beam="2">  1       21 0.18802225E-01 0.41128933E+03</pdfrwt>
<totfact> 0.98183429E+04</totfact>
</mgrwt>
</event>
<event>
 6    0  0.1539497E-004  0.4123305E+03  0.7546771E-02  0.1039592E+00
         21   -1    0    0  502  501  0.00000000000E+00  0.00000000000E+00  0.26333043986E+03  0.26333043986E+03  0.00000000000E+00 0.  1.
         21   -1    0    0  501  502 -0.00000000000E+00 -0.00000000000E+00 -0.16140976137E+03  0.16140976137E+03  0.00000000000E+00 0.  1.
      99925    2    1    2    0    0 -0.33781248656E+00  0.39277171615E+02  0.12850777915E+02  0.26623542018E+03  0.26300826249E+03 0.  0.
         25    1    3    3    0    0 -0.24381109112E+01 -0.14765171885E+02  0.28179512791E+02  0.12909511117E+03  0.12509000000E+03 0.  0.
         25    1    1    2    0    0  0.33781248656E+00 -0.39277171615E+02  0.89069900575E+02  0.15850478105E+03  0.12509000000E+03 0.  0.
         25    1    3    3    0    0  0.21002984247E+01  0.54042343499E+02 -0.15328734875E+02  0.13714030902E+03  0.12509000000E+03 0.  0.
<mgrwt>
<rscale>  2 0.41233047E+03</rscale>
<asrwt>0</asrwt>
<pdfrwt beam="1">  1       21 0.38725065E-01 0.41233047E+03</pdfrwt>
<pdfrwt beam="2">  1       21 0.23736729E-01 0.41233047E+03</pdfrwt>
<totfact> 0.10106478E+05</totfact>
</mgrwt>
</event>
<event>
 6    0  0.1539497E-004  0.3898428E+03  0.7546771E-02  0.1047355E+00
         21   -1    0    0  502  501  0.00000000000E+00  0.00000000000E+00  0.27018130134E+03  0.27018130134E+03  0.00000000000E+00 0. -1.
         21   -1    0    0  501  502 -0.00000000000E+00 -0.00000000000E+00 -0.14062538442E+03  0.14062538442E+03  0.00000000000E+00 0. -1.
      99925    2    1    2    0    0  0.27504785163E+01  0.17046913408E+02  0.88799631117E+02  0.27811627420E+03  0.26299263317E+03 0.  0.
         25    1    3    3    0    0 -0.44345365972E+01  0.24017666608E+02  0.56472195580E+01  0.12757708498E+03  0.12509000000E+03 0.  0.
         25    1    3    3    0    0  0.71850151135E+01 -0.69707532002E+01  0.83152411559E+02  0.15053918922E+03  0.12509000000E+03 0.  0.
         25    1    1    2    0    0 -0.27504785163E+01 -0.17046913408E+02  0.40756285798E+02  0.13269041156E+03  0.12509000000E+03 0.  0.
<mgrwt>
<rscale>  2 0.38984279E+03</rscale>
<asrwt>0</asrwt>
<pdfrwt beam="1">  1       21 0.39732544E-01 0.38984279E+03</pdfrwt>
<pdfrwt beam="2">  1       21 0.20680204E-01 0.38984279E+03</pdfrwt>
<totfact> 0.12546105E+05</totfact>
</mgrwt>
</event>
<event>
 6    0  0.1539497E-004  0.4072017E+03  0.7546771E-02  0.1041314E+00
         21   -1    0    0  502  501  0.00000000000E+00  0.00000000000E+00  0.83083987381E+02  0.83083987381E+02  0.00000000000E+00 0. -1.
         21   -1    0    0  501  502 -0.00000000000E+00 -0.00000000000E+00 -0.49893266472E+03  0.49893266472E+03  0.00000000000E+00 0. -1.
      99925    2    1    2    0    0 -0.21890920078E+02  0.45671327406E+02 -0.23422353849E+03  0.35574185967E+03  0.26291923134E+03 0.  0.
         25    1    1    2    0    0  0.21890920078E+02 -0.45671327406E+02 -0.18162513885E+03  0.22627479243E+03  0.12509000000E+03 0.  0.
         25    1    3    3    0    0 -0.35824960663E+00  0.10703761315E+02 -0.65126380535E+02  0.14143426880E+03  0.12509000000E+03 0.  0.
         25    1    3    3    0    0 -0.21532670472E+02  0.34967566091E+02 -0.16909715796E+03  0.21430759087E+03  0.12509000000E+03 0.  0.
<mgrwt>
<rscale>  2 0.40720174E+03</rscale>
<asrwt>0</asrwt>
<pdfrwt beam="1">  1       21 0.12218233E-01 0.40720174E+03</pdfrwt>
<pdfrwt beam="2">  1       21 0.73372452E-01 0.40720174E+03</pdfrwt>
<totfact> 0.88922668E+04</totfact>
</mgrwt>
</event>
<event>
 6    0  0.1539497E-004  0.4503004E+03  0.7546771E-02  0.1027633E+00
         21   -1    0    0  502  501  0.00000000000E+00  0.00000000000E+00  0.21105804012E+03  0.21105804012E+03  0.00000000000E+00 0. -1.
         21   -1    0    0  501  502 -0.00000000000E+00 -0.00000000000E+00 -0.24018325015E+03  0.24018325015E+03  0.00000000000E+00 0. -1.
      99925    2    1    2    0    0 -0.10627690869E+03 -0.19006348533E+02 -0.29859405503E+02  0.28600185869E+03  0.26315291461E+03 0.  0.
         25    1    3    3    0    0 -0.74787114840E+02 -0.27881145452E+01 -0.50700257756E+02  0.15433376288E+03  0.12509000000E+03 0.  0.
         25    1    3    3    0    0 -0.31489793852E+02 -0.16218233988E+02  0.20840852253E+02  0.13166809581E+03  0.12509000000E+03 0.  0.
         25    1    1    2    0    0  0.10627690869E+03  0.19006348533E+02  0.73419546752E+00  0.16523943158E+03  0.12509000000E+03 0.  0.
<mgrwt>
<rscale>  2 0.45030037E+03</rscale>
<asrwt>0</asrwt>
<pdfrwt beam="1">  1       21 0.31037947E-01 0.45030037E+03</pdfrwt>
<pdfrwt beam="2">  1       21 0.35321066E-01 0.45030037E+03</pdfrwt>
<totfact> 0.71464437E+04</totfact>
</mgrwt>
</event>
<event>
 6    0  0.1539497E-004  0.3993779E+03  0.7546771E-02  0.1043995E+00
         21   -1    0    0  502  501  0.00000000000E+00  0.00000000000E+00  0.68730685730E+02  0.68730685730E+02  0.00000000000E+00 0. -1.
         21   -1    0    0  501  502 -0.00000000000E+00 -0.00000000000E+00 -0.58017297106E+03  0.58017297106E+03  0.00000000000E+00 0. -1.
      99925    2    1    2    0    0  0.40068599691E+02  0.17069116584E+02 -0.35300428526E+03  0.44239226391E+03  0.26306281063E+03 0.  0.
         25    1    3    3    0    0  0.58777114014E+02  0.18856509593E+01 -0.16423320365E+03  0.21465870141E+03  0.12509000000E+03 0.  0.
         25    1    1    2    0    0 -0.40068599691E+02 -0.17069116584E+02 -0.15843800007E+03  0.20651139288E+03  0.12509000000E+03 0.  0.
         25    1    3    3    0    0 -0.18708514323E+02  0.15183465624E+02 -0.18877108161E+03  0.22773356250E+03  0.12509000000E+03 0.  0.
<mgrwt>
<rscale>  2 0.39937795E+03</rscale>
<asrwt>0</asrwt>
<pdfrwt beam="1">  1       21 0.10107453E-01 0.39937795E+03</pdfrwt>
<pdfrwt beam="2">  1       21 0.85319558E-01 0.39937795E+03</pdfrwt>
<totfact> 0.88725919E+04</totfact>
</mgrwt>
</event>
<event>
 6    0  0.1539497E-004  0.4075177E+03  0.7546771E-02  0.1041207E+00
         21   -1    0    0  502  501  0.00000000000E+00  0.00000000000E+00  0.34772434506E+03  0.34772434506E+03  0.00000000000E+00 0. -1.
         21   -1    0    0  501  502 -0.00000000000E+00 -0.00000000000E+00 -0.11939821050E+03  0.11939821050E+03  0.00000000000E+00 0. -1.
      99925    2    1    2    0    0 -0.43060608847E+02 -0.25091854174E+02  0.11571053815E+03  0.29158453167E+03  0.26296158139E+03 0.  0.
         25    1    1    2    0    0  0.43060608847E+02  0.25091854174E+02  0.11261559641E+03  0.17553802390E+03  0.12509000000E+03 0.  0.
         25    1    3    3    0    0 -0.50265397064E+02 -0.40975891393E+02  0.69363498032E+02  0.15704915401E+03  0.12509000000E+03 0.  0.
         25    1    3    3    0    0  0.72047882176E+01  0.15884037219E+02  0.46347040120E+02  0.13453537765E+03  0.12509000000E+03 0.  0.
<mgrwt>
<rscale>  2 0.40751768E+03</rscale>
<asrwt>0</asrwt>
<pdfrwt beam="1">  1       21 0.51135933E-01 0.40751768E+03</pdfrwt>
<pdfrwt beam="2">  1       21 0.17558560E-01 0.40751768E+03</pdfrwt>
<totfact> 0.10051090E+05</totfact>
</mgrwt>
</event>
<event>
 6    0  0.1539497E-004  0.5085936E+03  0.7546771E-02  0.1011560E+00
         21   -1    0    0  502  501  0.00000000000E+00  0.00000000000E+00  0.38722786142E+02  0.38722786142E+02  0.00000000000E+00 0.  1.
         21   -1    0    0  501  502 -0.00000000000E+00 -0.00000000000E+00 -0.16699953169E+04  0.16699953169E+04  0.00000000000E+00 0.  1.
      99925    2    1    2    0    0  0.70742967750E+02  0.11320624374E+03 -0.69954595201E+03  0.75920130659E+03  0.26306247136E+03 0.  0.
         25    1    1    2    0    0 -0.70742967750E+02 -0.11320624374E+03 -0.93172657877E+03  0.94951679648E+03  0.12509000000E+03 0.  0.
         25    1    3    3    0    0  0.69401455444E+02  0.34359422873E+02 -0.35023891250E+03  0.37988410850E+03  0.12509000000E+03 0.  0.
         25    1    3    3    0    0  0.13415123059E+01  0.78846820870E+02 -0.34930703951E+03  0.37931719809E+03  0.12509000000E+03 0.  0.
<mgrwt>
<rscale>  2 0.50859364E+03</rscale>
<asrwt>0</asrwt>
<pdfrwt beam="1">  1       21 0.56945268E-02 0.50859364E+03</pdfrwt>
<pdfrwt beam="2">  1       21 0.24558757E+00 0.50859364E+03</pdfrwt>
<totfact> 0.12848861E+04</totfact>
</mgrwt>
</event>
<event>
 6    0  0.1539497E-004  0.4392331E+03  0.7546771E-02  0.1030982E+00
         21   -1    0    0  502  501  0.00000000000E+00  0.00000000000E+00  0.65322484402E+03  0.65322484402E+03  0.00000000000E+00 0.  1.
         21   -1    0    0  501  502 -0.00000000000E+00 -0.00000000000E+00 -0.73835873722E+02  0.73835873722E+02  0.00000000000E+00 0.  1.
      99925    2    1    2    0    0  0.29714810368E+02  0.63043492095E+02  0.48321553957E+03  0.55456640268E+03  0.26303837258E+03 0.  0.
         25    1    3    3    0    0  0.89987340084E-02  0.55544040263E+02  0.18857571136E+03  0.23300954381E+03  0.12509000000E+03 0.  0.
         25    1    3    3    0    0  0.29705811634E+02  0.74994518318E+01  0.29463982821E+03  0.32155685887E+03  0.12509000000E+03 0.  0.
         25    1    1    2    0    0 -0.29714810368E+02 -0.63043492095E+02  0.96173430731E+02  0.17249431506E+03  0.12509000000E+03 0.  0.
<mgrwt>
<rscale>  2 0.43923309E+03</rscale>
<asrwt>0</asrwt>
<pdfrwt beam="1">  1       21 0.96062474E-01 0.43923309E+03</pdfrwt>
<pdfrwt beam="2">  1       21 0.10858217E-01 0.43923309E+03</pdfrwt>
<totfact> 0.58365369E+04</totfact>
</mgrwt>
</event>
<event>
 6    0  0.1539497E-004  0.4052885E+03  0.7546771E-02  0.1041964E+00
         21   -1    0    0  502  501  0.00000000000E+00  0.00000000000E+00  0.70063116326E+02  0.70063116326E+02  0.00000000000E+00 0.  1.
         21   -1    0    0  501  502 -0.00000000000E+00 -0.00000000000E+00 -0.58610988734E+03  0.58610988734E+03  0.00000000000E+00 0.  1.
      99925    2    1    2    0    0  0.89624185393E+01 -0.13864962255E+02 -0.25728524283E+03  0.36828830679E+03  0.26299813425E+03 0.  0.
         25    1    3    3    0    0  0.58278152605E+01  0.18495098555E+02 -0.83234108886E+02  0.15149738309E+03  0.12509000000E+03 0.  0.
         25    1    1    2    0    0 -0.89624185393E+01  0.13864962255E+02 -0.25876152819E+03  0.28788469688E+03  0.12509000000E+03 0.  0.
         25    1    3    3    0    0  0.31346032788E+01 -0.32360060810E+02 -0.17405113394E+03  0.21679092370E+03  0.12509000000E+03 0.  0.
<mgrwt>
<rscale>  2 0.40528847E+03</rscale>
<asrwt>0</asrwt>
<pdfrwt beam="1">  1       21 0.10303399E-01 0.40528847E+03</pdfrwt>
<pdfrwt beam="2">  1       21 0.86192634E-01 0.40528847E+03</pdfrwt>
<totfact> 0.83588920E+04</totfact>
</mgrwt>
</event>
<event>
 6    0  0.1793829E-004  0.4031799E+03  0.7546771E-02  0.1042684E+00
         21   -1    0    0  502  501  0.00000000000E+00  0.00000000000E+00  0.64763770497E+03  0.64763770497E+03  0.00000000000E+00 0.  1.
         21   -1    0    0  501  502 -0.00000000000E+00 -0.00000000000E+00 -0.62748832480E+02  0.62748832480E+02  0.00000000000E+00 0.  1.
      99925    2    1    2    0    0 -0.17336993080E+02  0.84768813271E+01  0.47179797129E+03  0.54065295538E+03  0.26332463540E+03 0.  0.
         25    1    1    2    0    0  0.17336993080E+02 -0.84768813271E+01  0.11309090120E+03  0.16973358206E+03  0.12509000000E+03 0.  0.
         25    1    3    3    0    0 -0.34528277182E+02  0.34725506199E+02  0.22057377993E+03  0.25826026252E+03  0.12509000000E+03 0.  0.
         25    1    3    3    0    0  0.17191284102E+02 -0.26248624872E+02  0.25122419136E+03  0.28239269286E+03  0.12509000000E+03 0.  0.
<mgrwt>
<rscale>  2 0.40317991E+03</rscale>
<asrwt>0</asrwt>
<pdfrwt beam="1">  1       21 0.95240835E-01 0.40317991E+03</pdfrwt>
<pdfrwt beam="2">  1       21 0.92277698E-02 0.40317991E+03</pdfrwt>
<totfact> 0.80467419E+04</totfact>
</mgrwt>
</event>
<event>
 6    0  0.1539497E-004  0.4370871E+03  0.7546771E-02  0.1031644E+00
         21   -1    0    0  502  501  0.00000000000E+00  0.00000000000E+00  0.29292430630E+03  0.29292430630E+03  0.00000000000E+00 0.  1.
         21   -1    0    0  501  502 -0.00000000000E+00 -0.00000000000E+00 -0.16304988123E+03  0.16304988123E+03  0.00000000000E+00 0.  1.
      99925    2    1    2    0    0  0.51740729227E+02 -0.77811652655E+01 -0.11526990742E+00  0.26813787983E+03  0.26298338297E+03 0.  0.
         25    1    3    3    0    0  0.42567210117E+00  0.20680056844E+01 -0.31447403313E+02  0.12899963225E+03  0.12509000000E+03 0.  0.
         25    1    3    3    0    0  0.51315057126E+02 -0.98491709498E+01  0.31332133405E+02  0.13913824758E+03  0.12509000000E+03 0.  0.
         25    1    1    2    0    0 -0.51740729227E+02  0.77811652655E+01  0.12998969498E+03  0.18783630771E+03  0.12509000000E+03 0.  0.
<mgrwt>
<rscale>  2 0.43708705E+03</rscale>
<asrwt>0</asrwt>
<pdfrwt beam="1">  1       21 0.43077104E-01 0.43708705E+03</pdfrwt>
<pdfrwt beam="2">  1       21 0.23977924E-01 0.43708705E+03</pdfrwt>
<totfact> 0.79157937E+04</totfact>
</mgrwt>
</event>
<event>
 6    0  0.1539497E-004  0.4066853E+03  0.7546771E-02  0.1041489E+00
         21   -1    0    0  502  501  0.00000000000E+00  0.00000000000E+00  0.88626313263E+02  0.88626313263E+02  0.00000000000E+00 0.  1.
         21   -1    0    0  501  502 -0.00000000000E+00 -0.00000000000E+00 -0.46654584007E+03  0.46654584007E+03  0.00000000000E+00 0.  1.
      99925    2    1    2    0    0 -0.23943619531E+02 -0.39618351682E+01 -0.17994780826E+03  0.31973786845E+03  0.26317693244E+03 0.  0.
         25    1    3    3    0    0 -0.28108090195E+02  0.99701595345E+01 -0.13390013275E+03  0.18565080788E+03  0.12509000000E+03 0.  0.
         25    1    1    2    0    0  0.23943619531E+02  0.39618351682E+01 -0.19797171854E+03  0.23543428488E+03  0.12509000000E+03 0.  0.
         25    1    3    3    0    0  0.41644706642E+01 -0.13931994703E+02 -0.46047675509E+02  0.13408706057E+03  0.12509000000E+03 0.  0.
<mgrwt>
<rscale>  2 0.40668532E+03</rscale>
<asrwt>0</asrwt>
<pdfrwt beam="1">  1       21 0.13033281E-01 0.40668532E+03</pdfrwt>
<pdfrwt beam="2">  1       21 0.68609682E-01 0.40668532E+03</pdfrwt>
<totfact> 0.91942088E+04</totfact>
</mgrwt>
</event>
<event>
 5    0  0.1539497E-004  0.4546916E+03  0.7546771E-02  0.1026332E+00
         21   -1    0    0  502  501  0.00000000000E+00  0.00000000000E+00  0.45456598370E+03  0.45456598370E+03  0.00000000000E+00 0. -1.
         21   -1    0    0  501  502 -0.00000000000E+00 -0.00000000000E+00 -0.11370433213E+03  0.11370433213E+03  0.00000000000E+00 0. -1.
         25    1    1    2    0    0 -0.43433743895E+02 -0.57642111476E+01  0.10520170442E+02  0.13295825783E+03  0.12509000000E+03 0.  0.
         25    1    1    2    0    0  0.27496950702E-01 -0.61975747456E+01  0.71223598352E+02  0.14407886643E+03  0.12509000000E+03 0.  0.
         25    1    1    2    0    0  0.43406246944E+02  0.11961785893E+02  0.25911788278E+03  0.29123319157E+03  0.12509000000E+03 0.  0.
<mgrwt>
<rscale>  2 0.45469164E+03</rscale>
<asrwt>0</asrwt>
<pdfrwt beam="1">  1       21 0.66847938E-01 0.45469164E+03</pdfrwt>
<pdfrwt beam="2">  1       21 0.16721225E-01 0.45469164E+03</pdfrwt>
<totfact> 0.60823282E+04</totfact>
</mgrwt>
</event>
<event>
 6    0  0.1539497E-004  0.4120521E+03  0.7546771E-02  0.1039685E+00
         21   -1    0    0  502  501  0.00000000000E+00  0.00000000000E+00  0.11164011640E+03  0.11164011640E+03  0.00000000000E+00 0.  1.
         21   -1    0    0  501  502 -0.00000000000E+00 -0.00000000000E+00 -0.38021046189E+03  0.38021046189E+03  0.00000000000E+00 0.  1.
      99925    2    1    2    0    0 -0.93589006824E+01  0.10728007538E+02 -0.10068636355E+03  0.28200487626E+03  0.26303293950E+03 0.  0.
         25    1    1    2    0    0  0.93589006824E+01 -0.10728007538E+02 -0.16788398193E+03  0.20984570202E+03  0.12509000000E+03 0.  0.
         25    1    3    3    0    0  0.25123096773E+02  0.25926485732E+02 -0.69943924304E+02  0.14779382024E+03  0.12509000000E+03 0.  0.
         25    1    3    3    0    0 -0.34481997455E+02 -0.15198478194E+02 -0.30742439250E+02  0.13421105602E+03  0.12509000000E+03 0.  0.
<mgrwt>
<rscale>  2 0.41205213E+03</rscale>
<asrwt>0</asrwt>
<pdfrwt beam="1">  1       21 0.16417664E-01 0.41205213E+03</pdfrwt>
<pdfrwt beam="2">  1       21 0.55913303E-01 0.41205213E+03</pdfrwt>
<totfact> 0.94015141E+04</totfact>
</mgrwt>
</event>
<event>
 6    0  0.1539497E-004  0.4368969E+03  0.7546771E-02  0.1031703E+00
         21   -1    0    0  502  501  0.00000000000E+00  0.00000000000E+00  0.36955781527E+03  0.36955781527E+03  0.00000000000E+00 0.  1.
         21   -1    0    0  501  502 -0.00000000000E+00 -0.00000000000E+00 -0.12912655869E+03  0.12912655869E+03  0.00000000000E+00 0.  1.
      99925    2    1    2    0    0 -0.12582577343E+00 -0.34020555472E+02  0.25534303844E+03  0.36819574087E+03  0.26307911793E+03 0.  0.
         25    1    3    3    0    0 -0.21311071426E+02 -0.13057431935E+02  0.17503987533E+03  0.21658976049E+03  0.12509000000E+03 0.  0.
         25    1    1    2    0    0  0.12582577343E+00  0.34020555472E+02 -0.14911781859E+02  0.13048863309E+03  0.12509000000E+03 0.  0.
         25    1    3    3    0    0  0.21185245652E+02 -0.20963123537E+02  0.80303163117E+02  0.15160598038E+03  0.12509000000E+03 0.  0.
<mgrwt>
<rscale>  2 0.43689692E+03</rscale>
<asrwt>0</asrwt>
<pdfrwt beam="1">  1       21 0.54346737E-01 0.43689692E+03</pdfrwt>
<pdfrwt beam="2">  1       21 0.18989200E-01 0.43689692E+03</pdfrwt>
<totfact> 0.75663448E+04</totfact>
</mgrwt>
</event>
<event>
 6    0  0.1539497E-004  0.4482237E+03  0.7546771E-02  0.1028253E+00
         21   -1    0    0  502  501  0.00000000000E+00  0.00000000000E+00  0.47425262017E+03  0.47425262017E+03  0.00000000000E+00 0.  1.
         21   -1    0    0  501  502 -0.00000000000E+00 -0.00000000000E+00 -0.10590585346E+03  0.10590585346E+03  0.00000000000E+00 0.  1.
      99925    2    1    2    0    0 -0.22489732335E+02  0.92117658049E+01  0.98792022889E+02  0.28200094362E+03  0.26300955064E+03 0.  0.
         25    1    1    2    0    0  0.22489732335E+02 -0.92117658049E+01  0.26955474382E+03  0.29815753001E+03  0.12509000000E+03 0.  0.
         25    1    3    3    0    0  0.90437782864E+01  0.23715911429E+02  0.17502271777E+02  0.12883350495E+03  0.12509000000E+03 0.  0.
         25    1    3    3    0    0 -0.31533510622E+02 -0.14504145624E+02  0.81289751111E+02  0.15316743867E+03  0.12509000000E+03 0.  0.
<mgrwt>
<rscale>  2 0.44822373E+03</rscale>
<asrwt>0</asrwt>
<pdfrwt beam="1">  1       21 0.69743031E-01 0.44822373E+03</pdfrwt>
<pdfrwt beam="2">  1       21 0.15574390E-01 0.44822373E+03</pdfrwt>
<totfact> 0.63236589E+04</totfact>
</mgrwt>
</event>
<event>
 6    0  0.1539497E-004  0.4422407E+03  0.7546771E-02  0.1030062E+00
         21   -1    0    0  502  501  0.00000000000E+00  0.00000000000E+00  0.73437452685E+03  0.73437452685E+03  0.00000000000E+00 0. -1.
         21   -1    0    0  501  502 -0.00000000000E+00 -0.00000000000E+00 -0.66579403460E+02  0.66579403460E+02  0.00000000000E+00 0. -1.
      99925    2    1    2    0    0  0.77831946351E+00  0.98381450538E+02  0.46285423425E+03  0.54147793579E+03  0.26322005469E+03 0.  0.
         25    1    1    2    0    0 -0.77831946351E+00 -0.98381450538E+02  0.20494088914E+03  0.25947599452E+03  0.12509000000E+03 0.  0.
         25    1    3    3    0    0 -0.79845466277E+01  0.79532237637E+02  0.30322781882E+03  0.33761479235E+03  0.12509000000E+03 0.  0.
         25    1    3    3    0    0  0.87628660912E+01  0.18849212901E+02  0.15962641543E+03  0.20386314344E+03  0.12509000000E+03 0.  0.
<mgrwt>
<rscale>  2 0.44224074E+03</rscale>
<asrwt>0</asrwt>
<pdfrwt beam="1">  1       21 0.10799625E+00 0.44224074E+03</pdfrwt>
<pdfrwt beam="2">  1       21 0.97910892E-02 0.44224074E+03</pdfrwt>
<totfact> 0.52811613E+04</totfact>
</mgrwt>
</event>
<event>
 6    0  0.1539497E-004  0.4200926E+03  0.7546771E-02  0.1037036E+00
         21   -1    0    0  502  501  0.00000000000E+00  0.00000000000E+00  0.17564760548E+03  0.17564760548E+03  0.00000000000E+00 0. -1.
         21   -1    0    0  501  502 -0.00000000000E+00 -0.00000000000E+00 -0.25118159716E+03  0.25118159716E+03  0.00000000000E+00 0. -1.
      99925    2    1    2    0    0  0.40080622851E+02  0.63158957394E+02 -0.63314577358E+02  0.28056802387E+03  0.26289573995E+03 0.  0.
         25    1    3    3    0    0 -0.18822953757E+02  0.42079232521E+02 -0.35619486700E+02  0.13798993199E+03  0.12509000000E+03 0.  0.
         25    1    1    2    0    0 -0.40080622851E+02 -0.63158957394E+02 -0.12219414325E+02  0.14626117876E+03  0.12509000000E+03 0.  0.
         25    1    3    3    0    0  0.58903576607E+02  0.21079724873E+02 -0.27695090658E+02  0.14257809188E+03  0.12509000000E+03 0.  0.
<mgrwt>
<rscale>  2 0.42009259E+03</rscale>
<asrwt>0</asrwt>
<pdfrwt beam="1">  1       21 0.25830530E-01 0.42009259E+03</pdfrwt>
<pdfrwt beam="2">  1       21 0.36938470E-01 0.42009259E+03</pdfrwt>
<totfact> 0.94303890E+04</totfact>
</mgrwt>
</event>
<event>
 6    0  0.1539497E-004  0.4131282E+03  0.7546771E-02  0.1039326E+00
         21   -1    0    0  502  501  0.00000000000E+00  0.00000000000E+00  0.32218770831E+03  0.32218770831E+03  0.00000000000E+00 0. -1.
         21   -1    0    0  501  502 -0.00000000000E+00 -0.00000000000E+00 -0.13243438508E+03  0.13243438508E+03  0.00000000000E+00 0. -1.
      99925    2    1    2    0    0 -0.27461367413E+02 -0.21819073824E+02  0.18692500398E+03  0.32467708128E+03  0.26314264443E+03 0.  0.
         25    1    3    3    0    0 -0.20513073028E+02  0.29367840557E+02  0.89877573541E+02  0.15814152696E+03  0.12509000000E+03 0.  0.
         25    1    1    2    0    0  0.27461367413E+02  0.21819073824E+02  0.28283192604E+01  0.12994501211E+03  0.12509000000E+03 0.  0.
         25    1    3    3    0    0 -0.69482943845E+01 -0.51186914381E+02  0.97047430434E+02  0.16653555432E+03  0.12509000000E+03 0.  0.
<mgrwt>
<rscale>  2 0.41312822E+03</rscale>
<asrwt>0</asrwt>
<pdfrwt beam="1">  1       21 0.47380545E-01 0.41312822E+03</pdfrwt>
<pdfrwt beam="2">  1       21 0.19475645E-01 0.41312822E+03</pdfrwt>
<totfact> 0.97058116E+04</totfact>
</mgrwt>
</event>
<event>
 6    0  0.1539497E-004  0.4769398E+03  0.7546771E-02  0.1019980E+00
         21   -1    0    0  502  501  0.00000000000E+00  0.00000000000E+00  0.11968852127E+03  0.11968852127E+03  0.00000000000E+00 0.  1.
         21   -1    0    0  501  502 -0.00000000000E+00 -0.00000000000E+00 -0.47513240813E+03  0.47513240813E+03  0.00000000000E+00 0.  1.
      99925    2    1    2    0    0  0.11054718852E+03 -0.73454643274E+02 -0.21960733061E+03  0.36741085130E+03  0.26295833982E+03 0.  0.
         25    1    3    3    0    0  0.89257017657E+02 -0.34187561984E+02 -0.87660554756E+02  0.18018736236E+03  0.12509000000E+03 0.  0.
         25    1    1    2    0    0 -0.11054718852E+03  0.73454643274E+02 -0.13583655624E+03  0.22741007810E+03  0.12509000000E+03 0.  0.
         25    1    3    3    0    0  0.21290170867E+02 -0.39267081290E+02 -0.13194677586E+03  0.18722348893E+03  0.12509000000E+03 0.  0.
<mgrwt>
<rscale>  2 0.47693981E+03</rscale>
<asrwt>0</asrwt>
<pdfrwt beam="1">  1       21 0.17601253E-01 0.47693981E+03</pdfrwt>
<pdfrwt beam="2">  1       21 0.69872413E-01 0.47693981E+03</pdfrwt>
<totfact> 0.49787156E+04</totfact>
</mgrwt>
</event>
<event>
 6    0  0.1539497E-004  0.4055094E+03  0.7546771E-02  0.1041888E+00
         21   -1    0    0  502  501  0.00000000000E+00  0.00000000000E+00  0.87373790736E+02  0.87373790736E+02  0.00000000000E+00 0.  1.
         21   -1    0    0  501  502 -0.00000000000E+00 -0.00000000000E+00 -0.47050109280E+03  0.47050109280E+03  0.00000000000E+00 0.  1.
      99925    2    1    2    0    0  0.42254109380E+02  0.30201631995E+02 -0.22743003257E+03  0.35150944030E+03  0.26293900162E+03 0.  0.
         25    1    3    3    0    0 -0.11375734223E+02 -0.98562126186E+01 -0.10105341600E+03  0.16151115516E+03  0.12509000000E+03 0.  0.
         25    1    1    2    0    0 -0.42254109380E+02 -0.30201631995E+02 -0.15569726950E+03  0.20636544324E+03  0.12509000000E+03 0.  0.
         25    1    3    3    0    0  0.53629843602E+02  0.40057844613E+02 -0.12637661657E+03  0.18999828514E+03  0.12509000000E+03 0.  0.
<mgrwt>
<rscale>  2 0.40550938E+03</rscale>
<asrwt>0</asrwt>
<pdfrwt beam="1">  1       21 0.12849087E-01 0.40550938E+03</pdfrwt>
<pdfrwt beam="2">  1       21 0.69191336E-01 0.40550938E+03</pdfrwt>
<totfact> 0.92623063E+04</totfact>
</mgrwt>
</event>
<event>
 6    0  0.1539497E-004  0.4178198E+03  0.7546771E-02  0.1037778E+00
         21   -1    0    0  502  501  0.00000000000E+00  0.00000000000E+00  0.96426688533E+02  0.96426688533E+02  0.00000000000E+00 0. -1.
         21   -1    0    0  501  502 -0.00000000000E+00 -0.00000000000E+00 -0.45260657228E+03  0.45260657228E+03  0.00000000000E+00 0. -1.
      99925    2    1    2    0    0  0.45585752936E+02  0.57033821751E+02 -0.23883700830E+03  0.36262570675E+03  0.26291323467E+03 0.  0.
         25    1    1    2    0    0 -0.45585752936E+02 -0.57033821751E+02 -0.11734287545E+03  0.18640755407E+03  0.12509000000E+03 0.  0.
         25    1    3    3    0    0  0.20169477571E+02 -0.11738202289E+02 -0.99465012496E+02  0.16150972116E+03  0.12509000000E+03 0.  0.
         25    1    3    3    0    0  0.25416275365E+02  0.68772024041E+02 -0.13937199580E+03  0.20111598559E+03  0.12509000000E+03 0.  0.
<mgrwt>
<rscale>  2 0.41781983E+03</rscale>
<asrwt>0</asrwt>
<pdfrwt beam="1">  1       21 0.14180395E-01 0.41781983E+03</pdfrwt>
<pdfrwt beam="2">  1       21 0.66559790E-01 0.41781983E+03</pdfrwt>
<totfact> 0.84061429E+04</totfact>
</mgrwt>
</event>
<event>
 6    0  0.1539497E-004  0.4256369E+03  0.7546771E-02  0.1035247E+00
         21   -1    0    0  502  501  0.00000000000E+00  0.00000000000E+00  0.23601490189E+03  0.23601490189E+03  0.00000000000E+00 0.  1.
         21   -1    0    0  501  502 -0.00000000000E+00 -0.00000000000E+00 -0.19190183376E+03  0.19190183376E+03  0.00000000000E+00 0.  1.
      99925    2    1    2    0    0  0.54117677592E+02 -0.78386549334E+01 -0.33726614709E+02  0.27076492413E+03  0.26303230232E+03 0.  0.
         25    1    3    3    0    0 -0.20906273578E+01 -0.29687882806E+02 -0.29028337528E+02  0.13181765279E+03  0.12509000000E+03 0.  0.
         25    1    1    2    0    0 -0.54117677592E+02  0.78386549334E+01  0.77839682838E+02  0.15715181152E+03  0.12509000000E+03 0.  0.
         25    1    3    3    0    0  0.56208304950E+02  0.21849227872E+02 -0.46982771802E+01  0.13894727134E+03  0.12509000000E+03 0.  0.
<mgrwt>
<rscale>  2 0.42563690E+03</rscale>
<asrwt>0</asrwt>
<pdfrwt beam="1">  1       21 0.34708074E-01 0.42563690E+03</pdfrwt>
<pdfrwt beam="2">  1       21 0.28220858E-01 0.42563690E+03</pdfrwt>
<totfact> 0.89853463E+04</totfact>
</mgrwt>
</event>
<event>
 6    0  0.1539497E-004  0.4884301E+03  0.7546771E-02  0.1016844E+00
         21   -1    0    0  502  501  0.00000000000E+00  0.00000000000E+00  0.15462696629E+03  0.15462696629E+03  0.00000000000E+00 0.  1.
         21   -1    0    0  501  502 -0.00000000000E+00 -0.00000000000E+00 -0.38570879658E+03  0.38570879658E+03  0.00000000000E+00 0.  1.
      99925    2    1    2    0    0 -0.12532170679E+03  0.21681288016E+02 -0.71361341605E+02  0.30089109066E+03  0.26318700370E+03 0.  0.
         25    1    3    3    0    0 -0.50889876043E+02 -0.13066897791E+02 -0.13711369773E+01  0.13568312872E+03  0.12509000000E+03 0.  0.
         25    1    1    2    0    0  0.12532170679E+03 -0.21681288016E+02 -0.15972048868E+03  0.23944467221E+03  0.12509000000E+03 0.  0.
         25    1    3    3    0    0 -0.74431830747E+02  0.34748185807E+02 -0.69990204628E+02  0.16520796194E+03  0.12509000000E+03 0.  0.
<mgrwt>
<rscale>  2 0.48843006E+03</rscale>
<asrwt>0</asrwt>
<pdfrwt beam="1">  1       21 0.22739259E-01 0.48843006E+03</pdfrwt>
<pdfrwt beam="2">  1       21 0.56721883E-01 0.48843006E+03</pdfrwt>
<totfact> 0.48364526E+04</totfact>
</mgrwt>
</event>
<event>
 6    0  0.1539497E-004  0.3900257E+03  0.7546771E-02  0.1047289E+00
         21   -1    0    0  502  501  0.00000000000E+00  0.00000000000E+00  0.37497599548E+02  0.37497599548E+02  0.00000000000E+00 0.  1.
         21   -1    0    0  501  502 -0.00000000000E+00 -0.00000000000E+00 -0.10141983755E+04  0.10141983755E+04  0.00000000000E+00 0.  1.
      99925    2    1    2    0    0  0.17004322514E+02 -0.61845808868E+01 -0.65995741590E+03  0.71066626921E+03  0.26301208978E+03 0.  0.
         25    1    1    2    0    0 -0.17004322514E+02  0.61845808868E+01 -0.31674336007E+03  0.34102970585E+03  0.12509000000E+03 0.  0.
         25    1    3    3    0    0 -0.20437106091E+02  0.28417669871E+01 -0.24978497344E+03  0.28011746108E+03  0.12509000000E+03 0.  0.
         25    1    3    3    0    0  0.37441428605E+02 -0.90263478739E+01 -0.41017244246E+03  0.43054880813E+03  0.12509000000E+03 0.  0.
<mgrwt>
<rscale>  2 0.39002566E+03</rscale>
<asrwt>0</asrwt>
<pdfrwt beam="1">  1       21 0.55143536E-02 0.39002566E+03</pdfrwt>
<pdfrwt beam="2">  1       21 0.14914680E+00 0.39002566E+03</pdfrwt>
<totfact> 0.64035201E+04</totfact>
</mgrwt>
</event>
<event>
 6    0  0.1539497E-004  0.5305198E+03  0.7546771E-02  0.1006106E+00
         21   -1    0    0  502  501  0.00000000000E+00  0.00000000000E+00  0.12004580201E+03  0.12004580201E+03  0.00000000000E+00 0. -1.
         21   -1    0    0  501  502 -0.00000000000E+00 -0.00000000000E+00 -0.58613308476E+03  0.58613308476E+03  0.00000000000E+00 0. -1.
      99925    2    1    2    0    0  0.56406264067E+02  0.32926046903E+02 -0.49295535193E+03  0.56252933949E+03  0.26299902585E+03 0.  0.
         25    1    1    2    0    0 -0.56406264067E+02 -0.32926046903E+02  0.26868069178E+02  0.14364954727E+03  0.12509000000E+03 0.  0.
         25    1    3    3    0    0  0.28978072534E+02  0.57215645835E+02 -0.26213586639E+03  0.29744928873E+03  0.12509000000E+03 0.  0.
         25    1    3    3    0    0  0.27428191533E+02 -0.24289598932E+02 -0.23081948553E+03  0.26508005076E+03  0.12509000000E+03 0.  0.
<mgrwt>
<rscale>  2 0.53051981E+03</rscale>
<asrwt>0</asrwt>
<pdfrwt beam="1">  1       21 0.17653795E-01 0.53051981E+03</pdfrwt>
<pdfrwt beam="2">  1       21 0.86196040E-01 0.53051981E+03</pdfrwt>
<totfact> 0.30187682E+04</totfact>
</mgrwt>
</event>
<event>
 6    0  0.1539497E-004  0.4115502E+03  0.7546771E-02  0.1039852E+00
         21   -1    0    0  502  501  0.00000000000E+00  0.00000000000E+00  0.18350985984E+03  0.18350985984E+03  0.00000000000E+00 0. -1.
         21   -1    0    0  501  502 -0.00000000000E+00 -0.00000000000E+00 -0.23074177747E+03  0.23074177747E+03  0.00000000000E+00 0. -1.
      99925    2    1    2    0    0 -0.35397660355E+02 -0.34384517435E+02 -0.72770685645E+02  0.27737568555E+03  0.26307110987E+03 0.  0.
         25    1    3    3    0    0 -0.21012820599E+01 -0.39945553474E+02 -0.67601604066E+02  0.14770764232E+03  0.12509000000E+03 0.  0.
         25    1    3    3    0    0 -0.33296378295E+02  0.55610360384E+01 -0.51690815789E+01  0.12966804322E+03  0.12509000000E+03 0.  0.
         25    1    1    2    0    0  0.35397660355E+02  0.34384517435E+02  0.25538768024E+02  0.13687595176E+03  0.12509000000E+03 0.  0.
<mgrwt>
<rscale>  2 0.41155020E+03</rscale>
<asrwt>0</asrwt>
<pdfrwt beam="1">  1       21 0.26986744E-01 0.41155020E+03</pdfrwt>
<pdfrwt beam="2">  1       21 0.33932614E-01 0.41155020E+03</pdfrwt>
<totfact> 0.10296578E+05</totfact>
</mgrwt>
</event>
<event>
 6    0  0.1539497E-004  0.4569062E+03  0.7546771E-02  0.1025682E+00
         21   -1    0    0  502  501  0.00000000000E+00  0.00000000000E+00  0.12126804721E+03  0.12126804721E+03  0.00000000000E+00 0. -1.
         21   -1    0    0  501  502 -0.00000000000E+00 -0.00000000000E+00 -0.43037576179E+03  0.43037576179E+03  0.00000000000E+00 0. -1.
      99925    2    1    2    0    0 -0.61929577831E+02 -0.94879854843E+02 -0.21690711443E+03  0.35932657567E+03  0.26311486508E+03 0.  0.
         25    1    3    3    0    0 -0.45519174969E+02 -0.78559458486E+02 -0.15087782046E+03  0.21599816808E+03  0.12509000000E+03 0.  0.
         25    1    3    3    0    0 -0.16410402862E+02 -0.16320396358E+02 -0.66029293970E+02  0.14332840759E+03  0.12509000000E+03 0.  0.
         25    1    1    2    0    0  0.61929577831E+02  0.94879854843E+02 -0.92200600150E+02  0.19231723332E+03  0.12509000000E+03 0.  0.
<mgrwt>
<rscale>  2 0.45690624E+03</rscale>
<asrwt>0</asrwt>
<pdfrwt beam="1">  1       21 0.17833537E-01 0.45690624E+03</pdfrwt>
<pdfrwt beam="2">  1       21 0.63290553E-01 0.45690624E+03</pdfrwt>
<totfact> 0.60835330E+04</totfact>
</mgrwt>
</event>
<event>
 6    0  0.1539497E-004  0.4175790E+03  0.7546771E-02  0.1037857E+00
         21   -1    0    0  502  501  0.00000000000E+00  0.00000000000E+00  0.51260244402E+03  0.51260244402E+03  0.00000000000E+00 0. -1.
         21   -1    0    0  501  502 -0.00000000000E+00 -0.00000000000E+00 -0.85042602211E+02  0.85042602211E+02  0.00000000000E+00 0. -1.
      99925    2    1    2    0    0 -0.22816923962E+02 -0.18208168012E+02  0.18402865928E+03  0.32231416463E+03  0.26299757391E+03 0.  0.
         25    1    1    2    0    0  0.22816923962E+02  0.18208168012E+02  0.24353118252E+03  0.27533088160E+03  0.12509000000E+03 0.  0.
         25    1    3    3    0    0 -0.98360273922E+01  0.31507173500E+02  0.91344605525E+02  0.15836917148E+03  0.12509000000E+03 0.  0.
         25    1    3    3    0    0 -0.12980896570E+02 -0.49715341512E+02  0.92684053758E+02  0.16394499315E+03  0.12509000000E+03 0.  0.
<mgrwt>
<rscale>  2 0.41757895E+03</rscale>
<asrwt>0</asrwt>
<pdfrwt beam="1">  1       21 0.75382711E-01 0.41757895E+03</pdfrwt>
<pdfrwt beam="2">  1       21 0.12506265E-01 0.41757895E+03</pdfrwt>
<totfact> 0.79968208E+04</totfact>
</mgrwt>
</event>
<event>
 6    0  0.1539497E-004  0.4295756E+03  0.7546771E-02  0.1033994E+00
         21   -1    0    0  502  501  0.00000000000E+00  0.00000000000E+00  0.55503756899E+03  0.55503756899E+03  0.00000000000E+00 0. -1.
         21   -1    0    0  501  502 -0.00000000000E+00 -0.00000000000E+00 -0.83118335805E+02  0.83118335805E+02  0.00000000000E+00 0. -1.
      99925    2    1    2    0    0 -0.60400214209E+01 -0.25222943373E+02  0.18114799088E+03  0.32055851472E+03  0.26319287230E+03 0.  0.
         25    1    3    3    0    0  0.12897381309E+02  0.14748670952E+02  0.56999782206E+02  0.13885369643E+03  0.12509000000E+03 0.  0.
         25    1    1    2    0    0  0.60400214209E+01  0.25222943373E+02  0.29077124231E+03  0.31759739008E+03  0.12509000000E+03 0.  0.
         25    1    3    3    0    0 -0.18937402729E+02 -0.39971614325E+02  0.12414820867E+03  0.18170481829E+03  0.12509000000E+03 0.  0.
<mgrwt>
<rscale>  2 0.42957560E+03</rscale>
<asrwt>0</asrwt>
<pdfrwt beam="1">  1       21 0.81623170E-01 0.42957560E+03</pdfrwt>
<pdfrwt beam="2">  1       21 0.12223285E-01 0.42957560E+03</pdfrwt>
<totfact> 0.69270584E+04</totfact>
</mgrwt>
</event>
<event>
 6    0  0.1539497E-004  0.4132515E+03  0.7546771E-02  0.1039285E+00
         21   -1    0    0  502  501  0.00000000000E+00  0.00000000000E+00  0.14190114254E+03  0.14190114254E+03  0.00000000000E+00 0. -1.
         21   -1    0    0  501  502 -0.00000000000E+00 -0.00000000000E+00 -0.30087285363E+03  0.30087285363E+03  0.00000000000E+00 0. -1.
      99925    2    1    2    0    0  0.60307505420E+02  0.27773647927E+02 -0.11397155590E+03  0.29417758707E+03  0.26294974130E+03 0.  0.
         25    1    1    2    0    0 -0.60307505420E+02 -0.27773647927E+02 -0.45000155187E+02  0.14859640910E+03  0.12509000000E+03 0.  0.
         25    1    3    3    0    0 -0.11234228315E+02  0.96733283724E+01 -0.52396972471E+02  0.13642848673E+03  0.12509000000E+03 0.  0.
         25    1    3    3    0    0  0.71541733735E+02  0.18100319554E+02 -0.61574583430E+02  0.15774910034E+03  0.12509000000E+03 0.  0.
<mgrwt>
<rscale>  2 0.41325151E+03</rscale>
<asrwt>0</asrwt>
<pdfrwt beam="1">  1       21 0.20867815E-01 0.41325151E+03</pdfrwt>
<pdfrwt beam="2">  1       21 0.44246007E-01 0.41325151E+03</pdfrwt>
<totfact> 0.98244625E+04</totfact>
</mgrwt>
</event>
<event>
 5    0  0.1539497E-004  0.4708173E+03  0.7546771E-02  0.1021690E+00
         21   -1    0    0  502  501  0.00000000000E+00  0.00000000000E+00  0.56524202735E+03  0.56524202735E+03  0.00000000000E+00 0.  1.
         21   -1    0    0  501  502 -0.00000000000E+00 -0.00000000000E+00 -0.98041615112E+02  0.98041615112E+02  0.00000000000E+00 0.  1.
         25    1    1    2    0    0  0.12966303852E+02  0.70812261511E+02  0.10249934294E+03  0.17702012546E+03  0.12509000000E+03 0.  0.
         25    1    1    2    0    0 -0.12484304095E+02 -0.96844593716E+01  0.31352614468E+03  0.33792868789E+03  0.12509000000E+03 0.  0.
         25    1    1    2    0    0 -0.48199975719E+00 -0.61127802139E+02  0.51174924626E+02  0.14833482912E+03  0.12509000000E+03 0.  0.
<mgrwt>
<rscale>  2 0.47081734E+03</rscale>
<asrwt>0</asrwt>
<pdfrwt beam="1">  1       21 0.83123826E-01 0.47081734E+03</pdfrwt>
<pdfrwt beam="2">  1       21 0.14417885E-01 0.47081734E+03</pdfrwt>
<totfact> 0.48591349E+04</totfact>
</mgrwt>
</event>
<event>
 6    0  0.1539497E-004  0.5135682E+03  0.7546771E-02  0.1010297E+00
         21   -1    0    0  502  501  0.00000000000E+00  0.00000000000E+00  0.13877896833E+04  0.13877896833E+04  0.00000000000E+00 0.  1.
         21   -1    0    0  501  502 -0.00000000000E+00 -0.00000000000E+00 -0.47513015139E+02  0.47513015139E+02  0.00000000000E+00 0.  1.
      99925    2    1    2    0    0  0.54011353996E+01  0.45623751767E+01  0.35353500785E+03  0.44063863463E+03  0.26291712958E+03 0.  0.
         25    1    3    3    0    0 -0.83831293694E+01 -0.15443061834E+02  0.23401494161E+03  0.26593094219E+03  0.12509000000E+03 0.  0.
         25    1    3    3    0    0  0.13784264769E+02  0.20005437011E+02  0.11952006624E+03  0.17470769244E+03  0.12509000000E+03 0.  0.
         25    1    1    2    0    0 -0.54011353996E+01 -0.45623751767E+01  0.98674166036E+03  0.99466406385E+03  0.12509000000E+03 0.  0.
<mgrwt>
<rscale>  2 0.51356819E+03</rscale>
<asrwt>0</asrwt>
<pdfrwt beam="1">  1       21 0.20408669E+00 0.51356819E+03</pdfrwt>
<pdfrwt beam="2">  1       21 0.69872090E-02 0.51356819E+03</pdfrwt>
<totfact> 0.16514620E+04</totfact>
</mgrwt>
</event>
<event>
 6    0  0.1539497E-004  0.4287740E+03  0.7546771E-02  0.1034248E+00
         21   -1    0    0  502  501  0.00000000000E+00  0.00000000000E+00  0.13877493049E+03  0.13877493049E+03  0.00000000000E+00 0.  1.
         21   -1    0    0  501  502 -0.00000000000E+00 -0.00000000000E+00 -0.33119656095E+03  0.33119656095E+03  0.00000000000E+00 0.  1.
      99925    2    1    2    0    0  0.83946047469E+02  0.19271730046E+02 -0.12308244805E+03  0.30301710012E+03  0.26315724478E+03 0.  0.
         25    1    1    2    0    0 -0.83946047469E+02 -0.19271730046E+02 -0.69339182412E+02  0.16695439132E+03  0.12509000000E+03 0.  0.
         25    1    3    3    0    0  0.84774752745E+02  0.90986663475E+01 -0.66471670480E+02  0.16533461679E+03  0.12509000000E+03 0.  0.
         25    1    3    3    0    0 -0.82870527638E+00  0.10173063698E+02 -0.56610777574E+02  0.13768248333E+03  0.12509000000E+03 0.  0.
<mgrwt>
<rscale>  2 0.42877397E+03</rscale>
<asrwt>0</asrwt>
<pdfrwt beam="1">  1       21 0.20408078E-01 0.42877397E+03</pdfrwt>
<pdfrwt beam="2">  1       21 0.48705377E-01 0.42877397E+03</pdfrwt>
<totfact> 0.83516110E+04</totfact>
</mgrwt>
</event>
<event>
 6    0  0.1539497E-004  0.8914358E+03  0.7546771E-02  0.9436351E-01
         21   -1    0    0  502  501  0.00000000000E+00  0.00000000000E+00  0.14132283029E+04  0.14132283029E+04  0.00000000000E+00 0. -1.
         21   -1    0    0  501  502 -0.00000000000E+00 -0.00000000000E+00 -0.14057492208E+03  0.14057492208E+03  0.00000000000E+00 0. -1.
      99925    2    1    2    0    0 -0.52694812229E+02 -0.16324607816E+03  0.13021506501E+04  0.13394585906E+04  0.26292009304E+03 0.  0.
         25    1    3    3    0    0 -0.20570947634E+02 -0.81580165571E+02  0.47619350430E+03  0.49948598473E+03  0.12509000000E+03 0.  0.
         25    1    1    2    0    0  0.52694812229E+02  0.16324607816E+03 -0.29497269243E+02  0.21434463433E+03  0.12509000000E+03 0.  0.
         25    1    3    3    0    0 -0.32123864596E+02 -0.81665912591E+02  0.82595714576E+03  0.83997260592E+03  0.12509000000E+03 0.  0.
<mgrwt>
<rscale>  2 0.89143583E+03</rscale>
<asrwt>0</asrwt>
<pdfrwt beam="1">  1       21 0.20782768E+00 0.89143583E+03</pdfrwt>
<pdfrwt beam="2">  1       21 0.20672783E-01 0.89143583E+03</pdfrwt>
<totfact> 0.19299664E+03</totfact>
</mgrwt>
</event>
<event>
 6    0  0.1539497E-004  0.4410123E+03  0.7546771E-02  0.1030437E+00
         21   -1    0    0  502  501  0.00000000000E+00  0.00000000000E+00  0.33968465124E+03  0.33968465124E+03  0.00000000000E+00 0. -1.
         21   -1    0    0  501  502 -0.00000000000E+00 -0.00000000000E+00 -0.14314146193E+03  0.14314146193E+03  0.00000000000E+00 0. -1.
      99925    2    1    2    0    0 -0.47183346265E+02 -0.82038890693E+02  0.15798688344E+03  0.32129981632E+03  0.26328134928E+03 0.  0.
         25    1    3    3    0    0  0.89028602503E+01 -0.26973341952E+02  0.99778991947E+02  0.16251208395E+03  0.12509000000E+03 0.  0.
         25    1    1    2    0    0  0.47183346265E+02  0.82038890693E+02  0.38556305867E+02  0.16152629685E+03  0.12509000000E+03 0.  0.
         25    1    3    3    0    0 -0.56086206515E+02 -0.55065548741E+02  0.58207891495E+02  0.15878773237E+03  0.12509000000E+03 0.  0.
<mgrwt>
<rscale>  2 0.44101228E+03</rscale>
<asrwt>0</asrwt>
<pdfrwt beam="1">  1       21 0.49953625E-01 0.44101228E+03</pdfrwt>
<pdfrwt beam="2">  1       21 0.21050215E-01 0.44101228E+03</pdfrwt>
<totfact> 0.74421952E+04</totfact>
</mgrwt>
</event>
<event>
 6    0  0.1539497E-004  0.4272667E+03  0.7546771E-02  0.1034727E+00
         21   -1    0    0  502  501  0.00000000000E+00  0.00000000000E+00  0.28065313720E+03  0.28065313720E+03  0.00000000000E+00 0.  1.
         21   -1    0    0  501  502 -0.00000000000E+00 -0.00000000000E+00 -0.16261783862E+03  0.16261783862E+03  0.00000000000E+00 0.  1.
      99925    2    1    2    0    0  0.53159377008E+02 -0.14183564094E+02  0.14293639710E+03  0.30436573595E+03  0.26302204233E+03 0.  0.
         25    1    1    2    0    0 -0.53159377008E+02  0.14183564094E+02 -0.24901098527E+02  0.13890523987E+03  0.12509000000E+03 0.  0.
         25    1    3    3    0    0  0.29112266639E+02 -0.22485899986E+02  0.29695908670E+02  0.13372544582E+03  0.12509000000E+03 0.  0.
         25    1    3    3    0    0  0.24047110370E+02  0.83023358920E+01  0.11324048843E+03  0.17064029014E+03  0.12509000000E+03 0.  0.
<mgrwt>
<rscale>  2 0.42726669E+03</rscale>
<asrwt>0</asrwt>
<pdfrwt beam="1">  1       21 0.41272520E-01 0.42726669E+03</pdfrwt>
<pdfrwt beam="2">  1       21 0.23914388E-01 0.42726669E+03</pdfrwt>
<totfact> 0.87121424E+04</totfact>
</mgrwt>
</event>
<event>
 6    0  0.1539497E-004  0.4690076E+03  0.7546771E-02  0.1022201E+00
         21   -1    0    0  502  501  0.00000000000E+00  0.00000000000E+00  0.54980368754E+02  0.54980368754E+02  0.00000000000E+00 0. -1.
         21   -1    0    0  501  502 -0.00000000000E+00 -0.00000000000E+00 -0.10002123372E+04  0.10002123372E+04  0.00000000000E+00 0. -1.
      99925    2    1    2    0    0  0.80428786230E+01 -0.11460287659E+02 -0.30629072266E+03  0.40397120005E+03  0.26302603976E+03 0.  0.
         25    1    3    3    0    0 -0.15284964385E+02  0.52845513353E+01 -0.20403101040E+03  0.23987021058E+03  0.12509000000E+03 0.  0.
         25    1    1    2    0    0 -0.80428786230E+01  0.11460287659E+02 -0.63894124574E+03  0.65122150587E+03  0.12509000000E+03 0.  0.
         25    1    3    3    0    0  0.23327843008E+02 -0.16744838994E+02 -0.10225971226E+03  0.16410098947E+03  0.12509000000E+03 0.  0.
<mgrwt>
<rscale>  2 0.46900765E+03</rscale>
<asrwt>0</asrwt>
<pdfrwt beam="1">  1       21 0.80853487E-02 0.46900765E+03</pdfrwt>
<pdfrwt beam="2">  1       21 0.14709004E+00 0.46900765E+03</pdfrwt>
<totfact> 0.33295541E+04</totfact>
</mgrwt>
</event>
<event>
 6    0  0.1539497E-004  0.3931251E+03  0.7546771E-02  0.1046187E+00
         21   -1    0    0  502  501  0.00000000000E+00  0.00000000000E+00  0.37779909648E+03  0.37779909648E+03  0.00000000000E+00 0. -1.
         21   -1    0    0  501  502 -0.00000000000E+00 -0.00000000000E+00 -0.10226821049E+03  0.10226821049E+03  0.00000000000E+00 0. -1.
      99925    2    1    2    0    0 -0.16277566174E+02  0.38830382971E+01  0.15559384963E+03  0.30596263174E+03  0.26291376691E+03 0.  0.
         25    1    3    3    0    0  0.16067659915E+02 -0.30276521673E+02  0.72392374563E+02  0.14853619577E+03  0.12509000000E+03 0.  0.
         25    1    1    2    0    0  0.16277566174E+02 -0.38830382971E+01  0.11993703636E+03  0.17410467523E+03  0.12509000000E+03 0.  0.
         25    1    3    3    0    0 -0.32345226089E+02  0.34159559970E+02  0.83201475066E+02  0.15742643597E+03  0.12509000000E+03 0.  0.
<mgrwt>
<rscale>  2 0.39312511E+03</rscale>
<asrwt>0</asrwt>
<pdfrwt beam="1">  1       21 0.55558690E-01 0.39312511E+03</pdfrwt>
<pdfrwt beam="2">  1       21 0.15039443E-01 0.39312511E+03</pdfrwt>
<totfact> 0.11261793E+05</totfact>
</mgrwt>
</event>
<event>
 6    0  0.1754989E-004  0.3945793E+03  0.7546771E-02  0.1045673E+00
         21   -1    0    0  502  501  0.00000000000E+00  0.00000000000E+00  0.11984470971E+03  0.11984470971E+03  0.00000000000E+00 0. -1.
         21   -1    0    0  501  502 -0.00000000000E+00 -0.00000000000E+00 -0.32478026247E+03  0.32478026247E+03  0.00000000000E+00 0. -1.
      99925    2    1    2    0    0  0.28571938409E+02 -0.45604285669E+01 -0.15770324714E+03  0.30782017706E+03  0.26276566381E+03 0.  0.
         25    1    3    3    0    0  0.47523312480E+02 -0.15139537619E+02 -0.59082606432E+02  0.14705758502E+03  0.12509000000E+03 0.  0.
         25    1    1    2    0    0 -0.28571938409E+02  0.45604285669E+01 -0.47232305628E+02  0.13680479512E+03  0.12509000000E+03 0.  0.
         25    1    3    3    0    0 -0.18951374070E+02  0.10579109052E+02 -0.98620640704E+02  0.16076259204E+03  0.12509000000E+03 0.  0.
<mgrwt>
<rscale>  2 0.39457925E+03</rscale>
<asrwt>0</asrwt>
<pdfrwt beam="1">  1       21 0.17624222E-01 0.39457925E+03</pdfrwt>
<pdfrwt beam="2">  1       21 0.47761803E-01 0.39457925E+03</pdfrwt>
<totfact> 0.11564129E+05</totfact>
</mgrwt>
</event>
<event>
 6    0  0.1539497E-004  0.4514542E+03  0.7546771E-02  0.1027289E+00
         21   -1    0    0  502  501  0.00000000000E+00  0.00000000000E+00  0.51296647710E+02  0.51296647710E+02  0.00000000000E+00 0.  1.
         21   -1    0    0  501  502 -0.00000000000E+00 -0.00000000000E+00 -0.99329535344E+03  0.99329535344E+03  0.00000000000E+00 0.  1.
      99925    2    1    2    0    0  0.92743585867E+01  0.23540144790E+02 -0.34725600701E+03  0.43631037400E+03  0.26294458715E+03 0.  0.
         25    1    1    2    0    0 -0.92743585867E+01 -0.23540144790E+02 -0.59474269872E+03  0.60828162715E+03  0.12509000000E+03 0.  0.
         25    1    3    3    0    0  0.20460471402E+02  0.40403742403E+02 -0.13804279739E+03  0.19171441078E+03  0.12509000000E+03 0.  0.
         25    1    3    3    0    0 -0.11186112816E+02 -0.16863597613E+02 -0.20921320962E+03  0.24459596322E+03  0.12509000000E+03 0.  0.
<mgrwt>
<rscale>  2 0.45145419E+03</rscale>
<asrwt>0</asrwt>
<pdfrwt beam="1">  1       21 0.75436241E-02 0.45145419E+03</pdfrwt>
<pdfrwt beam="2">  1       21 0.14607286E+00 0.45145419E+03</pdfrwt>
<totfact> 0.38531915E+04</totfact>
</mgrwt>
</event>
<event>
 6    0  0.1539497E-004  0.4216772E+03  0.7546771E-02  0.1036522E+00
         21   -1    0    0  502  501  0.00000000000E+00  0.00000000000E+00  0.59087389721E+03  0.59087389721E+03  0.00000000000E+00 0. -1.
         21   -1    0    0  501  502 -0.00000000000E+00 -0.00000000000E+00 -0.75232486847E+02  0.75232486847E+02  0.00000000000E+00 0. -1.
      99925    2    1    2    0    0 -0.31950392988E+02 -0.55302329521E+02  0.40603214554E+03  0.48794669642E+03  0.26296520697E+03 0.  0.
         25    1    3    3    0    0  0.78729804912E+01 -0.38453082425E+02  0.14637758680E+03  0.19650579988E+03  0.12509000000E+03 0.  0.
         25    1    1    2    0    0  0.31950392988E+02  0.55302329521E+02  0.10960926483E+03  0.17815968763E+03  0.12509000000E+03 0.  0.
         25    1    3    3    0    0 -0.39823373479E+02 -0.16849247096E+02  0.25965455873E+03  0.29144089654E+03  0.12509000000E+03 0.  0.
<mgrwt>
<rscale>  2 0.42167719E+03</rscale>
<asrwt>0</asrwt>
<pdfrwt beam="1">  1       21 0.86893218E-01 0.42167719E+03</pdfrwt>
<pdfrwt beam="2">  1       21 0.11063601E-01 0.42167719E+03</pdfrwt>
<totfact> 0.71870791E+04</totfact>
</mgrwt>
</event>
<event>
 6    0  0.1539497E-004  0.4945423E+03  0.7546771E-02  0.1015213E+00
         21   -1    0    0  502  501  0.00000000000E+00  0.00000000000E+00  0.53603496224E+03  0.53603496224E+03  0.00000000000E+00 0.  1.
         21   -1    0    0  501  502 -0.00000000000E+00 -0.00000000000E+00 -0.11406537797E+03  0.11406537797E+03  0.00000000000E+00 0.  1.
      99925    2    1    2    0    0 -0.11356973385E+03  0.33652403477E+02  0.14237342622E+03  0.32169192314E+03  0.26303028763E+03 0.  0.
         25    1    3    3    0    0 -0.81870616733E+02 -0.14960937430E+02  0.81880196481E+02  0.17110962044E+03  0.12509000000E+03 0.  0.
         25    1    3    3    0    0 -0.31699117116E+02  0.48613340907E+02  0.60493229743E+02  0.15058230269E+03  0.12509000000E+03 0.  0.
         25    1    1    2    0    0  0.11356973385E+03 -0.33652403477E+02  0.27959615804E+03  0.32840841707E+03  0.12509000000E+03 0.  0.
<mgrwt>
<rscale>  2 0.49454234E+03</rscale>
<asrwt>0</asrwt>
<pdfrwt beam="1">  1       21 0.78828670E-01 0.49454234E+03</pdfrwt>
<pdfrwt beam="2">  1       21 0.16774321E-01 0.49454234E+03</pdfrwt>
<totfact> 0.41239725E+04</totfact>
</mgrwt>
</event>
<event>
 6    0  0.1539497E-004  0.4490904E+03  0.7546771E-02  0.1027994E+00
         21   -1    0    0  502  501  0.00000000000E+00  0.00000000000E+00  0.88224375129E+03  0.88224375129E+03  0.00000000000E+00 0.  1.
         21   -1    0    0  501  502 -0.00000000000E+00 -0.00000000000E+00 -0.57150356128E+02  0.57150356128E+02  0.00000000000E+00 0.  1.
      99925    2    1    2    0    0 -0.44127136461E+02 -0.35071390626E+02  0.33062523380E+03  0.42624356683E+03  0.26304624388E+03 0.  0.
         25    1    3    3    0    0 -0.21518292528E+02 -0.57832273484E+02  0.18323519844E+03  0.23028298855E+03  0.12509000000E+03 0.  0.
         25    1    1    2    0    0  0.44127136461E+02  0.35071390626E+02  0.49446816135E+03  0.51315054059E+03  0.12509000000E+03 0.  0.
         25    1    3    3    0    0 -0.22608843933E+02  0.22760882858E+02  0.14739003536E+03  0.19596057827E+03  0.12509000000E+03 0.  0.
<mgrwt>
<rscale>  2 0.44909039E+03</rscale>
<asrwt>0</asrwt>
<pdfrwt beam="1">  1       21 0.12974172E+00 0.44909039E+03</pdfrwt>
<pdfrwt beam="2">  1       21 0.84044647E-02 0.44909039E+03</pdfrwt>
<totfact> 0.43551517E+04</totfact>
</mgrwt>
</event>
<event>
 6    0  0.1539497E-004  0.4437732E+03  0.7546771E-02  0.1029595E+00
         21   -1    0    0  502  501  0.00000000000E+00  0.00000000000E+00  0.11340217135E+03  0.11340217135E+03  0.00000000000E+00 0.  1.
         21   -1    0    0  501  502 -0.00000000000E+00 -0.00000000000E+00 -0.43415102403E+03  0.43415102403E+03  0.00000000000E+00 0.  1.
      99925    2    1    2    0    0 -0.68539327433E+01 -0.25069648554E+02 -0.32603376900E+03  0.41968254936E+03  0.26298281319E+03 0.  0.
         25    1    3    3    0    0  0.31329390014E+02 -0.28407144201E+01 -0.13132270783E+03  0.18407270854E+03  0.12509000000E+03 0.  0.
         25    1    3    3    0    0 -0.38183322758E+02 -0.22228934134E+02 -0.19471106117E+03  0.23560984082E+03  0.12509000000E+03 0.  0.
         25    1    1    2    0    0  0.68539327433E+01  0.25069648554E+02  0.52849163256E+01  0.12787064602E+03  0.12509000000E+03 0.  0.
<mgrwt>
<rscale>  2 0.44377323E+03</rscale>
<asrwt>0</asrwt>
<pdfrwt beam="1">  1       21 0.16676790E-01 0.44377323E+03</pdfrwt>
<pdfrwt beam="2">  1       21 0.63845738E-01 0.44377323E+03</pdfrwt>
<totfact> 0.67858391E+04</totfact>
</mgrwt>
</event>
<event>
 6    0  0.1539497E-004  0.4269986E+03  0.7546771E-02  0.1034812E+00
         21   -1    0    0  502  501  0.00000000000E+00  0.00000000000E+00  0.90138768866E+02  0.90138768866E+02  0.00000000000E+00 0.  1.
         21   -1    0    0  501  502 -0.00000000000E+00 -0.00000000000E+00 -0.50568649588E+03  0.50568649588E+03  0.00000000000E+00 0.  1.
      99925    2    1    2    0    0 -0.25494049516E+01 -0.28031160493E+02 -0.15848354442E+03  0.30855927738E+03  0.26324807384E+03 0.  0.
         25    1    3    3    0    0  0.31116823010E+02 -0.66903837697E+01 -0.10655483492E+03  0.16737520382E+03  0.12509000000E+03 0.  0.
         25    1    1    2    0    0  0.25494049516E+01  0.28031160493E+02 -0.25706418259E+03  0.28726598736E+03  0.12509000000E+03 0.  0.
         25    1    3    3    0    0 -0.33666227962E+02 -0.21340776723E+02 -0.51928709495E+02  0.14118407356E+03  0.12509000000E+03 0.  0.
<mgrwt>
<rscale>  2 0.42699863E+03</rscale>
<asrwt>0</asrwt>
<pdfrwt beam="1">  1       21 0.13255701E-01 0.42699863E+03</pdfrwt>
<pdfrwt beam="2">  1       21 0.74365663E-01 0.42699863E+03</pdfrwt>
<totfact> 0.73998427E+04</totfact>
</mgrwt>
</event>
<event>
 6    0  0.1539497E-004  0.4015605E+03  0.7546771E-02  0.1043241E+00
         21   -1    0    0  502  501  0.00000000000E+00  0.00000000000E+00  0.13273760327E+03  0.13273760327E+03  0.00000000000E+00 0. -1.
         21   -1    0    0  501  502 -0.00000000000E+00 -0.00000000000E+00 -0.30370222788E+03  0.30370222788E+03  0.00000000000E+00 0. -1.
      99925    2    1    2    0    0  0.40768002228E+02 -0.23840542816E+02 -0.12516953690E+03  0.29510653838E+03  0.26304002460E+03 0.  0.
         25    1    3    3    0    0  0.28612420367E+02  0.27337382113E+02 -0.69036736631E+02  0.14825512526E+03  0.12509000000E+03 0.  0.
         25    1    1    2    0    0 -0.40768002228E+02  0.23840542816E+02 -0.45795087703E+02  0.14133329277E+03  0.12509000000E+03 0.  0.
         25    1    3    3    0    0  0.12155581861E+02 -0.51177924929E+02 -0.56132800272E+02  0.14685141312E+03  0.12509000000E+03 0.  0.
<mgrwt>
<rscale>  2 0.40156049E+03</rscale>
<asrwt>0</asrwt>
<pdfrwt beam="1">  1       21 0.19520236E-01 0.40156049E+03</pdfrwt>
<pdfrwt beam="2">  1       21 0.44662091E-01 0.40156049E+03</pdfrwt>
<totfact> 0.10964101E+05</totfact>
</mgrwt>
</event>
<event>
 6    0  0.1539497E-004  0.4097178E+03  0.7546771E-02  0.1040466E+00
         21   -1    0    0  502  501  0.00000000000E+00  0.00000000000E+00  0.14817143584E+03  0.14817143584E+03  0.00000000000E+00 0. -1.
         21   -1    0    0  501  502 -0.00000000000E+00 -0.00000000000E+00 -0.28323385656E+03  0.28323385656E+03  0.00000000000E+00 0. -1.
      99925    2    1    2    0    0 -0.45555232742E+02 -0.33467235449E+02 -0.11538370807E+03  0.29273267467E+03  0.26302791420E+03 0.  0.
         25    1    1    2    0    0  0.45555232742E+02  0.33467235449E+02 -0.19678712652E+02  0.13867261774E+03  0.12509000000E+03 0.  0.
         25    1    3    3    0    0 -0.45106791683E+02 -0.43952237660E+02 -0.84110981037E+02  0.16336641969E+03  0.12509000000E+03 0.  0.
         25    1    3    3    0    0 -0.44844105884E+00  0.10485002211E+02 -0.31272727034E+02  0.12936625498E+03  0.12509000000E+03 0.  0.
<mgrwt>
<rscale>  2 0.40971779E+03</rscale>
<asrwt>0</asrwt>
<pdfrwt beam="1">  1       21 0.21789917E-01 0.40971779E+03</pdfrwt>
<pdfrwt beam="2">  1       21 0.41652038E-01 0.40971779E+03</pdfrwt>
<totfact> 0.10261555E+05</totfact>
</mgrwt>
</event>
<event>
 6    0  0.1539497E-004  0.4007138E+03  0.7546771E-02  0.1043533E+00
         21   -1    0    0  502  501  0.00000000000E+00  0.00000000000E+00  0.20739695355E+03  0.20739695355E+03  0.00000000000E+00 0. -1.
         21   -1    0    0  501  502 -0.00000000000E+00 -0.00000000000E+00 -0.19355580243E+03  0.19355580243E+03  0.00000000000E+00 0. -1.
      99925    2    1    2    0    0  0.17074363753E+02  0.43429250273E+02  0.14088923513E+02  0.26744169589E+03  0.26296183992E+03 0.  0.
         25    1    3    3    0    0  0.20798713122E+02  0.60708435991E+02  0.29841582058E+01  0.14062188296E+03  0.12509000000E+03 0.  0.
         25    1    3    3    0    0 -0.37243493683E+01 -0.17279185718E+02  0.11104765307E+02  0.12681981292E+03  0.12509000000E+03 0.  0.
         25    1    1    2    0    0 -0.17074363753E+02 -0.43429250273E+02 -0.24777238986E+00  0.13351106010E+03  0.12509000000E+03 0.  0.
<mgrwt>
<rscale>  2 0.40071378E+03</rscale>
<asrwt>0</asrwt>
<pdfrwt beam="1">  1       21 0.30499552E-01 0.40071378E+03</pdfrwt>
<pdfrwt beam="2">  1       21 0.28464089E-01 0.40071378E+03</pdfrwt>
<totfact> 0.11501368E+05</totfact>
</mgrwt>
</event>
<event>
 6    0  0.1539497E-004  0.4144491E+03  0.7546771E-02  0.1038888E+00
         21   -1    0    0  502  501  0.00000000000E+00  0.00000000000E+00  0.10046855482E+03  0.10046855482E+03  0.00000000000E+00 0. -1.
         21   -1    0    0  501  502 -0.00000000000E+00 -0.00000000000E+00 -0.42741736175E+03  0.42741736175E+03  0.00000000000E+00 0. -1.
      99925    2    1    2    0    0 -0.99203537822E+01 -0.48007508912E+02 -0.15340917845E+03  0.30841690944E+03  0.26302752645E+03 0.  0.
         25    1    3    3    0    0  0.96308740657E+01  0.11865609474E+02 -0.56503266300E+02  0.13810747129E+03  0.12509000000E+03 0.  0.
         25    1    3    3    0    0 -0.19551227848E+02 -0.59873118386E+02 -0.96905912147E+02  0.17030943815E+03  0.12509000000E+03 0.  0.
         25    1    1    2    0    0  0.99203537822E+01  0.48007508912E+02 -0.17353962849E+03  0.21946900712E+03  0.12509000000E+03 0.  0.
<mgrwt>
<rscale>  2 0.41444905E+03</rscale>
<asrwt>0</asrwt>
<pdfrwt beam="1">  1       21 0.14774787E-01 0.41444905E+03</pdfrwt>
<pdfrwt beam="2">  1       21 0.62855494E-01 0.41444905E+03</pdfrwt>
<totfact> 0.88529177E+04</totfact>
</mgrwt>
</event>
<event>
 6    0  0.1539497E-004  0.4309816E+03  0.7546771E-02  0.1033550E+00
         21   -1    0    0  502  501  0.00000000000E+00  0.00000000000E+00  0.11899726513E+03  0.11899726513E+03  0.00000000000E+00 0.  1.
         21   -1    0    0  501  502 -0.00000000000E+00 -0.00000000000E+00 -0.39022989460E+03  0.39022989460E+03  0.00000000000E+00 0.  1.
      99925    2    1    2    0    0  0.54286147669E+02 -0.44727431228E+02 -0.23876100666E+03  0.36208966173E+03  0.26297257632E+03 0.  0.
         25    1    1    2    0    0 -0.54286147669E+02  0.44727431228E+02 -0.32471622810E+02  0.14713749801E+03  0.12509000000E+03 0.  0.
         25    1    3    3    0    0  0.65625668510E+02 -0.23287236460E+02 -0.14600178666E+03  0.20448240403E+03  0.12509000000E+03 0.  0.
         25    1    3    3    0    0 -0.11339520842E+02 -0.21440194768E+02 -0.92759219999E+02  0.15760725770E+03  0.12509000000E+03 0.  0.
<mgrwt>
<rscale>  2 0.43098162E+03</rscale>
<asrwt>0</asrwt>
<pdfrwt beam="1">  1       21 0.17499598E-01 0.43098162E+03</pdfrwt>
<pdfrwt beam="2">  1       21 0.57386748E-01 0.43098162E+03</pdfrwt>
<totfact> 0.78554067E+04</totfact>
</mgrwt>
</event>
<event>
 6    0  0.1539497E-004  0.4294120E+03  0.7546771E-02  0.1034046E+00
         21   -1    0    0  502  501  0.00000000000E+00  0.00000000000E+00  0.35198625203E+03  0.35198625203E+03  0.00000000000E+00 0.  1.
         21   -1    0    0  501  502 -0.00000000000E+00 -0.00000000000E+00 -0.13096721992E+03  0.13096721992E+03  0.00000000000E+00 0.  1.
      99925    2    1    2    0    0  0.14969801890E+02 -0.28072917844E+02  0.23370068473E+03  0.35325953956E+03  0.26299070053E+03 0.  0.
         25    1    1    2    0    0 -0.14969801890E+02  0.28072917844E+02 -0.12681652608E+02  0.12969393239E+03  0.12509000000E+03 0.  0.
         25    1    3    3    0    0 -0.14409010235E+02 -0.37415610729E+02  0.15112555008E+03  0.20023483086E+03  0.12509000000E+03 0.  0.
         25    1    3    3    0    0  0.29378812125E+02  0.93426928855E+01  0.82575134649E+02  0.15302470871E+03  0.12509000000E+03 0.  0.
<mgrwt>
<rscale>  2 0.42941197E+03</rscale>
<asrwt>0</asrwt>
<pdfrwt beam="1">  1       21 0.51762684E-01 0.42941197E+03</pdfrwt>
<pdfrwt beam="2">  1       21 0.19259885E-01 0.42941197E+03</pdfrwt>
<totfact> 0.81898985E+04</totfact>
</mgrwt>
</event>
<event>
 6    0  0.1539497E-004  0.4030497E+03  0.7546771E-02  0.1042729E+00
         21   -1    0    0  502  501  0.00000000000E+00  0.00000000000E+00  0.93103135268E+03  0.93103135268E+03  0.00000000000E+00 0.  1.
         21   -1    0    0  501  502 -0.00000000000E+00 -0.00000000000E+00 -0.43620727731E+02  0.43620727731E+02  0.00000000000E+00 0.  1.
      99925    2    1    2    0    0  0.20743757678E+02  0.18810843608E+02  0.69364670311E+03  0.74232447373E+03  0.26289869578E+03 0.  0.
         25    1    3    3    0    0  0.22427259089E+02 -0.29182012506E+02  0.34373723010E+03  0.36763754333E+03  0.12509000000E+03 0.  0.
         25    1    1    2    0    0 -0.20743757678E+02 -0.18810843608E+02  0.19376392184E+03  0.23232760668E+03  0.12509000000E+03 0.  0.
         25    1    3    3    0    0 -0.16835014111E+01  0.47992856114E+02  0.34990947300E+03  0.37468693040E+03  0.12509000000E+03 0.  0.
<mgrwt>
<rscale>  2 0.40304970E+03</rscale>
<asrwt>0</asrwt>
<pdfrwt beam="1">  1       21 0.13691636E+00 0.40304970E+03</pdfrwt>
<pdfrwt beam="2">  1       21 0.64148135E-02 0.40304970E+03</pdfrwt>
<totfact> 0.61636440E+04</totfact>
</mgrwt>
</event>
<event>
 5    0  0.2281729E-004  0.3932469E+03  0.7546771E-02  0.1046143E+00
         21   -1    0    0  502  501  0.00000000000E+00  0.00000000000E+00  0.11290442056E+04  0.11290442056E+04  0.00000000000E+00 0. -1.
         21   -1    0    0  501  502 -0.00000000000E+00 -0.00000000000E+00 -0.34242037961E+02  0.34242037961E+02  0.00000000000E+00 0. -1.
         25    1    1    2    0    0  0.12171096580E+02 -0.13581837116E+02  0.45078691330E+03  0.46817619674E+03  0.12509000000E+03 0.  0.
         25    1    1    2    0    0  0.86314959936E+01  0.39750511404E+02  0.34724784029E+03  0.37132624007E+03  0.12509000000E+03 0.  0.
         25    1    1    2    0    0 -0.20802592574E+02 -0.26168674289E+02  0.29676741407E+03  0.32378380676E+03  0.12509000000E+03 0.  0.
<mgrwt>
<rscale>  2 0.39324687E+03</rscale>
<asrwt>0</asrwt>
<pdfrwt beam="1">  1       21 0.16603589E+00 0.39324687E+03</pdfrwt>
<pdfrwt beam="2">  1       21 0.50355946E-02 0.39324687E+03</pdfrwt>
<totfact> 0.55695153E+04</totfact>
</mgrwt>
</event>
<event>
 6    0  0.1539497E-004  0.4298565E+03  0.7546771E-02  0.1033905E+00
         21   -1    0    0  502  501  0.00000000000E+00  0.00000000000E+00  0.40123860410E+03  0.40123860410E+03  0.00000000000E+00 0. -1.
         21   -1    0    0  501  502 -0.00000000000E+00 -0.00000000000E+00 -0.11512889790E+03  0.11512889790E+03  0.00000000000E+00 0. -1.
      99925    2    1    2    0    0  0.20771145260E+02  0.74155778534E+02  0.13436498632E+03  0.30516975562E+03  0.26295267679E+03 0.  0.
         25    1    1    2    0    0 -0.20771145260E+02 -0.74155778534E+02  0.15174471987E+03  0.21119774638E+03  0.12509000000E+03 0.  0.
         25    1    3    3    0    0  0.19650582558E+02  0.68155452110E+02  0.10047893753E+03  0.17542758060E+03  0.12509000000E+03 0.  0.
         25    1    3    3    0    0  0.11205627021E+01  0.60003264236E+01  0.33886048796E+02  0.12974217503E+03  0.12509000000E+03 0.  0.
<mgrwt>
<rscale>  2 0.42985653E+03</rscale>
<asrwt>0</asrwt>
<pdfrwt beam="1">  1       21 0.59005677E-01 0.42985653E+03</pdfrwt>
<pdfrwt beam="2">  1       21 0.16930720E-01 0.42985653E+03</pdfrwt>
<totfact> 0.78678601E+04</totfact>
</mgrwt>
</event>
<event>
 6    0  0.1539497E-004  0.4131328E+03  0.7546771E-02  0.1039325E+00
         21   -1    0    0  502  501  0.00000000000E+00  0.00000000000E+00  0.20438301604E+03  0.20438301604E+03  0.00000000000E+00 0.  1.
         21   -1    0    0  501  502 -0.00000000000E+00 -0.00000000000E+00 -0.20877306832E+03  0.20877306832E+03  0.00000000000E+00 0.  1.
      99925    2    1    2    0    0  0.23145871391E+02  0.49613698309E+02  0.35086706218E+02  0.27101821824E+03  0.26310178115E+03 0.  0.
         25    1    3    3    0    0  0.23447503675E+02  0.11973854855E+02  0.54480027576E+02  0.13895589276E+03  0.12509000000E+03 0.  0.
         25    1    1    2    0    0 -0.23145871391E+02 -0.49613698309E+02 -0.39476758498E+02  0.14213786612E+03  0.12509000000E+03 0.  0.
         25    1    3    3    0    0 -0.30163228434E+00  0.37639843454E+02 -0.19393321357E+02  0.13206232548E+03  0.12509000000E+03 0.  0.
<mgrwt>
<rscale>  2 0.41313276E+03</rscale>
<asrwt>0</asrwt>
<pdfrwt beam="1">  1       21 0.30056326E-01 0.41313276E+03</pdfrwt>
<pdfrwt beam="2">  1       21 0.30701922E-01 0.41313276E+03</pdfrwt>
<totfact> 0.10168013E+05</totfact>
</mgrwt>
</event>
<event>
 6    0  0.1539497E-004  0.4668439E+03  0.7546771E-02  0.1022815E+00
         21   -1    0    0  502  501  0.00000000000E+00  0.00000000000E+00  0.66886089415E+03  0.66886089415E+03  0.00000000000E+00 0. -1.
         21   -1    0    0  501  502 -0.00000000000E+00 -0.00000000000E+00 -0.81460583998E+02  0.81460583998E+02  0.00000000000E+00 0. -1.
      99925    2    1    2    0    0 -0.68876685738E+01 -0.23919494163E+02  0.56092926415E+03  0.62006094477E+03  0.26308620959E+03 0.  0.
         25    1    1    2    0    0  0.68876685738E+01  0.23919494163E+02  0.26471046006E+02  0.13026053338E+03  0.12509000000E+03 0.  0.
         25    1    3    3    0    0  0.27552352267E+02 -0.36175597530E+01  0.21833868802E+03  0.25316301002E+03  0.12509000000E+03 0.  0.
         25    1    3    3    0    0 -0.34440020840E+02 -0.20301934410E+02  0.34259057613E+03  0.36689793476E+03  0.12509000000E+03 0.  0.
<mgrwt>
<rscale>  2 0.46684387E+03</rscale>
<asrwt>0</asrwt>
<pdfrwt beam="1">  1       21 0.98361893E-01 0.46684387E+03</pdfrwt>
<pdfrwt beam="2">  1       21 0.11979498E-01 0.46684387E+03</pdfrwt>
<totfact> 0.45836343E+04</totfact>
</mgrwt>
</event>
<event>
 6    0  0.1539497E-004  0.4713809E+03  0.7546771E-02  0.1021531E+00
         21   -1    0    0  502  501  0.00000000000E+00  0.00000000000E+00  0.82155122933E+02  0.82155122933E+02  0.00000000000E+00 0.  1.
         21   -1    0    0  501  502 -0.00000000000E+00 -0.00000000000E+00 -0.67615989874E+03  0.67615989874E+03  0.00000000000E+00 0.  1.
      99925    2    1    2    0    0 -0.12036062470E+03 -0.97300006248E+00 -0.43825738332E+03  0.52509327081E+03  0.26299388265E+03 0.  0.
         25    1    3    3    0    0 -0.21557547777E+02 -0.19711988696E+02 -0.18355608018E+03  0.22403935600E+03  0.12509000000E+03 0.  0.
         25    1    1    2    0    0  0.12036062470E+03  0.97300006248E+00 -0.15574739249E+03  0.23322175086E+03  0.12509000000E+03 0.  0.
         25    1    3    3    0    0 -0.98803076924E+02  0.18738988634E+02 -0.25470130313E+03  0.30105391481E+03  0.12509000000E+03 0.  0.
<mgrwt>
<rscale>  2 0.47138095E+03</rscale>
<asrwt>0</asrwt>
<pdfrwt beam="1">  1       21 0.12081636E-01 0.47138095E+03</pdfrwt>
<pdfrwt beam="2">  1       21 0.99435278E-01 0.47138095E+03</pdfrwt>
<totfact> 0.43916607E+04</totfact>
</mgrwt>
</event>
<event>
 6    0  0.1539497E-004  0.4631349E+03  0.7546771E-02  0.1023876E+00
         21   -1    0    0  502  501  0.00000000000E+00  0.00000000000E+00  0.12476153121E+04  0.12476153121E+04  0.00000000000E+00 0.  1.
         21   -1    0    0  501  502 -0.00000000000E+00 -0.00000000000E+00 -0.42980786032E+02  0.42980786032E+02  0.00000000000E+00 0.  1.
      99925    2    1    2    0    0 -0.59237226117E+02 -0.92899592911E+02  0.88970518644E+03  0.93427127387E+03  0.26296028424E+03 0.  0.
         25    1    1    2    0    0  0.59237226117E+02  0.92899592911E+02  0.31492933961E+03  0.35632482424E+03  0.12509000000E+03 0.  0.
         25    1    3    3    0    0 -0.66824332683E+02 -0.52807764315E+02  0.53322003638E+03  0.55427905130E+03  0.12509000000E+03 0.  0.
         25    1    3    3    0    0  0.75871065658E+01 -0.40091828596E+02  0.35648515006E+03  0.37999222258E+03  0.12509000000E+03 0.  0.
<mgrwt>
<rscale>  2 0.46313491E+03</rscale>
<asrwt>0</asrwt>
<pdfrwt beam="1">  1       21 0.18347282E+00 0.46313491E+03</pdfrwt>
<pdfrwt beam="2">  1       21 0.63207046E-02 0.46313491E+03</pdfrwt>
<totfact> 0.27600226E+04</totfact>
</mgrwt>
</event>
<event>
 6    0  0.1539497E-004  0.3971390E+03  0.7546771E-02  0.1044775E+00
         21   -1    0    0  502  501  0.00000000000E+00  0.00000000000E+00  0.10585413554E+04  0.10585413554E+04  0.00000000000E+00 0.  1.
         21   -1    0    0  501  502 -0.00000000000E+00 -0.00000000000E+00 -0.37249225313E+02  0.37249225313E+02  0.00000000000E+00 0.  1.
      99925    2    1    2    0    0 -0.40695051874E+00  0.27184492959E+01  0.57456227281E+03  0.63186965097E+03  0.26292564519E+03 0.  0.
         25    1    3    3    0    0  0.23547772422E+02  0.17683124935E+01  0.36584220617E+03  0.38735726717E+03  0.12509000000E+03 0.  0.
         25    1    1    2    0    0  0.40695051874E+00 -0.27184492959E+01  0.44672985730E+03  0.46392092977E+03  0.12509000000E+03 0.  0.
         25    1    3    3    0    0 -0.23954722941E+02  0.95013680242E+00  0.20872006664E+03  0.24451238380E+03  0.12509000000E+03 0.  0.
<mgrwt>
<rscale>  2 0.39713900E+03</rscale>
<asrwt>0</asrwt>
<pdfrwt beam="1">  1       21 0.15566783E+00 0.39713900E+03</pdfrwt>
<pdfrwt beam="2">  1       21 0.54778279E-02 0.39713900E+03</pdfrwt>
<totfact> 0.57550369E+04</totfact>
</mgrwt>
</event>
<event>
 6    0  0.1539497E-004  0.4356214E+03  0.7546771E-02  0.1032099E+00
         21   -1    0    0  502  501  0.00000000000E+00  0.00000000000E+00  0.17232240944E+03  0.17232240944E+03  0.00000000000E+00 0.  1.
         21   -1    0    0  501  502 -0.00000000000E+00 -0.00000000000E+00 -0.27530668127E+03  0.27530668127E+03  0.00000000000E+00 0.  1.
      99925    2    1    2    0    0  0.12567103414E+02  0.88861432865E+02 -0.37895292429E+02  0.28048134266E+03  0.26301985486E+03 0.  0.
         25    1    1    2    0    0 -0.12567103414E+02 -0.88861432865E+02 -0.65088979395E+02  0.16714774805E+03  0.12509000000E+03 0.  0.
         25    1    3    3    0    0  0.43428902994E+02  0.62330593837E+02 -0.18537902888E+02  0.14752062394E+03  0.12509000000E+03 0.  0.
         25    1    3    3    0    0 -0.30861799581E+02  0.26530839029E+02 -0.19357389541E+02  0.13296071872E+03  0.12509000000E+03 0.  0.
<mgrwt>
<rscale>  2 0.43562144E+03</rscale>
<asrwt>0</asrwt>
<pdfrwt beam="1">  1       21 0.25341531E-01 0.43562144E+03</pdfrwt>
<pdfrwt beam="2">  1       21 0.40486276E-01 0.43562144E+03</pdfrwt>
<totfact> 0.80869786E+04</totfact>
</mgrwt>
</event>
<event>
 6    0  0.1539497E-004  0.4695887E+03  0.7546771E-02  0.1022036E+00
         21   -1    0    0  502  501  0.00000000000E+00  0.00000000000E+00  0.84791697132E+02  0.84791697132E+02  0.00000000000E+00 0. -1.
         21   -1    0    0  501  502 -0.00000000000E+00 -0.00000000000E+00 -0.65016264351E+03  0.65016264351E+03  0.00000000000E+00 0. -1.
      99925    2    1    2    0    0  0.12595582146E+03  0.65318184139E+01 -0.33808406909E+03  0.44648533659E+03  0.26294635271E+03 0.  0.
         25    1    3    3    0    0  0.10419507742E+03  0.15705596297E+02 -0.17387324765E+03  0.23871048209E+03  0.12509000000E+03 0.  0.
         25    1    3    3    0    0  0.21760744039E+02 -0.91737778827E+01 -0.16421082144E+03  0.20777485449E+03  0.12509000000E+03 0.  0.
         25    1    1    2    0    0 -0.12595582146E+03 -0.65318184139E+01 -0.22728687729E+03  0.28846900406E+03  0.12509000000E+03 0.  0.
<mgrwt>
<rscale>  2 0.46958873E+03</rscale>
<asrwt>0</asrwt>
<pdfrwt beam="1">  1       21 0.12469367E-01 0.46958873E+03</pdfrwt>
<pdfrwt beam="2">  1       21 0.95612156E-01 0.46958873E+03</pdfrwt>
<totfact> 0.45587264E+04</totfact>
</mgrwt>
</event>
<event>
 6    0  0.1539497E-004  0.4373158E+03  0.7546771E-02  0.1031574E+00
         21   -1    0    0  502  501  0.00000000000E+00  0.00000000000E+00  0.26141639404E+03  0.26141639404E+03  0.00000000000E+00 0. -1.
         21   -1    0    0  501  502 -0.00000000000E+00 -0.00000000000E+00 -0.18289321900E+03  0.18289321900E+03  0.00000000000E+00 0. -1.
      99925    2    1    2    0    0  0.87597107438E+02  0.64838191125E+01  0.10016859634E+02  0.27681060859E+03  0.26231370992E+03 0.  0.
         25    1    3    3    0    0  0.62511077211E+02 -0.22917140747E+02  0.28633636164E+02  0.14456909536E+03  0.12509000000E+03 0.  0.
         25    1    1    2    0    0 -0.87597107438E+02 -0.64838191125E+01  0.68506315404E+02  0.16749900445E+03  0.12509000000E+03 0.  0.
         25    1    3    3    0    0  0.25086030228E+02  0.29400959859E+02 -0.18616776530E+02  0.13224151323E+03  0.12509000000E+03 0.  0.
<mgrwt>
<rscale>  2 0.43731584E+03</rscale>
<asrwt>0</asrwt>
<pdfrwt beam="1">  1       21 0.38443587E-01 0.43731584E+03</pdfrwt>
<pdfrwt beam="2">  1       21 0.26896062E-01 0.43731584E+03</pdfrwt>
<totfact> 0.80043960E+04</totfact>
</mgrwt>
</event>
<event>
 6    0  0.1539497E-004  0.4065680E+03  0.7546771E-02  0.1041529E+00
         21   -1    0    0  502  501  0.00000000000E+00  0.00000000000E+00  0.19995852910E+04  0.19995852910E+04  0.00000000000E+00 0. -1.
         21   -1    0    0  501  502 -0.00000000000E+00 -0.00000000000E+00 -0.20666482542E+02  0.20666482542E+02  0.00000000000E+00 0. -1.
      99925    2    1    2    0    0  0.39327836281E+02 -0.34155538131E+02  0.14245210980E+04  0.14495350233E+04  0.26301738684E+03 0.  0.
         25    1    3    3    0    0  0.51176057971E+02  0.40496906397E+01  0.80111678111E+03  0.81244753306E+03  0.12509000000E+03 0.  0.
         25    1    3    3    0    0 -0.11848221690E+02 -0.38205228771E+02  0.62340431685E+03  0.63708749025E+03  0.12509000000E+03 0.  0.
         25    1    1    2    0    0 -0.39327836281E+02  0.34155538131E+02  0.55439771054E+03  0.57071675027E+03  0.12509000000E+03 0.  0.
<mgrwt>
<rscale>  2 0.40656805E+03</rscale>
<asrwt>0</asrwt>
<pdfrwt beam="1">  1       21 0.29405653E+00 0.40656805E+03</pdfrwt>
<pdfrwt beam="2">  1       21 0.30391900E-02 0.40656805E+03</pdfrwt>
<totfact> 0.19869039E+04</totfact>
</mgrwt>
</event>
<event>
 6    0  0.1539497E-004  0.4177992E+03  0.7546771E-02  0.1037785E+00
         21   -1    0    0  502  501  0.00000000000E+00  0.00000000000E+00  0.18218476997E+04  0.18218476997E+04  0.00000000000E+00 0. -1.
         21   -1    0    0  501  502 -0.00000000000E+00 -0.00000000000E+00 -0.23953183397E+02  0.23953183397E+02  0.00000000000E+00 0. -1.
      99925    2    1    2    0    0 -0.76271767187E+01 -0.38642809240E+02  0.14475308500E+04  0.14716970910E+04  0.26266961240E+03 0.  0.
         25    1    1    2    0    0  0.76271767187E+01  0.38642809240E+02  0.35036366624E+03  0.37410379208E+03  0.12509000000E+03 0.  0.
         25    1    3    3    0    0  0.11134692932E+02 -0.89726127160E+01  0.51540830501E+03  0.53056358539E+03  0.12509000000E+03 0.  0.
         25    1    3    3    0    0 -0.18761869651E+02 -0.29670196524E+02  0.93212254503E+03  0.94113350560E+03  0.12509000000E+03 0.  0.
<mgrwt>
<rscale>  2 0.41779924E+03</rscale>
<asrwt>0</asrwt>
<pdfrwt beam="1">  1       21 0.26791869E+00 0.41779924E+03</pdfrwt>
<pdfrwt beam="2">  1       21 0.35225282E-02 0.41779924E+03</pdfrwt>
<totfact> 0.22127067E+04</totfact>
</mgrwt>
</event>
<event>
 6    0  0.1539497E-004  0.4142918E+03  0.7546771E-02  0.1038940E+00
         21   -1    0    0  502  501  0.00000000000E+00  0.00000000000E+00  0.13246120767E+03  0.13246120767E+03  0.00000000000E+00 0.  1.
         21   -1    0    0  501  502 -0.00000000000E+00 -0.00000000000E+00 -0.32393957223E+03  0.32393957223E+03  0.00000000000E+00 0.  1.
      99925    2    1    2    0    0  0.83790601177E+01 -0.23076230245E+02 -0.19577470101E+03  0.32885201409E+03  0.26308400287E+03 0.  0.
         25    1    3    3    0    0 -0.36140288511E+01  0.28119232484E+02 -0.87674425033E+02  0.15536429881E+03  0.12509000000E+03 0.  0.
         25    1    3    3    0    0  0.11993088969E+02 -0.51195462730E+02 -0.10810027598E+03  0.17348771528E+03  0.12509000000E+03 0.  0.
         25    1    1    2    0    0 -0.83790601177E+01  0.23076230245E+02  0.42963364498E+01  0.12754876580E+03  0.12509000000E+03 0.  0.
<mgrwt>
<rscale>  2 0.41429181E+03</rscale>
<asrwt>0</asrwt>
<pdfrwt beam="1">  1       21 0.19479590E-01 0.41429181E+03</pdfrwt>
<pdfrwt beam="2">  1       21 0.47638172E-01 0.41429181E+03</pdfrwt>
<totfact> 0.95895904E+04</totfact>
</mgrwt>
</event>
<event>
 6    0  0.1539497E-004  0.4112745E+03  0.7546771E-02  0.1039944E+00
         21   -1    0    0  502  501  0.00000000000E+00  0.00000000000E+00  0.10213428496E+03  0.10213428496E+03  0.00000000000E+00 0.  1.
         21   -1    0    0  501  502 -0.00000000000E+00 -0.00000000000E+00 -0.41403021296E+03  0.41403021296E+03  0.00000000000E+00 0.  1.
      99925    2    1    2    0    0  0.23815768793E+02  0.25301097365E+02 -0.13777231234E+03  0.29896901454E+03  0.26304738212E+03 0.  0.
         25    1    3    3    0    0  0.35080635253E+02  0.45666204683E+02 -0.63530686127E+02  0.15165655080E+03  0.12509000000E+03 0.  0.
         25    1    3    3    0    0 -0.11264866460E+02 -0.20365107318E+02 -0.74241626208E+02  0.14731246374E+03  0.12509000000E+03 0.  0.
         25    1    1    2    0    0 -0.23815768793E+02 -0.25301097365E+02 -0.17412361566E+03  0.21719548339E+03  0.12509000000E+03 0.  0.
<mgrwt>
<rscale>  2 0.41127451E+03</rscale>
<asrwt>0</asrwt>
<pdfrwt beam="1">  1       21 0.15019748E-01 0.41127451E+03</pdfrwt>
<pdfrwt beam="2">  1       21 0.60886796E-01 0.41127451E+03</pdfrwt>
<totfact> 0.92160722E+04</totfact>
</mgrwt>
</event>
<event>
 6    0  0.1539497E-004  0.5039699E+03  0.7546771E-02  0.1012748E+00
         21   -1    0    0  502  501  0.00000000000E+00  0.00000000000E+00  0.60980325076E+02  0.60980325076E+02  0.00000000000E+00 0. -1.
         21   -1    0    0  501  502 -0.00000000000E+00 -0.00000000000E+00 -0.10412608157E+04  0.10412608157E+04  0.00000000000E+00 0. -1.
      99925    2    1    2    0    0 -0.14767789929E+02  0.10725352047E+03 -0.35200040381E+03  0.45254522663E+03  0.26300473872E+03 0.  0.
         25    1    3    3    0    0 -0.73153088509E+01  0.55815756922E+02 -0.24147787304E+03  0.27771925345E+03  0.12509000000E+03 0.  0.
         25    1    1    2    0    0  0.14767789929E+02 -0.10725352047E+03 -0.62828008682E+03  0.64969591415E+03  0.12509000000E+03 0.  0.
         25    1    3    3    0    0 -0.74524810779E+01  0.51437763548E+02 -0.11052253077E+03  0.17482597319E+03  0.12509000000E+03 0.  0.
<mgrwt>
<rscale>  2 0.50396993E+03</rscale>
<asrwt>0</asrwt>
<pdfrwt beam="1">  1       21 0.89676959E-02 0.50396993E+03</pdfrwt>
<pdfrwt beam="2">  1       21 0.15312657E+00 0.50396993E+03</pdfrwt>
<totfact> 0.24591807E+04</totfact>
</mgrwt>
</event>
<event>
 6    0  0.1539497E-004  0.4138984E+03  0.7546771E-02  0.1039071E+00
         21   -1    0    0  502  501  0.00000000000E+00  0.00000000000E+00  0.45505617584E+03  0.45505617584E+03  0.00000000000E+00 0.  1.
         21   -1    0    0  501  502 -0.00000000000E+00 -0.00000000000E+00 -0.94115784408E+02  0.94115784408E+02  0.00000000000E+00 0.  1.
      99925    2    1    2    0    0  0.62693819898E+02 -0.82583128002E+01  0.20273514957E+03  0.33780705910E+03  0.26270392750E+03 0.  0.
         25    1    3    3    0    0  0.62515209179E+02 -0.21307063774E+02  0.82200944735E+02  0.16360515200E+03  0.12509000000E+03 0.  0.
         25    1    1    2    0    0 -0.62693819898E+02  0.82583128002E+01  0.15820524187E+03  0.21136490115E+03  0.12509000000E+03 0.  0.
         25    1    3    3    0    0  0.17861071942E+00  0.13048750974E+02  0.12053420483E+03  0.17420190710E+03  0.12509000000E+03 0.  0.
<mgrwt>
<rscale>  2 0.41389839E+03</rscale>
<asrwt>0</asrwt>
<pdfrwt beam="1">  1       21 0.66920025E-01 0.41389839E+03</pdfrwt>
<pdfrwt beam="2">  1       21 0.13840557E-01 0.41389839E+03</pdfrwt>
<totfact> 0.86923373E+04</totfact>
</mgrwt>
</event>
<event>
 6    0  0.1539497E-004  0.4097616E+03  0.7546771E-02  0.1040451E+00
         21   -1    0    0  502  501  0.00000000000E+00  0.00000000000E+00  0.14170355823E+03  0.14170355823E+03  0.00000000000E+00 0. -1.
         21   -1    0    0  501  502 -0.00000000000E+00 -0.00000000000E+00 -0.29622501942E+03  0.29622501942E+03  0.00000000000E+00 0. -1.
      99925    2    1    2    0    0  0.27009157414E+02  0.29532146993E+02 -0.15146636531E+03  0.30655702821E+03  0.26350238981E+03 0.  0.
         25    1    3    3    0    0  0.14295243105E+02  0.25696426343E+02 -0.30567715009E+02  0.13208540269E+03  0.12509000000E+03 0.  0.
         25    1    3    3    0    0  0.12713914308E+02  0.38357206493E+01 -0.12089865030E+03  0.17447162553E+03  0.12509000000E+03 0.  0.
         25    1    1    2    0    0 -0.27009157414E+02 -0.29532146993E+02 -0.30550958802E+01  0.13137154944E+03  0.12509000000E+03 0.  0.
<mgrwt>
<rscale>  2 0.40976159E+03</rscale>
<asrwt>0</asrwt>
<pdfrwt beam="1">  1       21 0.20838759E-01 0.40976159E+03</pdfrwt>
<pdfrwt beam="2">  1       21 0.43562503E-01 0.40976159E+03</pdfrwt>
<totfact> 0.10182505E+05</totfact>
</mgrwt>
</event>
<event>
 6    0  0.1539497E-004  0.4115941E+03  0.7546771E-02  0.1039837E+00
         21   -1    0    0  502  501  0.00000000000E+00  0.00000000000E+00  0.24218797928E+03  0.24218797928E+03  0.00000000000E+00 0.  1.
         21   -1    0    0  501  502 -0.00000000000E+00 -0.00000000000E+00 -0.17487417165E+03  0.17487417165E+03  0.00000000000E+00 0.  1.
      99925    2    1    2    0    0  0.59965491458E+02 -0.23367577215E+02  0.49944438039E+02  0.27531904905E+03  0.26299092770E+03 0.  0.
         25    1    1    2    0    0 -0.59965491458E+02  0.23367577215E+02  0.17369369586E+02  0.14174310188E+03  0.12509000000E+03 0.  0.
         25    1    3    3    0    0  0.25167213917E+02 -0.51942404955E+02  0.23052976572E+02  0.13967945417E+03  0.12509000000E+03 0.  0.
         25    1    3    3    0    0  0.34798277541E+02  0.28574827740E+02  0.26891461466E+02  0.13563959488E+03  0.12509000000E+03 0.  0.
<mgrwt>
<rscale>  2 0.41159408E+03</rscale>
<asrwt>0</asrwt>
<pdfrwt beam="1">  1       21 0.35615879E-01 0.41159408E+03</pdfrwt>
<pdfrwt beam="2">  1       21 0.25716790E-01 0.41159408E+03</pdfrwt>
<totfact> 0.10259717E+05</totfact>
</mgrwt>
</event>
<event>
 6    0  0.1539497E-004  0.4069286E+03  0.7546771E-02  0.1041407E+00
         21   -1    0    0  502  501  0.00000000000E+00  0.00000000000E+00  0.17701407699E+02  0.17701407699E+02  0.00000000000E+00 0. -1.
         21   -1    0    0  501  502 -0.00000000000E+00 -0.00000000000E+00 -0.23386688075E+04  0.23386688075E+04  0.00000000000E+00 0. -1.
      99925    2    1    2    0    0  0.26880586189E+02  0.12045377065E+02 -0.18217922187E+04  0.18409179608E+04  0.26302926321E+03 0.  0.
         25    1    3    3    0    0  0.10941132623E+02  0.52868873843E+01 -0.11907538849E+04  0.11973679393E+04  0.12509000000E+03 0.  0.
         25    1    3    3    0    0  0.15939453566E+02  0.67584896811E+01 -0.63103833381E+03  0.64355002152E+03  0.12509000000E+03 0.  0.
         25    1    1    2    0    0 -0.26880586189E+02 -0.12045377065E+02 -0.49917518106E+03  0.51545225435E+03  0.12509000000E+03 0.  0.
<mgrwt>
<rscale>  2 0.40692864E+03</rscale>
<asrwt>0</asrwt>
<pdfrwt beam="1">  1       21 0.26031478E-02 0.40692864E+03</pdfrwt>
<pdfrwt beam="2">  1       21 0.34392193E+00 0.40692864E+03</pdfrwt>
<totfact> 0.12904724E+04</totfact>
</mgrwt>
</event>
<event>
 6    0  0.1539497E-004  0.4077770E+03  0.7546771E-02  0.1041120E+00
         21   -1    0    0  502  501  0.00000000000E+00  0.00000000000E+00  0.10319039863E+03  0.10319039863E+03  0.00000000000E+00 0. -1.
         21   -1    0    0  501  502 -0.00000000000E+00 -0.00000000000E+00 -0.40285267196E+03  0.40285267196E+03  0.00000000000E+00 0. -1.
      99925    2    1    2    0    0  0.17896675265E+02 -0.43122746094E+02 -0.15352950717E+03  0.30809824074E+03  0.26300827774E+03 0.  0.
         25    1    3    3    0    0  0.15651966772E+02 -0.60912790274E+02 -0.69219795659E+02  0.15618655606E+03  0.12509000000E+03 0.  0.
         25    1    3    3    0    0  0.22447084927E+01  0.17790044180E+02 -0.84309711508E+02  0.15191168468E+03  0.12509000000E+03 0.  0.
         25    1    1    2    0    0 -0.17896675265E+02  0.43122746094E+02 -0.14613276616E+03  0.19794482984E+03  0.12509000000E+03 0.  0.
<mgrwt>
<rscale>  2 0.40777704E+03</rscale>
<asrwt>0</asrwt>
<pdfrwt beam="1">  1       21 0.15175058E-01 0.40777704E+03</pdfrwt>
<pdfrwt beam="2">  1       21 0.59243041E-01 0.40777704E+03</pdfrwt>
<totfact> 0.96069668E+04</totfact>
</mgrwt>
</event>
<event>
 6    0  0.1539497E-004  0.4629826E+03  0.7546771E-02  0.1023920E+00
         21   -1    0    0  502  501  0.00000000000E+00  0.00000000000E+00  0.73249617540E+02  0.73249617540E+02  0.00000000000E+00 0.  1.
         21   -1    0    0  501  502 -0.00000000000E+00 -0.00000000000E+00 -0.73158357676E+03  0.73158357676E+03  0.00000000000E+00 0.  1.
      99925    2    1    2    0    0 -0.10644786771E+03  0.11461214236E+02 -0.50753847357E+03  0.58156363846E+03  0.26297995257E+03 0.  0.
         25    1    3    3    0    0 -0.56361124433E+02 -0.32911507074E+02 -0.27724859544E+03  0.31108525426E+03  0.12509000000E+03 0.  0.
         25    1    3    3    0    0 -0.50086743281E+02  0.44372721311E+02 -0.23028987813E+03  0.27047838419E+03  0.12509000000E+03 0.  0.
         25    1    1    2    0    0  0.10644786771E+03 -0.11461214236E+02 -0.15079548565E+03  0.22326955584E+03  0.12509000000E+03 0.  0.
<mgrwt>
<rscale>  2 0.46298258E+03</rscale>
<asrwt>0</asrwt>
<pdfrwt beam="1">  1       21 0.10772002E-01 0.46298258E+03</pdfrwt>
<pdfrwt beam="2">  1       21 0.10758582E+00 0.46298258E+03</pdfrwt>
<totfact> 0.44667383E+04</totfact>
</mgrwt>
</event>
<event>
 6    0  0.1539497E-004  0.4147430E+03  0.7546771E-02  0.1038791E+00
         21   -1    0    0  502  501  0.00000000000E+00  0.00000000000E+00  0.52841547336E+03  0.52841547336E+03  0.00000000000E+00 0. -1.
         21   -1    0    0  501  502 -0.00000000000E+00 -0.00000000000E+00 -0.81380910197E+02  0.81380910197E+02  0.00000000000E+00 0. -1.
      99925    2    1    2    0    0 -0.28862357843E+02  0.33048198903E+02  0.37107933624E+03  0.45701574425E+03  0.26313171142E+03 0.  0.
         25    1    3    3    0    0 -0.23194322052E+02 -0.11901926331E+02  0.22992453468E+03  0.26304454408E+03  0.12509000000E+03 0.  0.
         25    1    3    3    0    0 -0.56680357907E+01  0.44950125233E+02  0.14115480157E+03  0.19397120017E+03  0.12509000000E+03 0.  0.
         25    1    1    2    0    0  0.28862357843E+02 -0.33048198903E+02  0.75955226921E+02  0.15278063931E+03  0.12509000000E+03 0.  0.
<mgrwt>
<rscale>  2 0.41474297E+03</rscale>
<asrwt>0</asrwt>
<pdfrwt beam="1">  1       21 0.77708156E-01 0.41474297E+03</pdfrwt>
<pdfrwt beam="2">  1       21 0.11967781E-01 0.41474297E+03</pdfrwt>
<totfact> 0.80880664E+04</totfact>
</mgrwt>
</event>
<event>
 6    0  0.1993577E-004  0.4165288E+03  0.7546771E-02  0.1038202E+00
         21   -1    0    0  502  501  0.00000000000E+00  0.00000000000E+00  0.33310345123E+03  0.33310345123E+03  0.00000000000E+00 0.  1.
         21   -1    0    0  501  502 -0.00000000000E+00 -0.00000000000E+00 -0.13021198951E+03  0.13021198951E+03  0.00000000000E+00 0.  1.
      99925    2    1    2    0    0 -0.46898646286E+02 -0.40220922166E+02  0.16975975924E+03  0.31991940380E+03  0.26403189858E+03 0.  0.
         25    1    1    2    0    0  0.46898646286E+02  0.40220922166E+02  0.33131702482E+02  0.14339603695E+03  0.12509000000E+03 0.  0.
         25    1    3    3    0    0  0.76897900314E+00 -0.32335897172E+02  0.45156496360E+02  0.13686788827E+03  0.12509000000E+03 0.  0.
         25    1    3    3    0    0 -0.47667625289E+02 -0.78850249947E+01  0.12460326288E+03  0.18305151554E+03  0.12509000000E+03 0.  0.
<mgrwt>
<rscale>  2 0.41652881E+03</rscale>
<asrwt>0</asrwt>
<pdfrwt beam="1">  1       21 0.48985802E-01 0.41652881E+03</pdfrwt>
<pdfrwt beam="2">  1       21 0.19148822E-01 0.41652881E+03</pdfrwt>
<totfact> 0.93346215E+04</totfact>
</mgrwt>
</event>
<event>
 6    0  0.1539497E-004  0.4090317E+03  0.7546771E-02  0.1040696E+00
         21   -1    0    0  502  501  0.00000000000E+00  0.00000000000E+00  0.37067401473E+02  0.37067401473E+02  0.00000000000E+00 0. -1.
         21   -1    0    0  501  502 -0.00000000000E+00 -0.00000000000E+00 -0.11283964899E+04  0.11283964899E+04  0.00000000000E+00 0. -1.
      99925    2    1    2    0    0  0.64101651066E+01 -0.60384060116E+02 -0.71252124385E+03  0.76194162911E+03  0.26302318965E+03 0.  0.
         25    1    1    2    0    0 -0.64101651066E+01  0.60384060116E+02 -0.37880784460E+03  0.40352226229E+03  0.12509000000E+03 0.  0.
         25    1    3    3    0    0  0.16569550965E+02 -0.57007609917E+02 -0.45226636642E+03  0.47298709486E+03  0.12509000000E+03 0.  0.
         25    1    3    3    0    0 -0.10159385858E+02 -0.33764501984E+01 -0.26025487744E+03  0.28895453425E+03  0.12509000000E+03 0.  0.
<mgrwt>
<rscale>  2 0.40903166E+03</rscale>
<asrwt>0</asrwt>
<pdfrwt beam="1">  1       21 0.54510879E-02 0.40903166E+03</pdfrwt>
<pdfrwt beam="2">  1       21 0.16594068E+00 0.40903166E+03</pdfrwt>
<totfact> 0.48424151E+04</totfact>
</mgrwt>
</event>
<event>
 6    0  0.1539497E-004  0.3938805E+03  0.7546771E-02  0.1045919E+00
         21   -1    0    0  502  501  0.00000000000E+00  0.00000000000E+00  0.47459020973E+03  0.47459020973E+03  0.00000000000E+00 0.  1.
         21   -1    0    0  501  502 -0.00000000000E+00 -0.00000000000E+00 -0.81724107053E+02  0.81724107053E+02  0.00000000000E+00 0.  1.
      99925    2    1    2    0    0  0.14252029002E+02 -0.23438831756E+02  0.24182177053E+03  0.35828806212E+03  0.26294498966E+03 0.  0.
         25    1    3    3    0    0 -0.22160470985E+02  0.15991789959E+02  0.12441452405E+03  0.17853096570E+03  0.12509000000E+03 0.  0.
         25    1    1    2    0    0 -0.14252029002E+02  0.23438831756E+02  0.15104433215E+03  0.19802625467E+03  0.12509000000E+03 0.  0.
         25    1    3    3    0    0  0.36412499987E+02 -0.39430621715E+02  0.11740724648E+03  0.17975709641E+03  0.12509000000E+03 0.  0.
<mgrwt>
<rscale>  2 0.39388050E+03</rscale>
<asrwt>0</asrwt>
<pdfrwt beam="1">  1       21 0.69792676E-01 0.39388050E+03</pdfrwt>
<pdfrwt beam="2">  1       21 0.12018251E-01 0.39388050E+03</pdfrwt>
<totfact> 0.10286835E+05</totfact>
</mgrwt>
</event>
<event>
 6    0  0.1539497E-004  0.4673547E+03  0.7546771E-02  0.1022669E+00
         21   -1    0    0  502  501  0.00000000000E+00  0.00000000000E+00  0.21055041213E+03  0.21055041213E+03  0.00000000000E+00 0.  1.
         21   -1    0    0  501  502 -0.00000000000E+00 -0.00000000000E+00 -0.25934460453E+03  0.25934460453E+03  0.00000000000E+00 0.  1.
      99925    2    1    2    0    0  0.74515325955E+02  0.95675925071E+02 -0.58323000492E+02  0.29541085485E+03  0.26298209889E+03 0.  0.
         25    1    1    2    0    0 -0.74515325955E+02 -0.95675925071E+02  0.95288080936E+01  0.17448416181E+03  0.12509000000E+03 0.  0.
         25    1    3    3    0    0  0.49275258778E+02  0.19738030085E+02 -0.40281780028E-01  0.13588653606E+03  0.12509000000E+03 0.  0.
         25    1    3    3    0    0  0.25240067177E+02  0.75937894986E+02 -0.58282718712E+02  0.15952431879E+03  0.12509000000E+03 0.  0.
<mgrwt>
<rscale>  2 0.46735474E+03</rscale>
<asrwt>0</asrwt>
<pdfrwt beam="1">  1       21 0.30963296E-01 0.46735474E+03</pdfrwt>
<pdfrwt beam="2">  1       21 0.38138912E-01 0.46735474E+03</pdfrwt>
<totfact> 0.61208376E+04</totfact>
</mgrwt>
</event>
<event>
 6    0  0.1539497E-004  0.4632398E+03  0.7546771E-02  0.1023846E+00
         21   -1    0    0  502  501  0.00000000000E+00  0.00000000000E+00  0.37195452870E+03  0.37195452870E+03  0.00000000000E+00 0.  1.
         21   -1    0    0  501  502 -0.00000000000E+00 -0.00000000000E+00 -0.14423208244E+03  0.14423208244E+03  0.00000000000E+00 0.  1.
      99925    2    1    2    0    0 -0.22646050330E+02 -0.45498687013E+02  0.19693991398E+02  0.26818193327E+03  0.26258469476E+03 0.  0.
         25    1    3    3    0    0 -0.75085443600E-01  0.15666450632E+01  0.39524839037E+02  0.13119520195E+03  0.12509000000E+03 0.  0.
         25    1    3    3    0    0 -0.22570964886E+02 -0.47065332076E+02 -0.19830847639E+02  0.13698673132E+03  0.12509000000E+03 0.  0.
         25    1    1    2    0    0  0.22646050330E+02  0.45498687013E+02  0.20802845486E+03  0.24800467787E+03  0.12509000000E+03 0.  0.
<mgrwt>
<rscale>  2 0.46323979E+03</rscale>
<asrwt>0</asrwt>
<pdfrwt beam="1">  1       21 0.54699195E-01 0.46323979E+03</pdfrwt>
<pdfrwt beam="2">  1       21 0.21210600E-01 0.46323979E+03</pdfrwt>
<totfact> 0.60119353E+04</totfact>
</mgrwt>
</event>
<event>
 6    0  0.1539497E-004  0.4224863E+03  0.7546771E-02  0.1036260E+00
         21   -1    0    0  502  501  0.00000000000E+00  0.00000000000E+00  0.17953019209E+03  0.17953019209E+03  0.00000000000E+00 0. -1.
         21   -1    0    0  501  502 -0.00000000000E+00 -0.00000000000E+00 -0.24855803642E+03  0.24855803642E+03  0.00000000000E+00 0. -1.
      99925    2    1    2    0    0  0.12553703389E+02 -0.57318742219E+02 -0.98618573286E+02  0.28678659009E+03  0.26282673300E+03 0.  0.
         25    1    3    3    0    0  0.35226928490E+02 -0.57151884147E+02 -0.57558282931E+02  0.15319183525E+03  0.12509000000E+03 0.  0.
         25    1    3    3    0    0 -0.22673225101E+02 -0.16685807160E+00 -0.41060290355E+02  0.13359475485E+03  0.12509000000E+03 0.  0.
         25    1    1    2    0    0 -0.12553703389E+02  0.57318742219E+02  0.29590728957E+02  0.14130163841E+03  0.12509000000E+03 0.  0.
<mgrwt>
<rscale>  2 0.42248632E+03</rscale>
<asrwt>0</asrwt>
<pdfrwt beam="1">  1       21 0.26401499E-01 0.42248632E+03</pdfrwt>
<pdfrwt beam="2">  1       21 0.36552652E-01 0.42248632E+03</pdfrwt>
<totfact> 0.92269612E+04</totfact>
</mgrwt>
</event>
<event>
 6    0  0.1539497E-004  0.4171557E+03  0.7546771E-02  0.1037996E+00
         21   -1    0    0  502  501  0.00000000000E+00  0.00000000000E+00  0.29381417436E+02  0.29381417436E+02  0.00000000000E+00 0.  1.
         21   -1    0    0  501  502 -0.00000000000E+00 -0.00000000000E+00 -0.14806879292E+04  0.14806879292E+04  0.00000000000E+00 0.  1.
      99925    2    1    2    0    0 -0.28768614279E+02 -0.45710530913E+02 -0.11222016510E+04  0.11538747323E+04  0.26300811113E+03 0.  0.
         25    1    3    3    0    0  0.63459882522E+01 -0.66018549042E+01 -0.67456459272E+03  0.68612590237E+03  0.12509000000E+03 0.  0.
         25    1    3    3    0    0 -0.35114602531E+02 -0.39108676009E+02 -0.44763705830E+03  0.46774882994E+03  0.12509000000E+03 0.  0.
         25    1    1    2    0    0  0.28768614279E+02  0.45710530913E+02 -0.32910486072E+03  0.35619461430E+03  0.12509000000E+03 0.  0.
<mgrwt>
<rscale>  2 0.41715566E+03</rscale>
<asrwt>0</asrwt>
<pdfrwt beam="1">  1       21 0.43207954E-02 0.41715566E+03</pdfrwt>
<pdfrwt beam="2">  1       21 0.21774829E+00 0.41715566E+03</pdfrwt>
<totfact> 0.31941117E+04</totfact>
</mgrwt>
</event>
<event>
 6    0  0.1539497E-004  0.4057188E+03  0.7546771E-02  0.1041817E+00
         21   -1    0    0  502  501  0.00000000000E+00  0.00000000000E+00  0.75620541601E+03  0.75620541601E+03  0.00000000000E+00 0.  1.
         21   -1    0    0  501  502 -0.00000000000E+00 -0.00000000000E+00 -0.54418996813E+02  0.54418996813E+02  0.00000000000E+00 0.  1.
      99925    2    1    2    0    0 -0.37228647289E+02  0.30096403952E+02  0.40750807891E+03  0.48729947507E+03  0.26288054002E+03 0.  0.
         25    1    1    2    0    0  0.37228647289E+02 -0.30096403952E+02  0.29427834029E+03  0.32332493775E+03  0.12509000000E+03 0.  0.
         25    1    3    3    0    0 -0.34726495666E+02 -0.22005157545E+02  0.19999191053E+03  0.23944608754E+03  0.12509000000E+03 0.  0.
         25    1    3    3    0    0 -0.25021516232E+01  0.52101561497E+02  0.20751616838E+03  0.24785338753E+03  0.12509000000E+03 0.  0.
<mgrwt>
<rscale>  2 0.40571882E+03</rscale>
<asrwt>0</asrwt>
<pdfrwt beam="1">  1       21 0.11120667E+00 0.40571882E+03</pdfrwt>
<pdfrwt beam="2">  1       21 0.80027941E-02 0.40571882E+03</pdfrwt>
<totfact> 0.70968883E+04</totfact>
</mgrwt>
</event>
<event>
 6    0  0.1539497E-004  0.4772692E+03  0.7546771E-02  0.1019888E+00
         21   -1    0    0  502  501  0.00000000000E+00  0.00000000000E+00  0.37904226201E+03  0.37904226201E+03  0.00000000000E+00 0. -1.
         21   -1    0    0  501  502 -0.00000000000E+00 -0.00000000000E+00 -0.15023781260E+03  0.15023781260E+03  0.00000000000E+00 0. -1.
      99925    2    1    2    0    0 -0.12993998367E+03  0.10314357732E+02  0.17024206257E+03  0.33936470772E+03  0.26304991855E+03 0.  0.
         25    1    1    2    0    0  0.12993998367E+03 -0.10314357732E+02  0.58562386841E+02  0.18991536690E+03  0.12509000000E+03 0.  0.
         25    1    3    3    0    0 -0.51174423059E+02  0.20227036020E+02  0.40773023547E+02  0.14261101679E+03  0.12509000000E+03 0.  0.
         25    1    3    3    0    0 -0.78765560608E+02 -0.99126782883E+01  0.12946903902E+03  0.19675369093E+03  0.12509000000E+03 0.  0.
<mgrwt>
<rscale>  2 0.47726923E+03</rscale>
<asrwt>0</asrwt>
<pdfrwt beam="1">  1       21 0.55741509E-01 0.47726923E+03</pdfrwt>
<pdfrwt beam="2">  1       21 0.22093796E-01 0.47726923E+03</pdfrwt>
<totfact> 0.53215802E+04</totfact>
</mgrwt>
</event>
<event>
 6    0  0.1539497E-004  0.4272765E+03  0.7546771E-02  0.1034724E+00
         21   -1    0    0  502  501  0.00000000000E+00  0.00000000000E+00  0.48395235670E+03  0.48395235670E+03  0.00000000000E+00 0.  1.
         21   -1    0    0  501  502 -0.00000000000E+00 -0.00000000000E+00 -0.94309498746E+02  0.94309498746E+02  0.00000000000E+00 0.  1.
      99925    2    1    2    0    0 -0.56476230258E+02 -0.11173989481E+02  0.16813547630E+03  0.31744112994E+03  0.26303024534E+03 0.  0.
         25    1    3    3    0    0 -0.51307783815E+02  0.15994346243E+02  0.56097904857E+02  0.14725077528E+03  0.12509000000E+03 0.  0.
         25    1    1    2    0    0  0.56476230258E+02  0.11173989481E+02  0.22150738165E+03  0.26082072550E+03  0.12509000000E+03 0.  0.
         25    1    3    3    0    0 -0.51684464428E+01 -0.27168335724E+02  0.11203757145E+03  0.17019035466E+03  0.12509000000E+03 0.  0.
<mgrwt>
<rscale>  2 0.42727651E+03</rscale>
<asrwt>0</asrwt>
<pdfrwt beam="1">  1       21 0.71169464E-01 0.42727651E+03</pdfrwt>
<pdfrwt beam="2">  1       21 0.13869044E-01 0.42727651E+03</pdfrwt>
<totfact> 0.75214827E+04</totfact>
</mgrwt>
</event>
<event>
 6    0  0.1539497E-004  0.4585240E+03  0.7546771E-02  0.1025210E+00
         21   -1    0    0  502  501  0.00000000000E+00  0.00000000000E+00  0.20720250031E+03  0.20720250031E+03  0.00000000000E+00 0. -1.
         21   -1    0    0  501  502 -0.00000000000E+00 -0.00000000000E+00 -0.25367002121E+03  0.25367002121E+03  0.00000000000E+00 0. -1.
      99925    2    1    2    0    0  0.10752644191E+03  0.23315212946E+02  0.91376980181E+01  0.28524512236E+03  0.26301282752E+03 0.  0.
         25    1    3    3    0    0  0.51133949926E+02 -0.25987739060E+02 -0.11026278802E+02  0.13805480919E+03  0.12509000000E+03 0.  0.
         25    1    1    2    0    0 -0.10752644191E+03 -0.23315212946E+02 -0.55605218921E+02  0.17562739916E+03  0.12509000000E+03 0.  0.
         25    1    3    3    0    0  0.56392491982E+02  0.49302952006E+02  0.20163976820E+02  0.14719031317E+03  0.12509000000E+03 0.  0.
<mgrwt>
<rscale>  2 0.45852399E+03</rscale>
<asrwt>0</asrwt>
<pdfrwt beam="1">  1       21 0.30470956E-01 0.45852399E+03</pdfrwt>
<pdfrwt beam="2">  1       21 0.37304415E-01 0.45852399E+03</pdfrwt>
<totfact> 0.66235697E+04</totfact>
</mgrwt>
</event>
<event>
 6    0  0.1539497E-004  0.4259138E+03  0.7546771E-02  0.1035159E+00
         21   -1    0    0  502  501  0.00000000000E+00  0.00000000000E+00  0.10122639033E+04  0.10122639033E+04  0.00000000000E+00 0. -1.
         21   -1    0    0  501  502 -0.00000000000E+00 -0.00000000000E+00 -0.44801201126E+02  0.44801201126E+02  0.00000000000E+00 0. -1.
      99925    2    1    2    0    0  0.46814562775E+02 -0.51865134190E+02  0.73834835755E+03  0.78683837287E+03  0.26282072312E+03 0.  0.
         25    1    3    3    0    0  0.49423767604E+02 -0.38507666294E+02  0.47137541081E+03  0.49169892738E+03  0.12509000000E+03 0.  0.
         25    1    3    3    0    0 -0.26092048299E+01 -0.13357467896E+02  0.26697294674E+03  0.29513944549E+03  0.12509000000E+03 0.  0.
         25    1    1    2    0    0 -0.46814562775E+02  0.51865134190E+02  0.22911434463E+03  0.27022673156E+03  0.12509000000E+03 0.  0.
<mgrwt>
<rscale>  2 0.42591379E+03</rscale>
<asrwt>0</asrwt>
<pdfrwt beam="1">  1       21 0.14886232E+00 0.42591379E+03</pdfrwt>
<pdfrwt beam="2">  1       21 0.65884126E-02 0.42591379E+03</pdfrwt>
<totfact> 0.46767472E+04</totfact>
</mgrwt>
</event>
<event>
 6    0  0.1539497E-004  0.3933785E+03  0.7546771E-02  0.1046097E+00
         21   -1    0    0  502  501  0.00000000000E+00  0.00000000000E+00  0.81525447821E+03  0.81525447821E+03  0.00000000000E+00 0. -1.
         21   -1    0    0  501  502 -0.00000000000E+00 -0.00000000000E+00 -0.47453484296E+02  0.47453484296E+02  0.00000000000E+00 0. -1.
      99925    2    1    2    0    0  0.15669663519E+02  0.21819311864E+02  0.54600757548E+03  0.60665826169E+03  0.26303679073E+03 0.  0.
         25    1    3    3    0    0 -0.26590875511E+02 -0.10570139221E+02  0.25550283050E+03  0.28591608384E+03  0.12509000000E+03 0.  0.
         25    1    3    3    0    0  0.42260539030E+02  0.32389451084E+02  0.29050474498E+03  0.32074217786E+03  0.12509000000E+03 0.  0.
         25    1    1    2    0    0 -0.15669663519E+02 -0.21819311864E+02  0.22179341843E+03  0.25604970081E+03  0.12509000000E+03 0.  0.
<mgrwt>
<rscale>  2 0.39337852E+03</rscale>
<asrwt>0</asrwt>
<pdfrwt beam="1">  1       21 0.11989036E+00 0.39337852E+03</pdfrwt>
<pdfrwt beam="2">  1       21 0.69784541E-02 0.39337852E+03</pdfrwt>
<totfact> 0.75083526E+04</totfact>
</mgrwt>
</event>
<event>
 6    0  0.1539497E-004  0.4114780E+03  0.7546771E-02  0.1039876E+00
         21   -1    0    0  502  501  0.00000000000E+00  0.00000000000E+00  0.23634872152E+03  0.23634872152E+03  0.00000000000E+00 0. -1.
         21   -1    0    0  501  502 -0.00000000000E+00 -0.00000000000E+00 -0.17909357097E+03  0.17909357097E+03  0.00000000000E+00 0. -1.
      99925    2    1    2    0    0 -0.43411328720E+02  0.11909330384E+02 -0.88311009095E+01  0.26697924542E+03  0.26300865676E+03 0.  0.
         25    1    3    3    0    0 -0.52075390287E+02 -0.18151811807E+02  0.80083499265E+01  0.13694150691E+03  0.12509000000E+03 0.  0.
         25    1    3    3    0    0  0.86640615674E+01  0.30061142191E+02 -0.16839450836E+02  0.13003773851E+03  0.12509000000E+03 0.  0.
         25    1    1    2    0    0  0.43411328720E+02 -0.11909330384E+02  0.66086251461E+02  0.14846304706E+03  0.12509000000E+03 0.  0.
<mgrwt>
<rscale>  2 0.41147800E+03</rscale>
<asrwt>0</asrwt>
<pdfrwt beam="1">  1       21 0.34757165E-01 0.41147800E+03</pdfrwt>
<pdfrwt beam="2">  1       21 0.26337290E-01 0.41147800E+03</pdfrwt>
<totfact> 0.10289017E+05</totfact>
</mgrwt>
</event>
<event>
 6    0  0.1539497E-004  0.4080217E+03  0.7546771E-02  0.1041037E+00
         21   -1    0    0  502  501  0.00000000000E+00  0.00000000000E+00  0.15832873211E+04  0.15832873211E+04  0.00000000000E+00 0.  1.
         21   -1    0    0  501  502 -0.00000000000E+00 -0.00000000000E+00 -0.26287348668E+02  0.26287348668E+02  0.00000000000E+00 0.  1.
      99925    2    1    2    0    0  0.42975430998E+02 -0.29869089471E+02  0.92362477813E+03  0.96184733899E+03  0.26330310021E+03 0.  0.
         25    1    3    3    0    0  0.31857250555E+02 -0.30954192051E+02  0.60443565567E+03  0.61884005718E+03  0.12509000000E+03 0.  0.
         25    1    3    3    0    0  0.11118180443E+02  0.10851025794E+01  0.31918912246E+03  0.34300728181E+03  0.12509000000E+03 0.  0.
         25    1    1    2    0    0 -0.42975430998E+02  0.29869089471E+02  0.63337519431E+03  0.64772733078E+03  0.12509000000E+03 0.  0.
<mgrwt>
<rscale>  2 0.40802169E+03</rscale>
<asrwt>0</asrwt>
<pdfrwt beam="1">  1       21 0.23283631E+00 0.40802169E+03</pdfrwt>
<pdfrwt beam="2">  1       21 0.38657876E-02 0.40802169E+03</pdfrwt>
<totfact> 0.31106487E+04</totfact>
</mgrwt>
</event>
<event>
 6    0  0.1539497E-004  0.5731322E+03  0.7546771E-02  0.9962771E-01
         21   -1    0    0  502  501  0.00000000000E+00  0.00000000000E+00  0.15621002748E+03  0.15621002748E+03  0.00000000000E+00 0. -1.
         21   -1    0    0  501  502 -0.00000000000E+00 -0.00000000000E+00 -0.52570337505E+03  0.52570337505E+03  0.00000000000E+00 0. -1.
      99925    2    1    2    0    0  0.11039637987E+03 -0.10128137849E+03 -0.38073879725E+03  0.48641596890E+03  0.26304597459E+03 0.  0.
         25    1    1    2    0    0 -0.11039637987E+03  0.10128137849E+03  0.11245449681E+02  0.19549743363E+03  0.12509000000E+03 0.  0.
         25    1    3    3    0    0  0.19397794729E+02 -0.63746002333E+02 -0.20599111723E+03  0.25003934836E+03  0.12509000000E+03 0.  0.
         25    1    3    3    0    0  0.90998585142E+02 -0.37535376155E+02 -0.17474768002E+03  0.23637662053E+03  0.12509000000E+03 0.  0.
<mgrwt>
<rscale>  2 0.57313223E+03</rscale>
<asrwt>0</asrwt>
<pdfrwt beam="1">  1       21 0.22972063E-01 0.57313223E+03</pdfrwt>
<pdfrwt beam="2">  1       21 0.77309319E-01 0.57313223E+03</pdfrwt>
<totfact> 0.23308394E+04</totfact>
</mgrwt>
</event>
<event>
 6    0  0.1539497E-004  0.4118259E+03  0.7546771E-02  0.1039760E+00
         21   -1    0    0  502  501  0.00000000000E+00  0.00000000000E+00  0.34452435030E+02  0.34452435030E+02  0.00000000000E+00 0.  1.
         21   -1    0    0  501  502 -0.00000000000E+00 -0.00000000000E+00 -0.12306865941E+04  0.12306865941E+04  0.00000000000E+00 0.  1.
      99925    2    1    2    0    0  0.46927545603E+02 -0.32448453342E+02 -0.69995413780E+03  0.75016673446E+03  0.26374085352E+03 0.  0.
         25    1    3    3    0    0  0.72408066656E+01 -0.52253996687E+02 -0.31626338323E+03  0.34416993640E+03  0.12509000000E+03 0.  0.
         25    1    1    2    0    0 -0.46927545603E+02  0.32448453342E+02 -0.49628002126E+03  0.51497229466E+03  0.12509000000E+03 0.  0.
         25    1    3    3    0    0  0.39686738937E+02  0.19805543345E+02 -0.38369075457E+03  0.40599679806E+03  0.12509000000E+03 0.  0.
<mgrwt>
<rscale>  2 0.41182593E+03</rscale>
<asrwt>0</asrwt>
<pdfrwt beam="1">  1       21 0.50665348E-02 0.41182593E+03</pdfrwt>
<pdfrwt beam="2">  1       21 0.18098331E+00 0.41182593E+03</pdfrwt>
<totfact> 0.42819556E+04</totfact>
</mgrwt>
</event>
<event>
 6    0  0.1539497E-004  0.4339513E+03  0.7546771E-02  0.1032619E+00
         21   -1    0    0  502  501  0.00000000000E+00  0.00000000000E+00  0.45322208879E+02  0.45322208879E+02  0.00000000000E+00 0. -1.
         21   -1    0    0  501  502 -0.00000000000E+00 -0.00000000000E+00 -0.10387499788E+04  0.10387499788E+04  0.00000000000E+00 0. -1.
      99925    2    1    2    0    0 -0.18955740992E+02 -0.56844392833E+02 -0.46266299286E+03  0.53548366995E+03  0.26285948853E+03 0.  0.
         25    1    3    3    0    0  0.22310429731E+01 -0.59451830610E+01 -0.15851086450E+03  0.20202357541E+03  0.12509000000E+03 0.  0.
         25    1    1    2    0    0  0.18955740992E+02  0.56844392833E+02 -0.53076477707E+03  0.54858851773E+03  0.12509000000E+03 0.  0.
         25    1    3    3    0    0 -0.21186783965E+02 -0.50899209772E+02 -0.30415212835E+03  0.33346009454E+03  0.12509000000E+03 0.  0.
<mgrwt>
<rscale>  2 0.43395135E+03</rscale>
<asrwt>0</asrwt>
<pdfrwt beam="1">  1       21 0.66650311E-02 0.43395135E+03</pdfrwt>
<pdfrwt beam="2">  1       21 0.15275734E+00 0.43395135E+03</pdfrwt>
<totfact> 0.42634549E+04</totfact>
</mgrwt>
</event>
<event>
 6    0  0.1539497E-004  0.4009658E+03  0.7546771E-02  0.1043446E+00
         21   -1    0    0  502  501  0.00000000000E+00  0.00000000000E+00  0.15581977278E+03  0.15581977278E+03  0.00000000000E+00 0. -1.
         21   -1    0    0  501  502 -0.00000000000E+00 -0.00000000000E+00 -0.25794793574E+03  0.25794793574E+03  0.00000000000E+00 0. -1.
      99925    2    1    2    0    0  0.34359725120E+02  0.19071072308E+01 -0.10186211460E+03  0.28403025575E+03  0.26289364394E+03 0.  0.
         25    1    1    2    0    0 -0.34359725120E+02 -0.19071072308E+01 -0.26604836370E+00  0.12973745277E+03  0.12509000000E+03 0.  0.
         25    1    3    3    0    0  0.46620889757E+02  0.65271337940E+01 -0.81706590801E+02  0.15665115996E+03  0.12509000000E+03 0.  0.
         25    1    3    3    0    0 -0.12261164637E+02 -0.46200265632E+01 -0.20155523799E+02  0.12737909579E+03  0.12509000000E+03 0.  0.
<mgrwt>
<rscale>  2 0.40096578E+03</rscale>
<asrwt>0</asrwt>
<pdfrwt beam="1">  1       21 0.22914672E-01 0.40096578E+03</pdfrwt>
<pdfrwt beam="2">  1       21 0.37933520E-01 0.40096578E+03</pdfrwt>
<totfact> 0.11308903E+05</totfact>
</mgrwt>
</event>
<event>
 6    0  0.1539497E-004  0.4560235E+03  0.7546771E-02  0.1025941E+00
         21   -1    0    0  502  501  0.00000000000E+00  0.00000000000E+00  0.42036489887E+03  0.42036489887E+03  0.00000000000E+00 0. -1.
         21   -1    0    0  501  502 -0.00000000000E+00 -0.00000000000E+00 -0.12367670837E+03  0.12367670837E+03  0.00000000000E+00 0. -1.
      99925    2    1    2    0    0 -0.68662036920E+00  0.11289814418E+03  0.16692071113E+03  0.33135975751E+03  0.26304049628E+03 0.  0.
         25    1    3    3    0    0  0.37389348719E+02  0.70899308249E+02  0.78630853571E+02  0.16809222035E+03  0.12509000000E+03 0.  0.
         25    1    1    2    0    0  0.68662036920E+00 -0.11289814418E+03  0.12976747936E+03  0.21268184973E+03  0.12509000000E+03 0.  0.
         25    1    3    3    0    0 -0.38075969088E+02  0.41998835928E+02  0.88289857564E+02  0.16326753716E+03  0.12509000000E+03 0.  0.
<mgrwt>
<rscale>  2 0.45602345E+03</rscale>
<asrwt>0</asrwt>
<pdfrwt beam="1">  1       21 0.61818367E-01 0.45602345E+03</pdfrwt>
<pdfrwt beam="2">  1       21 0.18187751E-01 0.45602345E+03</pdfrwt>
<totfact> 0.61760274E+04</totfact>
</mgrwt>
</event>
<event>
 6    0  0.1539497E-004  0.4197109E+03  0.7546771E-02  0.1037160E+00
         21   -1    0    0  502  501  0.00000000000E+00  0.00000000000E+00  0.37923501199E+03  0.37923501199E+03  0.00000000000E+00 0.  1.
         21   -1    0    0  501  502 -0.00000000000E+00 -0.00000000000E+00 -0.11612669163E+03  0.11612669163E+03  0.00000000000E+00 0.  1.
      99925    2    1    2    0    0  0.32646845981E+02  0.39736810663E+02  0.10599849393E+03  0.28805556204E+03  0.26286022033E+03 0.  0.
         25    1    3    3    0    0  0.11441103288E+01 -0.23596421515E+01  0.18193614550E+02  0.12643335244E+03  0.12509000000E+03 0.  0.
         25    1    3    3    0    0  0.31502735652E+02  0.42096452815E+02  0.87804879377E+02  0.16162220960E+03  0.12509000000E+03 0.  0.
         25    1    1    2    0    0 -0.32646845981E+02 -0.39736810663E+02  0.15710982644E+03  0.20730614158E+03  0.12509000000E+03 0.  0.
<mgrwt>
<rscale>  2 0.41971089E+03</rscale>
<asrwt>0</asrwt>
<pdfrwt beam="1">  1       21 0.55769854E-01 0.41971089E+03</pdfrwt>
<pdfrwt beam="2">  1       21 0.17077455E-01 0.41971089E+03</pdfrwt>
<totfact> 0.87688356E+04</totfact>
</mgrwt>
</event>
<event>
 6    0  0.1539497E-004  0.3998051E+03  0.7546771E-02  0.1043847E+00
         21   -1    0    0  502  501  0.00000000000E+00  0.00000000000E+00  0.91435168312E+02  0.91435168312E+02  0.00000000000E+00 0. -1.
         21   -1    0    0  501  502 -0.00000000000E+00 -0.00000000000E+00 -0.43704232456E+03  0.43704232456E+03  0.00000000000E+00 0. -1.
      99925    2    1    2    0    0 -0.42765784365E+01 -0.56795421392E+01 -0.17109477354E+03  0.31364587010E+03  0.26277321777E+03 0.  0.
         25    1    1    2    0    0  0.42765784365E+01  0.56795421392E+01 -0.17451238271E+03  0.21483162277E+03  0.12509000000E+03 0.  0.
         25    1    3    3    0    0 -0.16510546293E+02 -0.24777844538E+02 -0.49668636148E+02  0.13784419188E+03  0.12509000000E+03 0.  0.
         25    1    3    3    0    0  0.12233967857E+02  0.19098302399E+02 -0.12142613739E+03  0.17580167822E+03  0.12509000000E+03 0.  0.
<mgrwt>
<rscale>  2 0.39980515E+03</rscale>
<asrwt>0</asrwt>
<pdfrwt beam="1">  1       21 0.13446348E-01 0.39980515E+03</pdfrwt>
<pdfrwt beam="2">  1       21 0.64270930E-01 0.39980515E+03</pdfrwt>
<totfact> 0.10056336E+05</totfact>
</mgrwt>
</event>
<event>
 6    0  0.1539497E-004  0.4387202E+03  0.7546771E-02  0.1031140E+00
         21   -1    0    0  502  501  0.00000000000E+00  0.00000000000E+00  0.64059466457E+02  0.64059466457E+02  0.00000000000E+00 0.  1.
         21   -1    0    0  501  502 -0.00000000000E+00 -0.00000000000E+00 -0.75115921007E+03  0.75115921007E+03  0.00000000000E+00 0.  1.
      99925    2    1    2    0    0 -0.55155502086E+02  0.14397791930E+02 -0.58530803708E+03  0.64416755715E+03  0.26290096536E+03 0.  0.
         25    1    3    3    0    0 -0.59189023337E+01  0.40409852645E+02 -0.26729677302E+03  0.29793130511E+03  0.12509000000E+03 0.  0.
         25    1    3    3    0    0 -0.49236599752E+02 -0.26012060715E+02 -0.31801126406E+03  0.34623625204E+03  0.12509000000E+03 0.  0.
         25    1    1    2    0    0  0.55155502086E+02 -0.14397791930E+02 -0.10179170654E+03  0.17105111938E+03  0.12509000000E+03 0.  0.
<mgrwt>
<rscale>  2 0.43872022E+03</rscale>
<asrwt>0</asrwt>
<pdfrwt beam="1">  1       21 0.94205101E-02 0.43872022E+03</pdfrwt>
<pdfrwt beam="2">  1       21 0.11046459E+00 0.43872022E+03</pdfrwt>
<totfact> 0.53558625E+04</totfact>
</mgrwt>
</event>
<event>
 6    0  0.1539497E-004  0.4000649E+03  0.7546771E-02  0.1043757E+00
         21   -1    0    0  502  501  0.00000000000E+00  0.00000000000E+00  0.17820436054E+03  0.17820436054E+03  0.00000000000E+00 0.  1.
         21   -1    0    0  501  502 -0.00000000000E+00 -0.00000000000E+00 -0.22453428263E+03  0.22453428263E+03  0.00000000000E+00 0.  1.
      99925    2    1    2    0    0  0.43950068209E+02  0.11518802954E+02 -0.28798971044E+02  0.26850327651E+03  0.26305957015E+03 0.  0.
         25    1    3    3    0    0  0.36900931779E+02 -0.28008029179E+02  0.26371806059E+01  0.13341885656E+03  0.12509000000E+03 0.  0.
         25    1    3    3    0    0  0.70491364307E+01  0.39526832133E+02 -0.31436151650E+02  0.13508441995E+03  0.12509000000E+03 0.  0.
         25    1    1    2    0    0 -0.43950068209E+02 -0.11518802954E+02 -0.17530951049E+02  0.13423536666E+03  0.12509000000E+03 0.  0.
<mgrwt>
<rscale>  2 0.40006494E+03</rscale>
<asrwt>0</asrwt>
<pdfrwt beam="1">  1       21 0.26206524E-01 0.40006494E+03</pdfrwt>
<pdfrwt beam="2">  1       21 0.33019747E-01 0.40006494E+03</pdfrwt>
<totfact> 0.11544404E+05</totfact>
</mgrwt>
</event>
<event>
 6    0  0.1539497E-004  0.4078643E+03  0.7546771E-02  0.1041090E+00
         21   -1    0    0  502  501  0.00000000000E+00  0.00000000000E+00  0.10286461991E+04  0.10286461991E+04  0.00000000000E+00 0.  1.
         21   -1    0    0  501  502 -0.00000000000E+00 -0.00000000000E+00 -0.40430158186E+02  0.40430158186E+02  0.00000000000E+00 0.  1.
      99925    2    1    2    0    0  0.47236480956E+02  0.24446315250E+02  0.72010554453E+03  0.76847753188E+03  0.26301485564E+03 0.  0.
         25    1    3    3    0    0  0.58172851567E+02  0.30889310856E+02  0.34417226218E+03  0.37207564330E+03  0.12509000000E+03 0.  0.
         25    1    3    3    0    0 -0.10936370611E+02 -0.64429956060E+01  0.37593328235E+03  0.39640188859E+03  0.12509000000E+03 0.  0.
         25    1    1    2    0    0 -0.47236480956E+02 -0.24446315250E+02  0.26811049642E+03  0.30059882544E+03  0.12509000000E+03 0.  0.
<mgrwt>
<rscale>  2 0.40786433E+03</rscale>
<asrwt>0</asrwt>
<pdfrwt beam="1">  1       21 0.15127148E+00 0.40786433E+03</pdfrwt>
<pdfrwt beam="2">  1       21 0.59456122E-02 0.40786433E+03</pdfrwt>
<totfact> 0.53819441E+04</totfact>
</mgrwt>
</event>
<event>
 6    0  0.1539497E-004  0.4094075E+03  0.7546771E-02  0.1040570E+00
         21   -1    0    0  502  501  0.00000000000E+00  0.00000000000E+00  0.16216590810E+04  0.16216590810E+04  0.00000000000E+00 0. -1.
         21   -1    0    0  501  502 -0.00000000000E+00 -0.00000000000E+00 -0.25839976219E+02  0.25839976219E+02  0.00000000000E+00 0. -1.
      99925    2    1    2    0    0 -0.57697169810E+02  0.19603579122E+02  0.10823289510E+04  0.11154906833E+04  0.26300236270E+03 0.  0.
         25    1    3    3    0    0 -0.28279193920E+02  0.49948467523E+02  0.57874886204E+03  0.59488849008E+03  0.12509000000E+03 0.  0.
         25    1    1    2    0    0  0.57697169810E+02 -0.19603579122E+02  0.51349015378E+03  0.53200837385E+03  0.12509000000E+03 0.  0.
         25    1    3    3    0    0 -0.29417975890E+02 -0.30344888401E+02  0.50358008892E+03  0.52060219325E+03  0.12509000000E+03 0.  0.
<mgrwt>
<rscale>  2 0.40940753E+03</rscale>
<asrwt>0</asrwt>
<pdfrwt beam="1">  1       21 0.23847921E+00 0.40940753E+03</pdfrwt>
<pdfrwt beam="2">  1       21 0.37999976E-02 0.40940753E+03</pdfrwt>
<totfact> 0.29525860E+04</totfact>
</mgrwt>
</event>
<event>
 6    0  0.1539497E-004  0.5348176E+03  0.7546771E-02  0.1005070E+00
         21   -1    0    0  502  501  0.00000000000E+00  0.00000000000E+00  0.42367295294E+03  0.42367295294E+03  0.00000000000E+00 0. -1.
         21   -1    0    0  501  502 -0.00000000000E+00 -0.00000000000E+00 -0.16877984715E+03  0.16877984715E+03  0.00000000000E+00 0. -1.
      99925    2    1    2    0    0 -0.17487998024E+02 -0.11283235672E+03  0.30162703088E+03  0.41675835325E+03  0.26395395138E+03 0.  0.
         25    1    3    3    0    0 -0.40490266789E+02 -0.84510843835E+02  0.18160976098E+03  0.23960625579E+03  0.12509000000E+03 0.  0.
         25    1    3    3    0    0  0.23002268765E+02 -0.28321512882E+02  0.12001726990E+03  0.17715209746E+03  0.12509000000E+03 0.  0.
         25    1    1    2    0    0  0.17487998024E+02  0.11283235672E+03 -0.46733925085E+02  0.17569444684E+03  0.12509000000E+03 0.  0.
<mgrwt>
<rscale>  2 0.53481756E+03</rscale>
<asrwt>0</asrwt>
<pdfrwt beam="1">  1       21 0.62304846E-01 0.53481756E+03</pdfrwt>
<pdfrwt beam="2">  1       21 0.24820566E-01 0.53481756E+03</pdfrwt>
<totfact> 0.32901235E+04</totfact>
</mgrwt>
</event>
<event>
 6    0  0.1539497E-004  0.3944111E+03  0.7546771E-02  0.1045732E+00
         21   -1    0    0  502  501  0.00000000000E+00  0.00000000000E+00  0.58211528624E+03  0.58211528624E+03  0.00000000000E+00 0. -1.
         21   -1    0    0  501  502 -0.00000000000E+00 -0.00000000000E+00 -0.66808126374E+02  0.66808126374E+02  0.00000000000E+00 0. -1.
      99925    2    1    2    0    0 -0.31251907498E+02  0.71078555348E+01  0.35625887339E+03  0.44405499420E+03  0.26312972024E+03 0.  0.
         25    1    3    3    0    0  0.40163127239E+00  0.38355302929E+02  0.20021898689E+03  0.23917868086E+03  0.12509000000E+03 0.  0.
         25    1    1    2    0    0  0.31251907498E+02 -0.71078555348E+01  0.15904828648E+03  0.20486841841E+03  0.12509000000E+03 0.  0.
         25    1    3    3    0    0 -0.31653538770E+02 -0.31247447394E+02  0.15603988650E+03  0.20487631333E+03  0.12509000000E+03 0.  0.
<mgrwt>
<rscale>  2 0.39441111E+03</rscale>
<asrwt>0</asrwt>
<pdfrwt beam="1">  1       21 0.85605186E-01 0.39441111E+03</pdfrwt>
<pdfrwt beam="2">  1       21 0.98247248E-02 0.39441111E+03</pdfrwt>
<totfact> 0.92736730E+04</totfact>
</mgrwt>
</event>
<event>
 6    0  0.1539497E-004  0.7957587E+03  0.7546771E-02  0.9566177E-01
         21   -1    0    0  502  501  0.00000000000E+00  0.00000000000E+00  0.19936553308E+03  0.19936553308E+03  0.00000000000E+00 0.  1.
         21   -1    0    0  501  502 -0.00000000000E+00 -0.00000000000E+00 -0.79405892670E+03  0.79405892670E+03  0.00000000000E+00 0. -1.
      99925    2    1    2    0    0  0.24206423999E+03 -0.18516986756E+03 -0.51657704000E+03  0.65485002345E+03  0.26285687897E+03 0.  0.
         25    1    3    3    0    0  0.17459679244E+03 -0.12082177842E+03 -0.31923876875E+03  0.40329002175E+03  0.12509000000E+03 0.  0.
         25    1    1    2    0    0 -0.24206423999E+03  0.18516986756E+03 -0.78116353626E+02  0.33857443633E+03  0.12509000000E+03 0.  0.
         25    1    3    3    0    0  0.67467447550E+02 -0.64348089139E+02 -0.19733827125E+03  0.25156000170E+03  0.12509000000E+03 0.  0.
<mgrwt>
<rscale>  2 0.79575871E+03</rscale>
<asrwt>0</asrwt>
<pdfrwt beam="1">  1       21 0.29318462E-01 0.79575871E+03</pdfrwt>
<pdfrwt beam="2">  1       21 0.11677337E+00 0.79575871E+03</pdfrwt>
<totfact> 0.50782736E+03</totfact>
</mgrwt>
</event>
<event>
 6    0  0.1539497E-004  0.4719321E+03  0.7546771E-02  0.1021376E+00
         21   -1    0    0  502  501  0.00000000000E+00  0.00000000000E+00  0.25172639493E+03  0.25172639493E+03  0.00000000000E+00 0.  1.
         21   -1    0    0  501  502 -0.00000000000E+00 -0.00000000000E+00 -0.22119244367E+03  0.22119244367E+03  0.00000000000E+00 0.  1.
      99925    2    1    2    0    0  0.11122293621E+03 -0.34621532355E+02 -0.35340950675E+02  0.28973531629E+03  0.26292276179E+03 0.  0.
         25    1    1    2    0    0 -0.11122293621E+03  0.34621532355E+02  0.65874901935E+02  0.18318352232E+03  0.12509000000E+03 0.  0.
         25    1    3    3    0    0  0.60304150826E+02 -0.56861036880E+02 -0.28121071277E+02  0.15266980996E+03  0.12509000000E+03 0.  0.
         25    1    3    3    0    0  0.50918785389E+02  0.22239504526E+02 -0.72198793981E+01  0.13706550633E+03  0.12509000000E+03 0.  0.
<mgrwt>
<rscale>  2 0.47193210E+03</rscale>
<asrwt>0</asrwt>
<pdfrwt beam="1">  1       21 0.37018588E-01 0.47193210E+03</pdfrwt>
<pdfrwt beam="2">  1       21 0.32528300E-01 0.47193210E+03</pdfrwt>
<totfact> 0.58885948E+04</totfact>
</mgrwt>
</event>
<event>
 6    0  0.1539497E-004  0.4048465E+03  0.7546771E-02  0.1042114E+00
         21   -1    0    0  502  501  0.00000000000E+00  0.00000000000E+00  0.11882825872E+03  0.11882825872E+03  0.00000000000E+00 0.  1.
         21   -1    0    0  501  502 -0.00000000000E+00 -0.00000000000E+00 -0.34482679874E+03  0.34482679874E+03  0.00000000000E+00 0.  1.
      99925    2    1    2    0    0  0.20125073449E+02  0.41986183010E+02 -0.11822640113E+03  0.29210273259E+03  0.26301837639E+03 0.  0.
         25    1    1    2    0    0 -0.20125073449E+02 -0.41986183010E+02 -0.10777213890E+03  0.17155232487E+03  0.12509000000E+03 0.  0.
         25    1    3    3    0    0  0.47066636951E+01  0.52232587736E+02 -0.89263763182E+02  0.16237587081E+03  0.12509000000E+03 0.  0.
         25    1    3    3    0    0  0.15418409754E+02 -0.10246404727E+02 -0.28962637944E+02  0.12972686177E+03  0.12509000000E+03 0.  0.
<mgrwt>
<rscale>  2 0.40484648E+03</rscale>
<asrwt>0</asrwt>
<pdfrwt beam="1">  1       21 0.17474744E-01 0.40484648E+03</pdfrwt>
<pdfrwt beam="2">  1       21 0.50709822E-01 0.40484648E+03</pdfrwt>
<totfact> 0.10329566E+05</totfact>
</mgrwt>
</event>
<event>
 6    0  0.1539497E-004  0.4889109E+03  0.7546771E-02  0.1016715E+00
         21   -1    0    0  502  501  0.00000000000E+00  0.00000000000E+00  0.48552341685E+02  0.48552341685E+02  0.00000000000E+00 0.  1.
         21   -1    0    0  501  502 -0.00000000000E+00 -0.00000000000E+00 -0.12308049279E+04  0.12308049279E+04  0.00000000000E+00 0.  1.
      99925    2    1    2    0    0  0.37145967103E+02  0.93985862234E+02 -0.46086993697E+03  0.54026755927E+03  0.26320100991E+03 0.  0.
         25    1    1    2    0    0 -0.37145967103E+02 -0.93985862234E+02 -0.72138264924E+03  0.73908971032E+03  0.12509000000E+03 0.  0.
         25    1    3    3    0    0  0.26810279840E+02  0.38375656450E+02 -0.30252439218E+03  0.33069623233E+03  0.12509000000E+03 0.  0.
         25    1    3    3    0    0  0.10335687263E+02  0.55610205785E+02 -0.15834554480E+03  0.20957132694E+03  0.12509000000E+03 0.  0.
<mgrwt>
<rscale>  2 0.48891088E+03</rscale>
<asrwt>0</asrwt>
<pdfrwt beam="1">  1       21 0.71400517E-02 0.48891088E+03</pdfrwt>
<pdfrwt beam="2">  1       21 0.18100069E+00 0.48891088E+03</pdfrwt>
<totfact> 0.23018305E+04</totfact>
</mgrwt>
</event>
<event>
 6    0  0.1539497E-004  0.4018810E+03  0.7546771E-02  0.1043130E+00
         21   -1    0    0  502  501  0.00000000000E+00  0.00000000000E+00  0.46312902691E+03  0.46312902691E+03  0.00000000000E+00 0. -1.
         21   -1    0    0  501  502 -0.00000000000E+00 -0.00000000000E+00 -0.87183246046E+02  0.87183246046E+02  0.00000000000E+00 0. -1.
      99925    2    1    2    0    0 -0.47907297235E+02 -0.93852853201E+01  0.24608073270E+03  0.36350854830E+03  0.26305806388E+03 0.  0.
         25    1    3    3    0    0 -0.62161527264E+02  0.10480662379E+02  0.13081843753E+03  0.19166343275E+03  0.12509000000E+03 0.  0.
         25    1    3    3    0    0  0.14254230029E+02 -0.19865947699E+02  0.11526229517E+03  0.17184511555E+03  0.12509000000E+03 0.  0.
         25    1    1    2    0    0  0.47907297235E+02  0.93852853201E+01  0.12986504816E+03  0.18680372465E+03  0.12509000000E+03 0.  0.
<mgrwt>
<rscale>  2 0.40188104E+03</rscale>
<asrwt>0</asrwt>
<pdfrwt beam="1">  1       21 0.68107209E-01 0.40188104E+03</pdfrwt>
<pdfrwt beam="2">  1       21 0.12821066E-01 0.40188104E+03</pdfrwt>
<totfact> 0.96413962E+04</totfact>
</mgrwt>
</event>
<event>
 6    0  0.1539497E-004  0.4256450E+03  0.7546771E-02  0.1035245E+00
         21   -1    0    0  502  501  0.00000000000E+00  0.00000000000E+00  0.69608048357E+03  0.69608048357E+03  0.00000000000E+00 0.  1.
         21   -1    0    0  501  502 -0.00000000000E+00 -0.00000000000E+00 -0.65069237042E+02  0.65069237042E+02  0.00000000000E+00 0.  1.
      99925    2    1    2    0    0 -0.82529727967E+02 -0.51655528186E+01  0.40368997116E+03  0.48882581555E+03  0.26295863971E+03 0.  0.
         25    1    3    3    0    0 -0.41050273160E+00 -0.85484934008E+01  0.16808402705E+03  0.20969738554E+03  0.12509000000E+03 0.  0.
         25    1    1    2    0    0  0.82529727967E+02  0.51655528186E+01  0.22732127537E+03  0.27232390506E+03  0.12509000000E+03 0.  0.
         25    1    3    3    0    0 -0.82119225236E+02  0.33829405822E+01  0.23560594411E+03  0.27912843001E+03  0.12509000000E+03 0.  0.
<mgrwt>
<rscale>  2 0.42564504E+03</rscale>
<asrwt>0</asrwt>
<pdfrwt beam="1">  1       21 0.10236477E+00 0.42564504E+03</pdfrwt>
<pdfrwt beam="2">  1       21 0.95690058E-02 0.42564504E+03</pdfrwt>
<totfact> 0.63018220E+04</totfact>
</mgrwt>
</event>
<event>
 6    0  0.1539497E-004  0.4559261E+03  0.7546771E-02  0.1025969E+00
         21   -1    0    0  502  501  0.00000000000E+00  0.00000000000E+00  0.30320187113E+03  0.30320187113E+03  0.00000000000E+00 0.  1.
         21   -1    0    0  501  502 -0.00000000000E+00 -0.00000000000E+00 -0.17139459281E+03  0.17139459281E+03  0.00000000000E+00 0.  1.
      99925    2    1    2    0    0 -0.29762249208E+02 -0.76523486111E+02  0.35182946878E+00  0.27542397955E+03  0.26290037908E+03 0.  0.
         25    1    3    3    0    0 -0.20309902130E+02 -0.27971953301E+02 -0.38575646012E+02  0.13539021701E+03  0.12509000000E+03 0.  0.
         25    1    3    3    0    0 -0.94523470777E+01 -0.48551532810E+02  0.38927475481E+02  0.14003376254E+03  0.12509000000E+03 0.  0.
         25    1    1    2    0    0  0.29762249208E+02  0.76523486111E+02  0.13145544885E+03  0.19917248439E+03  0.12509000000E+03 0.  0.
<mgrwt>
<rscale>  2 0.45592614E+03</rscale>
<asrwt>0</asrwt>
<pdfrwt beam="1">  1       21 0.44588511E-01 0.45592614E+03</pdfrwt>
<pdfrwt beam="2">  1       21 0.25205087E-01 0.45592614E+03</pdfrwt>
<totfact> 0.66604762E+04</totfact>
</mgrwt>
</event>
<event>
 6    0  0.1539497E-004  0.4703641E+03  0.7546771E-02  0.1021817E+00
         21   -1    0    0  502  501  0.00000000000E+00  0.00000000000E+00  0.38167075158E+02  0.38167075158E+02  0.00000000000E+00 0. -1.
         21   -1    0    0  501  502 -0.00000000000E+00 -0.00000000000E+00 -0.14491704710E+04  0.14491704710E+04  0.00000000000E+00 0. -1.
      99925    2    1    2    0    0 -0.12682477956E+03  0.21596043858E+01 -0.86067504855E+03  0.90889309201E+03  0.26312720290E+03 0.  0.
         25    1    1    2    0    0  0.12682477956E+03 -0.21596043858E+01 -0.55032834728E+03  0.57844445413E+03  0.12509000000E+03 0.  0.
         25    1    3    3    0    0 -0.83100074278E+02  0.37487859029E+02 -0.47220163201E+03  0.49692338574E+03  0.12509000000E+03 0.  0.
         25    1    3    3    0    0 -0.43724705280E+02 -0.35328254643E+02 -0.38847341654E+03  0.41196970627E+03  0.12509000000E+03 0.  0.
<mgrwt>
<rscale>  2 0.47036411E+03</rscale>
<asrwt>0</asrwt>
<pdfrwt beam="1">  1       21 0.56128048E-02 0.47036411E+03</pdfrwt>
<pdfrwt beam="2">  1       21 0.21311332E+00 0.47036411E+03</pdfrwt>
<totfact> 0.21418744E+04</totfact>
</mgrwt>
</event>
<event>
 6    0  0.1539497E-004  0.4130849E+03  0.7546771E-02  0.1039341E+00
         21   -1    0    0  502  501  0.00000000000E+00  0.00000000000E+00  0.17869451775E+03  0.17869451775E+03  0.00000000000E+00 0.  1.
         21   -1    0    0  501  502 -0.00000000000E+00 -0.00000000000E+00 -0.23873019029E+03  0.23873019029E+03  0.00000000000E+00 0.  1.
      99925    2    1    2    0    0  0.38083625537E+00 -0.40219691602E+02 -0.92490160629E+02  0.28207859422E+03  0.26343146144E+03 0.  0.
         25    1    1    2    0    0 -0.38083625537E+00  0.40219691602E+02  0.32454488086E+02  0.13534611382E+03  0.12509000000E+03 0.  0.
         25    1    3    3    0    0  0.77735931701E+01 -0.97770701019E+01 -0.41729931023E+01  0.12578132541E+03  0.12509000000E+03 0.  0.
         25    1    3    3    0    0 -0.73927569148E+01 -0.30442621500E+02 -0.88317167526E+02  0.15629726881E+03  0.12509000000E+03 0.  0.
<mgrwt>
<rscale>  2 0.41308486E+03</rscale>
<asrwt>0</asrwt>
<pdfrwt beam="1">  1       21 0.26278606E-01 0.41308486E+03</pdfrwt>
<pdfrwt beam="2">  1       21 0.35107381E-01 0.41308486E+03</pdfrwt>
<totfact> 0.10123569E+05</totfact>
</mgrwt>
</event>
<event>
 6    0  0.1539497E-004  0.4517446E+03  0.7546771E-02  0.1027203E+00
         21   -1    0    0  502  501  0.00000000000E+00  0.00000000000E+00  0.21347604545E+03  0.21347604545E+03  0.00000000000E+00 0.  1.
         21   -1    0    0  501  502 -0.00000000000E+00 -0.00000000000E+00 -0.23898843024E+03  0.23898843024E+03  0.00000000000E+00 0.  1.
      99925    2    1    2    0    0 -0.25881569414E+02 -0.29713586239E+02  0.86889089881E+02  0.27973824013E+03  0.26296580806E+03 0.  0.
         25    1    3    3    0    0 -0.32535224743E+01  0.24777519150E+02  0.39487022347E+02  0.13353368076E+03  0.12509000000E+03 0.  0.
         25    1    1    2    0    0  0.25881569414E+02  0.29713586239E+02 -0.11240147467E+03  0.17272623556E+03  0.12509000000E+03 0.  0.
         25    1    3    3    0    0 -0.22628046939E+02 -0.54491105388E+02  0.47402067534E+02  0.14620455937E+03  0.12509000000E+03 0.  0.
<mgrwt>
<rscale>  2 0.45174464E+03</rscale>
<asrwt>0</asrwt>
<pdfrwt beam="1">  1       21 0.31393536E-01 0.45174464E+03</pdfrwt>
<pdfrwt beam="2">  1       21 0.35145357E-01 0.45174464E+03</pdfrwt>
<totfact> 0.70546621E+04</totfact>
</mgrwt>
</event>
<event>
 6    0  0.1539497E-004  0.4067820E+03  0.7546771E-02  0.1041456E+00
         21   -1    0    0  502  501  0.00000000000E+00  0.00000000000E+00  0.63097072300E+03  0.63097072300E+03  0.00000000000E+00 0.  1.
         21   -1    0    0  501  502 -0.00000000000E+00 -0.00000000000E+00 -0.65562297804E+02  0.65562297804E+02  0.00000000000E+00 0.  1.
      99925    2    1    2    0    0  0.53417509990E+02 -0.70116770818E+01  0.34029028787E+03  0.43342034942E+03  0.26296981820E+03 0.  0.
         25    1    3    3    0    0  0.42000737874E+02 -0.54188888273E+01  0.11337566708E+03  0.17405452112E+03  0.12509000000E+03 0.  0.
         25    1    1    2    0    0 -0.53417509990E+02  0.70116770818E+01  0.22511813733E+03  0.26311267139E+03  0.12509000000E+03 0.  0.
         25    1    3    3    0    0  0.11416772116E+02 -0.15927882545E+01  0.22691462078E+03  0.25936582829E+03  0.12509000000E+03 0.  0.
<mgrwt>
<rscale>  2 0.40678196E+03</rscale>
<asrwt>0</asrwt>
<pdfrwt beam="1">  1       21 0.92789809E-01 0.40678196E+03</pdfrwt>
<pdfrwt beam="2">  1       21 0.96415148E-02 0.40678196E+03</pdfrwt>
<totfact> 0.79103727E+04</totfact>
</mgrwt>
</event>
<event>
 6    0  0.1539497E-004  0.4365112E+03  0.7546771E-02  0.1031823E+00
         21   -1    0    0  502  501  0.00000000000E+00  0.00000000000E+00  0.44470638141E+02  0.44470638141E+02  0.00000000000E+00 0. -1.
         21   -1    0    0  501  502 -0.00000000000E+00 -0.00000000000E+00 -0.10711678495E+04  0.10711678495E+04  0.00000000000E+00 0. -1.
      99925    2    1    2    0    0  0.16659117498E+02  0.42712266365E+02 -0.86948835325E+03  0.90957054481E+03  0.26307169299E+03 0.  0.
         25    1    3    3    0    0 -0.24564481377E+02 -0.32876594771E+01 -0.41225318455E+03  0.43152568721E+03  0.12509000000E+03 0.  0.
         25    1    3    3    0    0  0.41223598875E+02  0.45999925842E+02 -0.45723516871E+03  0.47804485761E+03  0.12509000000E+03 0.  0.
         25    1    1    2    0    0 -0.16659117498E+02 -0.42712266365E+02 -0.15720885810E+03  0.20606794282E+03  0.12509000000E+03 0.  0.
<mgrwt>
<rscale>  2 0.43651125E+03</rscale>
<asrwt>0</asrwt>
<pdfrwt beam="1">  1       21 0.65397996E-02 0.43651125E+03</pdfrwt>
<pdfrwt beam="2">  1       21 0.15752469E+00 0.43651125E+03</pdfrwt>
<totfact> 0.40478129E+04</totfact>
</mgrwt>
</event>
<event>
 6    0  0.1539497E-004  0.4361301E+03  0.7546771E-02  0.1031941E+00
         21   -1    0    0  502  501  0.00000000000E+00  0.00000000000E+00  0.20691033645E+03  0.20691033645E+03  0.00000000000E+00 0. -1.
         21   -1    0    0  501  502 -0.00000000000E+00 -0.00000000000E+00 -0.22982111614E+03  0.22982111614E+03  0.00000000000E+00 0. -1.
      99925    2    1    2    0    0  0.71669729443E+02  0.15446475538E+02 -0.74210309502E+02  0.28293192858E+03  0.26299840770E+03 0.  0.
         25    1    1    2    0    0 -0.71669729443E+02 -0.15446475538E+02  0.51299529816E+02  0.15379952401E+03  0.12509000000E+03 0.  0.
         25    1    3    3    0    0  0.38357503004E+02 -0.27274256547E+02 -0.15634262848E+02  0.13456270427E+03  0.12509000000E+03 0.  0.
         25    1    3    3    0    0  0.33312226439E+02  0.42720732085E+02 -0.58576046654E+02  0.14836922431E+03  0.12509000000E+03 0.  0.
<mgrwt>
<rscale>  2 0.43613009E+03</rscale>
<asrwt>0</asrwt>
<pdfrwt beam="1">  1       21 0.30427991E-01 0.43613009E+03</pdfrwt>
<pdfrwt beam="2">  1       21 0.33797223E-01 0.43613009E+03</pdfrwt>
<totfact> 0.81502415E+04</totfact>
</mgrwt>
</event>
<event>
 6    0  0.1539497E-004  0.4395905E+03  0.7546771E-02  0.1030873E+00
         21   -1    0    0  502  501  0.00000000000E+00  0.00000000000E+00  0.91792481316E+02  0.91792481316E+02  0.00000000000E+00 0. -1.
         21   -1    0    0  501  502 -0.00000000000E+00 -0.00000000000E+00 -0.52629522735E+03  0.52629522735E+03  0.00000000000E+00 0. -1.
      99925    2    1    2    0    0 -0.33392401152E+02  0.68573044639E+02 -0.36397303827E+03  0.45548616291E+03  0.26300942399E+03 0.  0.
         25    1    1    2    0    0  0.33392401152E+02 -0.68573044639E+02 -0.70529707761E+02  0.16260154576E+03  0.12509000000E+03 0.  0.
         25    1    3    3    0    0 -0.34305154706E+02  0.71182089958E+02 -0.21410425821E+03  0.26025348231E+03  0.12509000000E+03 0.  0.
         25    1    3    3    0    0  0.91275355383E+00 -0.26090453193E+01 -0.14986878006E+03  0.19523268060E+03  0.12509000000E+03 0.  0.
<mgrwt>
<rscale>  2 0.43959047E+03</rscale>
<asrwt>0</asrwt>
<pdfrwt beam="1">  1       21 0.13498894E-01 0.43959047E+03</pdfrwt>
<pdfrwt beam="2">  1       21 0.77396356E-01 0.43959047E+03</pdfrwt>
<totfact> 0.65151361E+04</totfact>
</mgrwt>
</event>
<event>
 6    0  0.1539497E-004  0.4543359E+03  0.7546771E-02  0.1026437E+00
         21   -1    0    0  502  501  0.00000000000E+00  0.00000000000E+00  0.12277417401E+04  0.12277417401E+04  0.00000000000E+00 0. -1.
         21   -1    0    0  501  502 -0.00000000000E+00 -0.00000000000E+00 -0.42032680229E+02  0.42032680229E+02  0.00000000000E+00 0. -1.
      99925    2    1    2    0    0 -0.11116162064E+03  0.11865089014E+02  0.71093951264E+03  0.76623562607E+03  0.26302919570E+03 0.  0.
         25    1    3    3    0    0 -0.49012668760E+02  0.20005023364E+02  0.24985023055E+03  0.28438545755E+03  0.12509000000E+03 0.  0.
         25    1    3    3    0    0 -0.62148951876E+02 -0.81399343503E+01  0.46108928209E+03  0.48185016852E+03  0.12509000000E+03 0.  0.
         25    1    1    2    0    0  0.11116162064E+03 -0.11865089014E+02  0.47476954720E+03  0.50353879423E+03  0.12509000000E+03 0.  0.
<mgrwt>
<rscale>  2 0.45433589E+03</rscale>
<asrwt>0</asrwt>
<pdfrwt beam="1">  1       21 0.18055023E+00 0.45433589E+03</pdfrwt>
<pdfrwt beam="2">  1       21 0.61812773E-02 0.45433589E+03</pdfrwt>
<totfact> 0.30160912E+04</totfact>
</mgrwt>
</event>
<event>
 6    0  0.1539497E-004  0.4152594E+03  0.7546771E-02  0.1038620E+00
         21   -1    0    0  502  501  0.00000000000E+00  0.00000000000E+00  0.11461378663E+04  0.11461378663E+04  0.00000000000E+00 0. -1.
         21   -1    0    0  501  502 -0.00000000000E+00 -0.00000000000E+00 -0.37613358669E+02  0.37613358669E+02  0.00000000000E+00 0. -1.
      99925    2    1    2    0    0  0.13062418300E+02  0.27528906110E+02  0.54791962092E+03  0.60855229021E+03  0.26304279402E+03 0.  0.
         25    1    1    2    0    0 -0.13062418300E+02 -0.27528906110E+02  0.56060488670E+03  0.57519893475E+03  0.12509000000E+03 0.  0.
         25    1    3    3    0    0 -0.38542904276E+01  0.21950492505E+02  0.36294091157E+03  0.38453906573E+03  0.12509000000E+03 0.  0.
         25    1    3    3    0    0  0.16916708728E+02  0.55784136047E+01  0.18497870935E+03  0.22401322449E+03  0.12509000000E+03 0.  0.
<mgrwt>
<rscale>  2 0.41525941E+03</rscale>
<asrwt>0</asrwt>
<pdfrwt beam="1">  1       21 0.16854966E+00 0.41525941E+03</pdfrwt>
<pdfrwt beam="2">  1       21 0.55313770E-02 0.41525941E+03</pdfrwt>
<totfact> 0.45100838E+04</totfact>
</mgrwt>
</event>
<event>
 6    0  0.1539497E-004  0.4536937E+03  0.7546771E-02  0.1026626E+00
         21   -1    0    0  502  501  0.00000000000E+00  0.00000000000E+00  0.26645852850E+03  0.26645852850E+03  0.00000000000E+00 0.  1.
         21   -1    0    0  501  502 -0.00000000000E+00 -0.00000000000E+00 -0.19312384528E+03  0.19312384528E+03  0.00000000000E+00 0.  1.
      99925    2    1    2    0    0 -0.24987200126E+02  0.36315301809E+02 -0.58062114550E+02  0.27288532539E+03  0.26296773633E+03 0.  0.
         25    1    3    3    0    0  0.24647067473E+02  0.13323252013E+01 -0.24334420136E+02  0.12980340954E+03  0.12509000000E+03 0.  0.
         25    1    1    2    0    0  0.24987200126E+02 -0.36315301809E+02  0.13139679777E+03  0.18669704840E+03  0.12509000000E+03 0.  0.
         25    1    3    3    0    0 -0.49634267600E+02  0.34982976607E+02 -0.33727694415E+02  0.14308191585E+03  0.12509000000E+03 0.  0.
<mgrwt>
<rscale>  2 0.45369371E+03</rscale>
<asrwt>0</asrwt>
<pdfrwt beam="1">  1       21 0.39185078E-01 0.45369371E+03</pdfrwt>
<pdfrwt beam="2">  1       21 0.28400565E-01 0.45369371E+03</pdfrwt>
<totfact> 0.68926181E+04</totfact>
</mgrwt>
</event>
<event>
 6    0  0.1539497E-004  0.4496090E+03  0.7546771E-02  0.1027839E+00
         21   -1    0    0  502  501  0.00000000000E+00  0.00000000000E+00  0.11036019522E+04  0.11036019522E+04  0.00000000000E+00 0. -1.
         21   -1    0    0  501  502 -0.00000000000E+00 -0.00000000000E+00 -0.45792844448E+02  0.45792844448E+02  0.00000000000E+00 0. -1.
      99925    2    1    2    0    0  0.86845971244E+01 -0.10243635555E+03  0.75380832676E+03  0.80496394421E+03  0.26300442738E+03 0.  0.
         25    1    1    2    0    0 -0.86845971244E+01  0.10243635555E+03  0.30400078099E+03  0.34443085244E+03  0.12509000000E+03 0.  0.
         25    1    3    3    0    0  0.35532222952E+02 -0.79161570460E+02  0.41749023948E+03  0.44438125665E+03  0.12509000000E+03 0.  0.
         25    1    3    3    0    0 -0.26847625828E+02 -0.23274785094E+02  0.33631808728E+03  0.36058268756E+03  0.12509000000E+03 0.  0.
<mgrwt>
<rscale>  2 0.44960904E+03</rscale>
<asrwt>0</asrwt>
<pdfrwt beam="1">  1       21 0.16229439E+00 0.44960904E+03</pdfrwt>
<pdfrwt beam="2">  1       21 0.67342425E-02 0.44960904E+03</pdfrwt>
<totfact> 0.35260957E+04</totfact>
</mgrwt>
</event>
<event>
 6    0  0.1539497E-004  0.4661109E+03  0.7546771E-02  0.1023024E+00
         21   -1    0    0  502  501  0.00000000000E+00  0.00000000000E+00  0.37234858098E+03  0.37234858098E+03  0.00000000000E+00 0. -1.
         21   -1    0    0  501  502 -0.00000000000E+00 -0.00000000000E+00 -0.14587098528E+03  0.14587098528E+03  0.00000000000E+00 0. -1.
      99925    2    1    2    0    0 -0.96078992025E+01  0.26247182779E+02  0.27461073662E+03  0.38130523652E+03  0.26306159051E+03 0.  0.
         25    1    1    2    0    0  0.96078992025E+01 -0.26247182779E+02 -0.48133140921E+02  0.13691432973E+03  0.12509000000E+03 0.  0.
         25    1    3    3    0    0 -0.79413478903E+01  0.16814009735E+02  0.19598987446E+03  0.23324946928E+03  0.12509000000E+03 0.  0.
         25    1    3    3    0    0 -0.16665513122E+01  0.94331730435E+01  0.78620862163E+02  0.14805576724E+03  0.12509000000E+03 0.  0.
<mgrwt>
<rscale>  2 0.46611095E+03</rscale>
<asrwt>0</asrwt>
<pdfrwt beam="1">  1       21 0.54757144E-01 0.46611095E+03</pdfrwt>
<pdfrwt beam="2">  1       21 0.21451615E-01 0.46611095E+03</pdfrwt>
<totfact> 0.58662972E+04</totfact>
</mgrwt>
</event>
<event>
 6    0  0.1539497E-004  0.4092027E+03  0.7546771E-02  0.1040639E+00
         21   -1    0    0  502  501  0.00000000000E+00  0.00000000000E+00  0.12954587600E+04  0.12954587600E+04  0.00000000000E+00 0.  1.
         21   -1    0    0  501  502 -0.00000000000E+00 -0.00000000000E+00 -0.32314201478E+02  0.32314201478E+02  0.00000000000E+00 0.  1.
      99925    2    1    2    0    0  0.41309202419E+02 -0.24156875968E+02  0.71012492398E+03  0.75876660901E+03  0.26298166177E+03 0.  0.
         25    1    3    3    0    0 -0.11566826216E+02 -0.33457338313E+02  0.31147322389E+03  0.33751483265E+03  0.12509000000E+03 0.  0.
         25    1    3    3    0    0  0.52876028635E+02  0.93004623452E+01  0.39865170009E+03  0.42125177636E+03  0.12509000000E+03 0.  0.
         25    1    1    2    0    0 -0.41309202419E+02  0.24156875968E+02  0.55301963452E+03  0.56900635245E+03  0.12509000000E+03 0.  0.
<mgrwt>
<rscale>  2 0.40920271E+03</rscale>
<asrwt>0</asrwt>
<pdfrwt beam="1">  1       21 0.19050861E+00 0.40920271E+03</pdfrwt>
<pdfrwt beam="2">  1       21 0.47520893E-02 0.40920271E+03</pdfrwt>
<totfact> 0.41129577E+04</totfact>
</mgrwt>
</event>
<event>
 6    0  0.1539497E-004  0.4475351E+03  0.7546771E-02  0.1028460E+00
         21   -1    0    0  502  501  0.00000000000E+00  0.00000000000E+00  0.72722661550E+03  0.72722661550E+03  0.00000000000E+00 0. -1.
         21   -1    0    0  501  502 -0.00000000000E+00 -0.00000000000E+00 -0.68853238731E+02  0.68853238731E+02  0.00000000000E+00 0. -1.
      99925    2    1    2    0    0  0.39283803534E+02  0.61316181862E+02  0.55478238773E+03  0.61808689794E+03  0.26257384541E+03 0.  0.
         25    1    1    2    0    0 -0.39283803534E+02 -0.61316181862E+02  0.10359098904E+03  0.17799295629E+03  0.12509000000E+03 0.  0.
         25    1    3    3    0    0  0.12886866195E+02  0.48174347730E+02  0.20339293641E+03  0.24393243692E+03  0.12509000000E+03 0.  0.
         25    1    3    3    0    0  0.26396937339E+02  0.13141834133E+02  0.35138945132E+03  0.37415446103E+03  0.12509000000E+03 0.  0.
<mgrwt>
<rscale>  2 0.44753506E+03</rscale>
<asrwt>0</asrwt>
<pdfrwt beam="1">  1       21 0.10694509E+00 0.44753506E+03</pdfrwt>
<pdfrwt beam="2">  1       21 0.10125477E-01 0.44753506E+03</pdfrwt>
<totfact> 0.50870455E+04</totfact>
</mgrwt>
</event>
<event>
 6    0  0.1539497E-004  0.4220274E+03  0.7546771E-02  0.1036408E+00
         21   -1    0    0  502  501  0.00000000000E+00  0.00000000000E+00  0.87464786250E+02  0.87464786250E+02  0.00000000000E+00 0. -1.
         21   -1    0    0  501  502 -0.00000000000E+00 -0.00000000000E+00 -0.50908229009E+03  0.50908229009E+03  0.00000000000E+00 0. -1.
      99925    2    1    2    0    0  0.47630349371E+02 -0.54938962364E+02 -0.31547200997E+03  0.41709983134E+03  0.26298809948E+03 0.  0.
         25    1    3    3    0    0  0.27105513808E+02  0.22155074367E+00 -0.10633503073E+03  0.16640133661E+03  0.12509000000E+03 0.  0.
         25    1    3    3    0    0  0.20524835563E+02 -0.55160513108E+02 -0.20913697923E+03  0.25069849474E+03  0.12509000000E+03 0.  0.
         25    1    1    2    0    0 -0.47630349371E+02  0.54938962364E+02 -0.10614549388E+03  0.17944724500E+03  0.12509000000E+03 0.  0.
<mgrwt>
<rscale>  2 0.42202736E+03</rscale>
<asrwt>0</asrwt>
<pdfrwt beam="1">  1       21 0.12862469E-01 0.42202736E+03</pdfrwt>
<pdfrwt beam="2">  1       21 0.74865041E-01 0.42202736E+03</pdfrwt>
<totfact> 0.77096838E+04</totfact>
</mgrwt>
</event>
<event>
 6    0  0.1539497E-004  0.4193436E+03  0.7546771E-02  0.1037280E+00
         21   -1    0    0  502  501  0.00000000000E+00  0.00000000000E+00  0.44076995676E+03  0.44076995676E+03  0.00000000000E+00 0.  1.
         21   -1    0    0  501  502 -0.00000000000E+00 -0.00000000000E+00 -0.99739709340E+02  0.99739709340E+02  0.00000000000E+00 0.  1.
      99925    2    1    2    0    0  0.49006209869E+02 -0.97500037239E+01  0.14988320054E+03  0.30666918028E+03  0.26283900234E+03 0.  0.
         25    1    3    3    0    0  0.45148874896E+02 -0.32670220140E+02  0.10188172982E+03  0.17068438464E+03  0.12509000000E+03 0.  0.
         25    1    3    3    0    0  0.38573349735E+01  0.22920216416E+02  0.48001470721E+02  0.13598479564E+03  0.12509000000E+03 0.  0.
         25    1    1    2    0    0 -0.49006209869E+02  0.97500037239E+01  0.19114704687E+03  0.23384048582E+03  0.12509000000E+03 0.  0.
<mgrwt>
<rscale>  2 0.41934362E+03</rscale>
<asrwt>0</asrwt>
<pdfrwt beam="1">  1       21 0.64819111E-01 0.41934362E+03</pdfrwt>
<pdfrwt beam="2">  1       21 0.14667604E-01 0.41934362E+03</pdfrwt>
<totfact> 0.83742801E+04</totfact>
</mgrwt>
</event>
<event>
 6    0  0.1539497E-004  0.4174792E+03  0.7546771E-02  0.1037890E+00
         21   -1    0    0  502  501  0.00000000000E+00  0.00000000000E+00  0.17766725069E+03  0.17766725069E+03  0.00000000000E+00 0.  1.
         21   -1    0    0  501  502 -0.00000000000E+00 -0.00000000000E+00 -0.24524619406E+03  0.24524619406E+03  0.00000000000E+00 0.  1.
      99925    2    1    2    0    0 -0.63395479343E+02 -0.21647545849E+02 -0.72339437287E+02  0.28093537094E+03  0.26306669385E+03 0.  0.
         25    1    3    3    0    0 -0.17314343371E+02 -0.28956513033E+02 -0.10025531602E+01  0.12956380415E+03  0.12509000000E+03 0.  0.
         25    1    3    3    0    0 -0.46081135973E+02  0.73089671844E+01 -0.71336884127E+02  0.15137156678E+03  0.12509000000E+03 0.  0.
         25    1    1    2    0    0  0.63395479343E+02  0.21647545849E+02  0.47604939231E+01  0.14197807382E+03  0.12509000000E+03 0.  0.
<mgrwt>
<rscale>  2 0.41747918E+03</rscale>
<asrwt>0</asrwt>
<pdfrwt beam="1">  1       21 0.26127537E-01 0.41747918E+03</pdfrwt>
<pdfrwt beam="2">  1       21 0.36065617E-01 0.41747918E+03</pdfrwt>
<totfact> 0.96864782E+04</totfact>
</mgrwt>
</event>
<event>
 6    0  0.1539497E-004  0.4076928E+03  0.7546771E-02  0.1041148E+00
         21   -1    0    0  502  501  0.00000000000E+00  0.00000000000E+00  0.23998122165E+04  0.23998122165E+04  0.00000000000E+00 0.  1.
         21   -1    0    0  501  502 -0.00000000000E+00 -0.00000000000E+00 -0.17315253282E+02  0.17315253282E+02  0.00000000000E+00 0.  1.
      99925    2    1    2    0    0 -0.45384490021E+02  0.36788817436E+02  0.15176752521E+04  0.15413550854E+04  0.26272449374E+03 0.  0.
         25    1    1    2    0    0  0.45384490021E+02 -0.36788817436E+02  0.86482171118E+03  0.87577238439E+03  0.12509000000E+03 0.  0.
         25    1    3    3    0    0 -0.55505146558E+02  0.20825898906E+02  0.92747734185E+03  0.93775064229E+03  0.12509000000E+03 0.  0.
         25    1    3    3    0    0  0.10120656537E+02  0.15962918530E+02  0.59019791022E+03  0.60360444314E+03  0.12509000000E+03 0.  0.
<mgrwt>
<rscale>  2 0.40769281E+03</rscale>
<asrwt>0</asrwt>
<pdfrwt beam="1">  1       21 0.35291333E+00 0.40769281E+03</pdfrwt>
<pdfrwt beam="2">  1       21 0.25463624E-02 0.40769281E+03</pdfrwt>
<totfact> 0.11794011E+04</totfact>
</mgrwt>
</event>
<event>
 6    0  0.1539497E-004  0.4021809E+03  0.7546771E-02  0.1043027E+00
         21   -1    0    0  502  501  0.00000000000E+00  0.00000000000E+00  0.57552631531E+02  0.57552631531E+02  0.00000000000E+00 0. -1.
         21   -1    0    0  501  502 -0.00000000000E+00 -0.00000000000E+00 -0.70261559728E+03  0.70261559728E+03  0.00000000000E+00 0. -1.
      99925    2    1    2    0    0 -0.13466864662E+02  0.21889771008E+02 -0.51138975370E+03  0.57529920967E+03  0.26227691843E+03 0.  0.
         25    1    3    3    0    0 -0.16797788063E+02  0.16582636731E+02 -0.33979696047E+03  0.36285896981E+03  0.12509000000E+03 0.  0.
         25    1    3    3    0    0  0.33309234015E+01  0.53071342778E+01 -0.17159279323E+03  0.21244023986E+03  0.12509000000E+03 0.  0.
         25    1    1    2    0    0  0.13466864662E+02 -0.21889771008E+02 -0.13367321206E+03  0.18486901915E+03  0.12509000000E+03 0.  0.
<mgrwt>
<rscale>  2 0.40218094E+03</rscale>
<asrwt>0</asrwt>
<pdfrwt beam="1">  1       21 0.84636224E-02 0.40218094E+03</pdfrwt>
<pdfrwt beam="2">  1       21 0.10332582E+00 0.40218094E+03</pdfrwt>
<totfact> 0.77086755E+04</totfact>
</mgrwt>
</event>
<event>
 6    0  0.1539497E-004  0.4296145E+03  0.7546771E-02  0.1033982E+00
         21   -1    0    0  502  501  0.00000000000E+00  0.00000000000E+00  0.21849716530E+04  0.21849716530E+04  0.00000000000E+00 0.  1.
         21   -1    0    0  501  502 -0.00000000000E+00 -0.00000000000E+00 -0.21117969507E+02  0.21117969507E+02  0.00000000000E+00 0.  1.
      99925    2    1    2    0    0  0.62027000255E+02 -0.61268611454E+02  0.13772795620E+04  0.14048733295E+04  0.26299978797E+03 0.  0.
         25    1    1    2    0    0 -0.62027000255E+02  0.61268611454E+02  0.78657412152E+03  0.80121629306E+03  0.12509000000E+03 0.  0.
         25    1    3    3    0    0  0.12484367247E+02 -0.55464170081E+02  0.56244732712E+03  0.57898759699E+03  0.12509000000E+03 0.  0.
         25    1    3    3    0    0  0.49542633008E+02 -0.58044413723E+01  0.81483223485E+03  0.82588573246E+03  0.12509000000E+03 0.  0.
<mgrwt>
<rscale>  2 0.42961455E+03</rscale>
<asrwt>0</asrwt>
<pdfrwt beam="1">  1       21 0.32131920E+00 0.42961455E+03</pdfrwt>
<pdfrwt beam="2">  1       21 0.31055853E-02 0.42961455E+03</pdfrwt>
<totfact> 0.13010162E+04</totfact>
</mgrwt>
</event>
<event>
 6    0  0.1539497E-004  0.4520681E+03  0.7546771E-02  0.1027107E+00
         21   -1    0    0  502  501  0.00000000000E+00  0.00000000000E+00  0.35772490555E+03  0.35772490555E+03  0.00000000000E+00 0. -1.
         21   -1    0    0  501  502 -0.00000000000E+00 -0.00000000000E+00 -0.14282316159E+03  0.14282316159E+03  0.00000000000E+00 0. -1.
      99925    2    1    2    0    0 -0.11476776925E+02  0.90473533541E+02  0.67748244235E+02  0.28696239987E+03  0.26351549796E+03 0.  0.
         25    1    3    3    0    0 -0.87986935537E+01  0.87087944373E+01  0.78667128178E+01  0.12594702608E+03  0.12509000000E+03 0.  0.
         25    1    1    2    0    0  0.11476776925E+02 -0.90473533541E+02  0.14715349972E+03  0.21358566727E+03  0.12509000000E+03 0.  0.
         25    1    3    3    0    0 -0.26780833714E+01  0.81764739103E+02  0.59881531417E+02  0.16101537379E+03  0.12509000000E+03 0.  0.
<mgrwt>
<rscale>  2 0.45206815E+03</rscale>
<asrwt>0</asrwt>
<pdfrwt beam="1">  1       21 0.52606604E-01 0.45206815E+03</pdfrwt>
<pdfrwt beam="2">  1       21 0.21003406E-01 0.45206815E+03</pdfrwt>
<totfact> 0.66772651E+04</totfact>
</mgrwt>
</event>
<event>
 6    0  0.1539497E-004  0.3989495E+03  0.7546771E-02  0.1044144E+00
         21   -1    0    0  502  501  0.00000000000E+00  0.00000000000E+00  0.48197096012E+02  0.48197096012E+02  0.00000000000E+00 0. -1.
         21   -1    0    0  501  502 -0.00000000000E+00 -0.00000000000E+00 -0.82557219730E+03  0.82557219730E+03  0.00000000000E+00 0. -1.
      99925    2    1    2    0    0 -0.42003220359E+02 -0.44454414606E+01 -0.49809593929E+03  0.56485443304E+03  0.26301508192E+03 0.  0.
         25    1    3    3    0    0 -0.57522736514E+02 -0.50298710538E+01 -0.22087575531E+03  0.26032243891E+03  0.12509000000E+03 0.  0.
         25    1    1    2    0    0  0.42003220359E+02  0.44454414606E+01 -0.27927916200E+03  0.30891486027E+03  0.12509000000E+03 0.  0.
         25    1    3    3    0    0  0.15519516155E+02  0.58442959313E+00 -0.27722018398E+03  0.30453199413E+03  0.12509000000E+03 0.  0.
<mgrwt>
<rscale>  2 0.39894953E+03</rscale>
<asrwt>0</asrwt>
<pdfrwt beam="1">  1       21 0.70878093E-02 0.39894953E+03</pdfrwt>
<pdfrwt beam="2">  1       21 0.12140766E+00 0.39894953E+03</pdfrwt>
<totfact> 0.70665626E+04</totfact>
</mgrwt>
</event>
<event>
 6    0  0.1539497E-004  0.9466183E+03  0.7546771E-02  0.9369112E-01
         21   -1    0    0  502  501  0.00000000000E+00  0.00000000000E+00  0.35227106797E+03  0.35227106797E+03  0.00000000000E+00 0.  1.
         21   -1    0    0  501  502 -0.00000000000E+00 -0.00000000000E+00 -0.63593519249E+03  0.63593519249E+03  0.00000000000E+00 0.  1.
      99925    2    1    2    0    0  0.58713802691E+02  0.51732309093E+02  0.28802620777E+03  0.39778193290E+03  0.26295974472E+03 0.  0.
         25    1    1    2    0    0 -0.58713802691E+02 -0.51732309093E+02 -0.57169033230E+03  0.59042432756E+03  0.12509000000E+03 0.  0.
         25    1    3    3    0    0 -0.68336778746E+01  0.23955048425E+02  0.16420023458E+03  0.20791769678E+03  0.12509000000E+03 0.  0.
         25    1    3    3    0    0  0.65547480566E+02  0.27777260667E+02  0.12382597320E+03  0.18986423612E+03  0.12509000000E+03 0.  0.
<mgrwt>
<rscale>  2 0.94661834E+03</rscale>
<asrwt>0</asrwt>
<pdfrwt beam="1">  1       21 0.51804570E-01 0.94661834E+03</pdfrwt>
<pdfrwt beam="2">  1       21 0.93519880E-01 0.94661834E+03</pdfrwt>
<totfact> 0.26309877E+03</totfact>
</mgrwt>
</event>
<event>
 6    0  0.1539497E-004  0.5547114E+03  0.7546771E-02  0.1000409E+00
         21   -1    0    0  502  501  0.00000000000E+00  0.00000000000E+00  0.95808736248E+02  0.95808736248E+02  0.00000000000E+00 0. -1.
         21   -1    0    0  501  502 -0.00000000000E+00 -0.00000000000E+00 -0.80291401093E+03  0.80291401093E+03  0.00000000000E+00 0. -1.
      99925    2    1    2    0    0 -0.13967056908E+03 -0.58453612834E+02 -0.60630491794E+03  0.67796742394E+03  0.26288682296E+03 0.  0.
         25    1    3    3    0    0 -0.40195500606E+02 -0.18484434165E+02 -0.33814811275E+03  0.36324785867E+03  0.12509000000E+03 0.  0.
         25    1    3    3    0    0 -0.99475068472E+02 -0.39969178669E+02 -0.26815680519E+03  0.31471956527E+03  0.12509000000E+03 0.  0.
         25    1    1    2    0    0  0.13967056908E+03  0.58453612834E+02 -0.10080035675E+03  0.22075532324E+03  0.12509000000E+03 0.  0.
<mgrwt>
<rscale>  2 0.55471137E+03</rscale>
<asrwt>0</asrwt>
<pdfrwt beam="1">  1       21 0.14089520E-01 0.55471137E+03</pdfrwt>
<pdfrwt beam="2">  1       21 0.11807559E+00 0.55471137E+03</pdfrwt>
<totfact> 0.21210807E+04</totfact>
</mgrwt>
</event>
<event>
 6    0  0.1539497E-004  0.3955954E+03  0.7546771E-02  0.1045316E+00
         21   -1    0    0  502  501  0.00000000000E+00  0.00000000000E+00  0.23607491798E+03  0.23607491798E+03  0.00000000000E+00 0. -1.
         21   -1    0    0  501  502 -0.00000000000E+00 -0.00000000000E+00 -0.16572676179E+03  0.16572676179E+03  0.00000000000E+00 0. -1.
      99925    2    1    2    0    0 -0.32104187392E+02  0.67031899554E+01  0.32359499013E+02  0.26701941916E+03  0.26301448900E+03 0.  0.
         25    1    1    2    0    0  0.32104187392E+02 -0.67031899554E+01  0.37988657170E+02  0.13478226062E+03  0.12509000000E+03 0.  0.
         25    1    3    3    0    0 -0.73589331940E+01  0.23079243936E+02  0.50750587483E+02  0.13714931873E+03  0.12509000000E+03 0.  0.
         25    1    3    3    0    0 -0.24745254198E+02 -0.16376053980E+02 -0.18391088469E+02  0.12987010042E+03  0.12509000000E+03 0.  0.
<mgrwt>
<rscale>  2 0.39559541E+03</rscale>
<asrwt>0</asrwt>
<pdfrwt beam="1">  1       21 0.34716900E-01 0.39559541E+03</pdfrwt>
<pdfrwt beam="2">  1       21 0.24371583E-01 0.39559541E+03</pdfrwt>
<totfact> 0.12029689E+05</totfact>
</mgrwt>
</event>
<event>
 6    0  0.1539497E-004  0.4385068E+03  0.7546771E-02  0.1031206E+00
         21   -1    0    0  502  501  0.00000000000E+00  0.00000000000E+00  0.58222484344E+03  0.58222484344E+03  0.00000000000E+00 0. -1.
         21   -1    0    0  501  502 -0.00000000000E+00 -0.00000000000E+00 -0.82566136761E+02  0.82566136761E+02  0.00000000000E+00 0. -1.
      99925    2    1    2    0    0 -0.23417974085E+01 -0.18818392565E+02  0.17531003516E+03  0.31663988552E+03  0.26299732462E+03 0.  0.
         25    1    1    2    0    0  0.23417974085E+01  0.18818392565E+02  0.32434867153E+03  0.34815109469E+03  0.12509000000E+03 0.  0.
         25    1    3    3    0    0 -0.10026545092E+02 -0.23297512462E+02  0.13288243935E+03  0.18425134051E+03  0.12509000000E+03 0.  0.
         25    1    3    3    0    0  0.76847476831E+01  0.44791198962E+01  0.42427595812E+02  0.13238854500E+03  0.12509000000E+03 0.  0.
<mgrwt>
<rscale>  2 0.43850681E+03</rscale>
<asrwt>0</asrwt>
<pdfrwt beam="1">  1       21 0.85621298E-01 0.43850681E+03</pdfrwt>
<pdfrwt beam="2">  1       21 0.12142079E-01 0.43850681E+03</pdfrwt>
<totfact> 0.62603722E+04</totfact>
</mgrwt>
</event>
<event>
 6    0  0.1539497E-004  0.4380692E+03  0.7546771E-02  0.1031341E+00
         21   -1    0    0  502  501  0.00000000000E+00  0.00000000000E+00  0.60573130823E+02  0.60573130823E+02  0.00000000000E+00 0. -1.
         21   -1    0    0  501  502 -0.00000000000E+00 -0.00000000000E+00 -0.79203679070E+03  0.79203679070E+03  0.00000000000E+00 0. -1.
      99925    2    1    2    0    0  0.85813402919E+02  0.32478228759E+02 -0.52679131806E+03  0.59578887280E+03  0.26274800228E+03 0.  0.
         25    1    3    3    0    0  0.34852035783E+02  0.42260160461E+01 -0.33664053658E+03  0.36084190802E+03  0.12509000000E+03 0.  0.
         25    1    3    3    0    0  0.50961367136E+02  0.28252212713E+02 -0.19015078148E+03  0.23494696478E+03  0.12509000000E+03 0.  0.
         25    1    1    2    0    0 -0.85813402919E+02 -0.32478228759E+02 -0.20467234181E+03  0.25682104872E+03  0.12509000000E+03 0.  0.
<mgrwt>
<rscale>  2 0.43806916E+03</rscale>
<asrwt>0</asrwt>
<pdfrwt beam="1">  1       21 0.89078137E-02 0.43806916E+03</pdfrwt>
<pdfrwt beam="2">  1       21 0.11647599E+00 0.43806916E+03</pdfrwt>
<totfact> 0.51876725E+04</totfact>
</mgrwt>
</event>
<event>
 6    0  0.1539497E-004  0.4274453E+03  0.7546771E-02  0.1034670E+00
         21   -1    0    0  502  501  0.00000000000E+00  0.00000000000E+00  0.87756220519E+02  0.87756220519E+02  0.00000000000E+00 0. -1.
         21   -1    0    0  501  502 -0.00000000000E+00 -0.00000000000E+00 -0.52050295462E+03  0.52050295462E+03  0.00000000000E+00 0. -1.
      99925    2    1    2    0    0 -0.61937205010E+02 -0.57062227333E+02 -0.26544584229E+03  0.38302726876E+03  0.26297543282E+03 0.  0.
         25    1    1    2    0    0  0.61937205010E+02  0.57062227333E+02 -0.16730089181E+03  0.22523190638E+03  0.12509000000E+03 0.  0.
         25    1    3    3    0    0  0.92160936988E+00 -0.39281288314E+01 -0.13899014995E+03  0.18703488831E+03  0.12509000000E+03 0.  0.
         25    1    3    3    0    0 -0.62858814380E+02 -0.53134098502E+02 -0.12645569234E+03  0.19599238045E+03  0.12509000000E+03 0.  0.
<mgrwt>
<rscale>  2 0.42744530E+03</rscale>
<asrwt>0</asrwt>
<pdfrwt beam="1">  1       21 0.12905326E-01 0.42744530E+03</pdfrwt>
<pdfrwt beam="2">  1       21 0.76544555E-01 0.42744530E+03</pdfrwt>
<totfact> 0.72761290E+04</totfact>
</mgrwt>
</event>
<event>
 6    0  0.1539497E-004  0.4112340E+03  0.7546771E-02  0.1039958E+00
         21   -1    0    0  502  501  0.00000000000E+00  0.00000000000E+00  0.48382874067E+02  0.48382874067E+02  0.00000000000E+00 0.  1.
         21   -1    0    0  501  502 -0.00000000000E+00 -0.00000000000E+00 -0.87382896342E+03  0.87382896342E+03  0.00000000000E+00 0.  1.
      99925    2    1    2    0    0 -0.59947978023E+02  0.80641467173E+00 -0.49347773148E+03  0.56242730599E+03  0.26307754120E+03 0.  0.
         25    1    3    3    0    0 -0.47770264181E+02 -0.35139364055E+02 -0.27352447228E+03  0.30656144259E+03  0.12509000000E+03 0.  0.
         25    1    1    2    0    0  0.59947978023E+02 -0.80641467173E+00 -0.33196835788E+03  0.35978453150E+03  0.12509000000E+03 0.  0.
         25    1    3    3    0    0 -0.12177713842E+02  0.35945778727E+02 -0.21995325919E+03  0.25586586340E+03  0.12509000000E+03 0.  0.
<mgrwt>
<rscale>  2 0.41123403E+03</rscale>
<asrwt>0</asrwt>
<pdfrwt beam="1">  1       21 0.71151288E-02 0.41123403E+03</pdfrwt>
<pdfrwt beam="2">  1       21 0.12850425E+00 0.41123403E+03</pdfrwt>
<totfact> 0.60489534E+04</totfact>
</mgrwt>
</event>
<event>
 6    0  0.1539497E-004  0.3917125E+03  0.7546771E-02  0.1046688E+00
         21   -1    0    0  502  501  0.00000000000E+00  0.00000000000E+00  0.16839915157E+04  0.16839915157E+04  0.00000000000E+00 0. -1.
         21   -1    0    0  501  502 -0.00000000000E+00 -0.00000000000E+00 -0.22779012288E+02  0.22779012288E+02  0.00000000000E+00 0. -1.
      99925    2    1    2    0    0  0.11567945184E+02 -0.64356530520E+01  0.12037000920E+04  0.12322809605E+04  0.26352840278E+03 0.  0.
         25    1    1    2    0    0 -0.11567945184E+02  0.64356530520E+01  0.45751241136E+03  0.47448956746E+03  0.12509000000E+03 0.  0.
         25    1    3    3    0    0 -0.31864486482E+02  0.35633927907E+01  0.51910552334E+03  0.53492625261E+03  0.12509000000E+03 0.  0.
         25    1    3    3    0    0  0.43432431666E+02 -0.99990458427E+01  0.68459456870E+03  0.69735470790E+03  0.12509000000E+03 0.  0.
<mgrwt>
<rscale>  2 0.39171246E+03</rscale>
<asrwt>0</asrwt>
<pdfrwt beam="1">  1       21 0.24764573E+00 0.39171246E+03</pdfrwt>
<pdfrwt beam="2">  1       21 0.33498559E-02 0.39171246E+03</pdfrwt>
<totfact> 0.32326590E+04</totfact>
</mgrwt>
</event>
<event>
 6    0  0.1539497E-004  0.4357005E+03  0.7546771E-02  0.1032074E+00
         21   -1    0    0  502  501  0.00000000000E+00  0.00000000000E+00  0.42956004209E+02  0.42956004209E+02  0.00000000000E+00 0.  1.
         21   -1    0    0  501  502 -0.00000000000E+00 -0.00000000000E+00 -0.11048217948E+04  0.11048217948E+04  0.00000000000E+00 0.  1.
      99925    2    1    2    0    0  0.48550436598E+02  0.79368811746E+02 -0.64352403188E+03  0.70133195867E+03  0.26284364834E+03 0.  0.
         25    1    3    3    0    0  0.18175549790E+02 -0.10868793278E+01 -0.26931318424E+03  0.29750400203E+03  0.12509000000E+03 0.  0.
         25    1    1    2    0    0 -0.48550436598E+02 -0.79368811746E+02 -0.41834175866E+03  0.44644584029E+03  0.12509000000E+03 0.  0.
         25    1    3    3    0    0  0.30374886808E+02  0.80455691074E+02 -0.37421084764E+03  0.40382795665E+03  0.12509000000E+03 0.  0.
<mgrwt>
<rscale>  2 0.43570049E+03</rscale>
<asrwt>0</asrwt>
<pdfrwt beam="1">  1       21 0.63170604E-02 0.43570049E+03</pdfrwt>
<pdfrwt beam="2">  1       21 0.16247377E+00 0.43570049E+03</pdfrwt>
<totfact> 0.39467355E+04</totfact>
</mgrwt>
</event>
<event>
 6    0  0.1539497E-004  0.4147379E+03  0.7546771E-02  0.1038793E+00
         21   -1    0    0  502  501  0.00000000000E+00  0.00000000000E+00  0.12376322149E+03  0.12376322149E+03  0.00000000000E+00 0.  1.
         21   -1    0    0  501  502 -0.00000000000E+00 -0.00000000000E+00 -0.34745291264E+03  0.34745291264E+03  0.00000000000E+00 0.  1.
      99925    2    1    2    0    0  0.44152860947E+02 -0.41573006098E+02 -0.10967254902E+03  0.29142401315E+03  0.26310092638E+03 0.  0.
         25    1    3    3    0    0  0.57777814187E+02 -0.36975910953E+02 -0.43313699868E+02  0.14909419338E+03  0.12509000000E+03 0.  0.
         25    1    3    3    0    0 -0.13624953240E+02 -0.45970951448E+01 -0.66358849152E+02  0.14232981977E+03  0.12509000000E+03 0.  0.
         25    1    1    2    0    0 -0.44152860947E+02  0.41573006098E+02 -0.11401714213E+03  0.17979212098E+03  0.12509000000E+03 0.  0.
<mgrwt>
<rscale>  2 0.41473795E+03</rscale>
<asrwt>0</asrwt>
<pdfrwt beam="1">  1       21 0.18200474E-01 0.41473795E+03</pdfrwt>
<pdfrwt beam="2">  1       21 0.51096016E-01 0.41473795E+03</pdfrwt>
<totfact> 0.93970698E+04</totfact>
</mgrwt>
</event>
<event>
 6    0  0.1539497E-004  0.4258169E+03  0.7546771E-02  0.1035190E+00
         21   -1    0    0  502  501  0.00000000000E+00  0.00000000000E+00  0.41823409155E+03  0.41823409155E+03  0.00000000000E+00 0. -1.
         21   -1    0    0  501  502 -0.00000000000E+00 -0.00000000000E+00 -0.10838430769E+03  0.10838430769E+03  0.00000000000E+00 0. -1.
      99925    2    1    2    0    0  0.45230811059E+02  0.10131031429E+01  0.28601206547E+03  0.39147922074E+03  0.26345061403E+03 0.  0.
         25    1    1    2    0    0 -0.45230811059E+02 -0.10131031429E+01  0.23837718395E+02  0.13513917850E+03  0.12509000000E+03 0.  0.
         25    1    3    3    0    0  0.42755606104E+02  0.47637148313E+01  0.94027587999E+02  0.16229427050E+03  0.12509000000E+03 0.  0.
         25    1    3    3    0    0  0.24752049558E+01 -0.37506116884E+01  0.19198447747E+03  0.22918495024E+03  0.12509000000E+03 0.  0.
<mgrwt>
<rscale>  2 0.42581692E+03</rscale>
<asrwt>0</asrwt>
<pdfrwt beam="1">  1       21 0.61505013E-01 0.42581692E+03</pdfrwt>
<pdfrwt beam="2">  1       21 0.15938869E-01 0.42581692E+03</pdfrwt>
<totfact> 0.80482192E+04</totfact>
</mgrwt>
</event>
<event>
 6    0  0.1539497E-004  0.4425409E+03  0.7546771E-02  0.1029970E+00
         21   -1    0    0  502  501  0.00000000000E+00  0.00000000000E+00  0.53388526665E+03  0.53388526665E+03  0.00000000000E+00 0.  1.
         21   -1    0    0  501  502 -0.00000000000E+00 -0.00000000000E+00 -0.91706244640E+02  0.91706244640E+02  0.00000000000E+00 0.  1.
      99925    2    1    2    0    0  0.16620489790E+02  0.76213952573E+02  0.37239255488E+03  0.46248888611E+03  0.26293525361E+03 0.  0.
         25    1    3    3    0    0 -0.16930516923E+02  0.45398692696E+02  0.13499910507E+03  0.19031539657E+03  0.12509000000E+03 0.  0.
         25    1    1    2    0    0 -0.16620489790E+02 -0.76213952573E+02  0.69786467129E+02  0.16310262518E+03  0.12509000000E+03 0.  0.
         25    1    3    3    0    0  0.33551006713E+02  0.30815259877E+02  0.23739344982E+03  0.27217348954E+03  0.12509000000E+03 0.  0.
<mgrwt>
<rscale>  2 0.44254090E+03</rscale>
<asrwt>0</asrwt>
<pdfrwt beam="1">  1       21 0.78512538E-01 0.44254090E+03</pdfrwt>
<pdfrwt beam="2">  1       21 0.13486213E-01 0.44254090E+03</pdfrwt>
<totfact> 0.63112339E+04</totfact>
</mgrwt>
</event>
<event>
 6    0  0.1539497E-004  0.4424642E+03  0.7546771E-02  0.1029993E+00
         21   -1    0    0  502  501  0.00000000000E+00  0.00000000000E+00  0.39781302454E+02  0.39781302454E+02  0.00000000000E+00 0.  1.
         21   -1    0    0  501  502 -0.00000000000E+00 -0.00000000000E+00 -0.12303178509E+04  0.12303178509E+04  0.00000000000E+00 0.  1.
      99925    2    1    2    0    0  0.24321138809E+02  0.24188808435E+02 -0.10305918493E+04  0.10641709350E+04  0.26298973880E+03 0.  0.
         25    1    3    3    0    0  0.31657837796E+02  0.45514125515E+02 -0.58636632399E+03  0.60211853345E+03  0.12509000000E+03 0.  0.
         25    1    1    2    0    0 -0.24321138809E+02 -0.24188808435E+02 -0.15994469913E+03  0.20592821838E+03  0.12509000000E+03 0.  0.
         25    1    3    3    0    0 -0.73366989876E+01 -0.21325317081E+02 -0.44422552535E+03  0.46205240154E+03  0.12509000000E+03 0.  0.
<mgrwt>
<rscale>  2 0.44246422E+03</rscale>
<asrwt>0</asrwt>
<pdfrwt beam="1">  1       21 0.58501919E-02 0.44246422E+03</pdfrwt>
<pdfrwt beam="2">  1       21 0.18092908E+00 0.44246422E+03</pdfrwt>
<totfact> 0.33108590E+04</totfact>
</mgrwt>
</event>
<event>
 6    0  0.1539497E-004  0.4208458E+03  0.7546771E-02  0.1036791E+00
         21   -1    0    0  502  501  0.00000000000E+00  0.00000000000E+00  0.16390993665E+04  0.16390993665E+04  0.00000000000E+00 0.  1.
         21   -1    0    0  501  502 -0.00000000000E+00 -0.00000000000E+00 -0.27013493472E+02  0.27013493472E+02  0.00000000000E+00 0.  1.
      99925    2    1    2    0    0 -0.34095698365E+01 -0.68387600495E+02  0.91072941930E+03  0.95040560672E+03  0.26297196246E+03 0.  0.
         25    1    3    3    0    0 -0.40583354477E+00 -0.95730335314E+01  0.54904440191E+03  0.56319541107E+03  0.12509000000E+03 0.  0.
         25    1    1    2    0    0  0.34095698365E+01  0.68387600495E+02  0.70135645373E+03  0.71570725325E+03  0.12509000000E+03 0.  0.
         25    1    3    3    0    0 -0.30037362917E+01 -0.58814566964E+02  0.36168501738E+03  0.38721019565E+03  0.12509000000E+03 0.  0.
<mgrwt>
<rscale>  2 0.42084582E+03</rscale>
<asrwt>0</asrwt>
<pdfrwt beam="1">  1       21 0.24104396E+00 0.42084582E+03</pdfrwt>
<pdfrwt beam="2">  1       21 0.39725737E-02 0.42084582E+03</pdfrwt>
<totfact> 0.26285342E+04</totfact>
</mgrwt>
</event>
<event>
 6    0  0.2295913E-004  0.4077241E+03  0.7546771E-02  0.1041137E+00
         21   -1    0    0  502  501  0.00000000000E+00  0.00000000000E+00  0.20805453689E+03  0.20805453689E+03  0.00000000000E+00 0. -1.
         21   -1    0    0  501  502 -0.00000000000E+00 -0.00000000000E+00 -0.19975401339E+03  0.19975401339E+03  0.00000000000E+00 0. -1.
      99925    2    1    2    0    0  0.35815290385E+02  0.43337938426E+02  0.17279617376E+02  0.27037113121E+03  0.26389591032E+03 0.  0.
         25    1    3    3    0    0  0.52302484767E+02 -0.10848926702E+01  0.75465903317E+00  0.13559057679E+03  0.12509000000E+03 0.  0.
         25    1    3    3    0    0 -0.16487194382E+02  0.44422831096E+02  0.16524958343E+02  0.13478055442E+03  0.12509000000E+03 0.  0.
         25    1    1    2    0    0 -0.35815290385E+02 -0.43337938426E+02 -0.89790938712E+01  0.13743741906E+03  0.12509000000E+03 0.  0.
<mgrwt>
<rscale>  2 0.40772407E+03</rscale>
<asrwt>0</asrwt>
<pdfrwt beam="1">  1       21 0.30596256E-01 0.40772407E+03</pdfrwt>
<pdfrwt beam="2">  1       21 0.29375590E-01 0.40772407E+03</pdfrwt>
<totfact> 0.10724781E+05</totfact>
</mgrwt>
</event>
<event>
 6    0  0.1539497E-004  0.4034715E+03  0.7546771E-02  0.1042584E+00
         21   -1    0    0  502  501  0.00000000000E+00  0.00000000000E+00  0.26624174199E+04  0.26624174199E+04  0.00000000000E+00 0. -1.
         21   -1    0    0  501  502 -0.00000000000E+00 -0.00000000000E+00 -0.15285847461E+02  0.15285847461E+02  0.00000000000E+00 0. -1.
      99925    2    1    2    0    0 -0.43625270538E+02  0.17565027551E+02  0.19022931739E+04  0.19209711863E+04  0.26305756941E+03 0.  0.
         25    1    3    3    0    0  0.93683776061E+01  0.30658979878E+02  0.10305061453E+04  0.10385654352E+04  0.12509000000E+03 0.  0.
         25    1    1    2    0    0  0.43625270538E+02 -0.17565027551E+02  0.74483839855E+03  0.75673208104E+03  0.12509000000E+03 0.  0.
         25    1    3    3    0    0 -0.52993648144E+02 -0.13093952327E+02  0.87178702851E+03  0.88240575106E+03  0.12509000000E+03 0.  0.
<mgrwt>
<rscale>  2 0.40347147E+03</rscale>
<asrwt>0</asrwt>
<pdfrwt beam="1">  1       21 0.39153165E+00 0.40347147E+03</pdfrwt>
<pdfrwt beam="2">  1       21 0.22479206E-02 0.40347147E+03</pdfrwt>
<totfact> 0.83627816E+03</totfact>
</mgrwt>
</event>
<event>
 6    0  0.1539497E-004  0.5185452E+03  0.7546771E-02  0.1009049E+00
         21   -1    0    0  502  501  0.00000000000E+00  0.00000000000E+00  0.55482720712E+03  0.55482720712E+03  0.00000000000E+00 0.  1.
         21   -1    0    0  501  502 -0.00000000000E+00 -0.00000000000E+00 -0.12115896245E+03  0.12115896245E+03  0.00000000000E+00 0.  1.
      99925    2    1    2    0    0  0.10751339406E+03  0.12477363852E+03  0.28155280630E+03  0.41924854970E+03  0.26338142098E+03 0.  0.
         25    1    1    2    0    0 -0.10751339406E+03 -0.12477363852E+03  0.15211543836E+03  0.25673761988E+03  0.12509000000E+03 0.  0.
         25    1    3    3    0    0  0.86015813776E+02  0.79791172703E+02  0.19245196439E+03  0.25778017410E+03  0.12509000000E+03 0.  0.
         25    1    3    3    0    0  0.21497580283E+02  0.44982465813E+02  0.89100841907E+02  0.16146837559E+03  0.12509000000E+03 0.  0.
<mgrwt>
<rscale>  2 0.51854523E+03</rscale>
<asrwt>0</asrwt>
<pdfrwt beam="1">  1       21 0.81592235E-01 0.51854523E+03</pdfrwt>
<pdfrwt beam="2">  1       21 0.17817495E-01 0.51854523E+03</pdfrwt>
<totfact> 0.33819598E+04</totfact>
</mgrwt>
</event>
<event>
 6    0  0.1539497E-004  0.4130696E+03  0.7546771E-02  0.1039346E+00
         21   -1    0    0  502  501  0.00000000000E+00  0.00000000000E+00  0.20135518221E+03  0.20135518221E+03  0.00000000000E+00 0.  1.
         21   -1    0    0  501  502 -0.00000000000E+00 -0.00000000000E+00 -0.21184766493E+03  0.21184766493E+03  0.00000000000E+00 0.  1.
      99925    2    1    2    0    0 -0.39318401215E+02 -0.42550794874E+02  0.26152689784E+02  0.27056034440E+03  0.26298750914E+03 0.  0.
         25    1    1    2    0    0  0.39318401215E+02  0.42550794874E+02 -0.36645172502E+02  0.14264250273E+03  0.12509000000E+03 0.  0.
         25    1    3    3    0    0 -0.55662081280E+02 -0.28038132774E+01  0.16659558182E+02  0.13795353435E+03  0.12509000000E+03 0.  0.
         25    1    3    3    0    0  0.16343680065E+02 -0.39746981597E+02  0.94931316011E+01  0.13260681005E+03  0.12509000000E+03 0.  0.
<mgrwt>
<rscale>  2 0.41306961E+03</rscale>
<asrwt>0</asrwt>
<pdfrwt beam="1">  1       21 0.29611056E-01 0.41306961E+03</pdfrwt>
<pdfrwt beam="2">  1       21 0.31154068E-01 0.41306961E+03</pdfrwt>
<totfact> 0.10173075E+05</totfact>
</mgrwt>
</event>
<event>
 6    0  0.1539497E-004  0.4194683E+03  0.7546771E-02  0.1037240E+00
         21   -1    0    0  502  501  0.00000000000E+00  0.00000000000E+00  0.91184089946E+03  0.91184089946E+03  0.00000000000E+00 0.  1.
         21   -1    0    0  501  502 -0.00000000000E+00 -0.00000000000E+00 -0.48241317178E+02  0.48241317178E+02  0.00000000000E+00 0.  1.
      99925    2    1    2    0    0 -0.55117933512E+02 -0.36945355037E+02  0.64387548098E+03  0.69868379536E+03  0.26302179575E+03 0.  0.
         25    1    1    2    0    0  0.55117933512E+02  0.36945355037E+02  0.21972410131E+03  0.26139842128E+03  0.12509000000E+03 0.  0.
         25    1    3    3    0    0 -0.29449616214E+02  0.22397251955E+02  0.31152625493E+03  0.33773515127E+03  0.12509000000E+03 0.  0.
         25    1    3    3    0    0 -0.25668317298E+02 -0.59342606992E+02  0.33234922605E+03  0.36094864409E+03  0.12509000000E+03 0.  0.
<mgrwt>
<rscale>  2 0.41946826E+03</rscale>
<asrwt>0</asrwt>
<pdfrwt beam="1">  1       21 0.13409424E+00 0.41946826E+03</pdfrwt>
<pdfrwt beam="2">  1       21 0.70943119E-02 0.41946826E+03</pdfrwt>
<totfact> 0.54330547E+04</totfact>
</mgrwt>
</event>
<event>
 6    0  0.1539497E-004  0.4185767E+03  0.7546771E-02  0.1037531E+00
         21   -1    0    0  502  501  0.00000000000E+00  0.00000000000E+00  0.25956174188E+03  0.25956174188E+03  0.00000000000E+00 0. -1.
         21   -1    0    0  501  502 -0.00000000000E+00 -0.00000000000E+00 -0.16875218034E+03  0.16875218034E+03  0.00000000000E+00 0. -1.
      99925    2    1    2    0    0 -0.70351050898E+02  0.13458490625E+02  0.78075126290E+02  0.28360706242E+03  0.26307192776E+03 0.  0.
         25    1    3    3    0    0 -0.47824743284E+02 -0.27130661943E+02  0.20026637741E+02  0.13810088054E+03  0.12509000000E+03 0.  0.
         25    1    1    2    0    0  0.70351050898E+02 -0.13458490625E+02  0.12734435251E+02  0.14470685980E+03  0.12509000000E+03 0.  0.
         25    1    3    3    0    0 -0.22526307614E+02  0.40589152568E+02  0.58048488549E+02  0.14550618187E+03  0.12509000000E+03 0.  0.
<mgrwt>
<rscale>  2 0.41857668E+03</rscale>
<asrwt>0</asrwt>
<pdfrwt beam="1">  1       21 0.38170845E-01 0.41857668E+03</pdfrwt>
<pdfrwt beam="2">  1       21 0.24816497E-01 0.41857668E+03</pdfrwt>
<totfact> 0.95376625E+04</totfact>
</mgrwt>
</event>
<event>
 6    0  0.1539497E-004  0.4182265E+03  0.7546771E-02  0.1037645E+00
         21   -1    0    0  502  501  0.00000000000E+00  0.00000000000E+00  0.10012075909E+04  0.10012075909E+04  0.00000000000E+00 0. -1.
         21   -1    0    0  501  502 -0.00000000000E+00 -0.00000000000E+00 -0.43675618336E+02  0.43675618336E+02  0.00000000000E+00 0. -1.
      99925    2    1    2    0    0  0.45053515388E+02  0.12080241887E+01  0.48045073806E+03  0.54962035883E+03  0.26309380185E+03 0.  0.
         25    1    3    3    0    0 -0.61667444617E+01 -0.28058379725E+02  0.21875693784E+03  0.25362848295E+03  0.12509000000E+03 0.  0.
         25    1    1    2    0    0 -0.45053515388E+02 -0.12080241887E+01  0.47708123451E+03  0.49526285041E+03  0.12509000000E+03 0.  0.
         25    1    3    3    0    0  0.51220259850E+02  0.29266403913E+02  0.26169380021E+03  0.29599187588E+03  0.12509000000E+03 0.  0.
<mgrwt>
<rscale>  2 0.41822654E+03</rscale>
<asrwt>0</asrwt>
<pdfrwt beam="1">  1       21 0.14723640E+00 0.41822654E+03</pdfrwt>
<pdfrwt beam="2">  1       21 0.64228857E-02 0.41822654E+03</pdfrwt>
<totfact> 0.50469561E+04</totfact>
</mgrwt>
</event>
<event>
 6    0  0.1539497E-004  0.4356231E+03  0.7546771E-02  0.1032098E+00
         21   -1    0    0  502  501  0.00000000000E+00  0.00000000000E+00  0.11100538273E+03  0.11100538273E+03  0.00000000000E+00 0.  1.
         21   -1    0    0  501  502 -0.00000000000E+00 -0.00000000000E+00 -0.42738346069E+03  0.42738346069E+03  0.00000000000E+00 0.  1.
      99925    2    1    2    0    0 -0.92184975250E+02  0.17405737559E+02 -0.20504600824E+03  0.34644258217E+03  0.26301628824E+03 0.  0.
         25    1    3    3    0    0 -0.38544610169E+02  0.31525084072E+02 -0.14232396381E+03  0.19591614705E+03  0.12509000000E+03 0.  0.
         25    1    1    2    0    0  0.92184975250E+02 -0.17405737559E+02 -0.11133206971E+03  0.19194626125E+03  0.12509000000E+03 0.  0.
         25    1    3    3    0    0 -0.53640365081E+02 -0.14119346513E+02 -0.62722044430E+02  0.15052643512E+03  0.12509000000E+03 0.  0.
<mgrwt>
<rscale>  2 0.43562307E+03</rscale>
<asrwt>0</asrwt>
<pdfrwt beam="1">  1       21 0.16324321E-01 0.43562307E+03</pdfrwt>
<pdfrwt beam="2">  1       21 0.62850508E-01 0.43562307E+03</pdfrwt>
<totfact> 0.73242431E+04</totfact>
</mgrwt>
</event>
<event>
 5    0  0.1539497E-004  0.4396118E+03  0.7546771E-02  0.1030866E+00
         21   -1    0    0  502  501  0.00000000000E+00  0.00000000000E+00  0.15227161226E+03  0.15227161226E+03  0.00000000000E+00 0. -1.
         21   -1    0    0  501  502 -0.00000000000E+00 -0.00000000000E+00 -0.31729243266E+03  0.31729243266E+03  0.00000000000E+00 0. -1.
         25    1    1    2    0    0  0.18173912346E+02 -0.18495320461E+02 -0.57008878278E+01  0.12787640983E+03  0.12509000000E+03 0.  0.
         25    1    1    2    0    0  0.73312441518E+02 -0.47515276647E+01 -0.86349341312E+02  0.16882241540E+03  0.12509000000E+03 0.  0.
         25    1    1    2    0    0 -0.91486353864E+02  0.23246848125E+02 -0.72970591260E+02  0.17286521969E+03  0.12509000000E+03 0.  0.
<mgrwt>
<rscale>  2 0.43961178E+03</rscale>
<asrwt>0</asrwt>
<pdfrwt beam="1">  1       21 0.22392884E-01 0.43961178E+03</pdfrwt>
<pdfrwt beam="2">  1       21 0.46660652E-01 0.43961178E+03</pdfrwt>
<totfact> 0.76378754E+04</totfact>
</mgrwt>
</event>
<event>
 6    0  0.1539497E-004  0.4268785E+03  0.7546771E-02  0.1034851E+00
         21   -1    0    0  502  501  0.00000000000E+00  0.00000000000E+00  0.59867095687E+02  0.59867095687E+02  0.00000000000E+00 0.  1.
         21   -1    0    0  501  502 -0.00000000000E+00 -0.00000000000E+00 -0.76095759146E+03  0.76095759146E+03  0.00000000000E+00 0.  1.
      99925    2    1    2    0    0 -0.19023552294E+02 -0.42271284198E+02 -0.58850249705E+03  0.64626145343E+03  0.26300174932E+03 0.  0.
         25    1    1    2    0    0  0.19023552294E+02  0.42271284198E+02 -0.11258799872E+03  0.17456323372E+03  0.12509000000E+03 0.  0.
         25    1    3    3    0    0  0.16944407094E+02  0.98215947405E+00 -0.33566890411E+03  0.35862124708E+03  0.12509000000E+03 0.  0.
         25    1    3    3    0    0 -0.35967959388E+02 -0.43253443672E+02 -0.25283359294E+03  0.28764020635E+03  0.12509000000E+03 0.  0.
<mgrwt>
<rscale>  2 0.42687854E+03</rscale>
<asrwt>0</asrwt>
<pdfrwt beam="1">  1       21 0.88039853E-02 0.42687854E+03</pdfrwt>
<pdfrwt beam="2">  1       21 0.11190552E+00 0.42687854E+03</pdfrwt>
<totfact> 0.58691594E+04</totfact>
</mgrwt>
</event>
<event>
 6    0  0.1539497E-004  0.4716309E+03  0.7546771E-02  0.1021461E+00
         21   -1    0    0  502  501  0.00000000000E+00  0.00000000000E+00  0.16633799810E+04  0.16633799810E+04  0.00000000000E+00 0.  1.
         21   -1    0    0  501  502 -0.00000000000E+00 -0.00000000000E+00 -0.33431284207E+02  0.33431284207E+02  0.00000000000E+00 0.  1.
      99925    2    1    2    0    0 -0.91247369227E+02  0.68952809563E+02  0.80259984805E+03  0.85227932504E+03  0.26293147295E+03 0.  0.
         25    1    1    2    0    0  0.91247369227E+02 -0.68952809563E+02  0.82734884875E+03  0.84453194017E+03  0.12509000000E+03 0.  0.
         25    1    3    3    0    0 -0.19012193551E+02  0.63095841926E+02  0.42817665046E+03  0.45091606854E+03  0.12509000000E+03 0.  0.
         25    1    3    3    0    0 -0.72235175676E+02  0.58569676372E+01  0.37442319759E+03  0.40136325650E+03  0.12509000000E+03 0.  0.
<mgrwt>
<rscale>  2 0.47163091E+03</rscale>
<asrwt>0</asrwt>
<pdfrwt beam="1">  1       21 0.24461465E+00 0.47163091E+03</pdfrwt>
<pdfrwt beam="2">  1       21 0.49163665E-02 0.47163091E+03</pdfrwt>
<totfact> 0.17021793E+04</totfact>
</mgrwt>
</event>
<event>
 6    0  0.1539497E-004  0.8782149E+03  0.7546771E-02  0.9453231E-01
         21   -1    0    0  502  501  0.00000000000E+00  0.00000000000E+00  0.13196873120E+04  0.13196873120E+04  0.00000000000E+00 0.  1.
         21   -1    0    0  501  502 -0.00000000000E+00 -0.00000000000E+00 -0.14610683242E+03  0.14610683242E+03  0.00000000000E+00 0.  1.
      99925    2    1    2    0    0  0.20175037805E+03  0.26829052971E+03  0.29899191587E+03  0.52068267626E+03  0.26273800681E+03 0.  0.
         25    1    1    2    0    0 -0.20175037805E+03 -0.26829052971E+03  0.87458856367E+03  0.94511146812E+03  0.12509000000E+03 0.  0.
         25    1    3    3    0    0  0.12725213994E+03  0.18151110055E+03  0.20535540471E+03  0.32704393755E+03  0.12509000000E+03 0.  0.
         25    1    3    3    0    0  0.74498238108E+02  0.86779429161E+02  0.93636511159E+02  0.19363873871E+03  0.12509000000E+03 0.  0.
<mgrwt>
<rscale>  2 0.87821486E+03</rscale>
<asrwt>0</asrwt>
<pdfrwt beam="1">  1       21 0.19407166E+00 0.87821486E+03</pdfrwt>
<pdfrwt beam="2">  1       21 0.21486300E-01 0.87821486E+03</pdfrwt>
<totfact> 0.22296570E+03</totfact>
</mgrwt>
</event>
<event>
 5    0  0.1539497E-004  0.4628981E+03  0.7546771E-02  0.1023944E+00
         21   -1    0    0  502  501  0.00000000000E+00  0.00000000000E+00  0.15960492635E+03  0.15960492635E+03  0.00000000000E+00 0.  1.
         21   -1    0    0  501  502 -0.00000000000E+00 -0.00000000000E+00 -0.33563295648E+03  0.33563295648E+03  0.00000000000E+00 0.  1.
         25    1    1    2    0    0 -0.27466633491E+02  0.65522403772E+02  0.18710611552E+02  0.14506962617E+03  0.12509000000E+03 0.  0.
         25    1    1    2    0    0  0.52786881855E+02 -0.63312664715E+02 -0.15712417751E+03  0.21709551738E+03  0.12509000000E+03 0.  0.
         25    1    1    2    0    0 -0.25320248364E+02 -0.22097390571E+01 -0.37614464177E+02  0.13307273928E+03  0.12509000000E+03 0.  0.
<mgrwt>
<rscale>  2 0.46289815E+03</rscale>
<asrwt>0</asrwt>
<pdfrwt beam="1">  1       21 0.23471313E-01 0.46289815E+03</pdfrwt>
<pdfrwt beam="2">  1       21 0.49357788E-01 0.46289815E+03</pdfrwt>
<totfact> 0.61649448E+04</totfact>
</mgrwt>
</event>
<event>
 6    0  0.1539497E-004  0.4215910E+03  0.7546771E-02  0.1036550E+00
         21   -1    0    0  502  501  0.00000000000E+00  0.00000000000E+00  0.47603877340E+02  0.47603877340E+02  0.00000000000E+00 0. -1.
         21   -1    0    0  501  502 -0.00000000000E+00 -0.00000000000E+00 -0.93342711906E+03  0.93342711906E+03  0.00000000000E+00 0. -1.
      99925    2    1    2    0    0 -0.15085877869E+02 -0.26671775314E+02 -0.74280919948E+03  0.78857452941E+03  0.26295496628E+03 0.  0.
         25    1    1    2    0    0  0.15085877869E+02  0.26671775314E+02 -0.14301404225E+03  0.19245646700E+03  0.12509000000E+03 0.  0.
         25    1    3    3    0    0 -0.96931377004E+01 -0.53308204521E+02 -0.40486239602E+03  0.42719642952E+03  0.12509000000E+03 0.  0.
         25    1    3    3    0    0 -0.53927401689E+01  0.26636429207E+02 -0.33794680346E+03  0.36137809988E+03  0.12509000000E+03 0.  0.
<mgrwt>
<rscale>  2 0.42159103E+03</rscale>
<asrwt>0</asrwt>
<pdfrwt beam="1">  1       21 0.70005705E-02 0.42159103E+03</pdfrwt>
<pdfrwt beam="2">  1       21 0.13726869E+00 0.42159103E+03</pdfrwt>
<totfact> 0.52281634E+04</totfact>
</mgrwt>
</event>
<event>
 6    0  0.1539497E-004  0.4163592E+03  0.7546771E-02  0.1038258E+00
         21   -1    0    0  502  501  0.00000000000E+00  0.00000000000E+00  0.32958509751E+03  0.32958509751E+03  0.00000000000E+00 0. -1.
         21   -1    0    0  501  502 -0.00000000000E+00 -0.00000000000E+00 -0.13149484269E+03  0.13149484269E+03  0.00000000000E+00 0. -1.
      99925    2    1    2    0    0  0.26143863372E+02  0.46353556431E+00  0.56453726217E+02  0.27031272396E+03  0.26305556271E+03 0.  0.
         25    1    3    3    0    0 -0.23620476922E+02  0.11739093127E+02  0.13498527755E+02  0.12855135779E+03  0.12509000000E+03 0.  0.
         25    1    1    2    0    0 -0.26143863372E+02 -0.46353556431E+00  0.14163652860E+03  0.19076721624E+03  0.12509000000E+03 0.  0.
         25    1    3    3    0    0  0.49764340293E+02 -0.11275557563E+02  0.42955198462E+02  0.14176136617E+03  0.12509000000E+03 0.  0.
<mgrwt>
<rscale>  2 0.41635917E+03</rscale>
<asrwt>0</asrwt>
<pdfrwt beam="1">  1       21 0.48468397E-01 0.41635917E+03</pdfrwt>
<pdfrwt beam="2">  1       21 0.19337477E-01 0.41635917E+03</pdfrwt>
<totfact> 0.93714000E+04</totfact>
</mgrwt>
</event>
<event>
 6    0  0.1539497E-004  0.4031533E+03  0.7546771E-02  0.1042693E+00
         21   -1    0    0  502  501  0.00000000000E+00  0.00000000000E+00  0.46419977905E+03  0.46419977905E+03  0.00000000000E+00 0.  1.
         21   -1    0    0  501  502 -0.00000000000E+00 -0.00000000000E+00 -0.87533764885E+02  0.87533764885E+02  0.00000000000E+00 0.  1.
      99925    2    1    2    0    0  0.42963363880E+02  0.61505703482E+01  0.21244641365E+03  0.34078505391E+03  0.26290168152E+03 0.  0.
         25    1    3    3    0    0  0.13843215061E+02  0.40853232703E+02  0.12141241925E+03  0.17958035770E+03  0.12509000000E+03 0.  0.
         25    1    1    2    0    0 -0.42963363880E+02 -0.61505703482E+01  0.16421960051E+03  0.21094849003E+03  0.12509000000E+03 0.  0.
         25    1    3    3    0    0  0.29120148819E+02 -0.34702662355E+02  0.91033994408E+02  0.16120469621E+03  0.12509000000E+03 0.  0.
<mgrwt>
<rscale>  2 0.40315334E+03</rscale>
<asrwt>0</asrwt>
<pdfrwt beam="1">  1       21 0.68264672E-01 0.40315334E+03</pdfrwt>
<pdfrwt beam="2">  1       21 0.12872613E-01 0.40315334E+03</pdfrwt>
<totfact> 0.95190993E+04</totfact>
</mgrwt>
</event>
<event>
 6    0  0.1539497E-004  0.4343376E+03  0.7546771E-02  0.1032498E+00
         21   -1    0    0  502  501  0.00000000000E+00  0.00000000000E+00  0.33993940755E+02  0.33993940755E+02  0.00000000000E+00 0.  1.
         21   -1    0    0  501  502 -0.00000000000E+00 -0.00000000000E+00 -0.13873735638E+04  0.13873735638E+04  0.00000000000E+00 0.  1.
      99925    2    1    2    0    0 -0.34633593928E+02  0.85703158546E+02 -0.86541294282E+03  0.90921176035E+03  0.26302461167E+03 0.  0.
         25    1    3    3    0    0 -0.32757118135E+02  0.67270397752E+02 -0.36400971790E+03  0.39210829885E+03  0.12509000000E+03 0.  0.
         25    1    3    3    0    0 -0.18764757929E+01  0.18432760794E+02 -0.50140322492E+03  0.51710346150E+03  0.12509000000E+03 0.  0.
         25    1    1    2    0    0  0.34633593928E+02 -0.85703158546E+02 -0.48796668021E+03  0.51215574419E+03  0.12509000000E+03 0.  0.
<mgrwt>
<rscale>  2 0.43433763E+03</rscale>
<asrwt>0</asrwt>
<pdfrwt beam="1">  1       21 0.49991086E-02 0.43433763E+03</pdfrwt>
<pdfrwt beam="2">  1       21 0.20402554E+00 0.43433763E+03</pdfrwt>
<totfact> 0.30357654E+04</totfact>
</mgrwt>
</event>
<event>
 6    0  0.1539497E-004  0.3907119E+03  0.7546771E-02  0.1047044E+00
         21   -1    0    0  502  501  0.00000000000E+00  0.00000000000E+00  0.36964429604E+03  0.36964429604E+03  0.00000000000E+00 0. -1.
         21   -1    0    0  501  502 -0.00000000000E+00 -0.00000000000E+00 -0.10324507836E+03  0.10324507836E+03  0.00000000000E+00 0. -1.
      99925    2    1    2    0    0 -0.18172457094E+02  0.23754163932E+01  0.18916059979E+03  0.32473677404E+03  0.26331798097E+03 0.  0.
         25    1    1    2    0    0  0.18172457094E+02 -0.23754163932E+01  0.77238617892E+02  0.14815260036E+03  0.12509000000E+03 0.  0.
         25    1    3    3    0    0  0.66206465763E+01 -0.34754587664E+02  0.78505805773E+02  0.15186304345E+03  0.12509000000E+03 0.  0.
         25    1    3    3    0    0 -0.24793103671E+02  0.37130004057E+02  0.11065479402E+03  0.17287373060E+03  0.12509000000E+03 0.  0.
<mgrwt>
<rscale>  2 0.39071194E+03</rscale>
<asrwt>0</asrwt>
<pdfrwt beam="1">  1       21 0.54359455E-01 0.39071194E+03</pdfrwt>
<pdfrwt beam="2">  1       21 0.15183100E-01 0.39071194E+03</pdfrwt>
<totfact> 0.11603091E+05</totfact>
</mgrwt>
</event>
<event>
 6    0  0.1539497E-004  0.4116528E+03  0.7546771E-02  0.1039818E+00
         21   -1    0    0  502  501  0.00000000000E+00  0.00000000000E+00  0.25430011772E+03  0.25430011772E+03  0.00000000000E+00 0.  1.
         21   -1    0    0  501  502 -0.00000000000E+00 -0.00000000000E+00 -0.16659253602E+03  0.16659253602E+03  0.00000000000E+00 0.  1.
      99925    2    1    2    0    0 -0.78807572300E+01 -0.45961681380E+02  0.10404772894E+03  0.28639696235E+03  0.26272173046E+03 0.  0.
         25    1    3    3    0    0 -0.21352635167E+02 -0.10655777771E+02  0.14908358590E+02  0.12821563042E+03  0.12509000000E+03 0.  0.
         25    1    3    3    0    0  0.13471877937E+02 -0.35305903609E+02  0.89139370348E+02  0.15818133193E+03  0.12509000000E+03 0.  0.
         25    1    1    2    0    0  0.78807572300E+01  0.45961681380E+02 -0.16340147238E+02  0.13449569139E+03  0.12509000000E+03 0.  0.
<mgrwt>
<rscale>  2 0.41165277E+03</rscale>
<asrwt>0</asrwt>
<pdfrwt beam="1">  1       21 0.37397076E-01 0.41165277E+03</pdfrwt>
<pdfrwt beam="2">  1       21 0.24498902E-01 0.41165277E+03</pdfrwt>
<totfact> 0.10210227E+05</totfact>
</mgrwt>
</event>
<event>
 6    0  0.1539497E-004  0.3896143E+03  0.7546771E-02  0.1047436E+00
         21   -1    0    0  502  501  0.00000000000E+00  0.00000000000E+00  0.13132044102E+04  0.13132044102E+04  0.00000000000E+00 0. -1.
         21   -1    0    0  501  502 -0.00000000000E+00 -0.00000000000E+00 -0.28898645128E+02  0.28898645128E+02  0.00000000000E+00 0. -1.
      99925    2    1    2    0    0  0.11021889158E+02  0.11391840205E+02  0.86811896223E+03  0.90723500750E+03  0.26304670723E+03 0.  0.
         25    1    1    2    0    0 -0.11021889158E+02 -0.11391840205E+02  0.41618680289E+03  0.43486804788E+03  0.12509000000E+03 0.  0.
         25    1    3    3    0    0  0.25356919560E+02 -0.12789070839E+02  0.53831844539E+03  0.55339026956E+03  0.12509000000E+03 0.  0.
         25    1    3    3    0    0 -0.14335030403E+02  0.24180911044E+02  0.32980051684E+03  0.35384473794E+03  0.12509000000E+03 0.  0.
<mgrwt>
<rscale>  2 0.38961431E+03</rscale>
<asrwt>0</asrwt>
<pdfrwt beam="1">  1       21 0.19311826E+00 0.38961431E+03</pdfrwt>
<pdfrwt beam="2">  1       21 0.42498016E-02 0.38961431E+03</pdfrwt>
<totfact> 0.48120230E+04</totfact>
</mgrwt>
</event>
<event>
 6    0  0.1539497E-004  0.4291446E+03  0.7546771E-02  0.1034131E+00
         21   -1    0    0  502  501  0.00000000000E+00  0.00000000000E+00  0.16123930240E+03  0.16123930240E+03  0.00000000000E+00 0. -1.
         21   -1    0    0  501  502 -0.00000000000E+00 -0.00000000000E+00 -0.28554619791E+03  0.28554619791E+03  0.00000000000E+00 0. -1.
      99925    2    1    2    0    0  0.11672981417E+02 -0.32697587217E+02  0.25412015884E+01  0.26528250159E+03  0.26298851161E+03 0.  0.
         25    1    1    2    0    0 -0.11672981417E+02  0.32697587217E+02 -0.12684809710E+03  0.18150299872E+03  0.12509000000E+03 0.  0.
         25    1    3    3    0    0 -0.25027727357E+02 -0.74761472011E+01  0.26106225535E+02  0.13042746270E+03  0.12509000000E+03 0.  0.
         25    1    3    3    0    0  0.36700708774E+02 -0.25221440016E+02 -0.23565023946E+02  0.13485503889E+03  0.12509000000E+03 0.  0.
<mgrwt>
<rscale>  2 0.42914459E+03</rscale>
<asrwt>0</asrwt>
<pdfrwt beam="1">  1       21 0.23711662E-01 0.42914459E+03</pdfrwt>
<pdfrwt beam="2">  1       21 0.41992088E-01 0.42914459E+03</pdfrwt>
<totfact> 0.85423046E+04</totfact>
</mgrwt>
</event>
<event>
 6    0  0.1539497E-004  0.4058756E+03  0.7546771E-02  0.1041764E+00
         21   -1    0    0  502  501  0.00000000000E+00  0.00000000000E+00  0.27994417772E+03  0.27994417772E+03  0.00000000000E+00 0. -1.
         21   -1    0    0  501  502 -0.00000000000E+00 -0.00000000000E+00 -0.14711413872E+03  0.14711413872E+03  0.00000000000E+00 0. -1.
      99925    2    1    2    0    0  0.43768034811E+02  0.32422764998E+02  0.74715035596E+02  0.27876219956E+03  0.26298127462E+03 0.  0.
         25    1    3    3    0    0  0.45437801825E+02  0.14373216702E+02  0.39817113434E+01  0.13391992129E+03  0.12509000000E+03 0.  0.
         25    1    3    3    0    0 -0.16697670139E+01  0.18049548296E+02  0.70733324253E+02  0.14484227827E+03  0.12509000000E+03 0.  0.
         25    1    1    2    0    0 -0.43768034811E+02 -0.32422764998E+02  0.58115003399E+02  0.14829611688E+03  0.12509000000E+03 0.  0.
<mgrwt>
<rscale>  2 0.40587558E+03</rscale>
<asrwt>0</asrwt>
<pdfrwt beam="1">  1       21 0.41168261E-01 0.40587558E+03</pdfrwt>
<pdfrwt beam="2">  1       21 0.21634432E-01 0.40587558E+03</pdfrwt>
<totfact> 0.10665626E+05</totfact>
</mgrwt>
</event>
<event>
 6    0  0.1539497E-004  0.8191913E+03  0.7546771E-02  0.9532646E-01
         21   -1    0    0  502  501  0.00000000000E+00  0.00000000000E+00  0.51809969559E+03  0.51809969559E+03  0.00000000000E+00 0. -1.
         21   -1    0    0  501  502 -0.00000000000E+00 -0.00000000000E+00 -0.32381530868E+03  0.32381530868E+03  0.00000000000E+00 0. -1.
      99925    2    1    2    0    0  0.12629919109E+02 -0.20587628887E+03  0.40276754547E+03  0.52307759010E+03  0.26238122722E+03 0.  0.
         25    1    3    3    0    0  0.37944635067E+02 -0.78672072736E+02  0.20482594872E+03  0.25540216860E+03  0.12509000000E+03 0.  0.
         25    1    1    2    0    0 -0.12629919109E+02  0.20587628887E+03 -0.20848315857E+03  0.31883741418E+03  0.12509000000E+03 0.  0.
         25    1    3    3    0    0 -0.25314715957E+02 -0.12720421613E+03  0.19794159676E+03  0.26767542149E+03  0.12509000000E+03 0.  0.
<mgrwt>
<rscale>  2 0.81919134E+03</rscale>
<asrwt>0</asrwt>
<pdfrwt beam="1">  1       21 0.76191133E-01 0.81919134E+03</pdfrwt>
<pdfrwt beam="2">  1       21 0.47619898E-01 0.81919134E+03</pdfrwt>
<totfact> 0.52416387E+03</totfact>
</mgrwt>
</event>
<event>
 6    0  0.1539497E-004  0.4703173E+03  0.7546771E-02  0.1021831E+00
         21   -1    0    0  502  501  0.00000000000E+00  0.00000000000E+00  0.15997685570E+04  0.15997685570E+04  0.00000000000E+00 0. -1.
         21   -1    0    0  501  502 -0.00000000000E+00 -0.00000000000E+00 -0.34567250159E+02  0.34567250159E+02  0.00000000000E+00 0. -1.
      99925    2    1    2    0    0  0.96516430828E+02 -0.68193335616E+02  0.11334597148E+04  0.11695626767E+04  0.26302124840E+03 0.  0.
         25    1    3    3    0    0  0.71686973006E+02 -0.69740231536E+02  0.59159047572E+03  0.61288622195E+03  0.12509000000E+03 0.  0.
         25    1    3    3    0    0  0.24829457822E+02  0.15468959205E+01  0.54186923909E+03  0.55667645471E+03  0.12509000000E+03 0.  0.
         25    1    1    2    0    0 -0.96516430828E+02  0.68193335616E+02  0.43174159207E+03  0.46477313053E+03  0.12509000000E+03 0.  0.
<mgrwt>
<rscale>  2 0.47031734E+03</rscale>
<asrwt>0</asrwt>
<pdfrwt beam="1">  1       21 0.23526003E+00 0.47031734E+03</pdfrwt>
<pdfrwt beam="2">  1       21 0.50834202E-02 0.47031734E+03</pdfrwt>
<totfact> 0.18379874E+04</totfact>
</mgrwt>
</event>
<event>
 6    0  0.1539497E-004  0.4645995E+03  0.7546771E-02  0.1023456E+00
         21   -1    0    0  502  501  0.00000000000E+00  0.00000000000E+00  0.18031732805E+03  0.18031732805E+03  0.00000000000E+00 0. -1.
         21   -1    0    0  501  502 -0.00000000000E+00 -0.00000000000E+00 -0.29926785754E+03  0.29926785754E+03  0.00000000000E+00 0. -1.
      99925    2    1    2    0    0 -0.24770144735E+02  0.83693641305E+02 -0.16220461048E+03  0.32103989463E+03  0.26294123415E+03 0.  0.
         25    1    3    3    0    0  0.17920927132E+02  0.47020675755E+02 -0.49923804598E+02  0.14377759889E+03  0.12509000000E+03 0.  0.
         25    1    1    2    0    0  0.24770144735E+02 -0.83693641305E+02  0.43254080990E+02  0.15854529097E+03  0.12509000000E+03 0.  0.
         25    1    3    3    0    0 -0.42691071867E+02  0.36672965550E+02 -0.11228080588E+03  0.17726229573E+03  0.12509000000E+03 0.  0.
<mgrwt>
<rscale>  2 0.46459953E+03</rscale>
<asrwt>0</asrwt>
<pdfrwt beam="1">  1       21 0.26517254E-01 0.46459953E+03</pdfrwt>
<pdfrwt beam="2">  1       21 0.44009979E-01 0.46459953E+03</pdfrwt>
<totfact> 0.61880542E+04</totfact>
</mgrwt>
</event>
<event>
 6    0  0.1539497E-004  0.4391351E+03  0.7546771E-02  0.1031013E+00
         21   -1    0    0  502  501  0.00000000000E+00  0.00000000000E+00  0.37739633900E+02  0.37739633900E+02  0.00000000000E+00 0. -1.
         21   -1    0    0  501  502 -0.00000000000E+00 -0.00000000000E+00 -0.12774343132E+04  0.12774343132E+04  0.00000000000E+00 0. -1.
      99925    2    1    2    0    0 -0.93970884814E+02 -0.13106588084E+02 -0.73018515356E+03  0.78202314783E+03  0.26341513893E+03 0.  0.
         25    1    3    3    0    0 -0.24693804596E+02 -0.24246758045E+02 -0.26239378335E+03  0.29273827031E+03  0.12509000000E+03 0.  0.
         25    1    1    2    0    0  0.93970884814E+02  0.13106588084E+02 -0.50950952575E+03  0.53315079928E+03  0.12509000000E+03 0.  0.
         25    1    3    3    0    0 -0.69277080219E+02  0.11140169961E+02 -0.46779137021E+03  0.48928487752E+03  0.12509000000E+03 0.  0.
<mgrwt>
<rscale>  2 0.43913507E+03</rscale>
<asrwt>0</asrwt>
<pdfrwt beam="1">  1       21 0.55499473E-02 0.43913507E+03</pdfrwt>
<pdfrwt beam="2">  1       21 0.18785795E+00 0.43913507E+03</pdfrwt>
<totfact> 0.32506322E+04</totfact>
</mgrwt>
</event>
<event>
 6    0  0.1539497E-004  0.4106993E+03  0.7546771E-02  0.1040137E+00
         21   -1    0    0  502  501  0.00000000000E+00  0.00000000000E+00  0.75753202943E+02  0.75753202943E+02  0.00000000000E+00 0. -1.
         21   -1    0    0  501  502 -0.00000000000E+00 -0.00000000000E+00 -0.55665609007E+03  0.55665609007E+03  0.00000000000E+00 0. -1.
      99925    2    1    2    0    0  0.54397469867E+02 -0.26658484765E+02 -0.34507248295E+03  0.43807152948E+03  0.26298647666E+03 0.  0.
         25    1    3    3    0    0  0.54314411210E+02 -0.41612442096E+02 -0.16156338463E+03  0.21548059299E+03  0.12509000000E+03 0.  0.
         25    1    3    3    0    0  0.83058656956E-01  0.14953957331E+02 -0.18350909832E+03  0.22259093648E+03  0.12509000000E+03 0.  0.
         25    1    1    2    0    0 -0.54397469867E+02  0.26658484765E+02 -0.13583040417E+03  0.19433776353E+03  0.12509000000E+03 0.  0.
<mgrwt>
<rscale>  2 0.41069931E+03</rscale>
<asrwt>0</asrwt>
<pdfrwt beam="1">  1       21 0.11140176E-01 0.41069931E+03</pdfrwt>
<pdfrwt beam="2">  1       21 0.81861194E-01 0.41069931E+03</pdfrwt>
<totfact> 0.81768066E+04</totfact>
</mgrwt>
</event>
<event>
 6    0  0.1539497E-004  0.4455380E+03  0.7546771E-02  0.1029061E+00
         21   -1    0    0  502  501  0.00000000000E+00  0.00000000000E+00  0.26227161018E+03  0.26227161018E+03  0.00000000000E+00 0. -1.
         21   -1    0    0  501  502 -0.00000000000E+00 -0.00000000000E+00 -0.18921617237E+03  0.18921617237E+03  0.00000000000E+00 0. -1.
      99925    2    1    2    0    0 -0.56064101421E+02  0.87598126488E+02  0.50205384063E+02  0.28721286576E+03  0.26297154682E+03 0.  0.
         25    1    3    3    0    0 -0.12616240223E+02  0.77614413568E+01  0.40368814250E+02  0.13227455822E+03  0.12509000000E+03 0.  0.
         25    1    1    2    0    0  0.56064101421E+02 -0.87598126488E+02  0.22850053750E+02  0.16427491680E+03  0.12509000000E+03 0.  0.
         25    1    3    3    0    0 -0.43447861198E+02  0.79836685131E+02  0.98365698129E+01  0.15493830753E+03  0.12509000000E+03 0.  0.
<mgrwt>
<rscale>  2 0.44553801E+03</rscale>
<asrwt>0</asrwt>
<pdfrwt beam="1">  1       21 0.38569355E-01 0.44553801E+03</pdfrwt>
<pdfrwt beam="2">  1       21 0.27825908E-01 0.44553801E+03</pdfrwt>
<totfact> 0.74251792E+04</totfact>
</mgrwt>
</event>
<event>
 6    0  0.1539497E-004  0.5420936E+03  0.7546771E-02  0.1003341E+00
         21   -1    0    0  502  501  0.00000000000E+00  0.00000000000E+00  0.79666761304E+03  0.79666761304E+03  0.00000000000E+00 0.  1.
         21   -1    0    0  501  502 -0.00000000000E+00 -0.00000000000E+00 -0.92217104273E+02  0.92217104273E+02  0.00000000000E+00 0.  1.
      99925    2    1    2    0    0 -0.98565716189E+02 -0.15450549763E+03  0.41804739315E+03  0.52658456283E+03  0.26256528651E+03 0.  0.
         25    1    3    3    0    0 -0.43057014159E+02 -0.33402982655E+02  0.15819074346E+03  0.20890544544E+03  0.12509000000E+03 0.  0.
         25    1    3    3    0    0 -0.55508702029E+02 -0.12110251498E+03  0.25985664969E+03  0.31767911739E+03  0.12509000000E+03 0.  0.
         25    1    1    2    0    0  0.98565716189E+02  0.15450549763E+03  0.28640311562E+03  0.36230015449E+03  0.12509000000E+03 0.  0.
<mgrwt>
<rscale>  2 0.54209365E+03</rscale>
<asrwt>0</asrwt>
<pdfrwt beam="1">  1       21 0.11715700E+00 0.54209365E+03</pdfrwt>
<pdfrwt beam="2">  1       21 0.13561339E-01 0.54209365E+03</pdfrwt>
<totfact> 0.23282894E+04</totfact>
</mgrwt>
</event>
<event>
 6    0  0.1539497E-004  0.4228065E+03  0.7546771E-02  0.1036157E+00
         21   -1    0    0  502  501  0.00000000000E+00  0.00000000000E+00  0.11285204424E+04  0.11285204424E+04  0.00000000000E+00 0.  1.
         21   -1    0    0  501  502 -0.00000000000E+00 -0.00000000000E+00 -0.39601711067E+02  0.39601711067E+02  0.00000000000E+00 0.  1.
      99925    2    1    2    0    0 -0.70532109499E+02 -0.36208993939E+02  0.69524078086E+03  0.74750866521E+03  0.26291365785E+03 0.  0.
         25    1    3    3    0    0 -0.34772508618E+02  0.16913441621E+02  0.39201636938E+03  0.41330319842E+03  0.12509000000E+03 0.  0.
         25    1    3    3    0    0 -0.35759600881E+02 -0.53122435559E+02  0.30322441149E+03  0.33420546679E+03  0.12509000000E+03 0.  0.
         25    1    1    2    0    0  0.70532109499E+02  0.36208993939E+02  0.39367795042E+03  0.42061348821E+03  0.12509000000E+03 0.  0.
<mgrwt>
<rscale>  2 0.42280653E+03</rscale>
<asrwt>0</asrwt>
<pdfrwt beam="1">  1       21 0.16595887E+00 0.42280653E+03</pdfrwt>
<pdfrwt beam="2">  1       21 0.58237818E-02 0.42280653E+03</pdfrwt>
<totfact> 0.42996931E+04</totfact>
</mgrwt>
</event>
<event>
 6    0  0.1539497E-004  0.4120250E+03  0.7546771E-02  0.1039694E+00
         21   -1    0    0  502  501  0.00000000000E+00  0.00000000000E+00  0.14473066389E+04  0.14473066389E+04  0.00000000000E+00 0. -1.
         21   -1    0    0  501  502 -0.00000000000E+00 -0.00000000000E+00 -0.29324226052E+02  0.29324226052E+02  0.00000000000E+00 0. -1.
      99925    2    1    2    0    0 -0.20595015675E+02  0.42122970195E+02  0.10947489740E+04  0.11268797200E+04  0.26302868293E+03 0.  0.
         25    1    3    3    0    0 -0.22312100655E+02  0.34422062103E+02  0.71389894942E+03  0.72593520804E+03  0.12509000000E+03 0.  0.
         25    1    1    2    0    0  0.20595015675E+02 -0.42122970195E+02  0.32323343887E+03  0.34975114495E+03  0.12509000000E+03 0.  0.
         25    1    3    3    0    0  0.17170849801E+01  0.77009080917E+01  0.38085002459E+03  0.40094451199E+03  0.12509000000E+03 0.  0.
<mgrwt>
<rscale>  2 0.41202498E+03</rscale>
<asrwt>0</asrwt>
<pdfrwt beam="1">  1       21 0.21283916E+00 0.41202498E+03</pdfrwt>
<pdfrwt beam="2">  1       21 0.43123872E-02 0.41202498E+03</pdfrwt>
<totfact> 0.34524311E+04</totfact>
</mgrwt>
</event>
<event>
 6    0  0.1539497E-004  0.4212331E+03  0.7546771E-02  0.1036666E+00
         21   -1    0    0  502  501  0.00000000000E+00  0.00000000000E+00  0.17223145404E+03  0.17223145404E+03  0.00000000000E+00 0.  1.
         21   -1    0    0  501  502 -0.00000000000E+00 -0.00000000000E+00 -0.25755649506E+03  0.25755649506E+03  0.00000000000E+00 0.  1.
      99925    2    1    2    0    0  0.19737854104E+02 -0.14514919585E+02  0.19454159662E+02  0.26478354076E+03  0.26292887509E+03 0.  0.
         25    1    3    3    0    0  0.11792128918E+02 -0.14431181258E+02  0.49630198125E+02  0.13586014119E+03  0.12509000000E+03 0.  0.
         25    1    1    2    0    0 -0.19737854104E+02  0.14514919585E+02 -0.10477920068E+03  0.16500440834E+03  0.12509000000E+03 0.  0.
         25    1    3    3    0    0  0.79457251859E+01 -0.83738327140E-01 -0.30176038463E+02  0.12892339958E+03  0.12509000000E+03 0.  0.
<mgrwt>
<rscale>  2 0.42123309E+03</rscale>
<asrwt>0</asrwt>
<pdfrwt beam="1">  1       21 0.25328155E-01 0.42123309E+03</pdfrwt>
<pdfrwt beam="2">  1       21 0.37875955E-01 0.42123309E+03</pdfrwt>
<totfact> 0.93081546E+04</totfact>
</mgrwt>
</event>
<event>
 6    0  0.1539497E-004  0.4557098E+03  0.7546771E-02  0.1026033E+00
         21   -1    0    0  502  501  0.00000000000E+00  0.00000000000E+00  0.81348621211E+03  0.81348621211E+03  0.00000000000E+00 0.  1.
         21   -1    0    0  501  502 -0.00000000000E+00 -0.00000000000E+00 -0.63821445740E+02  0.63821445740E+02  0.00000000000E+00 0.  1.
      99925    2    1    2    0    0  0.10839164448E+03  0.33238240741E+02  0.49247687028E+03  0.56966069908E+03  0.26291883744E+03 0.  0.
         25    1    3    3    0    0  0.36590715760E+02  0.29956009620E+02  0.30556317683E+03  0.33354550833E+03  0.12509000000E+03 0.  0.
         25    1    3    3    0    0  0.71800928725E+02  0.32822311207E+01  0.18691369345E+03  0.23611519075E+03  0.12509000000E+03 0.  0.
         25    1    1    2    0    0 -0.10839164448E+03 -0.33238240741E+02  0.25718789609E+03  0.30764695876E+03  0.12509000000E+03 0.  0.
<mgrwt>
<rscale>  2 0.45570985E+03</rscale>
<asrwt>0</asrwt>
<pdfrwt beam="1">  1       21 0.11963032E+00 0.45570985E+03</pdfrwt>
<pdfrwt beam="2">  1       21 0.93855072E-02 0.45570985E+03</pdfrwt>
<totfact> 0.43984354E+04</totfact>
</mgrwt>
</event>
<event>
 6    0  0.1539497E-004  0.4115797E+03  0.7546771E-02  0.1039842E+00
         21   -1    0    0  502  501  0.00000000000E+00  0.00000000000E+00  0.14771862231E+03  0.14771862231E+03  0.00000000000E+00 0.  1.
         21   -1    0    0  501  502 -0.00000000000E+00 -0.00000000000E+00 -0.28669001819E+03  0.28669001819E+03  0.00000000000E+00 0.  1.
      99925    2    1    2    0    0 -0.41625458586E+02 -0.60172204577E+01 -0.39939556610E+02  0.26941258288E+03  0.26309520308E+03 0.  0.
         25    1    3    3    0    0 -0.30730432864E+02 -0.27452540214E+02 -0.51709564147E+02  0.14148988866E+03  0.12509000000E+03 0.  0.
         25    1    3    3    0    0 -0.10895025722E+02  0.21435319756E+02  0.11770007537E+02  0.12792269422E+03  0.12509000000E+03 0.  0.
         25    1    1    2    0    0  0.41625458586E+02  0.60172204577E+01 -0.99031839264E+02  0.16499605763E+03  0.12509000000E+03 0.  0.
<mgrwt>
<rscale>  2 0.41157966E+03</rscale>
<asrwt>0</asrwt>
<pdfrwt beam="1">  1       21 0.21723327E-01 0.41157966E+03</pdfrwt>
<pdfrwt beam="2">  1       21 0.42160296E-01 0.41157966E+03</pdfrwt>
<totfact> 0.10062223E+05</totfact>
</mgrwt>
</event>
<event>
 6    0  0.1539497E-004  0.4187697E+03  0.7546771E-02  0.1037467E+00
         21   -1    0    0  502  501  0.00000000000E+00  0.00000000000E+00  0.14272450473E+04  0.14272450473E+04  0.00000000000E+00 0. -1.
         21   -1    0    0  501  502 -0.00000000000E+00 -0.00000000000E+00 -0.30717934060E+02  0.30717934060E+02  0.00000000000E+00 0. -1.
      99925    2    1    2    0    0  0.64252924010E+02 -0.30654763477E+02  0.83722251675E+03  0.88043610535E+03  0.26297916319E+03 0.  0.
         25    1    3    3    0    0  0.47899075707E+02  0.21923408252E+02  0.42496339829E+03  0.44611249172E+03  0.12509000000E+03 0.  0.
         25    1    3    3    0    0  0.16353848304E+02 -0.52578171729E+02  0.41225911846E+03  0.43432361362E+03  0.12509000000E+03 0.  0.
         25    1    1    2    0    0 -0.64252924010E+02  0.30654763477E+02  0.55930459650E+03  0.57752687602E+03  0.12509000000E+03 0.  0.
<mgrwt>
<rscale>  2 0.41876972E+03</rscale>
<asrwt>0</asrwt>
<pdfrwt beam="1">  1       21 0.20988893E+00 0.41876972E+03</pdfrwt>
<pdfrwt beam="2">  1       21 0.45173442E-02 0.41876972E+03</pdfrwt>
<totfact> 0.33247493E+04</totfact>
</mgrwt>
</event>
<event>
 6    0  0.1539497E-004  0.4198296E+03  0.7546771E-02  0.1037122E+00
         21   -1    0    0  502  501  0.00000000000E+00  0.00000000000E+00  0.34754839980E+04  0.34754839980E+04  0.00000000000E+00 0. -1.
         21   -1    0    0  501  502 -0.00000000000E+00 -0.00000000000E+00 -0.12678588706E+02  0.12678588706E+02  0.00000000000E+00 0. -1.
      99925    2    1    2    0    0  0.43809019917E+02  0.51872243361E+02  0.25343247065E+04  0.25488362944E+04  0.26297296023E+03 0.  0.
         25    1    3    3    0    0  0.48659011080E+02  0.99377296483E+00  0.10994979769E+04  0.11076605961E+04  0.12509000000E+03 0.  0.
         25    1    1    2    0    0 -0.43809019917E+02 -0.51872243361E+02  0.92848070278E+03  0.93932629230E+03  0.12509000000E+03 0.  0.
         25    1    3    3    0    0 -0.48499911626E+01  0.50878470396E+02  0.14348267296E+04  0.14411756983E+04  0.12509000000E+03 0.  0.
<mgrwt>
<rscale>  2 0.41982964E+03</rscale>
<asrwt>0</asrwt>
<pdfrwt beam="1">  1       21 0.51109993E+00 0.41982964E+03</pdfrwt>
<pdfrwt beam="2">  1       21 0.18645008E-02 0.41982964E+03</pdfrwt>
<totfact> 0.17501528E+03</totfact>
</mgrwt>
</event>
<event>
 6    0  0.1539497E-004  0.4037462E+03  0.7546771E-02  0.1042490E+00
         21   -1    0    0  502  501  0.00000000000E+00  0.00000000000E+00  0.65586422996E+02  0.65586422996E+02  0.00000000000E+00 0. -1.
         21   -1    0    0  501  502 -0.00000000000E+00 -0.00000000000E+00 -0.62135965889E+03  0.62135965889E+03  0.00000000000E+00 0. -1.
      99925    2    1    2    0    0  0.96283419992E+01 -0.48138679639E+02 -0.39951221530E+03  0.48085131702E+03  0.26305501604E+03 0.  0.
         25    1    3    3    0    0  0.30880787954E+02 -0.55949972623E+02 -0.20825572875E+03  0.25120107316E+03  0.12509000000E+03 0.  0.
         25    1    3    3    0    0 -0.21252445955E+02  0.78112929844E+01 -0.19125648655E+03  0.22965024386E+03  0.12509000000E+03 0.  0.
         25    1    1    2    0    0 -0.96283419992E+01  0.48138679639E+02 -0.15626102059E+03  0.20609476486E+03  0.12509000000E+03 0.  0.
<mgrwt>
<rscale>  2 0.40374624E+03</rscale>
<asrwt>0</asrwt>
<pdfrwt beam="1">  1       21 0.96450624E-02 0.40374624E+03</pdfrwt>
<pdfrwt beam="2">  1       21 0.91376419E-01 0.40374624E+03</pdfrwt>
<totfact> 0.82042194E+04</totfact>
</mgrwt>
</event>
<event>
 6    0  0.1539497E-004  0.4193803E+03  0.7546771E-02  0.1037268E+00
         21   -1    0    0  502  501  0.00000000000E+00  0.00000000000E+00  0.11230005017E+03  0.11230005017E+03  0.00000000000E+00 0. -1.
         21   -1    0    0  501  502 -0.00000000000E+00 -0.00000000000E+00 -0.39153995690E+03  0.39153995690E+03  0.00000000000E+00 0. -1.
      99925    2    1    2    0    0 -0.72388133398E+02  0.50977713270E+01 -0.15944806916E+03  0.31605390115E+03  0.26305959884E+03 0.  0.
         25    1    1    2    0    0  0.72388133398E+02 -0.50977713270E+01 -0.11979183758E+03  0.18778610593E+03  0.12509000000E+03 0.  0.
         25    1    3    3    0    0 -0.63092946719E+02 -0.28333281886E+02 -0.88515732249E+02  0.16812506578E+03  0.12509000000E+03 0.  0.
         25    1    3    3    0    0 -0.92951866785E+01  0.33431053213E+02 -0.70932336908E+02  0.14792883537E+03  0.12509000000E+03 0.  0.
<mgrwt>
<rscale>  2 0.41938029E+03</rscale>
<asrwt>0</asrwt>
<pdfrwt beam="1">  1       21 0.16514713E-01 0.41938029E+03</pdfrwt>
<pdfrwt beam="2">  1       21 0.57579405E-01 0.41938029E+03</pdfrwt>
<totfact> 0.87125129E+04</totfact>
</mgrwt>
</event>
<event>
 6    0  0.1539497E-004  0.4007869E+03  0.7546771E-02  0.1043508E+00
         21   -1    0    0  502  501  0.00000000000E+00  0.00000000000E+00  0.50617830159E+03  0.50617830159E+03  0.00000000000E+00 0.  1.
         21   -1    0    0  501  502 -0.00000000000E+00 -0.00000000000E+00 -0.79334777296E+02  0.79334777296E+02  0.00000000000E+00 0.  1.
      99925    2    1    2    0    0 -0.79224363340E+01  0.39415566405E+02  0.32076222725E+03  0.41664300588E+03  0.26284336790E+03 0.  0.
         25    1    3    3    0    0 -0.16043726112E+02  0.40138172350E+02  0.11315988150E+03  0.17412966694E+03  0.12509000000E+03 0.  0.
         25    1    1    2    0    0  0.79224363340E+01 -0.39415566405E+02  0.10608129705E+03  0.16887007300E+03  0.12509000000E+03 0.  0.
         25    1    3    3    0    0  0.81212897777E+01 -0.72260594507E+00  0.20760234574E+03  0.24251333894E+03  0.12509000000E+03 0.  0.
<mgrwt>
<rscale>  2 0.40078694E+03</rscale>
<asrwt>0</asrwt>
<pdfrwt beam="1">  1       21 0.74437984E-01 0.40078694E+03</pdfrwt>
<pdfrwt beam="2">  1       21 0.11666879E-01 0.40078694E+03</pdfrwt>
<totfact> 0.93725496E+04</totfact>
</mgrwt>
</event>
<event>
 6    0  0.1539497E-004  0.4153473E+03  0.7546771E-02  0.1038591E+00
         21   -1    0    0  502  501  0.00000000000E+00  0.00000000000E+00  0.12654001769E+02  0.12654001769E+02  0.00000000000E+00 0. -1.
         21   -1    0    0  501  502 -0.00000000000E+00 -0.00000000000E+00 -0.34082763663E+04  0.34082763663E+04  0.00000000000E+00 0. -1.
      99925    2    1    2    0    0 -0.11646296276E+02 -0.62804079385E+02 -0.20013387980E+04  0.20195902379E+04  0.26326366208E+03 0.  0.
         25    1    3    3    0    0  0.34735058073E+02 -0.30309047242E+02 -0.94041185742E+03  0.94981426199E+03  0.12509000000E+03 0.  0.
         25    1    1    2    0    0  0.11646296276E+02  0.62804079385E+02 -0.13942835665E+04  0.14013401302E+04  0.12509000000E+03 0.  0.
         25    1    3    3    0    0 -0.46381354349E+02 -0.32495032143E+02 -0.10609269406E+04  0.10697759759E+04  0.12509000000E+03 0.  0.
<mgrwt>
<rscale>  2 0.41534725E+03</rscale>
<asrwt>0</asrwt>
<pdfrwt beam="1">  1       21 0.18608823E-02 0.41534725E+03</pdfrwt>
<pdfrwt beam="2">  1       21 0.50121720E+00 0.41534725E+03</pdfrwt>
<totfact> 0.20728880E+03</totfact>
</mgrwt>
</event>
<event>
 6    0  0.1539497E-004  0.4159474E+03  0.7546771E-02  0.1038393E+00
         21   -1    0    0  502  501  0.00000000000E+00  0.00000000000E+00  0.18509135395E+03  0.18509135395E+03  0.00000000000E+00 0.  1.
         21   -1    0    0  501  502 -0.00000000000E+00 -0.00000000000E+00 -0.23368494689E+03  0.23368494689E+03  0.00000000000E+00 0.  1.
      99925    2    1    2    0    0 -0.45949510121E+02  0.53319995600E+02 -0.26164849988E+02  0.27350092088E+03  0.26299006623E+03 0.  0.
         25    1    1    2    0    0  0.45949510121E+02 -0.53319995600E+02 -0.22428742948E+02  0.14527537996E+03  0.12509000000E+03 0.  0.
         25    1    3    3    0    0 -0.25999285840E+01  0.58974779213E+02 -0.27295269386E+02  0.14098696409E+03  0.12509000000E+03 0.  0.
         25    1    3    3    0    0 -0.43349581537E+02 -0.56547836127E+01  0.11304193980E+01  0.13251395679E+03  0.12509000000E+03 0.  0.
<mgrwt>
<rscale>  2 0.41594742E+03</rscale>
<asrwt>0</asrwt>
<pdfrwt beam="1">  1       21 0.27219317E-01 0.41594742E+03</pdfrwt>
<pdfrwt beam="2">  1       21 0.34365433E-01 0.41594742E+03</pdfrwt>
<totfact> 0.98610838E+04</totfact>
</mgrwt>
</event>
<event>
 6    0  0.1539497E-004  0.4448599E+03  0.7546771E-02  0.1029266E+00
         21   -1    0    0  502  501  0.00000000000E+00  0.00000000000E+00  0.11305991286E+03  0.11305991286E+03  0.00000000000E+00 0.  1.
         21   -1    0    0  501  502 -0.00000000000E+00 -0.00000000000E+00 -0.43760057290E+03  0.43760057290E+03  0.00000000000E+00 0.  1.
      99925    2    1    2    0    0 -0.72707329023E+02 -0.61630422592E+02 -0.25571455043E+03  0.37899451316E+03  0.26298715752E+03 0.  0.
         25    1    3    3    0    0 -0.68558303658E+02 -0.22505716767E+02 -0.10121630452E+03  0.17634907623E+03  0.12509000000E+03 0.  0.
         25    1    1    2    0    0  0.72707329023E+02  0.61630422592E+02 -0.68826109607E+02  0.17166597259E+03  0.12509000000E+03 0.  0.
         25    1    3    3    0    0 -0.41490253648E+01 -0.39124705824E+02 -0.15449824591E+03  0.20264543693E+03  0.12509000000E+03 0.  0.
<mgrwt>
<rscale>  2 0.44485990E+03</rscale>
<asrwt>0</asrwt>
<pdfrwt beam="1">  1       21 0.16626458E-01 0.44485990E+03</pdfrwt>
<pdfrwt beam="2">  1       21 0.64353024E-01 0.44485990E+03</pdfrwt>
<totfact> 0.67041578E+04</totfact>
</mgrwt>
</event>
<event>
 6    0  0.1539497E-004  0.4494051E+03  0.7546771E-02  0.1027900E+00
         21   -1    0    0  502  501  0.00000000000E+00  0.00000000000E+00  0.11275904142E+04  0.11275904142E+04  0.00000000000E+00 0.  1.
         21   -1    0    0  501  502 -0.00000000000E+00 -0.00000000000E+00 -0.44778003035E+02  0.44778003035E+02  0.00000000000E+00 0.  1.
      99925    2    1    2    0    0 -0.76533160517E+01 -0.10110679858E+03  0.58769951076E+03  0.65172895445E+03  0.26282837966E+03 0.  0.
         25    1    3    3    0    0  0.43042817466E+01 -0.92218621181E+02  0.31048687619E+03  0.34723538028E+03  0.12509000000E+03 0.  0.
         25    1    1    2    0    0  0.76533160517E+01  0.10110679858E+03  0.49511290042E+03  0.52063946280E+03  0.12509000000E+03 0.  0.
         25    1    3    3    0    0 -0.11957597798E+02 -0.88881773961E+01  0.27721263457E+03  0.30449357416E+03  0.12509000000E+03 0.  0.
<mgrwt>
<rscale>  2 0.44940515E+03</rscale>
<asrwt>0</asrwt>
<pdfrwt beam="1">  1       21 0.16582210E+00 0.44940515E+03</pdfrwt>
<pdfrwt beam="2">  1       21 0.65850012E-02 0.44940515E+03</pdfrwt>
<totfact> 0.34524985E+04</totfact>
</mgrwt>
</event>
<event>
 6    0  0.1539497E-004  0.4246367E+03  0.7546771E-02  0.1035568E+00
         21   -1    0    0  502  501  0.00000000000E+00  0.00000000000E+00  0.68361334275E+03  0.68361334275E+03  0.00000000000E+00 0.  1.
         21   -1    0    0  501  502 -0.00000000000E+00 -0.00000000000E+00 -0.65942376082E+02  0.65942376082E+02  0.00000000000E+00 0.  1.
      99925    2    1    2    0    0  0.69024075413E+02 -0.35427797354E+02  0.35675679093E+03  0.44998407963E+03  0.26304146486E+03 0.  0.
         25    1    3    3    0    0  0.37026952965E+02 -0.43802361694E+02  0.23493282371E+03  0.27226931867E+03  0.12509000000E+03 0.  0.
         25    1    3    3    0    0  0.31997122449E+02  0.83745643397E+01  0.12182396722E+03  0.17771476096E+03  0.12509000000E+03 0.  0.
         25    1    1    2    0    0 -0.69024075413E+02  0.35427797354E+02  0.26091417574E+03  0.29957163920E+03  0.12509000000E+03 0.  0.
<mgrwt>
<rscale>  2 0.42463673E+03</rscale>
<asrwt>0</asrwt>
<pdfrwt beam="1">  1       21 0.10053137E+00 0.42463673E+03</pdfrwt>
<pdfrwt beam="2">  1       21 0.96974087E-02 0.42463673E+03</pdfrwt>
<totfact> 0.64319889E+04</totfact>
</mgrwt>
</event>
<event>
 6    0  0.1539497E-004  0.4454004E+03  0.7546771E-02  0.1029103E+00
         21   -1    0    0  502  501  0.00000000000E+00  0.00000000000E+00  0.20448909931E+03  0.20448909931E+03  0.00000000000E+00 0. -1.
         21   -1    0    0  501  502 -0.00000000000E+00 -0.00000000000E+00 -0.24253308469E+03  0.24253308469E+03  0.00000000000E+00 0. -1.
      99925    2    1    2    0    0 -0.47809244664E+02  0.38400763138E+02 -0.10834299747E+03  0.29097795410E+03  0.26300118286E+03 0.  0.
         25    1    1    2    0    0  0.47809244664E+02 -0.38400763138E+02  0.70299012089E+02  0.15604422990E+03  0.12509000000E+03 0.  0.
         25    1    3    3    0    0  0.15017691433E+01 -0.54076131463E+01 -0.27909005856E+02  0.12828841841E+03  0.12509000000E+03 0.  0.
         25    1    3    3    0    0 -0.49311013807E+02  0.43808376284E+02 -0.80433991612E+02  0.16268953569E+03  0.12509000000E+03 0.  0.
<mgrwt>
<rscale>  2 0.44540037E+03</rscale>
<asrwt>0</asrwt>
<pdfrwt beam="1">  1       21 0.30071926E-01 0.44540037E+03</pdfrwt>
<pdfrwt beam="2">  1       21 0.35666630E-01 0.44540037E+03</pdfrwt>
<totfact> 0.74693334E+04</totfact>
</mgrwt>
</event>
<event>
 6    0  0.1539497E-004  0.4625363E+03  0.7546771E-02  0.1024048E+00
         21   -1    0    0  502  501  0.00000000000E+00  0.00000000000E+00  0.10207330178E+03  0.10207330178E+03  0.00000000000E+00 0. -1.
         21   -1    0    0  501  502 -0.00000000000E+00 -0.00000000000E+00 -0.52398579034E+03  0.52398579034E+03  0.00000000000E+00 0. -1.
      99925    2    1    2    0    0 -0.83412628710E+01 -0.11848344607E+03 -0.28803089097E+03  0.40770228794E+03  0.26296664765E+03 0.  0.
         25    1    3    3    0    0  0.22362427490E+02 -0.76125709414E+02 -0.11307394216E+03  0.18635564465E+03  0.12509000000E+03 0.  0.
         25    1    1    2    0    0  0.83412628710E+01  0.11848344607E+03 -0.13388159759E+03  0.21835680418E+03  0.12509000000E+03 0.  0.
         25    1    3    3    0    0 -0.30703690361E+02 -0.42357736658E+02 -0.17495694882E+03  0.22134664329E+03  0.12509000000E+03 0.  0.
<mgrwt>
<rscale>  2 0.46253631E+03</rscale>
<asrwt>0</asrwt>
<pdfrwt beam="1">  1       21 0.15010780E-01 0.46253631E+03</pdfrwt>
<pdfrwt beam="2">  1       21 0.77056734E-01 0.46253631E+03</pdfrwt>
<totfact> 0.53827188E+04</totfact>
</mgrwt>
</event>
<event>
 6    0  0.1539497E-004  0.4120345E+03  0.7546771E-02  0.1039690E+00
         21   -1    0    0  502  501  0.00000000000E+00  0.00000000000E+00  0.44257599464E+02  0.44257599464E+02  0.00000000000E+00 0.  1.
         21   -1    0    0  501  502 -0.00000000000E+00 -0.00000000000E+00 -0.95900154853E+03  0.95900154853E+03  0.00000000000E+00 0.  1.
      99925    2    1    2    0    0  0.90719539459E+01  0.51898847923E+02 -0.50804369406E+03  0.57450700947E+03  0.26300973004E+03 0.  0.
         25    1    1    2    0    0 -0.90719539459E+01 -0.51898847923E+02 -0.40670025501E+03  0.42875213852E+03  0.12509000000E+03 0.  0.
         25    1    3    3    0    0  0.22551124627E+02 -0.10346728045E+02 -0.22747564066E+03  0.26078397803E+03  0.12509000000E+03 0.  0.
         25    1    3    3    0    0 -0.13479170681E+02  0.62245575968E+02 -0.28056805340E+03  0.31372303144E+03  0.12509000000E+03 0.  0.
<mgrwt>
<rscale>  2 0.41203450E+03</rscale>
<asrwt>0</asrwt>
<pdfrwt beam="1">  1       21 0.65084713E-02 0.41203450E+03</pdfrwt>
<pdfrwt beam="2">  1       21 0.14102962E+00 0.41203450E+03</pdfrwt>
<totfact> 0.55432532E+04</totfact>
</mgrwt>
</event>
<event>
 6    0  0.1539497E-004  0.4119535E+03  0.7546771E-02  0.1039717E+00
         21   -1    0    0  502  501  0.00000000000E+00  0.00000000000E+00  0.13760999928E+03  0.13760999928E+03  0.00000000000E+00 0. -1.
         21   -1    0    0  501  502 -0.00000000000E+00 -0.00000000000E+00 -0.30830907316E+03  0.30830907316E+03  0.00000000000E+00 0. -1.
      99925    2    1    2    0    0  0.28059611486E+02 -0.58433029245E+02 -0.11798655430E+03  0.29549341465E+03  0.26304708780E+03 0.  0.
         25    1    3    3    0    0 -0.24008075644E+02 -0.41078092509E+02 -0.49580128857E+02  0.14272173856E+03  0.12509000000E+03 0.  0.
         25    1    1    2    0    0 -0.28059611486E+02  0.58433029245E+02 -0.52712519569E+02  0.15042565779E+03  0.12509000000E+03 0.  0.
         25    1    3    3    0    0  0.52067687129E+02 -0.17354936736E+02 -0.68406425447E+02  0.15277167609E+03  0.12509000000E+03 0.  0.
<mgrwt>
<rscale>  2 0.41195345E+03</rscale>
<asrwt>0</asrwt>
<pdfrwt beam="1">  1       21 0.20236765E-01 0.41195345E+03</pdfrwt>
<pdfrwt beam="2">  1       21 0.45339569E-01 0.41195345E+03</pdfrwt>
<totfact> 0.99008496E+04</totfact>
</mgrwt>
</event>
<event>
 6    0  0.1539497E-004  0.3934718E+03  0.7546771E-02  0.1046064E+00
         21   -1    0    0  502  501  0.00000000000E+00  0.00000000000E+00  0.10638306281E+04  0.10638306281E+04  0.00000000000E+00 0. -1.
         21   -1    0    0  501  502 -0.00000000000E+00 -0.00000000000E+00 -0.36382679727E+02  0.36382679727E+02  0.00000000000E+00 0. -1.
      99925    2    1    2    0    0 -0.28270715628E+02  0.10765484555E+02  0.68462569892E+03  0.73403065964E+03  0.26300861704E+03 0.  0.
         25    1    1    2    0    0  0.28270715628E+02 -0.10765484555E+02  0.34282224946E+03  0.36618264820E+03  0.12509000000E+03 0.  0.
         25    1    3    3    0    0 -0.21695528749E+02 -0.31569189490E+02  0.29904055239E+03  0.32640476370E+03  0.12509000000E+03 0.  0.
         25    1    3    3    0    0 -0.65751868793E+01  0.42334674044E+02  0.38558514654E+03  0.40762589594E+03  0.12509000000E+03 0.  0.
<mgrwt>
<rscale>  2 0.39347177E+03</rscale>
<asrwt>0</asrwt>
<pdfrwt beam="1">  1       21 0.15644566E+00 0.39347177E+03</pdfrwt>
<pdfrwt beam="2">  1       21 0.53503948E-02 0.39347177E+03</pdfrwt>
<totfact> 0.59185892E+04</totfact>
</mgrwt>
</event>
<event>
 6    0  0.1539497E-004  0.4172912E+03  0.7546771E-02  0.1037952E+00
         21   -1    0    0  502  501  0.00000000000E+00  0.00000000000E+00  0.63144023986E+02  0.63144023986E+02  0.00000000000E+00 0. -1.
         21   -1    0    0  501  502 -0.00000000000E+00 -0.00000000000E+00 -0.68942364936E+03  0.68942364936E+03  0.00000000000E+00 0. -1.
      99925    2    1    2    0    0 -0.85905235153E+01 -0.41891487304E+02 -0.51460850138E+03  0.57951669289E+03  0.26303800836E+03 0.  0.
         25    1    3    3    0    0  0.27434889766E+02 -0.27166621811E+02 -0.31067237622E+03  0.33712836126E+03  0.12509000000E+03 0.  0.
         25    1    1    2    0    0  0.85905235153E+01  0.41891487304E+02 -0.11167112399E+03  0.17305098045E+03  0.12509000000E+03 0.  0.
         25    1    3    3    0    0 -0.36025413281E+02 -0.14724865493E+02 -0.20393612516E+03  0.24238833163E+03  0.12509000000E+03 0.  0.
<mgrwt>
<rscale>  2 0.41729119E+03</rscale>
<asrwt>0</asrwt>
<pdfrwt beam="1">  1       21 0.92858857E-02 0.41729119E+03</pdfrwt>
<pdfrwt beam="2">  1       21 0.10138583E+00 0.41729119E+03</pdfrwt>
<totfact> 0.68208351E+04</totfact>
</mgrwt>
</event>
<event>
 6    0  0.1539497E-004  0.4757489E+03  0.7546771E-02  0.1020310E+00
         21   -1    0    0  502  501  0.00000000000E+00  0.00000000000E+00  0.13937621192E+04  0.13937621192E+04  0.00000000000E+00 0. -1.
         21   -1    0    0  501  502 -0.00000000000E+00 -0.00000000000E+00 -0.40598222181E+02  0.40598222181E+02  0.00000000000E+00 0. -1.
      99925    2    1    2    0    0 -0.37332612918E+02  0.12169688268E+03  0.93832161484E+03  0.98275710575E+03  0.26298330896E+03 0.  0.
         25    1    3    3    0    0 -0.27465249720E+02  0.10451506050E+03  0.55001057713E+03  0.57431427013E+03  0.12509000000E+03 0.  0.
         25    1    3    3    0    0 -0.98673631980E+01  0.17181822184E+02  0.38831103770E+03  0.40844283562E+03  0.12509000000E+03 0.  0.
         25    1    1    2    0    0  0.37332612918E+02 -0.12169688268E+03  0.41484228215E+03  0.45160323560E+03  0.12509000000E+03 0.  0.
<mgrwt>
<rscale>  2 0.47574894E+03</rscale>
<asrwt>0</asrwt>
<pdfrwt beam="1">  1       21 0.20496499E+00 0.47574894E+03</pdfrwt>
<pdfrwt beam="2">  1       21 0.59703277E-02 0.47574894E+03</pdfrwt>
<totfact> 0.21713313E+04</totfact>
</mgrwt>
</event>
<event>
 6    0  0.1539497E-004  0.4473474E+03  0.7546771E-02  0.1028516E+00
         21   -1    0    0  502  501  0.00000000000E+00  0.00000000000E+00  0.14299971649E+03  0.14299971649E+03  0.00000000000E+00 0. -1.
         21   -1    0    0  501  502 -0.00000000000E+00 -0.00000000000E+00 -0.34986022934E+03  0.34986022934E+03  0.00000000000E+00 0. -1.
      99925    2    1    2    0    0 -0.23118689282E+02 -0.36765016793E+01 -0.24476970649E+03  0.36007212439E+03  0.26304321906E+03 0.  0.
         25    1    1    2    0    0  0.23118689282E+02  0.36765016793E+01  0.37909193642E+02  0.13278782143E+03  0.12509000000E+03 0.  0.
         25    1    3    3    0    0  0.28048119406E+02  0.78844496464E+01 -0.11952418405E+03  0.17544913856E+03  0.12509000000E+03 0.  0.
         25    1    3    3    0    0 -0.51166808688E+02 -0.11560951326E+02 -0.12524552244E+03  0.18462298583E+03  0.12509000000E+03 0.  0.
<mgrwt>
<rscale>  2 0.44734735E+03</rscale>
<asrwt>0</asrwt>
<pdfrwt beam="1">  1       21 0.21029370E-01 0.44734735E+03</pdfrwt>
<pdfrwt beam="2">  1       21 0.51450034E-01 0.44734735E+03</pdfrwt>
<totfact> 0.69927718E+04</totfact>
</mgrwt>
</event>
<event>
 6    0  0.1539497E-004  0.5308023E+03  0.7546771E-02  0.1006038E+00
         21   -1    0    0  502  501  0.00000000000E+00  0.00000000000E+00  0.50898386228E+02  0.50898386228E+02  0.00000000000E+00 0. -1.
         21   -1    0    0  501  502 -0.00000000000E+00 -0.00000000000E+00 -0.13838898348E+04  0.13838898348E+04  0.00000000000E+00 0. -1.
      99925    2    1    2    0    0  0.80159016670E+01 -0.15372180262E+03 -0.10149331316E+04  0.10599505917E+04  0.26402906637E+03 0.  0.
         25    1    3    3    0    0 -0.31000462733E+02 -0.55361628149E+02 -0.52112192676E+03  0.53966796200E+03  0.12509000000E+03 0.  0.
         25    1    3    3    0    0  0.39016364400E+02 -0.98360174470E+02 -0.49381120489E+03  0.52028262971E+03  0.12509000000E+03 0.  0.
         25    1    1    2    0    0 -0.80159016670E+01  0.15372180262E+03 -0.31805831691E+03  0.37483762930E+03  0.12509000000E+03 0.  0.
<mgrwt>
<rscale>  2 0.53080226E+03</rscale>
<asrwt>0</asrwt>
<pdfrwt beam="1">  1       21 0.74850567E-02 0.53080226E+03</pdfrwt>
<pdfrwt beam="2">  1       21 0.20351321E+00 0.53080226E+03</pdfrwt>
<totfact> 0.14680017E+04</totfact>
</mgrwt>
</event>
<event>
 6    0  0.1539497E-004  0.4603419E+03  0.7546771E-02  0.1024682E+00
         21   -1    0    0  502  501  0.00000000000E+00  0.00000000000E+00  0.17245960196E+03  0.17245960196E+03  0.00000000000E+00 0.  1.
         21   -1    0    0  501  502 -0.00000000000E+00 -0.00000000000E+00 -0.30719459857E+03  0.30719459857E+03  0.00000000000E+00 0.  1.
      99925    2    1    2    0    0  0.11201902888E+03 -0.13924390671E+02 -0.48421950779E+02  0.29034070004E+03  0.26307961779E+03 0.  0.
         25    1    3    3    0    0  0.84243810768E+02  0.19517848658E+02 -0.97585288268E+01  0.15238340807E+03  0.12509000000E+03 0.  0.
         25    1    1    2    0    0 -0.11201902888E+03  0.13924390671E+02 -0.86313045836E+02  0.18931350049E+03  0.12509000000E+03 0.  0.
         25    1    3    3    0    0  0.27775218110E+02 -0.33442239329E+02 -0.38663421952E+02  0.13795729198E+03  0.12509000000E+03 0.  0.
<mgrwt>
<rscale>  2 0.46034187E+03</rscale>
<asrwt>0</asrwt>
<pdfrwt beam="1">  1       21 0.25361706E-01 0.46034187E+03</pdfrwt>
<pdfrwt beam="2">  1       21 0.45175676E-01 0.46034187E+03</pdfrwt>
<totfact> 0.63969948E+04</totfact>
</mgrwt>
</event>
<event>
 6    0  0.1539497E-004  0.4224905E+03  0.7546771E-02  0.1036259E+00
         21   -1    0    0  502  501  0.00000000000E+00  0.00000000000E+00  0.98120557814E+02  0.98120557814E+02  0.00000000000E+00 0.  1.
         21   -1    0    0  501  502 -0.00000000000E+00 -0.00000000000E+00 -0.45479305019E+03  0.45479305019E+03  0.00000000000E+00 0.  1.
      99925    2    1    2    0    0 -0.34311418699E+02 -0.60398265625E+01 -0.13920359240E+03  0.29962724138E+03  0.26303058887E+03 0.  0.
         25    1    3    3    0    0 -0.43144772695E+02 -0.26129334461E+02 -0.95713232323E+02  0.16538665143E+03  0.12509000000E+03 0.  0.
         25    1    3    3    0    0  0.88333539965E+01  0.20089507898E+02 -0.43490360073E+02  0.13424058995E+03  0.12509000000E+03 0.  0.
         25    1    1    2    0    0  0.34311418699E+02  0.60398265625E+01 -0.21746889998E+03  0.25328636662E+03  0.12509000000E+03 0.  0.
<mgrwt>
<rscale>  2 0.42249046E+03</rscale>
<asrwt>0</asrwt>
<pdfrwt beam="1">  1       21 0.14429494E-01 0.42249046E+03</pdfrwt>
<pdfrwt beam="2">  1       21 0.66881330E-01 0.42249046E+03</pdfrwt>
<totfact> 0.80454154E+04</totfact>
</mgrwt>
</event>
<event>
 6    0  0.1539497E-004  0.5387733E+03  0.7546771E-02  0.1004126E+00
         21   -1    0    0  502  501  0.00000000000E+00  0.00000000000E+00  0.43853151316E+03  0.43853151316E+03  0.00000000000E+00 0.  1.
         21   -1    0    0  501  502 -0.00000000000E+00 -0.00000000000E+00 -0.16548220489E+03  0.16548220489E+03  0.00000000000E+00 0.  1.
      99925    2    1    2    0    0 -0.11231704218E+03  0.25355912197E+02  0.58204570731E+01  0.28728543188E+03  0.26313684919E+03 0.  0.
         25    1    3    3    0    0 -0.20239569265E+02 -0.76720041942E+01  0.17063722835E+02  0.12809050921E+03  0.12509000000E+03 0.  0.
         25    1    3    3    0    0 -0.92077472916E+02  0.33027916392E+02 -0.11243265762E+02  0.15919492267E+03  0.12509000000E+03 0.  0.
         25    1    1    2    0    0  0.11231704218E+03 -0.25355912197E+02  0.26722885119E+03  0.31672828617E+03  0.12509000000E+03 0.  0.
<mgrwt>
<rscale>  2 0.53877328E+03</rscale>
<asrwt>0</asrwt>
<pdfrwt beam="1">  1       21 0.64489928E-01 0.53877328E+03</pdfrwt>
<pdfrwt beam="2">  1       21 0.24335618E-01 0.53877328E+03</pdfrwt>
<totfact> 0.31646289E+04</totfact>
</mgrwt>
</event>
<event>
 6    0  0.1539497E-004  0.4511569E+03  0.7546771E-02  0.1027378E+00
         21   -1    0    0  502  501  0.00000000000E+00  0.00000000000E+00  0.10330244447E+03  0.10330244447E+03  0.00000000000E+00 0.  1.
         21   -1    0    0  501  502 -0.00000000000E+00 -0.00000000000E+00 -0.49258894481E+03  0.49258894481E+03  0.00000000000E+00 0.  1.
      99925    2    1    2    0    0  0.18252405122E+02 -0.41506457835E+02 -0.11427062205E+03  0.29038005112E+03  0.26307197245E+03 0.  0.
         25    1    3    3    0    0  0.26875494894E+02 -0.31080633897E+01 -0.21567378342E+02  0.12978679514E+03  0.12509000000E+03 0.  0.
         25    1    1    2    0    0 -0.18252405122E+02  0.41506457835E+02 -0.27501587829E+03  0.30551133817E+03  0.12509000000E+03 0.  0.
         25    1    3    3    0    0 -0.86230897722E+01 -0.38398394446E+02 -0.92703243704E+02  0.16059325598E+03  0.12509000000E+03 0.  0.
<mgrwt>
<rscale>  2 0.45115692E+03</rscale>
<asrwt>0</asrwt>
<pdfrwt beam="1">  1       21 0.15191536E-01 0.45115692E+03</pdfrwt>
<pdfrwt beam="2">  1       21 0.72439552E-01 0.45115692E+03</pdfrwt>
<totfact> 0.60756014E+04</totfact>
</mgrwt>
</event>
<event>
 6    0  0.1539497E-004  0.4173515E+03  0.7546771E-02  0.1037932E+00
         21   -1    0    0  502  501  0.00000000000E+00  0.00000000000E+00  0.92891099101E+03  0.92891099101E+03  0.00000000000E+00 0.  1.
         21   -1    0    0  501  502 -0.00000000000E+00 -0.00000000000E+00 -0.46878093253E+02  0.46878093253E+02  0.00000000000E+00 0.  1.
      99925    2    1    2    0    0 -0.44585296611E+02 -0.28909244175E+02  0.45918779819E+03  0.53163924536E+03  0.26260856826E+03 0.  0.
         25    1    1    2    0    0  0.44585296611E+02  0.28909244175E+02  0.42284509957E+03  0.44414983891E+03  0.12509000000E+03 0.  0.
         25    1    3    3    0    0 -0.56791222119E+02  0.53691946127E+01  0.22622082431E+03  0.26472143965E+03  0.12509000000E+03 0.  0.
         25    1    3    3    0    0  0.12205925508E+02 -0.34278438788E+02  0.23296697388E+03  0.26691780570E+03  0.12509000000E+03 0.  0.
<mgrwt>
<rscale>  2 0.41735154E+03</rscale>
<asrwt>0</asrwt>
<pdfrwt beam="1">  1       21 0.13660455E+00 0.41735154E+03</pdfrwt>
<pdfrwt beam="2">  1       21 0.68938378E-02 0.41735154E+03</pdfrwt>
<totfact> 0.54460909E+04</totfact>
</mgrwt>
</event>
<event>
 6    0  0.1539497E-004  0.3904537E+03  0.7546771E-02  0.1047136E+00
         21   -1    0    0  502  501  0.00000000000E+00  0.00000000000E+00  0.91838383673E+02  0.91838383673E+02  0.00000000000E+00 0. -1.
         21   -1    0    0  501  502 -0.00000000000E+00 -0.00000000000E+00 -0.41500649621E+03  0.41500649621E+03  0.00000000000E+00 0. -1.
      99925    2    1    2    0    0  0.90336766160E+01 -0.78133039592E+01 -0.23932030234E+03  0.35577993224E+03  0.26298763856E+03 0.  0.
         25    1    3    3    0    0  0.19969950430E+02  0.33493904626E+02 -0.12240244946E+03  0.17930562819E+03  0.12509000000E+03 0.  0.
         25    1    1    2    0    0 -0.90336766160E+01  0.78133039592E+01 -0.83847810191E+02  0.15106494764E+03  0.12509000000E+03 0.  0.
         25    1    3    3    0    0 -0.10936273814E+02 -0.41307208585E+02 -0.11691785288E+03  0.17647430404E+03  0.12509000000E+03 0.  0.
<mgrwt>
<rscale>  2 0.39045371E+03</rscale>
<asrwt>0</asrwt>
<pdfrwt beam="1">  1       21 0.13505644E-01 0.39045371E+03</pdfrwt>
<pdfrwt beam="2">  1       21 0.61030368E-01 0.39045371E+03</pdfrwt>
<totfact> 0.11200825E+05</totfact>
</mgrwt>
</event>
<event>
 6    0  0.1539497E-004  0.4048792E+03  0.7546771E-02  0.1042103E+00
         21   -1    0    0  502  501  0.00000000000E+00  0.00000000000E+00  0.16506896145E+03  0.16506896145E+03  0.00000000000E+00 0. -1.
         21   -1    0    0  501  502 -0.00000000000E+00 -0.00000000000E+00 -0.24827078804E+03  0.24827078804E+03  0.00000000000E+00 0. -1.
      99925    2    1    2    0    0 -0.31871420952E+02  0.30530666030E+02 -0.87355510129E+02  0.28062701374E+03  0.26300689468E+03 0.  0.
         25    1    3    3    0    0 -0.38599425599E+02  0.19441806795E+02 -0.80011735608E+02  0.15465214335E+03  0.12509000000E+03 0.  0.
         25    1    1    2    0    0  0.31871420952E+02 -0.30530666030E+02  0.41536835408E+01  0.13271273574E+03  0.12509000000E+03 0.  0.
         25    1    3    3    0    0  0.67280046465E+01  0.11088859235E+02 -0.73437745206E+01  0.12597487039E+03  0.12509000000E+03 0.  0.
<mgrwt>
<rscale>  2 0.40487925E+03</rscale>
<asrwt>0</asrwt>
<pdfrwt beam="1">  1       21 0.24274847E-01 0.40487925E+03</pdfrwt>
<pdfrwt beam="2">  1       21 0.36510410E-01 0.40487925E+03</pdfrwt>
<totfact> 0.10927991E+05</totfact>
</mgrwt>
</event>
<event>
 6    0  0.1539497E-004  0.4471718E+03  0.7546771E-02  0.1028569E+00
         21   -1    0    0  502  501  0.00000000000E+00  0.00000000000E+00  0.19834506871E+03  0.19834506871E+03  0.00000000000E+00 0. -1.
         21   -1    0    0  501  502 -0.00000000000E+00 -0.00000000000E+00 -0.25203875760E+03  0.25203875760E+03  0.00000000000E+00 0. -1.
      99925    2    1    2    0    0 -0.69193363993E+02  0.18420709073E+02  0.44092291957E+02  0.27620963105E+03  0.26309805384E+03 0.  0.
         25    1    1    2    0    0  0.69193363993E+02 -0.18420709073E+02 -0.97785980841E+02  0.17417419525E+03  0.12509000000E+03 0.  0.
         25    1    3    3    0    0 -0.59510251514E+02  0.37441305361E+02  0.56079771065E+01  0.14360459216E+03  0.12509000000E+03 0.  0.
         25    1    3    3    0    0 -0.96831124786E+01 -0.19020596288E+02  0.38484314851E+02  0.13260503889E+03  0.12509000000E+03 0.  0.
<mgrwt>
<rscale>  2 0.44717176E+03</rscale>
<asrwt>0</asrwt>
<pdfrwt beam="1">  1       21 0.29168393E-01 0.44717176E+03</pdfrwt>
<pdfrwt beam="2">  1       21 0.37064523E-01 0.44717176E+03</pdfrwt>
<totfact> 0.73361116E+04</totfact>
</mgrwt>
</event>
<event>
 6    0  0.1539497E-004  0.4170443E+03  0.7546771E-02  0.1038033E+00
         21   -1    0    0  502  501  0.00000000000E+00  0.00000000000E+00  0.99871387770E+02  0.99871387770E+02  0.00000000000E+00 0. -1.
         21   -1    0    0  501  502 -0.00000000000E+00 -0.00000000000E+00 -0.43537484660E+03  0.43537484660E+03  0.00000000000E+00 0. -1.
      99925    2    1    2    0    0  0.52907562347E+02  0.74765266444E+01 -0.15733696001E+03  0.31109022172E+03  0.26299638488E+03 0.  0.
         25    1    3    3    0    0  0.49562018617E+02 -0.28766199796E+02 -0.90300964032E+02  0.16457721636E+03  0.12509000000E+03 0.  0.
         25    1    1    2    0    0 -0.52907562347E+02 -0.74765266444E+01 -0.17816649882E+03  0.22415601265E+03  0.12509000000E+03 0.  0.
         25    1    3    3    0    0  0.33455437298E+01  0.36242726440E+02 -0.67035995974E+02  0.14651300536E+03  0.12509000000E+03 0.  0.
<mgrwt>
<rscale>  2 0.41704431E+03</rscale>
<asrwt>0</asrwt>
<pdfrwt beam="1">  1       21 0.14686969E-01 0.41704431E+03</pdfrwt>
<pdfrwt beam="2">  1       21 0.64025713E-01 0.41704431E+03</pdfrwt>
<totfact> 0.85890308E+04</totfact>
</mgrwt>
</event>
<event>
 6    0  0.1539497E-004  0.4021397E+03  0.7546771E-02  0.1043041E+00
         21   -1    0    0  502  501  0.00000000000E+00  0.00000000000E+00  0.10129985974E+04  0.10129985974E+04  0.00000000000E+00 0.  1.
         21   -1    0    0  501  502 -0.00000000000E+00 -0.00000000000E+00 -0.39910298013E+02  0.39910298013E+02  0.00000000000E+00 0.  1.
      99925    2    1    2    0    0 -0.42209319041E+02  0.17604370345E+02  0.59790525670E+03  0.65478659751E+03  0.26298907167E+03 0.  0.
         25    1    1    2    0    0  0.42209319041E+02 -0.17604370345E+02  0.37518304267E+03  0.39812229789E+03  0.12509000000E+03 0.  0.
         25    1    3    3    0    0 -0.48100563763E+02  0.29477356683E+02  0.36743926181E+03  0.39222659014E+03  0.12509000000E+03 0.  0.
         25    1    3    3    0    0  0.58912447220E+01 -0.11872986338E+02  0.23046599489E+03  0.26256000737E+03  0.12509000000E+03 0.  0.
<mgrwt>
<rscale>  2 0.40213966E+03</rscale>
<asrwt>0</asrwt>
<pdfrwt beam="1">  1       21 0.14897036E+00 0.40213966E+03</pdfrwt>
<pdfrwt beam="2">  1       21 0.58691621E-02 0.40213966E+03</pdfrwt>
<totfact> 0.57465856E+04</totfact>
</mgrwt>
</event>
<event>
 6    0  0.1539497E-004  0.4847803E+03  0.7546771E-02  0.1017830E+00
         21   -1    0    0  502  501  0.00000000000E+00  0.00000000000E+00  0.99205518182E+02  0.99205518182E+02  0.00000000000E+00 0. -1.
         21   -1    0    0  501  502 -0.00000000000E+00 -0.00000000000E+00 -0.59223512367E+03  0.59223512367E+03  0.00000000000E+00 0. -1.
      99925    2    1    2    0    0 -0.12841202449E+03  0.52506162047E+02 -0.31922703059E+03  0.43629090498E+03  0.26305381887E+03 0.  0.
         25    1    3    3    0    0 -0.96773501343E+02  0.85672749080E+01 -0.14208645875E+03  0.21277823813E+03  0.12509000000E+03 0.  0.
         25    1    3    3    0    0 -0.31638523143E+02  0.43938887139E+02 -0.17714057185E+03  0.22351266685E+03  0.12509000000E+03 0.  0.
         25    1    1    2    0    0  0.12841202449E+03 -0.52506162047E+02 -0.17380257489E+03  0.25514973687E+03  0.12509000000E+03 0.  0.
<mgrwt>
<rscale>  2 0.48478033E+03</rscale>
<asrwt>0</asrwt>
<pdfrwt beam="1">  1       21 0.14589046E-01 0.48478033E+03</pdfrwt>
<pdfrwt beam="2">  1       21 0.87093405E-01 0.48478033E+03</pdfrwt>
<totfact> 0.42488456E+04</totfact>
</mgrwt>
</event>
<event>
 6    0  0.1539497E-004  0.4251488E+03  0.7546771E-02  0.1035403E+00
         21   -1    0    0  502  501  0.00000000000E+00  0.00000000000E+00  0.87419109195E+02  0.87419109195E+02  0.00000000000E+00 0. -1.
         21   -1    0    0  501  502 -0.00000000000E+00 -0.00000000000E+00 -0.51691076577E+03  0.51691076577E+03  0.00000000000E+00 0. -1.
      99925    2    1    2    0    0  0.17757591224E+02  0.28071378575E+02 -0.17113402454E+03  0.31536705993E+03  0.26280447826E+03 0.  0.
         25    1    3    3    0    0  0.39938361034E+02  0.44683374903E+00 -0.11179472266E+03  0.17245532887E+03  0.12509000000E+03 0.  0.
         25    1    1    2    0    0 -0.17757591224E+02 -0.28071378575E+02 -0.25835763204E+03  0.28896281503E+03  0.12509000000E+03 0.  0.
         25    1    3    3    0    0 -0.22180769810E+02  0.27624544826E+02 -0.59339301881E+02  0.14291173106E+03  0.12509000000E+03 0.  0.
<mgrwt>
<rscale>  2 0.42514881E+03</rscale>
<asrwt>0</asrwt>
<pdfrwt beam="1">  1       21 0.12855752E-01 0.42514881E+03</pdfrwt>
<pdfrwt beam="2">  1       21 0.76016285E-01 0.42514881E+03</pdfrwt>
<totfact> 0.74481309E+04</totfact>
</mgrwt>
</event>
<event>
 6    0  0.1539497E-004  0.4036280E+03  0.7546771E-02  0.1042531E+00
         21   -1    0    0  502  501  0.00000000000E+00  0.00000000000E+00  0.37338444807E+03  0.37338444807E+03  0.00000000000E+00 0. -1.
         21   -1    0    0  501  502 -0.00000000000E+00 -0.00000000000E+00 -0.10908032898E+03  0.10908032898E+03  0.00000000000E+00 0. -1.
      99925    2    1    2    0    0  0.26007820139E+02 -0.24291241766E+02  0.22123167073E+03  0.34546399222E+03  0.26293620263E+03 0.  0.
         25    1    3    3    0    0  0.11726016482E+02  0.21370311483E+02  0.13768886474E+03  0.18761642052E+03  0.12509000000E+03 0.  0.
         25    1    1    2    0    0 -0.26007820139E+02  0.24291241766E+02  0.43072448368E+02  0.13700078483E+03  0.12509000000E+03 0.  0.
         25    1    3    3    0    0  0.14281803657E+02 -0.45661553249E+02  0.83542805987E+02  0.15784757170E+03  0.12509000000E+03 0.  0.
<mgrwt>
<rscale>  2 0.40362804E+03</rscale>
<asrwt>0</asrwt>
<pdfrwt beam="1">  1       21 0.54909477E-01 0.40362804E+03</pdfrwt>
<pdfrwt beam="2">  1       21 0.16041225E-01 0.40362804E+03</pdfrwt>
<totfact> 0.10225647E+05</totfact>
</mgrwt>
</event>
<event>
 6    0  0.1539497E-004  0.3922855E+03  0.7546771E-02  0.1046484E+00
         21   -1    0    0  502  501  0.00000000000E+00  0.00000000000E+00  0.43971287562E+03  0.43971287562E+03  0.00000000000E+00 0.  1.
         21   -1    0    0  501  502 -0.00000000000E+00 -0.00000000000E+00 -0.87493424162E+02  0.87493424162E+02  0.00000000000E+00 0.  1.
      99925    2    1    2    0    0 -0.88447282714E+01 -0.14268080015E+02  0.21100556675E+03  0.33781074371E+03  0.26326971349E+03 0.  0.
         25    1    3    3    0    0 -0.38625012548E+02 -0.24495593459E+02  0.12587447984E+03  0.18325888374E+03  0.12509000000E+03 0.  0.
         25    1    1    2    0    0  0.88447282714E+01  0.14268080015E+02  0.14121388471E+03  0.18939555607E+03  0.12509000000E+03 0.  0.
         25    1    3    3    0    0  0.29780284276E+02  0.10227513443E+02  0.85131086912E+02  0.15455185997E+03  0.12509000000E+03 0.  0.
<mgrwt>
<rscale>  2 0.39228553E+03</rscale>
<asrwt>0</asrwt>
<pdfrwt beam="1">  1       21 0.64663657E-01 0.39228553E+03</pdfrwt>
<pdfrwt beam="2">  1       21 0.12866680E-01 0.39228553E+03</pdfrwt>
<totfact> 0.10772576E+05</totfact>
</mgrwt>
</event>
<event>
 6    0  0.1539497E-004  0.4508997E+03  0.7546771E-02  0.1027454E+00
         21   -1    0    0  502  501  0.00000000000E+00  0.00000000000E+00  0.13729266597E+04  0.13729266597E+04  0.00000000000E+00 0. -1.
         21   -1    0    0  501  502 -0.00000000000E+00 -0.00000000000E+00 -0.37021382112E+02  0.37021382112E+02  0.00000000000E+00 0. -1.
      99925    2    1    2    0    0 -0.82491950679E+02  0.68241864799E+02  0.91263720178E+03  0.95578370356E+03  0.26297138985E+03 0.  0.
         25    1    3    3    0    0 -0.21084599444E+02  0.68527596687E+02  0.48937396164E+03  0.51017151457E+03  0.12509000000E+03 0.  0.
         25    1    1    2    0    0  0.82491950679E+02 -0.68241864799E+02  0.42326807577E+03  0.45416433821E+03  0.12509000000E+03 0.  0.
         25    1    3    3    0    0 -0.61407351235E+02 -0.28573188827E+00  0.42326324014E+03  0.44561218899E+03  0.12509000000E+03 0.  0.
<mgrwt>
<rscale>  2 0.45089973E+03</rscale>
<asrwt>0</asrwt>
<pdfrwt beam="1">  1       21 0.20190095E+00 0.45089973E+03</pdfrwt>
<pdfrwt beam="2">  1       21 0.54443218E-02 0.45089973E+03</pdfrwt>
<totfact> 0.26915556E+04</totfact>
</mgrwt>
</event>
<event>
 6    0  0.1539497E-004  0.4105260E+03  0.7546771E-02  0.1040195E+00
         21   -1    0    0  502  501  0.00000000000E+00  0.00000000000E+00  0.16856751220E+03  0.16856751220E+03  0.00000000000E+00 0. -1.
         21   -1    0    0  501  502 -0.00000000000E+00 -0.00000000000E+00 -0.24994674271E+03  0.24994674271E+03  0.00000000000E+00 0. -1.
      99925    2    1    2    0    0 -0.28294305002E+02  0.51657832072E+02 -0.76086935401E+02  0.28015018516E+03  0.26310797251E+03 0.  0.
         25    1    1    2    0    0  0.28294305002E+02 -0.51657832072E+02 -0.52922951075E+01  0.13836406975E+03  0.12509000000E+03 0.  0.
         25    1    3    3    0    0 -0.82289024515E+01  0.65229945557E+02 -0.28641271592E+02  0.14418908132E+03  0.12509000000E+03 0.  0.
         25    1    3    3    0    0 -0.20065402551E+02 -0.13572113485E+02 -0.47445663809E+02  0.13596110384E+03  0.12509000000E+03 0.  0.
<mgrwt>
<rscale>  2 0.41052601E+03</rscale>
<asrwt>0</asrwt>
<pdfrwt beam="1">  1       21 0.24789340E-01 0.41052601E+03</pdfrwt>
<pdfrwt beam="2">  1       21 0.36756873E-01 0.41052601E+03</pdfrwt>
<totfact> 0.10338654E+05</totfact>
</mgrwt>
</event>
<event>
 6    0  0.1539497E-004  0.4094032E+03  0.7546771E-02  0.1040571E+00
         21   -1    0    0  502  501  0.00000000000E+00  0.00000000000E+00  0.14776870856E+03  0.14776870856E+03  0.00000000000E+00 0. -1.
         21   -1    0    0  501  502 -0.00000000000E+00 -0.00000000000E+00 -0.28356983166E+03  0.28356983166E+03  0.00000000000E+00 0. -1.
      99925    2    1    2    0    0 -0.25572752709E+02  0.16041122610E+02 -0.33295949939E+02  0.26682075418E+03  0.26300838634E+03 0.  0.
         25    1    1    2    0    0  0.25572752709E+02 -0.16041122610E+02 -0.10250517317E+03  0.16451778603E+03  0.12509000000E+03 0.  0.
         25    1    3    3    0    0  0.20944708252E+02 -0.10960552334E+02 -0.29126381691E+02  0.13059352481E+03  0.12509000000E+03 0.  0.
         25    1    3    3    0    0 -0.46517460961E+02  0.27001674944E+02 -0.41695682477E+01  0.13622722938E+03  0.12509000000E+03 0.  0.
<mgrwt>
<rscale>  2 0.40940321E+03</rscale>
<asrwt>0</asrwt>
<pdfrwt beam="1">  1       21 0.21730693E-01 0.40940321E+03</pdfrwt>
<pdfrwt beam="2">  1       21 0.41701445E-01 0.40940321E+03</pdfrwt>
<totfact> 0.10290573E+05</totfact>
</mgrwt>
</event>
<event>
 6    0  0.1539497E-004  0.3972269E+03  0.7546771E-02  0.1044744E+00
         21   -1    0    0  502  501  0.00000000000E+00  0.00000000000E+00  0.36061423401E+03  0.36061423401E+03  0.00000000000E+00 0.  1.
         21   -1    0    0  501  502 -0.00000000000E+00 -0.00000000000E+00 -0.10938921874E+03  0.10938921874E+03  0.00000000000E+00 0.  1.
      99925    2    1    2    0    0  0.33442745756E+02 -0.19456985021E+02  0.17867088475E+03  0.32030842456E+03  0.26301560843E+03 0.  0.
         25    1    3    3    0    0  0.42019103983E+02  0.14288928501E+02  0.65249904782E+02  0.14790144270E+03  0.12509000000E+03 0.  0.
         25    1    3    3    0    0 -0.85763582266E+01 -0.33745913522E+02  0.11342097996E+03  0.17240698186E+03  0.12509000000E+03 0.  0.
         25    1    1    2    0    0 -0.33442745756E+02  0.19456985021E+02  0.72554130521E+02  0.14969502819E+03  0.12509000000E+03 0.  0.
<mgrwt>
<rscale>  2 0.39722693E+03</rscale>
<asrwt>0</asrwt>
<pdfrwt beam="1">  1       21 0.53031505E-01 0.39722693E+03</pdfrwt>
<pdfrwt beam="2">  1       21 0.16086650E-01 0.39722693E+03</pdfrwt>
<totfact> 0.10975412E+05</totfact>
</mgrwt>
</event>
<event>
 6    0  0.1539497E-004  0.4728253E+03  0.7546771E-02  0.1021126E+00
         21   -1    0    0  502  501  0.00000000000E+00  0.00000000000E+00  0.18107968688E+03  0.18107968688E+03  0.00000000000E+00 0. -1.
         21   -1    0    0  501  502 -0.00000000000E+00 -0.00000000000E+00 -0.30865379775E+03  0.30865379775E+03  0.00000000000E+00 0. -1.
      99925    2    1    2    0    0  0.89148206110E+02 -0.92122110265E+02 -0.62520708299E+02  0.29917289286E+03  0.26298611180E+03 0.  0.
         25    1    3    3    0    0  0.14090275989E+02 -0.22737900877E+02 -0.61025857417E+01  0.12806364694E+03  0.12509000000E+03 0.  0.
         25    1    1    2    0    0 -0.89148206110E+02  0.92122110265E+02 -0.65053402574E+02  0.19056059178E+03  0.12509000000E+03 0.  0.
         25    1    3    3    0    0  0.75057930122E+02 -0.69384209388E+02 -0.56418122557E+02  0.17110924592E+03  0.12509000000E+03 0.  0.
<mgrwt>
<rscale>  2 0.47282527E+03</rscale>
<asrwt>0</asrwt>
<pdfrwt beam="1">  1       21 0.26629366E-01 0.47282527E+03</pdfrwt>
<pdfrwt beam="2">  1       21 0.45390264E-01 0.47282527E+03</pdfrwt>
<totfact> 0.57432275E+04</totfact>
</mgrwt>
</event>
<event>
 6    0  0.1539497E-004  0.4085783E+03  0.7546771E-02  0.1040849E+00
         21   -1    0    0  502  501  0.00000000000E+00  0.00000000000E+00  0.10422462934E+04  0.10422462934E+04  0.00000000000E+00 0. -1.
         21   -1    0    0  501  502 -0.00000000000E+00 -0.00000000000E+00 -0.40042419655E+02  0.40042419655E+02  0.00000000000E+00 0. -1.
      99925    2    1    2    0    0 -0.31133482922E+02 -0.51253914757E+02  0.66959656288E+03  0.72191198118E+03  0.26306100815E+03 0.  0.
         25    1    1    2    0    0  0.31133482922E+02  0.51253914757E+02  0.33260731084E+03  0.36037673185E+03  0.12509000000E+03 0.  0.
         25    1    3    3    0    0 -0.25975120438E+02 -0.61510096007E+02  0.30674935473E+03  0.33793619741E+03  0.12509000000E+03 0.  0.
         25    1    3    3    0    0 -0.51583624840E+01  0.10256181250E+02  0.36284720815E+03  0.38397578377E+03  0.12509000000E+03 0.  0.
<mgrwt>
<rscale>  2 0.40857833E+03</rscale>
<asrwt>0</asrwt>
<pdfrwt beam="1">  1       21 0.15327150E+00 0.40857833E+03</pdfrwt>
<pdfrwt beam="2">  1       21 0.58885918E-02 0.40857833E+03</pdfrwt>
<totfact> 0.52798096E+04</totfact>
</mgrwt>
</event>
<event>
 6    0  0.1539497E-004  0.4630408E+03  0.7546771E-02  0.1023903E+00
         21   -1    0    0  502  501  0.00000000000E+00  0.00000000000E+00  0.37685096488E+03  0.37685096488E+03  0.00000000000E+00 0. -1.
         21   -1    0    0  501  502 -0.00000000000E+00 -0.00000000000E+00 -0.14223579435E+03  0.14223579435E+03  0.00000000000E+00 0. -1.
      99925    2    1    2    0    0  0.21260748657E+02  0.82636054670E+02  0.51199479334E+02  0.28124319543E+03  0.26305058702E+03 0.  0.
         25    1    3    3    0    0  0.24487300417E+02  0.53851226396E+01  0.73552472661E+01  0.12778980863E+03  0.12509000000E+03 0.  0.
         25    1    1    2    0    0 -0.21260748657E+02 -0.82636054670E+02  0.18341569119E+03  0.23784356380E+03  0.12509000000E+03 0.  0.
         25    1    3    3    0    0 -0.32265517596E+01  0.77250932030E+02  0.43844232068E+02  0.15345338680E+03  0.12509000000E+03 0.  0.
<mgrwt>
<rscale>  2 0.46304080E+03</rscale>
<asrwt>0</asrwt>
<pdfrwt beam="1">  1       21 0.55419260E-01 0.46304080E+03</pdfrwt>
<pdfrwt beam="2">  1       21 0.20917029E-01 0.46304080E+03</pdfrwt>
<totfact> 0.60027059E+04</totfact>
</mgrwt>
</event>
<event>
 6    0  0.1539497E-004  0.4669696E+03  0.7546771E-02  0.1022779E+00
         21   -1    0    0  502  501  0.00000000000E+00  0.00000000000E+00  0.31014648521E+03  0.31014648521E+03  0.00000000000E+00 0. -1.
         21   -1    0    0  501  502 -0.00000000000E+00 -0.00000000000E+00 -0.17577223692E+03  0.17577223692E+03  0.00000000000E+00 0. -1.
      99925    2    1    2    0    0 -0.70813153831E+02  0.84172434105E+02  0.14333566824E+03  0.31910350530E+03  0.26302553466E+03 0.  0.
         25    1    3    3    0    0 -0.10080347471E+02  0.62143637274E+02  0.99001823021E+02  0.17150018694E+03  0.12509000000E+03 0.  0.
         25    1    3    3    0    0 -0.60732806360E+02  0.22028796831E+02  0.44333845220E+02  0.14760331836E+03  0.12509000000E+03 0.  0.
         25    1    1    2    0    0  0.70813153831E+02 -0.84172434105E+02 -0.89614199444E+01  0.16681521683E+03  0.12509000000E+03 0.  0.
<mgrwt>
<rscale>  2 0.46696956E+03</rscale>
<asrwt>0</asrwt>
<pdfrwt beam="1">  1       21 0.45609777E-01 0.46696956E+03</pdfrwt>
<pdfrwt beam="2">  1       21 0.25848858E-01 0.46696956E+03</pdfrwt>
<totfact> 0.60332932E+04</totfact>
</mgrwt>
</event>
<event>
 6    0  0.1539497E-004  0.4293630E+03  0.7546771E-02  0.1034061E+00
         21   -1    0    0  502  501  0.00000000000E+00  0.00000000000E+00  0.20153897621E+03  0.20153897621E+03  0.00000000000E+00 0.  1.
         21   -1    0    0  501  502 -0.00000000000E+00 -0.00000000000E+00 -0.22868101265E+03  0.22868101265E+03  0.00000000000E+00 0.  1.
      99925    2    1    2    0    0 -0.56520861590E+02 -0.46641780752E+02 -0.64622168865E+02  0.28047910623E+03  0.26291146954E+03 0.  0.
         25    1    3    3    0    0 -0.50714514451E+02 -0.14103910331E+02 -0.66392861057E+02  0.15108409037E+03  0.12509000000E+03 0.  0.
         25    1    3    3    0    0 -0.58063471392E+01 -0.32537870421E+02  0.17706921915E+01  0.12939501586E+03  0.12509000000E+03 0.  0.
         25    1    1    2    0    0  0.56520861590E+02  0.46641780752E+02  0.37480132426E+02  0.14974088264E+03  0.12509000000E+03 0.  0.
<mgrwt>
<rscale>  2 0.42936296E+03</rscale>
<asrwt>0</asrwt>
<pdfrwt beam="1">  1       21 0.29638085E-01 0.42936296E+03</pdfrwt>
<pdfrwt beam="2">  1       21 0.33629561E-01 0.42936296E+03</pdfrwt>
<totfact> 0.86852837E+04</totfact>
</mgrwt>
</event>
<event>
 6    0  0.1539497E-004  0.4691916E+03  0.7546771E-02  0.1022149E+00
         21   -1    0    0  502  501  0.00000000000E+00  0.00000000000E+00  0.23115914379E+03  0.23115914379E+03  0.00000000000E+00 0. -1.
         21   -1    0    0  501  502 -0.00000000000E+00 -0.00000000000E+00 -0.23808357710E+03  0.23808357710E+03  0.00000000000E+00 0. -1.
      99925    2    1    2    0    0  0.96811346154E+02  0.53520758534E+02 -0.64719093977E+02  0.29253777121E+03  0.26296934826E+03 0.  0.
         25    1    3    3    0    0  0.53706483964E+02  0.66403157190E+02 -0.22927938284E+02  0.15318930824E+03  0.12509000000E+03 0.  0.
         25    1    1    2    0    0 -0.96811346154E+02 -0.53520758534E+02  0.57794660674E+02  0.17670494968E+03  0.12509000000E+03 0.  0.
         25    1    3    3    0    0  0.43104862190E+02 -0.12882398655E+02 -0.41791155693E+02  0.13934846298E+03  0.12509000000E+03 0.  0.
<mgrwt>
<rscale>  2 0.46919163E+03</rscale>
<asrwt>0</asrwt>
<pdfrwt beam="1">  1       21 0.33993992E-01 0.46919163E+03</pdfrwt>
<pdfrwt beam="2">  1       21 0.35012291E-01 0.46919163E+03</pdfrwt>
<totfact> 0.60382222E+04</totfact>
</mgrwt>
</event>
<event>
 6    0  0.1539497E-004  0.4475930E+03  0.7546771E-02  0.1028442E+00
         21   -1    0    0  502  501  0.00000000000E+00  0.00000000000E+00  0.23759031091E+03  0.23759031091E+03  0.00000000000E+00 0. -1.
         21   -1    0    0  501  502 -0.00000000000E+00 -0.00000000000E+00 -0.21080349806E+03  0.21080349806E+03  0.00000000000E+00 0. -1.
      99925    2    1    2    0    0  0.93721646579E+02 -0.40065632645E+02 -0.12153122640E+02  0.28240336156E+03  0.26308735864E+03 0.  0.
         25    1    3    3    0    0  0.72132137069E+02  0.96133259218E+01 -0.18766808868E+02  0.14592862107E+03  0.12509000000E+03 0.  0.
         25    1    1    2    0    0 -0.93721646579E+02  0.40065632645E+02  0.38939935487E+02  0.16599044741E+03  0.12509000000E+03 0.  0.
         25    1    3    3    0    0  0.21589509510E+02 -0.49678958566E+02  0.66136862289E+01  0.13647474049E+03  0.12509000000E+03 0.  0.
<mgrwt>
<rscale>  2 0.44759298E+03</rscale>
<asrwt>0</asrwt>
<pdfrwt beam="1">  1       21 0.34939752E-01 0.44759298E+03</pdfrwt>
<pdfrwt beam="2">  1       21 0.31000514E-01 0.44759298E+03</pdfrwt>
<totfact> 0.73267794E+04</totfact>
</mgrwt>
</event>
<event>
 6    0  0.1539497E-004  0.4072649E+03  0.7546771E-02  0.1041293E+00
         21   -1    0    0  502  501  0.00000000000E+00  0.00000000000E+00  0.30214010001E+02  0.30214010001E+02  0.00000000000E+00 0. -1.
         21   -1    0    0  501  502 -0.00000000000E+00 -0.00000000000E+00 -0.13724152062E+04  0.13724152062E+04  0.00000000000E+00 0. -1.
      99925    2    1    2    0    0  0.33952620928E+02  0.41161666814E+02 -0.80794265630E+03  0.85133368853E+03  0.26296511187E+03 0.  0.
         25    1    3    3    0    0 -0.38292202587E+01  0.23958182541E+02 -0.50752869776E+03  0.52327960460E+03  0.12509000000E+03 0.  0.
         25    1    3    3    0    0  0.37781841187E+02  0.17203484273E+02 -0.30041395854E+03  0.32805408393E+03  0.12509000000E+03 0.  0.
         25    1    1    2    0    0 -0.33952620928E+02 -0.41161666814E+02 -0.53425853994E+03  0.55129552772E+03  0.12509000000E+03 0.  0.
<mgrwt>
<rscale>  2 0.40726486E+03</rscale>
<asrwt>0</asrwt>
<pdfrwt beam="1">  1       21 0.44432373E-02 0.40726486E+03</pdfrwt>
<pdfrwt beam="2">  1       21 0.20182574E+00 0.40726486E+03</pdfrwt>
<totfact> 0.38773716E+04</totfact>
</mgrwt>
</event>
<event>
 6    0  0.1539497E-004  0.4114385E+03  0.7546771E-02  0.1039889E+00
         21   -1    0    0  502  501  0.00000000000E+00  0.00000000000E+00  0.50601160975E+02  0.50601160975E+02  0.00000000000E+00 0. -1.
         21   -1    0    0  501  502 -0.00000000000E+00 -0.00000000000E+00 -0.83635247938E+03  0.83635247938E+03  0.00000000000E+00 0. -1.
      99925    2    1    2    0    0 -0.19989069837E+02  0.26486662185E+02 -0.39809048482E+03  0.47826116895E+03  0.26297643513E+03 0.  0.
         25    1    3    3    0    0 -0.64486680531E+01  0.50562410704E+02 -0.17581014344E+03  0.22170894734E+03  0.12509000000E+03 0.  0.
         25    1    3    3    0    0 -0.13540401784E+02 -0.24075748518E+02 -0.22228034138E+03  0.25655222161E+03  0.12509000000E+03 0.  0.
         25    1    1    2    0    0  0.19989069837E+02 -0.26486662185E+02 -0.38766083359E+03  0.40869247140E+03  0.12509000000E+03 0.  0.
<mgrwt>
<rscale>  2 0.41143848E+03</rscale>
<asrwt>0</asrwt>
<pdfrwt beam="1">  1       21 0.74413476E-02 0.41143848E+03</pdfrwt>
<pdfrwt beam="2">  1       21 0.12299300E+00 0.41143848E+03</pdfrwt>
<totfact> 0.62560327E+04</totfact>
</mgrwt>
</event>
<event>
 6    0  0.1539497E-004  0.4205279E+03  0.7546771E-02  0.1036895E+00
         21   -1    0    0  502  501  0.00000000000E+00  0.00000000000E+00  0.35560622161E+03  0.35560622161E+03  0.00000000000E+00 0. -1.
         21   -1    0    0  501  502 -0.00000000000E+00 -0.00000000000E+00 -0.12432552047E+03  0.12432552047E+03  0.00000000000E+00 0. -1.
      99925    2    1    2    0    0 -0.48544952233E+02  0.56832299739E+02  0.16915328778E+03  0.32152136909E+03  0.26301451164E+03 0.  0.
         25    1    3    3    0    0 -0.57283392704E+02  0.35845409400E+02  0.11689888542E+03  0.18406286417E+03  0.12509000000E+03 0.  0.
         25    1    1    2    0    0  0.48544952233E+02 -0.56832299739E+02  0.62127413356E+02  0.15841037299E+03  0.12509000000E+03 0.  0.
         25    1    3    3    0    0  0.87384404703E+01  0.20986890339E+02  0.52254402359E+02  0.13745850492E+03  0.12509000000E+03 0.  0.
<mgrwt>
<rscale>  2 0.42052790E+03</rscale>
<asrwt>0</asrwt>
<pdfrwt beam="1">  1       21 0.52295032E-01 0.42052790E+03</pdfrwt>
<pdfrwt beam="2">  1       21 0.18283165E-01 0.42052790E+03</pdfrwt>
<totfact> 0.88566967E+04</totfact>
</mgrwt>
</event>
<event>
 6    0  0.1539497E-004  0.4059985E+03  0.7546771E-02  0.1041722E+00
         21   -1    0    0  502  501  0.00000000000E+00  0.00000000000E+00  0.43071947549E+02  0.43071947549E+02  0.00000000000E+00 0. -1.
         21   -1    0    0  501  502 -0.00000000000E+00 -0.00000000000E+00 -0.95674108144E+03  0.95674108144E+03  0.00000000000E+00 0. -1.
      99925    2    1    2    0    0 -0.45879330825E+02 -0.13021418837E+02 -0.67772539946E+03  0.72853563542E+03  0.26301708054E+03 0.  0.
         25    1    3    3    0    0 -0.41148905622E+01 -0.60284456131E+01 -0.42899204356E+03  0.44691716908E+03  0.12509000000E+03 0.  0.
         25    1    3    3    0    0 -0.41764440263E+02 -0.69929732235E+01 -0.24873335590E+03  0.28161846634E+03  0.12509000000E+03 0.  0.
         25    1    1    2    0    0  0.45879330825E+02  0.13021418837E+02 -0.23594373443E+03  0.27127739357E+03  0.12509000000E+03 0.  0.
<mgrwt>
<rscale>  2 0.40599853E+03</rscale>
<asrwt>0</asrwt>
<pdfrwt beam="1">  1       21 0.63341097E-02 0.40599853E+03</pdfrwt>
<pdfrwt beam="2">  1       21 0.14069722E+00 0.40599853E+03</pdfrwt>
<totfact> 0.58584474E+04</totfact>
</mgrwt>
</event>
<event>
 6    0  0.1539497E-004  0.4017814E+03  0.7546771E-02  0.1043165E+00
         21   -1    0    0  502  501  0.00000000000E+00  0.00000000000E+00  0.75532892890E+03  0.75532892890E+03  0.00000000000E+00 0. -1.
         21   -1    0    0  501  502 -0.00000000000E+00 -0.00000000000E+00 -0.53429798157E+02  0.53429798157E+02  0.00000000000E+00 0. -1.
      99925    2    1    2    0    0 -0.10103725009E+02 -0.47628210710E+02  0.47393835269E+03  0.54421353971E+03  0.26302144959E+03 0.  0.
         25    1    1    2    0    0  0.10103725009E+02  0.47628210710E+02  0.22796077806E+03  0.26454518734E+03  0.12509000000E+03 0.  0.
         25    1    3    3    0    0 -0.28386791754E+02 -0.53328587757E+02  0.21443643494E+03  0.25549998228E+03  0.12509000000E+03 0.  0.
         25    1    3    3    0    0  0.18283066745E+02  0.57003770477E+01  0.25950191775E+03  0.28871355743E+03  0.12509000000E+03 0.  0.
<mgrwt>
<rscale>  2 0.40178139E+03</rscale>
<asrwt>0</asrwt>
<pdfrwt beam="1">  1       21 0.11107778E+00 0.40178139E+03</pdfrwt>
<pdfrwt beam="2">  1       21 0.78573237E-02 0.40178139E+03</pdfrwt>
<totfact> 0.73589391E+04</totfact>
</mgrwt>
</event>
<event>
 6    0  0.1539497E-004  0.4471074E+03  0.7546771E-02  0.1028588E+00
         21   -1    0    0  502  501  0.00000000000E+00  0.00000000000E+00  0.22401543956E+03  0.22401543956E+03  0.00000000000E+00 0. -1.
         21   -1    0    0  501  502 -0.00000000000E+00 -0.00000000000E+00 -0.22309294727E+03  0.22309294727E+03  0.00000000000E+00 0. -1.
      99925    2    1    2    0    0  0.87219797209E+02 -0.56288105181E+02 -0.18897645672E+02  0.28335250212E+03  0.26297504755E+03 0.  0.
         25    1    1    2    0    0 -0.87219797209E+02  0.56288105181E+02  0.19820137961E+02  0.16375588472E+03  0.12509000000E+03 0.  0.
         25    1    3    3    0    0  0.17133861096E+02 -0.14836957046E+02 -0.38463759998E+02  0.13281819688E+03  0.12509000000E+03 0.  0.
         25    1    3    3    0    0  0.70085936113E+02 -0.41451148134E+02  0.19566114326E+02  0.15053430523E+03  0.12509000000E+03 0.  0.
<mgrwt>
<rscale>  2 0.44710744E+03</rscale>
<asrwt>0</asrwt>
<pdfrwt beam="1">  1       21 0.32943447E-01 0.44710744E+03</pdfrwt>
<pdfrwt beam="2">  1       21 0.32807786E-01 0.44710744E+03</pdfrwt>
<totfact> 0.73658279E+04</totfact>
</mgrwt>
</event>
<event>
 6    0  0.1539497E-004  0.4128572E+03  0.7546771E-02  0.1039416E+00
         21   -1    0    0  502  501  0.00000000000E+00  0.00000000000E+00  0.63174525747E+02  0.63174525747E+02  0.00000000000E+00 0.  1.
         21   -1    0    0  501  502 -0.00000000000E+00 -0.00000000000E+00 -0.67452460443E+03  0.67452460443E+03  0.00000000000E+00 0.  1.
      99925    2    1    2    0    0  0.12873918969E+02  0.15476093072E+02 -0.28843617603E+03  0.39081853996E+03  0.26294192569E+03 0.  0.
         25    1    3    3    0    0  0.29485646758E+01 -0.14396597532E+02 -0.92635705352E+02  0.15634845078E+03  0.12509000000E+03 0.  0.
         25    1    1    2    0    0 -0.12873918969E+02 -0.15476093072E+02 -0.32291390265E+03  0.34688059022E+03  0.12509000000E+03 0.  0.
         25    1    3    3    0    0  0.99253542937E+01  0.29872690604E+02 -0.19580047068E+03  0.23447008918E+03  0.12509000000E+03 0.  0.
<mgrwt>
<rscale>  2 0.41285722E+03</rscale>
<asrwt>0</asrwt>
<pdfrwt beam="1">  1       21 0.92903713E-02 0.41285722E+03</pdfrwt>
<pdfrwt beam="2">  1       21 0.99194797E-01 0.41285722E+03</pdfrwt>
<totfact> 0.71936589E+04</totfact>
</mgrwt>
</event>
<event>
 6    0  0.1539497E-004  0.4474434E+03  0.7546771E-02  0.1028487E+00
         21   -1    0    0  502  501  0.00000000000E+00  0.00000000000E+00  0.24758613125E+03  0.24758613125E+03  0.00000000000E+00 0. -1.
         21   -1    0    0  501  502 -0.00000000000E+00 -0.00000000000E+00 -0.20215750128E+03  0.20215750128E+03  0.00000000000E+00 0. -1.
      99925    2    1    2    0    0  0.36330304964E+02  0.96131557589E+02  0.30800827050E+01  0.28240542715E+03  0.26302503864E+03 0.  0.
         25    1    1    2    0    0 -0.36330304964E+02 -0.96131557589E+02  0.42348547258E+02  0.16733820537E+03  0.12509000000E+03 0.  0.
         25    1    3    3    0    0  0.37095349274E+02  0.64054401104E+02 -0.31483614575E+02  0.14872039983E+03  0.12509000000E+03 0.  0.
         25    1    3    3    0    0 -0.76504431022E+00  0.32077156484E+02  0.34563697280E+02  0.13368502732E+03  0.12509000000E+03 0.  0.
<mgrwt>
<rscale>  2 0.44744338E+03</rscale>
<asrwt>0</asrwt>
<pdfrwt beam="1">  1       21 0.36409725E-01 0.44744338E+03</pdfrwt>
<pdfrwt beam="2">  1       21 0.29729044E-01 0.44744338E+03</pdfrwt>
<totfact> 0.73250281E+04</totfact>
</mgrwt>
</event>
<event>
 6    0  0.1539497E-004  0.4552783E+03  0.7546771E-02  0.1026160E+00
         21   -1    0    0  502  501  0.00000000000E+00  0.00000000000E+00  0.22397962705E+03  0.22397962705E+03  0.00000000000E+00 0.  1.
         21   -1    0    0  501  502 -0.00000000000E+00 -0.00000000000E+00 -0.23135848708E+03  0.23135848708E+03  0.00000000000E+00 0.  1.
      99925    2    1    2    0    0 -0.76619215878E+02 -0.21005987895E+02 -0.85778098147E+02  0.28769055403E+03  0.26286159284E+03 0.  0.
         25    1    3    3    0    0 -0.50441983651E+02 -0.48301152388E+01 -0.38367140992E+01  0.13501834025E+03  0.12509000000E+03 0.  0.
         25    1    1    2    0    0  0.76619215878E+02  0.21005987895E+02  0.78399238115E+02  0.16764756010E+03  0.12509000000E+03 0.  0.
         25    1    3    3    0    0 -0.26177232227E+02 -0.16175872656E+02 -0.81941384048E+02  0.15267221379E+03  0.12509000000E+03 0.  0.
<mgrwt>
<rscale>  2 0.45527832E+03</rscale>
<asrwt>0</asrwt>
<pdfrwt beam="1">  1       21 0.32938181E-01 0.45527832E+03</pdfrwt>
<pdfrwt beam="2">  1       21 0.34023307E-01 0.45527832E+03</pdfrwt>
<totfact> 0.68369076E+04</totfact>
</mgrwt>
</event>
<event>
 6    0  0.1539497E-004  0.4086205E+03  0.7546771E-02  0.1040835E+00
         21   -1    0    0  502  501  0.00000000000E+00  0.00000000000E+00  0.27533549012E+03  0.27533549012E+03  0.00000000000E+00 0. -1.
         21   -1    0    0  501  502 -0.00000000000E+00 -0.00000000000E+00 -0.15160663058E+03  0.15160663058E+03  0.00000000000E+00 0. -1.
      99925    2    1    2    0    0  0.40238150095E+02 -0.36057226307E+02  0.54916273504E+02  0.27429248137E+03  0.26325146903E+03 0.  0.
         25    1    3    3    0    0  0.28560094011E+02  0.15001095207E+02  0.34099828356E+01  0.12922789138E+03  0.12509000000E+03 0.  0.
         25    1    3    3    0    0  0.11678056084E+02 -0.51058321513E+02  0.51506290668E+02  0.14506458999E+03  0.12509000000E+03 0.  0.
         25    1    1    2    0    0 -0.40238150095E+02  0.36057226307E+02  0.68812586037E+02  0.15264963934E+03  0.12509000000E+03 0.  0.
<mgrwt>
<rscale>  2 0.40862054E+03</rscale>
<asrwt>0</asrwt>
<pdfrwt beam="1">  1       21 0.40490513E-01 0.40862054E+03</pdfrwt>
<pdfrwt beam="2">  1       21 0.22295093E-01 0.40862054E+03</pdfrwt>
<totfact> 0.10412960E+05</totfact>
</mgrwt>
</event>
<event>
 6    0  0.1539497E-004  0.4204777E+03  0.7546771E-02  0.1036911E+00
         21   -1    0    0  502  501  0.00000000000E+00  0.00000000000E+00  0.40277408114E+03  0.40277408114E+03  0.00000000000E+00 0. -1.
         21   -1    0    0  501  502 -0.00000000000E+00 -0.00000000000E+00 -0.10973985310E+03  0.10973985310E+03  0.00000000000E+00 0. -1.
      99925    2    1    2    0    0 -0.49122356107E+02 -0.58340825834E+02  0.19774510945E+03  0.33774499521E+03  0.26296748022E+03 0.  0.
         25    1    3    3    0    0  0.15867051902E+02 -0.20525110106E+02  0.87687487739E+02  0.15495046656E+03  0.12509000000E+03 0.  0.
         25    1    3    3    0    0 -0.64989408009E+02 -0.37815715729E+02  0.11005762171E+03  0.18279452865E+03  0.12509000000E+03 0.  0.
         25    1    1    2    0    0  0.49122356107E+02  0.58340825834E+02  0.95289118591E+02  0.17476893903E+03  0.12509000000E+03 0.  0.
<mgrwt>
<rscale>  2 0.42047767E+03</rscale>
<asrwt>0</asrwt>
<pdfrwt beam="1">  1       21 0.59231482E-01 0.42047767E+03</pdfrwt>
<pdfrwt beam="2">  1       21 0.16138214E-01 0.42047767E+03</pdfrwt>
<totfact> 0.85499574E+04</totfact>
</mgrwt>
</event>
<event>
 6    0  0.1539497E-004  0.4195004E+03  0.7546771E-02  0.1037229E+00
         21   -1    0    0  502  501  0.00000000000E+00  0.00000000000E+00  0.24258231563E+03  0.24258231563E+03  0.00000000000E+00 0.  1.
         21   -1    0    0  501  502 -0.00000000000E+00 -0.00000000000E+00 -0.18136169425E+03  0.18136169425E+03  0.00000000000E+00 0.  1.
      99925    2    1    2    0    0  0.57795701148E+02 -0.38466405107E+02  0.11122471435E+02  0.27236122682E+03  0.26312909590E+03 0.  0.
         25    1    3    3    0    0  0.59365252363E+02  0.13604522472E+01 -0.12253522734E+02  0.13900985914E+03  0.12509000000E+03 0.  0.
         25    1    3    3    0    0 -0.15695512150E+01 -0.39826857355E+02  0.23375994169E+02  0.13335136768E+03  0.12509000000E+03 0.  0.
         25    1    1    2    0    0 -0.57795701148E+02  0.38466405107E+02  0.50098149941E+02  0.15158278306E+03  0.12509000000E+03 0.  0.
<mgrwt>
<rscale>  2 0.41950037E+03</rscale>
<asrwt>0</asrwt>
<pdfrwt beam="1">  1       21 0.35673870E-01 0.41950037E+03</pdfrwt>
<pdfrwt beam="2">  1       21 0.26670837E-01 0.41950037E+03</pdfrwt>
<totfact> 0.95090879E+04</totfact>
</mgrwt>
</event>
<event>
 6    0  0.1539497E-004  0.4337684E+03  0.7546771E-02  0.1032676E+00
         21   -1    0    0  502  501  0.00000000000E+00  0.00000000000E+00  0.89232334488E+03  0.89232334488E+03  0.00000000000E+00 0.  1.
         21   -1    0    0  501  502 -0.00000000000E+00 -0.00000000000E+00 -0.52714911383E+02  0.52714911383E+02  0.00000000000E+00 0.  1.
      99925    2    1    2    0    0  0.86773184014E+02  0.40772529921E+01  0.60405403028E+03  0.66453942484E+03  0.26303073245E+03 0.  0.
         25    1    3    3    0    0  0.41801359778E+02 -0.32420090186E+02  0.24839179906E+03  0.28309788037E+03  0.12509000000E+03 0.  0.
         25    1    1    2    0    0 -0.86773184014E+02 -0.40772529921E+01  0.23555440322E+03  0.28049883142E+03  0.12509000000E+03 0.  0.
         25    1    3    3    0    0  0.44971824235E+02  0.36497343178E+02  0.35566223122E+03  0.38144154447E+03  0.12509000000E+03 0.  0.
<mgrwt>
<rscale>  2 0.43376835E+03</rscale>
<asrwt>0</asrwt>
<pdfrwt beam="1">  1       21 0.13122401E+00 0.43376835E+03</pdfrwt>
<pdfrwt beam="2">  1       21 0.77521934E-02 0.43376835E+03</pdfrwt>
<totfact> 0.48983458E+04</totfact>
</mgrwt>
</event>
<event>
 6    0  0.1539497E-004  0.4181095E+03  0.7546771E-02  0.1037683E+00
         21   -1    0    0  502  501  0.00000000000E+00  0.00000000000E+00  0.19818007011E+03  0.19818007011E+03  0.00000000000E+00 0. -1.
         21   -1    0    0  501  502 -0.00000000000E+00 -0.00000000000E+00 -0.22052618348E+03  0.22052618348E+03  0.00000000000E+00 0. -1.
      99925    2    1    2    0    0  0.36483504896E+02 -0.61527964705E+02  0.23697714912E+01  0.27250392927E+03  0.26293732919E+03 0.  0.
         25    1    3    3    0    0 -0.17280996551E+01 -0.44339972535E+02 -0.31271410122E+02  0.13636139000E+03  0.12509000000E+03 0.  0.
         25    1    1    2    0    0 -0.36483504896E+02  0.61527964705E+02 -0.24715884864E+02  0.14620232431E+03  0.12509000000E+03 0.  0.
         25    1    3    3    0    0  0.38211604551E+02 -0.17187992170E+02  0.33641181613E+02  0.13614253927E+03  0.12509000000E+03 0.  0.
<mgrwt>
<rscale>  2 0.41810953E+03</rscale>
<asrwt>0</asrwt>
<pdfrwt beam="1">  1       21 0.29144128E-01 0.41810953E+03</pdfrwt>
<pdfrwt beam="2">  1       21 0.32430321E-01 0.41810953E+03</pdfrwt>
<totfact> 0.96795679E+04</totfact>
</mgrwt>
</event>
<event>
 6    0  0.1539497E-004  0.4676005E+03  0.7546771E-02  0.1022600E+00
         21   -1    0    0  502  501  0.00000000000E+00  0.00000000000E+00  0.17398048960E+03  0.17398048960E+03  0.00000000000E+00 0.  1.
         21   -1    0    0  501  502 -0.00000000000E+00 -0.00000000000E+00 -0.31418783208E+03  0.31418783208E+03  0.00000000000E+00 0.  1.
      99925    2    1    2    0    0 -0.42756637517E+02  0.20228120486E+02  0.33054319312E+02  0.26929754141E+03  0.26304233666E+03 0.  0.
         25    1    3    3    0    0 -0.36637666678E+02  0.47771015212E+02  0.11905864752E+02  0.13933286127E+03  0.12509000000E+03 0.  0.
         25    1    3    3    0    0 -0.61189708389E+01 -0.27542894726E+02  0.21148454560E+02  0.12996468014E+03  0.12509000000E+03 0.  0.
         25    1    1    2    0    0  0.42756637517E+02 -0.20228120486E+02 -0.17326166179E+03  0.21887078027E+03  0.12509000000E+03 0.  0.
<mgrwt>
<rscale>  2 0.46760048E+03</rscale>
<asrwt>0</asrwt>
<pdfrwt beam="1">  1       21 0.25585366E-01 0.46760048E+03</pdfrwt>
<pdfrwt beam="2">  1       21 0.46204093E-01 0.46760048E+03</pdfrwt>
<totfact> 0.59892030E+04</totfact>
</mgrwt>
</event>
<event>
 6    0  0.1539497E-004  0.4147922E+03  0.7546771E-02  0.1038775E+00
         21   -1    0    0  502  501  0.00000000000E+00  0.00000000000E+00  0.10282231587E+03  0.10282231587E+03  0.00000000000E+00 0. -1.
         21   -1    0    0  501  502 -0.00000000000E+00 -0.00000000000E+00 -0.41832489154E+03  0.41832489154E+03  0.00000000000E+00 0. -1.
      99925    2    1    2    0    0  0.16160451767E+02 -0.60887502279E+02 -0.17117508106E+03  0.32003434870E+03  0.26296887237E+03 0.  0.
         25    1    3    3    0    0  0.38668817006E+02 -0.27436475407E+02 -0.11756790754E+03  0.17809480221E+03  0.12509000000E+03 0.  0.
         25    1    3    3    0    0 -0.22508365239E+02 -0.33451026872E+02 -0.53607173514E+02  0.14193954649E+03  0.12509000000E+03 0.  0.
         25    1    1    2    0    0 -0.16160451767E+02  0.60887502279E+02 -0.14432749462E+03  0.20111285871E+03  0.12509000000E+03 0.  0.
<mgrwt>
<rscale>  2 0.41479216E+03</rscale>
<asrwt>0</asrwt>
<pdfrwt beam="1">  1       21 0.15120929E-01 0.41479216E+03</pdfrwt>
<pdfrwt beam="2">  1       21 0.61518365E-01 0.41479216E+03</pdfrwt>
<totfact> 0.88917983E+04</totfact>
</mgrwt>
</event>
<event>
 6    0  0.1539497E-004  0.4685916E+03  0.7546771E-02  0.1022318E+00
         21   -1    0    0  502  501  0.00000000000E+00  0.00000000000E+00  0.79079544101E+03  0.79079544101E+03  0.00000000000E+00 0. -1.
         21   -1    0    0  501  502 -0.00000000000E+00 -0.00000000000E+00 -0.69416832741E+02  0.69416832741E+02  0.00000000000E+00 0. -1.
      99925    2    1    2    0    0 -0.55016127989E+02  0.11256417470E+03  0.43483692566E+03  0.52338722756E+03  0.26297066433E+03 0.  0.
         25    1    1    2    0    0  0.55016127989E+02 -0.11256417470E+03  0.28654168261E+03  0.33682504618E+03  0.12509000000E+03 0.  0.
         25    1    3    3    0    0 -0.39133790143E+02  0.72598514270E+02  0.16503221485E+03  0.22290163266E+03  0.12509000000E+03 0.  0.
         25    1    3    3    0    0 -0.15882337846E+02  0.39965660429E+02  0.26980471081E+03  0.30048559491E+03  0.12509000000E+03 0.  0.
<mgrwt>
<rscale>  2 0.46859157E+03</rscale>
<asrwt>0</asrwt>
<pdfrwt beam="1">  1       21 0.11629344E+00 0.46859157E+03</pdfrwt>
<pdfrwt beam="2">  1       21 0.10208358E-01 0.46859157E+03</pdfrwt>
<totfact> 0.40493169E+04</totfact>
</mgrwt>
</event>
<event>
 6    0  0.1539497E-004  0.4679671E+03  0.7546771E-02  0.1022496E+00
         21   -1    0    0  502  501  0.00000000000E+00  0.00000000000E+00  0.11792489619E+03  0.11792489619E+03  0.00000000000E+00 0. -1.
         21   -1    0    0  501  502 -0.00000000000E+00 -0.00000000000E+00 -0.46426414503E+03  0.46426414503E+03  0.00000000000E+00 0. -1.
      99925    2    1    2    0    0  0.85373014234E+02  0.82889131475E+02 -0.26314133153E+03  0.39054207093E+03  0.26290794802E+03 0.  0.
         25    1    3    3    0    0  0.24069502543E+02  0.50913139827E+02 -0.82067104221E+02  0.15985620556E+03  0.12509000000E+03 0.  0.
         25    1    3    3    0    0  0.61303511691E+02  0.31975991648E+02 -0.18107422731E+03  0.23068586537E+03  0.12509000000E+03 0.  0.
         25    1    1    2    0    0 -0.85373014234E+02 -0.82889131475E+02 -0.83197917316E+02  0.19164697029E+03  0.12509000000E+03 0.  0.
<mgrwt>
<rscale>  2 0.46796710E+03</rscale>
<asrwt>0</asrwt>
<pdfrwt beam="1">  1       21 0.17341896E-01 0.46796710E+03</pdfrwt>
<pdfrwt beam="2">  1       21 0.68274139E-01 0.46796710E+03</pdfrwt>
<totfact> 0.54032445E+04</totfact>
</mgrwt>
</event>
<event>
 6    0  0.1539497E-004  0.4421371E+03  0.7546771E-02  0.1030093E+00
         21   -1    0    0  502  501  0.00000000000E+00  0.00000000000E+00  0.49739628654E+02  0.49739628654E+02  0.00000000000E+00 0.  1.
         21   -1    0    0  501  502 -0.00000000000E+00 -0.00000000000E+00 -0.98254276420E+03  0.98254276420E+03  0.00000000000E+00 0.  1.
      99925    2    1    2    0    0 -0.87186719865E+02  0.11383630914E+02 -0.47918285189E+03  0.55358626688E+03  0.26288864214E+03 0.  0.
         25    1    3    3    0    0 -0.13153674141E+02 -0.51629786166E+01 -0.16996157204E+03  0.21150441972E+03  0.12509000000E+03 0.  0.
         25    1    1    2    0    0  0.87186719865E+02 -0.11383630914E+02 -0.45362028365E+03  0.47869612597E+03  0.12509000000E+03 0.  0.
         25    1    3    3    0    0 -0.74033045724E+02  0.16546609530E+02 -0.30922127985E+03  0.34208184716E+03  0.12509000000E+03 0.  0.
<mgrwt>
<rscale>  2 0.44213714E+03</rscale>
<asrwt>0</asrwt>
<pdfrwt beam="1">  1       21 0.73146525E-02 0.44213714E+03</pdfrwt>
<pdfrwt beam="2">  1       21 0.14449156E+00 0.44213714E+03</pdfrwt>
<totfact> 0.41995483E+04</totfact>
</mgrwt>
</event>
<event>
 6    0  0.1539497E-004  0.4249765E+03  0.7546771E-02  0.1035459E+00
         21   -1    0    0  502  501  0.00000000000E+00  0.00000000000E+00  0.47253680680E+02  0.47253680680E+02  0.00000000000E+00 0. -1.
         21   -1    0    0  501  502 -0.00000000000E+00 -0.00000000000E+00 -0.95550789739E+03  0.95550789739E+03  0.00000000000E+00 0. -1.
      99925    2    1    2    0    0  0.17852933273E+02  0.40727979362E+02 -0.42659549258E+03  0.50314159232E+03  0.26304040014E+03 0.  0.
         25    1    3    3    0    0  0.36716327403E+02  0.18215877869E+02 -0.15994144362E+03  0.20714410538E+03  0.12509000000E+03 0.  0.
         25    1    1    2    0    0 -0.17852933273E+02 -0.40727979362E+02 -0.48165872413E+03  0.49961998575E+03  0.12509000000E+03 0.  0.
         25    1    3    3    0    0 -0.18863394129E+02  0.22512101493E+02 -0.26665404896E+03  0.29599748695E+03  0.12509000000E+03 0.  0.
<mgrwt>
<rscale>  2 0.42497654E+03</rscale>
<asrwt>0</asrwt>
<pdfrwt beam="1">  1       21 0.69490711E-02 0.42497654E+03</pdfrwt>
<pdfrwt beam="2">  1       21 0.14051586E+00 0.42497654E+03</pdfrwt>
<totfact> 0.49737492E+04</totfact>
</mgrwt>
</event>
<event>
 6    0  0.1539497E-004  0.4203644E+03  0.7546771E-02  0.1036948E+00
         21   -1    0    0  502  501  0.00000000000E+00  0.00000000000E+00  0.14565739243E+03  0.14565739243E+03  0.00000000000E+00 0.  1.
         21   -1    0    0  501  502 -0.00000000000E+00 -0.00000000000E+00 -0.30329092884E+03  0.30329092884E+03  0.00000000000E+00 0.  1.
      99925    2    1    2    0    0  0.11936070436E+02  0.63264846923E+02 -0.58837621930E+02  0.27703831152E+03  0.26295142073E+03 0.  0.
         25    1    3    3    0    0  0.29669823009E+02 -0.17099760418E+01 -0.24654811724E+02  0.13091443869E+03  0.12509000000E+03 0.  0.
         25    1    3    3    0    0 -0.17733752573E+02  0.64974822965E+02 -0.34182810206E+02  0.14612387284E+03  0.12509000000E+03 0.  0.
         25    1    1    2    0    0 -0.11936070436E+02 -0.63264846923E+02 -0.98795914477E+02  0.17191000975E+03  0.12509000000E+03 0.  0.
<mgrwt>
<rscale>  2 0.42036444E+03</rscale>
<asrwt>0</asrwt>
<pdfrwt beam="1">  1       21 0.21420205E-01 0.42036444E+03</pdfrwt>
<pdfrwt beam="2">  1       21 0.44601606E-01 0.42036444E+03</pdfrwt>
<totfact> 0.91780734E+04</totfact>
</mgrwt>
</event>
<event>
 6    0  0.1539497E-004  0.4330608E+03  0.7546771E-02  0.1032897E+00
         21   -1    0    0  502  501  0.00000000000E+00  0.00000000000E+00  0.99391669148E+02  0.99391669148E+02  0.00000000000E+00 0. -1.
         21   -1    0    0  501  502 -0.00000000000E+00 -0.00000000000E+00 -0.47172385810E+03  0.47172385810E+03  0.00000000000E+00 0. -1.
      99925    2    1    2    0    0  0.20692263050E+02 -0.66872276370E+02 -0.16232029107E+03  0.31684681811E+03  0.26295238762E+03 0.  0.
         25    1    3    3    0    0  0.10325353779E+02 -0.75101162780E+02 -0.84117117942E+02  0.16873054025E+03  0.12509000000E+03 0.  0.
         25    1    3    3    0    0  0.10366909271E+02  0.82288864100E+01 -0.78203173132E+02  0.14811627786E+03  0.12509000000E+03 0.  0.
         25    1    1    2    0    0 -0.20692263050E+02  0.66872276370E+02 -0.21001189788E+03  0.25426870914E+03  0.12509000000E+03 0.  0.
<mgrwt>
<rscale>  2 0.43306083E+03</rscale>
<asrwt>0</asrwt>
<pdfrwt beam="1">  1       21 0.14616422E-01 0.43306083E+03</pdfrwt>
<pdfrwt beam="2">  1       21 0.69371156E-01 0.43306083E+03</pdfrwt>
<totfact> 0.72230634E+04</totfact>
</mgrwt>
</event>
<event>
 6    0  0.1539497E-004  0.4706382E+03  0.7546771E-02  0.1021740E+00
         21   -1    0    0  502  501  0.00000000000E+00  0.00000000000E+00  0.39950695688E+02  0.39950695688E+02  0.00000000000E+00 0. -1.
         21   -1    0    0  501  502 -0.00000000000E+00 -0.00000000000E+00 -0.13860857591E+04  0.13860857591E+04  0.00000000000E+00 0. -1.
      99925    2    1    2    0    0  0.11754770436E+03 -0.47623614408E+02 -0.80420142641E+03  0.85557607364E+03  0.26303043948E+03 0.  0.
         25    1    1    2    0    0 -0.11754770436E+03  0.47623614408E+02 -0.54193363704E+03  0.57046038118E+03  0.12509000000E+03 0.  0.
         25    1    3    3    0    0  0.55290914475E+02  0.11527676820E+02 -0.32097217629E+03  0.34908540303E+03  0.12509000000E+03 0.  0.
         25    1    3    3    0    0  0.62256789885E+02 -0.59151291228E+02 -0.48322925012E+03  0.50649067060E+03  0.12509000000E+03 0.  0.
<mgrwt>
<rscale>  2 0.47063825E+03</rscale>
<asrwt>0</asrwt>
<pdfrwt beam="1">  1       21 0.58751026E-02 0.47063825E+03</pdfrwt>
<pdfrwt beam="2">  1       21 0.20383613E+00 0.47063825E+03</pdfrwt>
<totfact> 0.22753403E+04</totfact>
</mgrwt>
</event>
<event>
 6    0  0.1539497E-004  0.4562026E+03  0.7546771E-02  0.1025888E+00
         21   -1    0    0  502  501  0.00000000000E+00  0.00000000000E+00  0.13799618232E+03  0.13799618232E+03  0.00000000000E+00 0.  1.
         21   -1    0    0  501  502 -0.00000000000E+00 -0.00000000000E+00 -0.37704093858E+03  0.37704093858E+03  0.00000000000E+00 0.  1.
      99925    2    1    2    0    0 -0.43813494986E+02  0.70470216392E+02 -0.23859502512E+03  0.36492588181E+03  0.26335838598E+03 0.  0.
         25    1    1    2    0    0  0.43813494986E+02 -0.70470216392E+02 -0.44973114565E+00  0.15011123908E+03  0.12509000000E+03 0.  0.
         25    1    3    3    0    0 -0.60337886789E+02  0.52447617927E+02 -0.13544752797E+03  0.20096008097E+03  0.12509000000E+03 0.  0.
         25    1    3    3    0    0  0.16524391803E+02  0.18022598464E+02 -0.10314749715E+03  0.16396580085E+03  0.12509000000E+03 0.  0.
<mgrwt>
<rscale>  2 0.45620263E+03</rscale>
<asrwt>0</asrwt>
<pdfrwt beam="1">  1       21 0.20293556E-01 0.45620263E+03</pdfrwt>
<pdfrwt beam="2">  1       21 0.55447197E-01 0.45620263E+03</pdfrwt>
<totfact> 0.63617371E+04</totfact>
</mgrwt>
</event>
<event>
 6    0  0.1539497E-004  0.4010673E+03  0.7546771E-02  0.1043411E+00
         21   -1    0    0  502  501  0.00000000000E+00  0.00000000000E+00  0.30465183173E+02  0.30465183173E+02  0.00000000000E+00 0. -1.
         21   -1    0    0  501  502 -0.00000000000E+00 -0.00000000000E+00 -0.13199903431E+04  0.13199903431E+04  0.00000000000E+00 0. -1.
      99925    2    1    2    0    0 -0.21225885982E+02  0.39053593235E+02 -0.80580989611E+03  0.84885440394E+03  0.26315107645E+03 0.  0.
         25    1    3    3    0    0 -0.75553333741E+01  0.11335527009E+01 -0.27824070446E+03  0.30516186807E+03  0.12509000000E+03 0.  0.
         25    1    3    3    0    0 -0.13670552608E+02  0.37920040534E+02 -0.52756919165E+03  0.54369253587E+03  0.12509000000E+03 0.  0.
         25    1    1    2    0    0  0.21225885982E+02 -0.39053593235E+02 -0.48371526384E+03  0.50160112236E+03  0.12509000000E+03 0.  0.
<mgrwt>
<rscale>  2 0.40106731E+03</rscale>
<asrwt>0</asrwt>
<pdfrwt beam="1">  1       21 0.44801736E-02 0.40106731E+03</pdfrwt>
<pdfrwt beam="2">  1       21 0.19411624E+00 0.40106731E+03</pdfrwt>
<totfact> 0.43127879E+04</totfact>
</mgrwt>
</event>
<event>
 6    0  0.1539497E-004  0.4501944E+03  0.7546771E-02  0.1027664E+00
         21   -1    0    0  502  501  0.00000000000E+00  0.00000000000E+00  0.83087619390E+02  0.83087619390E+02  0.00000000000E+00 0. -1.
         21   -1    0    0  501  502 -0.00000000000E+00 -0.00000000000E+00 -0.60982316999E+03  0.60982316999E+03  0.00000000000E+00 0. -1.
      99925    2    1    2    0    0  0.72744279657E+01  0.11642326322E+01 -0.16626107127E+03  0.31127794084E+03  0.26305311230E+03 0.  0.
         25    1    3    3    0    0  0.20418245905E+02 -0.28559423376E+02 -0.56342620977E+02  0.14161406875E+03  0.12509000000E+03 0.  0.
         25    1    1    2    0    0 -0.72744279657E+01 -0.11642326322E+01 -0.36047447933E+03  0.38163284854E+03  0.12509000000E+03 0.  0.
         25    1    3    3    0    0 -0.13143817940E+02  0.29723656008E+02 -0.10991845030E+03  0.16966387209E+03  0.12509000000E+03 0.  0.
<mgrwt>
<rscale>  2 0.45019443E+03</rscale>
<asrwt>0</asrwt>
<pdfrwt beam="1">  1       21 0.12218767E-01 0.45019443E+03</pdfrwt>
<pdfrwt beam="2">  1       21 0.89679879E-01 0.45019443E+03</pdfrwt>
<totfact> 0.55353876E+04</totfact>
</mgrwt>
</event>
<event>
 6    0  0.1539497E-004  0.4030318E+03  0.7546771E-02  0.1042735E+00
         21   -1    0    0  502  501  0.00000000000E+00  0.00000000000E+00  0.39331835878E+03  0.39331835878E+03  0.00000000000E+00 0. -1.
         21   -1    0    0  501  502 -0.00000000000E+00 -0.00000000000E+00 -0.10324628170E+03  0.10324628170E+03  0.00000000000E+00 0. -1.
      99925    2    1    2    0    0  0.50563715566E+01  0.29291802938E+02  0.24380170909E+03  0.35991899778E+03  0.26309472628E+03 0.  0.
         25    1    1    2    0    0 -0.50563715566E+01 -0.29291802938E+02  0.46270367991E+02  0.13664564269E+03  0.12509000000E+03 0.  0.
         25    1    3    3    0    0 -0.28065873711E+02  0.41036573104E+02  0.13152050187E+03  0.18819363462E+03  0.12509000000E+03 0.  0.
         25    1    3    3    0    0  0.33122245268E+02 -0.11744770166E+02  0.11228120722E+03  0.17172536316E+03  0.12509000000E+03 0.  0.
<mgrwt>
<rscale>  2 0.40303180E+03</rscale>
<asrwt>0</asrwt>
<pdfrwt beam="1">  1       21 0.57840934E-01 0.40303180E+03</pdfrwt>
<pdfrwt beam="2">  1       21 0.15183277E-01 0.40303180E+03</pdfrwt>
<totfact> 0.10121197E+05</totfact>
</mgrwt>
</event>
<event>
 6    0  0.1539497E-004  0.4882532E+03  0.7546771E-02  0.1016891E+00
         21   -1    0    0  502  501  0.00000000000E+00  0.00000000000E+00  0.82958977432E+02  0.82958977432E+02  0.00000000000E+00 0.  1.
         21   -1    0    0  501  502 -0.00000000000E+00 -0.00000000000E+00 -0.71840081520E+03  0.71840081520E+03  0.00000000000E+00 0.  1.
      99925    2    1    2    0    0 -0.95110039907E+02  0.29676003105E-01 -0.21574020863E+03  0.35320481255E+03  0.26299026867E+03 0.  0.
         25    1    3    3    0    0 -0.52881819462E+02 -0.11514222725E+02 -0.15794376283E+03  0.20862119852E+03  0.12509000000E+03 0.  0.
         25    1    1    2    0    0  0.95110039907E+02 -0.29676003105E-01 -0.41970162914E+03  0.44815498008E+03  0.12509000000E+03 0.  0.
         25    1    3    3    0    0 -0.42228220445E+02  0.11543898728E+02 -0.57796445805E+02  0.14458361403E+03  0.12509000000E+03 0.  0.
<mgrwt>
<rscale>  2 0.48825320E+03</rscale>
<asrwt>0</asrwt>
<pdfrwt beam="1">  1       21 0.12199850E-01 0.48825320E+03</pdfrwt>
<pdfrwt beam="2">  1       21 0.10564718E+00 0.48825320E+03</pdfrwt>
<totfact> 0.37043880E+04</totfact>
</mgrwt>
</event>
<event>
 6    0  0.1539497E-004  0.4079186E+03  0.7546771E-02  0.1041072E+00
         21   -1    0    0  502  501  0.00000000000E+00  0.00000000000E+00  0.14893685631E+03  0.14893685631E+03  0.00000000000E+00 0.  1.
         21   -1    0    0  501  502 -0.00000000000E+00 -0.00000000000E+00 -0.27930891336E+03  0.27930891336E+03  0.00000000000E+00 0.  1.
      99925    2    1    2    0    0 -0.27508196025E+02  0.33092537878E+02 -0.12873531679E+03  0.29595063019E+03  0.26298702784E+03 0.  0.
         25    1    1    2    0    0  0.27508196025E+02 -0.33092537878E+02 -0.16367402604E+01  0.13229513948E+03  0.12509000000E+03 0.  0.
         25    1    3    3    0    0 -0.52002710633E+02  0.29884342287E+01 -0.66772604755E+02  0.15106058883E+03  0.12509000000E+03 0.  0.
         25    1    3    3    0    0  0.24494514608E+02  0.30104103649E+02 -0.61962712034E+02  0.14489004136E+03  0.12509000000E+03 0.  0.
<mgrwt>
<rscale>  2 0.40791858E+03</rscale>
<asrwt>0</asrwt>
<pdfrwt beam="1">  1       21 0.21902479E-01 0.40791858E+03</pdfrwt>
<pdfrwt beam="2">  1       21 0.41074839E-01 0.40791858E+03</pdfrwt>
<totfact> 0.10461735E+05</totfact>
</mgrwt>
</event>
<event>
 6    0  0.1539497E-004  0.4326793E+03  0.7546771E-02  0.1033017E+00
         21   -1    0    0  502  501  0.00000000000E+00  0.00000000000E+00  0.63634995493E+02  0.63634995493E+02  0.00000000000E+00 0.  1.
         21   -1    0    0  501  502 -0.00000000000E+00 -0.00000000000E+00 -0.73548899832E+03  0.73548899832E+03  0.00000000000E+00 0.  1.
      99925    2    1    2    0    0  0.30669928358E+02 -0.24505258850E+02 -0.28094847997E+03  0.38681853894E+03  0.26297410795E+03 0.  0.
         25    1    3    3    0    0  0.17951835221E+02 -0.46621624520E+02 -0.17552170355E+03  0.22124922774E+03  0.12509000000E+03 0.  0.
         25    1    1    2    0    0 -0.30669928358E+02  0.24505258850E+02 -0.39090552286E+03  0.41230545487E+03  0.12509000000E+03 0.  0.
         25    1    3    3    0    0  0.12718093136E+02  0.22116365670E+02 -0.10542677642E+03  0.16556931119E+03  0.12509000000E+03 0.  0.
<mgrwt>
<rscale>  2 0.43267928E+03</rscale>
<asrwt>0</asrwt>
<pdfrwt beam="1">  1       21 0.93580871E-02 0.43267928E+03</pdfrwt>
<pdfrwt beam="2">  1       21 0.10816015E+00 0.43267928E+03</pdfrwt>
<totfact> 0.57185750E+04</totfact>
</mgrwt>
</event>
<event>
 6    0  0.1539497E-004  0.4352534E+03  0.7546771E-02  0.1032213E+00
         21   -1    0    0  502  501  0.00000000000E+00  0.00000000000E+00  0.55474627495E+02  0.55474627495E+02  0.00000000000E+00 0.  1.
         21   -1    0    0  501  502 -0.00000000000E+00 -0.00000000000E+00 -0.85374852131E+03  0.85374852131E+03  0.00000000000E+00 0.  1.
      99925    2    1    2    0    0 -0.25498307440E+02  0.48687485161E+02 -0.35401350392E+03  0.44442702466E+03  0.26300035056E+03 0.  0.
         25    1    1    2    0    0  0.25498307440E+02 -0.48687485161E+02 -0.44426038989E+03  0.46479612415E+03  0.12509000000E+03 0.  0.
         25    1    3    3    0    0 -0.43487000917E+02  0.13090149330E+02 -0.13853042676E+03  0.19209544111E+03  0.12509000000E+03 0.  0.
         25    1    3    3    0    0  0.17988693478E+02  0.35597335831E+02 -0.21548307716E+03  0.25233158355E+03  0.12509000000E+03 0.  0.
<mgrwt>
<rscale>  2 0.43525340E+03</rscale>
<asrwt>0</asrwt>
<pdfrwt beam="1">  1       21 0.81580335E-02 0.43525340E+03</pdfrwt>
<pdfrwt beam="2">  1       21 0.12555125E+00 0.43525340E+03</pdfrwt>
<totfact> 0.50147929E+04</totfact>
</mgrwt>
</event>
<event>
 6    0  0.1539497E-004  0.4817179E+03  0.7546771E-02  0.1018664E+00
         21   -1    0    0  502  501  0.00000000000E+00  0.00000000000E+00  0.19580965948E+03  0.19580965948E+03  0.00000000000E+00 0. -1.
         21   -1    0    0  501  502 -0.00000000000E+00 -0.00000000000E+00 -0.29627256958E+03  0.29627256958E+03  0.00000000000E+00 0. -1.
      99925    2    1    2    0    0 -0.12660465910E+03 -0.32524098732E+02 -0.10320674985E+03  0.31113584623E+03  0.26280663022E+03 0.  0.
         25    1    3    3    0    0 -0.66626665028E+02 -0.33584938708E+02 -0.14278423539E+02  0.14635040854E+03  0.12509000000E+03 0.  0.
         25    1    3    3    0    0 -0.59977994074E+02  0.10608399761E+01 -0.88928326308E+02  0.16478543769E+03  0.12509000000E+03 0.  0.
         25    1    1    2    0    0  0.12660465910E+03  0.32524098732E+02  0.27438397487E+01  0.18094638284E+03  0.12509000000E+03 0.  0.
<mgrwt>
<rscale>  2 0.48171789E+03</rscale>
<asrwt>0</asrwt>
<pdfrwt beam="1">  1       21 0.28795538E-01 0.48171789E+03</pdfrwt>
<pdfrwt beam="2">  1       21 0.43569496E-01 0.48171789E+03</pdfrwt>
<totfact> 0.53539112E+04</totfact>
</mgrwt>
</event>
<event>
 6    0  0.1539497E-004  0.3952814E+03  0.7546771E-02  0.1045426E+00
         21   -1    0    0  502  501  0.00000000000E+00  0.00000000000E+00  0.65950983469E+02  0.65950983469E+02  0.00000000000E+00 0. -1.
         21   -1    0    0  501  502 -0.00000000000E+00 -0.00000000000E+00 -0.59228609834E+03  0.59228609834E+03  0.00000000000E+00 0. -1.
      99925    2    1    2    0    0  0.82640209912E+01 -0.31976577387E+02 -0.33237801365E+03  0.42508978768E+03  0.26293609126E+03 0.  0.
         25    1    1    2    0    0 -0.82640209912E+01  0.31976577387E+02 -0.19395710122E+03  0.23314729412E+03  0.12509000000E+03 0.  0.
         25    1    3    3    0    0  0.23798093354E+02 -0.34687718949E+02 -0.21812863348E+03  0.25494547640E+03  0.12509000000E+03 0.  0.
         25    1    3    3    0    0 -0.15534072363E+02  0.27111415617E+01 -0.11424938017E+03  0.17014431129E+03  0.12509000000E+03 0.  0.
<mgrwt>
<rscale>  2 0.39528142E+03</rscale>
<asrwt>0</asrwt>
<pdfrwt beam="1">  1       21 0.96986745E-02 0.39528142E+03</pdfrwt>
<pdfrwt beam="2">  1       21 0.87100893E-01 0.39528142E+03</pdfrwt>
<totfact> 0.91119457E+04</totfact>
</mgrwt>
</event>
<event>
 6    0  0.1539497E-004  0.4333702E+03  0.7546771E-02  0.1032801E+00
         21   -1    0    0  502  501  0.00000000000E+00  0.00000000000E+00  0.27343994416E+03  0.27343994416E+03  0.00000000000E+00 0. -1.
         21   -1    0    0  501  502 -0.00000000000E+00 -0.00000000000E+00 -0.17171018872E+03  0.17171018872E+03  0.00000000000E+00 0. -1.
      99925    2    1    2    0    0  0.39188181170E+02  0.82448515363E+02  0.62598946876E+02  0.28542474508E+03  0.26308779091E+03 0.  0.
         25    1    1    2    0    0 -0.39188181170E+02 -0.82448515363E+02  0.39130808569E+02  0.15972538780E+03  0.12509000000E+03 0.  0.
         25    1    3    3    0    0  0.25605682258E+02  0.10724355038E+02  0.57657826205E+02  0.14050834772E+03  0.12509000000E+03 0.  0.
         25    1    3    3    0    0  0.13582498912E+02  0.71724160325E+02  0.49411206704E+01  0.14491639736E+03  0.12509000000E+03 0.  0.
<mgrwt>
<rscale>  2 0.43337016E+03</rscale>
<asrwt>0</asrwt>
<pdfrwt beam="1">  1       21 0.40211756E-01 0.43337016E+03</pdfrwt>
<pdfrwt beam="2">  1       21 0.25251498E-01 0.43337016E+03</pdfrwt>
<totfact> 0.82619542E+04</totfact>
</mgrwt>
</event>
<event>
 6    0  0.1539497E-004  0.3956018E+03  0.7546771E-02  0.1045313E+00
         21   -1    0    0  502  501  0.00000000000E+00  0.00000000000E+00  0.19502153777E+04  0.19502153777E+04  0.00000000000E+00 0.  1.
         21   -1    0    0  501  502 -0.00000000000E+00 -0.00000000000E+00 -0.20061987582E+02  0.20061987582E+02  0.00000000000E+00 0.  1.
      99925    2    1    2    0    0  0.22571232585E+02 -0.35908916502E+01  0.14317162383E+04  0.14558753266E+04  0.26313347256E+03 0.  0.
         25    1    1    2    0    0 -0.22571232585E+02  0.35908916502E+01  0.49843715173E+03  0.51440203865E+03  0.12509000000E+03 0.  0.
         25    1    3    3    0    0 -0.15518337666E+02 -0.54227594330E+01  0.87232053346E+03  0.88139709911E+03  0.12509000000E+03 0.  0.
         25    1    3    3    0    0  0.38089570252E+02  0.18318677829E+01  0.55939570488E+03  0.57447822748E+03  0.12509000000E+03 0.  0.
<mgrwt>
<rscale>  2 0.39560180E+03</rscale>
<asrwt>0</asrwt>
<pdfrwt beam="1">  1       21 0.28679625E+00 0.39560180E+03</pdfrwt>
<pdfrwt beam="2">  1       21 0.29502936E-02 0.39560180E+03</pdfrwt>
<totfact> 0.23199971E+04</totfact>
</mgrwt>
</event>
<event>
 6    0  0.1539497E-004  0.4101055E+03  0.7546771E-02  0.1040336E+00
         21   -1    0    0  502  501  0.00000000000E+00  0.00000000000E+00  0.27350926329E+03  0.27350926329E+03  0.00000000000E+00 0.  1.
         21   -1    0    0  501  502 -0.00000000000E+00 -0.00000000000E+00 -0.15373021691E+03  0.15373021691E+03  0.00000000000E+00 0.  1.
      99925    2    1    2    0    0 -0.50060232718E+02 -0.30125306587E+02  0.10183928455E+03  0.28801698147E+03  0.26299996339E+03 0.  0.
         25    1    3    3    0    0 -0.90589667836E+01 -0.31825442948E+02  0.86121701131E+02  0.15543287684E+03  0.12509000000E+03 0.  0.
         25    1    1    2    0    0  0.50060232718E+02  0.30125306587E+02  0.17939761826E+02  0.13922249872E+03  0.12509000000E+03 0.  0.
         25    1    3    3    0    0 -0.41001265935E+02  0.17001363615E+01  0.15717583419E+02  0.13258410463E+03  0.12509000000E+03 0.  0.
<mgrwt>
<rscale>  2 0.41010554E+03</rscale>
<asrwt>0</asrwt>
<pdfrwt beam="1">  1       21 0.40221950E-01 0.41010554E+03</pdfrwt>
<pdfrwt beam="2">  1       21 0.22607385E-01 0.41010554E+03</pdfrwt>
<totfact> 0.10275219E+05</totfact>
</mgrwt>
</event>
<event>
 6    0  0.1539497E-004  0.4260846E+03  0.7546771E-02  0.1035104E+00
         21   -1    0    0  502  501  0.00000000000E+00  0.00000000000E+00  0.12008815275E+03  0.12008815275E+03  0.00000000000E+00 0. -1.
         21   -1    0    0  501  502 -0.00000000000E+00 -0.00000000000E+00 -0.37794747054E+03  0.37794747054E+03  0.00000000000E+00 0. -1.
      99925    2    1    2    0    0  0.27615046936E+02  0.33448687890E+02 -0.83882924879E+02  0.27941106169E+03  0.26296918217E+03 0.  0.
         25    1    3    3    0    0  0.42934338033E+02 -0.11240246170E+02 -0.45190528754E+02  0.14021195564E+03  0.12509000000E+03 0.  0.
         25    1    1    2    0    0 -0.27615046936E+02 -0.33448687890E+02 -0.17397639291E+03  0.21862456159E+03  0.12509000000E+03 0.  0.
         25    1    3    3    0    0 -0.15319291098E+02  0.44688934060E+02 -0.38692396125E+02  0.13919910605E+03  0.12509000000E+03 0.  0.
<mgrwt>
<rscale>  2 0.42608456E+03</rscale>
<asrwt>0</asrwt>
<pdfrwt beam="1">  1       21 0.17660022E-01 0.42608456E+03</pdfrwt>
<pdfrwt beam="2">  1       21 0.55580511E-01 0.42608456E+03</pdfrwt>
<totfact> 0.82840248E+04</totfact>
</mgrwt>
</event>
<event>
 6    0  0.1539497E-004  0.4066594E+03  0.7546771E-02  0.1041498E+00
         21   -1    0    0  502  501  0.00000000000E+00  0.00000000000E+00  0.87026512577E+03  0.87026512577E+03  0.00000000000E+00 0.  1.
         21   -1    0    0  501  502 -0.00000000000E+00 -0.00000000000E+00 -0.47506178237E+02  0.47506178237E+02  0.00000000000E+00 0.  1.
      99925    2    1    2    0    0 -0.40950303955E+02  0.30029457603E+01  0.45872410095E+03  0.53066043784E+03  0.26360340366E+03 0.  0.
         25    1    3    3    0    0 -0.48651512846E+02  0.31787233743E+02  0.22564805132E+03  0.26446540245E+03  0.12509000000E+03 0.  0.
         25    1    3    3    0    0  0.77012088915E+01 -0.28784287983E+02  0.23307604963E+03  0.26619503538E+03  0.12509000000E+03 0.  0.
         25    1    1    2    0    0  0.40950303955E+02 -0.30029457603E+01  0.36403484658E+03  0.38711086616E+03  0.12509000000E+03 0.  0.
<mgrwt>
<rscale>  2 0.40665942E+03</rscale>
<asrwt>0</asrwt>
<pdfrwt beam="1">  1       21 0.12798016E+00 0.40665942E+03</pdfrwt>
<pdfrwt beam="2">  1       21 0.69862032E-02 0.40665942E+03</pdfrwt>
<totfact> 0.63198691E+04</totfact>
</mgrwt>
</event>
<event>
 6    0  0.1539497E-004  0.4293173E+03  0.7546771E-02  0.1034076E+00
         21   -1    0    0  502  501  0.00000000000E+00  0.00000000000E+00  0.78249231038E+02  0.78249231038E+02  0.00000000000E+00 0.  1.
         21   -1    0    0  501  502 -0.00000000000E+00 -0.00000000000E+00 -0.58886625774E+03  0.58886625774E+03  0.00000000000E+00 0.  1.
      99925    2    1    2    0    0 -0.35951404398E+01 -0.54747236926E+02 -0.43418072978E+03  0.51059008965E+03  0.26301929311E+03 0.  0.
         25    1    3    3    0    0 -0.96156170026E+01 -0.76681637388E+01 -0.27696086943E+03  0.30414814174E+03  0.12509000000E+03 0.  0.
         25    1    3    3    0    0  0.60204765627E+01 -0.47079073187E+02 -0.15721986035E+03  0.20644194791E+03  0.12509000000E+03 0.  0.
         25    1    1    2    0    0  0.35951404398E+01  0.54747236926E+02 -0.76436296929E+02  0.15652539913E+03  0.12509000000E+03 0.  0.
<mgrwt>
<rscale>  2 0.42931728E+03</rscale>
<asrwt>0</asrwt>
<pdfrwt beam="1">  1       21 0.11507240E-01 0.42931728E+03</pdfrwt>
<pdfrwt beam="2">  1       21 0.86597975E-01 0.42931728E+03</pdfrwt>
<totfact> 0.67351642E+04</totfact>
</mgrwt>
</event>
<event>
 6    0  0.1539497E-004  0.3907541E+03  0.7546771E-02  0.1047029E+00
         21   -1    0    0  502  501  0.00000000000E+00  0.00000000000E+00  0.31095793571E+03  0.31095793571E+03  0.00000000000E+00 0.  1.
         21   -1    0    0  501  502 -0.00000000000E+00 -0.00000000000E+00 -0.12275678050E+03  0.12275678050E+03  0.00000000000E+00 0.  1.
      99925    2    1    2    0    0 -0.15692271437E+02  0.47585594453E+01  0.14190150284E+03  0.29932700405E+03  0.26304320477E+03 0.  0.
         25    1    1    2    0    0  0.15692271437E+02 -0.47585594453E+01  0.46299652364E+02  0.13438771216E+03  0.12509000000E+03 0.  0.
         25    1    3    3    0    0  0.11688475945E+02  0.48717173509E+01  0.29972475910E+02  0.12925251066E+03  0.12509000000E+03 0.  0.
         25    1    3    3    0    0 -0.27380747382E+02 -0.11315790556E+00  0.11192902693E+03  0.17007449339E+03  0.12509000000E+03 0.  0.
<mgrwt>
<rscale>  2 0.39075412E+03</rscale>
<asrwt>0</asrwt>
<pdfrwt beam="1">  1       21 0.45729108E-01 0.39075412E+03</pdfrwt>
<pdfrwt beam="2">  1       21 0.18052468E-01 0.39075412E+03</pdfrwt>
<totfact> 0.12121071E+05</totfact>
</mgrwt>
</event>
<event>
 6    0  0.1539497E-004  0.4170678E+03  0.7546771E-02  0.1038025E+00
         21   -1    0    0  502  501  0.00000000000E+00  0.00000000000E+00  0.76084861646E+02  0.76084861646E+02  0.00000000000E+00 0. -1.
         21   -1    0    0  501  502 -0.00000000000E+00 -0.00000000000E+00 -0.57155122514E+03  0.57155122514E+03  0.00000000000E+00 0. -1.
      99925    2    1    2    0    0 -0.38727210564E+02 -0.29726419868E+02 -0.40608541724E+03  0.48632917891E+03  0.26311071298E+03 0.  0.
         25    1    3    3    0    0 -0.54253185522E+02 -0.13297302093E+02 -0.24956009406E+03  0.28468926048E+03  0.12509000000E+03 0.  0.
         25    1    1    2    0    0  0.38727210564E+02  0.29726419868E+02 -0.89380946259E+02  0.16130690788E+03  0.12509000000E+03 0.  0.
         25    1    3    3    0    0  0.15525974957E+02 -0.16429117775E+02 -0.15652532318E+03  0.20163991843E+03  0.12509000000E+03 0.  0.
<mgrwt>
<rscale>  2 0.41706784E+03</rscale>
<asrwt>0</asrwt>
<pdfrwt beam="1">  1       21 0.11188950E-01 0.41706784E+03</pdfrwt>
<pdfrwt beam="2">  1       21 0.84051653E-01 0.41706784E+03</pdfrwt>
<totfact> 0.76191233E+04</totfact>
</mgrwt>
</event>
<event>
 6    0  0.1539497E-004  0.4121113E+03  0.7546771E-02  0.1039665E+00
         21   -1    0    0  502  501  0.00000000000E+00  0.00000000000E+00  0.48040756938E+02  0.48040756938E+02  0.00000000000E+00 0. -1.
         21   -1    0    0  501  502 -0.00000000000E+00 -0.00000000000E+00 -0.88381061116E+03  0.88381061116E+03  0.00000000000E+00 0. -1.
      99925    2    1    2    0    0  0.44517628578E+02  0.29976286592E+02 -0.46317254242E+03  0.53516930161E+03  0.26267276281E+03 0.  0.
         25    1    3    3    0    0 -0.38824667340E+01 -0.14671081150E+02 -0.19866479650E+03  0.23525629351E+03  0.12509000000E+03 0.  0.
         25    1    3    3    0    0  0.48400095312E+02  0.44647367742E+02 -0.26450774593E+03  0.29991300810E+03  0.12509000000E+03 0.  0.
         25    1    1    2    0    0 -0.44517628578E+02 -0.29976286592E+02 -0.37259731180E+03  0.39668206648E+03  0.12509000000E+03 0.  0.
<mgrwt>
<rscale>  2 0.41211130E+03</rscale>
<asrwt>0</asrwt>
<pdfrwt beam="1">  1       21 0.70648177E-02 0.41211130E+03</pdfrwt>
<pdfrwt beam="2">  1       21 0.12997214E+00 0.41211130E+03</pdfrwt>
<totfact> 0.59463636E+04</totfact>
</mgrwt>
</event>
<event>
 6    0  0.1539497E-004  0.4005747E+03  0.7546771E-02  0.1043581E+00
         21   -1    0    0  502  501  0.00000000000E+00  0.00000000000E+00  0.11821988988E+03  0.11821988988E+03  0.00000000000E+00 0.  1.
         21   -1    0    0  501  502 -0.00000000000E+00 -0.00000000000E+00 -0.33932544914E+03  0.33932544914E+03  0.00000000000E+00 0.  1.
      99925    2    1    2    0    0 -0.10769324546E+02  0.13366241878E+02 -0.97537983803E+02  0.28087873614E+03  0.26283944026E+03 0.  0.
         25    1    3    3    0    0 -0.26745681587E+02  0.29223514500E+02 -0.22051399338E+02  0.13305306308E+03  0.12509000000E+03 0.  0.
         25    1    1    2    0    0  0.10769324546E+02 -0.13366241878E+02 -0.12356757545E+03  0.17666660289E+03  0.12509000000E+03 0.  0.
         25    1    3    3    0    0  0.15976357042E+02 -0.15857272623E+02 -0.75486584465E+02  0.14782567305E+03  0.12509000000E+03 0.  0.
<mgrwt>
<rscale>  2 0.40057467E+03</rscale>
<asrwt>0</asrwt>
<pdfrwt beam="1">  1       21 0.17385278E-01 0.40057467E+03</pdfrwt>
<pdfrwt beam="2">  1       21 0.49900801E-01 0.40057467E+03</pdfrwt>
<totfact> 0.10801252E+05</totfact>
</mgrwt>
</event>
<event>
 6    0  0.1539497E-004  0.4460401E+03  0.7546771E-02  0.1028910E+00
         21   -1    0    0  502  501  0.00000000000E+00  0.00000000000E+00  0.86669953308E+03  0.86669953308E+03  0.00000000000E+00 0.  1.
         21   -1    0    0  501  502 -0.00000000000E+00 -0.00000000000E+00 -0.57387763036E+02  0.57387763036E+02  0.00000000000E+00 0.  1.
      99925    2    1    2    0    0 -0.98611853852E+02 -0.32224331950E+02  0.54009104302E+03  0.60961947066E+03  0.26301113848E+03 0.  0.
         25    1    3    3    0    0 -0.48406799908E+02  0.23434390061E+02  0.28289993398E+03  0.31396221056E+03  0.12509000000E+03 0.  0.
         25    1    1    2    0    0  0.98611853852E+02  0.32224331950E+02  0.26922072702E+03  0.31446782546E+03  0.12509000000E+03 0.  0.
         25    1    3    3    0    0 -0.50205053944E+02 -0.55658722011E+02  0.25719110904E+03  0.29565726010E+03  0.12509000000E+03 0.  0.
<mgrwt>
<rscale>  2 0.44604012E+03</rscale>
<asrwt>0</asrwt>
<pdfrwt beam="1">  1       21 0.12745581E+00 0.44604012E+03</pdfrwt>
<pdfrwt beam="2">  1       21 0.84393775E-02 0.44604012E+03</pdfrwt>
<totfact> 0.45300825E+04</totfact>
</mgrwt>
</event>
<event>
 6    0  0.1539497E-004  0.4247199E+03  0.7546771E-02  0.1035541E+00
         21   -1    0    0  502  501  0.00000000000E+00  0.00000000000E+00  0.93170851670E+02  0.93170851670E+02  0.00000000000E+00 0. -1.
         21   -1    0    0  501  502 -0.00000000000E+00 -0.00000000000E+00 -0.48402211265E+03  0.48402211265E+03  0.00000000000E+00 0. -1.
      99925    2    1    2    0    0 -0.24928012623E+02  0.51988337334E+02 -0.33218767876E+03  0.42748285440E+03  0.26280932985E+03 0.  0.
         25    1    3    3    0    0 -0.39119823515E+02  0.53679789374E+02 -0.15306651712E+03  0.20853955774E+03  0.12509000000E+03 0.  0.
         25    1    1    2    0    0  0.24928012623E+02 -0.51988337334E+02 -0.58663582216E+02  0.14971010991E+03  0.12509000000E+03 0.  0.
         25    1    3    3    0    0  0.14191810892E+02 -0.16914520396E+01 -0.17912116164E+03  0.21894329666E+03  0.12509000000E+03 0.  0.
<mgrwt>
<rscale>  2 0.42471992E+03</rscale>
<asrwt>0</asrwt>
<pdfrwt beam="1">  1       21 0.13701596E-01 0.42471992E+03</pdfrwt>
<pdfrwt beam="2">  1       21 0.71179723E-01 0.42471992E+03</pdfrwt>
<totfact> 0.76932105E+04</totfact>
</mgrwt>
</event>
<event>
 6    0  0.1539497E-004  0.3995817E+03  0.7546771E-02  0.1043925E+00
         21   -1    0    0  502  501  0.00000000000E+00  0.00000000000E+00  0.24168455389E+02  0.24168455389E+02  0.00000000000E+00 0. -1.
         21   -1    0    0  501  502 -0.00000000000E+00 -0.00000000000E+00 -0.16515902694E+04  0.16515902694E+04  0.00000000000E+00 0. -1.
      99925    2    1    2    0    0  0.26702796490E+02 -0.35692612179E+02 -0.10728934996E+04  0.11055516032E+04  0.26297696476E+03 0.  0.
         25    1    3    3    0    0 -0.64388857822E+01 -0.51114353119E+02 -0.49572230688E+03  0.51385041596E+03  0.12509000000E+03 0.  0.
         25    1    1    2    0    0 -0.26702796490E+02  0.35692612179E+02 -0.55452831445E+03  0.57020712161E+03  0.12509000000E+03 0.  0.
         25    1    3    3    0    0  0.33141682272E+02  0.15421740940E+02 -0.57717119270E+03  0.59170118724E+03  0.12509000000E+03 0.  0.
<mgrwt>
<rscale>  2 0.39958171E+03</rscale>
<asrwt>0</asrwt>
<pdfrwt beam="1">  1       21 0.35541854E-02 0.39958171E+03</pdfrwt>
<pdfrwt beam="2">  1       21 0.24288087E+00 0.39958171E+03</pdfrwt>
<totfact> 0.31185315E+04</totfact>
</mgrwt>
</event>
<event>
 6    0  0.1539497E-004  0.5411787E+03  0.7546771E-02  0.1003557E+00
         21   -1    0    0  502  501  0.00000000000E+00  0.00000000000E+00  0.72766926172E+02  0.72766926172E+02  0.00000000000E+00 0. -1.
         21   -1    0    0  501  502 -0.00000000000E+00 -0.00000000000E+00 -0.10062071353E+04  0.10062071353E+04  0.00000000000E+00 0. -1.
      99925    2    1    2    0    0 -0.86571518362E+02 -0.11988378560E+03 -0.33909784570E+03  0.45386838808E+03  0.26294945313E+03 0.  0.
         25    1    1    2    0    0  0.86571518362E+02  0.11988378560E+03 -0.59434236344E+03  0.62510567340E+03  0.12509000000E+03 0.  0.
         25    1    3    3    0    0 -0.76165774719E+02 -0.49140110407E+02 -0.14282561318E+03  0.21038688070E+03  0.12509000000E+03 0.  0.
         25    1    3    3    0    0 -0.10405743643E+02 -0.70743675189E+02 -0.19627223252E+03  0.24348150739E+03  0.12509000000E+03 0.  0.
<mgrwt>
<rscale>  2 0.54117871E+03</rscale>
<asrwt>0</asrwt>
<pdfrwt beam="1">  1       21 0.10701018E-01 0.54117871E+03</pdfrwt>
<pdfrwt beam="2">  1       21 0.14797165E+00 0.54117871E+03</pdfrwt>
<totfact> 0.19461185E+04</totfact>
</mgrwt>
</event>
<event>
 6    0  0.1539497E-004  0.4550478E+03  0.7546771E-02  0.1026227E+00
         21   -1    0    0  502  501  0.00000000000E+00  0.00000000000E+00  0.72830783704E+03  0.72830783704E+03  0.00000000000E+00 0. -1.
         21   -1    0    0  501  502 -0.00000000000E+00 -0.00000000000E+00 -0.71078639449E+02  0.71078639449E+02  0.00000000000E+00 0. -1.
      99925    2    1    2    0    0 -0.11486135026E+02 -0.11198410926E+03  0.43462278487E+03  0.52032824761E+03  0.26300598491E+03 0.  0.
         25    1    3    3    0    0 -0.29997958035E+02 -0.90879859887E+02  0.25291697460E+03  0.29794887239E+03  0.12509000000E+03 0.  0.
         25    1    1    2    0    0  0.11486135026E+02  0.11198410926E+03  0.22260641272E+03  0.27905822889E+03  0.12509000000E+03 0.  0.
         25    1    3    3    0    0  0.18511823009E+02 -0.21104249377E+02  0.18170581027E+03  0.22237937521E+03  0.12509000000E+03 0.  0.
<mgrwt>
<rscale>  2 0.45504782E+03</rscale>
<asrwt>0</asrwt>
<pdfrwt beam="1">  1       21 0.10710409E+00 0.45504782E+03</pdfrwt>
<pdfrwt beam="2">  1       21 0.10452741E-01 0.45504782E+03</pdfrwt>
<totfact> 0.47776566E+04</totfact>
</mgrwt>
</event>
<event>
 6    0  0.1539497E-004  0.4692281E+03  0.7546771E-02  0.1022138E+00
         21   -1    0    0  502  501  0.00000000000E+00  0.00000000000E+00  0.22352556735E+03  0.22352556735E+03  0.00000000000E+00 0.  1.
         21   -1    0    0  501  502 -0.00000000000E+00 -0.00000000000E+00 -0.24625256808E+03  0.24625256808E+03  0.00000000000E+00 0.  1.
      99925    2    1    2    0    0 -0.51170923677E+02  0.11224267028E+03  0.11887151772E+02  0.29071801113E+03  0.26298056421E+03 0.  0.
         25    1    3    3    0    0 -0.24339450819E+02  0.97619505313E+02 -0.64076115693E+01  0.16065659734E+03  0.12509000000E+03 0.  0.
         25    1    1    2    0    0  0.51170923677E+02 -0.11224267028E+03 -0.34614152507E+02  0.17906012430E+03  0.12509000000E+03 0.  0.
         25    1    3    3    0    0 -0.26831472858E+02  0.14623164968E+02  0.18294763341E+02  0.13006141378E+03  0.12509000000E+03 0.  0.
<mgrwt>
<rscale>  2 0.46922807E+03</rscale>
<asrwt>0</asrwt>
<pdfrwt beam="1">  1       21 0.32871407E-01 0.46922807E+03</pdfrwt>
<pdfrwt beam="2">  1       21 0.36213613E-01 0.46922807E+03</pdfrwt>
<totfact> 0.60331011E+04</totfact>
</mgrwt>
</event>
<event>
 6    0  0.1539497E-004  0.4447315E+03  0.7546771E-02  0.1029305E+00
         21   -1    0    0  502  501  0.00000000000E+00  0.00000000000E+00  0.12036086802E+04  0.12036086802E+04  0.00000000000E+00 0.  1.
         21   -1    0    0  501  502 -0.00000000000E+00 -0.00000000000E+00 -0.41081904311E+02  0.41081904311E+02  0.00000000000E+00 0.  1.
      99925    2    1    2    0    0  0.26884935998E+02  0.91147391285E+02  0.85212500800E+03  0.89680064167E+03  0.26287585459E+03 0.  0.
         25    1    1    2    0    0 -0.26884935998E+02 -0.91147391285E+02  0.31040176793E+03  0.34788994288E+03  0.12509000000E+03 0.  0.
         25    1    3    3    0    0 -0.24999030378E+01  0.32558365011E+02  0.29555462193E+03  0.32259314824E+03  0.12509000000E+03 0.  0.
         25    1    3    3    0    0  0.29384839035E+02  0.58589026275E+02  0.55657038607E+03  0.57420749344E+03  0.12509000000E+03 0.  0.
<mgrwt>
<rscale>  2 0.44473154E+03</rscale>
<asrwt>0</asrwt>
<pdfrwt beam="1">  1       21 0.17700125E+00 0.44473154E+03</pdfrwt>
<pdfrwt beam="2">  1       21 0.60414573E-02 0.44473154E+03</pdfrwt>
<totfact> 0.33351109E+04</totfact>
</mgrwt>
</event>
<event>
 6    0  0.1539497E-004  0.4038760E+03  0.7546771E-02  0.1042446E+00
         21   -1    0    0  502  501  0.00000000000E+00  0.00000000000E+00  0.23275990659E+03  0.23275990659E+03  0.00000000000E+00 0. -1.
         21   -1    0    0  501  502 -0.00000000000E+00 -0.00000000000E+00 -0.17519753614E+03  0.17519753614E+03  0.00000000000E+00 0. -1.
      99925    2    1    2    0    0  0.93264311375E+01 -0.48922535363E+02  0.21556640553E+02  0.26858629266E+03  0.26304659487E+03 0.  0.
         25    1    3    3    0    0  0.93718185715E+01 -0.61986280977E+02 -0.51372295082E+01  0.14001438940E+03  0.12509000000E+03 0.  0.
         25    1    3    3    0    0 -0.45387434054E-01  0.13063745614E+02  0.26693870061E+02  0.12857190326E+03  0.12509000000E+03 0.  0.
         25    1    1    2    0    0 -0.93264311375E+01  0.48922535363E+02  0.36005729897E+02  0.13937115006E+03  0.12509000000E+03 0.  0.
<mgrwt>
<rscale>  2 0.40387603E+03</rscale>
<asrwt>0</asrwt>
<pdfrwt beam="1">  1       21 0.34229398E-01 0.40387603E+03</pdfrwt>
<pdfrwt beam="2">  1       21 0.25764343E-01 0.40387603E+03</pdfrwt>
<totfact> 0.11093163E+05</totfact>
</mgrwt>
</event>
<event>
 6    0  0.1539497E-004  0.4646777E+03  0.7546771E-02  0.1023433E+00
         21   -1    0    0  502  501  0.00000000000E+00  0.00000000000E+00  0.16177981618E+04  0.16177981618E+04  0.00000000000E+00 0. -1.
         21   -1    0    0  501  502 -0.00000000000E+00 -0.00000000000E+00 -0.33367168371E+02  0.33367168371E+02  0.00000000000E+00 0. -1.
      99925    2    1    2    0    0  0.27188008819E+02  0.36909046979E+02  0.13904299383E+04  0.14158243370E+04  0.26298607251E+03 0.  0.
         25    1    3    3    0    0  0.15077851951E+02 -0.87734000131E+01  0.83659728943E+03  0.84607732918E+03  0.12509000000E+03 0.  0.
         25    1    3    3    0    0  0.12110156867E+02  0.45682446992E+02  0.55383264891E+03  0.56974700786E+03  0.12509000000E+03 0.  0.
         25    1    1    2    0    0 -0.27188008819E+02 -0.36909046979E+02  0.19400105506E+03  0.23534099311E+03  0.12509000000E+03 0.  0.
<mgrwt>
<rscale>  2 0.46467771E+03</rscale>
<asrwt>0</asrwt>
<pdfrwt beam="1">  1       21 0.23791144E+00 0.46467771E+03</pdfrwt>
<pdfrwt beam="2">  1       21 0.49069376E-02 0.46467771E+03</pdfrwt>
<totfact> 0.18841842E+04</totfact>
</mgrwt>
</event>
<event>
 6    0  0.1539497E-004  0.9409991E+03  0.7546771E-02  0.9375734E-01
         21   -1    0    0  502  501  0.00000000000E+00  0.00000000000E+00  0.29692061338E+03  0.29692061338E+03  0.00000000000E+00 0.  1.
         21   -1    0    0  501  502 -0.00000000000E+00 -0.00000000000E+00 -0.74555225316E+03  0.74555225316E+03  0.00000000000E+00 0.  1.
      99925    2    1    2    0    0 -0.14835923108E+03 -0.33931609334E+03 -0.91394245577E+01  0.45430045305E+03  0.26298193838E+03 0.  0.
         25    1    1    2    0    0  0.14835923108E+03  0.33931609334E+03 -0.43949221522E+03  0.58817241349E+03  0.12509000000E+03 0.  0.
         25    1    3    3    0    0 -0.11983902509E+03 -0.18360671363E+03 -0.72800988060E+01  0.25253380994E+03  0.12509000000E+03 0.  0.
         25    1    3    3    0    0 -0.28520205989E+02 -0.15570937972E+03 -0.18593257518E+01  0.20176664311E+03  0.12509000000E+03 0.  0.
<mgrwt>
<rscale>  2 0.94099911E+03</rscale>
<asrwt>0</asrwt>
<pdfrwt beam="1">  1       21 0.43664797E-01 0.94099911E+03</pdfrwt>
<pdfrwt beam="2">  1       21 0.10964004E+00 0.94099911E+03</pdfrwt>
<totfact> 0.25596638E+03</totfact>
</mgrwt>
</event>
<event>
 6    0  0.1539497E-004  0.4370037E+03  0.7546771E-02  0.1031670E+00
         21   -1    0    0  502  501  0.00000000000E+00  0.00000000000E+00  0.31846187846E+03  0.31846187846E+03  0.00000000000E+00 0. -1.
         21   -1    0    0  501  502 -0.00000000000E+00 -0.00000000000E+00 -0.14991765328E+03  0.14991765328E+03  0.00000000000E+00 0. -1.
      99925    2    1    2    0    0  0.28622482645E+02  0.15151064135E+02  0.20401098700E+03  0.33438624627E+03  0.26295413597E+03 0.  0.
         25    1    3    3    0    0  0.24781405794E+02  0.98529004506E+01  0.15227193763E+03  0.19886037516E+03  0.12509000000E+03 0.  0.
         25    1    1    2    0    0 -0.28622482645E+02 -0.15151064135E+02 -0.35466761818E+02  0.13399328547E+03  0.12509000000E+03 0.  0.
         25    1    3    3    0    0  0.38410768504E+01  0.52981636845E+01  0.51739049369E+02  0.13552587111E+03  0.12509000000E+03 0.  0.
<mgrwt>
<rscale>  2 0.43700370E+03</rscale>
<asrwt>0</asrwt>
<pdfrwt beam="1">  1       21 0.46832629E-01 0.43700370E+03</pdfrwt>
<pdfrwt beam="2">  1       21 0.22046714E-01 0.43700370E+03</pdfrwt>
<totfact> 0.78134122E+04</totfact>
</mgrwt>
</event>
<event>
 6    0  0.1539497E-004  0.5394959E+03  0.7546771E-02  0.1003955E+00
         21   -1    0    0  502  501  0.00000000000E+00  0.00000000000E+00  0.23164411348E+03  0.23164411348E+03  0.00000000000E+00 0.  1.
         21   -1    0    0  501  502 -0.00000000000E+00 -0.00000000000E+00 -0.31411964511E+03  0.31411964511E+03  0.00000000000E+00 0.  1.
      99925    2    1    2    0    0 -0.18102551859E+03 -0.67060352644E+01 -0.43816253761E+02  0.32225255718E+03  0.26289092267E+03 0.  0.
         25    1    1    2    0    0  0.18102551859E+03  0.67060352644E+01 -0.38659277861E+02  0.22351120141E+03  0.12509000000E+03 0.  0.
         25    1    3    3    0    0 -0.76912222338E+02  0.15743295338E+02 -0.54973228411E+02  0.15758459707E+03  0.12509000000E+03 0.  0.
         25    1    3    3    0    0 -0.10411329626E+03 -0.22449330603E+02  0.11156974651E+02  0.16466796010E+03  0.12509000000E+03 0.  0.
<mgrwt>
<rscale>  2 0.53949594E+03</rscale>
<asrwt>0</asrwt>
<pdfrwt beam="1">  1       21 0.34065311E-01 0.53949594E+03</pdfrwt>
<pdfrwt beam="2">  1       21 0.46194065E-01 0.53949594E+03</pdfrwt>
<totfact> 0.33439588E+04</totfact>
</mgrwt>
</event>
<event>
 6    0  0.1539497E-004  0.4271426E+03  0.7546771E-02  0.1034766E+00
         21   -1    0    0  502  501  0.00000000000E+00  0.00000000000E+00  0.27326306236E+03  0.27326306236E+03  0.00000000000E+00 0. -1.
         21   -1    0    0  501  502 -0.00000000000E+00 -0.00000000000E+00 -0.16691863328E+03  0.16691863328E+03  0.00000000000E+00 0. -1.
      99925    2    1    2    0    0 -0.50925724514E+02  0.68046791385E+02  0.70383973132E+02  0.28473248294E+03  0.26247835708E+03 0.  0.
         25    1    3    3    0    0 -0.16392235363E+02  0.68932995659E+02  0.55519598225E+02  0.15411163862E+03  0.12509000000E+03 0.  0.
         25    1    1    2    0    0  0.50925724514E+02 -0.68046791385E+02  0.35960455952E+02  0.15544921269E+03  0.12509000000E+03 0.  0.
         25    1    3    3    0    0 -0.34533489151E+02 -0.88620427450E+00  0.14864374907E+02  0.13062084433E+03  0.12509000000E+03 0.  0.
<mgrwt>
<rscale>  2 0.42714258E+03</rscale>
<asrwt>0</asrwt>
<pdfrwt beam="1">  1       21 0.40185745E-01 0.42714258E+03</pdfrwt>
<pdfrwt beam="2">  1       21 0.24546858E-01 0.42714258E+03</pdfrwt>
<totfact> 0.87515760E+04</totfact>
</mgrwt>
</event>
<event>
 6    0  0.1539497E-004  0.4070977E+03  0.7546771E-02  0.1041349E+00
         21   -1    0    0  502  501  0.00000000000E+00  0.00000000000E+00  0.89696008203E+03  0.89696008203E+03  0.00000000000E+00 0.  1.
         21   -1    0    0  501  502 -0.00000000000E+00 -0.00000000000E+00 -0.46191731767E+02  0.46191731767E+02  0.00000000000E+00 0.  1.
      99925    2    1    2    0    0  0.57700102424E+02 -0.35747199181E+01  0.55963399835E+03  0.62105120931E+03  0.26300629658E+03 0.  0.
         25    1    3    3    0    0 -0.77961864176E+01 -0.98567965895E+01  0.22394183607E+03  0.25681781676E+03  0.12509000000E+03 0.  0.
         25    1    3    3    0    0  0.65496288841E+02  0.62820766714E+01  0.33569216228E+03  0.36423339256E+03  0.12509000000E+03 0.  0.
         25    1    1    2    0    0 -0.57700102424E+02  0.35747199181E+01  0.29113435191E+03  0.32210060448E+03  0.12509000000E+03 0.  0.
<mgrwt>
<rscale>  2 0.40709773E+03</rscale>
<asrwt>0</asrwt>
<pdfrwt beam="1">  1       21 0.13190588E+00 0.40709773E+03</pdfrwt>
<pdfrwt beam="2">  1       21 0.67929023E-02 0.40709773E+03</pdfrwt>
<totfact> 0.61388740E+04</totfact>
</mgrwt>
</event>
<event>
 6    0  0.1539497E-004  0.3957465E+03  0.7546771E-02  0.1045263E+00
         21   -1    0    0  502  501  0.00000000000E+00  0.00000000000E+00  0.91894950526E+02  0.91894950526E+02  0.00000000000E+00 0. -1.
         21   -1    0    0  501  502 -0.00000000000E+00 -0.00000000000E+00 -0.42607164000E+03  0.42607164000E+03  0.00000000000E+00 0. -1.
      99925    2    1    2    0    0  0.30765536652E+02  0.17428573994E+02 -0.21363452722E+03  0.34068660175E+03  0.26301592340E+03 0.  0.
         25    1    1    2    0    0 -0.30765536652E+02 -0.17428573994E+02 -0.12054216226E+03  0.17727998877E+03  0.12509000000E+03 0.  0.
         25    1    3    3    0    0  0.49741737661E+02 -0.10700500173E+01 -0.13458826190E+03  0.19035990600E+03  0.12509000000E+03 0.  0.
         25    1    3    3    0    0 -0.18976201009E+02  0.18498624011E+02 -0.79046265318E+02  0.15032669575E+03  0.12509000000E+03 0.  0.
<mgrwt>
<rscale>  2 0.39574655E+03</rscale>
<asrwt>0</asrwt>
<pdfrwt beam="1">  1       21 0.13513963E-01 0.39574655E+03</pdfrwt>
<pdfrwt beam="2">  1       21 0.62657594E-01 0.39574655E+03</pdfrwt>
<totfact> 0.10548194E+05</totfact>
</mgrwt>
</event>
<event>
 6    0  0.1539497E-004  0.4110674E+03  0.7546771E-02  0.1040013E+00
         21   -1    0    0  502  501  0.00000000000E+00  0.00000000000E+00  0.19645885626E+04  0.19645885626E+04  0.00000000000E+00 0. -1.
         21   -1    0    0  501  502 -0.00000000000E+00 -0.00000000000E+00 -0.21502768288E+02  0.21502768288E+02  0.00000000000E+00 0. -1.
      99925    2    1    2    0    0  0.53345382125E+02 -0.33315206426E+02  0.12305801869E+04  0.12599595375E+04  0.26308707076E+03 0.  0.
         25    1    3    3    0    0  0.23049269746E+02 -0.10083379250E+02  0.42191423900E+03  0.44078574902E+03  0.12509000000E+03 0.  0.
         25    1    1    2    0    0 -0.53345382125E+02  0.33315206426E+02  0.71250560737E+03  0.72613179342E+03  0.12509000000E+03 0.  0.
         25    1    3    3    0    0  0.30296112378E+02 -0.23231827176E+02  0.80866594795E+03  0.81917378845E+03  0.12509000000E+03 0.  0.
<mgrwt>
<rscale>  2 0.41106736E+03</rscale>
<asrwt>0</asrwt>
<pdfrwt beam="1">  1       21 0.28890996E+00 0.41106736E+03</pdfrwt>
<pdfrwt beam="2">  1       21 0.31621731E-02 0.41106736E+03</pdfrwt>
<totfact> 0.19912232E+04</totfact>
</mgrwt>
</event>
<event>
 6    0  0.1539497E-004  0.3912817E+03  0.7546771E-02  0.1046841E+00
         21   -1    0    0  502  501  0.00000000000E+00  0.00000000000E+00  0.85230377715E+02  0.85230377715E+02  0.00000000000E+00 0. -1.
         21   -1    0    0  501  502 -0.00000000000E+00 -0.00000000000E+00 -0.44908100007E+03  0.44908100007E+03  0.00000000000E+00 0. -1.
      99925    2    1    2    0    0  0.20508960323E+02  0.74255124008E+00 -0.26062265115E+03  0.37083449570E+03  0.26300739168E+03 0.  0.
         25    1    3    3    0    0 -0.19489534236E+02 -0.20359761114E+02 -0.10216958211E+03  0.16395271704E+03  0.12509000000E+03 0.  0.
         25    1    3    3    0    0  0.39998494560E+02  0.21102312354E+02 -0.15845306904E+03  0.20688177866E+03  0.12509000000E+03 0.  0.
         25    1    1    2    0    0 -0.20508960323E+02 -0.74255124008E+00 -0.10322797121E+03  0.16347688208E+03  0.12509000000E+03 0.  0.
<mgrwt>
<rscale>  2 0.39128171E+03</rscale>
<asrwt>0</asrwt>
<pdfrwt beam="1">  1       21 0.12533879E-01 0.39128171E+03</pdfrwt>
<pdfrwt beam="2">  1       21 0.66041324E-01 0.39128171E+03</pdfrwt>
<totfact> 0.10786469E+05</totfact>
</mgrwt>
</event>
<event>
 6    0  0.1539497E-004  0.3918670E+03  0.7546771E-02  0.1046633E+00
         21   -1    0    0  502  501  0.00000000000E+00  0.00000000000E+00  0.15672148961E+02  0.15672148961E+02  0.00000000000E+00 0. -1.
         21   -1    0    0  501  502 -0.00000000000E+00 -0.00000000000E+00 -0.24495640661E+04  0.24495640661E+04  0.00000000000E+00 0. -1.
      99925    2    1    2    0    0  0.20293861043E+02  0.14441984658E+02 -0.16151910722E+04  0.16366597289E+04  0.26304459121E+03 0.  0.
         25    1    3    3    0    0 -0.13319979303E+02 -0.39210115096E+01 -0.98692240566E+03  0.99491514164E+03  0.12509000000E+03 0.  0.
         25    1    3    3    0    0  0.33613840346E+02  0.18362996168E+02 -0.62826866652E+03  0.64174458730E+03  0.12509000000E+03 0.  0.
         25    1    1    2    0    0 -0.20293861043E+02 -0.14441984658E+02 -0.81870084499E+03  0.82857648615E+03  0.12509000000E+03 0.  0.
<mgrwt>
<rscale>  2 0.39186698E+03</rscale>
<asrwt>0</asrwt>
<pdfrwt beam="1">  1       21 0.23047278E-02 0.39186698E+03</pdfrwt>
<pdfrwt beam="2">  1       21 0.36023001E+00 0.39186698E+03</pdfrwt>
<totfact> 0.12666296E+04</totfact>
</mgrwt>
</event>
<event>
 6    0  0.1539497E-004  0.3961995E+03  0.7546771E-02  0.1045104E+00
         21   -1    0    0  502  501  0.00000000000E+00  0.00000000000E+00  0.39557735899E+02  0.39557735899E+02  0.00000000000E+00 0.  1.
         21   -1    0    0  501  502 -0.00000000000E+00 -0.00000000000E+00 -0.99205665088E+03  0.99205665088E+03  0.00000000000E+00 0.  1.
      99925    2    1    2    0    0  0.29301728330E+02 -0.22970092454E+02 -0.64487742630E+03  0.69745169463E+03  0.26303185159E+03 0.  0.
         25    1    3    3    0    0  0.12123109056E+02  0.29218697919E+02 -0.31212475452E+03  0.33774261289E+03  0.12509000000E+03 0.  0.
         25    1    1    2    0    0 -0.29301728330E+02  0.22970092454E+02 -0.30762148868E+03  0.33416269215E+03  0.12509000000E+03 0.  0.
         25    1    3    3    0    0  0.17178619274E+02 -0.52188790372E+02 -0.33275267178E+03  0.35970908173E+03  0.12509000000E+03 0.  0.
<mgrwt>
<rscale>  2 0.39619952E+03</rscale>
<asrwt>0</asrwt>
<pdfrwt beam="1">  1       21 0.58173133E-02 0.39619952E+03</pdfrwt>
<pdfrwt beam="2">  1       21 0.14589070E+00 0.39619952E+03</pdfrwt>
<totfact> 0.61833288E+04</totfact>
</mgrwt>
</event>
