<event>
 7    0  0.4759581E-002  0.4488662E+03  0.7546771E-02  0.1028061E+00
         21   -1    0    0  502  501  0.00000000000E+00  0.00000000000E+00  0.59006142377E+03  0.59006142377E+03  0.00000000000E+00 0.  1.
         21   -1    0    0  501  502 -0.00000000000E+00 -0.00000000000E+00 -0.85364374993E+02  0.85364374993E+02  0.00000000000E+00 0.  1.
      99926    2    1    2    0    0 -0.17763568394E-14  0.00000000000E+00  0.50469704878E+03  0.67542579876E+03  0.44886623686E+03 0.  0.
      99925    2    3    3    0    0  0.10860039955E+02  0.27066853966E+02  0.16395009959E+03  0.31127398079E+03  0.26298536254E+03 0.  0.
         25    1    4    4    0    0 -0.43784944280E+01 -0.26039384998E+02  0.79971568225E+02  0.15079847681E+03  0.12509000000E+03 0.  0.
         25    1    3    3    0    0 -0.10860039955E+02 -0.27066853966E+02  0.34074694919E+03  0.36415181797E+03  0.12509000000E+03 0.  0.
         25    1    4    4    0    0  0.15238534383E+02  0.53106238964E+02  0.83978531362E+02  0.16047550398E+03  0.12509000000E+03 0.  0.
<mgrwt>
<rscale>  2 0.44886624E+03</rscale>
<asrwt>0</asrwt>
<pdfrwt beam="1">  1       21 0.86773737E-01 0.44886624E+03</pdfrwt>
<pdfrwt beam="2">  1       21 0.12553585E-01 0.44886624E+03</pdfrwt>
<totfact> 0.56960181E+04</totfact>
</mgrwt>
</event>
<event>
 7    0  0.4759581E-002  0.4544290E+03  0.7546771E-02  0.1026409E+00
         21   -1    0    0  502  501  0.00000000000E+00  0.00000000000E+00  0.10576978729E+03  0.10576978729E+03  0.00000000000E+00 0.  1.
         21   -1    0    0  501  502 -0.00000000000E+00 -0.00000000000E+00 -0.48810194591E+03  0.48810194591E+03  0.00000000000E+00 0.  1.
      99926    2    1    2    0    0  0.00000000000E+00  0.14210854715E-13 -0.38233215862E+03  0.59387173319E+03  0.45442904393E+03 0.  0.
      99925    2    3    3    0    0  0.46470142182E+02  0.67080454990E+02 -0.13938772425E+03  0.30868974244E+03  0.26306112951E+03 0.  0.
         25    1    4    4    0    0  0.18159499917E+02  0.73938160043E+02 -0.64487563264E+02  0.16000866496E+03  0.12509000000E+03 0.  0.
         25    1    4    4    0    0  0.28310642265E+02 -0.68577050529E+01 -0.74900160981E+02  0.14868107747E+03  0.12509000000E+03 0.  0.
         25    1    3    3    0    0 -0.46470142182E+02 -0.67080454990E+02 -0.24294443438E+03  0.28518199075E+03  0.12509000000E+03 0.  0.
<mgrwt>
<rscale>  2 0.45442904E+03</rscale>
<asrwt>0</asrwt>
<pdfrwt beam="1">  1       21 0.15554380E-01 0.45442904E+03</pdfrwt>
<pdfrwt beam="2">  1       21 0.71779698E-01 0.45442904E+03</pdfrwt>
<totfact> 0.59324293E+04</totfact>
</mgrwt>
</event>
<event>
 7    0  0.4759581E-002  0.4555648E+03  0.7546771E-02  0.1026075E+00
         21   -1    0    0  502  501  0.00000000000E+00  0.00000000000E+00  0.34450399762E+03  0.34450399762E+03  0.00000000000E+00 0. -1.
         21   -1    0    0  501  502 -0.00000000000E+00 -0.00000000000E+00 -0.15060731744E+03  0.15060731744E+03  0.00000000000E+00 0. -1.
      99926    2    1    2    0    0 -0.71054273576E-14  0.00000000000E+00  0.19389668018E+03  0.49511131506E+03  0.45556480518E+03 0.  0.
      99925    2    3    3    0    0  0.36773583118E+02  0.10416613956E+03  0.15104894892E+03  0.32281413800E+03  0.26304049437E+03 0.  0.
         25    1    4    4    0    0  0.18482731358E+02  0.98066329434E+01  0.78710078874E+02  0.14926676129E+03  0.12509000000E+03 0.  0.
         25    1    3    3    0    0 -0.36773583118E+02 -0.10416613956E+03  0.42847731263E+02  0.17229717705E+03  0.12509000000E+03 0.  0.
         25    1    4    4    0    0  0.18290851760E+02  0.94359506618E+02  0.72338870042E+02  0.17354737672E+03  0.12509000000E+03 0.  0.
<mgrwt>
<rscale>  2 0.45556481E+03</rscale>
<asrwt>0</asrwt>
<pdfrwt beam="1">  1       21 0.50662353E-01 0.45556481E+03</pdfrwt>
<pdfrwt beam="2">  1       21 0.22148135E-01 0.45556481E+03</pdfrwt>
<totfact> 0.65322105E+04</totfact>
</mgrwt>
</event>
<event>
 7    0  0.4759581E-002  0.4531119E+03  0.7546771E-02  0.1026798E+00
         21   -1    0    0  502  501  0.00000000000E+00  0.00000000000E+00  0.30498242427E+02  0.30498242427E+02  0.00000000000E+00 0. -1.
         21   -1    0    0  501  502 -0.00000000000E+00 -0.00000000000E+00 -0.16829688924E+04  0.16829688924E+04  0.00000000000E+00 0. -1.
      99926    2    1    2    0    0 -0.71054273576E-14  0.00000000000E+00 -0.16524706500E+04  0.17134671348E+04  0.45311187704E+03 0.  0.
      99925    2    3    3    0    0 -0.58722376427E+02  0.94167369207E+02 -0.10050304583E+04  0.10447802718E+04  0.26299008209E+03 0.  0.
         25    1    4    4    0    0 -0.69712531885E+02  0.60255897267E+02 -0.54236172359E+03  0.56417582151E+03  0.12509000000E+03 0.  0.
         25    1    4    4    0    0  0.10990155457E+02  0.33911471939E+02 -0.46266873475E+03  0.48060445032E+03  0.12509000000E+03 0.  0.
         25    1    3    3    0    0  0.58722376427E+02 -0.94167369207E+02 -0.64744019163E+03  0.66868686300E+03  0.12509000000E+03 0.  0.
<mgrwt>
<rscale>  2 0.45311188E+03</rscale>
<asrwt>0</asrwt>
<pdfrwt beam="1">  1       21 0.44850354E-02 0.45311188E+03</pdfrwt>
<pdfrwt beam="2">  1       21 0.24749544E+00 0.45311188E+03</pdfrwt>
<totfact> 0.19263759E+04</totfact>
</mgrwt>
</event>
<event>
 7    0  0.4759581E-002  0.4503496E+03  0.7546771E-02  0.1027618E+00
         21   -1    0    0  502  501  0.00000000000E+00  0.00000000000E+00  0.77567029873E+03  0.77567029873E+03  0.00000000000E+00 0.  1.
         21   -1    0    0  501  502 -0.00000000000E+00 -0.00000000000E+00 -0.65367570440E+02  0.65367570440E+02  0.00000000000E+00 0.  1.
      99926    2    1    2    0    0  0.00000000000E+00  0.00000000000E+00  0.71030272829E+03  0.84103786917E+03  0.45034956596E+03 0.  0.
      99925    2    3    3    0    0 -0.25954528611E+02 -0.32371225741E+02  0.63677928520E+03  0.69012485252E+03  0.26279824997E+03 0.  0.
         25    1    4    4    0    0 -0.32989048646E+02 -0.42743500380E+02  0.27055775651E+03  0.30292621521E+03  0.12509000000E+03 0.  0.
         25    1    3    3    0    0  0.25954528611E+02  0.32371225741E+02  0.73523443086E+02  0.15091301665E+03  0.12509000000E+03 0.  0.
         25    1    4    4    0    0  0.70345200342E+01  0.10372274639E+02  0.36622152869E+03  0.38719863730E+03  0.12509000000E+03 0.  0.
<mgrwt>
<rscale>  2 0.45034957E+03</rscale>
<asrwt>0</asrwt>
<pdfrwt beam="1">  1       21 0.11406916E+00 0.45034957E+03</pdfrwt>
<pdfrwt beam="2">  1       21 0.96128784E-02 0.45034957E+03</pdfrwt>
<totfact> 0.47554349E+04</totfact>
</mgrwt>
</event>
<event>
 7    0  0.4759581E-002  0.4686327E+03  0.7546771E-02  0.1022307E+00
         21   -1    0    0  502  501  0.00000000000E+00  0.00000000000E+00  0.23402997517E+03  0.23402997517E+03  0.00000000000E+00 0.  1.
         21   -1    0    0  501  502 -0.00000000000E+00 -0.00000000000E+00 -0.23460309758E+03  0.23460309758E+03  0.00000000000E+00 0.  1.
      99926    2    1    2    0    0  0.00000000000E+00  0.00000000000E+00 -0.57312241035E+00  0.46863307275E+03  0.46863272229E+03 0.  0.
      99925    2    3    3    0    0 -0.80053321016E+02 -0.93801232427E+02 -0.23669693175E+02  0.29146601856E+03  0.26303037883E+03 0.  0.
         25    1    3    3    0    0  0.80053321016E+02  0.93801232427E+02  0.23096570765E+02  0.17716705419E+03  0.12509000000E+03 0.  0.
         25    1    4    4    0    0 -0.69636464208E+02 -0.19776732415E+02 -0.17860036535E+02  0.14562570274E+03  0.12509000000E+03 0.  0.
         25    1    4    4    0    0 -0.10416856808E+02 -0.74024500013E+02 -0.58096566405E+01  0.14584031582E+03  0.12509000000E+03 0.  0.
<mgrwt>
<rscale>  2 0.46863272E+03</rscale>
<asrwt>0</asrwt>
<pdfrwt beam="1">  1       21 0.34416173E-01 0.46863272E+03</pdfrwt>
<pdfrwt beam="2">  1       21 0.34500455E-01 0.46863272E+03</pdfrwt>
<totfact> 0.60683936E+04</totfact>
</mgrwt>
</event>
<event>
 7    0  0.4759581E-002  0.4347610E+03  0.7546771E-02  0.1032366E+00
         21   -1    0    0  502  501  0.00000000000E+00  0.00000000000E+00  0.10814087199E+03  0.10814087199E+03  0.00000000000E+00 0.  1.
         21   -1    0    0  501  502 -0.00000000000E+00 -0.00000000000E+00 -0.43696975108E+03  0.43696975108E+03  0.00000000000E+00 0.  1.
      99926    2    1    2    0    0  0.00000000000E+00 -0.71054273576E-14 -0.32882887909E+03  0.54511062308E+03  0.43476103743E+03 0.  0.
      99925    2    3    3    0    0 -0.71200720186E+02  0.35202211791E+02 -0.14974764535E+03  0.31267496607E+03  0.26274044007E+03 0.  0.
         25    1    3    3    0    0  0.71200720186E+02 -0.35202211791E+02 -0.17908123373E+03  0.23243565700E+03  0.12509000000E+03 0.  0.
         25    1    4    4    0    0 -0.64794526621E+02  0.42919544748E+02 -0.63337319866E+02  0.16031076754E+03  0.12509000000E+03 0.  0.
         25    1    4    4    0    0 -0.64061935648E+01 -0.77173329566E+01 -0.86410325486E+02  0.15236419853E+03  0.12509000000E+03 0.  0.
<mgrwt>
<rscale>  2 0.43476104E+03</rscale>
<asrwt>0</asrwt>
<pdfrwt beam="1">  1       21 0.15903070E-01 0.43476104E+03</pdfrwt>
<pdfrwt beam="2">  1       21 0.64260256E-01 0.43476104E+03</pdfrwt>
<totfact> 0.73232763E+04</totfact>
</mgrwt>
</event>
<event>
 7    0  0.4759581E-002  0.4573341E+03  0.7546771E-02  0.1025557E+00
         21   -1    0    0  502  501  0.00000000000E+00  0.00000000000E+00  0.17096780311E+03  0.17096780311E+03  0.00000000000E+00 0. -1.
         21   -1    0    0  501  502 -0.00000000000E+00 -0.00000000000E+00 -0.30583899261E+03  0.30583899261E+03  0.00000000000E+00 0. -1.
      99926    2    1    2    0    0  0.88817841970E-15  0.00000000000E+00 -0.13487118951E+03  0.47680679572E+03  0.45733410401E+03 0.  0.
      99925    2    3    3    0    0  0.49218410792E+01 -0.94916542577E+02 -0.13685780440E+02  0.27839614569E+03  0.26131157413E+03 0.  0.
         25    1    3    3    0    0 -0.49218410792E+01  0.94916542577E+02 -0.12118540907E+03  0.19841065003E+03  0.12509000000E+03 0.  0.
         25    1    4    4    0    0 -0.24009171311E+02 -0.18738315129E+02 -0.44795702083E+01  0.12882212314E+03  0.12509000000E+03 0.  0.
         25    1    4    4    0    0  0.28931012391E+02 -0.76178227449E+02 -0.92062102315E+01  0.14957402255E+03  0.12509000000E+03 0.  0.
<mgrwt>
<rscale>  2 0.45733410E+03</rscale>
<asrwt>0</asrwt>
<pdfrwt beam="1">  1       21 0.25142324E-01 0.45733410E+03</pdfrwt>
<pdfrwt beam="2">  1       21 0.44976322E-01 0.45733410E+03</pdfrwt>
<totfact> 0.65707696E+04</totfact>
</mgrwt>
</event>
<event>
 7    0  0.4759581E-002  0.4619234E+03  0.7546771E-02  0.1024225E+00
         21   -1    0    0  502  501  0.00000000000E+00  0.00000000000E+00  0.64334869467E+03  0.64334869467E+03  0.00000000000E+00 0.  1.
         21   -1    0    0  501  502 -0.00000000000E+00 -0.00000000000E+00 -0.82915070863E+02  0.82915070863E+02  0.00000000000E+00 0.  1.
      99926    2    1    2    0    0  0.00000000000E+00  0.00000000000E+00  0.56043362381E+03  0.72626376554E+03  0.46192338156E+03 0.  0.
      99925    2    3    3    0    0  0.11411541964E+03 -0.20726909586E+02  0.30516057735E+03  0.41923971089E+03  0.26303426286E+03 0.  0.
         25    1    4    4    0    0  0.35445548187E+02 -0.42398341708E+02  0.12554754829E+03  0.18564401754E+03  0.12509000000E+03 0.  0.
         25    1    4    4    0    0  0.78669871456E+02  0.21671432122E+02  0.17961302905E+03  0.23359569335E+03  0.12509000000E+03 0.  0.
         25    1    3    3    0    0 -0.11411541964E+03  0.20726909586E+02  0.25527304646E+03  0.30702405465E+03  0.12509000000E+03 0.  0.
<mgrwt>
<rscale>  2 0.46192338E+03</rscale>
<asrwt>0</asrwt>
<pdfrwt beam="1">  1       21 0.94610099E-01 0.46192338E+03</pdfrwt>
<pdfrwt beam="2">  1       21 0.12193393E-01 0.46192338E+03</pdfrwt>
<totfact> 0.48788897E+04</totfact>
</mgrwt>
</event>
<event>
 7    0  0.4759581E-002  0.4027803E+03  0.7546771E-02  0.1042821E+00
         21   -1    0    0  502  501  0.00000000000E+00  0.00000000000E+00  0.37191140613E+03  0.37191140613E+03  0.00000000000E+00 0. -1.
         21   -1    0    0  501  502 -0.00000000000E+00 -0.00000000000E+00 -0.10905285866E+03  0.10905285866E+03  0.00000000000E+00 0. -1.
      99926    2    1    2    0    0  0.17763568394E-14  0.35527136788E-14  0.26285854747E+03  0.48096426479E+03  0.40278034711E+03 0.  0.
      99925    2    3    3    0    0 -0.10561299018E+02  0.19937277717E+02  0.22890925577E+03  0.34940021732E+03  0.26300575736E+03 0.  0.
         25    1    3    3    0    0  0.10561299018E+02 -0.19937277717E+02  0.33949291702E+02  0.13156404747E+03  0.12509000000E+03 0.  0.
         25    1    4    4    0    0 -0.10994719826E+02  0.43133944619E+02  0.86630603752E+02  0.15853640165E+03  0.12509000000E+03 0.  0.
         25    1    4    4    0    0  0.43342080765E+00 -0.23196666902E+02  0.14227865202E+03  0.19086381566E+03  0.12509000000E+03 0.  0.
<mgrwt>
<rscale>  2 0.40278035E+03</rscale>
<asrwt>0</asrwt>
<pdfrwt beam="1">  1       21 0.54692854E-01 0.40278035E+03</pdfrwt>
<pdfrwt beam="2">  1       21 0.16037185E-01 0.40278035E+03</pdfrwt>
<totfact> 0.10319652E+05</totfact>
</mgrwt>
</event>
<event>
 7    0  0.4759581E-002  0.4540876E+03  0.7546771E-02  0.1026510E+00
         21   -1    0    0  502  501  0.00000000000E+00  0.00000000000E+00  0.74874357626E+02  0.74874357626E+02  0.00000000000E+00 0.  1.
         21   -1    0    0  501  502 -0.00000000000E+00 -0.00000000000E+00 -0.68847181503E+03  0.68847181503E+03  0.00000000000E+00 0.  1.
      99926    2    1    2    0    0  0.00000000000E+00  0.00000000000E+00 -0.61359745740E+03  0.76334617265E+03  0.45408759020E+03 0.  0.
      99925    2    3    3    0    0 -0.35921520506E+02  0.24545585614E+01 -0.56534524337E+03  0.62452195016E+03  0.26289929922E+03 0.  0.
         25    1    4    4    0    0  0.20100521302E+02 -0.13291333537E+02 -0.27134713413E+03  0.29976234888E+03  0.12509000000E+03 0.  0.
         25    1    3    3    0    0  0.35921520506E+02 -0.24545585614E+01 -0.48252214033E+02  0.13882422250E+03  0.12509000000E+03 0.  0.
         25    1    4    4    0    0 -0.56022041808E+02  0.15745892099E+02 -0.29399810923E+03  0.32475960127E+03  0.12509000000E+03 0.  0.
<mgrwt>
<rscale>  2 0.45408759E+03</rscale>
<asrwt>0</asrwt>
<pdfrwt beam="1">  1       21 0.11010935E-01 0.45408759E+03</pdfrwt>
<pdfrwt beam="2">  1       21 0.10124586E+00 0.45408759E+03</pdfrwt>
<totfact> 0.49945349E+04</totfact>
</mgrwt>
</event>
<event>
 7    0  0.4759581E-002  0.4610512E+03  0.7546771E-02  0.1024477E+00
         21   -1    0    0  502  501  0.00000000000E+00  0.00000000000E+00  0.21881969988E+03  0.21881969988E+03  0.00000000000E+00 0. -1.
         21   -1    0    0  501  502 -0.00000000000E+00 -0.00000000000E+00 -0.24285771397E+03  0.24285771397E+03  0.00000000000E+00 0. -1.
      99926    2    1    2    0    0  0.00000000000E+00  0.00000000000E+00 -0.24038014088E+02  0.46167741386E+03  0.46105119927E+03 0.  0.
      99925    2    3    3    0    0  0.92617860852E+02  0.50834975689E+02  0.39883462509E+02  0.28590561244E+03  0.26265769690E+03 0.  0.
         25    1    4    4    0    0  0.70137066543E+02  0.50716155629E+02 -0.18781289889E+01  0.15212617136E+03  0.12509000000E+03 0.  0.
         25    1    4    4    0    0  0.22480794310E+02  0.11882005993E+00  0.41761591498E+02  0.13377944108E+03  0.12509000000E+03 0.  0.
         25    1    3    3    0    0 -0.92617860852E+02 -0.50834975689E+02 -0.63921476597E+02  0.17577180141E+03  0.12509000000E+03 0.  0.
<mgrwt>
<rscale>  2 0.46105120E+03</rscale>
<asrwt>0</asrwt>
<pdfrwt beam="1">  1       21 0.32179368E-01 0.46105120E+03</pdfrwt>
<pdfrwt beam="2">  1       21 0.35714370E-01 0.46105120E+03</pdfrwt>
<totfact> 0.64870306E+04</totfact>
</mgrwt>
</event>
<event>
 7    0  0.4759581E-002  0.4468779E+03  0.7546771E-02  0.1028657E+00
         21   -1    0    0  502  501  0.00000000000E+00  0.00000000000E+00  0.10942959390E+04  0.10942959390E+04  0.00000000000E+00 0. -1.
         21   -1    0    0  501  502 -0.00000000000E+00 -0.00000000000E+00 -0.45622917909E+02  0.45622917909E+02  0.00000000000E+00 0. -1.
      99926    2    1    2    0    0  0.71054273576E-14  0.00000000000E+00  0.10486730211E+04  0.11399188569E+04  0.44687794215E+03 0.  0.
      99925    2    3    3    0    0  0.63742651686E+02  0.54444136401E+02  0.82770238457E+03  0.87251874484E+03  0.26300272440E+03 0.  0.
         25    1    4    4    0    0  0.49000907194E+02  0.40746975711E+02  0.54377980628E+03  0.56160964268E+03  0.12509000000E+03 0.  0.
         25    1    3    3    0    0 -0.63742651686E+02 -0.54444136401E+02  0.22097063655E+03  0.26740011209E+03  0.12509000000E+03 0.  0.
         25    1    4    4    0    0  0.14741744492E+02  0.13697160691E+02  0.28392257829E+03  0.31090910216E+03  0.12509000000E+03 0.  0.
<mgrwt>
<rscale>  2 0.44687794E+03</rscale>
<asrwt>0</asrwt>
<pdfrwt beam="1">  1       21 0.16092586E+00 0.44687794E+03</pdfrwt>
<pdfrwt beam="2">  1       21 0.67092533E-02 0.44687794E+03</pdfrwt>
<totfact> 0.36369200E+04</totfact>
</mgrwt>
</event>
<event>
 7    0  0.4759581E-002  0.4426698E+03  0.7546771E-02  0.1029931E+00
         21   -1    0    0  502  501  0.00000000000E+00  0.00000000000E+00  0.15510881008E+04  0.15510881008E+04  0.00000000000E+00 0. -1.
         21   -1    0    0  501  502 -0.00000000000E+00 -0.00000000000E+00 -0.31583729724E+02  0.31583729724E+02  0.00000000000E+00 0. -1.
      99926    2    1    2    0    0  0.00000000000E+00  0.00000000000E+00  0.15195043710E+04  0.15826718305E+04  0.44266984244E+03 0.  0.
      99925    2    3    3    0    0  0.52289968385E+02  0.75653708140E+02  0.11175581359E+04  0.11517820436E+04  0.26307406682E+03 0.  0.
         25    1    4    4    0    0  0.74798420428E+01  0.64430287239E+02  0.47143743275E+03  0.49204468400E+03  0.12509000000E+03 0.  0.
         25    1    4    4    0    0  0.44810126342E+02  0.11223420901E+02  0.64612070310E+03  0.65973735962E+03  0.12509000000E+03 0.  0.
         25    1    3    3    0    0 -0.52289968385E+02 -0.75653708140E+02  0.40194623517E+03  0.43088978686E+03  0.12509000000E+03 0.  0.
<mgrwt>
<rscale>  2 0.44266984E+03</rscale>
<asrwt>0</asrwt>
<pdfrwt beam="1">  1       21 0.22810114E+00 0.44266984E+03</pdfrwt>
<pdfrwt beam="2">  1       21 0.46446672E-02 0.44266984E+03</pdfrwt>
<totfact> 0.24045072E+04</totfact>
</mgrwt>
</event>
<event>
 7    0  0.4759581E-002  0.4612431E+03  0.7546771E-02  0.1024421E+00
         21   -1    0    0  502  501  0.00000000000E+00  0.00000000000E+00  0.23009641379E+03  0.23009641379E+03  0.00000000000E+00 0. -1.
         21   -1    0    0  501  502 -0.00000000000E+00 -0.00000000000E+00 -0.23114789296E+03  0.23114789296E+03  0.00000000000E+00 0. -1.
      99926    2    1    2    0    0  0.00000000000E+00  0.00000000000E+00 -0.10514791693E+01  0.46124430676E+03  0.46124310825E+03 0.  0.
      99925    2    3    3    0    0  0.36998212113E+02  0.10737649032E+03  0.34380511098E+02  0.28861316123E+03  0.26309116085E+03 0.  0.
         25    1    3    3    0    0 -0.36998212113E+02 -0.10737649032E+03 -0.35431990267E+02  0.17263114553E+03  0.12509000000E+03 0.  0.
         25    1    4    4    0    0  0.51364948492E+02  0.76403458825E+02  0.33770220027E+02  0.15894584711E+03  0.12509000000E+03 0.  0.
         25    1    4    4    0    0 -0.14366736380E+02  0.30973031494E+02  0.61029107085E+00  0.12966731411E+03  0.12509000000E+03 0.  0.
<mgrwt>
<rscale>  2 0.46124311E+03</rscale>
<asrwt>0</asrwt>
<pdfrwt beam="1">  1       21 0.33837708E-01 0.46124311E+03</pdfrwt>
<pdfrwt beam="2">  1       21 0.33992337E-01 0.46124311E+03</pdfrwt>
<totfact> 0.64802058E+04</totfact>
</mgrwt>
</event>
<event>
 7    0  0.4759581E-002  0.4596375E+03  0.7546771E-02  0.1024886E+00
         21   -1    0    0  502  501  0.00000000000E+00  0.00000000000E+00  0.31707635798E+03  0.31707635798E+03  0.00000000000E+00 0.  1.
         21   -1    0    0  501  502 -0.00000000000E+00 -0.00000000000E+00 -0.16657395543E+03  0.16657395543E+03  0.00000000000E+00 0.  1.
      99926    2    1    2    0    0  0.00000000000E+00  0.00000000000E+00  0.15050240255E+03  0.48365031340E+03  0.45963752293E+03 0.  0.
      99925    2    3    3    0    0  0.42210702633E+02 -0.10960555921E+03  0.97587569665E+02  0.30408804101E+03  0.26296593107E+03 0.  0.
         25    1    4    4    0    0  0.29930009026E+02 -0.72967226555E+02  0.89640311659E+02  0.17292459387E+03  0.12509000000E+03 0.  0.
         25    1    3    3    0    0 -0.42210702633E+02  0.10960555921E+03  0.52914832885E+02  0.17956227239E+03  0.12509000000E+03 0.  0.
         25    1    4    4    0    0  0.12280693607E+02 -0.36638332660E+02  0.79472580062E+01  0.13116344714E+03  0.12509000000E+03 0.  0.
<mgrwt>
<rscale>  2 0.45963752E+03</rscale>
<asrwt>0</asrwt>
<pdfrwt beam="1">  1       21 0.46628876E-01 0.45963752E+03</pdfrwt>
<pdfrwt beam="2">  1       21 0.24496170E-01 0.45963752E+03</pdfrwt>
<totfact> 0.64045093E+04</totfact>
</mgrwt>
</event>
<event>
 7    0  0.4759581E-002  0.4481434E+03  0.7546771E-02  0.1028277E+00
         21   -1    0    0  502  501  0.00000000000E+00  0.00000000000E+00  0.24968460073E+03  0.24968460073E+03  0.00000000000E+00 0. -1.
         21   -1    0    0  501  502 -0.00000000000E+00 -0.00000000000E+00 -0.20108622539E+03  0.20108622539E+03  0.00000000000E+00 0. -1.
      99926    2    1    2    0    0  0.00000000000E+00  0.00000000000E+00  0.48598375347E+02  0.45077082612E+03  0.44814343195E+03 0.  0.
      99925    2    3    3    0    0 -0.33667742599E+02  0.33297683451E+02 -0.65321853115E+02  0.27507910985E+03  0.26298159549E+03 0.  0.
         25    1    4    4    0    0 -0.28446902177E+02 -0.16504872286E+02 -0.52990438712E+02  0.13977529019E+03  0.12509000000E+03 0.  0.
         25    1    4    4    0    0 -0.52208404218E+01  0.49802555737E+02 -0.12331414403E+02  0.13530381966E+03  0.12509000000E+03 0.  0.
         25    1    3    3    0    0  0.33667742599E+02 -0.33297683451E+02  0.11392022846E+03  0.17569171628E+03  0.12509000000E+03 0.  0.
<mgrwt>
<rscale>  2 0.44814343E+03</rscale>
<asrwt>0</asrwt>
<pdfrwt beam="1">  1       21 0.36718324E-01 0.44814343E+03</pdfrwt>
<pdfrwt beam="2">  1       21 0.29571504E-01 0.44814343E+03</pdfrwt>
<totfact> 0.72756090E+04</totfact>
</mgrwt>
</event>
<event>
 7    0  0.4759581E-002  0.4478351E+03  0.7546771E-02  0.1028370E+00
         21   -1    0    0  502  501  0.00000000000E+00  0.00000000000E+00  0.28320360072E+02  0.28320360072E+02  0.00000000000E+00 0.  1.
         21   -1    0    0  501  502 -0.00000000000E+00 -0.00000000000E+00 -0.17704251706E+04  0.17704251706E+04  0.00000000000E+00 0.  1.
      99926    2    1    2    0    0  0.35527136788E-14  0.00000000000E+00 -0.17421048106E+04  0.17987455307E+04  0.44783514071E+03 0.  0.
      99925    2    3    3    0    0  0.31575260130E+02  0.10153832953E+03 -0.10960043267E+04  0.11321119186E+04  0.26295414566E+03 0.  0.
         25    1    4    4    0    0 -0.10612443693E+01  0.11893889300E+02 -0.52545817740E+03  0.54027437024E+03  0.12509000000E+03 0.  0.
         25    1    4    4    0    0  0.32636504500E+02  0.89644440233E+02 -0.57054614925E+03  0.59183754833E+03  0.12509000000E+03 0.  0.
         25    1    3    3    0    0 -0.31575260130E+02 -0.10153832953E+03 -0.64610048391E+03  0.66663361214E+03  0.12509000000E+03 0.  0.
<mgrwt>
<rscale>  2 0.44783514E+03</rscale>
<asrwt>0</asrwt>
<pdfrwt beam="1">  1       21 0.41647566E-02 0.44783514E+03</pdfrwt>
<pdfrwt beam="2">  1       21 0.26035678E+00 0.44783514E+03</pdfrwt>
<totfact> 0.18279175E+04</totfact>
</mgrwt>
</event>
<event>
 7    0  0.4759581E-002  0.4528937E+03  0.7546771E-02  0.1026863E+00
         21   -1    0    0  502  501  0.00000000000E+00  0.00000000000E+00  0.16288861604E+03  0.16288861604E+03  0.00000000000E+00 0.  1.
         21   -1    0    0  501  502 -0.00000000000E+00 -0.00000000000E+00 -0.31480521501E+03  0.31480521501E+03  0.00000000000E+00 0.  1.
      99926    2    1    2    0    0  0.00000000000E+00  0.00000000000E+00 -0.15191659897E+03  0.47769383105E+03  0.45289374381E+03 0.  0.
      99925    2    3    3    0    0  0.50817260424E+02  0.96514434919E+02 -0.11747764082E+03  0.30819167755E+03  0.26321793995E+03 0.  0.
         25    1    4    4    0    0  0.46376019797E+02  0.78250613469E+02 -0.89309886527E+02  0.17859915356E+03  0.12509000000E+03 0.  0.
         25    1    4    4    0    0  0.44412406272E+01  0.18263821450E+02 -0.28167754297E+02  0.12959252399E+03  0.12509000000E+03 0.  0.
         25    1    3    3    0    0 -0.50817260424E+02 -0.96514434919E+02 -0.34438958143E+02  0.16950215350E+03  0.12509000000E+03 0.  0.
<mgrwt>
<rscale>  2 0.45289374E+03</rscale>
<asrwt>0</asrwt>
<pdfrwt beam="1">  1       21 0.23954208E-01 0.45289374E+03</pdfrwt>
<pdfrwt beam="2">  1       21 0.46294884E-01 0.45289374E+03</pdfrwt>
<totfact> 0.67998032E+04</totfact>
</mgrwt>
</event>
<event>
 7    0  0.4759581E-002  0.4583334E+03  0.7546771E-02  0.1025266E+00
         21   -1    0    0  502  501  0.00000000000E+00  0.00000000000E+00  0.13189657189E+04  0.13189657189E+04  0.00000000000E+00 0. -1.
         21   -1    0    0  501  502 -0.00000000000E+00 -0.00000000000E+00 -0.39817096625E+02  0.39817096625E+02  0.00000000000E+00 0. -1.
      99926    2    1    2    0    0  0.00000000000E+00  0.00000000000E+00  0.12791486222E+04  0.13587828155E+04  0.45833343964E+03 0.  0.
      99925    2    3    3    0    0  0.99961522774E+02  0.32677861823E+02  0.65541734804E+03  0.71399730138E+03  0.26298307470E+03 0.  0.
         25    1    3    3    0    0 -0.99961522774E+02 -0.32677861823E+02  0.62373127420E+03  0.64478551410E+03  0.12509000000E+03 0.  0.
         25    1    4    4    0    0  0.82302091437E+02  0.92346016917E+01  0.41694608517E+03  0.44311449780E+03  0.12509000000E+03 0.  0.
         25    1    4    4    0    0  0.17659431337E+02  0.23443260131E+02  0.23847126287E+03  0.27088280358E+03  0.12509000000E+03 0.  0.
<mgrwt>
<rscale>  2 0.45833344E+03</rscale>
<asrwt>0</asrwt>
<pdfrwt beam="1">  1       21 0.19396552E+00 0.45833344E+03</pdfrwt>
<pdfrwt beam="2">  1       21 0.58554563E-02 0.45833344E+03</pdfrwt>
<totfact> 0.26751495E+04</totfact>
</mgrwt>
</event>
<event>
 7    0  0.4759581E-002  0.4502883E+03  0.7546771E-02  0.1027636E+00
         21   -1    0    0  502  501  0.00000000000E+00  0.00000000000E+00  0.28922097549E+03  0.28922097549E+03  0.00000000000E+00 0.  1.
         21   -1    0    0  501  502 -0.00000000000E+00 -0.00000000000E+00 -0.17526349829E+03  0.17526349829E+03  0.00000000000E+00 0.  1.
      99926    2    1    2    0    0  0.00000000000E+00 -0.35527136788E-14  0.11395747720E+03  0.46448447378E+03  0.45028826297E+03 0.  0.
      99925    2    3    3    0    0 -0.35191287312E+02  0.24997679066E+02  0.17482543652E+03  0.31882827846E+03  0.26310497379E+03 0.  0.
         25    1    4    4    0    0 -0.26191344614E+02 -0.24812563829E+02  0.10269393268E+03  0.16581677167E+03  0.12509000000E+03 0.  0.
         25    1    3    3    0    0  0.35191287312E+02 -0.24997679066E+02 -0.60867959322E+02  0.14565619531E+03  0.12509000000E+03 0.  0.
         25    1    4    4    0    0 -0.89999426977E+01  0.49810242895E+02  0.72131503838E+02  0.15301150680E+03  0.12509000000E+03 0.  0.
<mgrwt>
<rscale>  2 0.45028826E+03</rscale>
<asrwt>0</asrwt>
<pdfrwt beam="1">  1       21 0.42532497E-01 0.45028826E+03</pdfrwt>
<pdfrwt beam="2">  1       21 0.25774044E-01 0.45028826E+03</pdfrwt>
<totfact> 0.70444538E+04</totfact>
</mgrwt>
</event>
<event>
 7    0  0.4759581E-002  0.4604176E+03  0.7546771E-02  0.1024660E+00
         21   -1    0    0  502  501  0.00000000000E+00  0.00000000000E+00  0.22122348918E+03  0.22122348918E+03  0.00000000000E+00 0.  1.
         21   -1    0    0  501  502 -0.00000000000E+00 -0.00000000000E+00 -0.23955911254E+03  0.23955911254E+03  0.00000000000E+00 0.  1.
      99926    2    1    2    0    0  0.00000000000E+00  0.00000000000E+00 -0.18335623355E+02  0.46078260172E+03  0.46041764840E+03 0.  0.
      99925    2    3    3    0    0 -0.37532748233E+02 -0.90264797982E+02 -0.78040331744E+02  0.29116950892E+03  0.26293145229E+03 0.  0.
         25    1    3    3    0    0  0.37532748233E+02  0.90264797982E+02  0.59704708389E+02  0.16961309280E+03  0.12509000000E+03 0.  0.
         25    1    4    4    0    0  0.38217476432E+01 -0.44520335710E+02 -0.31477519335E+01  0.13286866632E+03  0.12509000000E+03 0.  0.
         25    1    4    4    0    0 -0.41354495877E+02 -0.45744462272E+02 -0.74892579811E+02  0.15830084260E+03  0.12509000000E+03 0.  0.
<mgrwt>
<rscale>  2 0.46041765E+03</rscale>
<asrwt>0</asrwt>
<pdfrwt beam="1">  1       21 0.32532866E-01 0.46041765E+03</pdfrwt>
<pdfrwt beam="2">  1       21 0.35229281E-01 0.46041765E+03</pdfrwt>
<totfact> 0.65257419E+04</totfact>
</mgrwt>
</event>
<event>
 7    0  0.4759581E-002  0.4254626E+03  0.7546771E-02  0.1035303E+00
         21   -1    0    0  502  501  0.00000000000E+00  0.00000000000E+00  0.11589736196E+04  0.11589736196E+04  0.00000000000E+00 0. -1.
         21   -1    0    0  501  502 -0.00000000000E+00 -0.00000000000E+00 -0.39047143095E+02  0.39047143095E+02  0.00000000000E+00 0. -1.
      99926    2    1    2    0    0  0.00000000000E+00  0.00000000000E+00  0.11199264765E+04  0.11980207627E+04  0.42546261301E+03 0.  0.
      99925    2    3    3    0    0  0.71352096378E+02  0.38267457242E+02  0.68240759191E+03  0.73582404871E+03  0.26306156926E+03 0.  0.
         25    1    3    3    0    0 -0.71352096378E+02 -0.38267457242E+02  0.43751888460E+03  0.46219671399E+03  0.12509000000E+03 0.  0.
         25    1    4    4    0    0  0.71851327772E+02  0.91498262341E+01  0.31406885344E+03  0.34573557153E+03  0.12509000000E+03 0.  0.
         25    1    4    4    0    0 -0.49923139443E+00  0.29117631008E+02  0.36833873847E+03  0.39008847718E+03  0.12509000000E+03 0.  0.
<mgrwt>
<rscale>  2 0.42546261E+03</rscale>
<asrwt>0</asrwt>
<pdfrwt beam="1">  1       21 0.17043727E+00 0.42546261E+03</pdfrwt>
<pdfrwt beam="2">  1       21 0.57422277E-02 0.42546261E+03</pdfrwt>
<totfact> 0.40834326E+04</totfact>
</mgrwt>
</event>
<event>
 7    0  0.4759581E-002  0.4521746E+03  0.7546771E-02  0.1027076E+00
         21   -1    0    0  502  501  0.00000000000E+00  0.00000000000E+00  0.40483606012E+02  0.40483606012E+02  0.00000000000E+00 0. -1.
         21   -1    0    0  501  502 -0.00000000000E+00 -0.00000000000E+00 -0.12626216518E+04  0.12626216518E+04  0.00000000000E+00 0. -1.
      99926    2    1    2    0    0  0.00000000000E+00 -0.71054273576E-14 -0.12221380458E+04  0.13031052579E+04  0.45217464545E+03 0.  0.
      99925    2    3    3    0    0  0.10819679189E+02  0.60360328035E+02 -0.10360201548E+04  0.10706234046E+04  0.26293778453E+03 0.  0.
         25    1    4    4    0    0  0.72381813219E+01  0.56799139069E+02 -0.41820394273E+03  0.44025058692E+03  0.12509000000E+03 0.  0.
         25    1    3    3    0    0 -0.10819679189E+02 -0.60360328035E+02 -0.18611789099E+03  0.23248185328E+03  0.12509000000E+03 0.  0.
         25    1    4    4    0    0  0.35814978668E+01  0.35611889658E+01 -0.61781621211E+03  0.63037281765E+03  0.12509000000E+03 0.  0.
<mgrwt>
<rscale>  2 0.45217465E+03</rscale>
<asrwt>0</asrwt>
<pdfrwt beam="1">  1       21 0.59534716E-02 0.45217465E+03</pdfrwt>
<pdfrwt beam="2">  1       21 0.18567965E+00 0.45217465E+03</pdfrwt>
<totfact> 0.29671247E+04</totfact>
</mgrwt>
</event>
<event>
 7    0  0.4759581E-002  0.4459543E+03  0.7546771E-02  0.1028935E+00
         21   -1    0    0  502  501  0.00000000000E+00  0.00000000000E+00  0.60298864737E+02  0.60298864737E+02  0.00000000000E+00 0.  1.
         21   -1    0    0  501  502 -0.00000000000E+00 -0.00000000000E+00 -0.82453974910E+03  0.82453974910E+03  0.00000000000E+00 0.  1.
      99926    2    1    2    0    0  0.00000000000E+00 -0.14210854715E-13 -0.76424088436E+03  0.88483861384E+03  0.44595430619E+03 0.  0.
      99925    2    3    3    0    0  0.44998052693E+02  0.93541586274E+02 -0.47367122835E+03  0.55189254282E+03  0.26352626652E+03 0.  0.
         25    1    3    3    0    0 -0.44998052693E+02 -0.93541586274E+02 -0.29056965601E+03  0.33294607101E+03  0.12509000000E+03 0.  0.
         25    1    4    4    0    0  0.55273495832E+02  0.75913198416E+02 -0.26796794572E+03  0.31027778050E+03  0.12509000000E+03 0.  0.
         25    1    4    4    0    0 -0.10275443139E+02  0.17628387858E+02 -0.20570328263E+03  0.24161476233E+03  0.12509000000E+03 0.  0.
<mgrwt>
<rscale>  2 0.44595431E+03</rscale>
<asrwt>0</asrwt>
<pdfrwt beam="1">  1       21 0.88674806E-02 0.44595431E+03</pdfrwt>
<pdfrwt beam="2">  1       21 0.12125584E+00 0.44595431E+03</pdfrwt>
<totfact> 0.47147748E+04</totfact>
</mgrwt>
</event>
<event>
 7    0  0.4759581E-002  0.4544167E+03  0.7546771E-02  0.1026413E+00
         21   -1    0    0  502  501  0.00000000000E+00  0.00000000000E+00  0.16375204314E+03  0.16375204314E+03  0.00000000000E+00 0.  1.
         21   -1    0    0  501  502 -0.00000000000E+00 -0.00000000000E+00 -0.31525490805E+03  0.31525490805E+03  0.00000000000E+00 0.  1.
      99926    2    1    2    0    0  0.00000000000E+00  0.00000000000E+00 -0.15150286491E+03  0.47900695119E+03  0.45441670437E+03 0.  0.
      99925    2    3    3    0    0  0.97672986979E+02  0.45915277044E+02 -0.60624990410E+02  0.29044788557E+03  0.26274771116E+03 0.  0.
         25    1    4    4    0    0  0.18877994006E+02  0.50259185925E+02 -0.30932269764E+02  0.13959469130E+03  0.12509000000E+03 0.  0.
         25    1    4    4    0    0  0.78794992973E+02 -0.43439088804E+01 -0.29692720645E+02  0.15085319427E+03  0.12509000000E+03 0.  0.
         25    1    3    3    0    0 -0.97672986979E+02 -0.45915277044E+02 -0.90877874504E+02  0.18855906562E+03  0.12509000000E+03 0.  0.
<mgrwt>
<rscale>  2 0.45441670E+03</rscale>
<asrwt>0</asrwt>
<pdfrwt beam="1">  1       21 0.24081183E-01 0.45441670E+03</pdfrwt>
<pdfrwt beam="2">  1       21 0.46361015E-01 0.45441670E+03</pdfrwt>
<totfact> 0.67082493E+04</totfact>
</mgrwt>
</event>
<event>
 7    0  0.4759581E-002  0.4395969E+03  0.7546771E-02  0.1030871E+00
         21   -1    0    0  502  501  0.00000000000E+00  0.00000000000E+00  0.48241873269E+02  0.48241873269E+02  0.00000000000E+00 0.  1.
         21   -1    0    0  501  502 -0.00000000000E+00 -0.00000000000E+00 -0.10014403788E+04  0.10014403788E+04  0.00000000000E+00 0.  1.
      99926    2    1    2    0    0  0.00000000000E+00  0.00000000000E+00 -0.95319850556E+03  0.10496822521E+04  0.43959690555E+03 0.  0.
      99925    2    3    3    0    0 -0.87200961752E+02 -0.36401741672E+02 -0.54760892930E+03  0.61484951759E+03  0.26312600652E+03 0.  0.
         25    1    4    4    0    0 -0.62585812994E+02 -0.44716349942E+02 -0.34975184131E+03  0.37932887385E+03  0.12509000000E+03 0.  0.
         25    1    4    4    0    0 -0.24615148758E+02  0.83146082704E+01 -0.19785708799E+03  0.23552064374E+03  0.12509000000E+03 0.  0.
         25    1    3    3    0    0  0.87200961752E+02  0.36401741672E+02 -0.40558957626E+03  0.43483273451E+03  0.12509000000E+03 0.  0.
<mgrwt>
<rscale>  2 0.43959691E+03</rscale>
<asrwt>0</asrwt>
<pdfrwt beam="1">  1       21 0.70943932E-02 0.43959691E+03</pdfrwt>
<pdfrwt beam="2">  1       21 0.14727064E+00 0.43959691E+03</pdfrwt>
<totfact> 0.42130824E+04</totfact>
</mgrwt>
</event>
<event>
 7    0  0.4759581E-002  0.4554455E+03  0.7546771E-02  0.1026110E+00
         21   -1    0    0  502  501  0.00000000000E+00  0.00000000000E+00  0.33859073808E+03  0.33859073808E+03  0.00000000000E+00 0.  1.
         21   -1    0    0  501  502 -0.00000000000E+00 -0.00000000000E+00 -0.15315730246E+03  0.15315730246E+03  0.00000000000E+00 0.  1.
      99926    2    1    2    0    0  0.00000000000E+00  0.00000000000E+00  0.18543343562E+03  0.49174804055E+03  0.45544547021E+03 0.  0.
      99925    2    3    3    0    0  0.75031576663E+02 -0.72654297876E+02  0.67551385298E+02  0.29062103991E+03  0.26265759971E+03 0.  0.
         25    1    3    3    0    0 -0.75031576663E+02  0.72654297876E+02  0.11788205032E+03  0.20112700063E+03  0.12509000000E+03 0.  0.
         25    1    4    4    0    0  0.22873058993E+02 -0.30844181255E+02 -0.57304155582E+01  0.13097666245E+03  0.12509000000E+03 0.  0.
         25    1    4    4    0    0  0.52158517670E+02 -0.41810116621E+02  0.73281800856E+02  0.15964437746E+03  0.12509000000E+03 0.  0.
<mgrwt>
<rscale>  2 0.45544547E+03</rscale>
<asrwt>0</asrwt>
<pdfrwt beam="1">  1       21 0.49792755E-01 0.45544547E+03</pdfrwt>
<pdfrwt beam="2">  1       21 0.22523133E-01 0.45544547E+03</pdfrwt>
<totfact> 0.65621983E+04</totfact>
</mgrwt>
</event>
<event>
 7    0  0.4759581E-002  0.4535657E+03  0.7546771E-02  0.1026664E+00
         21   -1    0    0  502  501  0.00000000000E+00  0.00000000000E+00  0.45156378151E+02  0.45156378151E+02  0.00000000000E+00 0.  1.
         21   -1    0    0  501  502 -0.00000000000E+00 -0.00000000000E+00 -0.11389414630E+04  0.11389414630E+04  0.00000000000E+00 0.  1.
      99926    2    1    2    0    0  0.00000000000E+00 -0.71054273576E-14 -0.10937850848E+04  0.11840978411E+04  0.45356574559E+03 0.  0.
      99925    2    3    3    0    0  0.99458855237E+02  0.37166957101E+02 -0.78027858338E+03  0.83025143217E+03  0.26307665489E+03 0.  0.
         25    1    4    4    0    0  0.12434563335E+02  0.34524300359E+02 -0.39335522088E+03  0.41439399558E+03  0.12509000000E+03 0.  0.
         25    1    4    4    0    0  0.87024291902E+02  0.26426567415E+01 -0.38692336250E+03  0.41585743658E+03  0.12509000000E+03 0.  0.
         25    1    3    3    0    0 -0.99458855237E+02 -0.37166957101E+02 -0.31350650145E+03  0.35384640896E+03  0.12509000000E+03 0.  0.
<mgrwt>
<rscale>  2 0.45356575E+03</rscale>
<asrwt>0</asrwt>
<pdfrwt beam="1">  1       21 0.66406445E-02 0.45356575E+03</pdfrwt>
<pdfrwt beam="2">  1       21 0.16749137E+00 0.45356575E+03</pdfrwt>
<totfact> 0.33031635E+04</totfact>
</mgrwt>
</event>
<event>
 7    0  0.4759581E-002  0.4528992E+03  0.7546771E-02  0.1026861E+00
         21   -1    0    0  502  501  0.00000000000E+00  0.00000000000E+00  0.42353230376E+03  0.42353230376E+03  0.00000000000E+00 0.  1.
         21   -1    0    0  501  502 -0.00000000000E+00 -0.00000000000E+00 -0.12107558035E+03  0.12107558035E+03  0.00000000000E+00 0.  1.
      99926    2    1    2    0    0  0.00000000000E+00  0.00000000000E+00  0.30245672341E+03  0.54460788410E+03  0.45289919176E+03 0.  0.
      99925    2    3    3    0    0 -0.89340506824E+02  0.66003962542E+02  0.18449184146E+03  0.33990939680E+03  0.26298842035E+03 0.  0.
         25    1    3    3    0    0  0.89340506824E+02 -0.66003962542E+02  0.11796488195E+03  0.20469848730E+03  0.12509000000E+03 0.  0.
         25    1    4    4    0    0 -0.61187976089E+01  0.12102451350E+02  0.78483359532E+02  0.14829381254E+03  0.12509000000E+03 0.  0.
         25    1    4    4    0    0 -0.83221709215E+02  0.53901511193E+02  0.10600848193E+03  0.19161558427E+03  0.12509000000E+03 0.  0.
<mgrwt>
<rscale>  2 0.45289919E+03</rscale>
<asrwt>0</asrwt>
<pdfrwt beam="1">  1       21 0.62284162E-01 0.45289919E+03</pdfrwt>
<pdfrwt beam="2">  1       21 0.17805233E-01 0.45289919E+03</pdfrwt>
<totfact> 0.63269465E+04</totfact>
</mgrwt>
</event>
<event>
 7    0  0.4759581E-002  0.4523330E+03  0.7546771E-02  0.1027029E+00
         21   -1    0    0  502  501  0.00000000000E+00  0.00000000000E+00  0.41184654653E+02  0.41184654653E+02  0.00000000000E+00 0.  1.
         21   -1    0    0  501  502 -0.00000000000E+00 -0.00000000000E+00 -0.12419983917E+04  0.12419983917E+04  0.00000000000E+00 0.  1.
      99926    2    1    2    0    0  0.35527136788E-14  0.00000000000E+00 -0.12008137370E+04  0.12831830463E+04  0.45233295189E+03 0.  0.
      99925    2    3    3    0    0 -0.16930710296E+02 -0.83501899854E+02 -0.55794987699E+03  0.62274329368E+03  0.26313861057E+03 0.  0.
         25    1    4    4    0    0  0.25941151069E+02 -0.51827175380E+02 -0.32466698694E+03  0.35272533215E+03  0.12509000000E+03 0.  0.
         25    1    3    3    0    0  0.16930710296E+02  0.83501899854E+02 -0.64286386002E+03  0.66043975263E+03  0.12509000000E+03 0.  0.
         25    1    4    4    0    0 -0.42871861365E+02 -0.31674724474E+02 -0.23328289004E+03  0.27001796154E+03  0.12509000000E+03 0.  0.
<mgrwt>
<rscale>  2 0.45233295E+03</rscale>
<asrwt>0</asrwt>
<pdfrwt beam="1">  1       21 0.60565662E-02 0.45233295E+03</pdfrwt>
<pdfrwt beam="2">  1       21 0.18264684E+00 0.45233295E+03</pdfrwt>
<totfact> 0.30229371E+04</totfact>
</mgrwt>
</event>
<event>
 7    0  0.4759581E-002  0.4492898E+03  0.7546771E-02  0.1027934E+00
         21   -1    0    0  502  501  0.00000000000E+00  0.00000000000E+00  0.61175743928E+03  0.61175743928E+03  0.00000000000E+00 0. -1.
         21   -1    0    0  501  502 -0.00000000000E+00 -0.00000000000E+00 -0.82492398500E+02  0.82492398500E+02  0.00000000000E+00 0. -1.
      99926    2    1    2    0    0  0.00000000000E+00  0.00000000000E+00  0.52926504078E+03  0.69424983778E+03  0.44928983281E+03 0.  0.
      99925    2    3    3    0    0 -0.69383824390E+02  0.71020407639E+02  0.39934855399E+03  0.48837653930E+03  0.26301019595E+03 0.  0.
         25    1    4    4    0    0 -0.22814294062E+02  0.12943516387E+02  0.13057892532E+03  0.18271943100E+03  0.12509000000E+03 0.  0.
         25    1    3    3    0    0  0.69383824390E+02 -0.71020407639E+02  0.12991648679E+03  0.20587329848E+03  0.12509000000E+03 0.  0.
         25    1    4    4    0    0 -0.46569530328E+02  0.58076891252E+02  0.26876962867E+03  0.30565710829E+03  0.12509000000E+03 0.  0.
<mgrwt>
<rscale>  2 0.44928983E+03</rscale>
<asrwt>0</asrwt>
<pdfrwt beam="1">  1       21 0.89964327E-01 0.44928983E+03</pdfrwt>
<pdfrwt beam="2">  1       21 0.12131235E-01 0.44928983E+03</pdfrwt>
<totfact> 0.55676777E+04</totfact>
</mgrwt>
</event>
<event>
 7    0  0.4759581E-002  0.4487075E+03  0.7546771E-02  0.1028108E+00
         21   -1    0    0  502  501  0.00000000000E+00  0.00000000000E+00  0.70781321007E+02  0.70781321007E+02  0.00000000000E+00 0.  1.
         21   -1    0    0  501  502 -0.00000000000E+00 -0.00000000000E+00 -0.71112831500E+03  0.71112831500E+03  0.00000000000E+00 0.  1.
      99926    2    1    2    0    0 -0.14210854715E-13  0.00000000000E+00 -0.64034699399E+03  0.78190963601E+03  0.44870748396E+03 0.  0.
      99925    2    3    3    0    0  0.10084509573E+03 -0.11311407954E+02 -0.34379857910E+03  0.44443941249E+03  0.26273798184E+03 0.  0.
         25    1    4    4    0    0  0.33396181419E+02  0.11095861089E+02 -0.11164511403E+03  0.17132005911E+03  0.12509000000E+03 0.  0.
         25    1    3    3    0    0 -0.10084509573E+03  0.11311407954E+02 -0.29654841489E+03  0.33747022351E+03  0.12509000000E+03 0.  0.
         25    1    4    4    0    0  0.67448914315E+02 -0.22407269044E+02 -0.23215346507E+03  0.27311935338E+03  0.12509000000E+03 0.  0.
<mgrwt>
<rscale>  2 0.44870748E+03</rscale>
<asrwt>0</asrwt>
<pdfrwt beam="1">  1       21 0.10409018E-01 0.44870748E+03</pdfrwt>
<pdfrwt beam="2">  1       21 0.10457769E+00 0.44870748E+03</pdfrwt>
<totfact> 0.51131332E+04</totfact>
</mgrwt>
</event>
<event>
 7    0  0.4759581E-002  0.4541463E+03  0.7546771E-02  0.1026493E+00
         21   -1    0    0  502  501  0.00000000000E+00  0.00000000000E+00  0.54209225942E+03  0.54209225942E+03  0.00000000000E+00 0.  1.
         21   -1    0    0  501  502 -0.00000000000E+00 -0.00000000000E+00 -0.95117031170E+02  0.95117031170E+02  0.00000000000E+00 0.  1.
      99926    2    1    2    0    0  0.00000000000E+00  0.00000000000E+00  0.44697522825E+03  0.63720929059E+03  0.45414625986E+03 0.  0.
      99925    2    3    3    0    0 -0.73034366003E+02  0.41920795386E+02  0.17720203088E+03  0.32815192080E+03  0.26304325058E+03 0.  0.
         25    1    4    4    0    0 -0.37250193505E+02 -0.13790703868E+02  0.59636483827E+02  0.14415886630E+03  0.12509000000E+03 0.  0.
         25    1    4    4    0    0 -0.35784172498E+02  0.55711499253E+02  0.11756554706E+03  0.18399305450E+03  0.12509000000E+03 0.  0.
         25    1    3    3    0    0  0.73034366003E+02 -0.41920795386E+02  0.26977319737E+03  0.30905736979E+03  0.12509000000E+03 0.  0.
<mgrwt>
<rscale>  2 0.45414626E+03</rscale>
<asrwt>0</asrwt>
<pdfrwt beam="1">  1       21 0.79719449E-01 0.45414626E+03</pdfrwt>
<pdfrwt beam="2">  1       21 0.13987799E-01 0.45414626E+03</pdfrwt>
<totfact> 0.56826365E+04</totfact>
</mgrwt>
</event>
<event>
 7    0  0.4759581E-002  0.4514550E+03  0.7546771E-02  0.1027289E+00
         21   -1    0    0  502  501  0.00000000000E+00  0.00000000000E+00  0.60403792633E+03  0.60403792633E+03  0.00000000000E+00 0. -1.
         21   -1    0    0  501  502 -0.00000000000E+00 -0.00000000000E+00 -0.84353829956E+02  0.84353829956E+02  0.00000000000E+00 0. -1.
      99926    2    1    2    0    0  0.71054273576E-14  0.00000000000E+00  0.51968409637E+03  0.68839175629E+03  0.45145503663E+03 0.  0.
      99925    2    3    3    0    0  0.51220888760E+02 -0.46535490568E+02  0.45803075396E+03  0.53270690134E+03  0.26305007097E+03 0.  0.
         25    1    3    3    0    0 -0.51220888760E+02  0.46535490568E+02  0.61653342415E+02  0.15568485494E+03  0.12509000000E+03 0.  0.
         25    1    4    4    0    0  0.46044856254E+02 -0.59842707771E+01  0.17060328677E+03  0.21658469439E+03  0.12509000000E+03 0.  0.
         25    1    4    4    0    0  0.51760325068E+01 -0.40551219791E+02  0.28742746718E+03  0.31612220696E+03  0.12509000000E+03 0.  0.
<mgrwt>
<rscale>  2 0.45145504E+03</rscale>
<asrwt>0</asrwt>
<pdfrwt beam="1">  1       21 0.88829105E-01 0.45145504E+03</pdfrwt>
<pdfrwt beam="2">  1       21 0.12404975E-01 0.45145504E+03</pdfrwt>
<totfact> 0.55058380E+04</totfact>
</mgrwt>
</event>
<event>
 7    0  0.4759581E-002  0.4547991E+03  0.7546771E-02  0.1026301E+00
         21   -1    0    0  502  501  0.00000000000E+00  0.00000000000E+00  0.13820397500E+03  0.13820397500E+03  0.00000000000E+00 0. -1.
         21   -1    0    0  501  502 -0.00000000000E+00 -0.00000000000E+00 -0.37416108555E+03  0.37416108555E+03  0.00000000000E+00 0. -1.
      99926    2    1    2    0    0  0.00000000000E+00 -0.14210854715E-13 -0.23595711054E+03  0.51236506055E+03  0.45479907350E+03 0.  0.
      99925    2    3    3    0    0  0.72201154888E+02 -0.83285060774E+02 -0.12047842066E+03  0.30955420277E+03  0.26298164669E+03 0.  0.
         25    1    4    4    0    0  0.19803220392E+02 -0.15199893289E+02 -0.86279963856E+02  0.15399657320E+03  0.12509000000E+03 0.  0.
         25    1    3    3    0    0 -0.72201154888E+02  0.83285060774E+02 -0.11547868989E+03  0.20281085778E+03  0.12509000000E+03 0.  0.
         25    1    4    4    0    0  0.52397934497E+02 -0.68085167485E+02 -0.34198456800E+02  0.15555762957E+03  0.12509000000E+03 0.  0.
<mgrwt>
<rscale>  2 0.45479907E+03</rscale>
<asrwt>0</asrwt>
<pdfrwt beam="1">  1       21 0.20324114E-01 0.45479907E+03</pdfrwt>
<pdfrwt beam="2">  1       21 0.55023690E-01 0.45479907E+03</pdfrwt>
<totfact> 0.64513223E+04</totfact>
</mgrwt>
</event>
<event>
 7    0  0.4759581E-002  0.4636046E+03  0.7546771E-02  0.1023741E+00
         21   -1    0    0  502  501  0.00000000000E+00  0.00000000000E+00  0.93774017998E+02  0.93774017998E+02  0.00000000000E+00 0.  1.
         21   -1    0    0  501  502 -0.00000000000E+00 -0.00000000000E+00 -0.57299773879E+03  0.57299773879E+03  0.00000000000E+00 0.  1.
      99926    2    1    2    0    0  0.00000000000E+00 -0.17763568394E-14 -0.47922372079E+03  0.66677175678E+03  0.46360457405E+03 0.  0.
      99925    2    3    3    0    0  0.78221220174E+02 -0.10231203666E+02 -0.16708119707E+03  0.32136807987E+03  0.26294120927E+03 0.  0.
         25    1    4    4    0    0  0.16603332083E+02 -0.30423275419E+02 -0.10690325233E+03  0.16815784187E+03  0.12509000000E+03 0.  0.
         25    1    3    3    0    0 -0.78221220174E+02  0.10231203666E+02 -0.31214252372E+03  0.34540367691E+03  0.12509000000E+03 0.  0.
         25    1    4    4    0    0  0.61617888091E+02  0.20192071754E+02 -0.60177944739E+02  0.15321023800E+03  0.12509000000E+03 0.  0.
<mgrwt>
<rscale>  2 0.46360457E+03</rscale>
<asrwt>0</asrwt>
<pdfrwt beam="1">  1       21 0.13790297E-01 0.46360457E+03</pdfrwt>
<pdfrwt beam="2">  1       21 0.84264372E-01 0.46360457E+03</pdfrwt>
<totfact> 0.51182601E+04</totfact>
</mgrwt>
</event>
<event>
 7    0  0.4759581E-002  0.4538134E+03  0.7546771E-02  0.1026591E+00
         21   -1    0    0  502  501  0.00000000000E+00  0.00000000000E+00  0.11721696948E+03  0.11721696948E+03  0.00000000000E+00 0. -1.
         21   -1    0    0  501  502 -0.00000000000E+00 -0.00000000000E+00 -0.43924226529E+03  0.43924226529E+03  0.00000000000E+00 0. -1.
      99926    2    1    2    0    0  0.00000000000E+00  0.00000000000E+00 -0.32202529581E+03  0.55645923476E+03  0.45381338545E+03 0.  0.
      99925    2    3    3    0    0 -0.25661855719E+02 -0.69858395364E+02 -0.30539314146E+03  0.40995714297E+03  0.26317515457E+03 0.  0.
         25    1    4    4    0    0 -0.32770815645E+02  0.12066436608E+01 -0.15093357859E+03  0.19875571839E+03  0.12509000000E+03 0.  0.
         25    1    3    3    0    0  0.25661855719E+02  0.69858395364E+02 -0.16632154354E+02  0.14650209179E+03  0.12509000000E+03 0.  0.
         25    1    4    4    0    0  0.71089599260E+01 -0.71065039025E+02 -0.15445956286E+03  0.21120142458E+03  0.12509000000E+03 0.  0.
<mgrwt>
<rscale>  2 0.45381339E+03</rscale>
<asrwt>0</asrwt>
<pdfrwt beam="1">  1       21 0.17237790E-01 0.45381339E+03</pdfrwt>
<pdfrwt beam="2">  1       21 0.64594450E-01 0.45381339E+03</pdfrwt>
<totfact> 0.62021828E+04</totfact>
</mgrwt>
</event>
<event>
 7    0  0.4759581E-002  0.4561715E+03  0.7546771E-02  0.1025897E+00
         21   -1    0    0  502  501  0.00000000000E+00  0.00000000000E+00  0.12611602921E+03  0.12611602921E+03  0.00000000000E+00 0. -1.
         21   -1    0    0  501  502 -0.00000000000E+00 -0.00000000000E+00 -0.41250190877E+03  0.41250190877E+03  0.00000000000E+00 0. -1.
      99926    2    1    2    0    0  0.00000000000E+00  0.35527136788E-14 -0.28638587956E+03  0.53861793798E+03  0.45617147116E+03 0.  0.
      99925    2    3    3    0    0 -0.10634279003E+03  0.26558982097E+02 -0.21802907664E+03  0.35880044960E+03  0.26303405835E+03 0.  0.
         25    1    4    4    0    0 -0.80724162081E+02  0.23903796463E+02 -0.15550282369E+03  0.21660198084E+03  0.12509000000E+03 0.  0.
         25    1    4    4    0    0 -0.25618627948E+02  0.26551856341E+01 -0.62526252952E+02  0.14219846876E+03  0.12509000000E+03 0.  0.
         25    1    3    3    0    0  0.10634279003E+03 -0.26558982097E+02 -0.68356802919E+02  0.17981748838E+03  0.12509000000E+03 0.  0.
<mgrwt>
<rscale>  2 0.45617147E+03</rscale>
<asrwt>0</asrwt>
<pdfrwt beam="1">  1       21 0.18546475E-01 0.45617147E+03</pdfrwt>
<pdfrwt beam="2">  1       21 0.60662045E-01 0.45617147E+03</pdfrwt>
<totfact> 0.62047706E+04</totfact>
</mgrwt>
</event>
<event>
 7    0  0.4759581E-002  0.4576918E+03  0.7546771E-02  0.1025453E+00
         21   -1    0    0  502  501  0.00000000000E+00  0.00000000000E+00  0.16562404001E+03  0.16562404001E+03  0.00000000000E+00 0. -1.
         21   -1    0    0  501  502 -0.00000000000E+00 -0.00000000000E+00 -0.31620074362E+03  0.31620074362E+03  0.00000000000E+00 0. -1.
      99926    2    1    2    0    0 -0.17763568394E-14  0.00000000000E+00 -0.15057670361E+03  0.48182478363E+03  0.45769179417E+03 0.  0.
      99925    2    3    3    0    0  0.30023642931E+01 -0.83373012933E+02 -0.10130630906E+02  0.27607571094E+03  0.26297356333E+03 0.  0.
         25    1    4    4    0    0  0.39507570925E+02 -0.42954902731E+02 -0.19097088823E+02  0.13934912533E+03  0.12509000000E+03 0.  0.
         25    1    3    3    0    0 -0.30023642931E+01  0.83373012933E+02 -0.14044607270E+03  0.20574907269E+03  0.12509000000E+03 0.  0.
         25    1    4    4    0    0 -0.36505206632E+02 -0.40418110202E+02  0.89664579167E+01  0.13672658560E+03  0.12509000000E+03 0.  0.
<mgrwt>
<rscale>  2 0.45769179E+03</rscale>
<asrwt>0</asrwt>
<pdfrwt beam="1">  1       21 0.24356477E-01 0.45769179E+03</pdfrwt>
<pdfrwt beam="2">  1       21 0.46500109E-01 0.45769179E+03</pdfrwt>
<totfact> 0.65164033E+04</totfact>
</mgrwt>
</event>
<event>
 7    0  0.4759581E-002  0.4538094E+03  0.7546771E-02  0.1026592E+00
         21   -1    0    0  502  501  0.00000000000E+00  0.00000000000E+00  0.96196287088E+03  0.96196287088E+03  0.00000000000E+00 0.  1.
         21   -1    0    0  501  502 -0.00000000000E+00 -0.00000000000E+00 -0.53521550556E+02  0.53521550556E+02  0.00000000000E+00 0.  1.
      99926    2    1    2    0    0 -0.71054273576E-14  0.35527136788E-14  0.90844132032E+03  0.10154844214E+04  0.45380940681E+03 0.  0.
      99925    2    3    3    0    0 -0.33867850306E+02  0.30148539946E+02  0.34311441388E+03  0.43471081236E+03  0.26303996584E+03 0.  0.
         25    1    3    3    0    0  0.33867850306E+02 -0.30148539946E+02  0.56532690644E+03  0.58077360907E+03  0.12509000000E+03 0.  0.
         25    1    4    4    0    0 -0.28553814381E+01 -0.14847637601E+02  0.20424558493E+03  0.23998410908E+03  0.12509000000E+03 0.  0.
         25    1    4    4    0    0 -0.31012468868E+02  0.44996177547E+02  0.13886882895E+03  0.19472670328E+03  0.12509000000E+03 0.  0.
<mgrwt>
<rscale>  2 0.45380941E+03</rscale>
<asrwt>0</asrwt>
<pdfrwt beam="1">  1       21 0.14146512E+00 0.45380941E+03</pdfrwt>
<pdfrwt beam="2">  1       21 0.78708169E-02 0.45380941E+03</pdfrwt>
<totfact> 0.38930512E+04</totfact>
</mgrwt>
</event>
<event>
 7    0  0.4759581E-002  0.4511135E+03  0.7546771E-02  0.1027391E+00
         21   -1    0    0  502  501  0.00000000000E+00  0.00000000000E+00  0.45957021402E+03  0.45957021402E+03  0.00000000000E+00 0.  1.
         21   -1    0    0  501  502 -0.00000000000E+00 -0.00000000000E+00 -0.11070308139E+03  0.11070308139E+03  0.00000000000E+00 0.  1.
      99926    2    1    2    0    0  0.88817841970E-15  0.14210854715E-13  0.34886713263E+03  0.57027329542E+03  0.45111346160E+03 0.  0.
      99925    2    3    3    0    0  0.79291967913E+01  0.94974614863E+02  0.28836226786E+03  0.40177582840E+03  0.26303606051E+03 0.  0.
         25    1    3    3    0    0 -0.79291967913E+01 -0.94974614863E+02  0.60504864764E+02  0.16849746701E+03  0.12509000000E+03 0.  0.
         25    1    4    4    0    0  0.10769766453E+02  0.44906347863E+02  0.20086641906E+03  0.24109623463E+03  0.12509000000E+03 0.  0.
         25    1    4    4    0    0 -0.28405696617E+01  0.50068267000E+02  0.87495848806E+02  0.16067959377E+03  0.12509000000E+03 0.  0.
<mgrwt>
<rscale>  2 0.45111346E+03</rscale>
<asrwt>0</asrwt>
<pdfrwt beam="1">  1       21 0.67583855E-01 0.45111346E+03</pdfrwt>
<pdfrwt beam="2">  1       21 0.16279865E-01 0.45111346E+03</pdfrwt>
<totfact> 0.62443474E+04</totfact>
</mgrwt>
</event>
<event>
 7    0  0.4759581E-002  0.4558095E+03  0.7546771E-02  0.1026004E+00
         21   -1    0    0  502  501  0.00000000000E+00  0.00000000000E+00  0.67616088728E+02  0.67616088728E+02  0.00000000000E+00 0.  1.
         21   -1    0    0  501  502 -0.00000000000E+00 -0.00000000000E+00 -0.76816878019E+03  0.76816878019E+03  0.00000000000E+00 0.  1.
      99926    2    1    2    0    0  0.00000000000E+00  0.00000000000E+00 -0.70055269146E+03  0.83578486892E+03  0.45580947072E+03 0.  0.
      99925    2    3    3    0    0 -0.38948226022E+02 -0.75193743999E+02 -0.58013787524E+03  0.64260541993E+03  0.26307928080E+03 0.  0.
         25    1    3    3    0    0  0.38948226022E+02  0.75193743999E+02 -0.12041481623E+03  0.19317944899E+03  0.12509000000E+03 0.  0.
         25    1    4    4    0    0  0.15011979288E+02 -0.15388453275E+02 -0.24493928919E+03  0.27587121544E+03  0.12509000000E+03 0.  0.
         25    1    4    4    0    0 -0.53960205310E+02 -0.59805290724E+02 -0.33519858604E+03  0.36673420449E+03  0.12509000000E+03 0.  0.
<mgrwt>
<rscale>  2 0.45580947E+03</rscale>
<asrwt>0</asrwt>
<pdfrwt beam="1">  1       21 0.99435430E-02 0.45580947E+03</pdfrwt>
<pdfrwt beam="2">  1       21 0.11296599E+00 0.45580947E+03</pdfrwt>
<totfact> 0.45790618E+04</totfact>
</mgrwt>
</event>
<event>
 7    0  0.4759581E-002  0.4570897E+03  0.7546771E-02  0.1025629E+00
         21   -1    0    0  502  501  0.00000000000E+00  0.00000000000E+00  0.10487584423E+04  0.10487584423E+04  0.00000000000E+00 0.  1.
         21   -1    0    0  501  502 -0.00000000000E+00 -0.00000000000E+00 -0.49804366717E+02  0.49804366717E+02  0.00000000000E+00 0.  1.
      99926    2    1    2    0    0 -0.14210854715E-13  0.00000000000E+00  0.99895407561E+03  0.10985628090E+04  0.45708970699E+03 0.  0.
      99925    2    3    3    0    0  0.64620629792E+02  0.96149607003E+01  0.40001416235E+03  0.48322160202E+03  0.26310361707E+03 0.  0.
         25    1    4    4    0    0  0.34293971254E+02 -0.71933669642E+01  0.13080191779E+03  0.18434877485E+03  0.12509000000E+03 0.  0.
         25    1    4    4    0    0  0.30326658538E+02  0.16808327665E+02  0.26921224456E+03  0.29887282717E+03  0.12509000000E+03 0.  0.
         25    1    3    3    0    0 -0.64620629792E+02 -0.96149607003E+01  0.59893991327E+03  0.61534120703E+03  0.12509000000E+03 0.  0.
<mgrwt>
<rscale>  2 0.45708971E+03</rscale>
<asrwt>0</asrwt>
<pdfrwt beam="1">  1       21 0.15422917E+00 0.45708971E+03</pdfrwt>
<pdfrwt beam="2">  1       21 0.73241723E-02 0.45708971E+03</pdfrwt>
<totfact> 0.34970543E+04</totfact>
</mgrwt>
</event>
<event>
 7    0  0.4759581E-002  0.4569215E+03  0.7546771E-02  0.1025678E+00
         21   -1    0    0  502  501  0.00000000000E+00  0.00000000000E+00  0.89372836351E+02  0.89372836351E+02  0.00000000000E+00 0.  1.
         21   -1    0    0  501  502 -0.00000000000E+00 -0.00000000000E+00 -0.58400657917E+03  0.58400657917E+03  0.00000000000E+00 0.  1.
      99926    2    1    2    0    0  0.00000000000E+00  0.00000000000E+00 -0.49463374282E+03  0.67337941553E+03  0.45692154438E+03 0.  0.
      99925    2    3    3    0    0  0.46105400715E+02  0.11612107737E+02 -0.46493919807E+03  0.53630343984E+03  0.26304443097E+03 0.  0.
         25    1    4    4    0    0 -0.39847476178E+01  0.45156596391E+01 -0.16274251149E+03  0.20535068186E+03  0.12509000000E+03 0.  0.
         25    1    3    3    0    0 -0.46105400715E+02 -0.11612107737E+02 -0.29694544754E+02  0.13707597568E+03  0.12509000000E+03 0.  0.
         25    1    4    4    0    0  0.50090148333E+02  0.70964480983E+01 -0.30219668658E+03  0.33095275798E+03  0.12509000000E+03 0.  0.
<mgrwt>
<rscale>  2 0.45692154E+03</rscale>
<asrwt>0</asrwt>
<pdfrwt beam="1">  1       21 0.13143064E-01 0.45692154E+03</pdfrwt>
<pdfrwt beam="2">  1       21 0.85883321E-01 0.45692154E+03</pdfrwt>
<totfact> 0.53556740E+04</totfact>
</mgrwt>
</event>
<event>
 7    0  0.4759581E-002  0.4427529E+03  0.7546771E-02  0.1029906E+00
         21   -1    0    0  502  501  0.00000000000E+00  0.00000000000E+00  0.16239210494E+04  0.16239210494E+04  0.00000000000E+00 0. -1.
         21   -1    0    0  501  502 -0.00000000000E+00 -0.00000000000E+00 -0.30178515964E+02  0.30178515964E+02  0.00000000000E+00 0. -1.
      99926    2    1    2    0    0  0.71054273576E-14  0.00000000000E+00  0.15937425335E+04  0.16540995654E+04  0.44275287606E+03 0.  0.
      99925    2    3    3    0    0  0.61376116688E+02  0.76248157392E+02  0.91463504573E+03  0.95666476758E+03  0.26281058092E+03 0.  0.
         25    1    4    4    0    0  0.66148149917E+02  0.37304397791E+02  0.55169038841E+03  0.57076876982E+03  0.12509000000E+03 0.  0.
         25    1    4    4    0    0 -0.47720332294E+01  0.38943759600E+02  0.36294465731E+03  0.38589599776E+03  0.12509000000E+03 0.  0.
         25    1    3    3    0    0 -0.61376116688E+02 -0.76248157392E+02  0.67910748774E+03  0.69743479782E+03  0.12509000000E+03 0.  0.
<mgrwt>
<rscale>  2 0.44275288E+03</rscale>
<asrwt>0</asrwt>
<pdfrwt beam="1">  1       21 0.23881186E+00 0.44275288E+03</pdfrwt>
<pdfrwt beam="2">  1       21 0.44380181E-02 0.44275288E+03</pdfrwt>
<totfact> 0.22278896E+04</totfact>
</mgrwt>
</event>
<event>
 7    0  0.4759581E-002  0.4551371E+03  0.7546771E-02  0.1026201E+00
         21   -1    0    0  502  501  0.00000000000E+00  0.00000000000E+00  0.64790561319E+02  0.64790561319E+02  0.00000000000E+00 0. -1.
         21   -1    0    0  501  502 -0.00000000000E+00 -0.00000000000E+00 -0.79930529470E+03  0.79930529470E+03  0.00000000000E+00 0. -1.
      99926    2    1    2    0    0  0.00000000000E+00 -0.17763568394E-14 -0.73451473338E+03  0.86409585602E+03  0.45513707258E+03 0.  0.
      99925    2    3    3    0    0 -0.29655691497E+02 -0.53094444582E+01 -0.67012853401E+03  0.72021833516E+03  0.26217274452E+03 0.  0.
         25    1    4    4    0    0 -0.37918515050E+02 -0.23520503404E+02 -0.27718243095E+03  0.30735750518E+03  0.12509000000E+03 0.  0.
         25    1    4    4    0    0  0.82628235531E+01  0.18211058946E+02 -0.39294610306E+03  0.41286082998E+03  0.12509000000E+03 0.  0.
         25    1    3    3    0    0  0.29655691497E+02  0.53094444582E+01 -0.64386199370E+02  0.14387752086E+03  0.12509000000E+03 0.  0.
<mgrwt>
<rscale>  2 0.45513707E+03</rscale>
<asrwt>0</asrwt>
<pdfrwt beam="1">  1       21 0.95280230E-02 0.45513707E+03</pdfrwt>
<pdfrwt beam="2">  1       21 0.11754491E+00 0.45513707E+03</pdfrwt>
<totfact> 0.44767035E+04</totfact>
</mgrwt>
</event>
<event>
 7    0  0.4759581E-002  0.4483219E+03  0.7546771E-02  0.1028224E+00
         21   -1    0    0  502  501  0.00000000000E+00  0.00000000000E+00  0.95328627226E+03  0.95328627226E+03  0.00000000000E+00 0. -1.
         21   -1    0    0  501  502 -0.00000000000E+00 -0.00000000000E+00 -0.52710428108E+02  0.52710428108E+02  0.00000000000E+00 0. -1.
      99926    2    1    2    0    0  0.00000000000E+00  0.00000000000E+00  0.90057584415E+03  0.10059967004E+04  0.44832188222E+03 0.  0.
      99925    2    3    3    0    0 -0.59105678402E+02  0.87475568240E+02  0.53231371805E+03  0.60299551194E+03  0.26286923884E+03 0.  0.
         25    1    3    3    0    0  0.59105678402E+02 -0.87475568240E+02  0.36826212610E+03  0.40300118843E+03  0.12509000000E+03 0.  0.
         25    1    4    4    0    0 -0.39258285843E+02  0.35438290945E+01  0.23585016768E+03  0.26986400543E+03  0.12509000000E+03 0.  0.
         25    1    4    4    0    0 -0.19847392559E+02  0.83931739146E+02  0.29646355037E+03  0.33313150651E+03  0.12509000000E+03 0.  0.
<mgrwt>
<rscale>  2 0.44832188E+03</rscale>
<asrwt>0</asrwt>
<pdfrwt beam="1">  1       21 0.14018915E+00 0.44832188E+03</pdfrwt>
<pdfrwt beam="2">  1       21 0.77515342E-02 0.44832188E+03</pdfrwt>
<totfact> 0.41032818E+04</totfact>
</mgrwt>
</event>
<event>
 7    0  0.4759581E-002  0.4623056E+03  0.7546771E-02  0.1024115E+00
         21   -1    0    0  502  501  0.00000000000E+00  0.00000000000E+00  0.10048715605E+03  0.10048715605E+03  0.00000000000E+00 0.  1.
         21   -1    0    0  501  502 -0.00000000000E+00 -0.00000000000E+00 -0.53172576848E+03  0.53172576848E+03  0.00000000000E+00 0.  1.
      99926    2    1    2    0    0 -0.14210854715E-13  0.00000000000E+00 -0.43123861243E+03  0.63221292452E+03  0.46230557111E+03 0.  0.
      99925    2    3    3    0    0 -0.77463546280E+02  0.28584857350E+02 -0.38848916392E+03  0.47635170895E+03  0.26300080811E+03 0.  0.
         25    1    4    4    0    0 -0.26294787580E+02  0.43166161381E+02 -0.23782310537E+03  0.27342653656E+03  0.12509000000E+03 0.  0.
         25    1    3    3    0    0  0.77463546280E+02 -0.28584857350E+02 -0.42749448512E+02  0.15586121557E+03  0.12509000000E+03 0.  0.
         25    1    4    4    0    0 -0.51168758700E+02 -0.14581304032E+02 -0.15066605854E+03  0.20292517239E+03  0.12509000000E+03 0.  0.
<mgrwt>
<rscale>  2 0.46230557E+03</rscale>
<asrwt>0</asrwt>
<pdfrwt beam="1">  1       21 0.14777523E-01 0.46230557E+03</pdfrwt>
<pdfrwt beam="2">  1       21 0.78194965E-01 0.46230557E+03</pdfrwt>
<totfact> 0.53580543E+04</totfact>
</mgrwt>
</event>
<event>
 7    0  0.4759581E-002  0.4568567E+03  0.7546771E-02  0.1025697E+00
         21   -1    0    0  502  501  0.00000000000E+00  0.00000000000E+00  0.42784740352E+02  0.42784740352E+02  0.00000000000E+00 0.  1.
         21   -1    0    0  501  502 -0.00000000000E+00 -0.00000000000E+00 -0.12195824781E+04  0.12195824781E+04  0.00000000000E+00 0.  1.
      99926    2    1    2    0    0  0.00000000000E+00 -0.71054273576E-14 -0.11767977378E+04  0.12623672185E+04  0.45685673756E+03 0.  0.
      99925    2    3    3    0    0 -0.65428888838E+02  0.35453143495E+02 -0.98104450341E+03  0.10184313627E+04  0.26308982867E+03 0.  0.
         25    1    4    4    0    0 -0.22000908818E+02  0.35529208120E+01 -0.33734783236E+03  0.36048263666E+03  0.12509000000E+03 0.  0.
         25    1    4    4    0    0 -0.43427980020E+02  0.31900222683E+02 -0.64369667105E+03  0.65794872602E+03  0.12509000000E+03 0.  0.
         25    1    3    3    0    0  0.65428888838E+02 -0.35453143495E+02 -0.19575323436E+03  0.24393585580E+03  0.12509000000E+03 0.  0.
<mgrwt>
<rscale>  2 0.45685674E+03</rscale>
<asrwt>0</asrwt>
<pdfrwt beam="1">  1       21 0.62918738E-02 0.45685674E+03</pdfrwt>
<pdfrwt beam="2">  1       21 0.17935036E+00 0.45685674E+03</pdfrwt>
<totfact> 0.29794582E+04</totfact>
</mgrwt>
</event>
<event>
 7    0  0.4759581E-002  0.4452552E+03  0.7546771E-02  0.1029147E+00
         21   -1    0    0  502  501  0.00000000000E+00  0.00000000000E+00  0.68299547619E+02  0.68299547619E+02  0.00000000000E+00 0.  1.
         21   -1    0    0  501  502 -0.00000000000E+00 -0.00000000000E+00 -0.72567156119E+03  0.72567156119E+03  0.00000000000E+00 0.  1.
      99926    2    1    2    0    0  0.00000000000E+00 -0.35527136788E-14 -0.65737201357E+03  0.79397110881E+03  0.44525515988E+03 0.  0.
      99925    2    3    3    0    0  0.92592207083E+02  0.29732994077E+02 -0.48164642432E+03  0.55736096835E+03  0.26307908171E+03 0.  0.
         25    1    4    4    0    0  0.50899414308E+02  0.16151720574E+02 -0.16331378291E+03  0.21253359321E+03  0.12509000000E+03 0.  0.
         25    1    4    4    0    0  0.41692792775E+02  0.13581273503E+02 -0.31833264141E+03  0.34482737514E+03  0.12509000000E+03 0.  0.
         25    1    3    3    0    0 -0.92592207083E+02 -0.29732994077E+02 -0.17572558925E+03  0.23661014046E+03  0.12509000000E+03 0.  0.
<mgrwt>
<rscale>  2 0.44525516E+03</rscale>
<asrwt>0</asrwt>
<pdfrwt beam="1">  1       21 0.10044051E-01 0.44525516E+03</pdfrwt>
<pdfrwt beam="2">  1       21 0.10671641E+00 0.44525516E+03</pdfrwt>
<totfact> 0.51915927E+04</totfact>
</mgrwt>
</event>
<event>
 7    0  0.4759581E-002  0.4583073E+03  0.7546771E-02  0.1025273E+00
         21   -1    0    0  502  501  0.00000000000E+00  0.00000000000E+00  0.72669197536E+03  0.72669197536E+03  0.00000000000E+00 0. -1.
         21   -1    0    0  501  502 -0.00000000000E+00 -0.00000000000E+00 -0.72260877609E+02  0.72260877609E+02  0.00000000000E+00 0. -1.
      99926    2    1    2    0    0  0.00000000000E+00  0.00000000000E+00  0.65443109775E+03  0.79895285296E+03  0.45830732000E+03 0.  0.
      99925    2    3    3    0    0  0.87730059458E+02 -0.64151120292E+02  0.48237827517E+03  0.56007712916E+03  0.26303167239E+03 0.  0.
         25    1    4    4    0    0  0.92846299605E+01 -0.27577491610E+02  0.17445478406E+03  0.21663033532E+03  0.12509000000E+03 0.  0.
         25    1    4    4    0    0  0.78445429498E+02 -0.36573628682E+02  0.30792349111E+03  0.34344679384E+03  0.12509000000E+03 0.  0.
         25    1    3    3    0    0 -0.87730059458E+02  0.64151120292E+02  0.17205282257E+03  0.23887572380E+03  0.12509000000E+03 0.  0.
<mgrwt>
<rscale>  2 0.45830732E+03</rscale>
<asrwt>0</asrwt>
<pdfrwt beam="1">  1       21 0.10686646E+00 0.45830732E+03</pdfrwt>
<pdfrwt beam="2">  1       21 0.10626600E-01 0.45830732E+03</pdfrwt>
<totfact> 0.46594308E+04</totfact>
</mgrwt>
</event>
<event>
 7    0  0.4759581E-002  0.4525874E+03  0.7546771E-02  0.1026953E+00
         21   -1    0    0  502  501  0.00000000000E+00  0.00000000000E+00  0.13609666631E+03  0.13609666631E+03  0.00000000000E+00 0. -1.
         21   -1    0    0  501  502 -0.00000000000E+00 -0.00000000000E+00 -0.37626815344E+03  0.37626815344E+03  0.00000000000E+00 0. -1.
      99926    2    1    2    0    0  0.00000000000E+00  0.22204460493E-15 -0.24017148713E+03  0.51236481975E+03  0.45258741176E+03 0.  0.
      99925    2    3    3    0    0 -0.33892752102E+02  0.16257298370E+01 -0.27092282823E+03  0.37915628128E+03  0.26307593036E+03 0.  0.
         25    1    3    3    0    0  0.33892752102E+02 -0.16257298370E+01  0.30751341100E+02  0.13320853847E+03  0.12509000000E+03 0.  0.
         25    1    4    4    0    0  0.20192480445E+02  0.11974495983E+02 -0.14947043881E+03  0.19631618629E+03  0.12509000000E+03 0.  0.
         25    1    4    4    0    0 -0.54085232546E+02 -0.10348766146E+02 -0.12145238942E+03  0.18284009499E+03  0.12509000000E+03 0.  0.
<mgrwt>
<rscale>  2 0.45258741E+03</rscale>
<asrwt>0</asrwt>
<pdfrwt beam="1">  1       21 0.20014216E-01 0.45258741E+03</pdfrwt>
<pdfrwt beam="2">  1       21 0.55333552E-01 0.45258741E+03</pdfrwt>
<totfact> 0.65658482E+04</totfact>
</mgrwt>
</event>
<event>
 7    0  0.4759581E-002  0.4557023E+03  0.7546771E-02  0.1026035E+00
         21   -1    0    0  502  501  0.00000000000E+00  0.00000000000E+00  0.68864150301E+02  0.68864150301E+02  0.00000000000E+00 0.  1.
         21   -1    0    0  501  502 -0.00000000000E+00 -0.00000000000E+00 -0.75389210000E+03  0.75389210000E+03  0.00000000000E+00 0.  1.
      99926    2    1    2    0    0  0.00000000000E+00 -0.35527136788E-14 -0.68502794970E+03  0.82275625031E+03  0.45570226634E+03 0.  0.
      99925    2    3    3    0    0  0.96101891507E+02 -0.97220148460E+01 -0.53986025538E+03  0.60816068022E+03  0.26283117492E+03 0.  0.
         25    1    4    4    0    0  0.38086064941E+02  0.24460485921E+02 -0.20460593424E+03  0.24404909371E+03  0.12509000000E+03 0.  0.
         25    1    3    3    0    0 -0.96101891507E+02  0.97220148460E+01 -0.14516769432E+03  0.21459557008E+03  0.12509000000E+03 0.  0.
         25    1    4    4    0    0  0.58015826567E+02 -0.34182500767E+02 -0.33525432114E+03  0.36411158651E+03  0.12509000000E+03 0.  0.
<mgrwt>
<rscale>  2 0.45570227E+03</rscale>
<asrwt>0</asrwt>
<pdfrwt beam="1">  1       21 0.10127081E-01 0.45570227E+03</pdfrwt>
<pdfrwt beam="2">  1       21 0.11086648E+00 0.45570227E+03</pdfrwt>
<totfact> 0.46427381E+04</totfact>
</mgrwt>
</event>
<event>
 7    0  0.4759581E-002  0.4494764E+03  0.7546771E-02  0.1027878E+00
         21   -1    0    0  502  501  0.00000000000E+00  0.00000000000E+00  0.63305257075E+02  0.63305257075E+02  0.00000000000E+00 0. -1.
         21   -1    0    0  501  502 -0.00000000000E+00 -0.00000000000E+00 -0.79783671954E+03  0.79783671954E+03  0.00000000000E+00 0. -1.
      99926    2    1    2    0    0  0.00000000000E+00  0.00000000000E+00 -0.73453146247E+03  0.86114197662E+03  0.44947640042E+03 0.  0.
      99925    2    3    3    0    0 -0.58803695268E+02 -0.89304863390E+02 -0.43658411773E+03  0.52076959005E+03  0.26298676937E+03 0.  0.
         25    1    4    4    0    0 -0.13362330060E+02 -0.76997915482E+02 -0.19276875407E+03  0.24272315814E+03  0.12509000000E+03 0.  0.
         25    1    3    3    0    0  0.58803695268E+02  0.89304863390E+02 -0.29794734474E+03  0.34037238657E+03  0.12509000000E+03 0.  0.
         25    1    4    4    0    0 -0.45441365208E+02 -0.12306947908E+02 -0.24381536366E+03  0.27804643190E+03  0.12509000000E+03 0.  0.
<mgrwt>
<rscale>  2 0.44947640E+03</rscale>
<asrwt>0</asrwt>
<pdfrwt beam="1">  1       21 0.93095968E-02 0.44947640E+03</pdfrwt>
<pdfrwt beam="2">  1       21 0.11732893E+00 0.44947640E+03</pdfrwt>
<totfact> 0.46945992E+04</totfact>
</mgrwt>
</event>
<event>
 7    0  0.4759581E-002  0.4566095E+03  0.7546771E-02  0.1025769E+00
         21   -1    0    0  502  501  0.00000000000E+00  0.00000000000E+00  0.19402288828E+03  0.19402288828E+03  0.00000000000E+00 0. -1.
         21   -1    0    0  501  502 -0.00000000000E+00 -0.00000000000E+00 -0.26864382308E+03  0.26864382308E+03  0.00000000000E+00 0. -1.
      99926    2    1    2    0    0  0.00000000000E+00 -0.88817841970E-15 -0.74620934798E+02  0.46266671135E+03  0.45660946320E+03 0.  0.
      99925    2    3    3    0    0 -0.64825754080E+02 -0.46482866339E+01  0.48690919227E+02  0.27537734592E+03  0.26313094092E+03 0.  0.
         25    1    4    4    0    0  0.80937680629E+01  0.84454134867E+01  0.24231152146E+02  0.12795112709E+03  0.12509000000E+03 0.  0.
         25    1    3    3    0    0  0.64825754080E+02  0.46482866339E+01 -0.12331185403E+03  0.18728936543E+03  0.12509000000E+03 0.  0.
         25    1    4    4    0    0 -0.72919522143E+02 -0.13093700121E+02  0.24459767081E+02  0.14742621883E+03  0.12509000000E+03 0.  0.
<mgrwt>
<rscale>  2 0.45660946E+03</rscale>
<asrwt>0</asrwt>
<pdfrwt beam="1">  1       21 0.28532778E-01 0.45660946E+03</pdfrwt>
<pdfrwt beam="2">  1       21 0.39506444E-01 0.45660946E+03</pdfrwt>
<totfact> 0.67120753E+04</totfact>
</mgrwt>
</event>
<event>
 7    0  0.4759581E-002  0.4273529E+03  0.7546771E-02  0.1034699E+00
         21   -1    0    0  502  501  0.00000000000E+00  0.00000000000E+00  0.37350916193E+03  0.37350916193E+03  0.00000000000E+00 0. -1.
         21   -1    0    0  501  502 -0.00000000000E+00 -0.00000000000E+00 -0.12223965768E+03  0.12223965768E+03  0.00000000000E+00 0. -1.
      99926    2    1    2    0    0 -0.35527136788E-14  0.71054273576E-14  0.25126950425E+03  0.49574881961E+03  0.42735293188E+03 0.  0.
      99925    2    3    3    0    0  0.29291232394E+02 -0.59582742679E+02  0.10184243128E+03  0.28987498020E+03  0.26314928047E+03 0.  0.
         25    1    4    4    0    0  0.32342907282E+02 -0.20554787947E+02  0.88878853988E+02  0.15816295946E+03  0.12509000000E+03 0.  0.
         25    1    3    3    0    0 -0.29291232394E+02  0.59582742679E+02  0.14942707297E+03  0.20587383942E+03  0.12509000000E+03 0.  0.
         25    1    4    4    0    0 -0.30516748872E+01 -0.39027954732E+02  0.12963577293E+02  0.13171202074E+03  0.12509000000E+03 0.  0.
<mgrwt>
<rscale>  2 0.42735293E+03</rscale>
<asrwt>0</asrwt>
<pdfrwt beam="1">  1       21 0.54927817E-01 0.42735293E+03</pdfrwt>
<pdfrwt beam="2">  1       21 0.17976420E-01 0.42735293E+03</pdfrwt>
<totfact> 0.82167288E+04</totfact>
</mgrwt>
</event>
<event>
 7    0  0.4759581E-002  0.4595042E+03  0.7546771E-02  0.1024925E+00
         21   -1    0    0  502  501  0.00000000000E+00  0.00000000000E+00  0.18544361964E+04  0.18544361964E+04  0.00000000000E+00 0.  1.
         21   -1    0    0  501  502 -0.00000000000E+00 -0.00000000000E+00 -0.28464727801E+02  0.28464727801E+02  0.00000000000E+00 0.  1.
      99926    2    1    2    0    0  0.00000000000E+00 -0.35527136788E-14  0.18259714686E+04  0.18829009242E+04  0.45950417432E+03 0.  0.
      99925    2    3    3    0    0 -0.99317163693E+02 -0.30099259999E+02  0.13688242530E+04  0.13977195671E+04  0.26300244900E+03 0.  0.
         25    1    4    4    0    0 -0.23214442662E+02 -0.46263890724E+02  0.66864079873E+03  0.68220765443E+03  0.12509000000E+03 0.  0.
         25    1    3    3    0    0  0.99317163693E+02  0.30099259999E+02  0.45714721567E+03  0.48518135717E+03  0.12509000000E+03 0.  0.
         25    1    4    4    0    0 -0.76102721031E+02  0.16164630725E+02  0.70018345423E+03  0.71551191263E+03  0.12509000000E+03 0.  0.
<mgrwt>
<rscale>  2 0.45950417E+03</rscale>
<asrwt>0</asrwt>
<pdfrwt beam="1">  1       21 0.27271112E+00 0.45950417E+03</pdfrwt>
<pdfrwt beam="2">  1       21 0.41859906E-02 0.45950417E+03</pdfrwt>
<totfact> 0.15179758E+04</totfact>
</mgrwt>
</event>
<event>
 7    0  0.4759581E-002  0.4528642E+03  0.7546771E-02  0.1026871E+00
         21   -1    0    0  502  501  0.00000000000E+00  0.00000000000E+00  0.64211211671E+02  0.64211211671E+02  0.00000000000E+00 0.  1.
         21   -1    0    0  501  502 -0.00000000000E+00 -0.00000000000E+00 -0.79848194811E+03  0.79848194811E+03  0.00000000000E+00 0.  1.
      99926    2    1    2    0    0  0.00000000000E+00 -0.14210854715E-13 -0.73427073644E+03  0.86269315978E+03  0.45286418885E+03 0.  0.
      99925    2    3    3    0    0 -0.60839077257E+02 -0.66555946843E+02 -0.58665561453E+03  0.64922461479E+03  0.26305266206E+03 0.  0.
         25    1    4    4    0    0  0.85722063152E+01 -0.20063312625E+02 -0.29122425965E+03  0.31770284346E+03  0.12509000000E+03 0.  0.
         25    1    4    4    0    0 -0.69411283572E+02 -0.46492634218E+02 -0.29543135488E+03  0.33152177133E+03  0.12509000000E+03 0.  0.
         25    1    3    3    0    0  0.60839077257E+02  0.66555946843E+02 -0.14761512191E+03  0.21346854499E+03  0.12509000000E+03 0.  0.
<mgrwt>
<rscale>  2 0.45286419E+03</rscale>
<asrwt>0</asrwt>
<pdfrwt beam="1">  1       21 0.94428267E-02 0.45286419E+03</pdfrwt>
<pdfrwt beam="2">  1       21 0.11742380E+00 0.45286419E+03</pdfrwt>
<totfact> 0.45636439E+04</totfact>
</mgrwt>
</event>
<event>
 6    0  0.4759581E-002  0.4498701E+03  0.7546771E-02  0.1027761E+00
         21   -1    0    0  502  501  0.00000000000E+00  0.00000000000E+00  0.40970875685E+03  0.40970875685E+03  0.00000000000E+00 0.  1.
         21   -1    0    0  501  502 -0.00000000000E+00 -0.00000000000E+00 -0.12349207331E+03  0.12349207331E+03  0.00000000000E+00 0.  1.
      99926    2    1    2    0    0  0.00000000000E+00  0.35527136788E-14  0.28621668354E+03  0.53320083016E+03  0.44987013164E+03 0.  0.
         25    1    3    3    0    0 -0.12015996543E+02  0.44058101039E+02  0.41990607340E+02  0.13962886394E+03  0.12509000000E+03 0.  0.
         25    1    3    3    0    0  0.69768087725E+02 -0.17987475019E+02  0.47467622514E+02  0.15195992435E+03  0.12509000000E+03 0.  0.
         25    1    3    3    0    0 -0.57752091183E+02 -0.26070626020E+02  0.19675845369E+03  0.24161204186E+03  0.12509000000E+03 0.  0.
<mgrwt>
<rscale>  2 0.44987013E+03</rscale>
<asrwt>0</asrwt>
<pdfrwt beam="1">  1       21 0.60251287E-01 0.44987013E+03</pdfrwt>
<pdfrwt beam="2">  1       21 0.18160599E-01 0.44987013E+03</pdfrwt>
<totfact> 0.65614347E+04</totfact>
</mgrwt>
</event>
<event>
 7    0  0.4759581E-002  0.4539131E+03  0.7546771E-02  0.1026561E+00
         21   -1    0    0  502  501  0.00000000000E+00  0.00000000000E+00  0.63471675186E+03  0.63471675186E+03  0.00000000000E+00 0.  1.
         21   -1    0    0  501  502 -0.00000000000E+00 -0.00000000000E+00 -0.81153181780E+02  0.81153181780E+02  0.00000000000E+00 0.  1.
      99926    2    1    2    0    0  0.00000000000E+00  0.00000000000E+00  0.55356357008E+03  0.71586993364E+03  0.45391313681E+03 0.  0.
      99925    2    3    3    0    0 -0.86037286621E+02 -0.64845451610E+02  0.29948957684E+03  0.41287084218E+03  0.26298474937E+03 0.  0.
         25    1    4    4    0    0 -0.44393365205E+02  0.57630768816E+00  0.10658933392E+03  0.17023482960E+03  0.12509000000E+03 0.  0.
         25    1    3    3    0    0  0.86037286621E+02  0.64845451610E+02  0.25407399324E+03  0.30299909146E+03  0.12509000000E+03 0.  0.
         25    1    4    4    0    0 -0.41643921416E+02 -0.65421759298E+02  0.19290024292E+03  0.24263601257E+03  0.12509000000E+03 0.  0.
<mgrwt>
<rscale>  2 0.45391314E+03</rscale>
<asrwt>0</asrwt>
<pdfrwt beam="1">  1       21 0.93340696E-01 0.45391314E+03</pdfrwt>
<pdfrwt beam="2">  1       21 0.11934292E-01 0.45391314E+03</pdfrwt>
<totfact> 0.52497208E+04</totfact>
</mgrwt>
</event>
<event>
 7    0  0.4759581E-002  0.4518941E+03  0.7546771E-02  0.1027159E+00
         21   -1    0    0  502  501  0.00000000000E+00  0.00000000000E+00  0.45075965721E+02  0.45075965721E+02  0.00000000000E+00 0. -1.
         21   -1    0    0  501  502 -0.00000000000E+00 -0.00000000000E+00 -0.11325786586E+04  0.11325786586E+04  0.00000000000E+00 0. -1.
      99926    2    1    2    0    0  0.00000000000E+00  0.00000000000E+00 -0.10875026929E+04  0.11776546243E+04  0.45189413269E+03 0.  0.
      99925    2    3    3    0    0  0.42244276713E+02  0.87604929365E+02 -0.55108451340E+03  0.61832361862E+03  0.26300333433E+03 0.  0.
         25    1    4    4    0    0  0.18542311459E+02  0.33464365186E+02 -0.18176478765E+03  0.22394112436E+03  0.12509000000E+03 0.  0.
         25    1    3    3    0    0 -0.42244276713E+02 -0.87604929365E+02 -0.53641817946E+03  0.55933100568E+03  0.12509000000E+03 0.  0.
         25    1    4    4    0    0  0.23701965253E+02  0.54140564179E+02 -0.36931972575E+03  0.39438249425E+03  0.12509000000E+03 0.  0.
<mgrwt>
<rscale>  2 0.45189413E+03</rscale>
<asrwt>0</asrwt>
<pdfrwt beam="1">  1       21 0.66288195E-02 0.45189413E+03</pdfrwt>
<pdfrwt beam="2">  1       21 0.16655566E+00 0.45189413E+03</pdfrwt>
<totfact> 0.33680027E+04</totfact>
</mgrwt>
</event>
<event>
 7    0  0.4759581E-002  0.4534002E+03  0.7546771E-02  0.1026713E+00
         21   -1    0    0  502  501  0.00000000000E+00  0.00000000000E+00  0.86227361328E+03  0.86227361328E+03  0.00000000000E+00 0. -1.
         21   -1    0    0  501  502 -0.00000000000E+00 -0.00000000000E+00 -0.59601667793E+02  0.59601667793E+02  0.00000000000E+00 0. -1.
      99926    2    1    2    0    0 -0.71054273576E-14  0.00000000000E+00  0.80267194549E+03  0.92187528107E+03  0.45340024458E+03 0.  0.
      99925    2    3    3    0    0  0.49126246102E+02  0.84395473160E+02  0.39542538971E+03  0.48480177554E+03  0.26293637784E+03 0.  0.
         25    1    4    4    0    0  0.77914948857E+01  0.43906644005E+01  0.19728551079E+03  0.23377139730E+03  0.12509000000E+03 0.  0.
         25    1    3    3    0    0 -0.49126246102E+02 -0.84395473160E+02  0.40724655578E+03  0.43707350554E+03  0.12509000000E+03 0.  0.
         25    1    4    4    0    0  0.41334751216E+02  0.80004808760E+02  0.19813987892E+03  0.25103037824E+03  0.12509000000E+03 0.  0.
<mgrwt>
<rscale>  2 0.45340024E+03</rscale>
<asrwt>0</asrwt>
<pdfrwt beam="1">  1       21 0.12680494E+00 0.45340024E+03</pdfrwt>
<pdfrwt beam="2">  1       21 0.87649517E-02 0.45340024E+03</pdfrwt>
<totfact> 0.42834725E+04</totfact>
</mgrwt>
</event>
<event>
 7    0  0.4759581E-002  0.4026111E+03  0.7546771E-02  0.1042879E+00
         21   -1    0    0  502  501  0.00000000000E+00  0.00000000000E+00  0.68340155422E+02  0.68340155422E+02  0.00000000000E+00 0. -1.
         21   -1    0    0  501  502 -0.00000000000E+00 -0.00000000000E+00 -0.59297372461E+03  0.59297372461E+03  0.00000000000E+00 0. -1.
      99926    2    1    2    0    0  0.88817841970E-15  0.35527136788E-14 -0.52463356919E+03  0.66131388003E+03  0.40261106046E+03 0.  0.
      99925    2    3    3    0    0  0.78415572911E+01  0.28790231457E+02 -0.28411054196E+03  0.38857004019E+03  0.26339610595E+03 0.  0.
         25    1    4    4    0    0  0.35301225157E+01  0.52766696506E+01 -0.82080817543E+02  0.14975003745E+03  0.12509000000E+03 0.  0.
         25    1    4    4    0    0  0.43114347754E+01  0.23513561806E+02 -0.20202972442E+03  0.23882000274E+03  0.12509000000E+03 0.  0.
         25    1    3    3    0    0 -0.78415572911E+01 -0.28790231457E+02 -0.24052302723E+03  0.27274383985E+03  0.12509000000E+03 0.  0.
<mgrwt>
<rscale>  2 0.40261106E+03</rscale>
<asrwt>0</asrwt>
<pdfrwt beam="1">  1       21 0.10050023E-01 0.40261106E+03</pdfrwt>
<pdfrwt beam="2">  1       21 0.87202014E-01 0.40261106E+03</pdfrwt>
<totfact> 0.85113305E+04</totfact>
</mgrwt>
</event>
<event>
 7    0  0.4759581E-002  0.4582376E+03  0.7546771E-02  0.1025294E+00
         21   -1    0    0  502  501  0.00000000000E+00  0.00000000000E+00  0.42384875317E+03  0.42384875317E+03  0.00000000000E+00 0.  1.
         21   -1    0    0  501  502 -0.00000000000E+00 -0.00000000000E+00 -0.12385412145E+03  0.12385412145E+03  0.00000000000E+00 0.  1.
      99926    2    1    2    0    0  0.00000000000E+00  0.00000000000E+00  0.29999463172E+03  0.54770287462E+03  0.45823755826E+03 0.  0.
      99925    2    3    3    0    0 -0.51149186295E+02  0.84510632488E+02  0.26117616221E+03  0.38365206561E+03  0.26309244283E+03 0.  0.
         25    1    4    4    0    0  0.94497341872E+01  0.40633604328E+02  0.15395316283E+03  0.20270538158E+03  0.12509000000E+03 0.  0.
         25    1    3    3    0    0  0.51149186295E+02 -0.84510632488E+02  0.38818469512E+02  0.16405080901E+03  0.12509000000E+03 0.  0.
         25    1    4    4    0    0 -0.60598920482E+02  0.43877028159E+02  0.10722299937E+03  0.18094668402E+03  0.12509000000E+03 0.  0.
<mgrwt>
<rscale>  2 0.45823756E+03</rscale>
<asrwt>0</asrwt>
<pdfrwt beam="1">  1       21 0.62330699E-01 0.45823756E+03</pdfrwt>
<pdfrwt beam="2">  1       21 0.18213841E-01 0.45823756E+03</pdfrwt>
<totfact> 0.60454944E+04</totfact>
</mgrwt>
</event>
<event>
 7    0  0.4759581E-002  0.4461070E+03  0.7546771E-02  0.1028889E+00
         21   -1    0    0  502  501  0.00000000000E+00  0.00000000000E+00  0.23228250726E+03  0.23228250726E+03  0.00000000000E+00 0. -1.
         21   -1    0    0  501  502 -0.00000000000E+00 -0.00000000000E+00 -0.21419116317E+03  0.21419116317E+03  0.00000000000E+00 0. -1.
      99926    2    1    2    0    0  0.00000000000E+00  0.35527136788E-14  0.18091344092E+02  0.44647367043E+03  0.44610698455E+03 0.  0.
      99925    2    3    3    0    0  0.99156090411E+02 -0.19742756684E+02  0.39248547883E+02  0.28424900499E+03  0.26274577374E+03 0.  0.
         25    1    3    3    0    0 -0.99156090411E+02  0.19742756684E+02 -0.21157203791E+02  0.16222466545E+03  0.12509000000E+03 0.  0.
         25    1    4    4    0    0  0.14795270992E+02  0.82644330825E+01  0.16019859277E+01  0.12624292201E+03  0.12509000000E+03 0.  0.
         25    1    4    4    0    0  0.84360819419E+02 -0.28007189767E+02  0.37646561955E+02  0.15800608298E+03  0.12509000000E+03 0.  0.
<mgrwt>
<rscale>  2 0.44610698E+03</rscale>
<asrwt>0</asrwt>
<pdfrwt beam="1">  1       21 0.34159192E-01 0.44610698E+03</pdfrwt>
<pdfrwt beam="2">  1       21 0.31498700E-01 0.44610698E+03</pdfrwt>
<totfact> 0.74309416E+04</totfact>
</mgrwt>
</event>
<event>
 7    0  0.4759581E-002  0.4542998E+03  0.7546771E-02  0.1026448E+00
         21   -1    0    0  502  501  0.00000000000E+00  0.00000000000E+00  0.24362933449E+03  0.24362933449E+03  0.00000000000E+00 0.  1.
         21   -1    0    0  501  502 -0.00000000000E+00 -0.00000000000E+00 -0.21178517359E+03  0.21178517359E+03  0.00000000000E+00 0.  1.
      99926    2    1    2    0    0  0.00000000000E+00  0.35527136788E-14  0.31844160897E+02  0.45541450807E+03  0.45429981684E+03 0.  0.
      99925    2    3    3    0    0  0.10598119563E+03 -0.25381043137E+02 -0.77967377078E+01  0.28484159077E+03  0.26305461702E+03 0.  0.
         25    1    4    4    0    0  0.83099231329E+02  0.15571848139E+02  0.56713261150E+00  0.15098276207E+03  0.12509000000E+03 0.  0.
         25    1    3    3    0    0 -0.10598119563E+03  0.25381043137E+02  0.39640898605E+02  0.17057291731E+03  0.12509000000E+03 0.  0.
         25    1    4    4    0    0  0.22881964297E+02 -0.40952891277E+02 -0.83638703193E+01  0.13385882870E+03  0.12509000000E+03 0.  0.
<mgrwt>
<rscale>  2 0.45429982E+03</rscale>
<asrwt>0</asrwt>
<pdfrwt beam="1">  1       21 0.35827844E-01 0.45429982E+03</pdfrwt>
<pdfrwt beam="2">  1       21 0.31144878E-01 0.45429982E+03</pdfrwt>
<totfact> 0.68899583E+04</totfact>
</mgrwt>
</event>
<event>
 7    0  0.4759581E-002  0.4510828E+03  0.7546771E-02  0.1027400E+00
         21   -1    0    0  502  501  0.00000000000E+00  0.00000000000E+00  0.33853647010E+03  0.33853647010E+03  0.00000000000E+00 0.  1.
         21   -1    0    0  501  502 -0.00000000000E+00 -0.00000000000E+00 -0.15026125746E+03  0.15026125746E+03  0.00000000000E+00 0.  1.
      99926    2    1    2    0    0  0.00000000000E+00  0.00000000000E+00  0.18827521264E+03  0.48879772756E+03  0.45108276710E+03 0.  0.
      99925    2    3    3    0    0  0.56645802100E+02 -0.84450127797E+02  0.74356883447E+02  0.29140100822E+03  0.26276421083E+03 0.  0.
         25    1    3    3    0    0 -0.56645802100E+02  0.84450127797E+02  0.11391832919E+03  0.19739671934E+03  0.12509000000E+03 0.  0.
         25    1    4    4    0    0  0.62294179408E+02 -0.27792086975E+02  0.54440580490E+02  0.15252622657E+03  0.12509000000E+03 0.  0.
         25    1    4    4    0    0 -0.56483773083E+01 -0.56658040822E+02  0.19916302958E+02  0.13887478165E+03  0.12509000000E+03 0.  0.
<mgrwt>
<rscale>  2 0.45108277E+03</rscale>
<asrwt>0</asrwt>
<pdfrwt beam="1">  1       21 0.49784775E-01 0.45108277E+03</pdfrwt>
<pdfrwt beam="2">  1       21 0.22097244E-01 0.45108277E+03</pdfrwt>
<totfact> 0.68160138E+04</totfact>
</mgrwt>
</event>
<event>
 7    0  0.4759581E-002  0.4513557E+03  0.7546771E-02  0.1027319E+00
         21   -1    0    0  502  501  0.00000000000E+00  0.00000000000E+00  0.80954958002E+02  0.80954958002E+02  0.00000000000E+00 0.  1.
         21   -1    0    0  501  502 -0.00000000000E+00 -0.00000000000E+00 -0.62912134583E+03  0.62912134583E+03  0.00000000000E+00 0.  1.
      99926    2    1    2    0    0 -0.71054273576E-14  0.00000000000E+00 -0.54816638783E+03  0.71007630383E+03  0.45135570066E+03 0.  0.
      99925    2    3    3    0    0  0.58108097755E+02  0.65167255759E+02 -0.45048368491E+03  0.52893342984E+03  0.26308116730E+03 0.  0.
         25    1    3    3    0    0 -0.58108097755E+02 -0.65167255759E+02 -0.97682702916E+02  0.18114287399E+03  0.12509000000E+03 0.  0.
         25    1    4    4    0    0  0.25609888790E+02  0.44900920965E+02 -0.30259375745E+03  0.33148521725E+03  0.12509000000E+03 0.  0.
         25    1    4    4    0    0  0.32498208964E+02  0.20266334794E+02 -0.14788992746E+03  0.19744821259E+03  0.12509000000E+03 0.  0.
<mgrwt>
<rscale>  2 0.45135570E+03</rscale>
<asrwt>0</asrwt>
<pdfrwt beam="1">  1       21 0.11905141E-01 0.45135570E+03</pdfrwt>
<pdfrwt beam="2">  1       21 0.92517845E-01 0.45135570E+03</pdfrwt>
<totfact> 0.53887825E+04</totfact>
</mgrwt>
</event>
<event>
 7    0  0.4759581E-002  0.4481649E+03  0.7546771E-02  0.1028271E+00
         21   -1    0    0  502  501  0.00000000000E+00  0.00000000000E+00  0.94134049389E+02  0.94134049389E+02  0.00000000000E+00 0.  1.
         21   -1    0    0  501  502 -0.00000000000E+00 -0.00000000000E+00 -0.53341963340E+03  0.53341963340E+03  0.00000000000E+00 0.  1.
      99926    2    1    2    0    0  0.00000000000E+00 -0.26645352591E-14 -0.43928558401E+03  0.62755368279E+03  0.44816492551E+03 0.  0.
      99925    2    3    3    0    0 -0.10002703816E+03  0.65622374954E+01 -0.22770040614E+03  0.36210261966E+03  0.26310142698E+03 0.  0.
         25    1    4    4    0    0 -0.77122248814E+02 -0.14566645184E+02 -0.87530071850E+02  0.17166551777E+03  0.12509000000E+03 0.  0.
         25    1    3    3    0    0  0.10002703816E+03 -0.65622374954E+01 -0.21158517786E+03  0.26545106313E+03  0.12509000000E+03 0.  0.
         25    1    4    4    0    0 -0.22904789346E+02  0.21128882680E+02 -0.14017033429E+03  0.19043710189E+03  0.12509000000E+03 0.  0.
<mgrwt>
<rscale>  2 0.44816493E+03</rscale>
<asrwt>0</asrwt>
<pdfrwt beam="1">  1       21 0.13843243E-01 0.44816493E+03</pdfrwt>
<pdfrwt beam="2">  1       21 0.78444063E-01 0.44816493E+03</pdfrwt>
<totfact> 0.60196447E+04</totfact>
</mgrwt>
</event>
<event>
 7    0  0.4759581E-002  0.4395985E+03  0.7546771E-02  0.1030870E+00
         21   -1    0    0  502  501  0.00000000000E+00  0.00000000000E+00  0.41370548874E+02  0.41370548874E+02  0.00000000000E+00 0.  1.
         21   -1    0    0  501  502 -0.00000000000E+00 -0.00000000000E+00 -0.11677800496E+04  0.11677800496E+04  0.00000000000E+00 0.  1.
      99926    2    1    2    0    0  0.00000000000E+00  0.00000000000E+00 -0.11264095007E+04  0.12091505984E+04  0.43959846049E+03 0.  0.
      99925    2    3    3    0    0  0.95701044271E+02 -0.15058613812E+02 -0.75998451699E+03  0.81002627131E+03  0.26302213296E+03 0.  0.
         25    1    4    4    0    0  0.76434803301E+02  0.11849879020E+02 -0.33703478860E+03  0.36772633250E+03  0.12509000000E+03 0.  0.
         25    1    3    3    0    0 -0.95701044271E+02  0.15058613812E+02 -0.36642498371E+03  0.39912432714E+03  0.12509000000E+03 0.  0.
         25    1    4    4    0    0  0.19266240970E+02 -0.26908492833E+02 -0.42294972838E+03  0.44229993881E+03  0.12509000000E+03 0.  0.
<mgrwt>
<rscale>  2 0.43959846E+03</rscale>
<asrwt>0</asrwt>
<pdfrwt beam="1">  1       21 0.60839041E-02 0.43959846E+03</pdfrwt>
<pdfrwt beam="2">  1       21 0.17173236E+00 0.43959846E+03</pdfrwt>
<totfact> 0.35995165E+04</totfact>
</mgrwt>
</event>
<event>
 7    0  0.4759581E-002  0.4523607E+03  0.7546771E-02  0.1027020E+00
         21   -1    0    0  502  501  0.00000000000E+00  0.00000000000E+00  0.46879375276E+03  0.46879375276E+03  0.00000000000E+00 0.  1.
         21   -1    0    0  501  502 -0.00000000000E+00 -0.00000000000E+00 -0.10912591526E+03  0.10912591526E+03  0.00000000000E+00 0.  1.
      99926    2    1    2    0    0  0.00000000000E+00  0.00000000000E+00  0.35966783749E+03  0.57791966802E+03  0.45236068502E+03 0.  0.
      99925    2    3    3    0    0 -0.22918553150E+02  0.10022538607E+03  0.27916260050E+03  0.39709104922E+03  0.26301930683E+03 0.  0.
         25    1    4    4    0    0 -0.50930938639E+02  0.60457275406E+02  0.15401712071E+03  0.21358329577E+03  0.12509000000E+03 0.  0.
         25    1    4    4    0    0  0.28012385489E+02  0.39768110665E+02  0.12514547979E+03  0.18350775346E+03  0.12509000000E+03 0.  0.
         25    1    3    3    0    0  0.22918553150E+02 -0.10022538607E+03  0.80505236998E+02  0.18082861880E+03  0.12509000000E+03 0.  0.
<mgrwt>
<rscale>  2 0.45236069E+03</rscale>
<asrwt>0</asrwt>
<pdfrwt beam="1">  1       21 0.68940257E-01 0.45236069E+03</pdfrwt>
<pdfrwt beam="2">  1       21 0.16047929E-01 0.45236069E+03</pdfrwt>
<totfact> 0.61328107E+04</totfact>
</mgrwt>
</event>
<event>
 7    0  0.4759581E-002  0.4580123E+03  0.7546771E-02  0.1025359E+00
         21   -1    0    0  502  501  0.00000000000E+00  0.00000000000E+00  0.89878769184E+03  0.89878769184E+03  0.00000000000E+00 0. -1.
         21   -1    0    0  501  502 -0.00000000000E+00 -0.00000000000E+00 -0.58349503913E+02  0.58349503913E+02  0.00000000000E+00 0. -1.
      99926    2    1    2    0    0 -0.35527136788E-14 -0.14210854715E-13  0.84043818793E+03  0.95713719575E+03  0.45801229652E+03 0.  0.
      99925    2    3    3    0    0 -0.28886699516E+02 -0.11214033341E+03  0.50838543731E+03  0.58388602954E+03  0.26278745563E+03 0.  0.
         25    1    4    4    0    0 -0.35180197755E+02 -0.27575851505E+02  0.28163372452E+03  0.31138904410E+03  0.12509000000E+03 0.  0.
         25    1    4    4    0    0  0.62934982391E+01 -0.84564481903E+02  0.22675171279E+03  0.27249698544E+03  0.12509000000E+03 0.  0.
         25    1    3    3    0    0  0.28886699516E+02  0.11214033341E+03  0.33205275062E+03  0.37325116621E+03  0.12509000000E+03 0.  0.
<mgrwt>
<rscale>  2 0.45801230E+03</rscale>
<asrwt>0</asrwt>
<pdfrwt beam="1">  1       21 0.13217465E+00 0.45801230E+03</pdfrwt>
<pdfrwt beam="2">  1       21 0.85808099E-02 0.45801230E+03</pdfrwt>
<totfact> 0.39904931E+04</totfact>
</mgrwt>
</event>
<event>
 7    0  0.4759581E-002  0.4588096E+03  0.7546771E-02  0.1025127E+00
         21   -1    0    0  502  501  0.00000000000E+00  0.00000000000E+00  0.38461409078E+03  0.38461409078E+03  0.00000000000E+00 0. -1.
         21   -1    0    0  501  502 -0.00000000000E+00 -0.00000000000E+00 -0.13682950899E+03  0.13682950899E+03  0.00000000000E+00 0. -1.
      99926    2    1    2    0    0  0.00000000000E+00 -0.14210854715E-13  0.24778458180E+03  0.52144359977E+03  0.45880957789E+03 0.  0.
      99925    2    3    3    0    0 -0.56528699475E+02 -0.76328537903E+02  0.78024671417E+02  0.29017000673E+03  0.26284832869E+03 0.  0.
         25    1    3    3    0    0  0.56528699475E+02  0.76328537903E+02  0.16975991038E+03  0.23127359303E+03  0.12509000000E+03 0.  0.
         25    1    4    4    0    0 -0.17622240232E+02 -0.76292041126E+02  0.29661648788E+02  0.15052687600E+03  0.12509000000E+03 0.  0.
         25    1    4    4    0    0 -0.38906459243E+02 -0.36496776728E-01  0.48363022629E+02  0.13964313073E+03  0.12509000000E+03 0.  0.
<mgrwt>
<rscale>  2 0.45880958E+03</rscale>
<asrwt>0</asrwt>
<pdfrwt beam="1">  1       21 0.56560895E-01 0.45880958E+03</pdfrwt>
<pdfrwt beam="2">  1       21 0.20121987E-01 0.45880958E+03</pdfrwt>
<totfact> 0.61896905E+04</totfact>
</mgrwt>
</event>
<event>
 7    0  0.4759581E-002  0.4635030E+03  0.7546771E-02  0.1023770E+00
         21   -1    0    0  502  501  0.00000000000E+00  0.00000000000E+00  0.17485352572E+04  0.17485352572E+04  0.00000000000E+00 0. -1.
         21   -1    0    0  501  502 -0.00000000000E+00 -0.00000000000E+00 -0.30716432056E+02  0.30716432056E+02  0.00000000000E+00 0. -1.
      99926    2    1    2    0    0  0.14210854715E-13  0.00000000000E+00  0.17178188252E+04  0.17792516893E+04  0.46350302880E+03 0.  0.
      99925    2    3    3    0    0 -0.10601925617E+03  0.53895967916E+02  0.11572793154E+04  0.11927391931E+04  0.26303328863E+03 0.  0.
         25    1    4    4    0    0 -0.58687755507E+02 -0.85706667021E+01  0.64053037126E+03  0.65532005431E+03  0.12509000000E+03 0.  0.
         25    1    4    4    0    0 -0.47331500658E+02  0.62466634618E+02  0.51674894413E+03  0.53741913880E+03  0.12509000000E+03 0.  0.
         25    1    3    3    0    0  0.10601925617E+03 -0.53895967916E+02  0.56053950977E+03  0.58651249616E+03  0.12509000000E+03 0.  0.
<mgrwt>
<rscale>  2 0.46350303E+03</rscale>
<asrwt>0</asrwt>
<pdfrwt beam="1">  1       21 0.25713747E+00 0.46350303E+03</pdfrwt>
<pdfrwt beam="2">  1       21 0.45171235E-02 0.46350303E+03</pdfrwt>
<totfact> 0.16542309E+04</totfact>
</mgrwt>
</event>
<event>
 7    0  0.4759581E-002  0.4554077E+03  0.7546771E-02  0.1026122E+00
         21   -1    0    0  502  501  0.00000000000E+00  0.00000000000E+00  0.74141778683E+02  0.74141778683E+02  0.00000000000E+00 0.  1.
         21   -1    0    0  501  502 -0.00000000000E+00 -0.00000000000E+00 -0.69932286355E+03  0.69932286355E+03  0.00000000000E+00 0.  1.
      99926    2    1    2    0    0 -0.14210854715E-13 -0.88817841970E-15 -0.62518108487E+03  0.77346464224E+03  0.45540768978E+03 0.  0.
      99925    2    3    3    0    0  0.98133486695E+02 -0.43844407194E+01 -0.48998367017E+03  0.56471777741E+03  0.26300716067E+03 0.  0.
         25    1    4    4    0    0  0.17275238090E+02 -0.28408410501E+02 -0.24218224307E+03  0.27460010669E+03  0.12509000000E+03 0.  0.
         25    1    4    4    0    0  0.80858248605E+02  0.24023969781E+02 -0.24780142710E+03  0.29011767072E+03  0.12509000000E+03 0.  0.
         25    1    3    3    0    0 -0.98133486695E+02  0.43844407194E+01 -0.13519741470E+03  0.20874686482E+03  0.12509000000E+03 0.  0.
<mgrwt>
<rscale>  2 0.45540769E+03</rscale>
<asrwt>0</asrwt>
<pdfrwt beam="1">  1       21 0.10903203E-01 0.45540769E+03</pdfrwt>
<pdfrwt beam="2">  1       21 0.10284159E+00 0.45540769E+03</pdfrwt>
<totfact> 0.48918336E+04</totfact>
</mgrwt>
</event>
<event>
 7    0  0.4759581E-002  0.4068871E+03  0.7546771E-02  0.1041421E+00
         21   -1    0    0  502  501  0.00000000000E+00  0.00000000000E+00  0.18381544863E+04  0.18381544863E+04  0.00000000000E+00 0. -1.
         21   -1    0    0  501  502 -0.00000000000E+00 -0.00000000000E+00 -0.22516753468E+02  0.22516753468E+02  0.00000000000E+00 0. -1.
      99926    2    1    2    0    0  0.00000000000E+00  0.35527136788E-14  0.18156377328E+04  0.18606712398E+04  0.40688706740E+03 0.  0.
      99925    2    3    3    0    0  0.39005959380E+02  0.28066232032E+02  0.10502093339E+04  0.10836015388E+04  0.26257088857E+03 0.  0.
         25    1    4    4    0    0  0.55041746352E+02  0.31949896079E+02  0.52299914381E+03  0.54150346465E+03  0.12509000000E+03 0.  0.
         25    1    3    3    0    0 -0.39005959380E+02 -0.28066232032E+02  0.76542839888E+03  0.77706970097E+03  0.12509000000E+03 0.  0.
         25    1    4    4    0    0 -0.16035786972E+02 -0.38836640476E+01  0.52721019013E+03  0.54209807415E+03  0.12509000000E+03 0.  0.
<mgrwt>
<rscale>  2 0.40688707E+03</rscale>
<asrwt>0</asrwt>
<pdfrwt beam="1">  1       21 0.27031673E+00 0.40688707E+03</pdfrwt>
<pdfrwt beam="2">  1       21 0.33112885E-02 0.40688707E+03</pdfrwt>
<totfact> 0.23866939E+04</totfact>
</mgrwt>
</event>
<event>
 7    0  0.4759581E-002  0.4367682E+03  0.7546771E-02  0.1031743E+00
         21   -1    0    0  502  501  0.00000000000E+00  0.00000000000E+00  0.68917274715E+03  0.68917274715E+03  0.00000000000E+00 0.  1.
         21   -1    0    0  501  502 -0.00000000000E+00 -0.00000000000E+00 -0.69201259804E+02  0.69201259804E+02  0.00000000000E+00 0.  1.
      99926    2    1    2    0    0  0.14210854715E-13  0.35527136788E-14  0.61997148735E+03  0.75837400696E+03  0.43676823294E+03 0.  0.
      99925    2    3    3    0    0 -0.89234152913E+02 -0.29080308572E+02  0.42358501262E+03  0.50732908279E+03  0.26296413622E+03 0.  0.
         25    1    4    4    0    0 -0.14191078034E+02 -0.30387066965E+02  0.15777909392E+03  0.20412376420E+03  0.12509000000E+03 0.  0.
         25    1    4    4    0    0 -0.75043074879E+02  0.13067583931E+01  0.26580591870E+03  0.30320531859E+03  0.12509000000E+03 0.  0.
         25    1    3    3    0    0  0.89234152913E+02  0.29080308572E+02  0.19638647473E+03  0.25104492417E+03  0.12509000000E+03 0.  0.
<mgrwt>
<rscale>  2 0.43676823E+03</rscale>
<asrwt>0</asrwt>
<pdfrwt beam="1">  1       21 0.10134893E+00 0.43676823E+03</pdfrwt>
<pdfrwt beam="2">  1       21 0.10176656E-01 0.43676823E+03</pdfrwt>
<totfact> 0.57665972E+04</totfact>
</mgrwt>
</event>
<event>
 7    0  0.4759581E-002  0.4593959E+03  0.7546771E-02  0.1024957E+00
         21   -1    0    0  502  501  0.00000000000E+00  0.00000000000E+00  0.23286092468E+03  0.23286092468E+03  0.00000000000E+00 0. -1.
         21   -1    0    0  501  502 -0.00000000000E+00 -0.00000000000E+00 -0.22657798417E+03  0.22657798417E+03  0.00000000000E+00 0. -1.
      99926    2    1    2    0    0  0.00000000000E+00  0.00000000000E+00  0.62829405041E+01  0.45943890885E+03  0.45939594646E+03 0.  0.
      99925    2    3    3    0    0 -0.91674604392E+02  0.45064450629E+02  0.62635361206E+02  0.28838879567E+03  0.26231635708E+03 0.  0.
         25    1    4    4    0    0 -0.25329636558E+02  0.35727506437E+02  0.62390681417E+02  0.14648600763E+03  0.12509000000E+03 0.  0.
         25    1    3    3    0    0  0.91674604392E+02 -0.45064450629E+02 -0.56352420701E+02  0.17105011318E+03  0.12509000000E+03 0.  0.
         25    1    4    4    0    0 -0.66344967834E+02  0.93369441923E+01  0.24467978840E+00  0.14190278803E+03  0.12509000000E+03 0.  0.
<mgrwt>
<rscale>  2 0.45939595E+03</rscale>
<asrwt>0</asrwt>
<pdfrwt beam="1">  1       21 0.34244254E-01 0.45939595E+03</pdfrwt>
<pdfrwt beam="2">  1       21 0.33320292E-01 0.45939595E+03</pdfrwt>
<totfact> 0.65880553E+04</totfact>
</mgrwt>
</event>
<event>
 7    0  0.4759581E-002  0.4480720E+03  0.7546771E-02  0.1028299E+00
         21   -1    0    0  502  501  0.00000000000E+00  0.00000000000E+00  0.58369986575E+03  0.58369986575E+03  0.00000000000E+00 0.  1.
         21   -1    0    0  501  502 -0.00000000000E+00 -0.00000000000E+00 -0.85989601723E+02  0.85989601723E+02  0.00000000000E+00 0.  1.
      99926    2    1    2    0    0  0.35527136788E-14  0.00000000000E+00  0.49771026403E+03  0.66968946747E+03  0.44807195396E+03 0.  0.
      99925    2    3    3    0    0 -0.17512677301E+02  0.91904043067E+02  0.23893791616E+03  0.36742520707E+03  0.26297701042E+03 0.  0.
         25    1    4    4    0    0 -0.49360901288E+02  0.46893130928E+02  0.12259627293E+03  0.18791705229E+03  0.12509000000E+03 0.  0.
         25    1    3    3    0    0  0.17512677301E+02 -0.91904043067E+02  0.25877234787E+03  0.30226426041E+03  0.12509000000E+03 0.  0.
         25    1    4    4    0    0  0.31848223987E+02  0.45010912139E+02  0.11634164323E+03  0.17950815478E+03  0.12509000000E+03 0.  0.
<mgrwt>
<rscale>  2 0.44807195E+03</rscale>
<asrwt>0</asrwt>
<pdfrwt beam="1">  1       21 0.85838214E-01 0.44807195E+03</pdfrwt>
<pdfrwt beam="2">  1       21 0.12645530E-01 0.44807195E+03</pdfrwt>
<totfact> 0.57663515E+04</totfact>
</mgrwt>
</event>
<event>
 7    0  0.4759581E-002  0.4496535E+03  0.7546771E-02  0.1027825E+00
         21   -1    0    0  502  501  0.00000000000E+00  0.00000000000E+00  0.72079210066E+03  0.72079210066E+03  0.00000000000E+00 0. -1.
         21   -1    0    0  501  502 -0.00000000000E+00 -0.00000000000E+00 -0.70127097468E+02  0.70127097468E+02  0.00000000000E+00 0. -1.
      99926    2    1    2    0    0  0.00000000000E+00  0.00000000000E+00  0.65066500319E+03  0.79091919813E+03  0.44965345722E+03 0.  0.
      99925    2    3    3    0    0  0.39879809765E+02 -0.36153120294E+02  0.57731773472E+03  0.63624283528E+03  0.26193841123E+03 0.  0.
         25    1    4    4    0    0  0.24847568350E+02  0.16622736083E+02  0.32083567033E+03  0.34565409366E+03  0.12509000000E+03 0.  0.
         25    1    3    3    0    0 -0.39879809765E+02  0.36153120294E+02  0.73347268470E+02  0.15467636285E+03  0.12509000000E+03 0.  0.
         25    1    4    4    0    0  0.15032241415E+02 -0.52775856377E+02  0.25648206440E+03  0.29058874162E+03  0.12509000000E+03 0.  0.
<mgrwt>
<rscale>  2 0.44965346E+03</rscale>
<asrwt>0</asrwt>
<pdfrwt beam="1">  1       21 0.10599883E+00 0.44965346E+03</pdfrwt>
<pdfrwt beam="2">  1       21 0.10312809E-01 0.44965346E+03</pdfrwt>
<totfact> 0.50284248E+04</totfact>
</mgrwt>
</event>
<event>
 7    0  0.4759581E-002  0.4244802E+03  0.7546771E-02  0.1035618E+00
         21   -1    0    0  502  501  0.00000000000E+00  0.00000000000E+00  0.25459510133E+02  0.25459510133E+02  0.00000000000E+00 0.  1.
         21   -1    0    0  501  502 -0.00000000000E+00 -0.00000000000E+00 -0.17693136468E+04  0.17693136468E+04  0.00000000000E+00 0.  1.
      99926    2    1    2    0    0  0.00000000000E+00  0.00000000000E+00 -0.17438541367E+04  0.17947731569E+04  0.42448019374E+03 0.  0.
      99925    2    3    3    0    0  0.45243873514E+02  0.66475828105E+02 -0.10814751209E+04  0.11159068133E+04  0.26304664065E+03 0.  0.
         25    1    3    3    0    0 -0.45243873514E+02 -0.66475828105E+02 -0.66237901581E+03  0.67886634362E+03  0.12509000000E+03 0.  0.
         25    1    4    4    0    0  0.40097471108E+02  0.20477829132E+02 -0.67943385895E+03  0.69231858668E+03  0.12509000000E+03 0.  0.
         25    1    4    4    0    0  0.51464024061E+01  0.45997998972E+02 -0.40204126192E+03  0.42358822665E+03  0.12509000000E+03 0.  0.
<mgrwt>
<rscale>  2 0.42448019E+03</rscale>
<asrwt>0</asrwt>
<pdfrwt beam="1">  1       21 0.37440457E-02 0.42448019E+03</pdfrwt>
<pdfrwt beam="2">  1       21 0.26019318E+00 0.42448019E+03</pdfrwt>
<totfact> 0.22163344E+04</totfact>
</mgrwt>
</event>
<event>
 7    0  0.4759581E-002  0.4766561E+03  0.7546771E-02  0.1020058E+00
         21   -1    0    0  502  501  0.00000000000E+00  0.00000000000E+00  0.27909595990E+03  0.27909595990E+03  0.00000000000E+00 0. -1.
         21   -1    0    0  501  502 -0.00000000000E+00 -0.00000000000E+00 -0.20351519681E+03  0.20351519681E+03  0.00000000000E+00 0. -1.
      99926    2    1    2    0    0  0.00000000000E+00  0.00000000000E+00  0.75580763090E+02  0.48261115672E+03  0.47665614109E+03 0.  0.
      99925    2    3    3    0    0 -0.81304374287E+02 -0.79977389365E+02  0.11494691136E+03  0.30881821722E+03  0.26296219266E+03 0.  0.
         25    1    4    4    0    0 -0.44251466426E+02 -0.48521420116E+02  0.16207111757E+02  0.14220653664E+03  0.12509000000E+03 0.  0.
         25    1    3    3    0    0  0.81304374287E+02  0.79977389365E+02 -0.39366148272E+02  0.17379293949E+03  0.12509000000E+03 0.  0.
         25    1    4    4    0    0 -0.37052907861E+02 -0.31455969249E+02  0.98739799604E+02  0.16661168059E+03  0.12509000000E+03 0.  0.
<mgrwt>
<rscale>  2 0.47665614E+03</rscale>
<asrwt>0</asrwt>
<pdfrwt beam="1">  1       21 0.41043523E-01 0.47665614E+03</pdfrwt>
<pdfrwt beam="2">  1       21 0.29928705E-01 0.47665614E+03</pdfrwt>
<totfact> 0.56205301E+04</totfact>
</mgrwt>
</event>
<event>
 7    0  0.4759581E-002  0.4581238E+03  0.7546771E-02  0.1025327E+00
         21   -1    0    0  502  501  0.00000000000E+00  0.00000000000E+00  0.57882823793E+03  0.57882823793E+03  0.00000000000E+00 0. -1.
         21   -1    0    0  501  502 -0.00000000000E+00 -0.00000000000E+00 -0.90647540129E+02  0.90647540129E+02  0.00000000000E+00 0. -1.
      99926    2    1    2    0    0  0.14210854715E-13  0.00000000000E+00  0.48818069780E+03  0.66947577806E+03  0.45812380827E+03 0.  0.
      99925    2    3    3    0    0  0.79916087332E+02  0.78777458346E+02  0.26282351245E+03  0.38836043154E+03  0.26297368145E+03 0.  0.
         25    1    4    4    0    0  0.63295413318E+01  0.43079883940E+02  0.91361329225E+02  0.16090475466E+03  0.12509000000E+03 0.  0.
         25    1    4    4    0    0  0.73586546000E+02  0.35697574405E+02  0.17146218323E+03  0.22745567689E+03  0.12509000000E+03 0.  0.
         25    1    3    3    0    0 -0.79916087332E+02 -0.78777458346E+02  0.22535718535E+03  0.28111534651E+03  0.12509000000E+03 0.  0.
<mgrwt>
<rscale>  2 0.45812381E+03</rscale>
<asrwt>0</asrwt>
<pdfrwt beam="1">  1       21 0.85121799E-01 0.45812381E+03</pdfrwt>
<pdfrwt beam="2">  1       21 0.13330521E-01 0.45812381E+03</pdfrwt>
<totfact> 0.53267856E+04</totfact>
</mgrwt>
</event>
<event>
 7    0  0.4759581E-002  0.4583459E+03  0.7546771E-02  0.1025262E+00
         21   -1    0    0  502  501  0.00000000000E+00  0.00000000000E+00  0.50721138168E+03  0.50721138168E+03  0.00000000000E+00 0.  1.
         21   -1    0    0  501  502 -0.00000000000E+00 -0.00000000000E+00 -0.10354704130E+03  0.10354704130E+03  0.00000000000E+00 0.  1.
      99926    2    1    2    0    0  0.14210854715E-13 -0.71054273576E-14  0.40366434038E+03  0.61075842298E+03  0.45834588637E+03 0.  0.
      99925    2    3    3    0    0 -0.82468863467E+02  0.61916956606E+02  0.18131795964E+03  0.33558530641E+03  0.26288109942E+03 0.  0.
         25    1    4    4    0    0 -0.46400147436E+02  0.68131799862E+02  0.11791542604E+03  0.19064750623E+03  0.12509000000E+03 0.  0.
         25    1    4    4    0    0 -0.36068716031E+02 -0.62148432564E+01  0.63402533601E+02  0.14493780018E+03  0.12509000000E+03 0.  0.
         25    1    3    3    0    0  0.82468863467E+02 -0.61916956606E+02  0.22234638074E+03  0.27517311657E+03  0.12509000000E+03 0.  0.
<mgrwt>
<rscale>  2 0.45834589E+03</rscale>
<asrwt>0</asrwt>
<pdfrwt beam="1">  1       21 0.74589908E-01 0.45834589E+03</pdfrwt>
<pdfrwt beam="2">  1       21 0.15227506E-01 0.45834589E+03</pdfrwt>
<totfact> 0.56512468E+04</totfact>
</mgrwt>
</event>
<event>
 7    0  0.4759581E-002  0.4631177E+03  0.7546771E-02  0.1023881E+00
         21   -1    0    0  502  501  0.00000000000E+00  0.00000000000E+00  0.46353437231E+03  0.46353437231E+03  0.00000000000E+00 0.  1.
         21   -1    0    0  501  502 -0.00000000000E+00 -0.00000000000E+00 -0.11567535158E+03  0.11567535158E+03  0.00000000000E+00 0.  1.
      99926    2    1    2    0    0  0.00000000000E+00  0.14210854715E-13  0.34785902072E+03  0.57920972389E+03  0.46311770204E+03 0.  0.
      99925    2    3    3    0    0 -0.85902509393E+02  0.72683482017E+02  0.16283932431E+03  0.32912588627E+03  0.26295450898E+03 0.  0.
         25    1    4    4    0    0 -0.53417776070E+02  0.73300189588E+02  0.10915452910E+03  0.18917874066E+03  0.12509000000E+03 0.  0.
         25    1    3    3    0    0  0.85902509393E+02 -0.72683482017E+02  0.18501969641E+03  0.25008383762E+03  0.12509000000E+03 0.  0.
         25    1    4    4    0    0 -0.32484733323E+02 -0.61670757146E+00  0.53684795212E+02  0.13994714561E+03  0.12509000000E+03 0.  0.
<mgrwt>
<rscale>  2 0.46311770E+03</rscale>
<asrwt>0</asrwt>
<pdfrwt beam="1">  1       21 0.68166819E-01 0.46311770E+03</pdfrwt>
<pdfrwt beam="2">  1       21 0.17011081E-01 0.46311770E+03</pdfrwt>
<totfact> 0.56276847E+04</totfact>
</mgrwt>
</event>
<event>
 7    0  0.4759581E-002  0.4434189E+03  0.7546771E-02  0.1029703E+00
         21   -1    0    0  502  501  0.00000000000E+00  0.00000000000E+00  0.20689126640E+02  0.20689126640E+02  0.00000000000E+00 0. -1.
         21   -1    0    0  501  502 -0.00000000000E+00 -0.00000000000E+00 -0.23758898263E+04  0.23758898263E+04  0.00000000000E+00 0. -1.
      99926    2    1    2    0    0  0.17763568394E-14  0.00000000000E+00 -0.23552006997E+04  0.23965789529E+04  0.44341892381E+03 0.  0.
      99925    2    3    3    0    0 -0.56538229766E+01 -0.56128248902E+02 -0.19555416500E+04  0.19740186494E+04  0.26348460546E+03 0.  0.
         25    1    3    3    0    0  0.56538229766E+01  0.56128248902E+02 -0.39965904964E+03  0.42256030351E+03  0.12509000000E+03 0.  0.
         25    1    4    4    0    0 -0.21905635209E+02 -0.19356967285E+02 -0.12286614463E+04  0.12353586551E+04  0.12509000000E+03 0.  0.
         25    1    4    4    0    0  0.16251812232E+02 -0.36771281617E+02 -0.72688020371E+03  0.73865999432E+03  0.12509000000E+03 0.  0.
<mgrwt>
<rscale>  2 0.44341892E+03</rscale>
<asrwt>0</asrwt>
<pdfrwt beam="1">  1       21 0.30425193E-02 0.44341892E+03</pdfrwt>
<pdfrwt beam="2">  1       21 0.34939548E+00 0.44341892E+03</pdfrwt>
<totfact> 0.90348636E+03</totfact>
</mgrwt>
</event>
<event>
 7    0  0.4759581E-002  0.4289245E+03  0.7546771E-02  0.1034200E+00
         21   -1    0    0  502  501  0.00000000000E+00  0.00000000000E+00  0.20938502157E+03  0.20938502157E+03  0.00000000000E+00 0.  1.
         21   -1    0    0  501  502 -0.00000000000E+00 -0.00000000000E+00 -0.21966264099E+03  0.21966264099E+03  0.00000000000E+00 0.  1.
      99926    2    1    2    0    0 -0.35527136788E-14  0.00000000000E+00 -0.10277619427E+02  0.42904766256E+03  0.42892454731E+03 0.  0.
      99925    2    3    3    0    0  0.26611603398E+02  0.53578220911E+02  0.55725131945E+02  0.27548114772E+03  0.26306989419E+03 0.  0.
         25    1    4    4    0    0  0.39216506608E+02  0.28884832693E+02 -0.36034602251E+01  0.13428611609E+03  0.12509000000E+03 0.  0.
         25    1    3    3    0    0 -0.26611603398E+02 -0.53578220911E+02 -0.66002751372E+02  0.15356651484E+03  0.12509000000E+03 0.  0.
         25    1    4    4    0    0 -0.12604903210E+02  0.24693388218E+02  0.59328592170E+02  0.14119503162E+03  0.12509000000E+03 0.  0.
<mgrwt>
<rscale>  2 0.42892455E+03</rscale>
<asrwt>0</asrwt>
<pdfrwt beam="1">  1       21 0.30791915E-01 0.42892455E+03</pdfrwt>
<pdfrwt beam="2">  1       21 0.32303330E-01 0.42892455E+03</pdfrwt>
<totfact> 0.87285419E+04</totfact>
</mgrwt>
</event>
<event>
 7    0  0.4759581E-002  0.4539404E+03  0.7546771E-02  0.1026553E+00
         21   -1    0    0  502  501  0.00000000000E+00  0.00000000000E+00  0.12535849753E+03  0.12535849753E+03  0.00000000000E+00 0.  1.
         21   -1    0    0  501  502 -0.00000000000E+00 -0.00000000000E+00 -0.41094515248E+03  0.41094515248E+03  0.00000000000E+00 0.  1.
      99926    2    1    2    0    0  0.53290705182E-14  0.00000000000E+00 -0.28558665495E+03  0.53630365001E+03  0.45394037883E+03 0.  0.
      99925    2    3    3    0    0  0.14575558640E+02  0.23990451895E+01 -0.48572992550E+02  0.26789875700E+03  0.26304411431E+03 0.  0.
         25    1    4    4    0    0  0.47797327575E+02  0.49221685525E+01 -0.25636599065E+02  0.13643150508E+03  0.12509000000E+03 0.  0.
         25    1    3    3    0    0 -0.14575558640E+02 -0.23990451895E+01 -0.23701366240E+03  0.26840489301E+03  0.12509000000E+03 0.  0.
         25    1    4    4    0    0 -0.33221768936E+02 -0.25231233630E+01 -0.22936393485E+02  0.13146725193E+03  0.12509000000E+03 0.  0.
<mgrwt>
<rscale>  2 0.45394038E+03</rscale>
<asrwt>0</asrwt>
<pdfrwt beam="1">  1       21 0.18435073E-01 0.45394038E+03</pdfrwt>
<pdfrwt beam="2">  1       21 0.60433110E-01 0.45394038E+03</pdfrwt>
<totfact> 0.63310036E+04</totfact>
</mgrwt>
</event>
<event>
 7    0  0.4759581E-002  0.4556740E+03  0.7546771E-02  0.1026043E+00
         21   -1    0    0  502  501  0.00000000000E+00  0.00000000000E+00  0.70716708163E+02  0.70716708163E+02  0.00000000000E+00 0. -1.
         21   -1    0    0  501  502 -0.00000000000E+00 -0.00000000000E+00 -0.73405142813E+03  0.73405142813E+03  0.00000000000E+00 0. -1.
      99926    2    1    2    0    0  0.00000000000E+00  0.00000000000E+00 -0.66333471997E+03  0.80476813630E+03  0.45567400900E+03 0.  0.
      99925    2    3    3    0    0  0.85594157628E+02  0.74049194969E+02 -0.39376632434E+03  0.48676771001E+03  0.26283310718E+03 0.  0.
         25    1    4    4    0    0  0.34738502449E+02  0.55399205026E+02 -0.14055621023E+03  0.19919686696E+03  0.12509000000E+03 0.  0.
         25    1    4    4    0    0  0.50855655179E+02  0.18649989943E+02 -0.25321011411E+03  0.28757084305E+03  0.12509000000E+03 0.  0.
         25    1    3    3    0    0 -0.85594157628E+02 -0.74049194969E+02 -0.26956839563E+03  0.31800042629E+03  0.12509000000E+03 0.  0.
<mgrwt>
<rscale>  2 0.45567401E+03</rscale>
<asrwt>0</asrwt>
<pdfrwt beam="1">  1       21 0.10399516E-01 0.45567401E+03</pdfrwt>
<pdfrwt beam="2">  1       21 0.10794873E+00 0.45567401E+03</pdfrwt>
<totfact> 0.47284445E+04</totfact>
</mgrwt>
</event>
<event>
 7    0  0.4759581E-002  0.4488064E+03  0.7546771E-02  0.1028079E+00
         21   -1    0    0  502  501  0.00000000000E+00  0.00000000000E+00  0.57101625488E+02  0.57101625488E+02  0.00000000000E+00 0. -1.
         21   -1    0    0  501  502 -0.00000000000E+00 -0.00000000000E+00 -0.88188015541E+03  0.88188015541E+03  0.00000000000E+00 0. -1.
      99926    2    1    2    0    0  0.71054273576E-14  0.00000000000E+00 -0.82477852992E+03  0.93898178089E+03  0.44880637411E+03 0.  0.
      99925    2    3    3    0    0  0.51463808718E+02 -0.92328089885E+02 -0.56130293284E+03  0.62875622079E+03  0.26286955505E+03 0.  0.
         25    1    3    3    0    0 -0.51463808718E+02  0.92328089885E+02 -0.26347559708E+03  0.31022556011E+03  0.12509000000E+03 0.  0.
         25    1    4    4    0    0  0.55769567990E+02 -0.77279042629E+02 -0.31297266646E+03  0.35025946553E+03  0.12509000000E+03 0.  0.
         25    1    4    4    0    0 -0.43057592719E+01 -0.15049047255E+02 -0.24833026638E+03  0.27849675525E+03  0.12509000000E+03 0.  0.
<mgrwt>
<rscale>  2 0.44880637E+03</rscale>
<asrwt>0</asrwt>
<pdfrwt beam="1">  1       21 0.83972983E-02 0.44880637E+03</pdfrwt>
<pdfrwt beam="2">  1       21 0.12968825E+00 0.44880637E+03</pdfrwt>
<totfact> 0.43667317E+04</totfact>
</mgrwt>
</event>
<event>
 7    0  0.4759581E-002  0.4655397E+03  0.7546771E-02  0.1023187E+00
         21   -1    0    0  502  501  0.00000000000E+00  0.00000000000E+00  0.66073732861E+02  0.66073732861E+02  0.00000000000E+00 0. -1.
         21   -1    0    0  501  502 -0.00000000000E+00 -0.00000000000E+00 -0.82002041690E+03  0.82002041690E+03  0.00000000000E+00 0. -1.
      99926    2    1    2    0    0  0.00000000000E+00  0.00000000000E+00 -0.75394668404E+03  0.88609414976E+03  0.46553972963E+03 0.  0.
      99925    2    3    3    0    0  0.14463598718E+02  0.94035837727E+02 -0.32235417132E+03  0.42677776686E+03  0.26301162722E+03 0.  0.
         25    1    3    3    0    0 -0.14463598718E+02 -0.94035837727E+02 -0.43159251272E+03  0.45931638290E+03  0.12509000000E+03 0.  0.
         25    1    4    4    0    0 -0.19900083603E+01  0.37893270156E+02 -0.21600240072E+03  0.25247654400E+03  0.12509000000E+03 0.  0.
         25    1    4    4    0    0  0.16453607078E+02  0.56142567571E+02 -0.10635177060E+03  0.17430122286E+03  0.12509000000E+03 0.  0.
<mgrwt>
<rscale>  2 0.46553973E+03</rscale>
<asrwt>0</asrwt>
<pdfrwt beam="1">  1       21 0.97167257E-02 0.46553973E+03</pdfrwt>
<pdfrwt beam="2">  1       21 0.12059123E+00 0.46553973E+03</pdfrwt>
<totfact> 0.40401082E+04</totfact>
</mgrwt>
</event>
<event>
 7    0  0.4759581E-002  0.4557039E+03  0.7546771E-02  0.1026035E+00
         21   -1    0    0  502  501  0.00000000000E+00  0.00000000000E+00  0.44039064859E+02  0.44039064859E+02  0.00000000000E+00 0.  1.
         21   -1    0    0  501  502 -0.00000000000E+00 -0.00000000000E+00 -0.11788740689E+04  0.11788740689E+04  0.00000000000E+00 0.  1.
      99926    2    1    2    0    0 -0.71054273576E-14  0.00000000000E+00 -0.11348350041E+04  0.12229131338E+04  0.45570390204E+03 0.  0.
      99925    2    3    3    0    0 -0.58261945930E+02  0.67923391997E+02 -0.90260380978E+03  0.94436892325E+03  0.26292771678E+03 0.  0.
         25    1    4    4    0    0 -0.14187389799E+02 -0.45789778227E+01 -0.37926414609E+03  0.39963864887E+03  0.12509000000E+03 0.  0.
         25    1    3    3    0    0  0.58261945930E+02 -0.67923391997E+02 -0.23223119430E+03  0.27854421055E+03  0.12509000000E+03 0.  0.
         25    1    4    4    0    0 -0.44074556132E+02  0.72502369820E+02 -0.52333966369E+03  0.54473027438E+03  0.12509000000E+03 0.  0.
<mgrwt>
<rscale>  2 0.45570390E+03</rscale>
<asrwt>0</asrwt>
<pdfrwt beam="1">  1       21 0.64763333E-02 0.45570390E+03</pdfrwt>
<pdfrwt beam="2">  1       21 0.17336383E+00 0.45570390E+03</pdfrwt>
<totfact> 0.31266255E+04</totfact>
</mgrwt>
</event>
<event>
 7    0  0.4759581E-002  0.4563246E+03  0.7546771E-02  0.1025853E+00
         21   -1    0    0  502  501  0.00000000000E+00  0.00000000000E+00  0.19274624941E+03  0.19274624941E+03  0.00000000000E+00 0.  1.
         21   -1    0    0  501  502 -0.00000000000E+00 -0.00000000000E+00 -0.27008580730E+03  0.27008580730E+03  0.00000000000E+00 0.  1.
      99926    2    1    2    0    0  0.00000000000E+00  0.00000000000E+00 -0.77339557881E+02  0.46283205671E+03  0.45632456159E+03 0.  0.
      99925    2    3    3    0    0 -0.31205588066E+02 -0.10932659567E+03 -0.35484682941E+02  0.28869006895E+03  0.26297661481E+03 0.  0.
         25    1    3    3    0    0  0.31205588066E+02  0.10932659567E+03 -0.41854874940E+02  0.17414198777E+03  0.12509000000E+03 0.  0.
         25    1    4    4    0    0  0.18621733125E+02 -0.75538954388E+02 -0.10964935064E+02  0.14771811154E+03  0.12509000000E+03 0.  0.
         25    1    4    4    0    0 -0.49827321191E+02 -0.33787641278E+02 -0.24519747877E+02  0.14097195741E+03  0.12509000000E+03 0.  0.
<mgrwt>
<rscale>  2 0.45632456E+03</rscale>
<asrwt>0</asrwt>
<pdfrwt beam="1">  1       21 0.28345037E-01 0.45632456E+03</pdfrwt>
<pdfrwt beam="2">  1       21 0.39718501E-01 0.45632456E+03</pdfrwt>
<totfact> 0.67260314E+04</totfact>
</mgrwt>
</event>
<event>
 7    0  0.4759581E-002  0.4572023E+03  0.7546771E-02  0.1025596E+00
         21   -1    0    0  502  501  0.00000000000E+00  0.00000000000E+00  0.12847630566E+03  0.12847630566E+03  0.00000000000E+00 0.  1.
         21   -1    0    0  501  502 -0.00000000000E+00 -0.00000000000E+00 -0.40675581883E+03  0.40675581883E+03  0.00000000000E+00 0.  1.
      99926    2    1    2    0    0  0.00000000000E+00  0.00000000000E+00 -0.27827951317E+03  0.53523212450E+03  0.45720229619E+03 0.  0.
      99925    2    3    3    0    0 -0.77057913356E+02 -0.52976194909E+02 -0.25449870281E+03  0.37725290346E+03  0.26230852864E+03 0.  0.
         25    1    4    4    0    0 -0.71411416809E+02 -0.32779034145E+02 -0.16811253449E+03  0.22379318105E+03  0.12509000000E+03 0.  0.
         25    1    4    4    0    0 -0.56464965472E+01 -0.20197160764E+02 -0.86386168316E+02  0.15345972241E+03  0.12509000000E+03 0.  0.
         25    1    3    3    0    0  0.77057913356E+02  0.52976194909E+02 -0.23780810359E+02  0.15797922104E+03  0.12509000000E+03 0.  0.
<mgrwt>
<rscale>  2 0.45720230E+03</rscale>
<asrwt>0</asrwt>
<pdfrwt beam="1">  1       21 0.18893574E-01 0.45720230E+03</pdfrwt>
<pdfrwt beam="2">  1       21 0.59817032E-01 0.45720230E+03</pdfrwt>
<totfact> 0.61768523E+04</totfact>
</mgrwt>
</event>
<event>
 7    0  0.4759581E-002  0.4524107E+03  0.7546771E-02  0.1027006E+00
         21   -1    0    0  502  501  0.00000000000E+00  0.00000000000E+00  0.60046036172E+03  0.60046036172E+03  0.00000000000E+00 0. -1.
         21   -1    0    0  501  502 -0.00000000000E+00 -0.00000000000E+00 -0.85216050632E+02  0.85216050632E+02  0.00000000000E+00 0. -1.
      99926    2    1    2    0    0  0.00000000000E+00  0.00000000000E+00  0.51524431109E+03  0.68567641235E+03  0.45241070096E+03 0.  0.
      99925    2    3    3    0    0  0.68044289668E+02  0.77398035203E+02  0.26228931976E+03  0.38525301622E+03  0.26268558779E+03 0.  0.
         25    1    4    4    0    0  0.68285075055E+02  0.23524983375E+02  0.11488874970E+03  0.18456220964E+03  0.12509000000E+03 0.  0.
         25    1    4    4    0    0 -0.24078538710E+00  0.53873051828E+02  0.14740057006E+03  0.20069080658E+03  0.12509000000E+03 0.  0.
         25    1    3    3    0    0 -0.68044289668E+02 -0.77398035203E+02  0.25295499132E+03  0.30042339613E+03  0.12509000000E+03 0.  0.
<mgrwt>
<rscale>  2 0.45241070E+03</rscale>
<asrwt>0</asrwt>
<pdfrwt beam="1">  1       21 0.88302992E-01 0.45241070E+03</pdfrwt>
<pdfrwt beam="2">  1       21 0.12531772E-01 0.45241070E+03</pdfrwt>
<totfact> 0.54796284E+04</totfact>
</mgrwt>
</event>
<event>
 7    0  0.4759581E-002  0.4339840E+03  0.7546771E-02  0.1032609E+00
         21   -1    0    0  502  501  0.00000000000E+00  0.00000000000E+00  0.10379010263E+03  0.10379010263E+03  0.00000000000E+00 0. -1.
         21   -1    0    0  501  502 -0.00000000000E+00 -0.00000000000E+00 -0.45366109583E+03  0.45366109583E+03  0.00000000000E+00 0. -1.
      99926    2    1    2    0    0  0.00000000000E+00  0.00000000000E+00 -0.34987099320E+03  0.55745119846E+03  0.43398401673E+03 0.  0.
      99925    2    3    3    0    0 -0.83250908636E+01  0.52624315749E+02 -0.12788113296E+03  0.29713287045E+03  0.26286067182E+03 0.  0.
         25    1    4    4    0    0 -0.47824272410E+01 -0.13231354636E+02 -0.72499611806E+02  0.14526404293E+03  0.12509000000E+03 0.  0.
         25    1    4    4    0    0 -0.35426636227E+01  0.65855670385E+02 -0.55381521149E+02  0.15186882752E+03  0.12509000000E+03 0.  0.
         25    1    3    3    0    0  0.83250908636E+01 -0.52624315749E+02 -0.22198986024E+03  0.26031832801E+03  0.12509000000E+03 0.  0.
<mgrwt>
<rscale>  2 0.43398402E+03</rscale>
<asrwt>0</asrwt>
<pdfrwt beam="1">  1       21 0.15263250E-01 0.43398402E+03</pdfrwt>
<pdfrwt beam="2">  1       21 0.66714867E-01 0.43398402E+03</pdfrwt>
<totfact> 0.72734907E+04</totfact>
</mgrwt>
</event>
<event>
 7    0  0.4759581E-002  0.4574472E+03  0.7546771E-02  0.1025524E+00
         21   -1    0    0  502  501  0.00000000000E+00  0.00000000000E+00  0.42117499085E+02  0.42117499085E+02  0.00000000000E+00 0.  1.
         21   -1    0    0  501  502 -0.00000000000E+00 -0.00000000000E+00 -0.12421077978E+04  0.12421077978E+04  0.00000000000E+00 0.  1.
      99926    2    1    2    0    0  0.00000000000E+00  0.00000000000E+00 -0.11999902988E+04  0.12842252969E+04  0.45744715122E+03 0.  0.
      99925    2    3    3    0    0 -0.43456796054E+02 -0.10588268814E+03 -0.79531753407E+03  0.84546888233E+03  0.26303614623E+03 0.  0.
         25    1    4    4    0    0  0.17832869220E+02 -0.56568888268E+02 -0.41316333322E+03  0.43574017299E+03  0.12509000000E+03 0.  0.
         25    1    3    3    0    0  0.43456796054E+02  0.10588268814E+03 -0.40467276469E+03  0.43875641460E+03  0.12509000000E+03 0.  0.
         25    1    4    4    0    0 -0.61289665275E+02 -0.49313799869E+02 -0.38215420085E+03  0.40972870934E+03  0.12509000000E+03 0.  0.
<mgrwt>
<rscale>  2 0.45744715E+03</rscale>
<asrwt>0</asrwt>
<pdfrwt beam="1">  1       21 0.61937494E-02 0.45744715E+03</pdfrwt>
<pdfrwt beam="2">  1       21 0.18266293E+00 0.45744715E+03</pdfrwt>
<totfact> 0.29019820E+04</totfact>
</mgrwt>
</event>
<event>
 7    0  0.4759581E-002  0.4639418E+03  0.7546771E-02  0.1023644E+00
         21   -1    0    0  502  501  0.00000000000E+00  0.00000000000E+00  0.28612413553E+03  0.28612413553E+03  0.00000000000E+00 0.  1.
         21   -1    0    0  501  502 -0.00000000000E+00 -0.00000000000E+00 -0.18806700772E+03  0.18806700772E+03  0.00000000000E+00 0.  1.
      99926    2    1    2    0    0  0.00000000000E+00  0.00000000000E+00  0.98057127814E+02  0.47419114325E+03  0.46394184983E+03 0.  0.
      99925    2    3    3    0    0  0.58205822422E+02  0.10383157930E+03  0.37343110848E+02  0.29115394873E+03  0.26307261223E+03 0.  0.
         25    1    4    4    0    0  0.35627610413E+02  0.82715413462E+02  0.49088674194E+02  0.16176641271E+03  0.12509000000E+03 0.  0.
         25    1    3    3    0    0 -0.58205822422E+02 -0.10383157930E+03  0.60714016967E+02  0.18303719452E+03  0.12509000000E+03 0.  0.
         25    1    4    4    0    0  0.22578212010E+02  0.21116165835E+02 -0.11745563347E+02  0.12938753601E+03  0.12509000000E+03 0.  0.
<mgrwt>
<rscale>  2 0.46394185E+03</rscale>
<asrwt>0</asrwt>
<pdfrwt beam="1">  1       21 0.42077079E-01 0.46394185E+03</pdfrwt>
<pdfrwt beam="2">  1       21 0.27656913E-01 0.46394185E+03</pdfrwt>
<totfact> 0.62566577E+04</totfact>
</mgrwt>
</event>
<event>
 7    0  0.4759581E-002  0.4562278E+03  0.7546771E-02  0.1025881E+00
         21   -1    0    0  502  501  0.00000000000E+00  0.00000000000E+00  0.14311927706E+03  0.14311927706E+03  0.00000000000E+00 0.  1.
         21   -1    0    0  501  502 -0.00000000000E+00 -0.00000000000E+00 -0.36358453632E+03  0.36358453632E+03  0.00000000000E+00 0.  1.
      99926    2    1    2    0    0  0.71054273576E-14  0.00000000000E+00 -0.22046525927E+03  0.50670381338E+03  0.45622782023E+03 0.  0.
      99925    2    3    3    0    0 -0.45278856374E+02 -0.26239007083E+01 -0.21934243728E+02  0.26770772153E+03  0.26292442532E+03 0.  0.
         25    1    3    3    0    0  0.45278856374E+02  0.26239007083E+01 -0.19853101554E+03  0.23899609185E+03  0.12509000000E+03 0.  0.
         25    1    4    4    0    0 -0.17453543436E+02 -0.25286017177E+01  0.29329204846E+02  0.12968704778E+03  0.12509000000E+03 0.  0.
         25    1    4    4    0    0 -0.27825312937E+02 -0.95298990564E-01 -0.51263448574E+02  0.13802067375E+03  0.12509000000E+03 0.  0.
<mgrwt>
<rscale>  2 0.45622782E+03</rscale>
<asrwt>0</asrwt>
<pdfrwt beam="1">  1       21 0.21046953E-01 0.45622782E+03</pdfrwt>
<pdfrwt beam="2">  1       21 0.53468314E-01 0.45622782E+03</pdfrwt>
<totfact> 0.64174532E+04</totfact>
</mgrwt>
</event>
<event>
 7    0  0.4759581E-002  0.4554928E+03  0.7546771E-02  0.1026097E+00
         21   -1    0    0  502  501  0.00000000000E+00  0.00000000000E+00  0.28755829307E+03  0.28755829307E+03  0.00000000000E+00 0.  1.
         21   -1    0    0  501  502 -0.00000000000E+00 -0.00000000000E+00 -0.18037531524E+03  0.18037531524E+03  0.00000000000E+00 0.  1.
      99926    2    1    2    0    0  0.00000000000E+00  0.00000000000E+00  0.10718297784E+03  0.46793360831E+03  0.45549277826E+03 0.  0.
      99925    2    3    3    0    0  0.74196479350E+02 -0.81238229199E+02  0.98623697142E+02  0.30112372606E+03  0.26238158724E+03 0.  0.
         25    1    4    4    0    0 -0.39097144423E+01 -0.34780891497E+02  0.44223081017E+02  0.13721583464E+03  0.12509000000E+03 0.  0.
         25    1    4    4    0    0  0.78106193793E+02 -0.46457337702E+02  0.54400616125E+02  0.16390789142E+03  0.12509000000E+03 0.  0.
         25    1    3    3    0    0 -0.74196479350E+02  0.81238229199E+02  0.85592806961E+01  0.16680988225E+03  0.12509000000E+03 0.  0.
<mgrwt>
<rscale>  2 0.45549278E+03</rscale>
<asrwt>0</asrwt>
<pdfrwt beam="1">  1       21 0.42287984E-01 0.45549278E+03</pdfrwt>
<pdfrwt beam="2">  1       21 0.26525782E-01 0.45549278E+03</pdfrwt>
<totfact> 0.67326337E+04</totfact>
</mgrwt>
</event>
<event>
 7    0  0.4759581E-002  0.4605393E+03  0.7546771E-02  0.1024625E+00
         21   -1    0    0  502  501  0.00000000000E+00  0.00000000000E+00  0.23036563212E+03  0.23036563212E+03  0.00000000000E+00 0. -1.
         21   -1    0    0  501  502 -0.00000000000E+00 -0.00000000000E+00 -0.23017369958E+03  0.23017369958E+03  0.00000000000E+00 0. -1.
      99926    2    1    2    0    0  0.00000000000E+00 -0.14210854715E-13  0.19193254168E+00  0.46053933170E+03  0.46053929170E+03 0.  0.
      99925    2    3    3    0    0 -0.43214614276E+02 -0.89708368666E+02  0.64022045879E+02  0.28838566265E+03  0.26296838930E+03 0.  0.
         25    1    3    3    0    0  0.43214614276E+02  0.89708368666E+02 -0.63830113337E+02  0.17215366904E+03  0.12509000000E+03 0.  0.
         25    1    4    4    0    0 -0.35998391028E+02 -0.16716267410E+02  0.57362107340E+02  0.14322442952E+03  0.12509000000E+03 0.  0.
         25    1    4    4    0    0 -0.72162232476E+01 -0.72992101256E+02  0.66599385394E+01  0.14516123313E+03  0.12509000000E+03 0.  0.
<mgrwt>
<rscale>  2 0.46053929E+03</rscale>
<asrwt>0</asrwt>
<pdfrwt beam="1">  1       21 0.33877299E-01 0.46053929E+03</pdfrwt>
<pdfrwt beam="2">  1       21 0.33849073E-01 0.46053929E+03</pdfrwt>
<totfact> 0.65211651E+04</totfact>
</mgrwt>
</event>
<event>
 7    0  0.4759581E-002  0.4413898E+03  0.7546771E-02  0.1030321E+00
         21   -1    0    0  502  501  0.00000000000E+00  0.00000000000E+00  0.14210996911E+03  0.14210996911E+03  0.00000000000E+00 0. -1.
         21   -1    0    0  501  502 -0.00000000000E+00 -0.00000000000E+00 -0.34273618601E+03  0.34273618601E+03  0.00000000000E+00 0. -1.
      99926    2    1    2    0    0 -0.17763568394E-14  0.00000000000E+00 -0.20062621691E+03  0.48484615512E+03  0.44138975433E+03 0.  0.
      99925    2    3    3    0    0  0.11817710965E+02  0.83433990438E+02 -0.68782849930E+02  0.28451874669E+03  0.26290482635E+03 0.  0.
         25    1    3    3    0    0 -0.11817710965E+02 -0.83433990438E+02 -0.13184336698E+03  0.20032740843E+03  0.12509000000E+03 0.  0.
         25    1    4    4    0    0 -0.19770262757E+02  0.11770091432E+02 -0.18074461785E+02  0.12846630924E+03  0.12509000000E+03 0.  0.
         25    1    4    4    0    0  0.31587973722E+02  0.71663899006E+02 -0.50708388145E+02  0.15605243745E+03  0.12509000000E+03 0.  0.
<mgrwt>
<rscale>  2 0.44138975E+03</rscale>
<asrwt>0</asrwt>
<pdfrwt beam="1">  1       21 0.20898526E-01 0.44138975E+03</pdfrwt>
<pdfrwt beam="2">  1       21 0.50402379E-01 0.44138975E+03</pdfrwt>
<totfact> 0.74030095E+04</totfact>
</mgrwt>
</event>
<event>
 7    0  0.4759581E-002  0.4509895E+03  0.7546771E-02  0.1027427E+00
         21   -1    0    0  502  501  0.00000000000E+00  0.00000000000E+00  0.14072098401E+04  0.14072098401E+04  0.00000000000E+00 0.  1.
         21   -1    0    0  501  502 -0.00000000000E+00 -0.00000000000E+00 -0.36133833712E+02  0.36133833712E+02  0.00000000000E+00 0.  1.
      99926    2    1    2    0    0 -0.35527136788E-14  0.00000000000E+00  0.13710760064E+04  0.14433436738E+04  0.45098951810E+03 0.  0.
      99925    2    3    3    0    0 -0.14383539291E+02  0.90439485835E+02  0.67437323337E+03  0.72960110899E+03  0.26296831284E+03 0.  0.
         25    1    4    4    0    0 -0.39696737864E+02  0.21922298717E+02  0.30010129496E+03  0.32827536233E+03  0.12509000000E+03 0.  0.
         25    1    4    4    0    0  0.25313198574E+02  0.68517187118E+02  0.37427193841E+03  0.40132574666E+03  0.12509000000E+03 0.  0.
         25    1    3    3    0    0  0.14383539291E+02 -0.90439485835E+02  0.69670277299E+03  0.71374256479E+03  0.12509000000E+03 0.  0.
<mgrwt>
<rscale>  2 0.45098952E+03</rscale>
<asrwt>0</asrwt>
<pdfrwt beam="1">  1       21 0.20694259E+00 0.45098952E+03</pdfrwt>
<pdfrwt beam="2">  1       21 0.53138000E-02 0.45098952E+03</pdfrwt>
<totfact> 0.26000326E+04</totfact>
</mgrwt>
</event>
<event>
 7    0  0.4759581E-002  0.4539463E+03  0.7546771E-02  0.1026552E+00
         21   -1    0    0  502  501  0.00000000000E+00  0.00000000000E+00  0.23984758104E+03  0.23984758104E+03  0.00000000000E+00 0.  1.
         21   -1    0    0  501  502 -0.00000000000E+00 -0.00000000000E+00 -0.21478982613E+03  0.21478982613E+03  0.00000000000E+00 0.  1.
      99926    2    1    2    0    0  0.00000000000E+00  0.17763568394E-14  0.25057754910E+02  0.45463740718E+03  0.45394634146E+03 0.  0.
      99925    2    3    3    0    0 -0.19183664768E+02 -0.14963518265E+02  0.12543503300E+03  0.29241833946E+03  0.26302588823E+03 0.  0.
         25    1    3    3    0    0  0.19183664768E+02  0.14963518265E+02 -0.10037727809E+03  0.16221906772E+03  0.12509000000E+03 0.  0.
         25    1    4    4    0    0 -0.25233611683E+02 -0.41334038632E+02  0.46084495063E+02  0.14183274197E+03  0.12509000000E+03 0.  0.
         25    1    4    4    0    0  0.60499469157E+01  0.26370520367E+02  0.79350537941E+02  0.15058559750E+03  0.12509000000E+03 0.  0.
<mgrwt>
<rscale>  2 0.45394634E+03</rscale>
<asrwt>0</asrwt>
<pdfrwt beam="1">  1       21 0.35271703E-01 0.45394634E+03</pdfrwt>
<pdfrwt beam="2">  1       21 0.31586739E-01 0.45394634E+03</pdfrwt>
<totfact> 0.69151927E+04</totfact>
</mgrwt>
</event>
<event>
 7    0  0.4759581E-002  0.4463340E+03  0.7546771E-02  0.1028821E+00
         21   -1    0    0  502  501  0.00000000000E+00  0.00000000000E+00  0.17362879263E+03  0.17362879263E+03  0.00000000000E+00 0. -1.
         21   -1    0    0  501  502 -0.00000000000E+00 -0.00000000000E+00 -0.28683901297E+03  0.28683901297E+03  0.00000000000E+00 0. -1.
      99926    2    1    2    0    0  0.00000000000E+00  0.00000000000E+00 -0.11321022035E+03  0.46046780560E+03  0.44633400722E+03 0.  0.
      99925    2    3    3    0    0  0.28197436358E+02  0.94337388321E+02 -0.10896143680E+03  0.30121894842E+03  0.26299357772E+03 0.  0.
         25    1    4    4    0    0  0.51389334266E+02  0.32487142960E+02 -0.60733093021E+02  0.15176394441E+03  0.12509000000E+03 0.  0.
         25    1    3    3    0    0 -0.28197436358E+02 -0.94337388321E+02 -0.42487835476E+01  0.15924885718E+03  0.12509000000E+03 0.  0.
         25    1    4    4    0    0 -0.23191897908E+02  0.61850245361E+02 -0.48228343777E+02  0.14945500401E+03  0.12509000000E+03 0.  0.
<mgrwt>
<rscale>  2 0.44633401E+03</rscale>
<asrwt>0</asrwt>
<pdfrwt beam="1">  1       21 0.25533646E-01 0.44633401E+03</pdfrwt>
<pdfrwt beam="2">  1       21 0.42182208E-01 0.44633401E+03</pdfrwt>
<totfact> 0.73044903E+04</totfact>
</mgrwt>
</event>
<event>
 7    0  0.4759581E-002  0.4342417E+03  0.7546771E-02  0.1032528E+00
         21   -1    0    0  502  501  0.00000000000E+00  0.00000000000E+00  0.97733180608E+02  0.97733180608E+02  0.00000000000E+00 0. -1.
         21   -1    0    0  501  502 -0.00000000000E+00 -0.00000000000E+00 -0.48234865353E+03  0.48234865353E+03  0.00000000000E+00 0. -1.
      99926    2    1    2    0    0 -0.88817841970E-15  0.71054273576E-14 -0.38461547292E+03  0.58008183414E+03  0.43424172103E+03 0.  0.
      99925    2    3    3    0    0  0.43274437992E+01  0.49770632903E+02 -0.14324435649E+03  0.30367024499E+03  0.26306050512E+03 0.  0.
         25    1    4    4    0    0  0.17314224783E+02  0.63212701489E+02 -0.72262726995E+02  0.15863491993E+03  0.12509000000E+03 0.  0.
         25    1    4    4    0    0 -0.12986780983E+02 -0.13442068586E+02 -0.70981629500E+02  0.14503532506E+03  0.12509000000E+03 0.  0.
         25    1    3    3    0    0 -0.43274437992E+01 -0.49770632903E+02 -0.24137111643E+03  0.27641158915E+03  0.12509000000E+03 0.  0.
<mgrwt>
<rscale>  2 0.43424172E+03</rscale>
<asrwt>0</asrwt>
<pdfrwt beam="1">  1       21 0.14372527E-01 0.43424172E+03</pdfrwt>
<pdfrwt beam="2">  1       21 0.70933624E-01 0.43424172E+03</pdfrwt>
<totfact> 0.70851620E+04</totfact>
</mgrwt>
</event>
<event>
 7    0  0.4759581E-002  0.4550018E+03  0.7546771E-02  0.1026241E+00
         21   -1    0    0  502  501  0.00000000000E+00  0.00000000000E+00  0.16934008543E+03  0.16934008543E+03  0.00000000000E+00 0.  1.
         21   -1    0    0  501  502 -0.00000000000E+00 -0.00000000000E+00 -0.30563736264E+03  0.30563736264E+03  0.00000000000E+00 0.  1.
      99926    2    1    2    0    0  0.00000000000E+00  0.00000000000E+00 -0.13629727721E+03  0.47497744807E+03  0.45500178945E+03 0.  0.
      99925    2    3    3    0    0 -0.70741588404E+02  0.88049221332E+02 -0.82691913666E+02  0.29812134609E+03  0.26321350022E+03 0.  0.
         25    1    4    4    0    0 -0.49001093042E+02  0.30527504108E+02 -0.35128472294E+01  0.13781467201E+03  0.12509000000E+03 0.  0.
         25    1    4    4    0    0 -0.21740495362E+02  0.57521717225E+02 -0.79179066437E+02  0.16030667407E+03  0.12509000000E+03 0.  0.
         25    1    3    3    0    0  0.70741588404E+02 -0.88049221332E+02 -0.53605363547E+02  0.17685610198E+03  0.12509000000E+03 0.  0.
<mgrwt>
<rscale>  2 0.45500179E+03</rscale>
<asrwt>0</asrwt>
<pdfrwt beam="1">  1       21 0.24902954E-01 0.45500179E+03</pdfrwt>
<pdfrwt beam="2">  1       21 0.44946670E-01 0.45500179E+03</pdfrwt>
<totfact> 0.67066616E+04</totfact>
</mgrwt>
</event>
<event>
 7    0  0.4759581E-002  0.4560146E+03  0.7546771E-02  0.1025943E+00
         21   -1    0    0  502  501  0.00000000000E+00  0.00000000000E+00  0.40374781958E+03  0.40374781958E+03  0.00000000000E+00 0.  1.
         21   -1    0    0  501  502 -0.00000000000E+00 -0.00000000000E+00 -0.12876185674E+03  0.12876185674E+03  0.00000000000E+00 0.  1.
      99926    2    1    2    0    0  0.00000000000E+00  0.00000000000E+00  0.27498596284E+03  0.53250967632E+03  0.45601455637E+03 0.  0.
      99925    2    3    3    0    0 -0.12102963815E+02  0.75915256538E+02  0.27137213343E+03  0.38564179089E+03  0.26299647939E+03 0.  0.
         25    1    3    3    0    0  0.12102963815E+02 -0.75915256538E+02  0.36138294114E+01  0.14686788543E+03  0.12509000000E+03 0.  0.
         25    1    4    4    0    0 -0.24733511667E+01  0.78634125648E+02  0.16079185624E+03  0.21838262824E+03  0.12509000000E+03 0.  0.
         25    1    4    4    0    0 -0.96296126487E+01 -0.27188691100E+01  0.11058027719E+03  0.16725916265E+03  0.12509000000E+03 0.  0.
<mgrwt>
<rscale>  2 0.45601456E+03</rscale>
<asrwt>0</asrwt>
<pdfrwt beam="1">  1       21 0.59374679E-01 0.45601456E+03</pdfrwt>
<pdfrwt beam="2">  1       21 0.18935567E-01 0.45601456E+03</pdfrwt>
<totfact> 0.62532596E+04</totfact>
</mgrwt>
</event>
<event>
 7    0  0.4759581E-002  0.4566797E+03  0.7546771E-02  0.1025749E+00
         21   -1    0    0  502  501  0.00000000000E+00  0.00000000000E+00  0.32113550606E+03  0.32113550606E+03  0.00000000000E+00 0. -1.
         21   -1    0    0  501  502 -0.00000000000E+00 -0.00000000000E+00 -0.16235855337E+03  0.16235855337E+03  0.00000000000E+00 0. -1.
      99926    2    1    2    0    0  0.00000000000E+00  0.00000000000E+00  0.15877695270E+03  0.48349405943E+03  0.45667973986E+03 0.  0.
      99925    2    3    3    0    0  0.44281473599E+02  0.94872379848E+02  0.14930792742E+03  0.32009642205E+03  0.26307269880E+03 0.  0.
         25    1    4    4    0    0  0.32615781392E+02  0.62525791589E+02  0.36466606359E+02  0.14815729914E+03  0.12509000000E+03 0.  0.
         25    1    3    3    0    0 -0.44281473599E+02 -0.94872379848E+02  0.94690252777E+01  0.16339763738E+03  0.12509000000E+03 0.  0.
         25    1    4    4    0    0  0.11665692207E+02  0.32346588259E+02  0.11284132106E+03  0.17193912291E+03  0.12509000000E+03 0.  0.
<mgrwt>
<rscale>  2 0.45667974E+03</rscale>
<asrwt>0</asrwt>
<pdfrwt beam="1">  1       21 0.47225810E-01 0.45667974E+03</pdfrwt>
<pdfrwt beam="2">  1       21 0.23876258E-01 0.45667974E+03</pdfrwt>
<totfact> 0.65567989E+04</totfact>
</mgrwt>
</event>
<event>
 7    0  0.4759581E-002  0.4699419E+03  0.7546771E-02  0.1021937E+00
         21   -1    0    0  502  501  0.00000000000E+00  0.00000000000E+00  0.30866209614E+03  0.30866209614E+03  0.00000000000E+00 0.  1.
         21   -1    0    0  501  502 -0.00000000000E+00 -0.00000000000E+00 -0.17887307677E+03  0.17887307677E+03  0.00000000000E+00 0.  1.
      99926    2    1    2    0    0  0.00000000000E+00  0.00000000000E+00  0.12978901937E+03  0.48753517291E+03  0.46994186371E+03 0.  0.
      99925    2    3    3    0    0  0.88792308513E+02  0.82380507043E+02  0.41677355537E+02  0.29238959802E+03  0.26283845433E+03 0.  0.
         25    1    4    4    0    0  0.65551255463E+02  0.12992576432E+02  0.83958786955E+00  0.14182378906E+03  0.12509000000E+03 0.  0.
         25    1    4    4    0    0  0.23241053050E+02  0.69387930611E+02  0.40837767667E+02  0.15056580897E+03  0.12509000000E+03 0.  0.
         25    1    3    3    0    0 -0.88792308513E+02 -0.82380507043E+02  0.88111663836E+02  0.19514557488E+03  0.12509000000E+03 0.  0.
<mgrwt>
<rscale>  2 0.46994186E+03</rscale>
<asrwt>0</asrwt>
<pdfrwt beam="1">  1       21 0.45391485E-01 0.46994186E+03</pdfrwt>
<pdfrwt beam="2">  1       21 0.26304864E-01 0.46994186E+03</pdfrwt>
<totfact> 0.58859365E+04</totfact>
</mgrwt>
</event>
<event>
 7    0  0.4759581E-002  0.4591765E+03  0.7546771E-02  0.1025020E+00
         21   -1    0    0  502  501  0.00000000000E+00  0.00000000000E+00  0.16099860973E+03  0.16099860973E+03  0.00000000000E+00 0.  1.
         21   -1    0    0  501  502 -0.00000000000E+00 -0.00000000000E+00 -0.32739892925E+03  0.32739892925E+03  0.00000000000E+00 0.  1.
      99926    2    1    2    0    0  0.14210854715E-13  0.00000000000E+00 -0.16640031953E+03  0.48839753898E+03  0.45917653440E+03 0.  0.
      99925    2    3    3    0    0  0.68095897901E+02 -0.37089259153E+02 -0.10096432522E+02  0.27370921222E+03  0.26230160207E+03 0.  0.
         25    1    4    4    0    0  0.60503738680E+02 -0.48015915128E+02  0.43939112206E+01  0.14708176316E+03  0.12509000000E+03 0.  0.
         25    1    3    3    0    0 -0.68095897901E+02  0.37089259153E+02 -0.15630388700E+03  0.21468832676E+03  0.12509000000E+03 0.  0.
         25    1    4    4    0    0  0.75921592210E+01  0.10926655975E+02 -0.14490343743E+02  0.12662744906E+03  0.12509000000E+03 0.  0.
<mgrwt>
<rscale>  2 0.45917653E+03</rscale>
<asrwt>0</asrwt>
<pdfrwt beam="1">  1       21 0.23676267E-01 0.45917653E+03</pdfrwt>
<pdfrwt beam="2">  1       21 0.48146900E-01 0.45917653E+03</pdfrwt>
<totfact> 0.63947094E+04</totfact>
</mgrwt>
</event>
<event>
 7    0  0.4759581E-002  0.4587928E+03  0.7546771E-02  0.1025132E+00
         21   -1    0    0  502  501  0.00000000000E+00  0.00000000000E+00  0.78225815081E+03  0.78225815081E+03  0.00000000000E+00 0. -1.
         21   -1    0    0  501  502 -0.00000000000E+00 -0.00000000000E+00 -0.67270245945E+02  0.67270245945E+02  0.00000000000E+00 0. -1.
      99926    2    1    2    0    0  0.71054273576E-14  0.00000000000E+00  0.71498790486E+03  0.84952839675E+03  0.45879275582E+03 0.  0.
      99925    2    3    3    0    0 -0.31121630886E+02  0.84227324692E+02  0.58629644228E+03  0.64885005020E+03  0.26305906424E+03 0.  0.
         25    1    3    3    0    0  0.31121630886E+02 -0.84227324692E+02  0.12869146258E+03  0.20067834655E+03  0.12509000000E+03 0.  0.
         25    1    4    4    0    0  0.66189254294E+01  0.35626260001E+02  0.20500796473E+03  0.24287612949E+03  0.12509000000E+03 0.  0.
         25    1    4    4    0    0 -0.37740556316E+02  0.48601064691E+02  0.38128847755E+03  0.40597392071E+03  0.12509000000E+03 0.  0.
<mgrwt>
<rscale>  2 0.45879276E+03</rscale>
<asrwt>0</asrwt>
<pdfrwt beam="1">  1       21 0.11503796E+00 0.45879276E+03</pdfrwt>
<pdfrwt beam="2">  1       21 0.98926837E-02 0.45879276E+03</pdfrwt>
<totfact> 0.44132681E+04</totfact>
</mgrwt>
</event>
<event>
 7    0  0.4759581E-002  0.4541469E+03  0.7546771E-02  0.1026493E+00
         21   -1    0    0  502  501  0.00000000000E+00  0.00000000000E+00  0.40565082706E+02  0.40565082706E+02  0.00000000000E+00 0.  1.
         21   -1    0    0  501  502 -0.00000000000E+00 -0.00000000000E+00 -0.12711015746E+04  0.12711015746E+04  0.00000000000E+00 0.  1.
      99926    2    1    2    0    0  0.00000000000E+00  0.00000000000E+00 -0.12305364919E+04  0.13116666573E+04  0.45414685070E+03 0.  0.
      99925    2    3    3    0    0 -0.67527007766E+02  0.89547127274E+02 -0.75357681998E+03  0.80598234717E+03  0.26296565472E+03 0.  0.
         25    1    4    4    0    0 -0.14214241533E+02  0.69819564391E+02 -0.31390859424E+03  0.34534465375E+03  0.12509000000E+03 0.  0.
         25    1    3    3    0    0  0.67527007766E+02 -0.89547127274E+02 -0.47695967192E+03  0.50568431014E+03  0.12509000000E+03 0.  0.
         25    1    4    4    0    0 -0.53312766233E+02  0.19727562882E+02 -0.43966822573E+03  0.46063769342E+03  0.12509000000E+03 0.  0.
<mgrwt>
<rscale>  2 0.45414685E+03</rscale>
<asrwt>0</asrwt>
<pdfrwt beam="1">  1       21 0.59654537E-02 0.45414685E+03</pdfrwt>
<pdfrwt beam="2">  1       21 0.18692669E+00 0.45414685E+03</pdfrwt>
<totfact> 0.28969458E+04</totfact>
</mgrwt>
</event>
<event>
 7    0  0.4759581E-002  0.4558404E+03  0.7546771E-02  0.1025995E+00
         21   -1    0    0  502  501  0.00000000000E+00  0.00000000000E+00  0.30890489586E+03  0.30890489586E+03  0.00000000000E+00 0.  1.
         21   -1    0    0  501  502 -0.00000000000E+00 -0.00000000000E+00 -0.16816701539E+03  0.16816701539E+03  0.00000000000E+00 0.  1.
      99926    2    1    2    0    0 -0.14210854715E-13  0.00000000000E+00  0.14073788047E+03  0.47707191124E+03  0.45584038599E+03 0.  0.
      99925    2    3    3    0    0  0.10905733564E+03 -0.33125845330E+02  0.89721895646E+02  0.30032077859E+03  0.26296716032E+03 0.  0.
         25    1    4    4    0    0  0.63106960875E+02 -0.26691526392E+02  0.58841842462E+01  0.14274823227E+03  0.12509000000E+03 0.  0.
         25    1    4    4    0    0  0.45950374769E+02 -0.64343189382E+01  0.83837711400E+02  0.15757254632E+03  0.12509000000E+03 0.  0.
         25    1    3    3    0    0 -0.10905733564E+03  0.33125845330E+02  0.51015984822E+02  0.17675113265E+03  0.12509000000E+03 0.  0.
<mgrwt>
<rscale>  2 0.45584039E+03</rscale>
<asrwt>0</asrwt>
<pdfrwt beam="1">  1       21 0.45427191E-01 0.45584039E+03</pdfrwt>
<pdfrwt beam="2">  1       21 0.24730443E-01 0.45584039E+03</pdfrwt>
<totfact> 0.66469429E+04</totfact>
</mgrwt>
</event>
<event>
 7    0  0.4759581E-002  0.4535039E+03  0.7546771E-02  0.1026682E+00
         21   -1    0    0  502  501  0.00000000000E+00  0.00000000000E+00  0.49273022833E+03  0.49273022833E+03  0.00000000000E+00 0. -1.
         21   -1    0    0  501  502 -0.00000000000E+00 -0.00000000000E+00 -0.10435008423E+03  0.10435008423E+03  0.00000000000E+00 0. -1.
      99926    2    1    2    0    0  0.14210854715E-13  0.00000000000E+00  0.38838014410E+03  0.59708031256E+03  0.45350387354E+03 0.  0.
      99925    2    3    3    0    0  0.81586369233E+02  0.23711254816E+02  0.14860257153E+03  0.31360306187E+03  0.26276528862E+03 0.  0.
         25    1    4    4    0    0  0.79935789773E+02  0.27253008134E+02  0.77517686736E+02  0.16967308801E+03  0.12509000000E+03 0.  0.
         25    1    3    3    0    0 -0.81586369233E+02 -0.23711254816E+02  0.23977757257E+03  0.28347725069E+03  0.12509000000E+03 0.  0.
         25    1    4    4    0    0  0.16505794600E+01 -0.35417533183E+01  0.71084884797E+02  0.14392997386E+03  0.12509000000E+03 0.  0.
<mgrwt>
<rscale>  2 0.45350387E+03</rscale>
<asrwt>0</asrwt>
<pdfrwt beam="1">  1       21 0.72460327E-01 0.45350387E+03</pdfrwt>
<pdfrwt beam="2">  1       21 0.15345601E-01 0.45350387E+03</pdfrwt>
<totfact> 0.59559347E+04</totfact>
</mgrwt>
</event>
<event>
 7    0  0.4759581E-002  0.4569659E+03  0.7546771E-02  0.1025665E+00
         21   -1    0    0  502  501  0.00000000000E+00  0.00000000000E+00  0.15190328516E+04  0.15190328516E+04  0.00000000000E+00 0. -1.
         21   -1    0    0  501  502 -0.00000000000E+00 -0.00000000000E+00 -0.34366904942E+02  0.34366904942E+02  0.00000000000E+00 0. -1.
      99926    2    1    2    0    0  0.00000000000E+00  0.00000000000E+00  0.14846659467E+04  0.15533997566E+04  0.45696589639E+03 0.  0.
      99925    2    3    3    0    0  0.33747936296E+02 -0.38796020739E+02  0.58372163754E+03  0.64236067359E+03  0.26315818516E+03 0.  0.
         25    1    3    3    0    0 -0.33747936296E+02  0.38796020739E+02  0.90094430916E+03  0.91103908299E+03  0.12509000000E+03 0.  0.
         25    1    4    4    0    0  0.41188540442E+02 -0.53097853864E+02  0.30605514634E+03  0.33739166950E+03  0.12509000000E+03 0.  0.
         25    1    4    4    0    0 -0.74406041461E+01  0.14301833125E+02  0.27766649120E+03  0.30496900409E+03  0.12509000000E+03 0.  0.
<mgrwt>
<rscale>  2 0.45696590E+03</rscale>
<asrwt>0</asrwt>
<pdfrwt beam="1">  1       21 0.22338714E+00 0.45696590E+03</pdfrwt>
<pdfrwt beam="2">  1       21 0.50539576E-02 0.45696590E+03</pdfrwt>
<totfact> 0.22159970E+04</totfact>
</mgrwt>
</event>
<event>
 7    0  0.4759581E-002  0.4500990E+03  0.7546771E-02  0.1027693E+00
         21   -1    0    0  502  501  0.00000000000E+00  0.00000000000E+00  0.29317459031E+03  0.29317459031E+03  0.00000000000E+00 0. -1.
         21   -1    0    0  501  502 -0.00000000000E+00 -0.00000000000E+00 -0.17275465599E+03  0.17275465599E+03  0.00000000000E+00 0. -1.
      99926    2    1    2    0    0 -0.17763568394E-14  0.00000000000E+00  0.12041993433E+03  0.46592924630E+03  0.45009899130E+03 0.  0.
      99925    2    3    3    0    0  0.91789593116E+01  0.78971599851E+02  0.26429022884E+00  0.27512658964E+03  0.26338907267E+03 0.  0.
         25    1    4    4    0    0  0.30938703230E+02  0.10274233310E+02 -0.14181769945E+02  0.13004381541E+03  0.12509000000E+03 0.  0.
         25    1    4    4    0    0 -0.21759743919E+02  0.68697366541E+02  0.14446060174E+02  0.14508277423E+03  0.12509000000E+03 0.  0.
         25    1    3    3    0    0 -0.91789593116E+01 -0.78971599851E+02  0.12015564410E+03  0.19080265665E+03  0.12509000000E+03 0.  0.
<mgrwt>
<rscale>  2 0.45009899E+03</rscale>
<asrwt>0</asrwt>
<pdfrwt beam="1">  1       21 0.43113911E-01 0.45009899E+03</pdfrwt>
<pdfrwt beam="2">  1       21 0.25405096E-01 0.45009899E+03</pdfrwt>
<totfact> 0.70438709E+04</totfact>
</mgrwt>
</event>
<event>
 7    0  0.4759581E-002  0.4535466E+03  0.7546771E-02  0.1026670E+00
         21   -1    0    0  502  501  0.00000000000E+00  0.00000000000E+00  0.15141457579E+04  0.15141457579E+04  0.00000000000E+00 0. -1.
         21   -1    0    0  501  502 -0.00000000000E+00 -0.00000000000E+00 -0.33963789575E+02  0.33963789575E+02  0.00000000000E+00 0. -1.
      99926    2    1    2    0    0  0.00000000000E+00  0.00000000000E+00  0.14801819683E+04  0.15481095475E+04  0.45354659257E+03 0.  0.
      99925    2    3    3    0    0  0.34565298295E+02 -0.94526222873E+02  0.10993474507E+04  0.11348149739E+04  0.26288826696E+03 0.  0.
         25    1    4    4    0    0 -0.88525771113E+01 -0.49600039373E+02  0.66429152324E+03  0.67784162455E+03  0.12509000000E+03 0.  0.
         25    1    3    3    0    0 -0.34565298295E+02  0.94526222873E+02  0.38083451763E+03  0.41329457361E+03  0.12509000000E+03 0.  0.
         25    1    4    4    0    0  0.43417875406E+02 -0.44926183501E+02  0.43505592746E+03  0.45697334932E+03  0.12509000000E+03 0.  0.
<mgrwt>
<rscale>  2 0.45354659E+03</rscale>
<asrwt>0</asrwt>
<pdfrwt beam="1">  1       21 0.22266845E+00 0.45354659E+03</pdfrwt>
<pdfrwt beam="2">  1       21 0.49946760E-02 0.45354659E+03</pdfrwt>
<totfact> 0.22881507E+04</totfact>
</mgrwt>
</event>
<event>
 7    0  0.4759581E-002  0.4567467E+03  0.7546771E-02  0.1025729E+00
         21   -1    0    0  502  501  0.00000000000E+00  0.00000000000E+00  0.10466997930E+04  0.10466997930E+04  0.00000000000E+00 0.  1.
         21   -1    0    0  501  502 -0.00000000000E+00 -0.00000000000E+00 -0.49827454098E+02  0.49827454098E+02  0.00000000000E+00 0.  1.
      99926    2    1    2    0    0  0.00000000000E+00  0.00000000000E+00  0.99687233895E+03  0.10965272471E+04  0.45674669519E+03 0.  0.
      99925    2    3    3    0    0 -0.75603152939E+02 -0.80807985090E+02  0.69942355877E+03  0.75539816290E+03  0.26303479382E+03 0.  0.
         25    1    4    4    0    0 -0.44393351605E+02 -0.43377826167E+02  0.46206452964E+03  0.48270440553E+03  0.12509000000E+03 0.  0.
         25    1    3    3    0    0  0.75603152939E+02  0.80807985090E+02  0.29744878018E+03  0.34112908424E+03  0.12509000000E+03 0.  0.
         25    1    4    4    0    0 -0.31209801334E+02 -0.37430158923E+02  0.23735902913E+03  0.27269375737E+03  0.12509000000E+03 0.  0.
<mgrwt>
<rscale>  2 0.45674670E+03</rscale>
<asrwt>0</asrwt>
<pdfrwt beam="1">  1       21 0.15392643E+00 0.45674670E+03</pdfrwt>
<pdfrwt beam="2">  1       21 0.73275675E-02 0.45674670E+03</pdfrwt>
<totfact> 0.35133714E+04</totfact>
</mgrwt>
</event>
<event>
 7    0  0.4759581E-002  0.4556488E+03  0.7546771E-02  0.1026051E+00
         21   -1    0    0  502  501  0.00000000000E+00  0.00000000000E+00  0.34189084595E+03  0.34189084595E+03  0.00000000000E+00 0.  1.
         21   -1    0    0  501  502 -0.00000000000E+00 -0.00000000000E+00 -0.15181440544E+03  0.15181440544E+03  0.00000000000E+00 0.  1.
      99926    2    1    2    0    0  0.71054273576E-14  0.14210854715E-13  0.19007644051E+03  0.49370525139E+03  0.45564879240E+03 0.  0.
      99925    2    3    3    0    0 -0.38384275486E+02 -0.10711480062E+03  0.12141876656E+03  0.31119958735E+03  0.26297477670E+03 0.  0.
         25    1    4    4    0    0  0.13664196750E+01 -0.27193450942E+02  0.26988221124E+02  0.13083280573E+03  0.12509000000E+03 0.  0.
         25    1    4    4    0    0 -0.39750695161E+02 -0.79921349674E+02  0.94430545440E+02  0.18036678162E+03  0.12509000000E+03 0.  0.
         25    1    3    3    0    0  0.38384275486E+02  0.10711480062E+03  0.68657673944E+02  0.18250566404E+03  0.12509000000E+03 0.  0.
<mgrwt>
<rscale>  2 0.45564879E+03</rscale>
<asrwt>0</asrwt>
<pdfrwt beam="1">  1       21 0.50278066E-01 0.45564879E+03</pdfrwt>
<pdfrwt beam="2">  1       21 0.22325648E-01 0.45564879E+03</pdfrwt>
<totfact> 0.65377803E+04</totfact>
</mgrwt>
</event>
<event>
 7    0  0.4759581E-002  0.4516356E+03  0.7546771E-02  0.1027235E+00
         21   -1    0    0  502  501  0.00000000000E+00  0.00000000000E+00  0.10360802441E+04  0.10360802441E+04  0.00000000000E+00 0. -1.
         21   -1    0    0  501  502 -0.00000000000E+00 -0.00000000000E+00 -0.49217895423E+02  0.49217895423E+02  0.00000000000E+00 0. -1.
      99926    2    1    2    0    0  0.00000000000E+00  0.00000000000E+00  0.98686234866E+03  0.10852981395E+04  0.45163564564E+03 0.  0.
      99925    2    3    3    0    0  0.48956053291E+02  0.21297709499E+02  0.85380223622E+03  0.89502783387E+03  0.26314687391E+03 0.  0.
         25    1    3    3    0    0 -0.48956053291E+02 -0.21297709499E+02  0.13306011245E+03  0.19027030564E+03  0.12509000000E+03 0.  0.
         25    1    4    4    0    0  0.11073449595E+02  0.48720631622E+02  0.44852260075E+03  0.46831223848E+03  0.12509000000E+03 0.  0.
         25    1    4    4    0    0  0.37882603696E+02 -0.27422922122E+02  0.40527963547E+03  0.42671559539E+03  0.12509000000E+03 0.  0.
<mgrwt>
<rscale>  2 0.45163565E+03</rscale>
<asrwt>0</asrwt>
<pdfrwt beam="1">  1       21 0.15236473E+00 0.45163565E+03</pdfrwt>
<pdfrwt beam="2">  1       21 0.72379264E-02 0.45163565E+03</pdfrwt>
<totfact> 0.36969154E+04</totfact>
</mgrwt>
</event>
<event>
 7    0  0.4759581E-002  0.4539919E+03  0.7546771E-02  0.1026538E+00
         21   -1    0    0  502  501  0.00000000000E+00  0.00000000000E+00  0.11767436224E+03  0.11767436224E+03  0.00000000000E+00 0. -1.
         21   -1    0    0  501  502 -0.00000000000E+00 -0.00000000000E+00 -0.43787917377E+03  0.43787917377E+03  0.00000000000E+00 0. -1.
      99926    2    1    2    0    0  0.00000000000E+00  0.71054273576E-14 -0.32020481153E+03  0.55555353601E+03  0.45399186121E+03 0.  0.
      99925    2    3    3    0    0 -0.23535710486E+02  0.58824863117E+02 -0.31507924203E+03  0.41523933947E+03  0.26293437603E+03 0.  0.
         25    1    3    3    0    0  0.23535710486E+02 -0.58824863117E+02 -0.51255695036E+01  0.14031419654E+03  0.12509000000E+03 0.  0.
         25    1    4    4    0    0 -0.24208001725E+02 -0.17683685545E+01 -0.18663009915E+03  0.22598109763E+03  0.12509000000E+03 0.  0.
         25    1    4    4    0    0  0.67229123887E+00  0.60593231671E+02 -0.12844914288E+03  0.18925824184E+03  0.12509000000E+03 0.  0.
<mgrwt>
<rscale>  2 0.45399186E+03</rscale>
<asrwt>0</asrwt>
<pdfrwt beam="1">  1       21 0.17305053E-01 0.45399186E+03</pdfrwt>
<pdfrwt beam="2">  1       21 0.64393997E-01 0.45399186E+03</pdfrwt>
<totfact> 0.61993948E+04</totfact>
</mgrwt>
</event>
<event>
 7    0  0.4759581E-002  0.4529962E+03  0.7546771E-02  0.1026832E+00
         21   -1    0    0  502  501  0.00000000000E+00  0.00000000000E+00  0.54759960358E+02  0.54759960358E+02  0.00000000000E+00 0. -1.
         21   -1    0    0  501  502 -0.00000000000E+00 -0.00000000000E+00 -0.93684105650E+03  0.93684105650E+03  0.00000000000E+00 0. -1.
      99926    2    1    2    0    0  0.00000000000E+00  0.00000000000E+00 -0.88208109614E+03  0.99160101685E+03  0.45299615502E+03 0.  0.
      99925    2    3    3    0    0  0.97090210808E+02 -0.45037716142E+02 -0.62275346229E+03  0.68443130043E+03  0.26300080856E+03 0.  0.
         25    1    4    4    0    0  0.66664534856E+02 -0.60487425583E+02 -0.32631518950E+03  0.36087671006E+03  0.12509000000E+03 0.  0.
         25    1    4    4    0    0  0.30425675952E+02  0.15449709440E+02 -0.29643827279E+03  0.32355459038E+03  0.12509000000E+03 0.  0.
         25    1    3    3    0    0 -0.97090210808E+02  0.45037716142E+02 -0.25932763385E+03  0.30716971642E+03  0.12509000000E+03 0.  0.
<mgrwt>
<rscale>  2 0.45299616E+03</rscale>
<asrwt>0</asrwt>
<pdfrwt beam="1">  1       21 0.80529358E-02 0.45299616E+03</pdfrwt>
<pdfrwt beam="2">  1       21 0.13777074E+00 0.45299616E+03</pdfrwt>
<totfact> 0.40119290E+04</totfact>
</mgrwt>
</event>
<event>
 7    0  0.4759581E-002  0.4515766E+03  0.7546771E-02  0.1027253E+00
         21   -1    0    0  502  501  0.00000000000E+00  0.00000000000E+00  0.43507035038E+03  0.43507035038E+03  0.00000000000E+00 0. -1.
         21   -1    0    0  501  502 -0.00000000000E+00 -0.00000000000E+00 -0.11717725879E+03  0.11717725879E+03  0.00000000000E+00 0. -1.
      99926    2    1    2    0    0  0.00000000000E+00  0.17763568394E-14  0.31789309160E+03  0.55224760917E+03  0.45157657618E+03 0.  0.
      99925    2    3    3    0    0 -0.10243768433E+03 -0.12581118308E+02  0.15962997410E+03  0.32564997862E+03  0.26441334353E+03 0.  0.
         25    1    3    3    0    0  0.10243768433E+03  0.12581118308E+02  0.15826311750E+03  0.22659763055E+03  0.12509000000E+03 0.  0.
         25    1    4    4    0    0 -0.75989813139E+02 -0.47500235659E+01  0.43536321944E+02  0.15277412691E+03  0.12509000000E+03 0.  0.
         25    1    4    4    0    0 -0.26447871193E+02 -0.78310947416E+01  0.11609365215E+03  0.17287585171E+03  0.12509000000E+03 0.  0.
<mgrwt>
<rscale>  2 0.45157658E+03</rscale>
<asrwt>0</asrwt>
<pdfrwt beam="1">  1       21 0.63980933E-01 0.45157658E+03</pdfrwt>
<pdfrwt beam="2">  1       21 0.17231950E-01 0.45157658E+03</pdfrwt>
<totfact> 0.63418489E+04</totfact>
</mgrwt>
</event>
<event>
 7    0  0.4759581E-002  0.4444911E+03  0.7546771E-02  0.1029378E+00
         21   -1    0    0  502  501  0.00000000000E+00  0.00000000000E+00  0.18812017126E+03  0.18812017126E+03  0.00000000000E+00 0. -1.
         21   -1    0    0  501  502 -0.00000000000E+00 -0.00000000000E+00 -0.26256132793E+03  0.26256132793E+03  0.00000000000E+00 0. -1.
      99926    2    1    2    0    0  0.00000000000E+00  0.00000000000E+00 -0.74441156663E+02  0.45068149919E+03  0.44449108867E+03 0.  0.
      99925    2    3    3    0    0  0.62376400481E+02  0.52965575371E+02  0.16356052084E+02  0.27578779225E+03  0.26285969337E+03 0.  0.
         25    1    4    4    0    0  0.10178122670E+02  0.21017817061E+02 -0.26706795557E+02  0.13002347420E+03  0.12509000000E+03 0.  0.
         25    1    3    3    0    0 -0.62376400481E+02 -0.52965575371E+02 -0.90797208747E+02  0.17489370694E+03  0.12509000000E+03 0.  0.
         25    1    4    4    0    0  0.52198277811E+02  0.31947758310E+02  0.43062847641E+02  0.14576431804E+03  0.12509000000E+03 0.  0.
<mgrwt>
<rscale>  2 0.44449109E+03</rscale>
<asrwt>0</asrwt>
<pdfrwt beam="1">  1       21 0.27664731E-01 0.44449109E+03</pdfrwt>
<pdfrwt beam="2">  1       21 0.38611960E-01 0.44449109E+03</pdfrwt>
<totfact> 0.74951951E+04</totfact>
</mgrwt>
</event>
<event>
 7    0  0.4759581E-002  0.4518220E+03  0.7546771E-02  0.1027180E+00
         21   -1    0    0  502  501  0.00000000000E+00  0.00000000000E+00  0.57838124538E+03  0.57838124538E+03  0.00000000000E+00 0. -1.
         21   -1    0    0  501  502 -0.00000000000E+00 -0.00000000000E+00 -0.88238994852E+02  0.88238994852E+02  0.00000000000E+00 0. -1.
      99926    2    1    2    0    0  0.00000000000E+00 -0.71054273576E-14  0.49014225053E+03  0.66662024023E+03  0.45182199917E+03 0.  0.
      99925    2    3    3    0    0  0.84328717456E+02 -0.39366156335E+02  0.22235611802E+03  0.35675261089E+03  0.26300029525E+03 0.  0.
         25    1    3    3    0    0 -0.84328717456E+02  0.39366156335E+02  0.26778613251E+03  0.30986762935E+03  0.12509000000E+03 0.  0.
         25    1    4    4    0    0  0.57586859328E+02 -0.57766847860E+02  0.12885413864E+03  0.19724135526E+03  0.12509000000E+03 0.  0.
         25    1    4    4    0    0  0.26741858128E+02  0.18400691525E+02  0.93501979377E+02  0.15951125563E+03  0.12509000000E+03 0.  0.
<mgrwt>
<rscale>  2 0.45182200E+03</rscale>
<asrwt>0</asrwt>
<pdfrwt beam="1">  1       21 0.85056064E-01 0.45182200E+03</pdfrwt>
<pdfrwt beam="2">  1       21 0.12976323E-01 0.45182200E+03</pdfrwt>
<totfact> 0.56146429E+04</totfact>
</mgrwt>
</event>
<event>
 7    0  0.4759581E-002  0.4560913E+03  0.7546771E-02  0.1025921E+00
         21   -1    0    0  502  501  0.00000000000E+00  0.00000000000E+00  0.46470848087E+02  0.46470848087E+02  0.00000000000E+00 0. -1.
         21   -1    0    0  501  502 -0.00000000000E+00 -0.00000000000E+00 -0.11190848052E+04  0.11190848052E+04  0.00000000000E+00 0. -1.
      99926    2    1    2    0    0  0.00000000000E+00  0.71054273576E-14 -0.10726139571E+04  0.11655556532E+04  0.45609130655E+03 0.  0.
      99925    2    3    3    0    0 -0.95231177165E+02  0.54363839862E+02 -0.75416002892E+03  0.80627189820E+03  0.26323491487E+03 0.  0.
         25    1    4    4    0    0 -0.34120796838E+02 -0.19894020313E+01 -0.42757199227E+03  0.44680365170E+03  0.12509000000E+03 0.  0.
         25    1    3    3    0    0  0.95231177165E+02 -0.54363839862E+02 -0.31845392815E+03  0.35928375505E+03  0.12509000000E+03 0.  0.
         25    1    4    4    0    0 -0.61110380327E+02  0.56353241894E+02 -0.32658803665E+03  0.35946824650E+03  0.12509000000E+03 0.  0.
<mgrwt>
<rscale>  2 0.45609131E+03</rscale>
<asrwt>0</asrwt>
<pdfrwt beam="1">  1       21 0.68339479E-02 0.45609131E+03</pdfrwt>
<pdfrwt beam="2">  1       21 0.16457130E+00 0.45609131E+03</pdfrwt>
<totfact> 0.32985814E+04</totfact>
</mgrwt>
</event>
<event>
 6    0  0.4759581E-002  0.4569006E+03  0.7546771E-02  0.1025684E+00
         21   -1    0    0  502  501  0.00000000000E+00  0.00000000000E+00  0.28965326568E+03  0.28965326568E+03  0.00000000000E+00 0.  1.
         21   -1    0    0  501  502 -0.00000000000E+00 -0.00000000000E+00 -0.18017939216E+03  0.18017939216E+03  0.00000000000E+00 0.  1.
      99926    2    1    2    0    0  0.00000000000E+00  0.71054273576E-14  0.10947387352E+03  0.46983265784E+03  0.45690064280E+03 0.  0.
         25    1    3    3    0    0  0.78725045573E+02  0.49322444904E+02  0.45465480022E+02  0.16231128841E+03  0.12509000000E+03 0.  0.
         25    1    3    3    0    0 -0.10565663739E+03 -0.34027222255E+02  0.62822508133E+02  0.17864868459E+03  0.12509000000E+03 0.  0.
         25    1    3    3    0    0  0.26931591813E+02 -0.15295222648E+02  0.11858853612E+01  0.12887268484E+03  0.12509000000E+03 0.  0.
<mgrwt>
<rscale>  2 0.45690064E+03</rscale>
<asrwt>0</asrwt>
<pdfrwt beam="1">  1       21 0.42596069E-01 0.45690064E+03</pdfrwt>
<pdfrwt beam="2">  1       21 0.26496969E-01 0.45690064E+03</pdfrwt>
<totfact> 0.66440874E+04</totfact>
</mgrwt>
</event>
<event>
 7    0  0.4759581E-002  0.4568184E+03  0.7546771E-02  0.1025708E+00
         21   -1    0    0  502  501  0.00000000000E+00  0.00000000000E+00  0.87639185347E+03  0.87639185347E+03  0.00000000000E+00 0.  1.
         21   -1    0    0  501  502 -0.00000000000E+00 -0.00000000000E+00 -0.59529031896E+02  0.59529031896E+02  0.00000000000E+00 0.  1.
      99926    2    1    2    0    0  0.00000000000E+00  0.00000000000E+00  0.81686282157E+03  0.93592088537E+03  0.45681838229E+03 0.  0.
      99925    2    3    3    0    0 -0.79802508697E+02  0.66626666230E+01  0.68204744208E+03  0.73533293416E+03  0.26289347518E+03 0.  0.
         25    1    3    3    0    0  0.79802508697E+02 -0.66626666230E+01  0.13481537949E+03  0.20058795120E+03  0.12509000000E+03 0.  0.
         25    1    4    4    0    0 -0.44300701772E+01 -0.12779876862E+02  0.35482722942E+03  0.37647419781E+03  0.12509000000E+03 0.  0.
         25    1    4    4    0    0 -0.75372438520E+02  0.19442543485E+02  0.32722021266E+03  0.35885873635E+03  0.12509000000E+03 0.  0.
<mgrwt>
<rscale>  2 0.45681838E+03</rscale>
<asrwt>0</asrwt>
<pdfrwt beam="1">  1       21 0.12888115E+00 0.45681838E+03</pdfrwt>
<pdfrwt beam="2">  1       21 0.87542699E-02 0.45681838E+03</pdfrwt>
<totfact> 0.41128203E+04</totfact>
</mgrwt>
</event>
<event>
 7    0  0.4759581E-002  0.4464722E+03  0.7546771E-02  0.1028779E+00
         21   -1    0    0  502  501  0.00000000000E+00  0.00000000000E+00  0.13513383759E+04  0.13513383759E+04  0.00000000000E+00 0. -1.
         21   -1    0    0  501  502 -0.00000000000E+00 -0.00000000000E+00 -0.36877770130E+02  0.36877770130E+02  0.00000000000E+00 0. -1.
      99926    2    1    2    0    0  0.71054273576E-14 -0.17763568394E-14  0.13144606058E+04  0.13882161461E+04  0.44647215365E+03 0.  0.
      99925    2    3    3    0    0  0.56240683325E+02 -0.46289764447E+01  0.11088390463E+04  0.11410073765E+04  0.26303870609E+03 0.  0.
         25    1    4    4    0    0  0.16399428293E+02 -0.11734990484E+02  0.38466171919E+03  0.40499234259E+03  0.12509000000E+03 0.  0.
         25    1    3    3    0    0 -0.56240683325E+02  0.46289764447E+01  0.20562155953E+03  0.24720876952E+03  0.12509000000E+03 0.  0.
         25    1    4    4    0    0  0.39841255033E+02  0.71060140395E+01  0.72417732709E+03  0.73601503396E+03  0.12509000000E+03 0.  0.
<mgrwt>
<rscale>  2 0.44647215E+03</rscale>
<asrwt>0</asrwt>
<pdfrwt beam="1">  1       21 0.19872620E+00 0.44647215E+03</pdfrwt>
<pdfrwt beam="2">  1       21 0.54232024E-02 0.44647215E+03</pdfrwt>
<totfact> 0.28489640E+04</totfact>
</mgrwt>
</event>
<event>
 7    0  0.4759581E-002  0.4534547E+03  0.7546771E-02  0.1026697E+00
         21   -1    0    0  502  501  0.00000000000E+00  0.00000000000E+00  0.12869867935E+03  0.12869867935E+03  0.00000000000E+00 0.  1.
         21   -1    0    0  501  502 -0.00000000000E+00 -0.00000000000E+00 -0.39942359120E+03  0.39942359120E+03  0.00000000000E+00 0.  1.
      99926    2    1    2    0    0 -0.35527136788E-14  0.00000000000E+00 -0.27072491186E+03  0.52812227055E+03  0.45345468875E+03 0.  0.
      99925    2    3    3    0    0 -0.27895513367E+02 -0.68013668175E+02 -0.26854188936E+03  0.38301440580E+03  0.26302332594E+03 0.  0.
         25    1    4    4    0    0 -0.13082161468E+02  0.36806502619E+01 -0.10000586351E+03  0.16072762977E+03  0.12509000000E+03 0.  0.
         25    1    4    4    0    0 -0.14813351899E+02 -0.71694318437E+02 -0.16853602584E+03  0.22228677603E+03  0.12509000000E+03 0.  0.
         25    1    3    3    0    0  0.27895513367E+02  0.68013668175E+02 -0.21830224988E+01  0.14510786475E+03  0.12509000000E+03 0.  0.
<mgrwt>
<rscale>  2 0.45345469E+03</rscale>
<asrwt>0</asrwt>
<pdfrwt beam="1">  1       21 0.18926276E-01 0.45345469E+03</pdfrwt>
<pdfrwt beam="2">  1       21 0.58738763E-01 0.45345469E+03</pdfrwt>
<totfact> 0.64115554E+04</totfact>
</mgrwt>
</event>
<event>
 7    0  0.4759581E-002  0.4555384E+03  0.7546771E-02  0.1026083E+00
         21   -1    0    0  502  501  0.00000000000E+00  0.00000000000E+00  0.58979845937E+02  0.58979845937E+02  0.00000000000E+00 0. -1.
         21   -1    0    0  501  502 -0.00000000000E+00 -0.00000000000E+00 -0.87960244523E+03  0.87960244523E+03  0.00000000000E+00 0. -1.
      99926    2    1    2    0    0  0.00000000000E+00  0.00000000000E+00 -0.82062259929E+03  0.93858229117E+03  0.45553843616E+03 0.  0.
      99925    2    3    3    0    0 -0.20007748786E+02 -0.11170951203E+03 -0.50748491717E+03  0.58279859121E+03  0.26312341529E+03 0.  0.
         25    1    4    4    0    0 -0.34879763681E+02 -0.22053727484E+02 -0.22224470808E+03  0.25834702084E+03  0.12509000000E+03 0.  0.
         25    1    4    4    0    0  0.14872014895E+02 -0.89655784548E+02 -0.28524020909E+03  0.32445157037E+03  0.12509000000E+03 0.  0.
         25    1    3    3    0    0  0.20007748786E+02  0.11170951203E+03 -0.31313768212E+03  0.35578369996E+03  0.12509000000E+03 0.  0.
<mgrwt>
<rscale>  2 0.45553844E+03</rscale>
<asrwt>0</asrwt>
<pdfrwt beam="1">  1       21 0.86735075E-02 0.45553844E+03</pdfrwt>
<pdfrwt beam="2">  1       21 0.12935329E+00 0.45553844E+03</pdfrwt>
<totfact> 0.41431888E+04</totfact>
</mgrwt>
</event>
<event>
 7    0  0.4759581E-002  0.4493925E+03  0.7546771E-02  0.1027903E+00
         21   -1    0    0  502  501  0.00000000000E+00  0.00000000000E+00  0.79507222726E+03  0.79507222726E+03  0.00000000000E+00 0. -1.
         21   -1    0    0  501  502 -0.00000000000E+00 -0.00000000000E+00 -0.63501668796E+02  0.63501668796E+02  0.00000000000E+00 0. -1.
      99926    2    1    2    0    0  0.00000000000E+00  0.00000000000E+00  0.73157055846E+03  0.85857389605E+03  0.44939253774E+03 0.  0.
      99925    2    3    3    0    0 -0.14397644694E+02  0.10111840062E+03  0.39675876203E+03  0.48684997935E+03  0.26300791629E+03 0.  0.
         25    1    4    4    0    0 -0.53571525490E+01  0.10913730477E+02  0.20689145787E+03  0.24207311300E+03  0.12509000000E+03 0.  0.
         25    1    4    4    0    0 -0.90404921446E+01  0.90204670146E+02  0.18986730415E+03  0.24477686635E+03  0.12509000000E+03 0.  0.
         25    1    3    3    0    0  0.14397644694E+02 -0.10111840062E+03  0.33481179643E+03  0.37172391670E+03  0.12509000000E+03 0.  0.
<mgrwt>
<rscale>  2 0.44939254E+03</rscale>
<asrwt>0</asrwt>
<pdfrwt beam="1">  1       21 0.11692238E+00 0.44939254E+03</pdfrwt>
<pdfrwt beam="2">  1       21 0.93384812E-02 0.44939254E+03</pdfrwt>
<totfact> 0.47095682E+04</totfact>
</mgrwt>
</event>
<event>
 7    0  0.4759581E-002  0.4578023E+03  0.7546771E-02  0.1025421E+00
         21   -1    0    0  502  501  0.00000000000E+00  0.00000000000E+00  0.10169206231E+04  0.10169206231E+04  0.00000000000E+00 0.  1.
         21   -1    0    0  501  502 -0.00000000000E+00 -0.00000000000E+00 -0.51523913147E+02  0.51523913147E+02  0.00000000000E+00 0.  1.
      99926    2    1    2    0    0  0.39968028887E-14 -0.14210854715E-13  0.96539670995E+03  0.10684445362E+04  0.45780227112E+03 0.  0.
      99925    2    3    3    0    0 -0.36286303726E+01  0.67226927019E+02  0.82582595955E+03  0.86929602598E+03  0.26297231533E+03 0.  0.
         25    1    4    4    0    0  0.30325614803E+02  0.80659419371E+01  0.38899555016E+03  0.40981672547E+03  0.12509000000E+03 0.  0.
         25    1    3    3    0    0  0.36286303726E+01 -0.67226927019E+02  0.13957075039E+03  0.19914851026E+03  0.12509000000E+03 0.  0.
         25    1    4    4    0    0 -0.33954245176E+02  0.59160985082E+02  0.43683040940E+03  0.45947930051E+03  0.12509000000E+03 0.  0.
<mgrwt>
<rscale>  2 0.45780227E+03</rscale>
<asrwt>0</asrwt>
<pdfrwt beam="1">  1       21 0.14954714E+00 0.45780227E+03</pdfrwt>
<pdfrwt beam="2">  1       21 0.75770467E-02 0.45780227E+03</pdfrwt>
<totfact> 0.35818094E+04</totfact>
</mgrwt>
</event>
<event>
 7    0  0.4759581E-002  0.4498198E+03  0.7546771E-02  0.1027776E+00
         21   -1    0    0  502  501  0.00000000000E+00  0.00000000000E+00  0.64510998053E+02  0.64510998053E+02  0.00000000000E+00 0. -1.
         21   -1    0    0  501  502 -0.00000000000E+00 -0.00000000000E+00 -0.78412148453E+03  0.78412148453E+03  0.00000000000E+00 0. -1.
      99926    2    1    2    0    0  0.14210854715E-13  0.00000000000E+00 -0.71961048648E+03  0.84863248258E+03  0.44981978419E+03 0.  0.
      99925    2    3    3    0    0  0.78668567829E+02  0.36220439573E+02 -0.57750464165E+03  0.64044448331E+03  0.26297692155E+03 0.  0.
         25    1    3    3    0    0 -0.78668567829E+02 -0.36220439573E+02 -0.14210584483E+03  0.20818799927E+03  0.12509000000E+03 0.  0.
         25    1    4    4    0    0  0.23293463445E+02 -0.20248746618E+02 -0.26377095478E+03  0.29355616476E+03  0.12509000000E+03 0.  0.
         25    1    4    4    0    0  0.55375104384E+02  0.56469186191E+02 -0.31373368687E+03  0.34688831855E+03  0.12509000000E+03 0.  0.
<mgrwt>
<rscale>  2 0.44981978E+03</rscale>
<asrwt>0</asrwt>
<pdfrwt beam="1">  1       21 0.94869110E-02 0.44981978E+03</pdfrwt>
<pdfrwt beam="2">  1       21 0.11531199E+00 0.44981978E+03</pdfrwt>
<totfact> 0.47397527E+04</totfact>
</mgrwt>
</event>
<event>
 7    0  0.4759581E-002  0.4618993E+03  0.7546771E-02  0.1024232E+00
         21   -1    0    0  502  501  0.00000000000E+00  0.00000000000E+00  0.40677385766E+02  0.40677385766E+02  0.00000000000E+00 0.  1.
         21   -1    0    0  501  502 -0.00000000000E+00 -0.00000000000E+00 -0.13112384017E+04  0.13112384017E+04  0.00000000000E+00 0.  1.
      99926    2    1    2    0    0  0.00000000000E+00  0.14210854715E-13 -0.12705610160E+04  0.13519157875E+04  0.46189934097E+03 0.  0.
      99925    2    3    3    0    0 -0.59037791003E+02 -0.10119601134E+03 -0.71657685235E+03  0.77202609530E+03  0.26232768254E+03 0.  0.
         25    1    4    4    0    0 -0.60001685648E+02 -0.35870827917E+02 -0.30646225818E+03  0.33830983191E+03  0.12509000000E+03 0.  0.
         25    1    3    3    0    0  0.59037791003E+02  0.10119601134E+03 -0.55398416361E+03  0.57988969219E+03  0.12509000000E+03 0.  0.
         25    1    4    4    0    0  0.96389464486E+00 -0.65325183424E+02 -0.41011459416E+03  0.43371626339E+03  0.12509000000E+03 0.  0.
<mgrwt>
<rscale>  2 0.46189934E+03</rscale>
<asrwt>0</asrwt>
<pdfrwt beam="1">  1       21 0.59819689E-02 0.46189934E+03</pdfrwt>
<pdfrwt beam="2">  1       21 0.19282916E+00 0.46189934E+03</pdfrwt>
<totfact> 0.26208032E+04</totfact>
</mgrwt>
</event>
<event>
 7    0  0.4759581E-002  0.4731146E+03  0.7546771E-02  0.1021045E+00
         21   -1    0    0  502  501  0.00000000000E+00  0.00000000000E+00  0.17022517796E+03  0.17022517796E+03  0.00000000000E+00 0.  1.
         21   -1    0    0  501  502 -0.00000000000E+00 -0.00000000000E+00 -0.32873726941E+03  0.32873726941E+03  0.00000000000E+00 0.  1.
      99926    2    1    2    0    0  0.14210854715E-13  0.00000000000E+00 -0.15851209145E+03  0.49896244737E+03  0.47311461692E+03 0.  0.
      99925    2    3    3    0    0  0.10372041401E+03 -0.72827062060E+02 -0.71007233167E+02  0.30055298798E+03  0.26311283924E+03 0.  0.
         25    1    4    4    0    0  0.73401990262E+02 -0.24459280052E+02 -0.29054204132E+01  0.14711239962E+03  0.12509000000E+03 0.  0.
         25    1    4    4    0    0  0.30318423749E+02 -0.48367782009E+02 -0.68101812753E+02  0.15344058836E+03  0.12509000000E+03 0.  0.
         25    1    3    3    0    0 -0.10372041401E+03  0.72827062060E+02 -0.87504858283E+02  0.19840945939E+03  0.12509000000E+03 0.  0.
<mgrwt>
<rscale>  2 0.47311462E+03</rscale>
<asrwt>0</asrwt>
<pdfrwt beam="1">  1       21 0.25033114E-01 0.47311462E+03</pdfrwt>
<pdfrwt beam="2">  1       21 0.48343716E-01 0.47311462E+03</pdfrwt>
<totfact> 0.56735441E+04</totfact>
</mgrwt>
</event>
<event>
 6    0  0.4759581E-002  0.4561980E+03  0.7546771E-02  0.1025890E+00
         21   -1    0    0  502  501  0.00000000000E+00  0.00000000000E+00  0.37423913885E+02  0.37423913885E+02  0.00000000000E+00 0.  1.
         21   -1    0    0  501  502 -0.00000000000E+00 -0.00000000000E+00 -0.13902650088E+04  0.13902650088E+04  0.00000000000E+00 0.  1.
      99926    2    1    2    0    0  0.88817841970E-15  0.00000000000E+00 -0.13528410949E+04  0.14276889227E+04  0.45619801827E+03 0.  0.
         25    1    3    3    0    0 -0.25892048259E+02  0.85911920573E+02 -0.48322679727E+03  0.50715569795E+03  0.12509000000E+03 0.  0.
         25    1    3    3    0    0  0.60303654765E+01 -0.11530253440E+03 -0.54018473527E+03  0.56637275364E+03  0.12509000000E+03 0.  0.
         25    1    3    3    0    0  0.19861682782E+02  0.29390613830E+02 -0.32942956240E+03  0.35416047113E+03  0.12509000000E+03 0.  0.
<mgrwt>
<rscale>  2 0.45619802E+03</rscale>
<asrwt>0</asrwt>
<pdfrwt beam="1">  1       21 0.55035170E-02 0.45619802E+03</pdfrwt>
<pdfrwt beam="2">  1       21 0.20445073E+00 0.45619802E+03</pdfrwt>
<totfact> 0.25366459E+04</totfact>
</mgrwt>
</event>
<event>
 7    0  0.4759581E-002  0.4646364E+03  0.7546771E-02  0.1023445E+00
         21   -1    0    0  502  501  0.00000000000E+00  0.00000000000E+00  0.74563970013E+03  0.74563970013E+03  0.00000000000E+00 0. -1.
         21   -1    0    0  501  502 -0.00000000000E+00 -0.00000000000E+00 -0.72383147926E+02  0.72383147926E+02  0.00000000000E+00 0. -1.
      99926    2    1    2    0    0  0.14210854715E-13  0.00000000000E+00  0.67325655221E+03  0.81802284806E+03  0.46463641146E+03 0.  0.
      99925    2    3    3    0    0 -0.10536392623E+03  0.51774452834E+02  0.36124689376E+03  0.46196149663E+03  0.26292005477E+03 0.  0.
         25    1    3    3    0    0  0.10536392623E+03 -0.51774452834E+02  0.31200965845E+03  0.35606135143E+03  0.12509000000E+03 0.  0.
         25    1    4    4    0    0 -0.74162815700E+02  0.28003906011E+02  0.13455257931E+03  0.20009059619E+03  0.12509000000E+03 0.  0.
         25    1    4    4    0    0 -0.31201110528E+02  0.23770546823E+02  0.22669431445E+03  0.26187090045E+03  0.12509000000E+03 0.  0.
<mgrwt>
<rscale>  2 0.46463641E+03</rscale>
<asrwt>0</asrwt>
<pdfrwt beam="1">  1       21 0.10965289E+00 0.46463641E+03</pdfrwt>
<pdfrwt beam="2">  1       21 0.10644581E-01 0.46463641E+03</pdfrwt>
<totfact> 0.43520114E+04</totfact>
</mgrwt>
</event>
<event>
 7    0  0.4759581E-002  0.4521455E+03  0.7546771E-02  0.1027084E+00
         21   -1    0    0  502  501  0.00000000000E+00  0.00000000000E+00  0.82838068644E+03  0.82838068644E+03  0.00000000000E+00 0.  1.
         21   -1    0    0  501  502 -0.00000000000E+00 -0.00000000000E+00 -0.61697331913E+02  0.61697331913E+02  0.00000000000E+00 0.  1.
      99926    2    1    2    0    0  0.14210854715E-13 -0.71054273576E-14  0.76668335453E+03  0.89007801835E+03  0.45214545519E+03 0.  0.
      99925    2    3    3    0    0 -0.99225190897E+02  0.43710720781E+02  0.43623022569E+03  0.52047952799E+03  0.26238495314E+03 0.  0.
         25    1    3    3    0    0  0.99225190897E+02 -0.43710720781E+02  0.33045312884E+03  0.36959849036E+03  0.12509000000E+03 0.  0.
         25    1    4    4    0    0 -0.98289162259E+01  0.26383591317E+02  0.21913388372E+03  0.25388948103E+03  0.12509000000E+03 0.  0.
         25    1    4    4    0    0 -0.89396274671E+02  0.17327129464E+02  0.21709634197E+03  0.26659004696E+03  0.12509000000E+03 0.  0.
<mgrwt>
<rscale>  2 0.45214546E+03</rscale>
<asrwt>0</asrwt>
<pdfrwt beam="1">  1       21 0.12182068E+00 0.45214546E+03</pdfrwt>
<pdfrwt beam="2">  1       21 0.90731376E-02 0.45214546E+03</pdfrwt>
<totfact> 0.44655299E+04</totfact>
</mgrwt>
</event>
<event>
 7    0  0.4759581E-002  0.4577068E+03  0.7546771E-02  0.1025448E+00
         21   -1    0    0  502  501  0.00000000000E+00  0.00000000000E+00  0.17114101084E+03  0.17114101084E+03  0.00000000000E+00 0. -1.
         21   -1    0    0  501  502 -0.00000000000E+00 -0.00000000000E+00 -0.30602759337E+03  0.30602759337E+03  0.00000000000E+00 0. -1.
      99926    2    1    2    0    0  0.00000000000E+00  0.00000000000E+00 -0.13488658253E+03  0.47716860421E+03  0.45770676934E+03 0.  0.
      99925    2    3    3    0    0 -0.41568334195E+02 -0.66108546959E+02  0.43412172152E+01  0.27436289741E+03  0.26297887162E+03 0.  0.
         25    1    4    4    0    0 -0.32510782346E+02 -0.53136219330E+02  0.36116527379E+02  0.14433405843E+03  0.12509000000E+03 0.  0.
         25    1    4    4    0    0 -0.90575518486E+01 -0.12972327629E+02 -0.31775310164E+02  0.13002883898E+03  0.12509000000E+03 0.  0.
         25    1    3    3    0    0  0.41568334195E+02  0.66108546959E+02 -0.13922779974E+03  0.20280570680E+03  0.12509000000E+03 0.  0.
<mgrwt>
<rscale>  2 0.45770677E+03</rscale>
<asrwt>0</asrwt>
<pdfrwt beam="1">  1       21 0.25167796E-01 0.45770677E+03</pdfrwt>
<pdfrwt beam="2">  1       21 0.45004057E-01 0.45770677E+03</pdfrwt>
<totfact> 0.65488680E+04</totfact>
</mgrwt>
</event>
<event>
 7    0  0.4759581E-002  0.4159590E+03  0.7546771E-02  0.1038390E+00
         21   -1    0    0  502  501  0.00000000000E+00  0.00000000000E+00  0.21286891264E+04  0.21286891264E+04  0.00000000000E+00 0. -1.
         21   -1    0    0  501  502 -0.00000000000E+00 -0.00000000000E+00 -0.20320238233E+02  0.20320238233E+02  0.00000000000E+00 0. -1.
      99926    2    1    2    0    0  0.00000000000E+00  0.00000000000E+00  0.21083688882E+04  0.21490093647E+04  0.41595898919E+03 0.  0.
      99925    2    3    3    0    0 -0.18683510366E+02 -0.60789165193E+02  0.12226214316E+04  0.12522148168E+04  0.26304825824E+03 0.  0.
         25    1    3    3    0    0  0.18683510366E+02  0.60789165193E+02  0.88574745658E+03  0.89679454788E+03  0.12509000000E+03 0.  0.
         25    1    4    4    0    0  0.12115069663E+02 -0.38189886425E+02  0.76807091016E+03  0.77922119675E+03  0.12509000000E+03 0.  0.
         25    1    4    4    0    0 -0.30798580029E+02 -0.22599278768E+02  0.45455052145E+03  0.47299362002E+03  0.12509000000E+03 0.  0.
<mgrwt>
<rscale>  2 0.41595899E+03</rscale>
<asrwt>0</asrwt>
<pdfrwt beam="1">  1       21 0.31304237E+00 0.41595899E+03</pdfrwt>
<pdfrwt beam="2">  1       21 0.29882718E-02 0.41595899E+03</pdfrwt>
<totfact> 0.15664240E+04</totfact>
</mgrwt>
</event>
<event>
 7    0  0.4759581E-002  0.4580697E+03  0.7546771E-02  0.1025343E+00
         21   -1    0    0  502  501  0.00000000000E+00  0.00000000000E+00  0.92070617405E+03  0.92070617405E+03  0.00000000000E+00 0. -1.
         21   -1    0    0  501  502 -0.00000000000E+00 -0.00000000000E+00 -0.56974707344E+02  0.56974707344E+02  0.00000000000E+00 0. -1.
      99926    2    1    2    0    0  0.00000000000E+00  0.00000000000E+00  0.86373146670E+03  0.97768088139E+03  0.45806971005E+03 0.  0.
      99925    2    3    3    0    0 -0.60298297954E+02 -0.98660691475E+02  0.55843841317E+03  0.62807943200E+03  0.26317388705E+03 0.  0.
         25    1    3    3    0    0  0.60298297954E+02  0.98660691475E+02  0.30529305353E+03  0.34960144939E+03  0.12509000000E+03 0.  0.
         25    1    4    4    0    0 -0.24041148421E+02 -0.90038663316E+02  0.32918468423E+03  0.36427325202E+03  0.12509000000E+03 0.  0.
         25    1    4    4    0    0 -0.36257149532E+02 -0.86220281592E+01  0.22925372894E+03  0.26380617998E+03  0.12509000000E+03 0.  0.
<mgrwt>
<rscale>  2 0.45806971E+03</rscale>
<asrwt>0</asrwt>
<pdfrwt beam="1">  1       21 0.13539796E+00 0.45806971E+03</pdfrwt>
<pdfrwt beam="2">  1       21 0.83786340E-02 0.45806971E+03</pdfrwt>
<totfact> 0.39093143E+04</totfact>
</mgrwt>
</event>
<event>
 7    0  0.4759581E-002  0.4501371E+03  0.7546771E-02  0.1027681E+00
         21   -1    0    0  502  501  0.00000000000E+00  0.00000000000E+00  0.26983554129E+03  0.26983554129E+03  0.00000000000E+00 0. -1.
         21   -1    0    0  501  502 -0.00000000000E+00 -0.00000000000E+00 -0.18772857559E+03  0.18772857559E+03  0.00000000000E+00 0. -1.
      99926    2    1    2    0    0  0.00000000000E+00  0.00000000000E+00  0.82106965703E+02  0.45756411688E+03  0.45013705384E+03 0.  0.
      99925    2    3    3    0    0 -0.92853809779E+02  0.15921123666E+02 -0.29786407812E+01  0.27934408238E+03  0.26296184493E+03 0.  0.
         25    1    3    3    0    0  0.92853809779E+02 -0.15921123666E+02  0.85085606484E+02  0.17822003451E+03  0.12509000000E+03 0.  0.
         25    1    4    4    0    0 -0.83031836420E+02  0.27851702297E+02  0.73741784877E+01  0.15287867670E+03  0.12509000000E+03 0.  0.
         25    1    4    4    0    0 -0.98219733590E+01 -0.11930578632E+02 -0.10352819269E+02  0.12646540568E+03  0.12509000000E+03 0.  0.
<mgrwt>
<rscale>  2 0.45013705E+03</rscale>
<asrwt>0</asrwt>
<pdfrwt beam="1">  1       21 0.39681697E-01 0.45013705E+03</pdfrwt>
<pdfrwt beam="2">  1       21 0.27607143E-01 0.45013705E+03</pdfrwt>
<totfact> 0.71073732E+04</totfact>
</mgrwt>
</event>
<event>
 7    0  0.4759581E-002  0.4414313E+03  0.7546771E-02  0.1030309E+00
         21   -1    0    0  502  501  0.00000000000E+00  0.00000000000E+00  0.12687428304E+04  0.12687428304E+04  0.00000000000E+00 0. -1.
         21   -1    0    0  501  502 -0.00000000000E+00 -0.00000000000E+00 -0.38396592390E+02  0.38396592390E+02  0.00000000000E+00 0. -1.
      99926    2    1    2    0    0  0.00000000000E+00 -0.35527136788E-14  0.12303462380E+04  0.13071394228E+04  0.44143131427E+03 0.  0.
      99925    2    3    3    0    0  0.77447725633E+02  0.29803477208E+02  0.61909057361E+03  0.67772112561E+03  0.26295700848E+03 0.  0.
         25    1    4    4    0    0  0.43167675952E+02  0.55535974918E+02  0.32246754521E+03  0.35295965573E+03  0.12509000000E+03 0.  0.
         25    1    3    3    0    0 -0.77447725633E+02 -0.29803477208E+02  0.61125566437E+03  0.62941829714E+03  0.12509000000E+03 0.  0.
         25    1    4    4    0    0  0.34280049682E+02 -0.25732497710E+02  0.29662302840E+03  0.32476146988E+03  0.12509000000E+03 0.  0.
<mgrwt>
<rscale>  2 0.44143131E+03</rscale>
<asrwt>0</asrwt>
<pdfrwt beam="1">  1       21 0.18657980E+00 0.44143131E+03</pdfrwt>
<pdfrwt beam="2">  1       21 0.56465585E-02 0.44143131E+03</pdfrwt>
<totfact> 0.32171160E+04</totfact>
</mgrwt>
</event>
<event>
 7    0  0.4759581E-002  0.4578094E+03  0.7546771E-02  0.1025418E+00
         21   -1    0    0  502  501  0.00000000000E+00  0.00000000000E+00  0.63965877970E+02  0.63965877970E+02  0.00000000000E+00 0. -1.
         21   -1    0    0  501  502 -0.00000000000E+00 -0.00000000000E+00 -0.81914568685E+03  0.81914568685E+03  0.00000000000E+00 0. -1.
      99926    2    1    2    0    0  0.00000000000E+00  0.00000000000E+00 -0.75517980888E+03  0.88311156482E+03  0.45780944964E+03 0.  0.
      99925    2    3    3    0    0  0.44459782150E+02  0.99699086981E+02 -0.39584497992E+03  0.48727623596E+03  0.26235148527E+03 0.  0.
         25    1    4    4    0    0  0.46158322034E+02  0.56877832485E+02 -0.15299607147E+03  0.21076286320E+03  0.12509000000E+03 0.  0.
         25    1    3    3    0    0 -0.44459782150E+02 -0.99699086981E+02 -0.35933482896E+03  0.39583532887E+03  0.12509000000E+03 0.  0.
         25    1    4    4    0    0 -0.16985398841E+01  0.42821254496E+02 -0.24284890846E+03  0.27651337276E+03  0.12509000000E+03 0.  0.
<mgrwt>
<rscale>  2 0.45780945E+03</rscale>
<asrwt>0</asrwt>
<pdfrwt beam="1">  1       21 0.94067472E-02 0.45780945E+03</pdfrwt>
<pdfrwt beam="2">  1       21 0.12046259E+00 0.45780945E+03</pdfrwt>
<totfact> 0.43017641E+04</totfact>
</mgrwt>
</event>
<event>
 7    0  0.4759581E-002  0.4627227E+03  0.7546771E-02  0.1023995E+00
         21   -1    0    0  502  501  0.00000000000E+00  0.00000000000E+00  0.39789773210E+02  0.39789773210E+02  0.00000000000E+00 0. -1.
         21   -1    0    0  501  502 -0.00000000000E+00 -0.00000000000E+00 -0.13452722219E+04  0.13452722219E+04  0.00000000000E+00 0. -1.
      99926    2    1    2    0    0  0.35527136788E-14  0.00000000000E+00 -0.13054824487E+04  0.13850619951E+04  0.46272271013E+03 0.  0.
      99925    2    3    3    0    0  0.25228549314E+02 -0.32284292321E+02 -0.11545232165E+04  0.11847748185E+04  0.26284740425E+03 0.  0.
         25    1    4    4    0    0 -0.23728764739E+02 -0.30405365927E+02 -0.52453491058E+03  0.54062179116E+03  0.12509000000E+03 0.  0.
         25    1    3    3    0    0 -0.25228549314E+02  0.32284292321E+02 -0.15095923226E+03  0.20028717666E+03  0.12509000000E+03 0.  0.
         25    1    4    4    0    0  0.48957314053E+02 -0.18789263940E+01 -0.62998830588E+03  0.64415302732E+03  0.12509000000E+03 0.  0.
<mgrwt>
<rscale>  2 0.46272271E+03</rscale>
<asrwt>0</asrwt>
<pdfrwt beam="1">  1       21 0.58514368E-02 0.46272271E+03</pdfrwt>
<pdfrwt beam="2">  1       21 0.19783417E+00 0.46272271E+03</pdfrwt>
<totfact> 0.25186864E+04</totfact>
</mgrwt>
</event>
<event>
 7    0  0.4759581E-002  0.4476813E+03  0.7546771E-02  0.1028416E+00
         21   -1    0    0  502  501  0.00000000000E+00  0.00000000000E+00  0.56338313430E+02  0.56338313430E+02  0.00000000000E+00 0. -1.
         21   -1    0    0  501  502 -0.00000000000E+00 -0.00000000000E+00 -0.88935286101E+03  0.88935286101E+03  0.00000000000E+00 0. -1.
      99926    2    1    2    0    0  0.00000000000E+00  0.00000000000E+00 -0.83301454758E+03  0.94569117444E+03  0.44768131627E+03 0.  0.
      99925    2    3    3    0    0 -0.10217614486E+03 -0.25349941071E+02 -0.49684920992E+03  0.57187674664E+03  0.26287124577E+03 0.  0.
         25    1    3    3    0    0  0.10217614486E+03  0.25349941071E+02 -0.33616533765E+03  0.37381442780E+03  0.12509000000E+03 0.  0.
         25    1    4    4    0    0 -0.32263438751E+02 -0.86429254149E+01 -0.16282249782E+03  0.20802476664E+03  0.12509000000E+03 0.  0.
         25    1    4    4    0    0 -0.69912706114E+02 -0.16707015656E+02 -0.33402671211E+03  0.36385198000E+03  0.12509000000E+03 0.  0.
<mgrwt>
<rscale>  2 0.44768132E+03</rscale>
<asrwt>0</asrwt>
<pdfrwt beam="1">  1       21 0.82850462E-02 0.44768132E+03</pdfrwt>
<pdfrwt beam="2">  1       21 0.13078718E+00 0.44768132E+03</pdfrwt>
<totfact> 0.43767519E+04</totfact>
</mgrwt>
</event>
<event>
 7    0  0.4759581E-002  0.4548443E+03  0.7546771E-02  0.1026287E+00
         21   -1    0    0  502  501  0.00000000000E+00  0.00000000000E+00  0.17369859171E+02  0.17369859171E+02  0.00000000000E+00 0. -1.
         21   -1    0    0  501  502 -0.00000000000E+00 -0.00000000000E+00 -0.29776195284E+04  0.29776195284E+04  0.00000000000E+00 0. -1.
      99926    2    1    2    0    0  0.00000000000E+00  0.00000000000E+00 -0.29602496692E+04  0.29949893875E+04  0.45484428928E+03 0.  0.
      99925    2    3    3    0    0  0.79037989247E+02 -0.65510126052E+02 -0.21761794703E+04  0.21943945054E+04  0.26281472209E+03 0.  0.
         25    1    4    4    0    0  0.12883889522E+02 -0.30897565443E+02 -0.12694155164E+04  0.12760031017E+04  0.12509000000E+03 0.  0.
         25    1    3    3    0    0 -0.79037989247E+02  0.65510126052E+02 -0.78407019895E+03  0.80059488216E+03  0.12509000000E+03 0.  0.
         25    1    4    4    0    0  0.66154099725E+02 -0.34612560609E+02 -0.90676395389E+03  0.91839140372E+03  0.12509000000E+03 0.  0.
<mgrwt>
<rscale>  2 0.45484429E+03</rscale>
<asrwt>0</asrwt>
<pdfrwt beam="1">  1       21 0.25543929E-02 0.45484429E+03</pdfrwt>
<pdfrwt beam="2">  1       21 0.43788491E+00 0.45484429E+03</pdfrwt>
<totfact> 0.32792946E+03</totfact>
</mgrwt>
</event>
<event>
 6    0  0.4759581E-002  0.4716895E+03  0.7546771E-02  0.1021444E+00
         21   -1    0    0  502  501  0.00000000000E+00  0.00000000000E+00  0.12043245440E+03  0.12043245440E+03  0.00000000000E+00 0. -1.
         21   -1    0    0  501  502 -0.00000000000E+00 -0.00000000000E+00 -0.46185842481E+03  0.46185842481E+03  0.00000000000E+00 0. -1.
      99926    2    1    2    0    0  0.00000000000E+00  0.00000000000E+00 -0.34142597040E+03  0.58229087921E+03  0.47168948975E+03 0.  0.
         25    1    3    3    0    0  0.87489375086E+02 -0.77532997702E+02 -0.16583591222E+03  0.23835858358E+03  0.12509000000E+03 0.  0.
         25    1    3    3    0    0  0.59280900057E+01  0.11577875060E+02 -0.65100860620E+02  0.14161504015E+03  0.12509000000E+03 0.  0.
         25    1    3    3    0    0 -0.93417465092E+02  0.65955122642E+02 -0.11048919756E+03  0.20231725548E+03  0.12509000000E+03 0.  0.
<mgrwt>
<rscale>  2 0.47168949E+03</rscale>
<asrwt>0</asrwt>
<pdfrwt beam="1">  1       21 0.17710655E-01 0.47168949E+03</pdfrwt>
<pdfrwt beam="2">  1       21 0.67920356E-01 0.47168949E+03</pdfrwt>
<totfact> 0.52503714E+04</totfact>
</mgrwt>
</event>
<event>
 7    0  0.4759581E-002  0.4513330E+03  0.7546771E-02  0.1027325E+00
         21   -1    0    0  502  501  0.00000000000E+00  0.00000000000E+00  0.26097648810E+03  0.26097648810E+03  0.00000000000E+00 0.  1.
         21   -1    0    0  501  502 -0.00000000000E+00 -0.00000000000E+00 -0.19513390943E+03  0.19513390943E+03  0.00000000000E+00 0.  1.
      99926    2    1    2    0    0  0.00000000000E+00 -0.35527136788E-14  0.65842578671E+02  0.45611039753E+03  0.45133296973E+03 0.  0.
      99925    2    3    3    0    0 -0.50811525659E+02  0.23270433537E+02  0.13715972275E+03  0.30165338941E+03  0.26279013220E+03 0.  0.
         25    1    4    4    0    0 -0.13183565333E+02 -0.24194453201E+02  0.82214507678E+02  0.15220351945E+03  0.12509000000E+03 0.  0.
         25    1    4    4    0    0 -0.37627960326E+02  0.47464886737E+02  0.54945215076E+02  0.14944986996E+03  0.12509000000E+03 0.  0.
         25    1    3    3    0    0  0.50811525659E+02 -0.23270433537E+02 -0.71317144083E+02  0.15445700812E+03  0.12509000000E+03 0.  0.
<mgrwt>
<rscale>  2 0.45133297E+03</rscale>
<asrwt>0</asrwt>
<pdfrwt beam="1">  1       21 0.38378895E-01 0.45133297E+03</pdfrwt>
<pdfrwt beam="2">  1       21 0.28696163E-01 0.45133297E+03</pdfrwt>
<totfact> 0.70504310E+04</totfact>
</mgrwt>
</event>
<event>
 7    0  0.4759581E-002  0.4564134E+03  0.7546771E-02  0.1025827E+00
         21   -1    0    0  502  501  0.00000000000E+00  0.00000000000E+00  0.39896915346E+03  0.39896915346E+03  0.00000000000E+00 0.  1.
         21   -1    0    0  501  502 -0.00000000000E+00 -0.00000000000E+00 -0.13053215016E+03  0.13053215016E+03  0.00000000000E+00 0.  1.
      99926    2    1    2    0    0 -0.71054273576E-14  0.00000000000E+00  0.26843700330E+03  0.52950130361E+03  0.45641341543E+03 0.  0.
      99925    2    3    3    0    0 -0.57966751572E+02 -0.96637389379E+02  0.14675361538E+03  0.32176761759E+03  0.26324674127E+03 0.  0.
         25    1    4    4    0    0 -0.64545315933E+02 -0.46666789556E+02  0.10072113155E+03  0.17926556138E+03  0.12509000000E+03 0.  0.
         25    1    4    4    0    0  0.65785643609E+01 -0.49970599823E+02  0.46032483836E+02  0.14250205621E+03  0.12509000000E+03 0.  0.
         25    1    3    3    0    0  0.57966751572E+02  0.96637389379E+02  0.12168338792E+03  0.20773368602E+03  0.12509000000E+03 0.  0.
<mgrwt>
<rscale>  2 0.45641342E+03</rscale>
<asrwt>0</asrwt>
<pdfrwt beam="1">  1       21 0.58671934E-01 0.45641342E+03</pdfrwt>
<pdfrwt beam="2">  1       21 0.19195905E-01 0.45641342E+03</pdfrwt>
<totfact> 0.62536756E+04</totfact>
</mgrwt>
</event>
<event>
 7    0  0.4759581E-002  0.4521059E+03  0.7546771E-02  0.1027096E+00
         21   -1    0    0  502  501  0.00000000000E+00  0.00000000000E+00  0.28276167543E+03  0.28276167543E+03  0.00000000000E+00 0. -1.
         21   -1    0    0  501  502 -0.00000000000E+00 -0.00000000000E+00 -0.18071732769E+03  0.18071732769E+03  0.00000000000E+00 0. -1.
      99926    2    1    2    0    0  0.00000000000E+00 -0.35527136788E-14  0.10204434774E+03  0.46347900312E+03  0.45210589183E+03 0.  0.
      99925    2    3    3    0    0  0.90859968153E+02 -0.17719940095E+02  0.12614422733E+03  0.30600569622E+03  0.26297830698E+03 0.  0.
         25    1    3    3    0    0 -0.90859968153E+02  0.17719940095E+02 -0.24099879587E+02  0.15747330690E+03  0.12509000000E+03 0.  0.
         25    1    4    4    0    0  0.59442002299E+02  0.28953383707E+02  0.59095563928E+02  0.15333441832E+03  0.12509000000E+03 0.  0.
         25    1    4    4    0    0  0.31417965854E+02 -0.46673323802E+02  0.67048663399E+02  0.15267127790E+03  0.12509000000E+03 0.  0.
<mgrwt>
<rscale>  2 0.45210589E+03</rscale>
<asrwt>0</asrwt>
<pdfrwt beam="1">  1       21 0.41582599E-01 0.45210589E+03</pdfrwt>
<pdfrwt beam="2">  1       21 0.26576078E-01 0.45210589E+03</pdfrwt>
<totfact> 0.69506129E+04</totfact>
</mgrwt>
</event>
<event>
 7    0  0.4759581E-002  0.4536636E+03  0.7546771E-02  0.1026635E+00
         21   -1    0    0  502  501  0.00000000000E+00  0.00000000000E+00  0.89354401228E+03  0.89354401228E+03  0.00000000000E+00 0.  1.
         21   -1    0    0  501  502 -0.00000000000E+00 -0.00000000000E+00 -0.57582684989E+02  0.57582684989E+02  0.00000000000E+00 0.  1.
      99926    2    1    2    0    0 -0.14210854715E-13  0.00000000000E+00  0.83596132729E+03  0.95112669727E+03  0.45366359070E+03 0.  0.
      99925    2    3    3    0    0  0.94038038942E+02  0.45168438690E+02  0.61138823037E+03  0.67370296976E+03  0.26305281335E+03 0.  0.
         25    1    4    4    0    0  0.83920255906E+02  0.24533908430E+02  0.28267907748E+03  0.32124677580E+03  0.12509000000E+03 0.  0.
         25    1    3    3    0    0 -0.94038038942E+02 -0.45168438690E+02  0.22457309692E+03  0.27742372750E+03  0.12509000000E+03 0.  0.
         25    1    4    4    0    0  0.10117783036E+02  0.20634530260E+02  0.32870915289E+03  0.35245619397E+03  0.12509000000E+03 0.  0.
<mgrwt>
<rscale>  2 0.45366359E+03</rscale>
<asrwt>0</asrwt>
<pdfrwt beam="1">  1       21 0.13140352E+00 0.45366359E+03</pdfrwt>
<pdfrwt beam="2">  1       21 0.84680425E-02 0.45366359E+03</pdfrwt>
<totfact> 0.41527500E+04</totfact>
</mgrwt>
</event>
<event>
 7    0  0.4759581E-002  0.4535806E+03  0.7546771E-02  0.1026660E+00
         21   -1    0    0  502  501  0.00000000000E+00  0.00000000000E+00  0.15263583657E+03  0.15263583657E+03  0.00000000000E+00 0.  1.
         21   -1    0    0  501  502 -0.00000000000E+00 -0.00000000000E+00 -0.33697098547E+03  0.33697098547E+03  0.00000000000E+00 0.  1.
      99926    2    1    2    0    0  0.00000000000E+00  0.00000000000E+00 -0.18433514891E+03  0.48960682204E+03  0.45358063568E+03 0.  0.
      99925    2    3    3    0    0 -0.54183040891E+02 -0.85366874478E+02 -0.65485756129E+02  0.28961684369E+03  0.26337468882E+03 0.  0.
         25    1    4    4    0    0  0.46148232035E+01 -0.14078172825E+02 -0.19694333112E+02  0.12749457400E+03  0.12509000000E+03 0.  0.
         25    1    3    3    0    0  0.54183040891E+02  0.85366874478E+02 -0.11884939278E+03  0.19998997835E+03  0.12509000000E+03 0.  0.
         25    1    4    4    0    0 -0.58797864094E+02 -0.71288701653E+02 -0.45791423018E+02  0.16212226968E+03  0.12509000000E+03 0.  0.
<mgrwt>
<rscale>  2 0.45358064E+03</rscale>
<asrwt>0</asrwt>
<pdfrwt beam="1">  1       21 0.22446447E-01 0.45358064E+03</pdfrwt>
<pdfrwt beam="2">  1       21 0.49554556E-01 0.45358064E+03</pdfrwt>
<totfact> 0.66756198E+04</totfact>
</mgrwt>
</event>
<event>
 7    0  0.4759581E-002  0.5329590E+03  0.7546771E-02  0.1005517E+00
         21   -1    0    0  502  501  0.00000000000E+00  0.00000000000E+00  0.21284672487E+03  0.21284672487E+03  0.00000000000E+00 0. -1.
         21   -1    0    0  501  502 -0.00000000000E+00 -0.00000000000E+00 -0.33362652944E+03  0.33362652944E+03  0.00000000000E+00 0. -1.
      99926    2    1    2    0    0  0.00000000000E+00  0.00000000000E+00 -0.12077980457E+03  0.54647325432E+03  0.53295896323E+03 0.  0.
      99925    2    3    3    0    0 -0.10725302741E+03 -0.13727389293E+03 -0.10048685847E+03  0.33105123750E+03  0.26296383698E+03 0.  0.
         25    1    3    3    0    0  0.10725302741E+03  0.13727389293E+03 -0.20292946106E+02  0.21542201682E+03  0.12509000000E+03 0.  0.
         25    1    4    4    0    0 -0.41373146815E+02 -0.49713706720E+02 -0.86626077814E+01  0.14108769892E+03  0.12509000000E+03 0.  0.
         25    1    4    4    0    0 -0.65879880594E+02 -0.87560186206E+02 -0.91824250684E+02  0.18996353858E+03  0.12509000000E+03 0.  0.
<mgrwt>
<rscale>  2 0.53295896E+03</rscale>
<asrwt>0</asrwt>
<pdfrwt beam="1">  1       21 0.31300989E-01 0.53295896E+03</pdfrwt>
<pdfrwt beam="2">  1       21 0.49062725E-01 0.53295896E+03</pdfrwt>
<totfact> 0.34944302E+04</totfact>
</mgrwt>
</event>
<event>
 7    0  0.4759581E-002  0.4553918E+03  0.7546771E-02  0.1026126E+00
         21   -1    0    0  502  501  0.00000000000E+00  0.00000000000E+00  0.53977785908E+03  0.53977785908E+03  0.00000000000E+00 0.  1.
         21   -1    0    0  501  502 -0.00000000000E+00 -0.00000000000E+00 -0.96049566082E+02  0.96049566082E+02  0.00000000000E+00 0.  1.
      99926    2    1    2    0    0  0.00000000000E+00  0.00000000000E+00  0.44372829300E+03  0.63582742517E+03  0.45539182753E+03 0.  0.
      99925    2    3    3    0    0  0.10407760485E+03  0.39421002464E+02  0.31291913545E+03  0.42335458675E+03  0.26253486915E+03 0.  0.
         25    1    4    4    0    0  0.77852888825E+02  0.52918024631E+02  0.16693932601E+03  0.22886160949E+03  0.12509000000E+03 0.  0.
         25    1    3    3    0    0 -0.10407760485E+03 -0.39421002464E+02  0.13080915755E+03  0.21247283842E+03  0.12509000000E+03 0.  0.
         25    1    4    4    0    0  0.26224716026E+02 -0.13497022167E+02  0.14597980944E+03  0.19449297726E+03  0.12509000000E+03 0.  0.
<mgrwt>
<rscale>  2 0.45539183E+03</rscale>
<asrwt>0</asrwt>
<pdfrwt beam="1">  1       21 0.79379096E-01 0.45539183E+03</pdfrwt>
<pdfrwt beam="2">  1       21 0.14124936E-01 0.45539183E+03</pdfrwt>
<totfact> 0.56350977E+04</totfact>
</mgrwt>
</event>
<event>
 7    0  0.4759581E-002  0.4552144E+03  0.7546771E-02  0.1026178E+00
         21   -1    0    0  502  501  0.00000000000E+00  0.00000000000E+00  0.17525260719E+04  0.17525260719E+04  0.00000000000E+00 0.  1.
         21   -1    0    0  501  502 -0.00000000000E+00 -0.00000000000E+00 -0.29560205762E+02  0.29560205762E+02  0.00000000000E+00 0.  1.
      99926    2    1    2    0    0  0.00000000000E+00 -0.14210854715E-13  0.17229658661E+04  0.17820862776E+04  0.45521437274E+03 0.  0.
      99925    2    3    3    0    0 -0.93541611557E+01  0.11237597136E+03  0.10380602714E+04  0.10767785143E+04  0.26299616443E+03 0.  0.
         25    1    4    4    0    0 -0.35978129697E+02  0.50295112141E+02  0.60890302035E+03  0.62468745818E+03  0.12509000000E+03 0.  0.
         25    1    3    3    0    0  0.93541611557E+01 -0.11237597136E+03  0.68490559465E+03  0.70530776329E+03  0.12509000000E+03 0.  0.
         25    1    4    4    0    0  0.26623968542E+02  0.62080859218E+02  0.42915725110E+03  0.45209105616E+03  0.12509000000E+03 0.  0.
<mgrwt>
<rscale>  2 0.45521437E+03</rscale>
<asrwt>0</asrwt>
<pdfrwt beam="1">  1       21 0.25772435E+00 0.45521437E+03</pdfrwt>
<pdfrwt beam="2">  1       21 0.43470903E-02 0.45521437E+03</pdfrwt>
<totfact> 0.17576938E+04</totfact>
</mgrwt>
</event>
<event>
 7    0  0.4759581E-002  0.4549058E+03  0.7546771E-02  0.1026269E+00
         21   -1    0    0  502  501  0.00000000000E+00  0.00000000000E+00  0.29303045964E+03  0.29303045964E+03  0.00000000000E+00 0. -1.
         21   -1    0    0  501  502 -0.00000000000E+00 -0.00000000000E+00 -0.17655098314E+03  0.17655098314E+03  0.00000000000E+00 0. -1.
      99926    2    1    2    0    0  0.00000000000E+00  0.14210854715E-13  0.11647947650E+03  0.46958144278E+03  0.45490577372E+03 0.  0.
      99925    2    3    3    0    0 -0.38174637396E+02  0.10365508916E+03  0.48562989257E+02  0.28940975303E+03  0.26305505274E+03 0.  0.
         25    1    4    4    0    0 -0.49452206351E+02  0.71260146018E+02  0.40423822254E+01  0.15227402299E+03  0.12509000000E+03 0.  0.
         25    1    3    3    0    0  0.38174637396E+02 -0.10365508916E+03  0.67916487240E+02  0.18017168975E+03  0.12509000000E+03 0.  0.
         25    1    4    4    0    0  0.11277568956E+02  0.32394943146E+02  0.44520607032E+02  0.13713573004E+03  0.12509000000E+03 0.  0.
<mgrwt>
<rscale>  2 0.45490577E+03</rscale>
<asrwt>0</asrwt>
<pdfrwt beam="1">  1       21 0.43092715E-01 0.45490577E+03</pdfrwt>
<pdfrwt beam="2">  1       21 0.25963380E-01 0.45490577E+03</pdfrwt>
<totfact> 0.67517321E+04</totfact>
</mgrwt>
</event>
<event>
 7    0  0.4759581E-002  0.4536150E+03  0.7546771E-02  0.1026649E+00
         21   -1    0    0  502  501  0.00000000000E+00  0.00000000000E+00  0.17224991002E+04  0.17224991002E+04  0.00000000000E+00 0. -1.
         21   -1    0    0  501  502 -0.00000000000E+00 -0.00000000000E+00 -0.29864545610E+02  0.29864545610E+02  0.00000000000E+00 0. -1.
      99926    2    1    2    0    0  0.00000000000E+00  0.17763568394E-14  0.16926345546E+04  0.17523636458E+04  0.45361504800E+03 0.  0.
      99925    2    3    3    0    0  0.83252136782E+02  0.15936421436E+02  0.13485195756E+04  0.13765345428E+04  0.26297797233E+03 0.  0.
         25    1    4    4    0    0  0.69610278476E+02 -0.14900051487E+02  0.61104792795E+03  0.62776960802E+03  0.12509000000E+03 0.  0.
         25    1    4    4    0    0  0.13641858306E+02  0.30836472923E+02  0.73747164769E+03  0.74876493482E+03  0.12509000000E+03 0.  0.
         25    1    3    3    0    0 -0.83252136782E+02 -0.15936421436E+02  0.34411497898E+03  0.37582910301E+03  0.12509000000E+03 0.  0.
<mgrwt>
<rscale>  2 0.45361505E+03</rscale>
<asrwt>0</asrwt>
<pdfrwt beam="1">  1       21 0.25330862E+00 0.45361505E+03</pdfrwt>
<pdfrwt beam="2">  1       21 0.43918461E-02 0.45361505E+03</pdfrwt>
<totfact> 0.18389948E+04</totfact>
</mgrwt>
</event>
<event>
 7    0  0.4759581E-002  0.4555305E+03  0.7546771E-02  0.1026086E+00
         21   -1    0    0  502  501  0.00000000000E+00  0.00000000000E+00  0.13807558954E+04  0.13807558954E+04  0.00000000000E+00 0. -1.
         21   -1    0    0  501  502 -0.00000000000E+00 -0.00000000000E+00 -0.37571459282E+02  0.37571459282E+02  0.00000000000E+00 0. -1.
      99926    2    1    2    0    0  0.00000000000E+00  0.35527136788E-14  0.13431844361E+04  0.14183273547E+04  0.45553052106E+03 0.  0.
      99925    2    3    3    0    0  0.38614272160E+02  0.13723255414E+02  0.11748486490E+04  0.12046363744E+04  0.26305903632E+03 0.  0.
         25    1    3    3    0    0 -0.38614272160E+02 -0.13723255414E+02  0.16833578714E+03  0.21369098035E+03  0.12509000000E+03 0.  0.
         25    1    4    4    0    0  0.32888286547E+02 -0.28376522397E+02  0.52002586800E+03  0.53662023620E+03  0.12509000000E+03 0.  0.
         25    1    4    4    0    0  0.57259856132E+01  0.42099777811E+02  0.65482278101E+03  0.66801613815E+03  0.12509000000E+03 0.  0.
<mgrwt>
<rscale>  2 0.45553052E+03</rscale>
<asrwt>0</asrwt>
<pdfrwt beam="1">  1       21 0.20305230E+00 0.45553052E+03</pdfrwt>
<pdfrwt beam="2">  1       21 0.55252155E-02 0.45553052E+03</pdfrwt>
<totfact> 0.25741414E+04</totfact>
</mgrwt>
</event>
<event>
 7    0  0.4759581E-002  0.4540108E+03  0.7546771E-02  0.1026533E+00
         21   -1    0    0  502  501  0.00000000000E+00  0.00000000000E+00  0.11953282882E+03  0.11953282882E+03  0.00000000000E+00 0.  1.
         21   -1    0    0  501  502 -0.00000000000E+00 -0.00000000000E+00 -0.43110719010E+03  0.43110719010E+03  0.00000000000E+00 0.  1.
      99926    2    1    2    0    0 -0.14210854715E-13  0.00000000000E+00 -0.31157436129E+03  0.55064001892E+03  0.45401084550E+03 0.  0.
      99925    2    3    3    0    0 -0.89231844820E+02 -0.42746598193E+02 -0.26064165028E+03  0.38321468351E+03  0.26292552179E+03 0.  0.
         25    1    4    4    0    0 -0.14356789253E+02  0.36910179753E+01 -0.95394328970E+02  0.15801052848E+03  0.12509000000E+03 0.  0.
         25    1    3    3    0    0  0.89231844820E+02  0.42746598193E+02 -0.50932711002E+02  0.16742533541E+03  0.12509000000E+03 0.  0.
         25    1    4    4    0    0 -0.74875055567E+02 -0.46437616168E+02 -0.16524732131E+03  0.22520415503E+03  0.12509000000E+03 0.  0.
<mgrwt>
<rscale>  2 0.45401085E+03</rscale>
<asrwt>0</asrwt>
<pdfrwt beam="1">  1       21 0.17578357E-01 0.45401085E+03</pdfrwt>
<pdfrwt beam="2">  1       21 0.63398116E-01 0.45401085E+03</pdfrwt>
<totfact> 0.62310447E+04</totfact>
</mgrwt>
</event>
<event>
 7    0  0.4759581E-002  0.4488661E+03  0.7546771E-02  0.1028061E+00
         21   -1    0    0  502  501  0.00000000000E+00  0.00000000000E+00  0.58752129188E+02  0.58752129188E+02  0.00000000000E+00 0.  1.
         21   -1    0    0  501  502 -0.00000000000E+00 -0.00000000000E+00 -0.85733406371E+03  0.85733406371E+03  0.00000000000E+00 0.  1.
      99926    2    1    2    0    0  0.00000000000E+00 -0.71054273576E-14 -0.79858193452E+03  0.91608619289E+03  0.44886613447E+03 0.  0.
      99925    2    3    3    0    0 -0.47358636118E+02 -0.57260117042E+02 -0.66307720272E+03  0.71726315133E+03  0.26319857534E+03 0.  0.
         25    1    4    4    0    0 -0.62253168299E+02 -0.35132447429E+02 -0.31345616835E+03  0.34498119282E+03  0.12509000000E+03 0.  0.
         25    1    4    4    0    0  0.14894532180E+02 -0.22127669613E+02 -0.34962103438E+03  0.37228195851E+03  0.12509000000E+03 0.  0.
         25    1    3    3    0    0  0.47358636118E+02  0.57260117042E+02 -0.13550473179E+03  0.19882304156E+03  0.12509000000E+03 0.  0.
<mgrwt>
<rscale>  2 0.44886613E+03</rscale>
<asrwt>0</asrwt>
<pdfrwt beam="1">  1       21 0.86400200E-02 0.44886613E+03</pdfrwt>
<pdfrwt beam="2">  1       21 0.12607852E+00 0.44886613E+03</pdfrwt>
<totfact> 0.44649808E+04</totfact>
</mgrwt>
</event>
<event>
 7    0  0.4759581E-002  0.4512833E+03  0.7546771E-02  0.1027340E+00
         21   -1    0    0  502  501  0.00000000000E+00  0.00000000000E+00  0.11698235990E+03  0.11698235990E+03  0.00000000000E+00 0.  1.
         21   -1    0    0  501  502 -0.00000000000E+00 -0.00000000000E+00 -0.43522925340E+03  0.43522925340E+03  0.00000000000E+00 0.  1.
      99926    2    1    2    0    0  0.00000000000E+00  0.00000000000E+00 -0.31824689350E+03  0.55221161329E+03  0.45128325987E+03 0.  0.
      99925    2    3    3    0    0  0.42546917781E+02 -0.85161034744E+02 -0.26762726927E+03  0.38706774720E+03  0.26293429524E+03 0.  0.
         25    1    3    3    0    0 -0.42546917781E+02  0.85161034744E+02 -0.50619624230E+02  0.16514386609E+03  0.12509000000E+03 0.  0.
         25    1    4    4    0    0 -0.14877118020E+02 -0.60097595202E+02 -0.12710133834E+03  0.18877316519E+03  0.12509000000E+03 0.  0.
         25    1    4    4    0    0  0.57424035801E+02 -0.25063439542E+02 -0.14052593093E+03  0.19829458201E+03  0.12509000000E+03 0.  0.
<mgrwt>
<rscale>  2 0.45128326E+03</rscale>
<asrwt>0</asrwt>
<pdfrwt beam="1">  1       21 0.17203289E-01 0.45128326E+03</pdfrwt>
<pdfrwt beam="2">  1       21 0.64004300E-01 0.45128326E+03</pdfrwt>
<totfact> 0.63569316E+04</totfact>
</mgrwt>
</event>
<event>
 7    0  0.4759581E-002  0.4795138E+03  0.7546771E-02  0.1019269E+00
         21   -1    0    0  502  501  0.00000000000E+00  0.00000000000E+00  0.53669692577E+03  0.53669692577E+03  0.00000000000E+00 0.  1.
         21   -1    0    0  501  502 -0.00000000000E+00 -0.00000000000E+00 -0.10710581750E+03  0.10710581750E+03  0.00000000000E+00 0.  1.
      99926    2    1    2    0    0  0.00000000000E+00  0.00000000000E+00  0.42959110827E+03  0.64380274327E+03  0.47951376616E+03 0.  0.
      99925    2    3    3    0    0  0.62349786919E+02 -0.11804238559E+03  0.23850284018E+03  0.37925835186E+03  0.26292925276E+03 0.  0.
         25    1    4    4    0    0  0.33840447057E+02 -0.39227081743E+02  0.15950508326E+03  0.20922074344E+03  0.12509000000E+03 0.  0.
         25    1    4    4    0    0  0.28509339862E+02 -0.78815303844E+02  0.78997756919E+02  0.17003760842E+03  0.12509000000E+03 0.  0.
         25    1    3    3    0    0 -0.62349786919E+02  0.11804238559E+03  0.19108826809E+03  0.26454439140E+03  0.12509000000E+03 0.  0.
<mgrwt>
<rscale>  2 0.47951377E+03</rscale>
<asrwt>0</asrwt>
<pdfrwt beam="1">  1       21 0.78926018E-01 0.47951377E+03</pdfrwt>
<pdfrwt beam="2">  1       21 0.15750856E-01 0.47951377E+03</pdfrwt>
<totfact> 0.46408385E+04</totfact>
</mgrwt>
</event>
<event>
 7    0  0.4759581E-002  0.4439045E+03  0.7546771E-02  0.1029556E+00
         21   -1    0    0  502  501  0.00000000000E+00  0.00000000000E+00  0.77337644874E+03  0.77337644874E+03  0.00000000000E+00 0.  1.
         21   -1    0    0  501  502 -0.00000000000E+00 -0.00000000000E+00 -0.63698357789E+02  0.63698357789E+02  0.00000000000E+00 0.  1.
      99926    2    1    2    0    0  0.00000000000E+00  0.00000000000E+00  0.70967809095E+03  0.83707480653E+03  0.44390453810E+03 0.  0.
      99925    2    3    3    0    0  0.72380214489E+02 -0.60368476069E+02  0.52689538400E+03  0.59636694539E+03  0.26296680308E+03 0.  0.
         25    1    4    4    0    0  0.51448339678E+02 -0.69726510362E+02  0.28608799868E+03  0.32404099894E+03  0.12509000000E+03 0.  0.
         25    1    3    3    0    0 -0.72380214489E+02  0.60368476069E+02  0.18278270695E+03  0.24070786114E+03  0.12509000000E+03 0.  0.
         25    1    4    4    0    0  0.20931874811E+02  0.93580342930E+01  0.24080738532E+03  0.27232594645E+03  0.12509000000E+03 0.  0.
<mgrwt>
<rscale>  2 0.44390454E+03</rscale>
<asrwt>0</asrwt>
<pdfrwt beam="1">  1       21 0.11373182E+00 0.44390454E+03</pdfrwt>
<pdfrwt beam="2">  1       21 0.93674060E-02 0.44390454E+03</pdfrwt>
<totfact> 0.50257311E+04</totfact>
</mgrwt>
</event>
<event>
 7    0  0.4759581E-002  0.4533254E+03  0.7546771E-02  0.1026735E+00
         21   -1    0    0  502  501  0.00000000000E+00  0.00000000000E+00  0.79250448544E+03  0.79250448544E+03  0.00000000000E+00 0. -1.
         21   -1    0    0  501  502 -0.00000000000E+00 -0.00000000000E+00 -0.64827360289E+02  0.64827360289E+02  0.00000000000E+00 0. -1.
      99926    2    1    2    0    0  0.00000000000E+00  0.00000000000E+00  0.72767712515E+03  0.85733184573E+03  0.45332537458E+03 0.  0.
      99925    2    3    3    0    0  0.16442835959E+02 -0.53628413073E+02  0.64103780632E+03  0.69515831765E+03  0.26300046372E+03 0.  0.
         25    1    3    3    0    0 -0.16442835959E+02  0.53628413073E+02  0.86639318830E+02  0.16217352808E+03  0.12509000000E+03 0.  0.
         25    1    4    4    0    0  0.72616038912E+00  0.53337059120E+01  0.24070087948E+03  0.27131788959E+03  0.12509000000E+03 0.  0.
         25    1    4    4    0    0  0.15716675570E+02 -0.58962118985E+02  0.40033692684E+03  0.42384042806E+03  0.12509000000E+03 0.  0.
<mgrwt>
<rscale>  2 0.45332537E+03</rscale>
<asrwt>0</asrwt>
<pdfrwt beam="1">  1       21 0.11654477E+00 0.45332537E+03</pdfrwt>
<pdfrwt beam="2">  1       21 0.95334358E-02 0.45332537E+03</pdfrwt>
<totfact> 0.45710620E+04</totfact>
</mgrwt>
</event>
<event>
 7    0  0.4759581E-002  0.4595078E+03  0.7546771E-02  0.1024924E+00
         21   -1    0    0  502  501  0.00000000000E+00  0.00000000000E+00  0.59796467726E+02  0.59796467726E+02  0.00000000000E+00 0.  1.
         21   -1    0    0  501  502 -0.00000000000E+00 -0.00000000000E+00 -0.88277546827E+03  0.88277546827E+03  0.00000000000E+00 0.  1.
      99926    2    1    2    0    0  0.14210854715E-13  0.00000000000E+00 -0.82297900055E+03  0.94257193600E+03  0.45950780101E+03 0.  0.
      99925    2    3    3    0    0 -0.72728333825E+02 -0.91786809238E+02 -0.53448318668E+03  0.60702526025E+03  0.26285577954E+03 0.  0.
         25    1    4    4    0    0 -0.19815057224E+02 -0.50060280743E+02 -0.33923811964E+03  0.36555256546E+03  0.12509000000E+03 0.  0.
         25    1    4    4    0    0 -0.52913276602E+02 -0.41726528495E+02 -0.19524506704E+03  0.24147269478E+03  0.12509000000E+03 0.  0.
         25    1    3    3    0    0  0.72728333825E+02  0.91786809238E+02 -0.28849581386E+03  0.33554667575E+03  0.12509000000E+03 0.  0.
<mgrwt>
<rscale>  2 0.45950780E+03</rscale>
<asrwt>0</asrwt>
<pdfrwt beam="1">  1       21 0.87935985E-02 0.45950780E+03</pdfrwt>
<pdfrwt beam="2">  1       21 0.12981992E+00 0.45950780E+03</pdfrwt>
<totfact> 0.40013705E+04</totfact>
</mgrwt>
</event>
<event>
 7    0  0.4759581E-002  0.4489933E+03  0.7546771E-02  0.1028023E+00
         21   -1    0    0  502  501  0.00000000000E+00  0.00000000000E+00  0.20136208600E+04  0.20136208600E+04  0.00000000000E+00 0.  1.
         21   -1    0    0  501  502 -0.00000000000E+00 -0.00000000000E+00 -0.25028912191E+02  0.25028912191E+02  0.00000000000E+00 0.  1.
      99926    2    1    2    0    0  0.00000000000E+00  0.00000000000E+00  0.19885919478E+04  0.20386497722E+04  0.44899327251E+03 0.  0.
      99925    2    3    3    0    0  0.77761122715E+02 -0.69375510348E+01  0.92333552458E+03  0.96323651342E+03  0.26302313207E+03 0.  0.
         25    1    4    4    0    0  0.52365572165E+02 -0.94329658867E+01  0.60854667170E+03  0.62354446010E+03  0.12509000000E+03 0.  0.
         25    1    4    4    0    0  0.25395550551E+02  0.24954148519E+01  0.31478885288E+03  0.33969205331E+03  0.12509000000E+03 0.  0.
         25    1    3    3    0    0 -0.77761122715E+02  0.69375510348E+01  0.10652564232E+04  0.10754132588E+04  0.12509000000E+03 0.  0.
<mgrwt>
<rscale>  2 0.44899327E+03</rscale>
<asrwt>0</asrwt>
<pdfrwt beam="1">  1       21 0.29612060E+00 0.44899327E+03</pdfrwt>
<pdfrwt beam="2">  1       21 0.36807238E-02 0.44899327E+03</pdfrwt>
<totfact> 0.13717514E+04</totfact>
</mgrwt>
</event>
<event>
 7    0  0.4759581E-002  0.4434316E+03  0.7546771E-02  0.1029699E+00
         21   -1    0    0  502  501  0.00000000000E+00  0.00000000000E+00  0.43794837853E+03  0.43794837853E+03  0.00000000000E+00 0. -1.
         21   -1    0    0  501  502 -0.00000000000E+00 -0.00000000000E+00 -0.11224588791E+03  0.11224588791E+03  0.00000000000E+00 0. -1.
      99926    2    1    2    0    0 -0.35527136788E-14  0.14210854715E-13  0.32570249062E+03  0.55019426644E+03  0.44343163896E+03 0.  0.
      99925    2    3    3    0    0 -0.45079546179E+01  0.88818830744E+02  0.26893087386E+03  0.38654943481E+03  0.26303525295E+03 0.  0.
         25    1    4    4    0    0  0.31408892919E+02  0.45104091812E+02  0.16576921181E+03  0.21482047700E+03  0.12509000000E+03 0.  0.
         25    1    3    3    0    0  0.45079546179E+01 -0.88818830744E+02  0.56771616760E+02  0.16364483163E+03  0.12509000000E+03 0.  0.
         25    1    4    4    0    0 -0.35916847537E+02  0.43714738932E+02  0.10316166204E+03  0.17172895781E+03  0.12509000000E+03 0.  0.
<mgrwt>
<rscale>  2 0.44343164E+03</rscale>
<asrwt>0</asrwt>
<pdfrwt beam="1">  1       21 0.64404173E-01 0.44343164E+03</pdfrwt>
<pdfrwt beam="2">  1       21 0.16506748E-01 0.44343164E+03</pdfrwt>
<totfact> 0.67854075E+04</totfact>
</mgrwt>
</event>
<event>
 7    0  0.4759581E-002  0.4523692E+03  0.7546771E-02  0.1027018E+00
         21   -1    0    0  502  501  0.00000000000E+00  0.00000000000E+00  0.17804940203E+03  0.17804940203E+03  0.00000000000E+00 0. -1.
         21   -1    0    0  501  502 -0.00000000000E+00 -0.00000000000E+00 -0.28733300571E+03  0.28733300571E+03  0.00000000000E+00 0. -1.
      99926    2    1    2    0    0  0.14210854715E-13  0.00000000000E+00 -0.10928360368E+03  0.46538240774E+03  0.45236918485E+03 0.  0.
      99925    2    3    3    0    0  0.89510188369E+02 -0.65023965549E+02 -0.71891731380E+02  0.29425131725E+03  0.26301183766E+03 0.  0.
         25    1    4    4    0    0  0.17718056883E+02 -0.28773103529E+02 -0.66016143065E+02  0.14542166369E+03  0.12509000000E+03 0.  0.
         25    1    3    3    0    0 -0.89510188369E+02  0.65023965549E+02 -0.37391872301E+02  0.17113109049E+03  0.12509000000E+03 0.  0.
         25    1    4    4    0    0  0.71792131485E+02 -0.36250862020E+02 -0.58755883144E+01  0.14882965356E+03  0.12509000000E+03 0.  0.
<mgrwt>
<rscale>  2 0.45236918E+03</rscale>
<asrwt>0</asrwt>
<pdfrwt beam="1">  1       21 0.26183736E-01 0.45236918E+03</pdfrwt>
<pdfrwt beam="2">  1       21 0.42254853E-01 0.45236918E+03</pdfrwt>
<totfact> 0.69213996E+04</totfact>
</mgrwt>
</event>
<event>
 7    0  0.4759581E-002  0.4618755E+03  0.7546771E-02  0.1024239E+00
         21   -1    0    0  502  501  0.00000000000E+00  0.00000000000E+00  0.93832163215E+02  0.93832163215E+02  0.00000000000E+00 0.  1.
         21   -1    0    0  501  502 -0.00000000000E+00 -0.00000000000E+00 -0.56837902926E+03  0.56837902926E+03  0.00000000000E+00 0.  1.
      99926    2    1    2    0    0  0.00000000000E+00 -0.14210854715E-13 -0.47454686605E+03  0.66221119248E+03  0.46187545439E+03 0.  0.
      99925    2    3    3    0    0  0.84840808092E+02  0.80641924585E+02 -0.33189631150E+03  0.43928122246E+03  0.26289113355E+03 0.  0.
         25    1    4    4    0    0  0.43402021614E+02  0.49629321999E+02 -0.10916880297E+03  0.17863969527E+03  0.12509000000E+03 0.  0.
         25    1    4    4    0    0  0.41438786478E+02  0.31012602587E+02 -0.22272750853E+03  0.26064152720E+03  0.12509000000E+03 0.  0.
         25    1    3    3    0    0 -0.84840808092E+02 -0.80641924585E+02 -0.14265055455E+03  0.22292997001E+03  0.12509000000E+03 0.  0.
<mgrwt>
<rscale>  2 0.46187545E+03</rscale>
<asrwt>0</asrwt>
<pdfrwt beam="1">  1       21 0.13798847E-01 0.46187545E+03</pdfrwt>
<pdfrwt beam="2">  1       21 0.83585152E-01 0.46187545E+03</pdfrwt>
<totfact> 0.52119078E+04</totfact>
</mgrwt>
</event>
<event>
 7    0  0.4759581E-002  0.4475215E+03  0.7546771E-02  0.1028464E+00
         21   -1    0    0  502  501  0.00000000000E+00  0.00000000000E+00  0.76514624317E+02  0.76514624317E+02  0.00000000000E+00 0. -1.
         21   -1    0    0  501  502 -0.00000000000E+00 -0.00000000000E+00 -0.65436990942E+03  0.65436990942E+03  0.00000000000E+00 0. -1.
      99926    2    1    2    0    0  0.00000000000E+00 -0.35527136788E-14 -0.57785528511E+03  0.73088453374E+03  0.44752147561E+03 0.  0.
      99925    2    3    3    0    0  0.72924884446E+02 -0.26763440493E+02 -0.48298682907E+03  0.55572217315E+03  0.26365988726E+03 0.  0.
         25    1    4    4    0    0  0.61011694118E+02  0.94894193415E+01 -0.29953948221E+03  0.33042984944E+03  0.12509000000E+03 0.  0.
         25    1    4    4    0    0  0.11913190327E+02 -0.36252859834E+02 -0.18344734686E+03  0.22529232370E+03  0.12509000000E+03 0.  0.
         25    1    3    3    0    0 -0.72924884446E+02  0.26763440493E+02 -0.94868456034E+02  0.17516236059E+03  0.12509000000E+03 0.  0.
<mgrwt>
<rscale>  2 0.44752148E+03</rscale>
<asrwt>0</asrwt>
<pdfrwt beam="1">  1       21 0.11252151E-01 0.44752148E+03</pdfrwt>
<pdfrwt beam="2">  1       21 0.96230867E-01 0.44752148E+03</pdfrwt>
<totfact> 0.54386387E+04</totfact>
</mgrwt>
</event>
<event>
 7    0  0.4759581E-002  0.4530267E+03  0.7546771E-02  0.1026823E+00
         21   -1    0    0  502  501  0.00000000000E+00  0.00000000000E+00  0.53942743903E+03  0.53942743903E+03  0.00000000000E+00 0. -1.
         21   -1    0    0  501  502 -0.00000000000E+00 -0.00000000000E+00 -0.95116198571E+02  0.95116198571E+02  0.00000000000E+00 0. -1.
      99926    2    1    2    0    0  0.14210854715E-13  0.71054273576E-14  0.44431124046E+03  0.63454363760E+03  0.45302665443E+03 0.  0.
      99925    2    3    3    0    0  0.93799081311E+02  0.59897351510E+02  0.27823938702E+03  0.39871885312E+03  0.26300875835E+03 0.  0.
         25    1    4    4    0    0  0.22622572890E+02 -0.46588826077E+01  0.13758717228E+03  0.18737989238E+03  0.12509000000E+03 0.  0.
         25    1    3    3    0    0 -0.93799081311E+02 -0.59897351510E+02  0.16607185344E+03  0.23582478448E+03  0.12509000000E+03 0.  0.
         25    1    4    4    0    0  0.71176508421E+02  0.64556234118E+02  0.14065221474E+03  0.21133896074E+03  0.12509000000E+03 0.  0.
<mgrwt>
<rscale>  2 0.45302665E+03</rscale>
<asrwt>0</asrwt>
<pdfrwt beam="1">  1       21 0.79327563E-01 0.45302665E+03</pdfrwt>
<pdfrwt beam="2">  1       21 0.13987677E-01 0.45302665E+03</pdfrwt>
<totfact> 0.57491051E+04</totfact>
</mgrwt>
</event>
<event>
 7    0  0.4759581E-002  0.5034656E+03  0.7546771E-02  0.1012878E+00
         21   -1    0    0  502  501  0.00000000000E+00  0.00000000000E+00  0.23690120003E+03  0.23690120003E+03  0.00000000000E+00 0.  1.
         21   -1    0    0  501  502 -0.00000000000E+00 -0.00000000000E+00 -0.26749299279E+03  0.26749299279E+03  0.00000000000E+00 0.  1.
      99926    2    1    2    0    0  0.88817841970E-15 -0.14210854715E-13 -0.30591792760E+02  0.50439419281E+03  0.50346563335E+03 0.  0.
      99925    2    3    3    0    0  0.15707888645E+01  0.98268343220E+02  0.99768590977E+02  0.29872340635E+03  0.26386126487E+03 0.  0.
         25    1    3    3    0    0 -0.15707888645E+01 -0.98268343220E+02 -0.13036038374E+03  0.20567078646E+03  0.12509000000E+03 0.  0.
         25    1    4    4    0    0 -0.11921554446E+02  0.72667208507E+02  0.88102971006E+02  0.16980073101E+03  0.12509000000E+03 0.  0.
         25    1    4    4    0    0  0.13492343311E+02  0.25601134713E+02  0.11665619970E+02  0.12892267534E+03  0.12509000000E+03 0.  0.
<mgrwt>
<rscale>  2 0.50346563E+03</rscale>
<asrwt>0</asrwt>
<pdfrwt beam="1">  1       21 0.34838412E-01 0.50346563E+03</pdfrwt>
<pdfrwt beam="2">  1       21 0.39337204E-01 0.50346563E+03</pdfrwt>
<totfact> 0.44989444E+04</totfact>
</mgrwt>
</event>
<event>
 7    0  0.4759581E-002  0.4331641E+03  0.7546771E-02  0.1032865E+00
         21   -1    0    0  502  501  0.00000000000E+00  0.00000000000E+00  0.12877243154E+03  0.12877243154E+03  0.00000000000E+00 0. -1.
         21   -1    0    0  501  502 -0.00000000000E+00 -0.00000000000E+00 -0.36426889790E+03  0.36426889790E+03  0.00000000000E+00 0. -1.
      99926    2    1    2    0    0  0.17763568394E-14  0.88817841970E-15 -0.23549646636E+03  0.49304132944E+03  0.43316413386E+03 0.  0.
      99925    2    3    3    0    0  0.11378892102E+02  0.60784073986E+01 -0.25404132855E+03  0.36592781231E+03  0.26305843645E+03 0.  0.
         25    1    3    3    0    0 -0.11378892102E+02 -0.60784073986E+01  0.18544862188E+02  0.12711351712E+03  0.12509000000E+03 0.  0.
         25    1    4    4    0    0 -0.12522563698E+02  0.19118108593E+02 -0.17190563593E+03  0.21382556546E+03  0.12509000000E+03 0.  0.
         25    1    4    4    0    0  0.23901455801E+02 -0.13039701195E+02 -0.82135692621E+02  0.15210224686E+03  0.12509000000E+03 0.  0.
<mgrwt>
<rscale>  2 0.43316413E+03</rscale>
<asrwt>0</asrwt>
<pdfrwt beam="1">  1       21 0.18937123E-01 0.43316413E+03</pdfrwt>
<pdfrwt beam="2">  1       21 0.53568955E-01 0.43316413E+03</pdfrwt>
<totfact> 0.78512263E+04</totfact>
</mgrwt>
</event>
<event>
 7    0  0.4759581E-002  0.4534096E+03  0.7546771E-02  0.1026710E+00
         21   -1    0    0  502  501  0.00000000000E+00  0.00000000000E+00  0.39066902879E+03  0.39066902879E+03  0.00000000000E+00 0. -1.
         21   -1    0    0  501  502 -0.00000000000E+00 -0.00000000000E+00 -0.13155653529E+03  0.13155653529E+03  0.00000000000E+00 0. -1.
      99926    2    1    2    0    0  0.00000000000E+00  0.00000000000E+00  0.25911249350E+03  0.52222556408E+03  0.45340958911E+03 0.  0.
      99925    2    3    3    0    0 -0.94255157315E+02  0.20734057247E+02  0.98009429978E+02  0.29658061957E+03  0.26275517069E+03 0.  0.
         25    1    3    3    0    0  0.94255157315E+02 -0.20734057247E+02  0.16110306352E+03  0.22564494452E+03  0.12509000000E+03 0.  0.
         25    1    4    4    0    0 -0.31235581936E+02 -0.26882435969E+02  0.39611202318E+02  0.13753138693E+03  0.12509000000E+03 0.  0.
         25    1    4    4    0    0 -0.63019575379E+02  0.47616493216E+02  0.58398227660E+02  0.15904923263E+03  0.12509000000E+03 0.  0.
<mgrwt>
<rscale>  2 0.45340959E+03</rscale>
<asrwt>0</asrwt>
<pdfrwt beam="1">  1       21 0.57451327E-01 0.45340959E+03</pdfrwt>
<pdfrwt beam="2">  1       21 0.19346549E-01 0.45340959E+03</pdfrwt>
<totfact> 0.64545815E+04</totfact>
</mgrwt>
</event>
<event>
 7    0  0.4759581E-002  0.4515088E+03  0.7546771E-02  0.1027273E+00
         21   -1    0    0  502  501  0.00000000000E+00  0.00000000000E+00  0.34663707232E+03  0.34663707232E+03  0.00000000000E+00 0.  1.
         21   -1    0    0  501  502 -0.00000000000E+00 -0.00000000000E+00 -0.14702711558E+03  0.14702711558E+03  0.00000000000E+00 0.  1.
      99926    2    1    2    0    0  0.00000000000E+00  0.71054273576E-14  0.19960995674E+03  0.49366418790E+03  0.45150879901E+03 0.  0.
      99925    2    3    3    0    0  0.31055812712E+02 -0.52278487802E+02  0.22595511036E+03  0.35210473393E+03  0.26310554529E+03 0.  0.
         25    1    4    4    0    0  0.34702405666E+02  0.97745128935E+01  0.10265682127E+03  0.16578820559E+03  0.12509000000E+03 0.  0.
         25    1    3    3    0    0 -0.31055812712E+02  0.52278487802E+02 -0.26345153626E+02  0.14155945397E+03  0.12509000000E+03 0.  0.
         25    1    4    4    0    0 -0.36465929537E+01 -0.62053000695E+02  0.12329828910E+03  0.18631652833E+03  0.12509000000E+03 0.  0.
<mgrwt>
<rscale>  2 0.45150880E+03</rscale>
<asrwt>0</asrwt>
<pdfrwt beam="1">  1       21 0.50976040E-01 0.45150880E+03</pdfrwt>
<pdfrwt beam="2">  1       21 0.21621635E-01 0.45150880E+03</pdfrwt>
<totfact> 0.67571504E+04</totfact>
</mgrwt>
</event>
<event>
 7    0  0.4759581E-002  0.4109308E+03  0.7546771E-02  0.1040059E+00
         21   -1    0    0  502  501  0.00000000000E+00  0.00000000000E+00  0.69590726650E+03  0.69590726650E+03  0.00000000000E+00 0.  1.
         21   -1    0    0  501  502 -0.00000000000E+00 -0.00000000000E+00 -0.60663299960E+02  0.60663299960E+02  0.00000000000E+00 0.  1.
      99926    2    1    2    0    0  0.17763568394E-14  0.00000000000E+00  0.63524396654E+03  0.75657056646E+03  0.41093080319E+03 0.  0.
      99925    2    3    3    0    0 -0.88056492685E+01 -0.42964335119E+02  0.33394799655E+03  0.42740458525E+03  0.26311583294E+03 0.  0.
         25    1    3    3    0    0  0.88056492685E+01  0.42964335119E+02  0.30129596999E+03  0.32916598121E+03  0.12509000000E+03 0.  0.
         25    1    4    4    0    0 -0.21713667531E+02  0.59599347876E+01  0.12219303868E+03  0.17631123329E+03  0.12509000000E+03 0.  0.
         25    1    4    4    0    0  0.12908018263E+02 -0.48924269906E+02  0.21175495786E+03  0.25109335197E+03  0.12509000000E+03 0.  0.
<mgrwt>
<rscale>  2 0.41093080E+03</rscale>
<asrwt>0</asrwt>
<pdfrwt beam="1">  1       21 0.10233930E+00 0.41093080E+03</pdfrwt>
<pdfrwt beam="2">  1       21 0.89210739E-02 0.41093080E+03</pdfrwt>
<totfact> 0.71716967E+04</totfact>
</mgrwt>
</event>
<event>
 7    0  0.4759581E-002  0.4545818E+03  0.7546771E-02  0.1026364E+00
         21   -1    0    0  502  501  0.00000000000E+00  0.00000000000E+00  0.59845077565E+02  0.59845077565E+02  0.00000000000E+00 0.  1.
         21   -1    0    0  501  502 -0.00000000000E+00 -0.00000000000E+00 -0.86324812045E+03  0.86324812045E+03  0.00000000000E+00 0.  1.
      99926    2    1    2    0    0  0.00000000000E+00  0.00000000000E+00 -0.80340304289E+03  0.92309319802E+03  0.45458178902E+03 0.  0.
      99925    2    3    3    0    0  0.32111423736E+02 -0.86068743939E+02 -0.37131047128E+03  0.46397396432E+03  0.26260502901E+03 0.  0.
         25    1    4    4    0    0  0.79088637864E+01 -0.52925783993E+02 -0.12535024629E+03  0.18499697588E+03  0.12509000000E+03 0.  0.
         25    1    3    3    0    0 -0.32111423736E+02  0.86068743939E+02 -0.43209257160E+03  0.45911923370E+03  0.12509000000E+03 0.  0.
         25    1    4    4    0    0  0.24202559950E+02 -0.33142959947E+02 -0.24596022499E+03  0.27897698844E+03  0.12509000000E+03 0.  0.
<mgrwt>
<rscale>  2 0.45458179E+03</rscale>
<asrwt>0</asrwt>
<pdfrwt beam="1">  1       21 0.88007468E-02 0.45458179E+03</pdfrwt>
<pdfrwt beam="2">  1       21 0.12694825E+00 0.45458179E+03</pdfrwt>
<totfact> 0.42388545E+04</totfact>
</mgrwt>
</event>
<event>
 7    0  0.4759581E-002  0.4600240E+03  0.7546771E-02  0.1024774E+00
         21   -1    0    0  502  501  0.00000000000E+00  0.00000000000E+00  0.75785495773E+02  0.75785495773E+02  0.00000000000E+00 0.  1.
         21   -1    0    0  501  502 -0.00000000000E+00 -0.00000000000E+00 -0.69809572397E+03  0.69809572397E+03  0.00000000000E+00 0.  1.
      99926    2    1    2    0    0  0.14210854715E-13  0.00000000000E+00 -0.62231022820E+03  0.77388121974E+03  0.46002404519E+03 0.  0.
      99925    2    3    3    0    0 -0.10697778300E+03  0.49479284869E+02 -0.39274275070E+03  0.48710398823E+03  0.26292771143E+03 0.  0.
         25    1    4    4    0    0 -0.89411712923E+02  0.27080752672E+02 -0.17625044781E+03  0.23545604691E+03  0.12509000000E+03 0.  0.
         25    1    4    4    0    0 -0.17566070079E+02  0.22398532198E+02 -0.21649230289E+03  0.25164794133E+03  0.12509000000E+03 0.  0.
         25    1    3    3    0    0  0.10697778300E+03 -0.49479284869E+02 -0.22956747750E+03  0.28677723151E+03  0.12509000000E+03 0.  0.
<mgrwt>
<rscale>  2 0.46002405E+03</rscale>
<asrwt>0</asrwt>
<pdfrwt beam="1">  1       21 0.11144927E-01 0.46002405E+03</pdfrwt>
<pdfrwt beam="2">  1       21 0.10266113E+00 0.46002405E+03</pdfrwt>
<totfact> 0.47166300E+04</totfact>
</mgrwt>
</event>
<event>
 7    0  0.4759581E-002  0.4581170E+03  0.7546771E-02  0.1025329E+00
         21   -1    0    0  502  501  0.00000000000E+00  0.00000000000E+00  0.54263759044E+03  0.54263759044E+03  0.00000000000E+00 0.  1.
         21   -1    0    0  501  502 -0.00000000000E+00 -0.00000000000E+00 -0.96690307671E+02  0.96690307671E+02  0.00000000000E+00 0.  1.
      99926    2    1    2    0    0 -0.14210854715E-13  0.00000000000E+00  0.44594728277E+03  0.63932789811E+03  0.45811699629E+03 0.  0.
      99925    2    3    3    0    0  0.95162854140E+02  0.65923227508E+01  0.37215576390E+03  0.46556908860E+03  0.26297383163E+03 0.  0.
         25    1    4    4    0    0  0.78938812854E+02 -0.75794497333E+01  0.15755823769E+03  0.21624266600E+03  0.12509000000E+03 0.  0.
         25    1    4    4    0    0  0.16224041285E+02  0.14171772484E+02  0.21459752621E+03  0.24932642260E+03  0.12509000000E+03 0.  0.
         25    1    3    3    0    0 -0.95162854140E+02 -0.65923227508E+01  0.73791518868E+02  0.17375880952E+03  0.12509000000E+03 0.  0.
<mgrwt>
<rscale>  2 0.45811700E+03</rscale>
<asrwt>0</asrwt>
<pdfrwt beam="1">  1       21 0.79799644E-01 0.45811700E+03</pdfrwt>
<pdfrwt beam="2">  1       21 0.14219163E-01 0.45811700E+03</pdfrwt>
<totfact> 0.54956137E+04</totfact>
</mgrwt>
</event>
<event>
 7    0  0.4759581E-002  0.4536917E+03  0.7546771E-02  0.1026627E+00
         21   -1    0    0  502  501  0.00000000000E+00  0.00000000000E+00  0.60721662051E+02  0.60721662051E+02  0.00000000000E+00 0. -1.
         21   -1    0    0  501  502 -0.00000000000E+00 -0.00000000000E+00 -0.84745778707E+03  0.84745778707E+03  0.00000000000E+00 0. -1.
      99926    2    1    2    0    0 -0.44408920985E-14  0.14210854715E-13 -0.78673612502E+03  0.90817944912E+03  0.45369172507E+03 0.  0.
      99925    2    3    3    0    0  0.46787040727E+01  0.92801500702E+02 -0.62065370129E+03  0.68044080862E+03  0.26297275203E+03 0.  0.
         25    1    4    4    0    0 -0.33792740301E+02  0.47065527263E+02 -0.35414612879E+03  0.38003171156E+03  0.12509000000E+03 0.  0.
         25    1    3    3    0    0 -0.46787040727E+01 -0.92801500702E+02 -0.16608242373E+03  0.22773864050E+03  0.12509000000E+03 0.  0.
         25    1    4    4    0    0  0.38471444374E+02  0.45735973439E+02 -0.26650757250E+03  0.30040909706E+03  0.12509000000E+03 0.  0.
<mgrwt>
<rscale>  2 0.45369173E+03</rscale>
<asrwt>0</asrwt>
<pdfrwt beam="1">  1       21 0.89296564E-02 0.45369173E+03</pdfrwt>
<pdfrwt beam="2">  1       21 0.12462614E+00 0.45369173E+03</pdfrwt>
<totfact> 0.43323985E+04</totfact>
</mgrwt>
</event>
<event>
 7    0  0.4759581E-002  0.4499216E+03  0.7546771E-02  0.1027745E+00
         21   -1    0    0  502  501  0.00000000000E+00  0.00000000000E+00  0.13912225436E+03  0.13912225436E+03  0.00000000000E+00 0.  1.
         21   -1    0    0  501  502 -0.00000000000E+00 -0.00000000000E+00 -0.36376182061E+03  0.36376182061E+03  0.00000000000E+00 0.  1.
      99926    2    1    2    0    0  0.00000000000E+00 -0.14210854715E-13 -0.22463956625E+03  0.50288407497E+03  0.44992161332E+03 0.  0.
      99925    2    3    3    0    0 -0.82822773081E+02 -0.69590282942E+02 -0.13282217191E+03  0.31372709988E+03  0.26283178010E+03 0.  0.
         25    1    4    4    0    0 -0.38023416665E+02 -0.60777533659E+02 -0.10321078196E+03  0.17731233015E+03  0.12509000000E+03 0.  0.
         25    1    4    4    0    0 -0.44799356415E+02 -0.88127492828E+01 -0.29611389949E+02  0.13641476973E+03  0.12509000000E+03 0.  0.
         25    1    3    3    0    0  0.82822773081E+02  0.69590282942E+02 -0.91817394347E+02  0.18915697509E+03  0.12509000000E+03 0.  0.
<mgrwt>
<rscale>  2 0.44992161E+03</rscale>
<asrwt>0</asrwt>
<pdfrwt beam="1">  1       21 0.20459155E-01 0.44992161E+03</pdfrwt>
<pdfrwt beam="2">  1       21 0.53494385E-01 0.44992161E+03</pdfrwt>
<totfact> 0.67758816E+04</totfact>
</mgrwt>
</event>
<event>
 7    0  0.4759581E-002  0.4573815E+03  0.7546771E-02  0.1025543E+00
         21   -1    0    0  502  501  0.00000000000E+00  0.00000000000E+00  0.99863511158E+02  0.99863511158E+02  0.00000000000E+00 0. -1.
         21   -1    0    0  501  502 -0.00000000000E+00 -0.00000000000E+00 -0.52370942088E+03  0.52370942088E+03  0.00000000000E+00 0. -1.
      99926    2    1    2    0    0  0.00000000000E+00  0.00000000000E+00 -0.42384590972E+03  0.62357293204E+03  0.45738151076E+03 0.  0.
      99925    2    3    3    0    0 -0.77613050493E+02  0.47756027338E+02 -0.16945463296E+03  0.32580313245E+03  0.26292277332E+03 0.  0.
         25    1    3    3    0    0  0.77613050493E+02 -0.47756027338E+02 -0.25439127676E+03  0.29776979959E+03  0.12509000000E+03 0.  0.
         25    1    4    4    0    0 -0.13402350373E+02 -0.39826160211E+01 -0.99524351310E+02  0.16046211026E+03  0.12509000000E+03 0.  0.
         25    1    4    4    0    0 -0.64210700120E+02  0.51738643359E+02 -0.69930281649E+02  0.16534102219E+03  0.12509000000E+03 0.  0.
<mgrwt>
<rscale>  2 0.45738151E+03</rscale>
<asrwt>0</asrwt>
<pdfrwt beam="1">  1       21 0.14685810E-01 0.45738151E+03</pdfrwt>
<pdfrwt beam="2">  1       21 0.77016091E-01 0.45738151E+03</pdfrwt>
<totfact> 0.56186259E+04</totfact>
</mgrwt>
</event>
<event>
 7    0  0.4759581E-002  0.4586361E+03  0.7546771E-02  0.1025178E+00
         21   -1    0    0  502  501  0.00000000000E+00  0.00000000000E+00  0.82416479041E+02  0.82416479041E+02  0.00000000000E+00 0. -1.
         21   -1    0    0  501  502 -0.00000000000E+00 -0.00000000000E+00 -0.63806123567E+03  0.63806123567E+03  0.00000000000E+00 0. -1.
      99926    2    1    2    0    0  0.00000000000E+00  0.00000000000E+00 -0.55564475663E+03  0.72047771471E+03  0.45863606686E+03 0.  0.
      99925    2    3    3    0    0  0.63919746324E+02  0.36912038741E+02 -0.49040310254E+03  0.56125392847E+03  0.26279752030E+03 0.  0.
         25    1    4    4    0    0  0.16284389015E+02  0.85616960805E+01 -0.31032630985E+03  0.33509462940E+03  0.12509000000E+03 0.  0.
         25    1    4    4    0    0  0.47635357309E+02  0.28350342661E+02 -0.18007679268E+03  0.22615929908E+03  0.12509000000E+03 0.  0.
         25    1    3    3    0    0 -0.63919746324E+02 -0.36912038741E+02 -0.65241654090E+02  0.15922378623E+03  0.12509000000E+03 0.  0.
<mgrwt>
<rscale>  2 0.45863607E+03</rscale>
<asrwt>0</asrwt>
<pdfrwt beam="1">  1       21 0.12120070E-01 0.45863607E+03</pdfrwt>
<pdfrwt beam="2">  1       21 0.93832536E-01 0.45863607E+03</pdfrwt>
<totfact> 0.50349742E+04</totfact>
</mgrwt>
</event>
<event>
 7    0  0.4759581E-002  0.4100336E+03  0.7546771E-02  0.1040360E+00
         21   -1    0    0  502  501  0.00000000000E+00  0.00000000000E+00  0.22027170594E+03  0.22027170594E+03  0.00000000000E+00 0. -1.
         21   -1    0    0  501  502 -0.00000000000E+00 -0.00000000000E+00 -0.19081838520E+03  0.19081838520E+03  0.00000000000E+00 0. -1.
      99926    2    1    2    0    0  0.35527136788E-14  0.00000000000E+00  0.29453320743E+02  0.41109009114E+03  0.41003361439E+03 0.  0.
      99925    2    3    3    0    0 -0.12992423084E+02  0.59515199893E+02  0.58904548109E+01  0.26997461067E+03  0.26294625092E+03 0.  0.
         25    1    4    4    0    0 -0.39137055733E+02  0.48050086790E+02 -0.13339027852E+02  0.14023536550E+03  0.12509000000E+03 0.  0.
         25    1    4    4    0    0  0.26144632649E+02  0.11465113103E+02  0.19229482663E+02  0.12973924517E+03  0.12509000000E+03 0.  0.
         25    1    3    3    0    0  0.12992423084E+02 -0.59515199893E+02  0.23562865932E+02  0.14111548046E+03  0.12509000000E+03 0.  0.
<mgrwt>
<rscale>  2 0.41003361E+03</rscale>
<asrwt>0</asrwt>
<pdfrwt beam="1">  1       21 0.32392898E-01 0.41003361E+03</pdfrwt>
<pdfrwt beam="2">  1       21 0.28061527E-01 0.41003361E+03</pdfrwt>
<totfact> 0.10470983E+05</totfact>
</mgrwt>
</event>
<event>
 7    0  0.4759581E-002  0.4749292E+03  0.7546771E-02  0.1020538E+00
         21   -1    0    0  502  501  0.00000000000E+00  0.00000000000E+00  0.95882368758E+02  0.95882368758E+02  0.00000000000E+00 0.  1.
         21   -1    0    0  501  502 -0.00000000000E+00 -0.00000000000E+00 -0.58811068242E+03  0.58811068242E+03  0.00000000000E+00 0.  1.
      99926    2    1    2    0    0  0.00000000000E+00 -0.88817841970E-15 -0.49222831366E+03  0.68399305117E+03  0.47492923819E+03 0.  0.
      99925    2    3    3    0    0  0.95791407873E+02  0.70895777352E+01 -0.17621043207E+03  0.33080603907E+03  0.26297578440E+03 0.  0.
         25    1    4    4    0    0  0.76530345255E+02  0.34093385441E+02 -0.95204887240E+02  0.17813121941E+03  0.12509000000E+03 0.  0.
         25    1    3    3    0    0 -0.95791407873E+02 -0.70895777352E+01 -0.31601788159E+03  0.35318701210E+03  0.12509000000E+03 0.  0.
         25    1    4    4    0    0  0.19261062618E+02 -0.27003807706E+02 -0.81005544827E+02  0.15267481965E+03  0.12509000000E+03 0.  0.
<mgrwt>
<rscale>  2 0.47492924E+03</rscale>
<asrwt>0</asrwt>
<pdfrwt beam="1">  1       21 0.14100348E-01 0.47492924E+03</pdfrwt>
<pdfrwt beam="2">  1       21 0.86486866E-01 0.47492924E+03</pdfrwt>
<totfact> 0.46102780E+04</totfact>
</mgrwt>
</event>
<event>
 7    0  0.4759581E-002  0.4604704E+03  0.7546771E-02  0.1024645E+00
         21   -1    0    0  502  501  0.00000000000E+00  0.00000000000E+00  0.20471411229E+03  0.20471411229E+03  0.00000000000E+00 0.  1.
         21   -1    0    0  501  502 -0.00000000000E+00 -0.00000000000E+00 -0.25893794890E+03  0.25893794890E+03  0.00000000000E+00 0.  1.
      99926    2    1    2    0    0  0.00000000000E+00 -0.14210854715E-13 -0.54223836615E+02  0.46365206119E+03  0.46047042184E+03 0.  0.
      99925    2    3    3    0    0  0.54630184911E+02  0.10408415019E+03 -0.28096862797E+02  0.29001999536E+03  0.26363648568E+03 0.  0.
         25    1    4    4    0    0  0.32622100530E+01  0.86223536473E+02 -0.82899586408E+01  0.15218860592E+03  0.12509000000E+03 0.  0.
         25    1    3    3    0    0 -0.54630184911E+02 -0.10408415019E+03 -0.26126973818E+02  0.17363206583E+03  0.12509000000E+03 0.  0.
         25    1    4    4    0    0  0.51367974858E+02  0.17860613721E+02 -0.19806904156E+02  0.13783138944E+03  0.12509000000E+03 0.  0.
<mgrwt>
<rscale>  2 0.46047042E+03</rscale>
<asrwt>0</asrwt>
<pdfrwt beam="1">  1       21 0.30105017E-01 0.46047042E+03</pdfrwt>
<pdfrwt beam="2">  1       21 0.38079110E-01 0.46047042E+03</pdfrwt>
<totfact> 0.65031432E+04</totfact>
</mgrwt>
</event>
<event>
 7    0  0.4759581E-002  0.4567203E+03  0.7546771E-02  0.1025737E+00
         21   -1    0    0  502  501  0.00000000000E+00  0.00000000000E+00  0.90641915092E+03  0.90641915092E+03  0.00000000000E+00 0. -1.
         21   -1    0    0  501  502 -0.00000000000E+00 -0.00000000000E+00 -0.57532270868E+02  0.57532270868E+02  0.00000000000E+00 0. -1.
      99926    2    1    2    0    0  0.00000000000E+00  0.00000000000E+00  0.84888688006E+03  0.96395142179E+03  0.45672027374E+03 0.  0.
      99925    2    3    3    0    0 -0.77557996315E+02  0.81220642407E+02  0.58159554314E+03  0.64819169916E+03  0.26322436725E+03 0.  0.
         25    1    4    4    0    0 -0.20203630707E+01  0.54788204378E+02  0.25032159206E+03  0.28515651273E+03  0.12509000000E+03 0.  0.
         25    1    4    4    0    0 -0.75537633245E+02  0.26432438029E+02  0.33127395108E+03  0.36303518643E+03  0.12509000000E+03 0.  0.
         25    1    3    3    0    0  0.77557996315E+02 -0.81220642407E+02  0.26729133692E+03  0.31575972263E+03  0.12509000000E+03 0.  0.
<mgrwt>
<rscale>  2 0.45672027E+03</rscale>
<asrwt>0</asrwt>
<pdfrwt beam="1">  1       21 0.13329693E+00 0.45672027E+03</pdfrwt>
<pdfrwt beam="2">  1       21 0.84606286E-02 0.45672027E+03</pdfrwt>
<totfact> 0.40039754E+04</totfact>
</mgrwt>
</event>
<event>
 7    0  0.4759581E-002  0.4554914E+03  0.7546771E-02  0.1026097E+00
         21   -1    0    0  502  501  0.00000000000E+00  0.00000000000E+00  0.67242052559E+02  0.67242052559E+02  0.00000000000E+00 0. -1.
         21   -1    0    0  501  502 -0.00000000000E+00 -0.00000000000E+00 -0.77136398270E+03  0.77136398270E+03  0.00000000000E+00 0. -1.
      99926    2    1    2    0    0  0.14210854715E-13 -0.35527136788E-14 -0.70412193014E+03  0.83860603526E+03  0.45549137189E+03 0.  0.
      99925    2    3    3    0    0  0.10918524840E+03 -0.23976037992E+02 -0.40595704336E+03  0.49648606116E+03  0.26306086560E+03 0.  0.
         25    1    3    3    0    0 -0.10918524840E+03  0.23976037992E+02 -0.29816488678E+03  0.34211997410E+03  0.12509000000E+03 0.  0.
         25    1    4    4    0    0  0.57095317041E+02 -0.50864461972E+02 -0.18749011089E+03  0.23800655138E+03  0.12509000000E+03 0.  0.
         25    1    4    4    0    0  0.52089931361E+02  0.26888423979E+02 -0.21846693247E+03  0.25847950978E+03  0.12509000000E+03 0.  0.
<mgrwt>
<rscale>  2 0.45549137E+03</rscale>
<asrwt>0</asrwt>
<pdfrwt beam="1">  1       21 0.98885373E-02 0.45549137E+03</pdfrwt>
<pdfrwt beam="2">  1       21 0.11343588E+00 0.45549137E+03</pdfrwt>
<totfact> 0.45776723E+04</totfact>
</mgrwt>
</event>
<event>
 7    0  0.4759581E-002  0.4526766E+03  0.7546771E-02  0.1026927E+00
         21   -1    0    0  502  501  0.00000000000E+00  0.00000000000E+00  0.28260676122E+04  0.28260676122E+04  0.00000000000E+00 0. -1.
         21   -1    0    0  501  502 -0.00000000000E+00 -0.00000000000E+00 -0.18127317523E+02  0.18127317523E+02  0.00000000000E+00 0. -1.
      99926    2    1    2    0    0  0.00000000000E+00  0.00000000000E+00  0.28079402947E+04  0.28441949297E+04  0.45267659514E+03 0.  0.
      99925    2    3    3    0    0 -0.89035501701E+02  0.84135728711E+01  0.21834581971E+04  0.22010592465E+04  0.26300950409E+03 0.  0.
         25    1    4    4    0    0 -0.35726140426E+02 -0.20460007892E+02  0.13108531145E+04  0.13174514658E+04  0.12509000000E+03 0.  0.
         25    1    4    4    0    0 -0.53309361275E+02  0.28873580764E+02  0.87260508262E+03  0.88360778062E+03  0.12509000000E+03 0.  0.
         25    1    3    3    0    0  0.89035501701E+02 -0.84135728711E+01  0.62448209760E+03  0.64313568327E+03  0.12509000000E+03 0.  0.
<mgrwt>
<rscale>  2 0.45267660E+03</rscale>
<asrwt>0</asrwt>
<pdfrwt beam="1">  1       21 0.41559787E+00 0.45267660E+03</pdfrwt>
<pdfrwt beam="2">  1       21 0.26657839E-02 0.45267660E+03</pdfrwt>
<totfact> 0.42894008E+03</totfact>
</mgrwt>
</event>
<event>
 7    0  0.4759581E-002  0.4616542E+03  0.7546771E-02  0.1024303E+00
         21   -1    0    0  502  501  0.00000000000E+00  0.00000000000E+00  0.28488970770E+03  0.28488970770E+03  0.00000000000E+00 0.  1.
         21   -1    0    0  501  502 -0.00000000000E+00 -0.00000000000E+00 -0.18702377822E+03  0.18702377822E+03  0.00000000000E+00 0.  1.
      99926    2    1    2    0    0  0.71054273576E-14  0.00000000000E+00  0.97865929483E+02  0.47191348593E+03  0.46165419747E+03 0.  0.
      99925    2    3    3    0    0  0.61444948594E+02  0.61520653017E+02 -0.22228918984E+02  0.27792752462E+03  0.26303861246E+03 0.  0.
         25    1    4    4    0    0  0.33388671159E+02  0.69386493017E+02 -0.27222573219E+02  0.14939165093E+03  0.12509000000E+03 0.  0.
         25    1    4    4    0    0  0.28056277434E+02 -0.78658400004E+01  0.49936542357E+01  0.12853587369E+03  0.12509000000E+03 0.  0.
         25    1    3    3    0    0 -0.61444948594E+02 -0.61520653017E+02  0.12009484847E+03  0.19398596131E+03  0.12509000000E+03 0.  0.
<mgrwt>
<rscale>  2 0.46165420E+03</rscale>
<asrwt>0</asrwt>
<pdfrwt beam="1">  1       21 0.41895546E-01 0.46165420E+03</pdfrwt>
<pdfrwt beam="2">  1       21 0.27503497E-01 0.46165420E+03</pdfrwt>
<totfact> 0.63855155E+04</totfact>
</mgrwt>
</event>
<event>
 7    0  0.4759581E-002  0.4538337E+03  0.7546771E-02  0.1026585E+00
         21   -1    0    0  502  501  0.00000000000E+00  0.00000000000E+00  0.31513418922E+03  0.31513418922E+03  0.00000000000E+00 0.  1.
         21   -1    0    0  501  502 -0.00000000000E+00 -0.00000000000E+00 -0.16339467337E+03  0.16339467337E+03  0.00000000000E+00 0.  1.
      99926    2    1    2    0    0  0.71054273576E-14  0.00000000000E+00  0.15173951585E+03  0.47852886258E+03  0.45383366078E+03 0.  0.
      99925    2    3    3    0    0  0.43833544766E+02  0.83283694069E+02  0.15992289785E+03  0.32177418423E+03  0.26287970450E+03 0.  0.
         25    1    3    3    0    0 -0.43833544766E+02 -0.83283694069E+02 -0.81833820023E+01  0.15675467835E+03  0.12509000000E+03 0.  0.
         25    1    4    4    0    0  0.38470698093E+02  0.47572094438E+01  0.65855648626E+02  0.14658478846E+03  0.12509000000E+03 0.  0.
         25    1    4    4    0    0  0.53628466732E+01  0.78526484625E+02  0.94067249227E+02  0.17518939577E+03  0.12509000000E+03 0.  0.
<mgrwt>
<rscale>  2 0.45383366E+03</rscale>
<asrwt>0</asrwt>
<pdfrwt beam="1">  1       21 0.46343263E-01 0.45383366E+03</pdfrwt>
<pdfrwt beam="2">  1       21 0.24028628E-01 0.45383366E+03</pdfrwt>
<totfact> 0.67429409E+04</totfact>
</mgrwt>
</event>
<event>
 7    0  0.4759581E-002  0.4660603E+03  0.7546771E-02  0.1023038E+00
         21   -1    0    0  502  501  0.00000000000E+00  0.00000000000E+00  0.18509517906E+03  0.18509517906E+03  0.00000000000E+00 0. -1.
         21   -1    0    0  501  502 -0.00000000000E+00 -0.00000000000E+00 -0.29337903230E+03  0.29337903230E+03  0.00000000000E+00 0. -1.
      99926    2    1    2    0    0  0.22204460493E-15 -0.14210854715E-13 -0.10828385324E+03  0.47847421136E+03  0.46606027300E+03 0.  0.
      99925    2    3    3    0    0  0.90034119884E+00  0.12313347900E+03 -0.63067590686E+02  0.29721560394E+03  0.26305309344E+03 0.  0.
         25    1    4    4    0    0  0.31069867437E+02  0.73777560739E+02 -0.57594268450E+02  0.15928927456E+03  0.12509000000E+03 0.  0.
         25    1    3    3    0    0 -0.90034119884E+00 -0.12313347900E+03 -0.45216262552E+02  0.18125860742E+03  0.12509000000E+03 0.  0.
         25    1    4    4    0    0 -0.30169526238E+02  0.49355918264E+02 -0.54733222356E+01  0.13792632938E+03  0.12509000000E+03 0.  0.
<mgrwt>
<rscale>  2 0.46606027E+03</rscale>
<asrwt>0</asrwt>
<pdfrwt beam="1">  1       21 0.27219879E-01 0.46606027E+03</pdfrwt>
<pdfrwt beam="2">  1       21 0.43143975E-01 0.46606027E+03</pdfrwt>
<totfact> 0.61256618E+04</totfact>
</mgrwt>
</event>
<event>
 6    0  0.4759581E-002  0.4476386E+03  0.7546771E-02  0.1028429E+00
         21   -1    0    0  502  501  0.00000000000E+00  0.00000000000E+00  0.47381899846E+03  0.47381899846E+03  0.00000000000E+00 0.  1.
         21   -1    0    0  501  502 -0.00000000000E+00 -0.00000000000E+00 -0.10572618248E+03  0.10572618248E+03  0.00000000000E+00 0.  1.
      99926    2    1    2    0    0  0.00000000000E+00  0.35527136788E-14  0.36809281598E+03  0.57954518093E+03  0.44763857694E+03 0.  0.
         25    1    3    3    0    0  0.67480560190E+02  0.33341613998E+02  0.17537986909E+03  0.22819048142E+03  0.12509000000E+03 0.  0.
         25    1    3    3    0    0 -0.12439492985E+01 -0.22565129586E+02  0.16234364590E+03  0.20618850586E+03  0.12509000000E+03 0.  0.
         25    1    3    3    0    0 -0.66236610892E+02 -0.10776484412E+02  0.30369300994E+02  0.14516619366E+03  0.12509000000E+03 0.  0.
<mgrwt>
<rscale>  2 0.44763858E+03</rscale>
<asrwt>0</asrwt>
<pdfrwt beam="1">  1       21 0.69679263E-01 0.44763858E+03</pdfrwt>
<pdfrwt beam="2">  1       21 0.15547968E-01 0.44763858E+03</pdfrwt>
<totfact> 0.63575178E+04</totfact>
</mgrwt>
</event>
<event>
 7    0  0.4759581E-002  0.4482921E+03  0.7546771E-02  0.1028233E+00
         21   -1    0    0  502  501  0.00000000000E+00  0.00000000000E+00  0.13708971486E+03  0.13708971486E+03  0.00000000000E+00 0.  1.
         21   -1    0    0  501  502 -0.00000000000E+00 -0.00000000000E+00 -0.36648597937E+03  0.36648597937E+03  0.00000000000E+00 0.  1.
      99926    2    1    2    0    0  0.14210854715E-13  0.17763568394E-14 -0.22939626450E+03  0.50357569423E+03  0.44829212981E+03 0.  0.
      99925    2    3    3    0    0 -0.87654697229E+02 -0.32046804241E+01 -0.76976442163E+02  0.28776808022E+03  0.26304273307E+03 0.  0.
         25    1    3    3    0    0  0.87654697229E+02  0.32046804241E+01 -0.15241982234E+03  0.21580761401E+03  0.12509000000E+03 0.  0.
         25    1    4    4    0    0 -0.67225075534E+02  0.24955319444E+02 -0.18493290758E+02  0.14536673847E+03  0.12509000000E+03 0.  0.
         25    1    4    4    0    0 -0.20429621695E+02 -0.28159999868E+02 -0.58483151404E+02  0.14240134175E+03  0.12509000000E+03 0.  0.
<mgrwt>
<rscale>  2 0.44829213E+03</rscale>
<asrwt>0</asrwt>
<pdfrwt beam="1">  1       21 0.20160253E-01 0.44829213E+03</pdfrwt>
<pdfrwt beam="2">  1       21 0.53894996E-01 0.44829213E+03</pdfrwt>
<totfact> 0.68600294E+04</totfact>
</mgrwt>
</event>
<event>
 7    0  0.4759581E-002  0.4484582E+03  0.7546771E-02  0.1028183E+00
         21   -1    0    0  502  501  0.00000000000E+00  0.00000000000E+00  0.50015537777E+02  0.50015537777E+02  0.00000000000E+00 0.  1.
         21   -1    0    0  501  502 -0.00000000000E+00 -0.00000000000E+00 -0.10052612896E+04  0.10052612896E+04  0.00000000000E+00 0.  1.
      99926    2    1    2    0    0  0.88817841970E-15 -0.71054273576E-14 -0.95524575187E+03  0.10552768274E+04  0.44845817646E+03 0.  0.
      99925    2    3    3    0    0  0.74442941565E+01 -0.58527935145E+02 -0.81437721028E+03  0.85786256548E+03  0.26312925327E+03 0.  0.
         25    1    3    3    0    0 -0.74442941565E+01  0.58527935145E+02 -0.14086854159E+03  0.19741426194E+03  0.12509000000E+03 0.  0.
         25    1    4    4    0    0  0.74447612104E+01 -0.62606049939E+02 -0.35207753952E+03  0.37892089398E+03  0.12509000000E+03 0.  0.
         25    1    4    4    0    0 -0.46705393597E-03  0.40781147944E+01 -0.46229967076E+03  0.47894167150E+03  0.12509000000E+03 0.  0.
<mgrwt>
<rscale>  2 0.44845818E+03</rscale>
<asrwt>0</asrwt>
<pdfrwt beam="1">  1       21 0.73552260E-02 0.44845818E+03</pdfrwt>
<pdfrwt beam="2">  1       21 0.14783255E+00 0.44845818E+03</pdfrwt>
<totfact> 0.39039863E+04</totfact>
</mgrwt>
</event>
<event>
 7    0  0.4759581E-002  0.4469646E+03  0.7546771E-02  0.1028631E+00
         21   -1    0    0  502  501  0.00000000000E+00  0.00000000000E+00  0.31686732313E+04  0.31686732313E+04  0.00000000000E+00 0. -1.
         21   -1    0    0  501  502 -0.00000000000E+00 -0.00000000000E+00 -0.15761911196E+02  0.15761911196E+02  0.00000000000E+00 0. -1.
      99926    2    1    2    0    0  0.00000000000E+00  0.00000000000E+00  0.31529113201E+04  0.31844351425E+04  0.44696463431E+03 0.  0.
      99925    2    3    3    0    0 -0.18206283651E+02  0.19223897346E+02  0.12718796317E+04  0.12990628323E+04  0.26303121081E+03 0.  0.
         25    1    3    3    0    0  0.18206283651E+02 -0.19223897346E+02  0.18810316884E+04  0.18853723101E+04  0.12509000000E+03 0.  0.
         25    1    4    4    0    0 -0.30629254237E+02 -0.21960092810E+02  0.69964344108E+03  0.71173650296E+03  0.12509000000E+03 0.  0.
         25    1    4    4    0    0  0.12422970586E+02  0.41183990156E+02  0.57223619061E+03  0.58732632938E+03  0.12509000000E+03 0.  0.
<mgrwt>
<rscale>  2 0.44696463E+03</rscale>
<asrwt>0</asrwt>
<pdfrwt beam="1">  1       21 0.46598092E+00 0.44696463E+03</pdfrwt>
<pdfrwt beam="2">  1       21 0.23179303E-02 0.44696463E+03</pdfrwt>
<totfact> 0.24975586E+03</totfact>
</mgrwt>
</event>
<event>
 7    0  0.4759581E-002  0.4492615E+03  0.7546771E-02  0.1027942E+00
         21   -1    0    0  502  501  0.00000000000E+00  0.00000000000E+00  0.25036973095E+02  0.25036973095E+02  0.00000000000E+00 0.  1.
         21   -1    0    0  501  502 -0.00000000000E+00 -0.00000000000E+00 -0.20153786225E+04  0.20153786225E+04  0.00000000000E+00 0.  1.
      99926    2    1    2    0    0  0.00000000000E+00  0.00000000000E+00 -0.19903416494E+04  0.20404155956E+04  0.44926152894E+03 0.  0.
      99925    2    3    3    0    0  0.64614616730E+02  0.38359476556E+02 -0.90903467227E+03  0.94930662531E+03  0.26304474017E+03 0.  0.
         25    1    3    3    0    0 -0.64614616730E+02 -0.38359476556E+02 -0.10813069771E+04  0.10911089703E+04  0.12509000000E+03 0.  0.
         25    1    4    4    0    0  0.27490526206E+01  0.35999192748E+02 -0.36037470030E+03  0.38317219613E+03  0.12509000000E+03 0.  0.
         25    1    4    4    0    0  0.61865564109E+02  0.23602838082E+01 -0.54865997197E+03  0.56613442918E+03  0.12509000000E+03 0.  0.
<mgrwt>
<rscale>  2 0.44926153E+03</rscale>
<asrwt>0</asrwt>
<pdfrwt beam="1">  1       21 0.36819073E-02 0.44926153E+03</pdfrwt>
<pdfrwt beam="2">  1       21 0.29637925E+00 0.44926153E+03</pdfrwt>
<totfact> 0.13659486E+04</totfact>
</mgrwt>
</event>
<event>
 7    0  0.4759581E-002  0.4555372E+03  0.7546771E-02  0.1026084E+00
         21   -1    0    0  502  501  0.00000000000E+00  0.00000000000E+00  0.21484101709E+03  0.21484101709E+03  0.00000000000E+00 0. -1.
         21   -1    0    0  501  502 -0.00000000000E+00 -0.00000000000E+00 -0.24147412338E+03  0.24147412338E+03  0.00000000000E+00 0. -1.
      99926    2    1    2    0    0  0.00000000000E+00 -0.35527136788E-14 -0.26633106292E+02  0.45631514046E+03  0.45553724882E+03 0.  0.
      99925    2    3    3    0    0  0.10410469864E+03  0.16241990705E+02 -0.59507682072E+02  0.28949237111E+03  0.26298874152E+03 0.  0.
         25    1    4    4    0    0  0.65086753799E+02 -0.29360127879E+02 -0.21429550896E+02  0.14561949176E+03  0.12509000000E+03 0.  0.
         25    1    3    3    0    0 -0.10410469864E+03 -0.16241990705E+02  0.32874575780E+02  0.16682276935E+03  0.12509000000E+03 0.  0.
         25    1    4    4    0    0  0.39017944841E+02  0.45602118584E+02 -0.38078131176E+02  0.14387287935E+03  0.12509000000E+03 0.  0.
<mgrwt>
<rscale>  2 0.45553725E+03</rscale>
<asrwt>0</asrwt>
<pdfrwt beam="1">  1       21 0.31594267E-01 0.45553725E+03</pdfrwt>
<pdfrwt beam="2">  1       21 0.35510901E-01 0.45553725E+03</pdfrwt>
<totfact> 0.68156955E+04</totfact>
</mgrwt>
</event>
<event>
 7    0  0.4759581E-002  0.4529268E+03  0.7546771E-02  0.1026853E+00
         21   -1    0    0  502  501  0.00000000000E+00  0.00000000000E+00  0.10007735504E+03  0.10007735504E+03  0.00000000000E+00 0.  1.
         21   -1    0    0  501  502 -0.00000000000E+00 -0.00000000000E+00 -0.51246041241E+03  0.51246041241E+03  0.00000000000E+00 0.  1.
      99926    2    1    2    0    0  0.00000000000E+00  0.00000000000E+00 -0.41238305737E+03  0.61253776745E+03  0.45292684900E+03 0.  0.
      99925    2    3    3    0    0 -0.89974172884E+02 -0.39555617070E+02 -0.18883598631E+03  0.33816429987E+03  0.26274715100E+03 0.  0.
         25    1    3    3    0    0  0.89974172884E+02  0.39555617070E+02 -0.22354707106E+03  0.27437346757E+03  0.12509000000E+03 0.  0.
         25    1    4    4    0    0 -0.49705951946E+02  0.15957705929E+02 -0.11376459405E+03  0.17696107198E+03  0.12509000000E+03 0.  0.
         25    1    4    4    0    0 -0.40268220938E+02 -0.55513323000E+02 -0.75071392261E+02  0.16120322790E+03  0.12509000000E+03 0.  0.
<mgrwt>
<rscale>  2 0.45292685E+03</rscale>
<asrwt>0</asrwt>
<pdfrwt beam="1">  1       21 0.14717258E-01 0.45292685E+03</pdfrwt>
<pdfrwt beam="2">  1       21 0.75361825E-01 0.45292685E+03</pdfrwt>
<totfact> 0.58871163E+04</totfact>
</mgrwt>
</event>
<event>
 7    0  0.4759581E-002  0.4636060E+03  0.7546771E-02  0.1023741E+00
         21   -1    0    0  502  501  0.00000000000E+00  0.00000000000E+00  0.49379565566E+03  0.49379565566E+03  0.00000000000E+00 0.  1.
         21   -1    0    0  501  502 -0.00000000000E+00 -0.00000000000E+00 -0.10881554174E+03  0.10881554174E+03  0.00000000000E+00 0.  1.
      99926    2    1    2    0    0  0.35527136788E-14  0.14210854715E-13  0.38498011392E+03  0.60261119740E+03  0.46360604733E+03 0.  0.
      99925    2    3    3    0    0  0.25390005414E+02  0.11778338941E+03  0.22152623260E+03  0.36411117935E+03  0.26265090901E+03 0.  0.
         25    1    4    4    0    0  0.29628470233E+01  0.71485616680E+02  0.67509290946E+02  0.15913511341E+03  0.12509000000E+03 0.  0.
         25    1    3    3    0    0 -0.25390005414E+02 -0.11778338941E+03  0.16345388132E+03  0.23850001806E+03  0.12509000000E+03 0.  0.
         25    1    4    4    0    0  0.22427158391E+02  0.46297772726E+02  0.15401694165E+03  0.20497606594E+03  0.12509000000E+03 0.  0.
<mgrwt>
<rscale>  2 0.46360605E+03</rscale>
<asrwt>0</asrwt>
<pdfrwt beam="1">  1       21 0.72617007E-01 0.46360605E+03</pdfrwt>
<pdfrwt beam="2">  1       21 0.16002286E-01 0.46360605E+03</pdfrwt>
<totfact> 0.54702295E+04</totfact>
</mgrwt>
</event>
<event>
 7    0  0.4759581E-002  0.4536935E+03  0.7546771E-02  0.1026626E+00
         21   -1    0    0  502  501  0.00000000000E+00  0.00000000000E+00  0.15474443256E+03  0.15474443256E+03  0.00000000000E+00 0. -1.
         21   -1    0    0  501  502 -0.00000000000E+00 -0.00000000000E+00 -0.33254472488E+03  0.33254472488E+03  0.00000000000E+00 0. -1.
      99926    2    1    2    0    0  0.00000000000E+00  0.00000000000E+00 -0.17780029232E+03  0.48728915745E+03  0.45369348576E+03 0.  0.
      99925    2    3    3    0    0  0.40134986134E+02 -0.88646691302E+02 -0.17147633534E+03  0.32868098136E+03  0.26297908840E+03 0.  0.
         25    1    3    3    0    0 -0.40134986134E+02  0.88646691302E+02 -0.63239569804E+01  0.15860817609E+03  0.12509000000E+03 0.  0.
         25    1    4    4    0    0 -0.14700622899E+02 -0.64737662070E+02 -0.81585170640E+02  0.16343414996E+03  0.12509000000E+03 0.  0.
         25    1    4    4    0    0  0.54835609033E+02 -0.23909029231E+02 -0.89891164699E+02  0.16524683140E+03  0.12509000000E+03 0.  0.
<mgrwt>
<rscale>  2 0.45369349E+03</rscale>
<asrwt>0</asrwt>
<pdfrwt beam="1">  1       21 0.22756534E-01 0.45369349E+03</pdfrwt>
<pdfrwt beam="2">  1       21 0.48903636E-01 0.45369349E+03</pdfrwt>
<totfact> 0.66864032E+04</totfact>
</mgrwt>
</event>
<event>
 7    0  0.4759581E-002  0.4563414E+03  0.7546771E-02  0.1025848E+00
         21   -1    0    0  502  501  0.00000000000E+00  0.00000000000E+00  0.54439546532E+03  0.54439546532E+03  0.00000000000E+00 0.  1.
         21   -1    0    0  501  502 -0.00000000000E+00 -0.00000000000E+00 -0.95632440418E+02  0.95632440418E+02  0.00000000000E+00 0.  1.
      99926    2    1    2    0    0  0.00000000000E+00  0.00000000000E+00  0.44876302490E+03  0.64002790573E+03  0.45634139370E+03 0.  0.
      99925    2    3    3    0    0 -0.79931565708E+02 -0.38515545824E+02  0.38371449854E+03  0.47344062727E+03  0.26274837523E+03 0.  0.
         25    1    4    4    0    0 -0.39831493732E+02 -0.44965974277E+02  0.14376071568E+03  0.19980775312E+03  0.12509000000E+03 0.  0.
         25    1    4    4    0    0 -0.40100071976E+02  0.64504284531E+01  0.23995378287E+03  0.27363287414E+03  0.12509000000E+03 0.  0.
         25    1    3    3    0    0  0.79931565708E+02  0.38515545824E+02  0.65048526354E+02  0.16658727847E+03  0.12509000000E+03 0.  0.
<mgrwt>
<rscale>  2 0.45634139E+03</rscale>
<asrwt>0</asrwt>
<pdfrwt beam="1">  1       21 0.80058155E-01 0.45634139E+03</pdfrwt>
<pdfrwt beam="2">  1       21 0.14063594E-01 0.45634139E+03</pdfrwt>
<totfact> 0.55687824E+04</totfact>
</mgrwt>
</event>
<event>
 7    0  0.4759581E-002  0.4597377E+03  0.7546771E-02  0.1024857E+00
         21   -1    0    0  502  501  0.00000000000E+00  0.00000000000E+00  0.65418226596E+02  0.65418226596E+02  0.00000000000E+00 0.  1.
         21   -1    0    0  501  502 -0.00000000000E+00 -0.00000000000E+00 -0.80772109327E+03  0.80772109327E+03  0.00000000000E+00 0.  1.
      99926    2    1    2    0    0  0.00000000000E+00 -0.71054273576E-14 -0.74230286667E+03  0.87313931986E+03  0.45973767088E+03 0.  0.
      99925    2    3    3    0    0  0.98809849012E+02 -0.59122027180E+02 -0.42072950423E+03  0.50938701968E+03  0.26306466833E+03 0.  0.
         25    1    4    4    0    0  0.22218818358E+02 -0.34847409932E+02 -0.25305873784E+03  0.28529677665E+03  0.12509000000E+03 0.  0.
         25    1    3    3    0    0 -0.98809849012E+02  0.59122027180E+02 -0.32157336244E+03  0.36375230018E+03  0.12509000000E+03 0.  0.
         25    1    4    4    0    0  0.76591030653E+02 -0.24274617248E+02 -0.16767076640E+03  0.22409024303E+03  0.12509000000E+03 0.  0.
<mgrwt>
<rscale>  2 0.45973767E+03</rscale>
<asrwt>0</asrwt>
<pdfrwt beam="1">  1       21 0.96203284E-02 0.45973767E+03</pdfrwt>
<pdfrwt beam="2">  1       21 0.11878250E+00 0.45973767E+03</pdfrwt>
<totfact> 0.42804747E+04</totfact>
</mgrwt>
</event>
<event>
 7    0  0.4759581E-002  0.4486803E+03  0.7546771E-02  0.1028116E+00
         21   -1    0    0  502  501  0.00000000000E+00  0.00000000000E+00  0.16197136596E+03  0.16197136596E+03  0.00000000000E+00 0. -1.
         21   -1    0    0  501  502 -0.00000000000E+00 -0.00000000000E+00 -0.31072466751E+03  0.31072466751E+03  0.00000000000E+00 0. -1.
      99926    2    1    2    0    0 -0.71054273576E-14  0.00000000000E+00 -0.14875330155E+03  0.47269603348E+03  0.44868028187E+03 0.  0.
      99925    2    3    3    0    0 -0.22926335592E+02 -0.32186896234E+02  0.10710790202E+02  0.26620652331E+03  0.26303912042E+03 0.  0.
         25    1    4    4    0    0 -0.44890696063E+02 -0.47937645329E+01  0.25609321483E+02  0.13543079494E+03  0.12509000000E+03 0.  0.
         25    1    3    3    0    0  0.22926335592E+02  0.32186896234E+02 -0.15946409175E+03  0.20648951017E+03  0.12509000000E+03 0.  0.
         25    1    4    4    0    0  0.21964360471E+02 -0.27393131701E+02 -0.14898531281E+02  0.13077572837E+03  0.12509000000E+03 0.  0.
<mgrwt>
<rscale>  2 0.44868028E+03</rscale>
<asrwt>0</asrwt>
<pdfrwt beam="1">  1       21 0.23819319E-01 0.44868028E+03</pdfrwt>
<pdfrwt beam="2">  1       21 0.45694803E-01 0.44868028E+03</pdfrwt>
<totfact> 0.70716551E+04</totfact>
</mgrwt>
</event>
<event>
 7    0  0.4759581E-002  0.4550777E+03  0.7546771E-02  0.1026219E+00
         21   -1    0    0  502  501  0.00000000000E+00  0.00000000000E+00  0.56781913792E+02  0.56781913792E+02  0.00000000000E+00 0.  1.
         21   -1    0    0  501  502 -0.00000000000E+00 -0.00000000000E+00 -0.91180327012E+03  0.91180327012E+03  0.00000000000E+00 0.  1.
      99926    2    1    2    0    0  0.00000000000E+00 -0.14210854715E-13 -0.85502135633E+03  0.96858518391E+03  0.45507772821E+03 0.  0.
      99925    2    3    3    0    0 -0.49651492093E+02 -0.86381854400E+02 -0.42388443674E+03  0.50874429081E+03  0.26308865860E+03 0.  0.
         25    1    4    4    0    0 -0.51540317657E+02 -0.16936881310E+02 -0.23631944269E+03  0.27283263989E+03  0.12509000000E+03 0.  0.
         25    1    3    3    0    0  0.49651492093E+02  0.86381854400E+02 -0.43113691959E+03  0.45984089310E+03  0.12509000000E+03 0.  0.
         25    1    4    4    0    0  0.18888255637E+01 -0.69444973089E+02 -0.18756499405E+03  0.23591165092E+03  0.12509000000E+03 0.  0.
<mgrwt>
<rscale>  2 0.45507773E+03</rscale>
<asrwt>0</asrwt>
<pdfrwt beam="1">  1       21 0.83502816E-02 0.45507773E+03</pdfrwt>
<pdfrwt beam="2">  1       21 0.13408871E+00 0.45507773E+03</pdfrwt>
<totfact> 0.40372743E+04</totfact>
</mgrwt>
</event>
<event>
 7    0  0.4759581E-002  0.4589198E+03  0.7546771E-02  0.1025095E+00
         21   -1    0    0  502  501  0.00000000000E+00  0.00000000000E+00  0.38141210998E+03  0.38141210998E+03  0.00000000000E+00 0. -1.
         21   -1    0    0  501  502 -0.00000000000E+00 -0.00000000000E+00 -0.13804449193E+03  0.13804449193E+03  0.00000000000E+00 0. -1.
      99926    2    1    2    0    0  0.00000000000E+00  0.00000000000E+00  0.24336761805E+03  0.51945660191E+03  0.45891977921E+03 0.  0.
      99925    2    3    3    0    0  0.40237173154E+02  0.94546290660E+02  0.21809663353E+03  0.35561472100E+03  0.26141472234E+03 0.  0.
         25    1    3    3    0    0 -0.40237173154E+02 -0.94546290660E+02  0.25270984522E+02  0.16384188091E+03  0.12509000000E+03 0.  0.
         25    1    4    4    0    0  0.39184968586E+02  0.41647986900E+02  0.68821940509E+02  0.15379851810E+03  0.12509000000E+03 0.  0.
         25    1    4    4    0    0  0.10522045683E+01  0.52898303761E+02  0.14927469302E+03  0.20181620289E+03  0.12509000000E+03 0.  0.
<mgrwt>
<rscale>  2 0.45891978E+03</rscale>
<asrwt>0</asrwt>
<pdfrwt beam="1">  1       21 0.56090016E-01 0.45891978E+03</pdfrwt>
<pdfrwt beam="2">  1       21 0.20300661E-01 0.45891978E+03</pdfrwt>
<totfact> 0.61974264E+04</totfact>
</mgrwt>
</event>
<event>
 7    0  0.4759581E-002  0.4523861E+03  0.7546771E-02  0.1027013E+00
         21   -1    0    0  502  501  0.00000000000E+00  0.00000000000E+00  0.11853296011E+03  0.11853296011E+03  0.00000000000E+00 0. -1.
         21   -1    0    0  501  502 -0.00000000000E+00 -0.00000000000E+00 -0.43163774496E+03  0.43163774496E+03  0.00000000000E+00 0. -1.
      99926    2    1    2    0    0 -0.14210854715E-13  0.00000000000E+00 -0.31310478485E+03  0.55017070507E+03  0.45238611652E+03 0.  0.
      99925    2    3    3    0    0  0.89336662824E+02 -0.31841134833E+02 -0.12677061936E+03  0.30652582718E+03  0.26247360935E+03 0.  0.
         25    1    4    4    0    0  0.77156039402E+02  0.81355921076E+01 -0.66645073188E+02  0.16158068002E+03  0.12509000000E+03 0.  0.
         25    1    3    3    0    0 -0.89336662824E+02  0.31841134833E+02 -0.18633416548E+03  0.24364487788E+03  0.12509000000E+03 0.  0.
         25    1    4    4    0    0  0.12180623422E+02 -0.39976726940E+02 -0.60125546177E+02  0.14494514717E+03  0.12509000000E+03 0.  0.
<mgrwt>
<rscale>  2 0.45238612E+03</rscale>
<asrwt>0</asrwt>
<pdfrwt beam="1">  1       21 0.17431318E-01 0.45238612E+03</pdfrwt>
<pdfrwt beam="2">  1       21 0.63476138E-01 0.45238612E+03</pdfrwt>
<totfact> 0.63151139E+04</totfact>
</mgrwt>
</event>
<event>
 7    0  0.4759581E-002  0.4512614E+03  0.7546771E-02  0.1027347E+00
         21   -1    0    0  502  501  0.00000000000E+00  0.00000000000E+00  0.25755229140E+03  0.25755229140E+03  0.00000000000E+00 0. -1.
         21   -1    0    0  501  502 -0.00000000000E+00 -0.00000000000E+00 -0.19766549996E+03  0.19766549996E+03  0.00000000000E+00 0. -1.
      99926    2    1    2    0    0  0.00000000000E+00  0.26645352591E-14  0.59886791440E+02  0.45521779136E+03  0.45126135418E+03 0.  0.
      99925    2    3    3    0    0  0.10690525147E+03 -0.61191765215E+01  0.61936060324E+02  0.29054270303E+03  0.26289315245E+03 0.  0.
         25    1    4    4    0    0  0.63598933524E+02 -0.35927862379E+02  0.54097238471E+02  0.15462747153E+03  0.12509000000E+03 0.  0.
         25    1    3    3    0    0 -0.10690525147E+03  0.61191765215E+01 -0.20492688840E+01  0.16467508833E+03  0.12509000000E+03 0.  0.
         25    1    4    4    0    0  0.43306317944E+02  0.29808685858E+02  0.78388218529E+01  0.13591523150E+03  0.12509000000E+03 0.  0.
<mgrwt>
<rscale>  2 0.45126135E+03</rscale>
<asrwt>0</asrwt>
<pdfrwt beam="1">  1       21 0.37875337E-01 0.45126135E+03</pdfrwt>
<pdfrwt beam="2">  1       21 0.29068456E-01 0.45126135E+03</pdfrwt>
<totfact> 0.70612432E+04</totfact>
</mgrwt>
</event>
<event>
 7    0  0.4759581E-002  0.4344660E+03  0.7546771E-02  0.1032458E+00
         21   -1    0    0  502  501  0.00000000000E+00  0.00000000000E+00  0.56910668695E+03  0.56910668695E+03  0.00000000000E+00 0.  1.
         21   -1    0    0  501  502 -0.00000000000E+00 -0.00000000000E+00 -0.82919750945E+02  0.82919750945E+02  0.00000000000E+00 0.  1.
      99926    2    1    2    0    0  0.35527136788E-14  0.00000000000E+00  0.48618693600E+03  0.65202643789E+03  0.43446603892E+03 0.  0.
      99925    2    3    3    0    0 -0.18739794022E+02 -0.58342389621E+02  0.20739088265E+03  0.34036995750E+03  0.26284161667E+03 0.  0.
         25    1    3    3    0    0  0.18739794022E+02  0.58342389621E+02  0.27879605336E+03  0.31165648040E+03  0.12509000000E+03 0.  0.
         25    1    4    4    0    0  0.27338168398E+02 -0.45234273470E+02  0.10994111094E+03  0.17472284030E+03  0.12509000000E+03 0.  0.
         25    1    4    4    0    0 -0.46077962421E+02 -0.13108116152E+02  0.97449771712E+02  0.16564711720E+03  0.12509000000E+03 0.  0.
<mgrwt>
<rscale>  2 0.43446604E+03</rscale>
<asrwt>0</asrwt>
<pdfrwt beam="1">  1       21 0.83692158E-01 0.43446604E+03</pdfrwt>
<pdfrwt beam="2">  1       21 0.12194081E-01 0.43446604E+03</pdfrwt>
<totfact> 0.65572439E+04</totfact>
</mgrwt>
</event>
<event>
 7    0  0.4759581E-002  0.4858151E+03  0.7546771E-02  0.1017549E+00
         21   -1    0    0  502  501  0.00000000000E+00  0.00000000000E+00  0.31769613958E+03  0.31769613958E+03  0.00000000000E+00 0.  1.
         21   -1    0    0  501  502 -0.00000000000E+00 -0.00000000000E+00 -0.18572490246E+03  0.18572490246E+03  0.00000000000E+00 0.  1.
      99926    2    1    2    0    0  0.00000000000E+00  0.00000000000E+00  0.13197123713E+03  0.50342104204E+03  0.48581512753E+03 0.  0.
      99925    2    3    3    0    0  0.32513417330E+02 -0.80404824069E+02 -0.32997694458E+02  0.27895653587E+03  0.26307003445E+03 0.  0.
         25    1    4    4    0    0  0.20887124901E+02  0.14880875080E+01 -0.20451224991E+02  0.12846885652E+03  0.12509000000E+03 0.  0.
         25    1    3    3    0    0 -0.32513417330E+02  0.80404824069E+02  0.16496893158E+03  0.22446450617E+03  0.12509000000E+03 0.  0.
         25    1    4    4    0    0  0.11626292429E+02 -0.81892911577E+02 -0.12546469467E+02  0.15048767936E+03  0.12509000000E+03 0.  0.
<mgrwt>
<rscale>  2 0.48581513E+03</rscale>
<asrwt>0</asrwt>
<pdfrwt beam="1">  1       21 0.46720020E-01 0.48581513E+03</pdfrwt>
<pdfrwt beam="2">  1       21 0.27312486E-01 0.48581513E+03</pdfrwt>
<totfact> 0.51289221E+04</totfact>
</mgrwt>
</event>
<event>
 7    0  0.4759581E-002  0.4498121E+03  0.7546771E-02  0.1027778E+00
         21   -1    0    0  502  501  0.00000000000E+00  0.00000000000E+00  0.22934304292E+02  0.22934304292E+02  0.00000000000E+00 0. -1.
         21   -1    0    0  501  502 -0.00000000000E+00 -0.00000000000E+00 -0.22055486941E+04  0.22055486941E+04  0.00000000000E+00 0. -1.
      99926    2    1    2    0    0  0.00000000000E+00  0.00000000000E+00 -0.21826143898E+04  0.22284829984E+04  0.44981207134E+03 0.  0.
      99925    2    3    3    0    0  0.36036525399E+02 -0.95323306191E+02 -0.12008866294E+04  0.12335849798E+04  0.26309321864E+03 0.  0.
         25    1    3    3    0    0 -0.36036525399E+02  0.95323306191E+02 -0.98172776036E+03  0.99489801860E+03  0.12509000000E+03 0.  0.
         25    1    4    4    0    0  0.88436822844E+01 -0.51911464628E+02 -0.42916337919E+03  0.45011301360E+03  0.12509000000E+03 0.  0.
         25    1    4    4    0    0  0.27192843115E+02 -0.43411841563E+02 -0.77172325024E+03  0.78347196616E+03  0.12509000000E+03 0.  0.
<mgrwt>
<rscale>  2 0.44981207E+03</rscale>
<asrwt>0</asrwt>
<pdfrwt beam="1">  1       21 0.33726938E-02 0.44981207E+03</pdfrwt>
<pdfrwt beam="2">  1       21 0.32434521E+00 0.44981207E+03</pdfrwt>
<totfact> 0.10752101E+04</totfact>
</mgrwt>
</event>
<event>
 7    0  0.4759581E-002  0.4517662E+03  0.7546771E-02  0.1027197E+00
         21   -1    0    0  502  501  0.00000000000E+00  0.00000000000E+00  0.68386280532E+02  0.68386280532E+02  0.00000000000E+00 0. -1.
         21   -1    0    0  501  502 -0.00000000000E+00 -0.00000000000E+00 -0.74610263529E+03  0.74610263529E+03  0.00000000000E+00 0. -1.
      99926    2    1    2    0    0  0.88817841970E-15 -0.14210854715E-13 -0.67771635476E+03  0.81448891582E+03  0.45176624098E+03 0.  0.
      99925    2    3    3    0    0  0.62475432265E+01  0.10255716404E+03 -0.35637693030E+03  0.45467849699E+03  0.26300383168E+03 0.  0.
         25    1    4    4    0    0 -0.30920354415E+02  0.30458499656E+02 -0.18547305240E+03  0.22788494857E+03  0.12509000000E+03 0.  0.
         25    1    3    3    0    0 -0.62475432265E+01 -0.10255716404E+03 -0.32133942446E+03  0.35981041884E+03  0.12509000000E+03 0.  0.
         25    1    4    4    0    0  0.37167897642E+02  0.72098664385E+02 -0.17090387790E+03  0.22679354841E+03  0.12509000000E+03 0.  0.
<mgrwt>
<rscale>  2 0.45176624E+03</rscale>
<asrwt>0</asrwt>
<pdfrwt beam="1">  1       21 0.10056807E-01 0.45176624E+03</pdfrwt>
<pdfrwt beam="2">  1       21 0.10972097E+00 0.45176624E+03</pdfrwt>
<totfact> 0.48285626E+04</totfact>
</mgrwt>
</event>
<event>
 7    0  0.4759581E-002  0.4571535E+03  0.7546771E-02  0.1025610E+00
         21   -1    0    0  502  501  0.00000000000E+00  0.00000000000E+00  0.72183751714E+02  0.72183751714E+02  0.00000000000E+00 0. -1.
         21   -1    0    0  501  502 -0.00000000000E+00 -0.00000000000E+00 -0.72381005999E+03  0.72381005999E+03  0.00000000000E+00 0. -1.
      99926    2    1    2    0    0  0.88817841970E-15  0.00000000000E+00 -0.65162630827E+03  0.79599381170E+03  0.45715347820E+03 0.  0.
      99925    2    3    3    0    0  0.31406869147E+01  0.67863704568E+02 -0.24721550447E+03  0.36726201600E+03  0.26296489582E+03 0.  0.
         25    1    4    4    0    0 -0.27331931095E+02  0.59676858896E+02 -0.11105864470E+03  0.17969388584E+03  0.12509000000E+03 0.  0.
         25    1    4    4    0    0  0.30472618009E+02  0.81868456723E+01 -0.13615685977E+03  0.18756813016E+03  0.12509000000E+03 0.  0.
         25    1    3    3    0    0 -0.31406869147E+01 -0.67863704568E+02 -0.40441080380E+03  0.42873179570E+03  0.12509000000E+03 0.  0.
<mgrwt>
<rscale>  2 0.45715348E+03</rscale>
<asrwt>0</asrwt>
<pdfrwt beam="1">  1       21 0.10615257E-01 0.45715348E+03</pdfrwt>
<pdfrwt beam="2">  1       21 0.10644266E+00 0.45715348E+03</pdfrwt>
<totfact> 0.47157150E+04</totfact>
</mgrwt>
</event>
<event>
 7    0  0.4759581E-002  0.4608668E+03  0.7546771E-02  0.1024530E+00
         21   -1    0    0  502  501  0.00000000000E+00  0.00000000000E+00  0.15934871138E+03  0.15934871138E+03  0.00000000000E+00 0. -1.
         21   -1    0    0  501  502 -0.00000000000E+00 -0.00000000000E+00 -0.33322862283E+03  0.33322862283E+03  0.00000000000E+00 0. -1.
      99926    2    1    2    0    0  0.00000000000E+00  0.00000000000E+00 -0.17387991145E+03  0.49257733420E+03  0.46086679916E+03 0.  0.
      99925    2    3    3    0    0 -0.95686676067E+01  0.39322028359E+02  0.10016867489E+02  0.26651691149E+03  0.26323591161E+03 0.  0.
         25    1    4    4    0    0 -0.80838562010E+01  0.10404204668E+02 -0.34825404506E+02  0.13051403413E+03  0.12509000000E+03 0.  0.
         25    1    3    3    0    0  0.95686676067E+01 -0.39322028359E+02 -0.18389677894E+03  0.22606042272E+03  0.12509000000E+03 0.  0.
         25    1    4    4    0    0 -0.14848114057E+01  0.28917823690E+02  0.44842271995E+02  0.13600287736E+03  0.12509000000E+03 0.  0.
<mgrwt>
<rscale>  2 0.46086680E+03</rscale>
<asrwt>0</asrwt>
<pdfrwt beam="1">  1       21 0.23433634E-01 0.46086680E+03</pdfrwt>
<pdfrwt beam="2">  1       21 0.49004209E-01 0.46086680E+03</pdfrwt>
<totfact> 0.62818239E+04</totfact>
</mgrwt>
</event>
<event>
 7    0  0.4759581E-002  0.4410208E+03  0.7546771E-02  0.1030434E+00
         21   -1    0    0  502  501  0.00000000000E+00  0.00000000000E+00  0.12672268245E+04  0.12672268245E+04  0.00000000000E+00 0.  1.
         21   -1    0    0  501  502 -0.00000000000E+00 -0.00000000000E+00 -0.38371054200E+02  0.38371054200E+02  0.00000000000E+00 0.  1.
      99926    2    1    2    0    0  0.00000000000E+00  0.00000000000E+00  0.12288557703E+04  0.13055978787E+04  0.44102076671E+03 0.  0.
      99925    2    3    3    0    0  0.47873266886E+02 -0.50208656816E+02  0.57202917278E+03  0.63337660099E+03  0.26293684653E+03 0.  0.
         25    1    4    4    0    0 -0.12312064526E+02 -0.18115665828E+02  0.22740638155E+03  0.26046292395E+03  0.12509000000E+03 0.  0.
         25    1    4    4    0    0  0.60185331412E+02 -0.32092990989E+02  0.34462279123E+03  0.37291367704E+03  0.12509000000E+03 0.  0.
         25    1    3    3    0    0 -0.47873266886E+02  0.50208656816E+02  0.65682659756E+03  0.67222127775E+03  0.12509000000E+03 0.  0.
<mgrwt>
<rscale>  2 0.44102077E+03</rscale>
<asrwt>0</asrwt>
<pdfrwt beam="1">  1       21 0.18635686E+00 0.44102077E+03</pdfrwt>
<pdfrwt beam="2">  1       21 0.56428029E-02 0.44102077E+03</pdfrwt>
<totfact> 0.32326624E+04</totfact>
</mgrwt>
</event>
<event>
 7    0  0.4759581E-002  0.5103747E+03  0.7546771E-02  0.1011106E+00
         21   -1    0    0  502  501  0.00000000000E+00  0.00000000000E+00  0.16835221467E+03  0.16835221467E+03  0.00000000000E+00 0.  1.
         21   -1    0    0  501  502 -0.00000000000E+00 -0.00000000000E+00 -0.38681149938E+03  0.38681149938E+03  0.00000000000E+00 0.  1.
      99926    2    1    2    0    0 -0.71054273576E-14  0.00000000000E+00 -0.21845928471E+03  0.55516371404E+03  0.51037465681E+03 0.  0.
      99925    2    3    3    0    0  0.38144615459E+02  0.28720430957E+02 -0.29717895956E+03  0.39984413977E+03  0.26321118378E+03 0.  0.
         25    1    4    4    0    0  0.58784574364E+02  0.25610801758E+02 -0.15022674845E+03  0.20573556669E+03  0.12509000000E+03 0.  0.
         25    1    3    3    0    0 -0.38144615459E+02 -0.28720430957E+02  0.78719674850E+02  0.15531957427E+03  0.12509000000E+03 0.  0.
         25    1    4    4    0    0 -0.20639958905E+02  0.31096291996E+01 -0.14695221111E+03  0.19410857309E+03  0.12509000000E+03 0.  0.
<mgrwt>
<rscale>  2 0.51037466E+03</rscale>
<asrwt>0</asrwt>
<pdfrwt beam="1">  1       21 0.24757679E-01 0.51037466E+03</pdfrwt>
<pdfrwt beam="2">  1       21 0.56884043E-01 0.51037466E+03</pdfrwt>
<totfact> 0.40577681E+04</totfact>
</mgrwt>
</event>
<event>
 7    0  0.4759581E-002  0.4549739E+03  0.7546771E-02  0.1026249E+00
         21   -1    0    0  502  501  0.00000000000E+00  0.00000000000E+00  0.95731547958E+03  0.95731547958E+03  0.00000000000E+00 0.  1.
         21   -1    0    0  501  502 -0.00000000000E+00 -0.00000000000E+00 -0.54057734950E+02  0.54057734950E+02  0.00000000000E+00 0.  1.
      99926    2    1    2    0    0  0.00000000000E+00  0.00000000000E+00  0.90325774463E+03  0.10113732145E+04  0.45497387379E+03 0.  0.
      99925    2    3    3    0    0  0.68742129193E+02 -0.62724138259E+02  0.71144954213E+03  0.76419374028E+03  0.26300536845E+03 0.  0.
         25    1    3    3    0    0 -0.68742129193E+02  0.62724138259E+02  0.19180820250E+03  0.24717947425E+03  0.12509000000E+03 0.  0.
         25    1    4    4    0    0  0.61546980660E+02 -0.13483435236E+01  0.34882928494E+03  0.37565839135E+03  0.12509000000E+03 0.  0.
         25    1    4    4    0    0  0.71951485324E+01 -0.61375794735E+02  0.36262025719E+03  0.38853534893E+03  0.12509000000E+03 0.  0.
<mgrwt>
<rscale>  2 0.45497387E+03</rscale>
<asrwt>0</asrwt>
<pdfrwt beam="1">  1       21 0.14078168E+00 0.45497387E+03</pdfrwt>
<pdfrwt beam="2">  1       21 0.79496675E-02 0.45497387E+03</pdfrwt>
<totfact> 0.38735211E+04</totfact>
</mgrwt>
</event>
<event>
 7    0  0.4759581E-002  0.4543787E+03  0.7546771E-02  0.1026424E+00
         21   -1    0    0  502  501  0.00000000000E+00  0.00000000000E+00  0.42609059531E+02  0.42609059531E+02  0.00000000000E+00 0.  1.
         21   -1    0    0  501  502 -0.00000000000E+00 -0.00000000000E+00 -0.12113623578E+04  0.12113623578E+04  0.00000000000E+00 0.  1.
      99926    2    1    2    0    0  0.35527136788E-14 -0.14210854715E-13 -0.11687532983E+04  0.12539714174E+04  0.45437874430E+03 0.  0.
      99925    2    3    3    0    0 -0.16126036407E+02  0.11116124226E+03 -0.75700791710E+03  0.80922582956E+03  0.26299921263E+03 0.  0.
         25    1    4    4    0    0  0.78386571582E+01  0.62566848495E+02 -0.27949439445E+03  0.31263505835E+03  0.12509000000E+03 0.  0.
         25    1    4    4    0    0 -0.23964693566E+02  0.48594393762E+02 -0.47751352265E+03  0.49659077121E+03  0.12509000000E+03 0.  0.
         25    1    3    3    0    0  0.16126036407E+02 -0.11116124226E+03 -0.41174538119E+03  0.44474558779E+03  0.12509000000E+03 0.  0.
<mgrwt>
<rscale>  2 0.45437874E+03</rscale>
<asrwt>0</asrwt>
<pdfrwt beam="1">  1       21 0.62660371E-02 0.45437874E+03</pdfrwt>
<pdfrwt beam="2">  1       21 0.17814155E+00 0.45437874E+03</pdfrwt>
<totfact> 0.30629136E+04</totfact>
</mgrwt>
</event>
<event>
 7    0  0.4759581E-002  0.4536834E+03  0.7546771E-02  0.1026629E+00
         21   -1    0    0  502  501  0.00000000000E+00  0.00000000000E+00  0.72516801635E+02  0.72516801635E+02  0.00000000000E+00 0.  1.
         21   -1    0    0  501  502 -0.00000000000E+00 -0.00000000000E+00 -0.70958948658E+03  0.70958948658E+03  0.00000000000E+00 0.  1.
      99926    2    1    2    0    0  0.00000000000E+00  0.35527136788E-14 -0.63707268495E+03  0.78210628822E+03  0.45368341403E+03 0.  0.
      99925    2    3    3    0    0  0.75044842670E+02  0.31423071292E+02 -0.26891405735E+03  0.38485646632E+03  0.26302203636E+03 0.  0.
         25    1    4    4    0    0  0.17733540808E+02  0.49548327236E+02 -0.14785024919E+03  0.20069060637E+03  0.12509000000E+03 0.  0.
         25    1    4    4    0    0  0.57311301862E+02 -0.18125255944E+02 -0.12106380816E+03  0.18416585995E+03  0.12509000000E+03 0.  0.
         25    1    3    3    0    0 -0.75044842670E+02 -0.31423071292E+02 -0.36815862760E+03  0.39724982189E+03  0.12509000000E+03 0.  0.
<mgrwt>
<rscale>  2 0.45368341E+03</rscale>
<asrwt>0</asrwt>
<pdfrwt beam="1">  1       21 0.10664235E-01 0.45368341E+03</pdfrwt>
<pdfrwt beam="2">  1       21 0.10435140E+00 0.45368341E+03</pdfrwt>
<totfact> 0.49148455E+04</totfact>
</mgrwt>
</event>
<event>
 7    0  0.4759581E-002  0.4572290E+03  0.7546771E-02  0.1025588E+00
         21   -1    0    0  502  501  0.00000000000E+00  0.00000000000E+00  0.90000456826E+03  0.90000456826E+03  0.00000000000E+00 0. -1.
         21   -1    0    0  501  502 -0.00000000000E+00 -0.00000000000E+00 -0.58071482907E+02  0.58071482907E+02  0.00000000000E+00 0. -1.
      99926    2    1    2    0    0  0.00000000000E+00 -0.71054273576E-14  0.84193308535E+03  0.95807605117E+03  0.45722904502E+03 0.  0.
      99925    2    3    3    0    0 -0.81839949513E+02  0.62662845714E+02  0.63688075973E+03  0.69669821371E+03  0.26295796110E+03 0.  0.
         25    1    4    4    0    0 -0.58893456950E+02  0.65170602080E+02  0.39211147367E+03  0.42084980994E+03  0.12509000000E+03 0.  0.
         25    1    4    4    0    0 -0.22946492563E+02 -0.25077563660E+01  0.24476928607E+03  0.27584840377E+03  0.12509000000E+03 0.  0.
         25    1    3    3    0    0  0.81839949513E+02 -0.62662845714E+02  0.20505232562E+03  0.26137783745E+03  0.12509000000E+03 0.  0.
<mgrwt>
<rscale>  2 0.45722905E+03</rscale>
<asrwt>0</asrwt>
<pdfrwt beam="1">  1       21 0.13235360E+00 0.45722905E+03</pdfrwt>
<pdfrwt beam="2">  1       21 0.85399245E-02 0.45722905E+03</pdfrwt>
<totfact> 0.40111836E+04</totfact>
</mgrwt>
</event>
<event>
 7    0  0.4759581E-002  0.4605467E+03  0.7546771E-02  0.1024623E+00
         21   -1    0    0  502  501  0.00000000000E+00  0.00000000000E+00  0.68941962942E+03  0.68941962942E+03  0.00000000000E+00 0.  1.
         21   -1    0    0  501  502 -0.00000000000E+00 -0.00000000000E+00 -0.76913686584E+02  0.76913686584E+02  0.00000000000E+00 0.  1.
      99926    2    1    2    0    0  0.00000000000E+00  0.00000000000E+00  0.61250594284E+03  0.76633331601E+03  0.46054665476E+03 0.  0.
      99925    2    3    3    0    0 -0.66309459236E+02 -0.80687088017E+02  0.47584105139E+03  0.55365479990E+03  0.26306193323E+03 0.  0.
         25    1    3    3    0    0  0.66309459236E+02  0.80687088017E+02  0.13666489145E+03  0.21267851610E+03  0.12509000000E+03 0.  0.
         25    1    4    4    0    0 -0.63667198000E+02 -0.18315408946E+02  0.20924181649E+03  0.25262345927E+03  0.12509000000E+03 0.  0.
         25    1    4    4    0    0 -0.26422612364E+01 -0.62371679071E+02  0.26659923490E+03  0.30103134063E+03  0.12509000000E+03 0.  0.
<mgrwt>
<rscale>  2 0.46054665E+03</rscale>
<asrwt>0</asrwt>
<pdfrwt beam="1">  1       21 0.10138524E+00 0.46054665E+03</pdfrwt>
<pdfrwt beam="2">  1       21 0.11310837E-01 0.46054665E+03</pdfrwt>
<totfact> 0.47340870E+04</totfact>
</mgrwt>
</event>
<event>
 7    0  0.4759581E-002  0.4568482E+03  0.7546771E-02  0.1025699E+00
         21   -1    0    0  502  501  0.00000000000E+00  0.00000000000E+00  0.34313391063E+03  0.34313391063E+03  0.00000000000E+00 0.  1.
         21   -1    0    0  501  502 -0.00000000000E+00 -0.00000000000E+00 -0.15206184086E+03  0.15206184086E+03  0.00000000000E+00 0.  1.
      99926    2    1    2    0    0 -0.71054273576E-14  0.00000000000E+00  0.19107206977E+03  0.49519575149E+03  0.45684822036E+03 0.  0.
      99925    2    3    3    0    0  0.34696992080E+02 -0.81275855615E+02  0.19976352492E+03  0.34179205056E+03  0.26288152079E+03 0.  0.
         25    1    4    4    0    0  0.41128359464E+01 -0.19757273470E+02  0.53809944063E+02  0.13766002853E+03  0.12509000000E+03 0.  0.
         25    1    4    4    0    0  0.30584156133E+02 -0.61518582145E+02  0.14595358085E+03  0.20413202203E+03  0.12509000000E+03 0.  0.
         25    1    3    3    0    0 -0.34696992080E+02  0.81275855615E+02 -0.86914551476E+01  0.15340370093E+03  0.12509000000E+03 0.  0.
<mgrwt>
<rscale>  2 0.45684822E+03</rscale>
<asrwt>0</asrwt>
<pdfrwt beam="1">  1       21 0.50460869E-01 0.45684822E+03</pdfrwt>
<pdfrwt beam="2">  1       21 0.22362036E-01 0.45684822E+03</pdfrwt>
<totfact> 0.64655640E+04</totfact>
</mgrwt>
</event>
<event>
 7    0  0.4759581E-002  0.4416020E+03  0.7546771E-02  0.1030256E+00
         21   -1    0    0  502  501  0.00000000000E+00  0.00000000000E+00  0.22681483695E+03  0.22681483695E+03  0.00000000000E+00 0. -1.
         21   -1    0    0  501  502 -0.00000000000E+00 -0.00000000000E+00 -0.21494666436E+03  0.21494666436E+03  0.00000000000E+00 0. -1.
      99926    2    1    2    0    0  0.00000000000E+00  0.00000000000E+00  0.11868172588E+02  0.44176150131E+03  0.44160204995E+03 0.  0.
      99925    2    3    3    0    0 -0.70072302861E+02 -0.53586998283E+02  0.54716620122E+02  0.28281122113E+03  0.26307144327E+03 0.  0.
         25    1    3    3    0    0  0.70072302861E+02  0.53586998283E+02 -0.42848447533E+02  0.15895028018E+03  0.12509000000E+03 0.  0.
         25    1    4    4    0    0 -0.77092461851E+02 -0.27685690925E+02  0.28415737403E+02  0.15219956435E+03  0.12509000000E+03 0.  0.
         25    1    4    4    0    0  0.70201589899E+01 -0.25901307358E+02  0.26300882719E+02  0.13061165678E+03  0.12509000000E+03 0.  0.
<mgrwt>
<rscale>  2 0.44160205E+03</rscale>
<asrwt>0</asrwt>
<pdfrwt beam="1">  1       21 0.33355123E-01 0.44160205E+03</pdfrwt>
<pdfrwt beam="2">  1       21 0.31609804E-01 0.44160205E+03</pdfrwt>
<totfact> 0.77484509E+04</totfact>
</mgrwt>
</event>
<event>
 7    0  0.4759581E-002  0.4283469E+03  0.7546771E-02  0.1034383E+00
         21   -1    0    0  502  501  0.00000000000E+00  0.00000000000E+00  0.79602942391E+02  0.79602942391E+02  0.00000000000E+00 0. -1.
         21   -1    0    0  501  502 -0.00000000000E+00 -0.00000000000E+00 -0.57623822054E+03  0.57623822054E+03  0.00000000000E+00 0. -1.
      99926    2    1    2    0    0  0.00000000000E+00  0.00000000000E+00 -0.49663527815E+03  0.65584116293E+03  0.42834685886E+03 0.  0.
      99925    2    3    3    0    0 -0.28708657687E+02 -0.73575360147E+02 -0.37337963387E+03  0.46328731957E+03  0.26265046894E+03 0.  0.
         25    1    4    4    0    0  0.19589059288E+02 -0.54258666587E+02 -0.20841218217E+03  0.24982169626E+03  0.12509000000E+03 0.  0.
         25    1    3    3    0    0  0.28708657687E+02  0.73575360147E+02 -0.12325564428E+03  0.19255384336E+03  0.12509000000E+03 0.  0.
         25    1    4    4    0    0 -0.48297716975E+02 -0.19316693560E+02 -0.16496745169E+03  0.21346562331E+03  0.12509000000E+03 0.  0.
<mgrwt>
<rscale>  2 0.42834686E+03</rscale>
<asrwt>0</asrwt>
<pdfrwt beam="1">  1       21 0.11706316E-01 0.42834686E+03</pdfrwt>
<pdfrwt beam="2">  1       21 0.84740911E-01 0.42834686E+03</pdfrwt>
<totfact> 0.68699245E+04</totfact>
</mgrwt>
</event>
<event>
 7    0  0.4759581E-002  0.4517300E+03  0.7546771E-02  0.1027207E+00
         21   -1    0    0  502  501  0.00000000000E+00  0.00000000000E+00  0.10555568679E+04  0.10555568679E+04  0.00000000000E+00 0. -1.
         21   -1    0    0  501  502 -0.00000000000E+00 -0.00000000000E+00 -0.48329932221E+02  0.48329932221E+02  0.00000000000E+00 0. -1.
      99926    2    1    2    0    0  0.00000000000E+00  0.35527136788E-14  0.10072269357E+04  0.11038868001E+04  0.45172997192E+03 0.  0.
      99925    2    3    3    0    0 -0.50600850961E+02 -0.72121773265E+01  0.39770521978E+03  0.47956581547E+03  0.26306171882E+03 0.  0.
         25    1    3    3    0    0  0.50600850961E+02  0.72121773265E+01  0.60952171591E+03  0.62432098466E+03  0.12509000000E+03 0.  0.
         25    1    4    4    0    0 -0.25755651650E+02 -0.35392302964E+02  0.24563432583E+03  0.27910517520E+03  0.12509000000E+03 0.  0.
         25    1    4    4    0    0 -0.24845199311E+02  0.28180125637E+02  0.15207089395E+03  0.20046064027E+03  0.12509000000E+03 0.  0.
<mgrwt>
<rscale>  2 0.45172997E+03</rscale>
<asrwt>0</asrwt>
<pdfrwt beam="1">  1       21 0.15522894E+00 0.45172997E+03</pdfrwt>
<pdfrwt beam="2">  1       21 0.71073436E-02 0.45172997E+03</pdfrwt>
<totfact> 0.36275835E+04</totfact>
</mgrwt>
</event>
<event>
 7    0  0.4759581E-002  0.4638925E+03  0.7546771E-02  0.1023658E+00
         21   -1    0    0  502  501  0.00000000000E+00  0.00000000000E+00  0.43064879874E+03  0.43064879874E+03  0.00000000000E+00 0. -1.
         21   -1    0    0  501  502 -0.00000000000E+00 -0.00000000000E+00 -0.12492559885E+03  0.12492559885E+03  0.00000000000E+00 0. -1.
      99926    2    1    2    0    0  0.14210854715E-13  0.00000000000E+00  0.30572319989E+03  0.55557439759E+03  0.46389248356E+03 0.  0.
      99925    2    3    3    0    0 -0.94280987148E+02  0.19761299853E+02  0.27923738584E+03  0.39548560986E+03  0.26297516317E+03 0.  0.
         25    1    4    4    0    0 -0.48997826515E+02  0.18844838819E+02  0.19663405273E+03  0.23888987787E+03  0.12509000000E+03 0.  0.
         25    1    4    4    0    0 -0.45283160633E+02  0.91646103341E+00  0.82603333110E+02  0.15659573199E+03  0.12509000000E+03 0.  0.
         25    1    3    3    0    0  0.94280987148E+02 -0.19761299853E+02  0.26485814045E+02  0.16008878772E+03  0.12509000000E+03 0.  0.
<mgrwt>
<rscale>  2 0.46389248E+03</rscale>
<asrwt>0</asrwt>
<pdfrwt beam="1">  1       21 0.63330705E-01 0.46389248E+03</pdfrwt>
<pdfrwt beam="2">  1       21 0.18371412E-01 0.46389248E+03</pdfrwt>
<totfact> 0.57356932E+04</totfact>
</mgrwt>
</event>
<event>
 7    0  0.4759581E-002  0.4480306E+03  0.7546771E-02  0.1028311E+00
         21   -1    0    0  502  501  0.00000000000E+00  0.00000000000E+00  0.36814552818E+03  0.36814552818E+03  0.00000000000E+00 0.  1.
         21   -1    0    0  501  502 -0.00000000000E+00 -0.00000000000E+00 -0.13631254898E+03  0.13631254898E+03  0.00000000000E+00 0.  1.
      99926    2    1    2    0    0  0.00000000000E+00  0.00000000000E+00  0.23183297920E+03  0.50445807716E+03  0.44803060317E+03 0.  0.
      99925    2    3    3    0    0 -0.47289717216E+02  0.15067892844E+02  0.25279959793E+03  0.36825798190E+03  0.26314054376E+03 0.  0.
         25    1    3    3    0    0  0.47289717216E+02 -0.15067892844E+02 -0.20966618734E+02  0.13620009527E+03  0.12509000000E+03 0.  0.
         25    1    4    4    0    0 -0.18991636071E+02  0.22306495834E+02  0.74525290398E+02  0.14852538169E+03  0.12509000000E+03 0.  0.
         25    1    4    4    0    0 -0.28298081145E+02 -0.72386029898E+01  0.17827430753E+03  0.21973260021E+03  0.12509000000E+03 0.  0.
<mgrwt>
<rscale>  2 0.44803060E+03</rscale>
<asrwt>0</asrwt>
<pdfrwt beam="1">  1       21 0.54139048E-01 0.44803060E+03</pdfrwt>
<pdfrwt beam="2">  1       21 0.20045963E-01 0.44803060E+03</pdfrwt>
<totfact> 0.68679587E+04</totfact>
</mgrwt>
</event>
<event>
 7    0  0.4759581E-002  0.4527427E+03  0.7546771E-02  0.1026907E+00
         21   -1    0    0  502  501  0.00000000000E+00  0.00000000000E+00  0.15033554912E+03  0.15033554912E+03  0.00000000000E+00 0. -1.
         21   -1    0    0  501  502 -0.00000000000E+00 -0.00000000000E+00 -0.34086401980E+03  0.34086401980E+03  0.00000000000E+00 0. -1.
      99926    2    1    2    0    0  0.00000000000E+00  0.00000000000E+00 -0.19052847068E+03  0.49119956892E+03  0.45274266242E+03 0.  0.
      99925    2    3    3    0    0  0.94517608188E+02  0.46433592175E+02 -0.15833035294E+03  0.32454458512E+03  0.26300385991E+03 0.  0.
         25    1    4    4    0    0  0.89711576757E+02  0.20317189476E+02 -0.81445650004E+02  0.17533355981E+03  0.12509000000E+03 0.  0.
         25    1    3    3    0    0 -0.94517608188E+02 -0.46433592175E+02 -0.32198117741E+02  0.16665498380E+03  0.12509000000E+03 0.  0.
         25    1    4    4    0    0  0.48060314319E+01  0.26116402699E+02 -0.76884702937E+02  0.14921102531E+03  0.12509000000E+03 0.  0.
<mgrwt>
<rscale>  2 0.45274266E+03</rscale>
<asrwt>0</asrwt>
<pdfrwt beam="1">  1       21 0.22108169E-01 0.45274266E+03</pdfrwt>
<pdfrwt beam="2">  1       21 0.50127062E-01 0.45274266E+03</pdfrwt>
<totfact> 0.67087634E+04</totfact>
</mgrwt>
</event>
<event>
 7    0  0.4759581E-002  0.4552254E+03  0.7546771E-02  0.1026175E+00
         21   -1    0    0  502  501  0.00000000000E+00  0.00000000000E+00  0.33245584821E+03  0.33245584821E+03  0.00000000000E+00 0.  1.
         21   -1    0    0  501  502 -0.00000000000E+00 -0.00000000000E+00 -0.15583284880E+03  0.15583284880E+03  0.00000000000E+00 0.  1.
      99926    2    1    2    0    0  0.00000000000E+00  0.00000000000E+00  0.17662299942E+03  0.48828869701E+03  0.45522540318E+03 0.  0.
      99925    2    3    3    0    0 -0.23543320999E+02  0.29781053426E+02 -0.35113887937E+01  0.26571937068E+03  0.26297006483E+03 0.  0.
         25    1    4    4    0    0 -0.18471838635E+02  0.48871193133E+02  0.19649811822E+02  0.13697892373E+03  0.12509000000E+03 0.  0.
         25    1    3    3    0    0  0.23543320999E+02 -0.29781053426E+02  0.18013438821E+03  0.22256932633E+03  0.12509000000E+03 0.  0.
         25    1    4    4    0    0 -0.50714823634E+01 -0.19090139707E+02 -0.23161200615E+02  0.12874044695E+03  0.12509000000E+03 0.  0.
<mgrwt>
<rscale>  2 0.45522540E+03</rscale>
<asrwt>0</asrwt>
<pdfrwt beam="1">  1       21 0.48890566E-01 0.45522540E+03</pdfrwt>
<pdfrwt beam="2">  1       21 0.22916596E-01 0.45522540E+03</pdfrwt>
<totfact> 0.65983366E+04</totfact>
</mgrwt>
</event>
<event>
 7    0  0.4759581E-002  0.4549480E+03  0.7546771E-02  0.1026257E+00
         21   -1    0    0  502  501  0.00000000000E+00  0.00000000000E+00  0.27354057492E+03  0.27354057492E+03  0.00000000000E+00 0. -1.
         21   -1    0    0  501  502 -0.00000000000E+00 -0.00000000000E+00 -0.18916540913E+03  0.18916540913E+03  0.00000000000E+00 0. -1.
      99926    2    1    2    0    0  0.00000000000E+00  0.00000000000E+00  0.84375165798E+02  0.46270598405E+03  0.45494797403E+03 0.  0.
      99925    2    3    3    0    0 -0.75459198423E+02  0.32418223765E+02  0.13244839700E+03  0.30553227277E+03  0.26279718412E+03 0.  0.
         25    1    3    3    0    0  0.75459198423E+02 -0.32418223765E+02 -0.48073231200E+02  0.15717371128E+03  0.12509000000E+03 0.  0.
         25    1    4    4    0    0 -0.11884495815E+02 -0.11421585585E+02  0.80262862517E+02  0.14953704911E+03  0.12509000000E+03 0.  0.
         25    1    4    4    0    0 -0.63574702609E+02  0.43839809350E+02  0.52185534481E+02  0.15599522366E+03  0.12509000000E+03 0.  0.
<mgrwt>
<rscale>  2 0.45494797E+03</rscale>
<asrwt>0</asrwt>
<pdfrwt beam="1">  1       21 0.40226555E-01 0.45494797E+03</pdfrwt>
<pdfrwt beam="2">  1       21 0.27818442E-01 0.45494797E+03</pdfrwt>
<totfact> 0.68008898E+04</totfact>
</mgrwt>
</event>
<event>
 7    0  0.4759581E-002  0.4496691E+03  0.7546771E-02  0.1027821E+00
         21   -1    0    0  502  501  0.00000000000E+00  0.00000000000E+00  0.55056728949E+02  0.55056728949E+02  0.00000000000E+00 0.  1.
         21   -1    0    0  501  502 -0.00000000000E+00 -0.00000000000E+00 -0.91815433585E+03  0.91815433585E+03  0.00000000000E+00 0.  1.
      99926    2    1    2    0    0 -0.35527136788E-14  0.14210854715E-13 -0.86309760690E+03  0.97321106479E+03  0.44966909790E+03 0.  0.
      99925    2    3    3    0    0 -0.20321262361E+02  0.10600442101E+03 -0.56359352591E+03  0.63115830044E+03  0.26281789662E+03 0.  0.
         25    1    4    4    0    0 -0.49968045814E+02  0.61221646942E+02 -0.28932000501E+03  0.32495918060E+03  0.12509000000E+03 0.  0.
         25    1    3    3    0    0  0.20321262361E+02 -0.10600442101E+03 -0.29950408098E+03  0.34205276436E+03  0.12509000000E+03 0.  0.
         25    1    4    4    0    0  0.29646783453E+02  0.44782774068E+02 -0.27427352090E+03  0.30619911984E+03  0.12509000000E+03 0.  0.
<mgrwt>
<rscale>  2 0.44966910E+03</rscale>
<asrwt>0</asrwt>
<pdfrwt beam="1">  1       21 0.80965781E-02 0.44966910E+03</pdfrwt>
<pdfrwt beam="2">  1       21 0.13502269E+00 0.44966910E+03</pdfrwt>
<totfact> 0.41935487E+04</totfact>
</mgrwt>
</event>
<event>
 7    0  0.4759581E-002  0.4524019E+03  0.7546771E-02  0.1027008E+00
         21   -1    0    0  502  501  0.00000000000E+00  0.00000000000E+00  0.58674293623E+02  0.58674293623E+02  0.00000000000E+00 0. -1.
         21   -1    0    0  501  502 -0.00000000000E+00 -0.00000000000E+00 -0.87204922967E+03  0.87204922967E+03  0.00000000000E+00 0. -1.
      99926    2    1    2    0    0 -0.88817841970E-15  0.00000000000E+00 -0.81337493605E+03  0.93072352329E+03  0.45240191227E+03 0.  0.
      99925    2    3    3    0    0 -0.68388944081E+01  0.91736840019E+02 -0.63977344992E+03  0.69781280568E+03  0.26300233127E+03 0.  0.
         25    1    4    4    0    0 -0.43483480633E+02  0.46126993129E+02 -0.30630441091E+03  0.33688041324E+03  0.12509000000E+03 0.  0.
         25    1    4    4    0    0  0.36644586225E+02  0.45609846890E+02 -0.33346903902E+03  0.36093239244E+03  0.12509000000E+03 0.  0.
         25    1    3    3    0    0  0.68388944081E+01 -0.91736840019E+02 -0.17360148613E+03  0.23291071761E+03  0.12509000000E+03 0.  0.
<mgrwt>
<rscale>  2 0.45240191E+03</rscale>
<asrwt>0</asrwt>
<pdfrwt beam="1">  1       21 0.86285726E-02 0.45240191E+03</pdfrwt>
<pdfrwt beam="2">  1       21 0.12824253E+00 0.45240191E+03</pdfrwt>
<totfact> 0.42794423E+04</totfact>
</mgrwt>
</event>
<event>
 7    0  0.4759581E-002  0.4534572E+03  0.7546771E-02  0.1026696E+00
         21   -1    0    0  502  501  0.00000000000E+00  0.00000000000E+00  0.78870517583E+02  0.78870517583E+02  0.00000000000E+00 0.  1.
         21   -1    0    0  501  502 -0.00000000000E+00 -0.00000000000E+00 -0.65177519604E+03  0.65177519604E+03  0.00000000000E+00 0.  1.
      99926    2    1    2    0    0  0.14210854715E-13  0.00000000000E+00 -0.57290467846E+03  0.73064571362E+03  0.45345715149E+03 0.  0.
      99925    2    3    3    0    0 -0.88608720148E+02  0.67602655254E+02 -0.34740151120E+03  0.44971723371E+03  0.26293755157E+03 0.  0.
         25    1    3    3    0    0  0.88608720148E+02 -0.67602655254E+02 -0.22550316725E+03  0.28092847991E+03  0.12509000000E+03 0.  0.
         25    1    4    4    0    0 -0.71110545795E+02  0.40627319789E+02 -0.23482951730E+03  0.27838767776E+03  0.12509000000E+03 0.  0.
         25    1    4    4    0    0 -0.17498174354E+02  0.26975335465E+02 -0.11257199390E+03  0.17132955595E+03  0.12509000000E+03 0.  0.
<mgrwt>
<rscale>  2 0.45345715E+03</rscale>
<asrwt>0</asrwt>
<pdfrwt beam="1">  1       21 0.11598606E-01 0.45345715E+03</pdfrwt>
<pdfrwt beam="2">  1       21 0.95849291E-01 0.45345715E+03</pdfrwt>
<totfact> 0.51897268E+04</totfact>
</mgrwt>
</event>
<event>
 7    0  0.4759581E-002  0.4477993E+03  0.7546771E-02  0.1028380E+00
         21   -1    0    0  502  501  0.00000000000E+00  0.00000000000E+00  0.36912864668E+03  0.36912864668E+03  0.00000000000E+00 0. -1.
         21   -1    0    0  501  502 -0.00000000000E+00 -0.00000000000E+00 -0.13580918966E+03  0.13580918966E+03  0.00000000000E+00 0. -1.
      99926    2    1    2    0    0  0.35527136788E-14  0.14210854715E-13  0.23331945702E+03  0.50493783634E+03  0.44779934071E+03 0.  0.
      99925    2    3    3    0    0  0.22894634443E+02  0.96955781486E+02  0.10614468261E+03  0.30062063394E+03  0.26302373288E+03 0.  0.
         25    1    4    4    0    0 -0.10389186278E+02  0.22244358870E+02  0.75168135559E+02  0.14798818668E+03  0.12509000000E+03 0.  0.
         25    1    3    3    0    0 -0.22894634443E+02 -0.96955781486E+02  0.12717477440E+03  0.20431720239E+03  0.12509000000E+03 0.  0.
         25    1    4    4    0    0  0.33283820722E+02  0.74711422616E+02  0.30976547054E+02  0.15263244727E+03  0.12509000000E+03 0.  0.
<mgrwt>
<rscale>  2 0.44779934E+03</rscale>
<asrwt>0</asrwt>
<pdfrwt beam="1">  1       21 0.54283624E-01 0.44779934E+03</pdfrwt>
<pdfrwt beam="2">  1       21 0.19971940E-01 0.44779934E+03</pdfrwt>
<totfact> 0.68772073E+04</totfact>
</mgrwt>
</event>
<event>
 7    0  0.4759581E-002  0.4390285E+03  0.7546771E-02  0.1031045E+00
         21   -1    0    0  502  501  0.00000000000E+00  0.00000000000E+00  0.89715020060E+03  0.89715020060E+03  0.00000000000E+00 0. -1.
         21   -1    0    0  501  502 -0.00000000000E+00 -0.00000000000E+00 -0.53710623819E+02  0.53710623819E+02  0.00000000000E+00 0. -1.
      99926    2    1    2    0    0  0.00000000000E+00  0.00000000000E+00  0.84343957678E+03  0.95086082442E+03  0.43902845891E+03 0.  0.
      99925    2    3    3    0    0 -0.91508581115E+02  0.32191376096E+02  0.51864158399E+03  0.58954192187E+03  0.26298380158E+03 0.  0.
         25    1    3    3    0    0  0.91508581115E+02 -0.32191376096E+02  0.32479799279E+03  0.36131890254E+03  0.12509000000E+03 0.  0.
         25    1    4    4    0    0 -0.39714884022E+02 -0.64697935788E+01  0.18056094375E+03  0.22331344059E+03  0.12509000000E+03 0.  0.
         25    1    4    4    0    0 -0.51793697093E+02  0.38661169675E+02  0.33808064024E+03  0.36622848128E+03  0.12509000000E+03 0.  0.
<mgrwt>
<rscale>  2 0.43902846E+03</rscale>
<asrwt>0</asrwt>
<pdfrwt beam="1">  1       21 0.13193384E+00 0.43902846E+03</pdfrwt>
<pdfrwt beam="2">  1       21 0.78986217E-02 0.43902846E+03</pdfrwt>
<totfact> 0.46667336E+04</totfact>
</mgrwt>
</event>
<event>
 7    0  0.4759581E-002  0.4467648E+03  0.7546771E-02  0.1028691E+00
         21   -1    0    0  502  501  0.00000000000E+00  0.00000000000E+00  0.16953512195E+04  0.16953512195E+04  0.00000000000E+00 0. -1.
         21   -1    0    0  501  502 -0.00000000000E+00 -0.00000000000E+00 -0.29433256021E+02  0.29433256021E+02  0.00000000000E+00 0. -1.
      99926    2    1    2    0    0  0.00000000000E+00 -0.35527136788E-14  0.16659179635E+04  0.17247844756E+04  0.44676484414E+03 0.  0.
      99925    2    3    3    0    0  0.96178518520E+02  0.26364703195E+02  0.11861326832E+04  0.12190307525E+04  0.26302058585E+03 0.  0.
         25    1    4    4    0    0  0.74107422185E+02 -0.16457482873E+02  0.66816441860E+03  0.68399850669E+03  0.12509000000E+03 0.  0.
         25    1    4    4    0    0  0.22071096334E+02  0.42822186068E+02  0.51796826455E+03  0.53503224585E+03  0.12509000000E+03 0.  0.
         25    1    3    3    0    0 -0.96178518520E+02 -0.26364703195E+02  0.47978528036E+03  0.50575372302E+03  0.12509000000E+03 0.  0.
<mgrwt>
<rscale>  2 0.44676484E+03</rscale>
<asrwt>0</asrwt>
<pdfrwt beam="1">  1       21 0.24931629E+00 0.44676484E+03</pdfrwt>
<pdfrwt beam="2">  1       21 0.43284211E-02 0.44676484E+03</pdfrwt>
<totfact> 0.19998897E+04</totfact>
</mgrwt>
</event>
<event>
 7    0  0.4759581E-002  0.4701670E+03  0.7546771E-02  0.1021873E+00
         21   -1    0    0  502  501  0.00000000000E+00  0.00000000000E+00  0.11876421314E+03  0.11876421314E+03  0.00000000000E+00 0. -1.
         21   -1    0    0  501  502 -0.00000000000E+00 -0.00000000000E+00 -0.46532753932E+03  0.46532753932E+03  0.00000000000E+00 0. -1.
      99926    2    1    2    0    0  0.00000000000E+00 -0.71054273576E-14 -0.34656332618E+03  0.58409175247E+03  0.47016703016E+03 0.  0.
      99925    2    3    3    0    0 -0.10930968402E+03 -0.50736680786E+02 -0.26438602124E+03  0.39193703527E+03  0.26304344430E+03 0.  0.
         25    1    3    3    0    0  0.10930968402E+03  0.50736680786E+02 -0.82177304937E+02  0.19215471720E+03  0.12509000000E+03 0.  0.
         25    1    4    4    0    0 -0.19930507890E+02 -0.10792731092E+02 -0.88256154083E+02  0.15475905474E+03  0.12509000000E+03 0.  0.
         25    1    4    4    0    0 -0.89379176127E+02 -0.39943949694E+02 -0.17612986716E+03  0.23717798053E+03  0.12509000000E+03 0.  0.
<mgrwt>
<rscale>  2 0.47016703E+03</rscale>
<asrwt>0</asrwt>
<pdfrwt beam="1">  1       21 0.17465326E-01 0.47016703E+03</pdfrwt>
<pdfrwt beam="2">  1       21 0.68430520E-01 0.47016703E+03</pdfrwt>
<totfact> 0.53019512E+04</totfact>
</mgrwt>
</event>
<event>
 7    0  0.4759581E-002  0.4562474E+03  0.7546771E-02  0.1025875E+00
         21   -1    0    0  502  501  0.00000000000E+00  0.00000000000E+00  0.57667135071E+03  0.57667135071E+03  0.00000000000E+00 0.  1.
         21   -1    0    0  501  502 -0.00000000000E+00 -0.00000000000E+00 -0.90242762655E+02  0.90242762655E+02  0.00000000000E+00 0.  1.
      99926    2    1    2    0    0  0.00000000000E+00  0.00000000000E+00  0.48642858805E+03  0.66691411336E+03  0.45624737076E+03 0.  0.
      99925    2    3    3    0    0  0.73578845382E+02 -0.84374804254E+02  0.34009306473E+03  0.44421578026E+03  0.26292853149E+03 0.  0.
         25    1    4    4    0    0  0.38582574774E+02 -0.80801492262E+02  0.15806956479E+03  0.22056969792E+03  0.12509000000E+03 0.  0.
         25    1    4    4    0    0  0.34996270608E+02 -0.35733119921E+01  0.18202349994E+03  0.22364608234E+03  0.12509000000E+03 0.  0.
         25    1    3    3    0    0 -0.73578845382E+02  0.84374804254E+02  0.14633552332E+03  0.22269833310E+03  0.12509000000E+03 0.  0.
<mgrwt>
<rscale>  2 0.45624737E+03</rscale>
<asrwt>0</asrwt>
<pdfrwt beam="1">  1       21 0.84804609E-01 0.45624737E+03</pdfrwt>
<pdfrwt beam="2">  1       21 0.13270995E-01 0.45624737E+03</pdfrwt>
<totfact> 0.54201296E+04</totfact>
</mgrwt>
</event>
<event>
 7    0  0.4759581E-002  0.4504746E+03  0.7546771E-02  0.1027581E+00
         21   -1    0    0  502  501  0.00000000000E+00  0.00000000000E+00  0.49084454158E+03  0.49084454158E+03  0.00000000000E+00 0. -1.
         21   -1    0    0  501  502 -0.00000000000E+00 -0.00000000000E+00 -0.10335624153E+03  0.10335624153E+03  0.00000000000E+00 0. -1.
      99926    2    1    2    0    0  0.00000000000E+00 -0.71054273576E-14  0.38748830005E+03  0.59420078312E+03  0.45047462524E+03 0.  0.
      99925    2    3    3    0    0 -0.85680798319E+02 -0.42102469525E+02  0.17564858673E+03  0.33031181142E+03  0.26294419485E+03 0.  0.
         25    1    3    3    0    0  0.85680798319E+02  0.42102469525E+02  0.21183971332E+03  0.26388897169E+03  0.12509000000E+03 0.  0.
         25    1    4    4    0    0 -0.27651492980E+02 -0.41809027251E+02  0.12379449230E+03  0.18298957415E+03  0.12509000000E+03 0.  0.
         25    1    4    4    0    0 -0.58029305340E+02 -0.29344227427E+00  0.51854094425E+02  0.14732223727E+03  0.12509000000E+03 0.  0.
<mgrwt>
<rscale>  2 0.45047463E+03</rscale>
<asrwt>0</asrwt>
<pdfrwt beam="1">  1       21 0.72183020E-01 0.45047463E+03</pdfrwt>
<pdfrwt beam="2">  1       21 0.15199447E-01 0.45047463E+03</pdfrwt>
<totfact> 0.61195916E+04</totfact>
</mgrwt>
</event>
<event>
 7    0  0.4759581E-002  0.4663821E+03  0.7546771E-02  0.1022946E+00
         21   -1    0    0  502  501  0.00000000000E+00  0.00000000000E+00  0.16145266707E+03  0.16145266707E+03  0.00000000000E+00 0.  1.
         21   -1    0    0  501  502 -0.00000000000E+00 -0.00000000000E+00 -0.33680492999E+03  0.33680492999E+03  0.00000000000E+00 0.  1.
      99926    2    1    2    0    0  0.00000000000E+00  0.35527136788E-14 -0.17535226292E+03  0.49825759706E+03  0.46638205038E+03 0.  0.
      99925    2    3    3    0    0  0.10666320500E+03  0.31394975085E+02 -0.51959767621E+02  0.29032515668E+03  0.26310871401E+03 0.  0.
         25    1    4    4    0    0  0.33857415399E+02  0.48542086836E+02 -0.10429648665E+02  0.13877659905E+03  0.12509000000E+03 0.  0.
         25    1    3    3    0    0 -0.10666320500E+03 -0.31394975085E+02 -0.12339249530E+03  0.20793244037E+03  0.12509000000E+03 0.  0.
         25    1    4    4    0    0  0.72805789606E+02 -0.17147111751E+02 -0.41530118955E+02  0.15154855764E+03  0.12509000000E+03 0.  0.
<mgrwt>
<rscale>  2 0.46638205E+03</rscale>
<asrwt>0</asrwt>
<pdfrwt beam="1">  1       21 0.23743039E-01 0.46638205E+03</pdfrwt>
<pdfrwt beam="2">  1       21 0.49530137E-01 0.46638205E+03</pdfrwt>
<totfact> 0.59804068E+04</totfact>
</mgrwt>
</event>
<event>
 7    0  0.4759581E-002  0.4498212E+03  0.7546771E-02  0.1027775E+00
         21   -1    0    0  502  501  0.00000000000E+00  0.00000000000E+00  0.65363908160E+02  0.65363908160E+02  0.00000000000E+00 0. -1.
         21   -1    0    0  501  502 -0.00000000000E+00 -0.00000000000E+00 -0.77389453683E+03  0.77389453683E+03  0.00000000000E+00 0. -1.
      99926    2    1    2    0    0  0.00000000000E+00  0.00000000000E+00 -0.70853062867E+03  0.83925844499E+03  0.44982117083E+03 0.  0.
      99925    2    3    3    0    0 -0.74012928889E+02  0.77547399194E+02 -0.41881819533E+03  0.50598331106E+03  0.26290476901E+03 0.  0.
         25    1    4    4    0    0 -0.71623057840E+02  0.26979845444E+02 -0.25026865640E+03  0.29006841081E+03  0.12509000000E+03 0.  0.
         25    1    3    3    0    0  0.74012928889E+02 -0.77547399194E+02 -0.28971243334E+03  0.33327513393E+03  0.12509000000E+03 0.  0.
         25    1    4    4    0    0 -0.23898710486E+01  0.50567553750E+02 -0.16854953893E+03  0.21591490025E+03  0.12509000000E+03 0.  0.
<mgrwt>
<rscale>  2 0.44982117E+03</rscale>
<asrwt>0</asrwt>
<pdfrwt beam="1">  1       21 0.96123404E-02 0.44982117E+03</pdfrwt>
<pdfrwt beam="2">  1       21 0.11380801E+00 0.44982117E+03</pdfrwt>
<totfact> 0.47838007E+04</totfact>
</mgrwt>
</event>
<event>
 7    0  0.4759581E-002  0.4564039E+03  0.7546771E-02  0.1025829E+00
         21   -1    0    0  502  501  0.00000000000E+00  0.00000000000E+00  0.52485124419E+03  0.52485124419E+03  0.00000000000E+00 0. -1.
         21   -1    0    0  501  502 -0.00000000000E+00 -0.00000000000E+00 -0.99220747826E+02  0.99220747826E+02  0.00000000000E+00 0. -1.
      99926    2    1    2    0    0 -0.17763568394E-14  0.00000000000E+00  0.42563049636E+03  0.62407199202E+03  0.45640391298E+03 0.  0.
      99925    2    3    3    0    0 -0.15897104433E+02  0.10851126516E+03  0.22280031421E+03  0.36174585247E+03  0.26304499458E+03 0.  0.
         25    1    3    3    0    0  0.15897104433E+02 -0.10851126516E+03  0.20283018215E+03  0.26232613955E+03  0.12509000000E+03 0.  0.
         25    1    4    4    0    0 -0.16263355284E+02  0.48921480237E+02  0.60112698020E+02  0.14805016892E+03  0.12509000000E+03 0.  0.
         25    1    4    4    0    0  0.36625085087E+00  0.59589784926E+02  0.16268761619E+03  0.21369568355E+03  0.12509000000E+03 0.  0.
<mgrwt>
<rscale>  2 0.45640391E+03</rscale>
<asrwt>0</asrwt>
<pdfrwt beam="1">  1       21 0.77184005E-01 0.45640391E+03</pdfrwt>
<pdfrwt beam="2">  1       21 0.14591287E-01 0.45640391E+03</pdfrwt>
<totfact> 0.56590603E+04</totfact>
</mgrwt>
</event>
<event>
 7    0  0.4759581E-002  0.4756766E+03  0.7546771E-02  0.1020330E+00
         21   -1    0    0  502  501  0.00000000000E+00  0.00000000000E+00  0.29198588663E+03  0.29198588663E+03  0.00000000000E+00 0.  1.
         21   -1    0    0  501  502 -0.00000000000E+00 -0.00000000000E+00 -0.19373218556E+03  0.19373218556E+03  0.00000000000E+00 0.  1.
      99926    2    1    2    0    0  0.00000000000E+00 -0.71054273576E-14  0.98253701072E+02  0.48571807220E+03  0.47567662953E+03 0.  0.
      99925    2    3    3    0    0  0.95235050137E+02  0.37065788660E+02  0.14572330484E+03  0.31735994544E+03  0.26275171918E+03 0.  0.
         25    1    4    4    0    0  0.34406798458E+02  0.36313821678E+02  0.10953576323E+03  0.17363211958E+03  0.12509000000E+03 0.  0.
         25    1    4    4    0    0  0.60828251679E+02  0.75196698232E+00  0.36187541618E+02  0.14372782585E+03  0.12509000000E+03 0.  0.
         25    1    3    3    0    0 -0.95235050137E+02 -0.37065788660E+02 -0.47469603773E+02  0.16835812676E+03  0.12509000000E+03 0.  0.
<mgrwt>
<rscale>  2 0.47567663E+03</rscale>
<asrwt>0</asrwt>
<pdfrwt beam="1">  1       21 0.42939101E-01 0.47567663E+03</pdfrwt>
<pdfrwt beam="2">  1       21 0.28490027E-01 0.47567663E+03</pdfrwt>
<totfact> 0.56437162E+04</totfact>
</mgrwt>
</event>
<event>
 7    0  0.4759581E-002  0.5379379E+03  0.7546771E-02  0.1004325E+00
         21   -1    0    0  502  501  0.00000000000E+00  0.00000000000E+00  0.38781274298E+03  0.38781274298E+03  0.00000000000E+00 0. -1.
         21   -1    0    0  501  502 -0.00000000000E+00 -0.00000000000E+00 -0.18654438689E+03  0.18654438689E+03  0.00000000000E+00 0. -1.
      99926    2    1    2    0    0  0.88817841970E-15  0.00000000000E+00  0.20126835609E+03  0.57435712988E+03  0.53793787883E+03 0.  0.
      99925    2    3    3    0    0  0.65718214568E+01  0.17568703483E+03  0.16075643227E+03  0.35481704899E+03  0.26295129718E+03 0.  0.
         25    1    4    4    0    0  0.11947894385E+00  0.39822144936E+02  0.59949085132E+02  0.14431638303E+03  0.12509000000E+03 0.  0.
         25    1    3    3    0    0 -0.65718214568E+01 -0.17568703483E+03  0.40511923816E+02  0.21954008089E+03  0.12509000000E+03 0.  0.
         25    1    4    4    0    0  0.64523425130E+01  0.13586488990E+03  0.10080734714E+03  0.21050066596E+03  0.12509000000E+03 0.  0.
<mgrwt>
<rscale>  2 0.53793788E+03</rscale>
<asrwt>0</asrwt>
<pdfrwt beam="1">  1       21 0.57031286E-01 0.53793788E+03</pdfrwt>
<pdfrwt beam="2">  1       21 0.27432998E-01 0.53793788E+03</pdfrwt>
<totfact> 0.32817263E+04</totfact>
</mgrwt>
</event>
<event>
 7    0  0.4759581E-002  0.4559272E+03  0.7546771E-02  0.1025969E+00
         21   -1    0    0  502  501  0.00000000000E+00  0.00000000000E+00  0.43423598193E+03  0.43423598193E+03  0.00000000000E+00 0. -1.
         21   -1    0    0  501  502 -0.00000000000E+00 -0.00000000000E+00 -0.11967547514E+03  0.11967547514E+03  0.00000000000E+00 0. -1.
      99926    2    1    2    0    0  0.00000000000E+00  0.00000000000E+00  0.31456050679E+03  0.55391145707E+03  0.45592717603E+03 0.  0.
      99925    2    3    3    0    0 -0.48516097315E+02 -0.10070519655E+03  0.22571890646E+03  0.36408077894E+03  0.26288864667E+03 0.  0.
         25    1    4    4    0    0  0.15003498653E+02 -0.54404664541E+02  0.12144310905E+03  0.18325094633E+03  0.12509000000E+03 0.  0.
         25    1    3    3    0    0  0.48516097315E+02  0.10070519655E+03  0.88841600334E+02  0.18983067813E+03  0.12509000000E+03 0.  0.
         25    1    4    4    0    0 -0.63519595968E+02 -0.46300532009E+02  0.10427579741E+03  0.18082983261E+03  0.12509000000E+03 0.  0.
<mgrwt>
<rscale>  2 0.45592718E+03</rscale>
<asrwt>0</asrwt>
<pdfrwt beam="1">  1       21 0.63858232E-01 0.45592718E+03</pdfrwt>
<pdfrwt beam="2">  1       21 0.17599335E-01 0.45592718E+03</pdfrwt>
<totfact> 0.61158940E+04</totfact>
</mgrwt>
</event>
<event>
 7    0  0.4759581E-002  0.4571169E+03  0.7546771E-02  0.1025621E+00
         21   -1    0    0  502  501  0.00000000000E+00  0.00000000000E+00  0.88723283599E+03  0.88723283599E+03  0.00000000000E+00 0.  1.
         21   -1    0    0  501  502 -0.00000000000E+00 -0.00000000000E+00 -0.58878528548E+02  0.58878528548E+02  0.00000000000E+00 0.  1.
      99926    2    1    2    0    0  0.00000000000E+00  0.00000000000E+00  0.82835430744E+03  0.94611136454E+03  0.45711689473E+03 0.  0.
      99925    2    3    3    0    0 -0.59503872016E+02  0.92326591543E+02  0.44964805536E+03  0.53243172550E+03  0.26312593627E+03 0.  0.
         25    1    3    3    0    0  0.59503872016E+02 -0.92326591543E+02  0.37870625208E+03  0.41367963904E+03  0.12509000000E+03 0.  0.
         25    1    4    4    0    0 -0.62516802535E+02  0.73958402143E+02  0.26497454232E+03  0.30860526895E+03  0.12509000000E+03 0.  0.
         25    1    4    4    0    0  0.30129305191E+01  0.18368189400E+02  0.18467351304E+03  0.22382645655E+03  0.12509000000E+03 0.  0.
<mgrwt>
<rscale>  2 0.45711689E+03</rscale>
<asrwt>0</asrwt>
<pdfrwt beam="1">  1       21 0.13047541E+00 0.45711689E+03</pdfrwt>
<pdfrwt beam="2">  1       21 0.86586077E-02 0.45711689E+03</pdfrwt>
<totfact> 0.40622011E+04</totfact>
</mgrwt>
</event>
<event>
 7    0  0.4759581E-002  0.4576032E+03  0.7546771E-02  0.1025479E+00
         21   -1    0    0  502  501  0.00000000000E+00  0.00000000000E+00  0.13005749174E+04  0.13005749174E+04  0.00000000000E+00 0.  1.
         21   -1    0    0  501  502 -0.00000000000E+00 -0.00000000000E+00 -0.40251554881E+02  0.40251554881E+02  0.00000000000E+00 0.  1.
      99926    2    1    2    0    0  0.71054273576E-14  0.00000000000E+00  0.12603233625E+04  0.13408264723E+04  0.45760315849E+03 0.  0.
      99925    2    3    3    0    0  0.37468345189E+02  0.10703119632E+03  0.72450554972E+03  0.77903666240E+03  0.26292636974E+03 0.  0.
         25    1    4    4    0    0  0.47916775172E+02  0.54308532552E+02  0.44960487846E+03  0.47226845002E+03  0.12509000000E+03 0.  0.
         25    1    3    3    0    0 -0.37468345189E+02 -0.10703119632E+03  0.53581781280E+03  0.56178980989E+03  0.12509000000E+03 0.  0.
         25    1    4    4    0    0 -0.10448429984E+02  0.52722663772E+02  0.27490067126E+03  0.30676821238E+03  0.12509000000E+03 0.  0.
<mgrwt>
<rscale>  2 0.45760316E+03</rscale>
<asrwt>0</asrwt>
<pdfrwt beam="1">  1       21 0.19126099E+00 0.45760316E+03</pdfrwt>
<pdfrwt beam="2">  1       21 0.59193472E-02 0.45760316E+03</pdfrwt>
<totfact> 0.27393105E+04</totfact>
</mgrwt>
</event>
<event>
 7    0  0.4759581E-002  0.4553226E+03  0.7546771E-02  0.1026147E+00
         21   -1    0    0  502  501  0.00000000000E+00  0.00000000000E+00  0.49518208707E+03  0.49518208707E+03  0.00000000000E+00 0.  1.
         21   -1    0    0  501  502 -0.00000000000E+00 -0.00000000000E+00 -0.10466790212E+03  0.10466790212E+03  0.00000000000E+00 0.  1.
      99926    2    1    2    0    0  0.35527136788E-14  0.00000000000E+00  0.39051418495E+03  0.59984998919E+03  0.45532261188E+03 0.  0.
      99925    2    3    3    0    0 -0.20497306599E+02 -0.78761399109E+02  0.35012246352E+03  0.44524566574E+03  0.26274410714E+03 0.  0.
         25    1    3    3    0    0  0.20497306599E+02  0.78761399109E+02  0.40391721428E+02  0.15460432344E+03  0.12509000000E+03 0.  0.
         25    1    4    4    0    0  0.12105873826E+01 -0.26126402451E+02  0.11020459990E+03  0.16875015961E+03  0.12509000000E+03 0.  0.
         25    1    4    4    0    0 -0.21707893981E+02 -0.52634996659E+02  0.23991786361E+03  0.27649550614E+03  0.12509000000E+03 0.  0.
<mgrwt>
<rscale>  2 0.45532261E+03</rscale>
<asrwt>0</asrwt>
<pdfrwt beam="1">  1       21 0.72820895E-01 0.45532261E+03</pdfrwt>
<pdfrwt beam="2">  1       21 0.15392339E-01 0.45532261E+03</pdfrwt>
<totfact> 0.58538142E+04</totfact>
</mgrwt>
</event>
<event>
 7    0  0.4759581E-002  0.4532131E+03  0.7546771E-02  0.1026768E+00
         21   -1    0    0  502  501  0.00000000000E+00  0.00000000000E+00  0.48039012452E+03  0.48039012452E+03  0.00000000000E+00 0. -1.
         21   -1    0    0  501  502 -0.00000000000E+00 -0.00000000000E+00 -0.10689338428E+03  0.10689338428E+03  0.00000000000E+00 0. -1.
      99926    2    1    2    0    0  0.00000000000E+00  0.14210854715E-13  0.37349674024E+03  0.58728350880E+03  0.45321308978E+03 0.  0.
      99925    2    3    3    0    0  0.67235693761E+02 -0.82235279769E+02  0.27932240023E+03  0.39807570196E+03  0.26298285394E+03 0.  0.
         25    1    3    3    0    0 -0.67235693761E+02  0.82235279769E+02  0.94174340005E+02  0.18920780684E+03  0.12509000000E+03 0.  0.
         25    1    4    4    0    0  0.51695348534E+02 -0.80467839675E+02  0.16028967330E+03  0.22469483694E+03  0.12509000000E+03 0.  0.
         25    1    4    4    0    0  0.15540345227E+02 -0.17674400941E+01  0.11903272694E+03  0.17338086502E+03  0.12509000000E+03 0.  0.
<mgrwt>
<rscale>  2 0.45321309E+03</rscale>
<asrwt>0</asrwt>
<pdfrwt beam="1">  1       21 0.70645606E-01 0.45321309E+03</pdfrwt>
<pdfrwt beam="2">  1       21 0.15719616E-01 0.45321309E+03</pdfrwt>
<totfact> 0.60315287E+04</totfact>
</mgrwt>
</event>
<event>
 7    0  0.4759581E-002  0.4568185E+03  0.7546771E-02  0.1025708E+00
         21   -1    0    0  502  501  0.00000000000E+00  0.00000000000E+00  0.15119841291E+03  0.15119841291E+03  0.00000000000E+00 0.  1.
         21   -1    0    0  501  502 -0.00000000000E+00 -0.00000000000E+00 -0.34504846571E+03  0.34504846571E+03  0.00000000000E+00 0.  1.
      99926    2    1    2    0    0  0.00000000000E+00  0.35527136788E-14 -0.19385005280E+03  0.49624687862E+03  0.45681847770E+03 0.  0.
      99925    2    3    3    0    0 -0.72635742100E+02  0.27986011489E+02 -0.30603229837E+02  0.27634644393E+03  0.26338494932E+03 0.  0.
         25    1    3    3    0    0  0.72635742100E+02 -0.27986011489E+02 -0.16324682296E+03  0.21990043469E+03  0.12509000000E+03 0.  0.
         25    1    4    4    0    0 -0.19887379456E+02  0.37814205212E+01 -0.51673548361E+02  0.13684834929E+03  0.12509000000E+03 0.  0.
         25    1    4    4    0    0 -0.52748362644E+02  0.24204590968E+02  0.21070318524E+02  0.13949809464E+03  0.12509000000E+03 0.  0.
<mgrwt>
<rscale>  2 0.45681848E+03</rscale>
<asrwt>0</asrwt>
<pdfrwt beam="1">  1       21 0.22235061E-01 0.45681848E+03</pdfrwt>
<pdfrwt beam="2">  1       21 0.50742421E-01 0.45681848E+03</pdfrwt>
<totfact> 0.64597557E+04</totfact>
</mgrwt>
</event>
<event>
 7    0  0.4759581E-002  0.4599086E+03  0.7546771E-02  0.1024808E+00
         21   -1    0    0  502  501  0.00000000000E+00  0.00000000000E+00  0.31519151852E+03  0.31519151852E+03  0.00000000000E+00 0. -1.
         21   -1    0    0  501  502 -0.00000000000E+00 -0.00000000000E+00 -0.16776779410E+03  0.16776779410E+03  0.00000000000E+00 0. -1.
      99926    2    1    2    0    0  0.00000000000E+00  0.00000000000E+00  0.14742372442E+03  0.48295931262E+03  0.45990862476E+03 0.  0.
      99925    2    3    3    0    0 -0.28604876065E+02 -0.43245760856E+01 -0.27385492554E+02  0.26606599476E+03  0.26306692585E+03 0.  0.
         25    1    4    4    0    0  0.19008605813E+02 -0.25355377377E+02 -0.92910342563E+01  0.12937563014E+03  0.12509000000E+03 0.  0.
         25    1    4    4    0    0 -0.47613481878E+02  0.21030801291E+02 -0.18094458298E+02  0.13669036462E+03  0.12509000000E+03 0.  0.
         25    1    3    3    0    0  0.28604876065E+02  0.43245760856E+01  0.17480921697E+03  0.21689331786E+03  0.12509000000E+03 0.  0.
<mgrwt>
<rscale>  2 0.45990862E+03</rscale>
<asrwt>0</asrwt>
<pdfrwt beam="1">  1       21 0.46351694E-01 0.45990862E+03</pdfrwt>
<pdfrwt beam="2">  1       21 0.24671734E-01 0.45990862E+03</pdfrwt>
<totfact> 0.63956859E+04</totfact>
</mgrwt>
</event>
<event>
 7    0  0.4759581E-002  0.4563362E+03  0.7546771E-02  0.1025849E+00
         21   -1    0    0  502  501  0.00000000000E+00  0.00000000000E+00  0.27784191506E+03  0.27784191506E+03  0.00000000000E+00 0. -1.
         21   -1    0    0  501  502 -0.00000000000E+00 -0.00000000000E+00 -0.18737522539E+03  0.18737522539E+03  0.00000000000E+00 0. -1.
      99926    2    1    2    0    0  0.00000000000E+00  0.00000000000E+00  0.90466689665E+02  0.46521714045E+03  0.45633624207E+03 0.  0.
      99925    2    3    3    0    0  0.25492599024E+02  0.10074396767E+03  0.10567021606E+03  0.30188350967E+03  0.26299855365E+03 0.  0.
         25    1    4    4    0    0 -0.12321591464E+02  0.55928155848E+02  0.19219878484E+02  0.13891253385E+03  0.12509000000E+03 0.  0.
         25    1    4    4    0    0  0.37814190488E+02  0.44815811823E+02  0.86450337580E+02  0.16297097582E+03  0.12509000000E+03 0.  0.
         25    1    3    3    0    0 -0.25492599024E+02 -0.10074396767E+03 -0.15203526399E+02  0.16333363077E+03  0.12509000000E+03 0.  0.
<mgrwt>
<rscale>  2 0.45633624E+03</rscale>
<asrwt>0</asrwt>
<pdfrwt beam="1">  1       21 0.40859105E-01 0.45633624E+03</pdfrwt>
<pdfrwt beam="2">  1       21 0.27555180E-01 0.45633624E+03</pdfrwt>
<totfact> 0.67078757E+04</totfact>
</mgrwt>
</event>
<event>
 7    0  0.4759581E-002  0.4623506E+03  0.7546771E-02  0.1024102E+00
         21   -1    0    0  502  501  0.00000000000E+00  0.00000000000E+00  0.85071499393E+02  0.85071499393E+02  0.00000000000E+00 0. -1.
         21   -1    0    0  501  502 -0.00000000000E+00 -0.00000000000E+00 -0.62820121984E+03  0.62820121984E+03  0.00000000000E+00 0. -1.
      99926    2    1    2    0    0  0.00000000000E+00  0.00000000000E+00 -0.54312972044E+03  0.71327271923E+03  0.46235060156E+03 0.  0.
      99925    2    3    3    0    0  0.10658036757E+03 -0.54389874201E+02 -0.32676208348E+03  0.43618050427E+03  0.26298733797E+03 0.  0.
         25    1    3    3    0    0 -0.10658036757E+03  0.54389874201E+02 -0.21636763696E+03  0.27709221496E+03  0.12509000000E+03 0.  0.
         25    1    4    4    0    0  0.56090642962E+02 -0.59001895866E+02 -0.21047987354E+03  0.25802455156E+03  0.12509000000E+03 0.  0.
         25    1    4    4    0    0  0.50489724612E+02  0.46120216658E+01 -0.11628220995E+03  0.17815595271E+03  0.12509000000E+03 0.  0.
<mgrwt>
<rscale>  2 0.46235060E+03</rscale>
<asrwt>0</asrwt>
<pdfrwt beam="1">  1       21 0.12510515E-01 0.46235060E+03</pdfrwt>
<pdfrwt beam="2">  1       21 0.92382533E-01 0.46235060E+03</pdfrwt>
<totfact> 0.49276283E+04</totfact>
</mgrwt>
</event>
<event>
 7    0  0.4759581E-002  0.4553674E+03  0.7546771E-02  0.1026133E+00
         21   -1    0    0  502  501  0.00000000000E+00  0.00000000000E+00  0.18355995468E+03  0.18355995468E+03  0.00000000000E+00 0.  1.
         21   -1    0    0  501  502 -0.00000000000E+00 -0.00000000000E+00 -0.28241381707E+03  0.28241381707E+03  0.00000000000E+00 0.  1.
      99926    2    1    2    0    0  0.44408920985E-15  0.14210854715E-13 -0.98853862389E+02  0.46597377175E+03  0.45536740095E+03 0.  0.
      99925    2    3    3    0    0  0.29596995380E+01  0.82414428529E+02 -0.14216896348E+03  0.31001030188E+03  0.26285637759E+03 0.  0.
         25    1    4    4    0    0 -0.38538117341E+02  0.35946524171E+02 -0.69067516549E+02  0.15229960286E+03  0.12509000000E+03 0.  0.
         25    1    4    4    0    0  0.41497816879E+02  0.46467904358E+02 -0.73101446934E+02  0.15771069902E+03  0.12509000000E+03 0.  0.
         25    1    3    3    0    0 -0.29596995380E+01 -0.82414428529E+02  0.43315101094E+02  0.15596346987E+03  0.12509000000E+03 0.  0.
<mgrwt>
<rscale>  2 0.45536740E+03</rscale>
<asrwt>0</asrwt>
<pdfrwt beam="1">  1       21 0.26994111E-01 0.45536740E+03</pdfrwt>
<pdfrwt beam="2">  1       21 0.41531443E-01 0.45536740E+03</pdfrwt>
<totfact> 0.67539832E+04</totfact>
</mgrwt>
</event>
<event>
 7    0  0.4759581E-002  0.4547750E+03  0.7546771E-02  0.1026308E+00
         21   -1    0    0  502  501  0.00000000000E+00  0.00000000000E+00  0.18390802138E+03  0.18390802138E+03  0.00000000000E+00 0.  1.
         21   -1    0    0  501  502 -0.00000000000E+00 -0.00000000000E+00 -0.28114633906E+03  0.28114633906E+03  0.00000000000E+00 0.  1.
      99926    2    1    2    0    0 -0.71054273576E-14  0.00000000000E+00 -0.97238317681E+02  0.46505436043E+03  0.45477496384E+03 0.  0.
      99925    2    3    3    0    0  0.37183889760E+02 -0.41016161018E+02 -0.16193062670E+03  0.31373492986E+03  0.26295077720E+03 0.  0.
         25    1    3    3    0    0 -0.37183889760E+02  0.41016161018E+02  0.64692309015E+02  0.15131943057E+03  0.12509000000E+03 0.  0.
         25    1    4    4    0    0  0.21706211071E+02 -0.95787368763E+01 -0.34841004333E+02  0.13200119500E+03  0.12509000000E+03 0.  0.
         25    1    4    4    0    0  0.15477678689E+02 -0.31437424142E+02 -0.12708962236E+03  0.18173373486E+03  0.12509000000E+03 0.  0.
<mgrwt>
<rscale>  2 0.45477496E+03</rscale>
<asrwt>0</asrwt>
<pdfrwt beam="1">  1       21 0.27045298E-01 0.45477496E+03</pdfrwt>
<pdfrwt beam="2">  1       21 0.41345049E-01 0.45477496E+03</pdfrwt>
<totfact> 0.67927112E+04</totfact>
</mgrwt>
</event>
<event>
 7    0  0.4759581E-002  0.4551438E+03  0.7546771E-02  0.1026199E+00
         21   -1    0    0  502  501  0.00000000000E+00  0.00000000000E+00  0.65567343144E+03  0.65567343144E+03  0.00000000000E+00 0.  1.
         21   -1    0    0  501  502 -0.00000000000E+00 -0.00000000000E+00 -0.78985930171E+02  0.78985930171E+02  0.00000000000E+00 0.  1.
      99926    2    1    2    0    0 -0.14210854715E-13  0.00000000000E+00  0.57668750127E+03  0.73465936161E+03  0.45514382725E+03 0.  0.
      99925    2    3    3    0    0  0.89938154458E+02 -0.66313608349E+02  0.33308996919E+03  0.43889994584E+03  0.26305487756E+03 0.  0.
         25    1    3    3    0    0 -0.89938154458E+02  0.66313608349E+02  0.24359753208E+03  0.29575941577E+03  0.12509000000E+03 0.  0.
         25    1    4    4    0    0  0.24206776274E+02 -0.64703017828E+02  0.19056439676E+03  0.23819056645E+03  0.12509000000E+03 0.  0.
         25    1    4    4    0    0  0.65731378184E+02 -0.16105905212E+01  0.14252557243E+03  0.20070937939E+03  0.12509000000E+03 0.  0.
<mgrwt>
<rscale>  2 0.45514383E+03</rscale>
<asrwt>0</asrwt>
<pdfrwt beam="1">  1       21 0.96422561E-01 0.45514383E+03</pdfrwt>
<pdfrwt beam="2">  1       21 0.11615578E-01 0.45514383E+03</pdfrwt>
<totfact> 0.51003569E+04</totfact>
</mgrwt>
</event>
<event>
 7    0  0.4759581E-002  0.4622350E+03  0.7546771E-02  0.1024135E+00
         21   -1    0    0  502  501  0.00000000000E+00  0.00000000000E+00  0.72266554036E+02  0.72266554036E+02  0.00000000000E+00 0.  1.
         21   -1    0    0  501  502 -0.00000000000E+00 -0.00000000000E+00 -0.73914283176E+03  0.73914283176E+03  0.00000000000E+00 0.  1.
      99926    2    1    2    0    0  0.14210854715E-13 -0.14210854715E-13 -0.66687627773E+03  0.81140938580E+03  0.46223502849E+03 0.  0.
      99925    2    3    3    0    0 -0.75959040816E+02  0.91878012352E+02 -0.39204113588E+03  0.48676618422E+03  0.26274268942E+03 0.  0.
         25    1    4    4    0    0 -0.74170571360E+02  0.45240086638E+02 -0.24186384231E+03  0.28582086245E+03  0.12509000000E+03 0.  0.
         25    1    3    3    0    0  0.75959040816E+02 -0.91878012352E+02 -0.27483514185E+03  0.32464320158E+03  0.12509000000E+03 0.  0.
         25    1    4    4    0    0 -0.17884694566E+01  0.46637925714E+02 -0.15017729356E+03  0.20094532177E+03  0.12509000000E+03 0.  0.
<mgrwt>
<rscale>  2 0.46223503E+03</rscale>
<asrwt>0</asrwt>
<pdfrwt beam="1">  1       21 0.10627434E-01 0.46223503E+03</pdfrwt>
<pdfrwt beam="2">  1       21 0.10869748E+00 0.46223503E+03</pdfrwt>
<totfact> 0.44629617E+04</totfact>
</mgrwt>
</event>
<event>
 7    0  0.4759581E-002  0.4574816E+03  0.7546771E-02  0.1025514E+00
         21   -1    0    0  502  501  0.00000000000E+00  0.00000000000E+00  0.11270985010E+04  0.11270985010E+04  0.00000000000E+00 0.  1.
         21   -1    0    0  501  502 -0.00000000000E+00 -0.00000000000E+00 -0.46422168829E+02  0.46422168829E+02  0.00000000000E+00 0.  1.
      99926    2    1    2    0    0  0.35527136788E-14  0.00000000000E+00  0.10806763322E+04  0.11735206699E+04  0.45748161450E+03 0.  0.
      99925    2    3    3    0    0 -0.26982472346E+02  0.56589261130E+02  0.92741734638E+03  0.96599663962E+03  0.26289955328E+03 0.  0.
         25    1    3    3    0    0  0.26982472346E+02 -0.56589261130E+02  0.15325898583E+03  0.20752403024E+03  0.12509000000E+03 0.  0.
         25    1    4    4    0    0 -0.11798059296E+02  0.26440451142E+02  0.31769289719E+03  0.34265810465E+03  0.12509000000E+03 0.  0.
         25    1    4    4    0    0 -0.15184413050E+02  0.30148809988E+02  0.60972444919E+03  0.62333853497E+03  0.12509000000E+03 0.  0.
<mgrwt>
<rscale>  2 0.45748161E+03</rscale>
<asrwt>0</asrwt>
<pdfrwt beam="1">  1       21 0.16574976E+00 0.45748161E+03</pdfrwt>
<pdfrwt beam="2">  1       21 0.68267902E-02 0.45748161E+03</pdfrwt>
<totfact> 0.32376112E+04</totfact>
</mgrwt>
</event>
<event>
 7    0  0.4759581E-002  0.4201954E+03  0.7546771E-02  0.1037003E+00
         21   -1    0    0  502  501  0.00000000000E+00  0.00000000000E+00  0.14567082732E+03  0.14567082732E+03  0.00000000000E+00 0.  1.
         21   -1    0    0  501  502 -0.00000000000E+00 -0.00000000000E+00 -0.30301907822E+03  0.30301907822E+03  0.00000000000E+00 0.  1.
      99926    2    1    2    0    0  0.14210854715E-13  0.00000000000E+00 -0.15734825090E+03  0.44868990554E+03  0.42019538226E+03 0.  0.
      99925    2    3    3    0    0 -0.75952948050E+02 -0.26422852721E+01 -0.10505759102E+03  0.29326258104E+03  0.26303994377E+03 0.  0.
         25    1    4    4    0    0 -0.68526719902E+02  0.25962014659E+01 -0.25996133915E+02  0.14500330576E+03  0.12509000000E+03 0.  0.
         25    1    4    4    0    0 -0.74262281479E+01 -0.52384867380E+01 -0.79061457103E+02  0.14825927528E+03  0.12509000000E+03 0.  0.
         25    1    3    3    0    0  0.75952948050E+02  0.26422852721E+01 -0.52290659884E+02  0.15542732450E+03  0.12509000000E+03 0.  0.
<mgrwt>
<rscale>  2 0.42019538E+03</rscale>
<asrwt>0</asrwt>
<pdfrwt beam="1">  1       21 0.21422181E-01 0.42019538E+03</pdfrwt>
<pdfrwt beam="2">  1       21 0.44561628E-01 0.42019538E+03</pdfrwt>
<totfact> 0.91939721E+04</totfact>
</mgrwt>
</event>
<event>
 7    0  0.4759581E-002  0.4447974E+03  0.7546771E-02  0.1029285E+00
         21   -1    0    0  502  501  0.00000000000E+00  0.00000000000E+00  0.23884623000E+03  0.23884623000E+03  0.00000000000E+00 0. -1.
         21   -1    0    0  501  502 -0.00000000000E+00 -0.00000000000E+00 -0.20708382913E+03  0.20708382913E+03  0.00000000000E+00 0. -1.
      99926    2    1    2    0    0 -0.26645352591E-14  0.35527136788E-14  0.31762400877E+02  0.44593005913E+03  0.44479744551E+03 0.  0.
      99925    2    3    3    0    0  0.77314683107E+01 -0.31659777979E+02  0.11833522444E+03  0.29035217181E+03  0.26313312445E+03 0.  0.
         25    1    3    3    0    0 -0.77314683107E+01  0.31659777979E+02 -0.86572823567E+02  0.15557788732E+03  0.12509000000E+03 0.  0.
         25    1    4    4    0    0  0.39048847487E+02  0.45431410993E+01  0.54855486964E+02  0.14213403945E+03  0.12509000000E+03 0.  0.
         25    1    4    4    0    0 -0.31317379176E+02 -0.36202919079E+02  0.63479737480E+02  0.14821813235E+03  0.12509000000E+03 0.  0.
<mgrwt>
<rscale>  2 0.44479745E+03</rscale>
<asrwt>0</asrwt>
<pdfrwt beam="1">  1       21 0.35124446E-01 0.44479745E+03</pdfrwt>
<pdfrwt beam="2">  1       21 0.30453504E-01 0.44479745E+03</pdfrwt>
<totfact> 0.75149070E+04</totfact>
</mgrwt>
</event>
<event>
 7    0  0.4759581E-002  0.4504321E+03  0.7546771E-02  0.1027593E+00
         21   -1    0    0  502  501  0.00000000000E+00  0.00000000000E+00  0.39607773561E+02  0.39607773561E+02  0.00000000000E+00 0.  1.
         21   -1    0    0  501  502 -0.00000000000E+00 -0.00000000000E+00 -0.12806141838E+04  0.12806141838E+04  0.00000000000E+00 0.  1.
      99926    2    1    2    0    0  0.71054273576E-14  0.00000000000E+00 -0.12410064102E+04  0.13202219573E+04  0.45043213300E+03 0.  0.
      99925    2    3    3    0    0  0.49504409263E+02 -0.87867241274E+02 -0.66455891397E+03  0.72179855986E+03  0.26302713215E+03 0.  0.
         25    1    4    4    0    0 -0.45407186612E+01 -0.15173128608E+02 -0.33162558815E+03  0.35478709217E+03  0.12509000000E+03 0.  0.
         25    1    4    4    0    0  0.54045127924E+02 -0.72694112666E+02 -0.33293332583E+03  0.36701146769E+03  0.12509000000E+03 0.  0.
         25    1    3    3    0    0 -0.49504409263E+02  0.87867241274E+02 -0.57644749624E+03  0.59842339748E+03  0.12509000000E+03 0.  0.
<mgrwt>
<rscale>  2 0.45043213E+03</rscale>
<asrwt>0</asrwt>
<pdfrwt beam="1">  1       21 0.58246730E-02 0.45043213E+03</pdfrwt>
<pdfrwt beam="2">  1       21 0.18832560E+00 0.45043213E+03</pdfrwt>
<totfact> 0.29569467E+04</totfact>
</mgrwt>
</event>
<event>
 7    0  0.4759581E-002  0.4490413E+03  0.7546771E-02  0.1028008E+00
         21   -1    0    0  502  501  0.00000000000E+00  0.00000000000E+00  0.33383799599E+03  0.33383799599E+03  0.00000000000E+00 0.  1.
         21   -1    0    0  501  502 -0.00000000000E+00 -0.00000000000E+00 -0.15099996124E+03  0.15099996124E+03  0.00000000000E+00 0.  1.
      99926    2    1    2    0    0  0.35527136788E-14  0.00000000000E+00  0.18283803474E+03  0.48483795723E+03  0.44904130970E+03 0.  0.
      99925    2    3    3    0    0  0.16445445578E+02 -0.89939033012E+02  0.17666777179E+03  0.32977325272E+03  0.26301979827E+03 0.  0.
         25    1    4    4    0    0  0.45933107324E+01 -0.85587999873E+01  0.10590989549E+03  0.16419124710E+03  0.12509000000E+03 0.  0.
         25    1    3    3    0    0 -0.16445445578E+02  0.89939033012E+02  0.61702629521E+01  0.15506470451E+03  0.12509000000E+03 0.  0.
         25    1    4    4    0    0  0.11852134845E+02 -0.81380233025E+02  0.70757876305E+02  0.16558200563E+03  0.12509000000E+03 0.  0.
<mgrwt>
<rscale>  2 0.44904131E+03</rscale>
<asrwt>0</asrwt>
<pdfrwt beam="1">  1       21 0.49093823E-01 0.44904131E+03</pdfrwt>
<pdfrwt beam="2">  1       21 0.22205877E-01 0.44904131E+03</pdfrwt>
<totfact> 0.69583343E+04</totfact>
</mgrwt>
</event>
<event>
 7    0  0.4759581E-002  0.4554839E+03  0.7546771E-02  0.1026099E+00
         21   -1    0    0  502  501  0.00000000000E+00  0.00000000000E+00  0.13414696962E+03  0.13414696962E+03  0.00000000000E+00 0.  1.
         21   -1    0    0  501  502 -0.00000000000E+00 -0.00000000000E+00 -0.38663863332E+03  0.38663863332E+03  0.00000000000E+00 0.  1.
      99926    2    1    2    0    0  0.14210854715E-13 -0.14210854715E-13 -0.25249166370E+03  0.52078560294E+03  0.45548392287E+03 0.  0.
      99925    2    3    3    0    0 -0.84483457882E+02  0.71723117153E+02 -0.18687038893E+03  0.34124363016E+03  0.26314447110E+03 0.  0.
         25    1    4    4    0    0 -0.56146857232E+02  0.73692886494E+02 -0.84435776154E+02  0.17708760400E+03  0.12509000000E+03 0.  0.
         25    1    4    4    0    0 -0.28336600650E+02 -0.19697693412E+01 -0.10243461277E+03  0.16415602615E+03  0.12509000000E+03 0.  0.
         25    1    3    3    0    0  0.84483457882E+02 -0.71723117153E+02 -0.65621274774E+02  0.17954197279E+03  0.12509000000E+03 0.  0.
<mgrwt>
<rscale>  2 0.45548392E+03</rscale>
<asrwt>0</asrwt>
<pdfrwt beam="1">  1       21 0.19727495E-01 0.45548392E+03</pdfrwt>
<pdfrwt beam="2">  1       21 0.56858623E-01 0.45548392E+03</pdfrwt>
<totfact> 0.63589281E+04</totfact>
</mgrwt>
</event>
<event>
 7    0  0.4759581E-002  0.4473405E+03  0.7546771E-02  0.1028518E+00
         21   -1    0    0  502  501  0.00000000000E+00  0.00000000000E+00  0.17225719099E+03  0.17225719099E+03  0.00000000000E+00 0.  1.
         21   -1    0    0  501  502 -0.00000000000E+00 -0.00000000000E+00 -0.29042837318E+03  0.29042837318E+03  0.00000000000E+00 0.  1.
      99926    2    1    2    0    0  0.00000000000E+00  0.00000000000E+00 -0.11817118219E+03  0.46268556417E+03  0.44734047770E+03 0.  0.
      99925    2    3    3    0    0  0.86083280530E+02  0.32115855828E+02 -0.19430297293E+02  0.27873168454E+03  0.26243486073E+03 0.  0.
         25    1    4    4    0    0  0.21801331038E+02  0.34043609077E+02 -0.38038041673E+02  0.13685271670E+03  0.12509000000E+03 0.  0.
         25    1    3    3    0    0 -0.86083280530E+02 -0.32115855828E+02 -0.98740884901E+02  0.18395387964E+03  0.12509000000E+03 0.  0.
         25    1    4    4    0    0  0.64281949492E+02 -0.19277532485E+01  0.18607744379E+02  0.14187896784E+03  0.12509000000E+03 0.  0.
<mgrwt>
<rscale>  2 0.44734048E+03</rscale>
<asrwt>0</asrwt>
<pdfrwt beam="1">  1       21 0.25331940E-01 0.44734048E+03</pdfrwt>
<pdfrwt beam="2">  1       21 0.42710054E-01 0.44734048E+03</pdfrwt>
<totfact> 0.72276336E+04</totfact>
</mgrwt>
</event>
<event>
 7    0  0.4759581E-002  0.4512059E+03  0.7546771E-02  0.1027363E+00
         21   -1    0    0  502  501  0.00000000000E+00  0.00000000000E+00  0.36700496439E+02  0.36700496439E+02  0.00000000000E+00 0.  1.
         21   -1    0    0  501  502 -0.00000000000E+00 -0.00000000000E+00 -0.13868123169E+04  0.13868123169E+04  0.00000000000E+00 0.  1.
      99926    2    1    2    0    0  0.35527136788E-14 -0.71054273576E-14 -0.13501118204E+04  0.14235128133E+04  0.45120594188E+03 0.  0.
      99925    2    3    3    0    0  0.14203674313E+02 -0.48912903114E+02 -0.11585842497E+04  0.11891529727E+04  0.26300781790E+03 0.  0.
         25    1    4    4    0    0 -0.33068302864E+02 -0.20688050745E+02 -0.54452850436E+03  0.56007169921E+03  0.12509000000E+03 0.  0.
         25    1    3    3    0    0 -0.14203674313E+02  0.48912903114E+02 -0.19152757068E+03  0.23435984060E+03  0.12509000000E+03 0.  0.
         25    1    4    4    0    0  0.47271977177E+02 -0.28224852369E+02 -0.61405574538E+03  0.62908127348E+03  0.12509000000E+03 0.  0.
<mgrwt>
<rscale>  2 0.45120594E+03</rscale>
<asrwt>0</asrwt>
<pdfrwt beam="1">  1       21 0.53971313E-02 0.45120594E+03</pdfrwt>
<pdfrwt beam="2">  1       21 0.20394301E+00 0.45120594E+03</pdfrwt>
<totfact> 0.26484358E+04</totfact>
</mgrwt>
</event>
<event>
 7    0  0.4759581E-002  0.4476249E+03  0.7546771E-02  0.1028433E+00
         21   -1    0    0  502  501  0.00000000000E+00  0.00000000000E+00  0.78025360419E+03  0.78025360419E+03  0.00000000000E+00 0. -1.
         21   -1    0    0  501  502 -0.00000000000E+00 -0.00000000000E+00 -0.64199663887E+02  0.64199663887E+02  0.00000000000E+00 0. -1.
      99926    2    1    2    0    0  0.00000000000E+00  0.71054273576E-14  0.71605394030E+03  0.84445326807E+03  0.44762492842E+03 0.  0.
      99925    2    3    3    0    0 -0.84530554495E+02 -0.63368041207E+02  0.47153258692E+03  0.55017597767E+03  0.26303935558E+03 0.  0.
         25    1    3    3    0    0  0.84530554495E+02  0.63368041207E+02  0.24452135338E+03  0.29427729040E+03  0.12509000000E+03 0.  0.
         25    1    4    4    0    0 -0.76822623452E+02 -0.21116207233E+02  0.20981684994E+03  0.25694012590E+03  0.12509000000E+03 0.  0.
         25    1    4    4    0    0 -0.77079310426E+01 -0.42251833974E+02  0.26171573698E+03  0.29323585176E+03  0.12509000000E+03 0.  0.
<mgrwt>
<rscale>  2 0.44762493E+03</rscale>
<asrwt>0</asrwt>
<pdfrwt beam="1">  1       21 0.11474317E+00 0.44762493E+03</pdfrwt>
<pdfrwt beam="2">  1       21 0.94411275E-02 0.44762493E+03</pdfrwt>
<totfact> 0.48430336E+04</totfact>
</mgrwt>
</event>
<event>
 7    0  0.4759581E-002  0.4593795E+03  0.7546771E-02  0.1024961E+00
         21   -1    0    0  502  501  0.00000000000E+00  0.00000000000E+00  0.43103305071E+03  0.43103305071E+03  0.00000000000E+00 0. -1.
         21   -1    0    0  501  502 -0.00000000000E+00 -0.00000000000E+00 -0.12239750653E+03  0.12239750653E+03  0.00000000000E+00 0. -1.
      99926    2    1    2    0    0  0.00000000000E+00 -0.14210854715E-13  0.30863554418E+03  0.55343055724E+03  0.45937945379E+03 0.  0.
      99925    2    3    3    0    0  0.38424531646E+02  0.90954566289E+02  0.11706449033E+03  0.30423955714E+03  0.26288483310E+03 0.  0.
         25    1    4    4    0    0  0.49505512783E+02  0.29736149581E+02  0.81498508302E+02  0.16007669831E+03  0.12509000000E+03 0.  0.
         25    1    3    3    0    0 -0.38424531646E+02 -0.90954566289E+02  0.19157105385E+03  0.24919100010E+03  0.12509000000E+03 0.  0.
         25    1    4    4    0    0 -0.11080981137E+02  0.61218416708E+02  0.35565982027E+02  0.14416285883E+03  0.12509000000E+03 0.  0.
<mgrwt>
<rscale>  2 0.45937945E+03</rscale>
<asrwt>0</asrwt>
<pdfrwt beam="1">  1       21 0.63387213E-01 0.45937945E+03</pdfrwt>
<pdfrwt beam="2">  1       21 0.17999634E-01 0.45937945E+03</pdfrwt>
<totfact> 0.59550166E+04</totfact>
</mgrwt>
</event>
<event>
 7    0  0.4759581E-002  0.4561855E+03  0.7546771E-02  0.1025893E+00
         21   -1    0    0  502  501  0.00000000000E+00  0.00000000000E+00  0.10601422859E+04  0.10601422859E+04  0.00000000000E+00 0.  1.
         21   -1    0    0  501  502 -0.00000000000E+00 -0.00000000000E+00 -0.49074835633E+02  0.49074835633E+02  0.00000000000E+00 0.  1.
      99926    2    1    2    0    0  0.14210854715E-13  0.00000000000E+00  0.10110674503E+04  0.11092171215E+04  0.45618552554E+03 0.  0.
      99925    2    3    3    0    0 -0.81824179165E+02 -0.52551309046E+02  0.78150618754E+03  0.83028573603E+03  0.26299362331E+03 0.  0.
         25    1    4    4    0    0 -0.27757089640E+01 -0.18028750248E+02  0.30568917448E+03  0.33079619086E+03  0.12509000000E+03 0.  0.
         25    1    4    4    0    0 -0.79048470201E+02 -0.34522558798E+02  0.47581701307E+03  0.49948954517E+03  0.12509000000E+03 0.  0.
         25    1    3    3    0    0  0.81824179165E+02  0.52551309046E+02  0.22956126274E+03  0.27893138552E+03  0.12509000000E+03 0.  0.
<mgrwt>
<rscale>  2 0.45618553E+03</rscale>
<asrwt>0</asrwt>
<pdfrwt beam="1">  1       21 0.15590326E+00 0.45618553E+03</pdfrwt>
<pdfrwt beam="2">  1       21 0.72168883E-02 0.45618553E+03</pdfrwt>
<totfact> 0.34850200E+04</totfact>
</mgrwt>
</event>
<event>
 7    0  0.4759581E-002  0.4531778E+03  0.7546771E-02  0.1026779E+00
         21   -1    0    0  502  501  0.00000000000E+00  0.00000000000E+00  0.31860788808E+03  0.31860788808E+03  0.00000000000E+00 0.  1.
         21   -1    0    0  501  502 -0.00000000000E+00 -0.00000000000E+00 -0.16114644498E+03  0.16114644498E+03  0.00000000000E+00 0.  1.
      99926    2    1    2    0    0  0.00000000000E+00  0.00000000000E+00  0.15746144309E+03  0.47975433306E+03  0.45317779516E+03 0.  0.
      99925    2    3    3    0    0 -0.77170789378E+02  0.54647907959E+02  0.36779931653E+02  0.28188250616E+03  0.26298908595E+03 0.  0.
         25    1    3    3    0    0  0.77170789378E+02 -0.54647907959E+02  0.12068151144E+03  0.19787182690E+03  0.12509000000E+03 0.  0.
         25    1    4    4    0    0 -0.23798841436E+02  0.62939473677E+02  0.31705528033E+02  0.14553525624E+03  0.12509000000E+03 0.  0.
         25    1    4    4    0    0 -0.53371947942E+02 -0.82915657177E+01  0.50744036205E+01  0.13634724992E+03  0.12509000000E+03 0.  0.
<mgrwt>
<rscale>  2 0.45317780E+03</rscale>
<asrwt>0</asrwt>
<pdfrwt beam="1">  1       21 0.46854101E-01 0.45317780E+03</pdfrwt>
<pdfrwt beam="2">  1       21 0.23698006E-01 0.45317780E+03</pdfrwt>
<totfact> 0.67691793E+04</totfact>
</mgrwt>
</event>
<event>
 7    0  0.4759581E-002  0.4469645E+03  0.7546771E-02  0.1028631E+00
         21   -1    0    0  502  501  0.00000000000E+00  0.00000000000E+00  0.12005902747E+04  0.12005902747E+04  0.00000000000E+00 0. -1.
         21   -1    0    0  501  502 -0.00000000000E+00 -0.00000000000E+00 -0.41599793014E+02  0.41599793014E+02  0.00000000000E+00 0. -1.
      99926    2    1    2    0    0 -0.17763568394E-14 -0.14210854715E-13  0.11589904816E+04  0.12421900677E+04  0.44696445908E+03 0.  0.
      99925    2    3    3    0    0  0.12411103171E+02 -0.10383969064E+03  0.69661360848E+03  0.75190790628E+03  0.26297958701E+03 0.  0.
         25    1    4    4    0    0  0.30891320103E+02 -0.51176595759E+02  0.43568189558E+03  0.45720842058E+03  0.12509000000E+03 0.  0.
         25    1    3    3    0    0 -0.12411103171E+02  0.10383969064E+03  0.46237687316E+03  0.49028216138E+03  0.12509000000E+03 0.  0.
         25    1    4    4    0    0 -0.18480216932E+02 -0.52663094882E+02  0.26093171290E+03  0.29469948571E+03  0.12509000000E+03 0.  0.
<mgrwt>
<rscale>  2 0.44696446E+03</rscale>
<asrwt>0</asrwt>
<pdfrwt beam="1">  1       21 0.17655737E+00 0.44696446E+03</pdfrwt>
<pdfrwt beam="2">  1       21 0.61176174E-02 0.44696446E+03</pdfrwt>
<totfact> 0.32848066E+04</totfact>
</mgrwt>
</event>
<event>
 7    0  0.4759581E-002  0.4650708E+03  0.7546771E-02  0.1023321E+00
         21   -1    0    0  502  501  0.00000000000E+00  0.00000000000E+00  0.33074197066E+03  0.33074197066E+03  0.00000000000E+00 0.  1.
         21   -1    0    0  501  502 -0.00000000000E+00 -0.00000000000E+00 -0.16348910296E+03  0.16348910296E+03  0.00000000000E+00 0.  1.
      99926    2    1    2    0    0  0.00000000000E+00  0.00000000000E+00  0.16725286770E+03  0.49423107363E+03  0.46507078212E+03 0.  0.
      99925    2    3    3    0    0  0.47045065764E+02 -0.84357007206E+02  0.18424953308E+03  0.33527907580E+03  0.26293502116E+03 0.  0.
         25    1    4    4    0    0  0.10034350862E+02 -0.79886871394E+02  0.11093914065E+03  0.18557370893E+03  0.12509000000E+03 0.  0.
         25    1    4    4    0    0  0.37010714902E+02 -0.44701358120E+01  0.73310392426E+02  0.14970536687E+03  0.12509000000E+03 0.  0.
         25    1    3    3    0    0 -0.47045065764E+02  0.84357007206E+02 -0.16996665380E+02  0.15895199782E+03  0.12509000000E+03 0.  0.
<mgrwt>
<rscale>  2 0.46507078E+03</rscale>
<asrwt>0</asrwt>
<pdfrwt beam="1">  1       21 0.48638525E-01 0.46507078E+03</pdfrwt>
<pdfrwt beam="2">  1       21 0.24042515E-01 0.46507078E+03</pdfrwt>
<totfact> 0.60679649E+04</totfact>
</mgrwt>
</event>
<event>
 7    0  0.4759581E-002  0.4568201E+03  0.7546771E-02  0.1025708E+00
         21   -1    0    0  502  501  0.00000000000E+00  0.00000000000E+00  0.10738481833E+04  0.10738481833E+04  0.00000000000E+00 0. -1.
         21   -1    0    0  501  502 -0.00000000000E+00 -0.00000000000E+00 -0.48583358563E+02  0.48583358563E+02  0.00000000000E+00 0. -1.
      99926    2    1    2    0    0 -0.17763568394E-14  0.00000000000E+00  0.10252648247E+04  0.11224315419E+04  0.45682010171E+03 0.  0.
      99925    2    3    3    0    0  0.14495080685E+02 -0.10456104304E+03  0.75528044340E+03  0.80670667215E+03  0.26302849205E+03 0.  0.
         25    1    4    4    0    0 -0.19071331822E+02 -0.25348426914E+02  0.40141142121E+03  0.42164546200E+03  0.12509000000E+03 0.  0.
         25    1    4    4    0    0  0.33566412506E+02 -0.79212616128E+02  0.35386902219E+03  0.38506121016E+03  0.12509000000E+03 0.  0.
         25    1    3    3    0    0 -0.14495080685E+02  0.10456104304E+03  0.26998438133E+03  0.31572486970E+03  0.12509000000E+03 0.  0.
<mgrwt>
<rscale>  2 0.45682010E+03</rscale>
<asrwt>0</asrwt>
<pdfrwt beam="1">  1       21 0.15791883E+00 0.45682010E+03</pdfrwt>
<pdfrwt beam="2">  1       21 0.71446123E-02 0.45682010E+03</pdfrwt>
<totfact> 0.34227995E+04</totfact>
</mgrwt>
</event>
<event>
 7    0  0.4759581E-002  0.4571450E+03  0.7546771E-02  0.1025613E+00
         21   -1    0    0  502  501  0.00000000000E+00  0.00000000000E+00  0.48320489198E+02  0.48320489198E+02  0.00000000000E+00 0.  1.
         21   -1    0    0  501  502 -0.00000000000E+00 -0.00000000000E+00 -0.10812264047E+04  0.10812264047E+04  0.00000000000E+00 0.  1.
      99926    2    1    2    0    0 -0.71054273576E-14 -0.71054273576E-14 -0.10329059155E+04  0.11295468939E+04  0.45714500460E+03 0.  0.
      99925    2    3    3    0    0 -0.45032414685E+02  0.61652700502E+02 -0.43561726677E+03  0.51454265663E+03  0.26298815284E+03 0.  0.
         25    1    4    4    0    0 -0.11961889826E+02 -0.97961769419E+01 -0.20043491498E+03  0.23677144071E+03  0.12509000000E+03 0.  0.
         25    1    4    4    0    0 -0.33070524859E+02  0.71448877444E+02 -0.23518235179E+03  0.27777121592E+03  0.12509000000E+03 0.  0.
         25    1    3    3    0    0  0.45032414685E+02 -0.61652700502E+02 -0.59728864869E+03  0.61500423723E+03  0.12509000000E+03 0.  0.
<mgrwt>
<rscale>  2 0.45714500E+03</rscale>
<asrwt>0</asrwt>
<pdfrwt beam="1">  1       21 0.71059548E-02 0.45714500E+03</pdfrwt>
<pdfrwt beam="2">  1       21 0.15900387E+00 0.45714500E+03</pdfrwt>
<totfact> 0.33902203E+04</totfact>
</mgrwt>
</event>
<event>
 7    0  0.4759581E-002  0.4685141E+03  0.7546771E-02  0.1022340E+00
         21   -1    0    0  502  501  0.00000000000E+00  0.00000000000E+00  0.31853072154E+03  0.31853072154E+03  0.00000000000E+00 0. -1.
         21   -1    0    0  501  502 -0.00000000000E+00 -0.00000000000E+00 -0.17227966549E+03  0.17227966549E+03  0.00000000000E+00 0. -1.
      99926    2    1    2    0    0  0.00000000000E+00  0.00000000000E+00  0.14625105605E+03  0.49081038703E+03  0.46851410290E+03 0.  0.
      99925    2    3    3    0    0 -0.38062416635E+02  0.90478587692E+02  0.17295858073E+03  0.32957787677E+03  0.26281511337E+03 0.  0.
         25    1    4    4    0    0 -0.44556087351E+02  0.53814141574E+02  0.54413089161E+02  0.15326284326E+03  0.12509000000E+03 0.  0.
         25    1    4    4    0    0  0.64936707160E+01  0.36664446118E+02  0.11854549157E+03  0.17631503350E+03  0.12509000000E+03 0.  0.
         25    1    3    3    0    0  0.38062416635E+02 -0.90478587692E+02 -0.26707524673E+02  0.16123251026E+03  0.12509000000E+03 0.  0.
<mgrwt>
<rscale>  2 0.46851410E+03</rscale>
<asrwt>0</asrwt>
<pdfrwt beam="1">  1       21 0.46842753E-01 0.46851410E+03</pdfrwt>
<pdfrwt beam="2">  1       21 0.25335245E-01 0.46851410E+03</pdfrwt>
<totfact> 0.59299958E+04</totfact>
</mgrwt>
</event>
<event>
 7    0  0.4759581E-002  0.4523079E+03  0.7546771E-02  0.1027036E+00
         21   -1    0    0  502  501  0.00000000000E+00  0.00000000000E+00  0.17265133652E+03  0.17265133652E+03  0.00000000000E+00 0.  1.
         21   -1    0    0  501  502 -0.00000000000E+00 -0.00000000000E+00 -0.29623645664E+03  0.29623645664E+03  0.00000000000E+00 0.  1.
      99926    2    1    2    0    0 -0.14210854715E-13  0.00000000000E+00 -0.12358512012E+03  0.46888779315E+03  0.45230794892E+03 0.  0.
      99925    2    3    3    0    0  0.84708560512E+02  0.67116712397E+02 -0.10565144515E+03  0.30260695209E+03  0.26216129822E+03 0.  0.
         25    1    4    4    0    0  0.11968707917E+02  0.45158342007E+01 -0.51923629711E+02  0.13604122225E+03  0.12509000000E+03 0.  0.
         25    1    3    3    0    0 -0.84708560512E+02 -0.67116712397E+02 -0.17933674972E+02  0.16628084106E+03  0.12509000000E+03 0.  0.
         25    1    4    4    0    0  0.72739852595E+02  0.62600878196E+02 -0.53727815440E+02  0.16656572984E+03  0.12509000000E+03 0.  0.
<mgrwt>
<rscale>  2 0.45230795E+03</rscale>
<asrwt>0</asrwt>
<pdfrwt beam="1">  1       21 0.25389903E-01 0.45230795E+03</pdfrwt>
<pdfrwt beam="2">  1       21 0.43564184E-01 0.45230795E+03</pdfrwt>
<totfact> 0.68979988E+04</totfact>
</mgrwt>
</event>
<event>
 7    0  0.4759581E-002  0.4561556E+03  0.7546771E-02  0.1025902E+00
         21   -1    0    0  502  501  0.00000000000E+00  0.00000000000E+00  0.52680373965E+03  0.52680373965E+03  0.00000000000E+00 0.  1.
         21   -1    0    0  501  502 -0.00000000000E+00 -0.00000000000E+00 -0.98745485786E+02  0.98745485786E+02  0.00000000000E+00 0.  1.
      99926    2    1    2    0    0  0.00000000000E+00  0.14210854715E-13  0.42805825386E+03  0.62554922543E+03  0.45615563653E+03 0.  0.
      99925    2    3    3    0    0  0.37255442741E+02  0.81591981924E+02  0.17194471923E+03  0.32674013881E+03  0.26296180770E+03 0.  0.
         25    1    4    4    0    0  0.35013272068E+02  0.76925428166E+01  0.59887652133E+02  0.14324504673E+03  0.12509000000E+03 0.  0.
         25    1    4    4    0    0  0.22421706726E+01  0.73899439108E+02  0.11205706710E+03  0.18349509208E+03  0.12509000000E+03 0.  0.
         25    1    3    3    0    0 -0.37255442741E+02 -0.81591981924E+02  0.25611353463E+03  0.29880908662E+03  0.12509000000E+03 0.  0.
<mgrwt>
<rscale>  2 0.45615564E+03</rscale>
<asrwt>0</asrwt>
<pdfrwt beam="1">  1       21 0.77471137E-01 0.45615564E+03</pdfrwt>
<pdfrwt beam="2">  1       21 0.14521395E-01 0.45615564E+03</pdfrwt>
<totfact> 0.56614253E+04</totfact>
</mgrwt>
</event>
<event>
 7    0  0.4759581E-002  0.4545839E+03  0.7546771E-02  0.1026364E+00
         21   -1    0    0  502  501  0.00000000000E+00  0.00000000000E+00  0.35741936784E+03  0.35741936784E+03  0.00000000000E+00 0.  1.
         21   -1    0    0  501  502 -0.00000000000E+00 -0.00000000000E+00 -0.14454063060E+03  0.14454063060E+03  0.00000000000E+00 0.  1.
      99926    2    1    2    0    0  0.00000000000E+00  0.00000000000E+00  0.21287873725E+03  0.50195999844E+03  0.45458385724E+03 0.  0.
      99925    2    3    3    0    0 -0.17928443718E+02 -0.80158264420E+02  0.48392237482E+02  0.27958622941E+03  0.26283050541E+03 0.  0.
         25    1    4    4    0    0  0.12740686730E+02 -0.82471317785E+01  0.38441277994E+02  0.13174057930E+03  0.12509000000E+03 0.  0.
         25    1    3    3    0    0  0.17928443718E+02  0.80158264420E+02  0.16448649977E+03  0.22237376903E+03  0.12509000000E+03 0.  0.
         25    1    4    4    0    0 -0.30669130448E+02 -0.71911132642E+02  0.99509594879E+01  0.14784565011E+03  0.12509000000E+03 0.  0.
<mgrwt>
<rscale>  2 0.45458386E+03</rscale>
<asrwt>0</asrwt>
<pdfrwt beam="1">  1       21 0.52561672E-01 0.45458386E+03</pdfrwt>
<pdfrwt beam="2">  1       21 0.21255975E-01 0.45458386E+03</pdfrwt>
<totfact> 0.65348781E+04</totfact>
</mgrwt>
</event>
<event>
 7    0  0.4759581E-002  0.4546182E+03  0.7546771E-02  0.1026354E+00
         21   -1    0    0  502  501  0.00000000000E+00  0.00000000000E+00  0.70784266127E+02  0.70784266127E+02  0.00000000000E+00 0. -1.
         21   -1    0    0  501  502 -0.00000000000E+00 -0.00000000000E+00 -0.72995643760E+03  0.72995643760E+03  0.00000000000E+00 0. -1.
      99926    2    1    2    0    0 -0.14210854715E-13 -0.71054273576E-14 -0.65917217147E+03  0.80074070373E+03  0.45461821671E+03 0.  0.
      99925    2    3    3    0    0  0.86498831685E+02 -0.59222244599E+02 -0.34141721556E+03  0.44352222402E+03  0.26297704459E+03 0.  0.
         25    1    4    4    0    0  0.15011832008E+02 -0.40543230412E+02 -0.20639483793E+03  0.24518451390E+03  0.12509000000E+03 0.  0.
         25    1    3    3    0    0 -0.86498831685E+02  0.59222244599E+02 -0.31775495591E+03  0.35721847971E+03  0.12509000000E+03 0.  0.
         25    1    4    4    0    0  0.71486999677E+02 -0.18679014186E+02 -0.13502237763E+03  0.19833771012E+03  0.12509000000E+03 0.  0.
<mgrwt>
<rscale>  2 0.45461822E+03</rscale>
<asrwt>0</asrwt>
<pdfrwt beam="1">  1       21 0.10409450E-01 0.45461822E+03</pdfrwt>
<pdfrwt beam="2">  1       21 0.10734654E+00 0.45461822E+03</pdfrwt>
<totfact> 0.47872270E+04</totfact>
</mgrwt>
</event>
<event>
 7    0  0.4759581E-002  0.4502091E+03  0.7546771E-02  0.1027660E+00
         21   -1    0    0  502  501  0.00000000000E+00  0.00000000000E+00  0.21689489831E+03  0.21689489831E+03  0.00000000000E+00 0.  1.
         21   -1    0    0  501  502 -0.00000000000E+00 -0.00000000000E+00 -0.23362495850E+03  0.23362495850E+03  0.00000000000E+00 0.  1.
      99926    2    1    2    0    0  0.26645352591E-14  0.00000000000E+00 -0.16730060193E+02  0.45051985681E+03  0.45020911415E+03 0.  0.
      99925    2    3    3    0    0  0.66940485981E+01 -0.83937671461E+02 -0.79212311069E+02  0.28729644320E+03  0.26301010071E+03 0.  0.
         25    1    4    4    0    0 -0.24798860345E+02 -0.61175859528E+02 -0.64614468225E+02  0.15549921822E+03  0.12509000000E+03 0.  0.
         25    1    4    4    0    0  0.31492908943E+02 -0.22761811932E+02 -0.14597842845E+02  0.13179722498E+03  0.12509000000E+03 0.  0.
         25    1    3    3    0    0 -0.66940485981E+01  0.83937671461E+02  0.62482250877E+02  0.16322341361E+03  0.12509000000E+03 0.  0.
<mgrwt>
<rscale>  2 0.45020911E+03</rscale>
<asrwt>0</asrwt>
<pdfrwt beam="1">  1       21 0.31896309E-01 0.45020911E+03</pdfrwt>
<pdfrwt beam="2">  1       21 0.34356611E-01 0.45020911E+03</pdfrwt>
<totfact> 0.71572320E+04</totfact>
</mgrwt>
</event>
<event>
 7    0  0.4759581E-002  0.4557118E+03  0.7546771E-02  0.1026032E+00
         21   -1    0    0  502  501  0.00000000000E+00  0.00000000000E+00  0.49261881708E+03  0.49261881708E+03  0.00000000000E+00 0. -1.
         21   -1    0    0  501  502 -0.00000000000E+00 -0.00000000000E+00 -0.10539246515E+03  0.10539246515E+03  0.00000000000E+00 0. -1.
      99926    2    1    2    0    0  0.00000000000E+00 -0.71054273576E-14  0.38722635193E+03  0.59801128223E+03  0.45571180152E+03 0.  0.
      99925    2    3    3    0    0 -0.46729148684E+02  0.58536478678E+02  0.35594030205E+03  0.44889234416E+03  0.26306026943E+03 0.  0.
         25    1    3    3    0    0  0.46729148684E+02 -0.58536478678E+02  0.31286049882E+02  0.14911893807E+03  0.12509000000E+03 0.  0.
         25    1    4    4    0    0  0.14975144716E+02  0.19028677493E+02  0.18698083135E+03  0.22626463470E+03  0.12509000000E+03 0.  0.
         25    1    4    4    0    0 -0.61704293400E+02  0.39507801185E+02  0.16895947070E+03  0.22262770946E+03  0.12509000000E+03 0.  0.
<mgrwt>
<rscale>  2 0.45571180E+03</rscale>
<asrwt>0</asrwt>
<pdfrwt beam="1">  1       21 0.72443943E-01 0.45571180E+03</pdfrwt>
<pdfrwt beam="2">  1       21 0.15498892E-01 0.45571180E+03</pdfrwt>
<totfact> 0.58471280E+04</totfact>
</mgrwt>
</event>
<event>
 7    0  0.4759581E-002  0.4427378E+03  0.7546771E-02  0.1029910E+00
         21   -1    0    0  502  501  0.00000000000E+00  0.00000000000E+00  0.10392569809E+04  0.10392569809E+04  0.00000000000E+00 0.  1.
         21   -1    0    0  501  502 -0.00000000000E+00 -0.00000000000E+00 -0.47153106288E+02  0.47153106288E+02  0.00000000000E+00 0.  1.
      99926    2    1    2    0    0  0.00000000000E+00  0.14210854715E-13  0.99210387466E+03  0.10864100872E+04  0.44273782257E+03 0.  0.
      99925    2    3    3    0    0  0.49391861010E+02 -0.65343971584E+02  0.77656532320E+03  0.82408630672E+03  0.26335365799E+03 0.  0.
         25    1    3    3    0    0 -0.49391861010E+02  0.65343971584E+02  0.21553855146E+03  0.26232378051E+03  0.12509000000E+03 0.  0.
         25    1    4    4    0    0  0.20404067403E+02 -0.70458455092E+02  0.35854600859E+03  0.38676022060E+03  0.12509000000E+03 0.  0.
         25    1    4    4    0    0  0.28987793607E+02  0.51144835084E+01  0.41801931460E+03  0.43732608612E+03  0.12509000000E+03 0.  0.
<mgrwt>
<rscale>  2 0.44273782E+03</rscale>
<asrwt>0</asrwt>
<pdfrwt beam="1">  1       21 0.15283189E+00 0.44273782E+03</pdfrwt>
<pdfrwt beam="2">  1       21 0.69342810E-02 0.44273782E+03</pdfrwt>
<totfact> 0.39626578E+04</totfact>
</mgrwt>
</event>
<event>
 7    0  0.4759581E-002  0.4404184E+03  0.7546771E-02  0.1030619E+00
         21   -1    0    0  502  501  0.00000000000E+00  0.00000000000E+00  0.23219515166E+03  0.23219515166E+03  0.00000000000E+00 0.  1.
         21   -1    0    0  501  502 -0.00000000000E+00 -0.00000000000E+00 -0.20884196044E+03  0.20884196044E+03  0.00000000000E+00 0.  1.
      99926    2    1    2    0    0  0.35527136788E-14 -0.14210854715E-13  0.23353191225E+02  0.44103711210E+03  0.44041839506E+03 0.  0.
      99925    2    3    3    0    0 -0.25656994480E+02  0.94458747965E+02  0.81143210471E+00  0.28061150493E+03  0.26298559246E+03 0.  0.
         25    1    3    3    0    0  0.25656994480E+02 -0.94458747965E+02  0.22541759121E+02  0.16042560717E+03  0.12509000000E+03 0.  0.
         25    1    4    4    0    0 -0.18979325403E+02  0.56460276266E+01 -0.71397436631E+01  0.12684863602E+03  0.12509000000E+03 0.  0.
         25    1    4    4    0    0 -0.66776690766E+01  0.88812720339E+02  0.79511757678E+01  0.15376286891E+03  0.12509000000E+03 0.  0.
<mgrwt>
<rscale>  2 0.44041840E+03</rscale>
<asrwt>0</asrwt>
<pdfrwt beam="1">  1       21 0.34146346E-01 0.44041840E+03</pdfrwt>
<pdfrwt beam="2">  1       21 0.30712053E-01 0.44041840E+03</pdfrwt>
<totfact> 0.78302193E+04</totfact>
</mgrwt>
</event>
<event>
 7    0  0.4759581E-002  0.4522641E+03  0.7546771E-02  0.1027049E+00
         21   -1    0    0  502  501  0.00000000000E+00  0.00000000000E+00  0.71688016354E+03  0.71688016354E+03  0.00000000000E+00 0.  1.
         21   -1    0    0  501  502 -0.00000000000E+00 -0.00000000000E+00 -0.71330905436E+02  0.71330905436E+02  0.00000000000E+00 0.  1.
      99926    2    1    2    0    0  0.00000000000E+00  0.00000000000E+00  0.64554925810E+03  0.78821106898E+03  0.45226413148E+03 0.  0.
      99925    2    3    3    0    0  0.41925269294E+02  0.83941402621E+02  0.50951375267E+03  0.58095023303E+03  0.26285931944E+03 0.  0.
         25    1    4    4    0    0 -0.19083249681E+02  0.47061779930E+02  0.25509312062E+03  0.28861564378E+03  0.12509000000E+03 0.  0.
         25    1    4    4    0    0  0.61008518974E+02  0.36879622691E+02  0.25442063205E+03  0.29233458925E+03  0.12509000000E+03 0.  0.
         25    1    3    3    0    0 -0.41925269294E+02 -0.83941402621E+02  0.13603550544E+03  0.20726083595E+03  0.12509000000E+03 0.  0.
<mgrwt>
<rscale>  2 0.45226413E+03</rscale>
<asrwt>0</asrwt>
<pdfrwt beam="1">  1       21 0.10542355E+00 0.45226413E+03</pdfrwt>
<pdfrwt beam="2">  1       21 0.10489839E-01 0.45226413E+03</pdfrwt>
<totfact> 0.49392419E+04</totfact>
</mgrwt>
</event>
<event>
 7    0  0.4759581E-002  0.4537481E+03  0.7546771E-02  0.1026610E+00
         21   -1    0    0  502  501  0.00000000000E+00  0.00000000000E+00  0.41741890421E+03  0.41741890421E+03  0.00000000000E+00 0. -1.
         21   -1    0    0  501  502 -0.00000000000E+00 -0.00000000000E+00 -0.12330975643E+03  0.12330975643E+03  0.00000000000E+00 0. -1.
      99926    2    1    2    0    0  0.00000000000E+00  0.17763568394E-14  0.29410914778E+03  0.54072866063E+03  0.45374805082E+03 0.  0.
      99925    2    3    3    0    0 -0.78808924169E+02 -0.12411581111E+02  0.91574570974E+02  0.28966560724E+03  0.26297408256E+03 0.  0.
         25    1    4    4    0    0 -0.67101665948E+02 -0.88234286419E+01  0.80658208700E+02  0.16350456017E+03  0.12509000000E+03 0.  0.
         25    1    3    3    0    0  0.78808924169E+02  0.12411581111E+02  0.20253457681E+03  0.25106305339E+03  0.12509000000E+03 0.  0.
         25    1    4    4    0    0 -0.11707258221E+02 -0.35881524693E+01  0.10916362275E+02  0.12616104707E+03  0.12509000000E+03 0.  0.
<mgrwt>
<rscale>  2 0.45374805E+03</rscale>
<asrwt>0</asrwt>
<pdfrwt beam="1">  1       21 0.61385133E-01 0.45374805E+03</pdfrwt>
<pdfrwt beam="2">  1       21 0.18133788E-01 0.45374805E+03</pdfrwt>
<totfact> 0.63106272E+04</totfact>
</mgrwt>
</event>
<event>
 7    0  0.4759581E-002  0.4593761E+03  0.7546771E-02  0.1024962E+00
         21   -1    0    0  502  501  0.00000000000E+00  0.00000000000E+00  0.13051767128E+04  0.13051767128E+04  0.00000000000E+00 0.  1.
         21   -1    0    0  501  502 -0.00000000000E+00 -0.00000000000E+00 -0.40421040792E+02  0.40421040792E+02  0.00000000000E+00 0.  1.
      99926    2    1    2    0    0  0.00000000000E+00  0.00000000000E+00  0.12647556721E+04  0.13455977536E+04  0.45937610365E+03 0.  0.
      99925    2    3    3    0    0  0.56197384552E+02 -0.46468708501E+02  0.52409050518E+03  0.59091246531E+03  0.26303839480E+03 0.  0.
         25    1    4    4    0    0  0.15905664456E+02 -0.32485781511E+02  0.34172344115E+03  0.36569213075E+03  0.12509000000E+03 0.  0.
         25    1    4    4    0    0  0.40291720096E+02 -0.13982926990E+02  0.18236706403E+03  0.22522033456E+03  0.12509000000E+03 0.  0.
         25    1    3    3    0    0 -0.56197384552E+02  0.46468708501E+02  0.74066516687E+03  0.75468528833E+03  0.12509000000E+03 0.  0.
<mgrwt>
<rscale>  2 0.45937610E+03</rscale>
<asrwt>0</asrwt>
<pdfrwt beam="1">  1       21 0.19193772E+00 0.45937610E+03</pdfrwt>
<pdfrwt beam="2">  1       21 0.59442716E-02 0.45937610E+03</pdfrwt>
<totfact> 0.26891934E+04</totfact>
</mgrwt>
</event>
<event>
 7    0  0.4759581E-002  0.4541463E+03  0.7546771E-02  0.1026493E+00
         21   -1    0    0  502  501  0.00000000000E+00  0.00000000000E+00  0.14299122754E+03  0.14299122754E+03  0.00000000000E+00 0.  1.
         21   -1    0    0  501  502 -0.00000000000E+00 -0.00000000000E+00 -0.36059712417E+03  0.36059712417E+03  0.00000000000E+00 0.  1.
      99926    2    1    2    0    0  0.00000000000E+00 -0.88817841970E-15 -0.21760589663E+03  0.50358835171E+03  0.45414634396E+03 0.  0.
      99925    2    3    3    0    0  0.88208208367E+02 -0.24486104800E+01 -0.21444747616E+03  0.35047346858E+03  0.26278745866E+03 0.  0.
         25    1    4    4    0    0  0.38128254970E+02 -0.26231928939E+02 -0.14506665072E+03  0.19706272904E+03  0.12509000000E+03 0.  0.
         25    1    3    3    0    0 -0.88208208367E+02  0.24486104800E+01 -0.31584204711E+01  0.15311488313E+03  0.12509000000E+03 0.  0.
         25    1    4    4    0    0  0.50079953397E+02  0.23783318459E+02 -0.69380825439E+02  0.15341073954E+03  0.12509000000E+03 0.  0.
<mgrwt>
<rscale>  2 0.45414634E+03</rscale>
<asrwt>0</asrwt>
<pdfrwt beam="1">  1       21 0.21028122E-01 0.45414634E+03</pdfrwt>
<pdfrwt beam="2">  1       21 0.53028988E-01 0.45414634E+03</pdfrwt>
<totfact> 0.65461734E+04</totfact>
</mgrwt>
</event>
<event>
 7    0  0.4759581E-002  0.4575990E+03  0.7546771E-02  0.1025480E+00
         21   -1    0    0  502  501  0.00000000000E+00  0.00000000000E+00  0.10688017328E+03  0.10688017328E+03  0.00000000000E+00 0.  1.
         21   -1    0    0  501  502 -0.00000000000E+00 -0.00000000000E+00 -0.48979338384E+03  0.48979338384E+03  0.00000000000E+00 0.  1.
      99926    2    1    2    0    0  0.00000000000E+00 -0.71054273576E-14 -0.38291321056E+03  0.59667355711E+03  0.45759895863E+03 0.  0.
      99925    2    3    3    0    0 -0.73351438531E+02 -0.61851147378E+02 -0.32456660086E+03  0.42857289403E+03  0.26291681029E+03 0.  0.
         25    1    3    3    0    0  0.73351438531E+02  0.61851147378E+02 -0.58346609696E+02  0.16810066309E+03  0.12509000000E+03 0.  0.
         25    1    4    4    0    0 -0.68274656233E+02 -0.59643783014E+02 -0.18683567184E+03  0.24243326073E+03  0.12509000000E+03 0.  0.
         25    1    4    4    0    0 -0.50767822980E+01 -0.22073643646E+01 -0.13773092902E+03  0.18613963330E+03  0.12509000000E+03 0.  0.
<mgrwt>
<rscale>  2 0.45759896E+03</rscale>
<asrwt>0</asrwt>
<pdfrwt beam="1">  1       21 0.15717672E-01 0.45759896E+03</pdfrwt>
<pdfrwt beam="2">  1       21 0.72028439E-01 0.45759896E+03</pdfrwt>
<totfact> 0.57689540E+04</totfact>
</mgrwt>
</event>
<event>
 7    0  0.4759581E-002  0.4504100E+03  0.7546771E-02  0.1027600E+00
         21   -1    0    0  502  501  0.00000000000E+00  0.00000000000E+00  0.43734442839E+03  0.43734442839E+03  0.00000000000E+00 0. -1.
         21   -1    0    0  501  502 -0.00000000000E+00 -0.00000000000E+00 -0.11596649175E+03  0.11596649175E+03  0.00000000000E+00 0. -1.
      99926    2    1    2    0    0  0.00000000000E+00  0.00000000000E+00  0.32137793664E+03  0.55331092014E+03  0.45041003118E+03 0.  0.
      99925    2    3    3    0    0  0.93605114591E+02  0.43433836205E+02  0.16091647632E+03  0.32517980882E+03  0.26305775052E+03 0.  0.
         25    1    3    3    0    0 -0.93605114591E+02 -0.43433836205E+02  0.16046146032E+03  0.22813111132E+03  0.12509000000E+03 0.  0.
         25    1    4    4    0    0  0.67525467014E+02  0.10814927455E+02  0.44712579457E+02  0.14941008739E+03  0.12509000000E+03 0.  0.
         25    1    4    4    0    0  0.26079647576E+02  0.32618908750E+02  0.11620389686E+03  0.17576972143E+03  0.12509000000E+03 0.  0.
<mgrwt>
<rscale>  2 0.45041003E+03</rscale>
<asrwt>0</asrwt>
<pdfrwt beam="1">  1       21 0.64315357E-01 0.45041003E+03</pdfrwt>
<pdfrwt beam="2">  1       21 0.17053896E-01 0.45041003E+03</pdfrwt>
<totfact> 0.63938553E+04</totfact>
</mgrwt>
</event>
<event>
 7    0  0.4759581E-002  0.4538746E+03  0.7546771E-02  0.1026573E+00
         21   -1    0    0  502  501  0.00000000000E+00  0.00000000000E+00  0.12656173719E+03  0.12656173719E+03  0.00000000000E+00 0. -1.
         21   -1    0    0  501  502 -0.00000000000E+00 -0.00000000000E+00 -0.40692034241E+03  0.40692034241E+03  0.00000000000E+00 0. -1.
      99926    2    1    2    0    0  0.00000000000E+00 -0.71054273576E-14 -0.28035860522E+03  0.53348207959E+03  0.45387463217E+03 0.  0.
      99925    2    3    3    0    0 -0.47537526501E+02 -0.54193490872E+02 -0.27742077920E+03  0.38907678260E+03  0.26310017702E+03 0.  0.
         25    1    4    4    0    0  0.47345512501E+01 -0.55849385393E+02 -0.14573690956E+03  0.20007079930E+03  0.12509000000E+03 0.  0.
         25    1    3    3    0    0  0.47537526501E+02  0.54193490872E+02 -0.29378260203E+01  0.14440529700E+03  0.12509000000E+03 0.  0.
         25    1    4    4    0    0 -0.52272077751E+02  0.16558945209E+01 -0.13168386964E+03  0.18900598330E+03  0.12509000000E+03 0.  0.
<mgrwt>
<rscale>  2 0.45387463E+03</rscale>
<asrwt>0</asrwt>
<pdfrwt beam="1">  1       21 0.18612020E-01 0.45387463E+03</pdfrwt>
<pdfrwt beam="2">  1       21 0.59841226E-01 0.45387463E+03</pdfrwt>
<totfact> 0.63535458E+04</totfact>
</mgrwt>
</event>
<event>
 7    0  0.4759581E-002  0.4576329E+03  0.7546771E-02  0.1025470E+00
         21   -1    0    0  502  501  0.00000000000E+00  0.00000000000E+00  0.85782786324E+02  0.85782786324E+02  0.00000000000E+00 0.  1.
         21   -1    0    0  501  502 -0.00000000000E+00 -0.00000000000E+00 -0.61034356373E+03  0.61034356373E+03  0.00000000000E+00 0.  1.
      99926    2    1    2    0    0  0.00000000000E+00  0.14210854715E-13 -0.52456077740E+03  0.69612635005E+03  0.45763291626E+03 0.  0.
      99925    2    3    3    0    0 -0.32549607220E+02 -0.11020074999E+03 -0.34892921089E+03  0.45179535021E+03  0.26299004169E+03 0.  0.
         25    1    4    4    0    0 -0.33096784509E+01 -0.15015298418E+02 -0.13450060867E+03  0.18432128198E+03  0.12509000000E+03 0.  0.
         25    1    3    3    0    0  0.32549607220E+02  0.11020074999E+03 -0.17563156651E+03  0.24433099984E+03  0.12509000000E+03 0.  0.
         25    1    4    4    0    0 -0.29239928769E+02 -0.95185451569E+02 -0.21442860222E+03  0.26747406823E+03  0.12509000000E+03 0.  0.
<mgrwt>
<rscale>  2 0.45763292E+03</rscale>
<asrwt>0</asrwt>
<pdfrwt beam="1">  1       21 0.12615116E-01 0.45763292E+03</pdfrwt>
<pdfrwt beam="2">  1       21 0.89756407E-01 0.45763292E+03</pdfrwt>
<totfact> 0.52027230E+04</totfact>
</mgrwt>
</event>
<event>
 7    0  0.4759581E-002  0.4556196E+03  0.7546771E-02  0.1026059E+00
         21   -1    0    0  502  501  0.00000000000E+00  0.00000000000E+00  0.57540827876E+02  0.57540827876E+02  0.00000000000E+00 0.  1.
         21   -1    0    0  501  502 -0.00000000000E+00 -0.00000000000E+00 -0.90192148543E+03  0.90192148543E+03  0.00000000000E+00 0.  1.
      99926    2    1    2    0    0  0.00000000000E+00  0.00000000000E+00 -0.84438065756E+03  0.95946231331E+03  0.45561961745E+03 0.  0.
      99925    2    3    3    0    0 -0.91051373057E+02 -0.57398562779E+02 -0.60835963568E+03  0.67147207317E+03  0.26303678675E+03 0.  0.
         25    1    4    4    0    0 -0.22790583170E+02 -0.52786000890E+02 -0.35483035555E+03  0.38060197305E+03  0.12509000000E+03 0.  0.
         25    1    4    4    0    0 -0.68260789886E+02 -0.46125618896E+01 -0.25352928013E+03  0.29087010012E+03  0.12509000000E+03 0.  0.
         25    1    3    3    0    0  0.91051373057E+02  0.57398562779E+02 -0.23602102188E+03  0.28799024014E+03  0.12509000000E+03 0.  0.
<mgrwt>
<rscale>  2 0.45561962E+03</rscale>
<asrwt>0</asrwt>
<pdfrwt beam="1">  1       21 0.84618866E-02 0.45561962E+03</pdfrwt>
<pdfrwt beam="2">  1       21 0.13263551E+00 0.45561962E+03</pdfrwt>
<totfact> 0.40563157E+04</totfact>
</mgrwt>
</event>
<event>
 7    0  0.4759581E-002  0.4592693E+03  0.7546771E-02  0.1024993E+00
         21   -1    0    0  502  501  0.00000000000E+00  0.00000000000E+00  0.25927419629E+03  0.25927419629E+03  0.00000000000E+00 0. -1.
         21   -1    0    0  501  502 -0.00000000000E+00 -0.00000000000E+00 -0.20338342301E+03  0.20338342301E+03  0.00000000000E+00 0. -1.
      99926    2    1    2    0    0  0.00000000000E+00  0.00000000000E+00  0.55890773278E+02  0.46265761931E+03  0.45926930462E+03 0.  0.
      99925    2    3    3    0    0  0.10286781926E+02 -0.11663265563E+03  0.38378065220E+02  0.29042754851E+03  0.26299484938E+03 0.  0.
         25    1    3    3    0    0 -0.10286781926E+02  0.11663265563E+03  0.17512708058E+02  0.17223007080E+03  0.12509000000E+03 0.  0.
         25    1    4    4    0    0  0.24452648773E+02 -0.92525812199E+02  0.32911513862E+01  0.15753506826E+03  0.12509000000E+03 0.  0.
         25    1    4    4    0    0 -0.14165866847E+02 -0.24106843435E+02  0.35086913834E+02  0.13289248025E+03  0.12509000000E+03 0.  0.
<mgrwt>
<rscale>  2 0.45926930E+03</rscale>
<asrwt>0</asrwt>
<pdfrwt beam="1">  1       21 0.38128558E-01 0.45926930E+03</pdfrwt>
<pdfrwt beam="2">  1       21 0.29909327E-01 0.45926930E+03</pdfrwt>
<totfact> 0.65720980E+04</totfact>
</mgrwt>
</event>
<event>
 7    0  0.4759581E-002  0.4569024E+03  0.7546771E-02  0.1025683E+00
         21   -1    0    0  502  501  0.00000000000E+00  0.00000000000E+00  0.89812813789E+02  0.89812813789E+02  0.00000000000E+00 0. -1.
         21   -1    0    0  501  502 -0.00000000000E+00 -0.00000000000E+00 -0.58109694370E+03  0.58109694370E+03  0.00000000000E+00 0. -1.
      99926    2    1    2    0    0  0.00000000000E+00 -0.71054273576E-14 -0.49128412991E+03  0.67090975749E+03  0.45690240357E+03 0.  0.
      99925    2    3    3    0    0 -0.11257511870E+03  0.20925540016E+02 -0.32269863090E+03  0.43178716518E+03  0.26304888149E+03 0.  0.
         25    1    4    4    0    0 -0.79288885032E+02  0.45025338491E+02 -0.18607895456E+03  0.24204729667E+03  0.12509000000E+03 0.  0.
         25    1    4    4    0    0 -0.33286233669E+02 -0.24099798475E+02 -0.13661967634E+03  0.18973986851E+03  0.12509000000E+03 0.  0.
         25    1    3    3    0    0  0.11257511870E+03 -0.20925540016E+02 -0.16858549901E+03  0.23912259231E+03  0.12509000000E+03 0.  0.
<mgrwt>
<rscale>  2 0.45690240E+03</rscale>
<asrwt>0</asrwt>
<pdfrwt beam="1">  1       21 0.13207767E-01 0.45690240E+03</pdfrwt>
<pdfrwt beam="2">  1       21 0.85455430E-01 0.45690240E+03</pdfrwt>
<totfact> 0.53701263E+04</totfact>
</mgrwt>
</event>
<event>
 7    0  0.4759581E-002  0.4647599E+03  0.7546771E-02  0.1023410E+00
         21   -1    0    0  502  501  0.00000000000E+00  0.00000000000E+00  0.76904377828E+02  0.76904377828E+02  0.00000000000E+00 0.  1.
         21   -1    0    0  501  502 -0.00000000000E+00 -0.00000000000E+00 -0.70217650578E+03  0.70217650578E+03  0.00000000000E+00 0.  1.
      99926    2    1    2    0    0  0.00000000000E+00  0.00000000000E+00 -0.62527212795E+03  0.77908088361E+03  0.46475992642E+03 0.  0.
      99925    2    3    3    0    0  0.92783244669E+02 -0.54950753388E+02 -0.48609468797E+03  0.56310360774E+03  0.26300059238E+03 0.  0.
         25    1    3    3    0    0 -0.92783244669E+02  0.54950753388E+02 -0.13917743998E+03  0.21597727586E+03  0.12509000000E+03 0.  0.
         25    1    4    4    0    0  0.69251995775E+02 -0.62772759845E+02 -0.24971450556E+03  0.29451842164E+03  0.12509000000E+03 0.  0.
         25    1    4    4    0    0  0.23531248894E+02  0.78220064565E+01 -0.23638018241E+03  0.26858518610E+03  0.12509000000E+03 0.  0.
<mgrwt>
<rscale>  2 0.46475993E+03</rscale>
<asrwt>0</asrwt>
<pdfrwt beam="1">  1       21 0.11309468E-01 0.46475993E+03</pdfrwt>
<pdfrwt beam="2">  1       21 0.10326125E+00 0.46475993E+03</pdfrwt>
<totfact> 0.45227726E+04</totfact>
</mgrwt>
</event>
<event>
 7    0  0.4759581E-002  0.4382508E+03  0.7546771E-02  0.1031285E+00
         21   -1    0    0  502  501  0.00000000000E+00  0.00000000000E+00  0.19418833324E+03  0.19418833324E+03  0.00000000000E+00 0.  1.
         21   -1    0    0  501  502 -0.00000000000E+00 -0.00000000000E+00 -0.24726477956E+03  0.24726477956E+03  0.00000000000E+00 0.  1.
      99926    2    1    2    0    0  0.00000000000E+00  0.00000000000E+00 -0.53076446315E+02  0.44145311280E+03  0.43825077484E+03 0.  0.
      99925    2    3    3    0    0  0.42913224216E+02 -0.22028588296E+02  0.50470085404E+02  0.27205359732E+03  0.26294320067E+03 0.  0.
         25    1    4    4    0    0  0.56584428257E+02  0.30240889142E+01  0.41391021202E+02  0.14342826559E+03  0.12509000000E+03 0.  0.
         25    1    4    4    0    0 -0.13671204041E+02 -0.25052677211E+02  0.90790642017E+01  0.12862533173E+03  0.12509000000E+03 0.  0.
         25    1    3    3    0    0 -0.42913224216E+02  0.22028588296E+02 -0.10354653172E+03  0.16939951548E+03  0.12509000000E+03 0.  0.
<mgrwt>
<rscale>  2 0.43825077E+03</rscale>
<asrwt>0</asrwt>
<pdfrwt beam="1">  1       21 0.28557108E-01 0.43825077E+03</pdfrwt>
<pdfrwt beam="2">  1       21 0.36362468E-01 0.43825077E+03</pdfrwt>
<totfact> 0.79676400E+04</totfact>
</mgrwt>
</event>
<event>
 7    0  0.4759581E-002  0.4478431E+03  0.7546771E-02  0.1028367E+00
         21   -1    0    0  502  501  0.00000000000E+00  0.00000000000E+00  0.84639622676E+02  0.84639622676E+02  0.00000000000E+00 0. -1.
         21   -1    0    0  501  502 -0.00000000000E+00 -0.00000000000E+00 -0.59240412812E+03  0.59240412812E+03  0.00000000000E+00 0. -1.
      99926    2    1    2    0    0  0.00000000000E+00  0.00000000000E+00 -0.50776450545E+03  0.67704375080E+03  0.44784310590E+03 0.  0.
      99925    2    3    3    0    0  0.80977850916E+02  0.52739256062E+02 -0.25448301956E+03  0.37848410740E+03  0.26296344013E+03 0.  0.
         25    1    3    3    0    0 -0.80977850916E+02 -0.52739256062E+02 -0.25328148589E+03  0.29855964340E+03  0.12509000000E+03 0.  0.
         25    1    4    4    0    0  0.79204953380E+02  0.40185550548E+02 -0.12376548601E+03  0.19711343623E+03  0.12509000000E+03 0.  0.
         25    1    4    4    0    0  0.17728975360E+01  0.12553705514E+02 -0.13071753354E+03  0.18137067118E+03  0.12509000000E+03 0.  0.
<mgrwt>
<rscale>  2 0.44784311E+03</rscale>
<asrwt>0</asrwt>
<pdfrwt beam="1">  1       21 0.12447004E-01 0.44784311E+03</pdfrwt>
<pdfrwt beam="2">  1       21 0.87118249E-01 0.44784311E+03</pdfrwt>
<totfact> 0.57331107E+04</totfact>
</mgrwt>
</event>
<event>
 7    0  0.4759581E-002  0.4445495E+03  0.7546771E-02  0.1029360E+00
         21   -1    0    0  502  501  0.00000000000E+00  0.00000000000E+00  0.18940622657E+04  0.18940622657E+04  0.00000000000E+00 0.  1.
         21   -1    0    0  501  502 -0.00000000000E+00 -0.00000000000E+00 -0.26084706562E+02  0.26084706562E+02  0.00000000000E+00 0.  1.
      99926    2    1    2    0    0 -0.14210854715E-13  0.22204460493E-14  0.18679775592E+04  0.19201469723E+04  0.44454947267E+03 0.  0.
      99925    2    3    3    0    0  0.85651086448E+02 -0.39032987330E+01  0.14330374705E+04  0.14595259424E+04  0.26318860219E+03 0.  0.
         25    1    4    4    0    0  0.65307779407E+01  0.15951130651E+02  0.72451066163E+03  0.73543204754E+03  0.12509000000E+03 0.  0.
         25    1    4    4    0    0  0.79120308508E+02 -0.19854429384E+02  0.70852680889E+03  0.72409389488E+03  0.12509000000E+03 0.  0.
         25    1    3    3    0    0 -0.85651086448E+02  0.39032987330E+01  0.43494008864E+03  0.46062102987E+03  0.12509000000E+03 0.  0.
<mgrwt>
<rscale>  2 0.44454947E+03</rscale>
<asrwt>0</asrwt>
<pdfrwt beam="1">  1       21 0.27853848E+00 0.44454947E+03</pdfrwt>
<pdfrwt beam="2">  1       21 0.38359875E-02 0.44454947E+03</pdfrwt>
<totfact> 0.16343564E+04</totfact>
</mgrwt>
</event>
<event>
 7    0  0.4759581E-002  0.4589046E+03  0.7546771E-02  0.1025099E+00
         21   -1    0    0  502  501  0.00000000000E+00  0.00000000000E+00  0.45539900333E+03  0.45539900333E+03  0.00000000000E+00 0. -1.
         21   -1    0    0  501  502 -0.00000000000E+00 -0.00000000000E+00 -0.11560927210E+03  0.11560927210E+03  0.00000000000E+00 0. -1.
      99926    2    1    2    0    0 -0.35527136788E-14 -0.35527136788E-14  0.33978973123E+03  0.57100827543E+03  0.45890455343E+03 0.  0.
      99925    2    3    3    0    0 -0.31472537715E+02 -0.27566320524E+02  0.34804692929E+03  0.43884885625E+03  0.26400990698E+03 0.  0.
         25    1    4    4    0    0 -0.26505560242E+02 -0.54841832606E+02  0.18530264102E+03  0.23172127264E+03  0.12509000000E+03 0.  0.
         25    1    4    4    0    0 -0.49669774726E+01  0.27275512082E+02  0.16274428828E+03  0.20712758361E+03  0.12509000000E+03 0.  0.
         25    1    3    3    0    0  0.31472537715E+02  0.27566320524E+02 -0.82571980674E+01  0.13215941918E+03  0.12509000000E+03 0.  0.
<mgrwt>
<rscale>  2 0.45890455E+03</rscale>
<asrwt>0</asrwt>
<pdfrwt beam="1">  1       21 0.66970441E-01 0.45890455E+03</pdfrwt>
<pdfrwt beam="2">  1       21 0.17001364E-01 0.45890455E+03</pdfrwt>
<totfact> 0.58666753E+04</totfact>
</mgrwt>
</event>
<event>
 7    0  0.4759581E-002  0.4517596E+03  0.7546771E-02  0.1027199E+00
         21   -1    0    0  502  501  0.00000000000E+00  0.00000000000E+00  0.59388356902E+03  0.59388356902E+03  0.00000000000E+00 0.  1.
         21   -1    0    0  501  502 -0.00000000000E+00 -0.00000000000E+00 -0.85911945526E+02  0.85911945526E+02  0.00000000000E+00 0.  1.
      99926    2    1    2    0    0 -0.71054273576E-14  0.00000000000E+00  0.50797162349E+03  0.67979551455E+03  0.45175963888E+03 0.  0.
      99925    2    3    3    0    0 -0.52125617796E+02  0.63452786280E+02  0.21016054801E+03  0.34650542934E+03  0.26297380193E+03 0.  0.
         25    1    4    4    0    0 -0.75596638263E+01  0.11525471732E+02  0.59944635655E+02  0.13939459265E+03  0.12509000000E+03 0.  0.
         25    1    4    4    0    0 -0.44565953970E+02  0.51927314548E+02  0.15021591235E+03  0.20711083669E+03  0.12509000000E+03 0.  0.
         25    1    3    3    0    0  0.52125617796E+02 -0.63452786280E+02  0.29781107549E+03  0.33329008521E+03  0.12509000000E+03 0.  0.
<mgrwt>
<rscale>  2 0.45175964E+03</rscale>
<asrwt>0</asrwt>
<pdfrwt beam="1">  1       21 0.87335817E-01 0.45175964E+03</pdfrwt>
<pdfrwt beam="2">  1       21 0.12634110E-01 0.45175964E+03</pdfrwt>
<totfact> 0.55414579E+04</totfact>
</mgrwt>
</event>
<event>
 7    0  0.4759581E-002  0.4567949E+03  0.7546771E-02  0.1025715E+00
         21   -1    0    0  502  501  0.00000000000E+00  0.00000000000E+00  0.37663234393E+03  0.37663234393E+03  0.00000000000E+00 0. -1.
         21   -1    0    0  501  502 -0.00000000000E+00 -0.00000000000E+00 -0.13850481992E+03  0.13850481992E+03  0.00000000000E+00 0. -1.
      99926    2    1    2    0    0 -0.71054273576E-14  0.14210854715E-13  0.23812752401E+03  0.51513716384E+03  0.45679489914E+03 0.  0.
      99925    2    3    3    0    0  0.35824026920E+02  0.10448343640E+03  0.11406415394E+03  0.30719636150E+03  0.26298065312E+03 0.  0.
         25    1    4    4    0    0 -0.15762794824E+02  0.50457338917E+02  0.30311680215E+02  0.13914278569E+03  0.12509000000E+03 0.  0.
         25    1    3    3    0    0 -0.35824026920E+02 -0.10448343640E+03  0.12406337007E+03  0.20794080235E+03  0.12509000000E+03 0.  0.
         25    1    4    4    0    0  0.51586821744E+02  0.54026097487E+02  0.83752473724E+02  0.16805357581E+03  0.12509000000E+03 0.  0.
<mgrwt>
<rscale>  2 0.45679490E+03</rscale>
<asrwt>0</asrwt>
<pdfrwt beam="1">  1       21 0.55387109E-01 0.45679490E+03</pdfrwt>
<pdfrwt beam="2">  1       21 0.20368356E-01 0.45679490E+03</pdfrwt>
<totfact> 0.63313195E+04</totfact>
</mgrwt>
</event>
<event>
 7    0  0.4759581E-002  0.4652326E+03  0.7546771E-02  0.1023274E+00
         21   -1    0    0  502  501  0.00000000000E+00  0.00000000000E+00  0.31825797243E+03  0.31825797243E+03  0.00000000000E+00 0.  1.
         21   -1    0    0  501  502 -0.00000000000E+00 -0.00000000000E+00 -0.17002035244E+03  0.17002035244E+03  0.00000000000E+00 0.  1.
      99926    2    1    2    0    0  0.22204460493E-15  0.00000000000E+00  0.14823761999E+03  0.48827832487E+03  0.46523255535E+03 0.  0.
      99925    2    3    3    0    0 -0.14704074718E+01  0.32817830148E+02  0.21631490758E+03  0.34212362169E+03  0.26301570524E+03 0.  0.
         25    1    3    3    0    0  0.14704074718E+01 -0.32817830148E+02 -0.68077287594E+02  0.14615470317E+03  0.12509000000E+03 0.  0.
         25    1    4    4    0    0  0.91027396610E+01 -0.23089054850E+02  0.99226422695E+02  0.16158389581E+03  0.12509000000E+03 0.  0.
         25    1    4    4    0    0 -0.10573147133E+02  0.55906884998E+02  0.11708848489E+03  0.18053972589E+03  0.12509000000E+03 0.  0.
<mgrwt>
<rscale>  2 0.46523256E+03</rscale>
<asrwt>0</asrwt>
<pdfrwt beam="1">  1       21 0.46802643E-01 0.46523256E+03</pdfrwt>
<pdfrwt beam="2">  1       21 0.25002993E-01 0.46523256E+03</pdfrwt>
<totfact> 0.60995324E+04</totfact>
</mgrwt>
</event>
<event>
 6    0  0.4759581E-002  0.4608184E+03  0.7546771E-02  0.1024544E+00
         21   -1    0    0  502  501  0.00000000000E+00  0.00000000000E+00  0.38768691220E+03  0.38768691220E+03  0.00000000000E+00 0. -1.
         21   -1    0    0  501  502 -0.00000000000E+00 -0.00000000000E+00 -0.13693628703E+03  0.13693628703E+03  0.00000000000E+00 0. -1.
      99926    2    1    2    0    0  0.00000000000E+00  0.00000000000E+00  0.25075062517E+03  0.52462319922E+03  0.46081842968E+03 0.  0.
         25    1    3    3    0    0 -0.72514643497E+02 -0.93817978944E+02  0.51271931678E+02  0.17982354065E+03  0.12509000000E+03 0.  0.
         25    1    3    3    0    0  0.39536657317E+02  0.21567051577E+02  0.99266295276E+02  0.16592043413E+03  0.12509000000E+03 0.  0.
         25    1    3    3    0    0  0.32977986180E+02  0.72250927366E+02  0.10021239822E+03  0.17887922443E+03  0.12509000000E+03 0.  0.
<mgrwt>
<rscale>  2 0.46081843E+03</rscale>
<asrwt>0</asrwt>
<pdfrwt beam="1">  1       21 0.57012781E-01 0.46081843E+03</pdfrwt>
<pdfrwt beam="2">  1       21 0.20137689E-01 0.46081843E+03</pdfrwt>
<totfact> 0.60721615E+04</totfact>
</mgrwt>
</event>
<event>
 7    0  0.4759581E-002  0.4751621E+03  0.7546771E-02  0.1020473E+00
         21   -1    0    0  502  501  0.00000000000E+00  0.00000000000E+00  0.25169252507E+02  0.25169252507E+02  0.00000000000E+00 0. -1.
         21   -1    0    0  501  502 -0.00000000000E+00 -0.00000000000E+00 -0.22426070997E+04  0.22426070997E+04  0.00000000000E+00 0. -1.
      99926    2    1    2    0    0  0.00000000000E+00  0.00000000000E+00 -0.22174378472E+04  0.22677763522E+04  0.47516205390E+03 0.  0.
      99925    2    3    3    0    0 -0.64162011393E+02  0.75303650264E+02 -0.96034681286E+03  0.10006091256E+04  0.26299280949E+03 0.  0.
         25    1    3    3    0    0  0.64162011393E+02 -0.75303650264E+02 -0.12570910343E+04  0.12671672266E+04  0.12509000000E+03 0.  0.
         25    1    4    4    0    0 -0.70835146593E+02  0.24593068994E+02 -0.49854142614E+03  0.51943575033E+03  0.12509000000E+03 0.  0.
         25    1    4    4    0    0  0.66731352000E+01  0.50710581269E+02 -0.46180538672E+03  0.48117337529E+03  0.12509000000E+03 0.  0.
<mgrwt>
<rscale>  2 0.47516205E+03</rscale>
<asrwt>0</asrwt>
<pdfrwt beam="1">  1       21 0.37013620E-02 0.47516205E+03</pdfrwt>
<pdfrwt beam="2">  1       21 0.32979504E+00 0.47516205E+03</pdfrwt>
<totfact> 0.84129362E+03</totfact>
</mgrwt>
</event>
<event>
 7    0  0.4759581E-002  0.4621718E+03  0.7546771E-02  0.1024153E+00
         21   -1    0    0  502  501  0.00000000000E+00  0.00000000000E+00  0.21231630810E+03  0.21231630810E+03  0.00000000000E+00 0. -1.
         21   -1    0    0  501  502 -0.00000000000E+00 -0.00000000000E+00 -0.25151480470E+03  0.25151480470E+03  0.00000000000E+00 0. -1.
      99926    2    1    2    0    0  0.00000000000E+00  0.14210854715E-13 -0.39198496601E+02  0.46383111279E+03  0.46217180686E+03 0.  0.
      99925    2    3    3    0    0  0.92699662174E+02  0.75789664869E+02 -0.24990598858E+02  0.29008798883E+03  0.26303842031E+03 0.  0.
         25    1    4    4    0    0  0.21489966750E+02  0.68209024095E+01  0.70252940958E+01  0.12729967100E+03  0.12509000000E+03 0.  0.
         25    1    4    4    0    0  0.71209695424E+02  0.68968762460E+02 -0.32015892954E+02  0.16278831782E+03  0.12509000000E+03 0.  0.
         25    1    3    3    0    0 -0.92699662174E+02 -0.75789664869E+02 -0.14207897743E+02  0.17374312397E+03  0.12509000000E+03 0.  0.
<mgrwt>
<rscale>  2 0.46217181E+03</rscale>
<asrwt>0</asrwt>
<pdfrwt beam="1">  1       21 0.31222986E-01 0.46217181E+03</pdfrwt>
<pdfrwt beam="2">  1       21 0.36987471E-01 0.46217181E+03</pdfrwt>
<totfact> 0.64153346E+04</totfact>
</mgrwt>
</event>
<event>
 7    0  0.4759581E-002  0.4145230E+03  0.7546771E-02  0.1038864E+00
         21   -1    0    0  502  501  0.00000000000E+00  0.00000000000E+00  0.17927052386E+03  0.17927052386E+03  0.00000000000E+00 0. -1.
         21   -1    0    0  501  502 -0.00000000000E+00 -0.00000000000E+00 -0.23962290847E+03  0.23962290847E+03  0.00000000000E+00 0. -1.
      99926    2    1    2    0    0  0.35527136788E-14  0.00000000000E+00 -0.60352384611E+02  0.41889343232E+03  0.41452297562E+03 0.  0.
      99925    2    3    3    0    0 -0.22982680206E+02 -0.37796998424E+02  0.13021000281E+02  0.26727556270E+03  0.26326766472E+03 0.  0.
         25    1    3    3    0    0  0.22982680206E+02  0.37796998424E+02 -0.73373384892E+02  0.15161786963E+03  0.12509000000E+03 0.  0.
         25    1    4    4    0    0  0.72198008056E+01 -0.54213337513E+02  0.16392988273E+02  0.13750436230E+03  0.12509000000E+03 0.  0.
         25    1    4    4    0    0 -0.30202481011E+02  0.16416339089E+02 -0.33719879920E+01  0.12977120039E+03  0.12509000000E+03 0.  0.
<mgrwt>
<rscale>  2 0.41452298E+03</rscale>
<asrwt>0</asrwt>
<pdfrwt beam="1">  1       21 0.26363313E-01 0.41452298E+03</pdfrwt>
<pdfrwt beam="2">  1       21 0.35238663E-01 0.41452298E+03</pdfrwt>
<totfact> 0.99816682E+04</totfact>
</mgrwt>
</event>
<event>
 7    0  0.4759581E-002  0.4554477E+03  0.7546771E-02  0.1026110E+00
         21   -1    0    0  502  501  0.00000000000E+00  0.00000000000E+00  0.27407006457E+03  0.27407006457E+03  0.00000000000E+00 0. -1.
         21   -1    0    0  501  502 -0.00000000000E+00 -0.00000000000E+00 -0.18921493304E+03  0.18921493304E+03  0.00000000000E+00 0. -1.
      99926    2    1    2    0    0  0.44408920985E-15 -0.88817841970E-15  0.84855131528E+02  0.46328499760E+03  0.45544768707E+03 0.  0.
      99925    2    3    3    0    0 -0.18383497184E+01 -0.36573474937E+01 -0.62203955225E+02  0.27017715515E+03  0.26288706206E+03 0.  0.
         25    1    4    4    0    0  0.51928553237E+01 -0.41737481703E+02 -0.31525362441E+02  0.13568470696E+03  0.12509000000E+03 0.  0.
         25    1    4    4    0    0 -0.70312050420E+01  0.38080134209E+02 -0.30678592784E+02  0.13449244819E+03  0.12509000000E+03 0.  0.
         25    1    3    3    0    0  0.18383497184E+01  0.36573474937E+01  0.14705908675E+03  0.19310784245E+03  0.12509000000E+03 0.  0.
<mgrwt>
<rscale>  2 0.45544769E+03</rscale>
<asrwt>0</asrwt>
<pdfrwt beam="1">  1       21 0.40304422E-01 0.45544769E+03</pdfrwt>
<pdfrwt beam="2">  1       21 0.27825725E-01 0.45544769E+03</pdfrwt>
<totfact> 0.67696411E+04</totfact>
</mgrwt>
</event>
<event>
 7    0  0.4759581E-002  0.4584997E+03  0.7546771E-02  0.1025217E+00
         21   -1    0    0  502  501  0.00000000000E+00  0.00000000000E+00  0.96694605549E+03  0.96694605549E+03  0.00000000000E+00 0. -1.
         21   -1    0    0  501  502 -0.00000000000E+00 -0.00000000000E+00 -0.54352032651E+02  0.54352032651E+02  0.00000000000E+00 0. -1.
      99926    2    1    2    0    0  0.00000000000E+00  0.00000000000E+00  0.91259402284E+03  0.10212980881E+04  0.45849965575E+03 0.  0.
      99925    2    3    3    0    0  0.97025714610E+02  0.26024103192E+02  0.44089991041E+03  0.52306713061E+03  0.26289779170E+03 0.  0.
         25    1    4    4    0    0  0.65669553975E+02  0.42588611204E+02  0.27706943875E+03  0.31391282566E+03  0.12509000000E+03 0.  0.
         25    1    4    4    0    0  0.31356160635E+02 -0.16564508012E+02  0.16383047166E+03  0.20915430495E+03  0.12509000000E+03 0.  0.
         25    1    3    3    0    0 -0.97025714610E+02 -0.26024103192E+02  0.47169411243E+03  0.49823095753E+03  0.12509000000E+03 0.  0.
<mgrwt>
<rscale>  2 0.45849966E+03</rscale>
<asrwt>0</asrwt>
<pdfrwt beam="1">  1       21 0.14219794E+00 0.45849966E+03</pdfrwt>
<pdfrwt beam="2">  1       21 0.79929465E-02 0.45849966E+03</pdfrwt>
<totfact> 0.37318305E+04</totfact>
</mgrwt>
</event>
<event>
 7    0  0.4759581E-002  0.4512736E+03  0.7546771E-02  0.1027343E+00
         21   -1    0    0  502  501  0.00000000000E+00  0.00000000000E+00  0.31826562958E+02  0.31826562958E+02  0.00000000000E+00 0. -1.
         21   -1    0    0  501  502 -0.00000000000E+00 -0.00000000000E+00 -0.15996691697E+04  0.15996691697E+04  0.00000000000E+00 0. -1.
      99926    2    1    2    0    0  0.00000000000E+00  0.00000000000E+00 -0.15678426067E+04  0.16314957326E+04  0.45127362671E+03 0.  0.
      99925    2    3    3    0    0 -0.37181837403E+02 -0.93030234375E+02 -0.82855037265E+03  0.87503183462E+03  0.26295984113E+03 0.  0.
         25    1    4    4    0    0 -0.39815327776E+02 -0.79913036039E+02 -0.40439655962E+03  0.43261465439E+03  0.12509000000E+03 0.  0.
         25    1    3    3    0    0  0.37181837403E+02  0.93030234375E+02 -0.73929223407E+03  0.75646389802E+03  0.12509000000E+03 0.  0.
         25    1    4    4    0    0  0.26334903732E+01 -0.13117198337E+02 -0.42415381303E+03  0.44241718024E+03  0.12509000000E+03 0.  0.
<mgrwt>
<rscale>  2 0.45127363E+03</rscale>
<asrwt>0</asrwt>
<pdfrwt beam="1">  1       21 0.46803772E-02 0.45127363E+03</pdfrwt>
<pdfrwt beam="2">  1       21 0.23524545E+00 0.45127363E+03</pdfrwt>
<totfact> 0.21338062E+04</totfact>
</mgrwt>
</event>
<event>
 7    0  0.4759581E-002  0.4566327E+03  0.7546771E-02  0.1025762E+00
         21   -1    0    0  502  501  0.00000000000E+00  0.00000000000E+00  0.18924694322E+03  0.18924694322E+03  0.00000000000E+00 0. -1.
         21   -1    0    0  501  502 -0.00000000000E+00 -0.00000000000E+00 -0.27545154214E+03  0.27545154214E+03  0.00000000000E+00 0. -1.
      99926    2    1    2    0    0  0.00000000000E+00  0.00000000000E+00 -0.86204598917E+02  0.46469848536E+03  0.45663272925E+03 0.  0.
      99925    2    3    3    0    0 -0.79093757607E+02 -0.64238844240E+02 -0.47807580760E+00  0.28199928869E+03  0.26294660801E+03 0.  0.
         25    1    3    3    0    0  0.79093757607E+02  0.64238844240E+02 -0.85726523109E+02  0.18269919668E+03  0.12509000000E+03 0.  0.
         25    1    4    4    0    0 -0.59772122452E+01 -0.54476240221E+02  0.52141046122E+01  0.13666778260E+03  0.12509000000E+03 0.  0.
         25    1    4    4    0    0 -0.73116545362E+02 -0.97626040193E+01 -0.56921804198E+01  0.14533150608E+03  0.12509000000E+03 0.  0.
<mgrwt>
<rscale>  2 0.45663273E+03</rscale>
<asrwt>0</asrwt>
<pdfrwt beam="1">  1       21 0.27830433E-01 0.45663273E+03</pdfrwt>
<pdfrwt beam="2">  1       21 0.40507579E-01 0.45663273E+03</pdfrwt>
<totfact> 0.66959261E+04</totfact>
</mgrwt>
</event>
<event>
 7    0  0.4759581E-002  0.4555901E+03  0.7546771E-02  0.1026068E+00
         21   -1    0    0  502  501  0.00000000000E+00  0.00000000000E+00  0.18463154623E+03  0.18463154623E+03  0.00000000000E+00 0.  1.
         21   -1    0    0  501  502 -0.00000000000E+00 -0.00000000000E+00 -0.28104945464E+03  0.28104945464E+03  0.00000000000E+00 0.  1.
      99926    2    1    2    0    0  0.00000000000E+00  0.71054273576E-14 -0.96417908415E+02  0.46568100087E+03  0.45559014641E+03 0.  0.
      99925    2    3    3    0    0  0.55857505228E+02  0.60213292523E+02 -0.14098473597E+03  0.30954192278E+03  0.26304715299E+03 0.  0.
         25    1    4    4    0    0 -0.32464992001E+01  0.63677138115E+01 -0.82291537955E+02  0.14990161058E+03  0.12509000000E+03 0.  0.
         25    1    4    4    0    0  0.59104004428E+02  0.53845578711E+02 -0.58693198018E+02  0.15964031220E+03  0.12509000000E+03 0.  0.
         25    1    3    3    0    0 -0.55857505228E+02 -0.60213292523E+02  0.44566827558E+02  0.15613907808E+03  0.12509000000E+03 0.  0.
<mgrwt>
<rscale>  2 0.45559015E+03</rscale>
<asrwt>0</asrwt>
<pdfrwt beam="1">  1       21 0.27151698E-01 0.45559015E+03</pdfrwt>
<pdfrwt beam="2">  1       21 0.41330802E-01 0.45559015E+03</pdfrwt>
<totfact> 0.67442709E+04</totfact>
</mgrwt>
</event>
<event>
 7    0  0.4759581E-002  0.4564563E+03  0.7546771E-02  0.1025814E+00
         21   -1    0    0  502  501  0.00000000000E+00  0.00000000000E+00  0.89995585886E+02  0.89995585886E+02  0.00000000000E+00 0. -1.
         21   -1    0    0  501  502 -0.00000000000E+00 -0.00000000000E+00 -0.57878488982E+03  0.57878488982E+03  0.00000000000E+00 0. -1.
      99926    2    1    2    0    0  0.35527136788E-14  0.00000000000E+00 -0.48878930393E+03  0.66878047570E+03  0.45645628602E+03 0.  0.
      99925    2    3    3    0    0  0.26561406007E+02  0.10332571631E+03 -0.24618698666E+03  0.37571887060E+03  0.26301126475E+03 0.  0.
         25    1    4    4    0    0 -0.27314110409E+02  0.47674712506E+02 -0.12271475995E+03  0.18364465484E+03  0.12509000000E+03 0.  0.
         25    1    3    3    0    0 -0.26561406007E+02 -0.10332571631E+03 -0.24260231727E+03  0.29306160510E+03  0.12509000000E+03 0.  0.
         25    1    4    4    0    0  0.53875516416E+02  0.55651003805E+02 -0.12347222671E+03  0.19207421577E+03  0.12509000000E+03 0.  0.
<mgrwt>
<rscale>  2 0.45645629E+03</rscale>
<asrwt>0</asrwt>
<pdfrwt beam="1">  1       21 0.13234645E-01 0.45645629E+03</pdfrwt>
<pdfrwt beam="2">  1       21 0.85115427E-01 0.45645629E+03</pdfrwt>
<totfact> 0.54008257E+04</totfact>
</mgrwt>
</event>
<event>
 7    0  0.4759581E-002  0.4516178E+03  0.7546771E-02  0.1027241E+00
         21   -1    0    0  502  501  0.00000000000E+00  0.00000000000E+00  0.17492441556E+03  0.17492441556E+03  0.00000000000E+00 0. -1.
         21   -1    0    0  501  502 -0.00000000000E+00 -0.00000000000E+00 -0.29149543419E+03  0.29149543419E+03  0.00000000000E+00 0. -1.
      99926    2    1    2    0    0 -0.14210854715E-13  0.14210854715E-13 -0.11657101863E+03  0.46641984976E+03  0.45161784051E+03 0.  0.
      99925    2    3    3    0    0  0.67191638685E+02 -0.65826097235E+02 -0.13238572355E+03  0.30911312906E+03  0.26301550405E+03 0.  0.
         25    1    3    3    0    0 -0.67191638685E+02  0.65826097235E+02  0.15814704915E+02  0.15730672070E+03  0.12509000000E+03 0.  0.
         25    1    4    4    0    0  0.68469197417E+02 -0.53483397532E+02 -0.87423371315E+02  0.17560996201E+03  0.12509000000E+03 0.  0.
         25    1    4    4    0    0 -0.12775587313E+01 -0.12342699704E+02 -0.44962352231E+02  0.13350316704E+03  0.12509000000E+03 0.  0.
<mgrwt>
<rscale>  2 0.45161784E+03</rscale>
<asrwt>0</asrwt>
<pdfrwt beam="1">  1       21 0.25724179E-01 0.45161784E+03</pdfrwt>
<pdfrwt beam="2">  1       21 0.42866976E-01 0.45161784E+03</pdfrwt>
<totfact> 0.69550311E+04</totfact>
</mgrwt>
</event>
<event>
 7    0  0.4759581E-002  0.4580687E+03  0.7546771E-02  0.1025343E+00
         21   -1    0    0  502  501  0.00000000000E+00  0.00000000000E+00  0.47309475605E+03  0.47309475605E+03  0.00000000000E+00 0. -1.
         21   -1    0    0  501  502 -0.00000000000E+00 -0.00000000000E+00 -0.11087998927E+03  0.11087998927E+03  0.00000000000E+00 0. -1.
      99926    2    1    2    0    0  0.00000000000E+00  0.00000000000E+00  0.36221476678E+03  0.58397474532E+03  0.45806873491E+03 0.  0.
      99925    2    3    3    0    0 -0.64682041067E+02 -0.59678957796E+01  0.10463297944E+03  0.29035038073E+03  0.26293706659E+03 0.  0.
         25    1    4    4    0    0 -0.31310422586E+02 -0.15353106123E+02  0.93602052745E+02  0.16007783359E+03  0.12509000000E+03 0.  0.
         25    1    3    3    0    0  0.64682041067E+02  0.59678957796E+01  0.25758178733E+03  0.29362436459E+03  0.12509000000E+03 0.  0.
         25    1    4    4    0    0 -0.33371618481E+02  0.93852103433E+01  0.11030926698E+02  0.13027254713E+03  0.12509000000E+03 0.  0.
<mgrwt>
<rscale>  2 0.45806873E+03</rscale>
<asrwt>0</asrwt>
<pdfrwt beam="1">  1       21 0.69572757E-01 0.45806873E+03</pdfrwt>
<pdfrwt beam="2">  1       21 0.16305881E-01 0.45806873E+03</pdfrwt>
<totfact> 0.58249723E+04</totfact>
</mgrwt>
</event>
<event>
 7    0  0.4759581E-002  0.4554113E+03  0.7546771E-02  0.1026121E+00
         21   -1    0    0  502  501  0.00000000000E+00  0.00000000000E+00  0.55948156801E+03  0.55948156801E+03  0.00000000000E+00 0.  1.
         21   -1    0    0  501  502 -0.00000000000E+00 -0.00000000000E+00 -0.92674851176E+02  0.92674851176E+02  0.00000000000E+00 0.  1.
      99926    2    1    2    0    0  0.00000000000E+00  0.00000000000E+00  0.46680671684E+03  0.65215641919E+03  0.45541133517E+03 0.  0.
      99925    2    3    3    0    0 -0.28234390179E+02 -0.10530954533E+03  0.24523990922E+03  0.37534124716E+03  0.26239504115E+03 0.  0.
         25    1    3    3    0    0  0.28234390179E+02  0.10530954533E+03  0.22156680762E+03  0.27681517203E+03  0.12509000000E+03 0.  0.
         25    1    4    4    0    0 -0.31529002898E+02 -0.81173054746E+02  0.16559458473E+03  0.22506047506E+03  0.12509000000E+03 0.  0.
         25    1    4    4    0    0  0.32946127185E+01 -0.24136490588E+02  0.79645324482E+02  0.15028077210E+03  0.12509000000E+03 0.  0.
<mgrwt>
<rscale>  2 0.45541134E+03</rscale>
<asrwt>0</asrwt>
<pdfrwt beam="1">  1       21 0.82276700E-01 0.45541134E+03</pdfrwt>
<pdfrwt beam="2">  1       21 0.13628655E-01 0.45541134E+03</pdfrwt>
<totfact> 0.55397460E+04</totfact>
</mgrwt>
</event>
<event>
 6    0  0.4759581E-002  0.4519381E+03  0.7546771E-02  0.1027146E+00
         21   -1    0    0  502  501  0.00000000000E+00  0.00000000000E+00  0.21822787670E+03  0.21822787670E+03  0.00000000000E+00 0.  1.
         21   -1    0    0  501  502 -0.00000000000E+00 -0.00000000000E+00 -0.23398486038E+03  0.23398486038E+03  0.00000000000E+00 0.  1.
      99926    2    1    2    0    0  0.35527136788E-14  0.00000000000E+00 -0.15756983685E+02  0.45221273708E+03  0.45193813408E+03 0.  0.
         25    1    3    3    0    0  0.39123714635E+02 -0.15764826230E+02  0.88867283198E+01  0.13230902023E+03  0.12509000000E+03 0.  0.
         25    1    3    3    0    0 -0.28707713751E+02 -0.82206315345E+02  0.21976780857E+02  0.15398862980E+03  0.12509000000E+03 0.  0.
         25    1    3    3    0    0 -0.10416000884E+02  0.97971141575E+02 -0.46620492862E+02  0.16591508705E+03  0.12509000000E+03 0.  0.
<mgrwt>
<rscale>  2 0.45193813E+03</rscale>
<asrwt>0</asrwt>
<pdfrwt beam="1">  1       21 0.32092335E-01 0.45193813E+03</pdfrwt>
<pdfrwt beam="2">  1       21 0.34409538E-01 0.45193813E+03</pdfrwt>
<totfact> 0.70456082E+04</totfact>
</mgrwt>
</event>
<event>
 7    0  0.4759581E-002  0.4574670E+03  0.7546771E-02  0.1025518E+00
         21   -1    0    0  502  501  0.00000000000E+00  0.00000000000E+00  0.45096631670E+03  0.45096631670E+03  0.00000000000E+00 0.  1.
         21   -1    0    0  501  502 -0.00000000000E+00 -0.00000000000E+00 -0.11601534897E+03  0.11601534897E+03  0.00000000000E+00 0.  1.
      99926    2    1    2    0    0  0.00000000000E+00  0.00000000000E+00  0.33495096773E+03  0.56698166567E+03  0.45746700255E+03 0.  0.
      99925    2    3    3    0    0 -0.47614397796E+01  0.65751503193E+02  0.32779085336E+03  0.42540233519E+03  0.26301021226E+03 0.  0.
         25    1    4    4    0    0  0.83111077210E+01 -0.54424496644E+01  0.17186378036E+03  0.21279887657E+03  0.12509000000E+03 0.  0.
         25    1    4    4    0    0 -0.13072547501E+02  0.71193952858E+02  0.15592707301E+03  0.21260345862E+03  0.12509000000E+03 0.  0.
         25    1    3    3    0    0  0.47614397796E+01 -0.65751503193E+02  0.71601143668E+01  0.14157933048E+03  0.12509000000E+03 0.  0.
<mgrwt>
<rscale>  2 0.45746700E+03</rscale>
<asrwt>0</asrwt>
<pdfrwt beam="1">  1       21 0.66318576E-01 0.45746700E+03</pdfrwt>
<pdfrwt beam="2">  1       21 0.17061081E-01 0.45746700E+03</pdfrwt>
<totfact> 0.59587005E+04</totfact>
</mgrwt>
</event>
<event>
 7    0  0.4759581E-002  0.4508059E+03  0.7546771E-02  0.1027482E+00
         21   -1    0    0  502  501  0.00000000000E+00  0.00000000000E+00  0.26261913120E+03  0.26261913120E+03  0.00000000000E+00 0.  1.
         21   -1    0    0  501  502 -0.00000000000E+00 -0.00000000000E+00 -0.19346077526E+03  0.19346077526E+03  0.00000000000E+00 0.  1.
      99926    2    1    2    0    0  0.00000000000E+00  0.00000000000E+00  0.69158355944E+02  0.45607990646E+03  0.45080594814E+03 0.  0.
      99925    2    3    3    0    0  0.45522075941E+02  0.93010304346E+02  0.78744053924E+02  0.29340670701E+03  0.26298991155E+03 0.  0.
         25    1    3    3    0    0 -0.45522075941E+02 -0.93010304346E+02 -0.95856979807E+01  0.16267319945E+03  0.12509000000E+03 0.  0.
         25    1    4    4    0    0  0.12676704696E+02  0.12294873589E+02  0.11720170531E+02  0.12687290198E+03  0.12509000000E+03 0.  0.
         25    1    4    4    0    0  0.32845371244E+02  0.80715430757E+02  0.67023883394E+02  0.16653380504E+03  0.12509000000E+03 0.  0.
<mgrwt>
<rscale>  2 0.45080595E+03</rscale>
<asrwt>0</asrwt>
<pdfrwt beam="1">  1       21 0.38620461E-01 0.45080595E+03</pdfrwt>
<pdfrwt beam="2">  1       21 0.28450114E-01 0.45080595E+03</pdfrwt>
<totfact> 0.70805892E+04</totfact>
</mgrwt>
</event>
<event>
 7    0  0.4759581E-002  0.4571094E+03  0.7546771E-02  0.1025623E+00
         21   -1    0    0  502  501  0.00000000000E+00  0.00000000000E+00  0.21835363502E+03  0.21835363502E+03  0.00000000000E+00 0. -1.
         21   -1    0    0  501  502 -0.00000000000E+00 -0.00000000000E+00 -0.23923231064E+03  0.23923231064E+03  0.00000000000E+00 0. -1.
      99926    2    1    2    0    0  0.00000000000E+00 -0.17763568394E-14 -0.20878675614E+02  0.45758594566E+03  0.45710937266E+03 0.  0.
      99925    2    3    3    0    0 -0.11372334017E+03 -0.61389209487E+01  0.39712752062E+01  0.28660140658E+03  0.26297131170E+03 0.  0.
         25    1    3    3    0    0  0.11372334017E+03  0.61389209487E+01 -0.24849950820E+02  0.17098453908E+03  0.12509000000E+03 0.  0.
         25    1    4    4    0    0 -0.55392412282E+02  0.27738881917E+02 -0.24324833611E+02  0.14169322686E+03  0.12509000000E+03 0.  0.
         25    1    4    4    0    0 -0.58330927884E+02 -0.33877802866E+02  0.28296108817E+02  0.14490817972E+03  0.12509000000E+03 0.  0.
<mgrwt>
<rscale>  2 0.45710937E+03</rscale>
<asrwt>0</asrwt>
<pdfrwt beam="1">  1       21 0.32110829E-01 0.45710937E+03</pdfrwt>
<pdfrwt beam="2">  1       21 0.35181222E-01 0.45710937E+03</pdfrwt>
<totfact> 0.67218329E+04</totfact>
</mgrwt>
</event>
<event>
 7    0  0.4759581E-002  0.4623769E+03  0.7546771E-02  0.1024094E+00
         21   -1    0    0  502  501  0.00000000000E+00  0.00000000000E+00  0.72504551769E+03  0.72504551769E+03  0.00000000000E+00 0.  1.
         21   -1    0    0  501  502 -0.00000000000E+00 -0.00000000000E+00 -0.73716898473E+02  0.73716898473E+02  0.00000000000E+00 0.  1.
      99926    2    1    2    0    0  0.00000000000E+00  0.00000000000E+00  0.65132861921E+03  0.79876241616E+03  0.46237693202E+03 0.  0.
      99925    2    3    3    0    0 -0.86903805518E+02 -0.95142172112E+01  0.54912816429E+03  0.61509088099E+03  0.26296817170E+03 0.  0.
         25    1    4    4    0    0 -0.74736763260E+02  0.20502843499E+02  0.31489320397E+03  0.34757903904E+03  0.12509000000E+03 0.  0.
         25    1    3    3    0    0  0.86903805518E+02  0.95142172112E+01  0.10220045493E+03  0.18367153517E+03  0.12509000000E+03 0.  0.
         25    1    4    4    0    0 -0.12167042258E+02 -0.30017060710E+02  0.23423496032E+03  0.26751184196E+03  0.12509000000E+03 0.  0.
<mgrwt>
<rscale>  2 0.46237693E+03</rscale>
<asrwt>0</asrwt>
<pdfrwt beam="1">  1       21 0.10662434E+00 0.46237693E+03</pdfrwt>
<pdfrwt beam="2">  1       21 0.10840721E-01 0.46237693E+03</pdfrwt>
<totfact> 0.45153364E+04</totfact>
</mgrwt>
</event>
<event>
 7    0  0.4759581E-002  0.4537708E+03  0.7546771E-02  0.1026603E+00
         21   -1    0    0  502  501  0.00000000000E+00  0.00000000000E+00  0.38166517194E+02  0.38166517194E+02  0.00000000000E+00 0.  1.
         21   -1    0    0  501  502 -0.00000000000E+00 -0.00000000000E+00 -0.13487470134E+04  0.13487470134E+04  0.00000000000E+00 0.  1.
      99926    2    1    2    0    0  0.00000000000E+00  0.00000000000E+00 -0.13105804962E+04  0.13869135306E+04  0.45377076186E+03 0.  0.
      99925    2    3    3    0    0  0.85145937455E+02  0.35616023291E+02 -0.10204676239E+04  0.10577762970E+04  0.26271313486E+03 0.  0.
         25    1    3    3    0    0 -0.85145937455E+02 -0.35616023291E+02 -0.29011287230E+03  0.32913723362E+03  0.12509000000E+03 0.  0.
         25    1    4    4    0    0  0.79886737363E+02  0.35082714708E+02 -0.59847258030E+03  0.61759989083E+03  0.12509000000E+03 0.  0.
         25    1    4    4    0    0  0.52592000923E+01  0.53330858290E+00 -0.42199504362E+03  0.44017640617E+03  0.12509000000E+03 0.  0.
<mgrwt>
<rscale>  2 0.45377076E+03</rscale>
<asrwt>0</asrwt>
<pdfrwt beam="1">  1       21 0.56127237E-02 0.45377076E+03</pdfrwt>
<pdfrwt beam="2">  1       21 0.19834513E+00 0.45377076E+03</pdfrwt>
<totfact> 0.26939272E+04</totfact>
</mgrwt>
</event>
<event>
 7    0  0.4759581E-002  0.4537031E+03  0.7546771E-02  0.1026623E+00
         21   -1    0    0  502  501  0.00000000000E+00  0.00000000000E+00  0.20687616392E+03  0.20687616392E+03  0.00000000000E+00 0.  1.
         21   -1    0    0  501  502 -0.00000000000E+00 -0.00000000000E+00 -0.24875575663E+03  0.24875575663E+03  0.00000000000E+00 0.  1.
      99926    2    1    2    0    0 -0.71054273576E-14  0.71054273576E-14 -0.41879592710E+02  0.45563192056E+03  0.45370314827E+03 0.  0.
      99925    2    3    3    0    0 -0.54961304152E+02  0.62239828200E+02 -0.10196505272E+03  0.29391515651E+03  0.26285871887E+03 0.  0.
         25    1    4    4    0    0 -0.38018228293E+02  0.33581056548E+02 -0.93481055080E+02  0.16419284028E+03  0.12509000000E+03 0.  0.
         25    1    3    3    0    0  0.54961304152E+02 -0.62239828200E+02  0.60085460009E+02  0.16171676404E+03  0.12509000000E+03 0.  0.
         25    1    4    4    0    0 -0.16943075859E+02  0.28658771652E+02 -0.84839976401E+01  0.12972231623E+03  0.12509000000E+03 0.  0.
<mgrwt>
<rscale>  2 0.45370315E+03</rscale>
<asrwt>0</asrwt>
<pdfrwt beam="1">  1       21 0.30422965E-01 0.45370315E+03</pdfrwt>
<pdfrwt beam="2">  1       21 0.36581729E-01 0.45370315E+03</pdfrwt>
<totfact> 0.69212921E+04</totfact>
</mgrwt>
</event>
<event>
 7    0  0.4759581E-002  0.4564172E+03  0.7546771E-02  0.1025825E+00
         21   -1    0    0  502  501  0.00000000000E+00  0.00000000000E+00  0.10689805650E+04  0.10689805650E+04  0.00000000000E+00 0. -1.
         21   -1    0    0  501  502 -0.00000000000E+00 -0.00000000000E+00 -0.48718536978E+02  0.48718536978E+02  0.00000000000E+00 0. -1.
      99926    2    1    2    0    0  0.00000000000E+00  0.00000000000E+00  0.10202620281E+04  0.11176991020E+04  0.45641721785E+03 0.  0.
      99925    2    3    3    0    0  0.47302853916E+02  0.10417997426E+03  0.65209788678E+03  0.71238025216E+03  0.26298848396E+03 0.  0.
         25    1    4    4    0    0  0.60193746257E+02  0.35139858056E+02  0.31448040803E+03  0.34554816140E+03  0.12509000000E+03 0.  0.
         25    1    4    4    0    0 -0.12890892341E+02  0.69040116208E+02  0.33761747875E+03  0.36683209076E+03  0.12509000000E+03 0.  0.
         25    1    3    3    0    0 -0.47302853916E+02 -0.10417997426E+03  0.36816414128E+03  0.40531884986E+03  0.12509000000E+03 0.  0.
<mgrwt>
<rscale>  2 0.45641722E+03</rscale>
<asrwt>0</asrwt>
<pdfrwt beam="1">  1       21 0.15720301E+00 0.45641722E+03</pdfrwt>
<pdfrwt beam="2">  1       21 0.71644914E-02 0.45641722E+03</pdfrwt>
<totfact> 0.34496544E+04</totfact>
</mgrwt>
</event>
<event>
 7    0  0.4759581E-002  0.4501089E+03  0.7546771E-02  0.1027690E+00
         21   -1    0    0  502  501  0.00000000000E+00  0.00000000000E+00  0.69819948679E+02  0.69819948679E+02  0.00000000000E+00 0. -1.
         21   -1    0    0  501  502 -0.00000000000E+00 -0.00000000000E+00 -0.72543040017E+03  0.72543040017E+03  0.00000000000E+00 0. -1.
      99926    2    1    2    0    0  0.00000000000E+00  0.00000000000E+00 -0.65561045150E+03  0.79525034885E+03  0.45010893486E+03 0.  0.
      99925    2    3    3    0    0 -0.48600869510E+02  0.64110350303E+02 -0.54302667145E+03  0.60871671338E+03  0.26303210775E+03 0.  0.
         25    1    4    4    0    0 -0.57063524328E+02  0.33936731261E+02 -0.22911471998E+03  0.26934923528E+03  0.12509000000E+03 0.  0.
         25    1    3    3    0    0  0.48600869510E+02 -0.64110350303E+02 -0.11258378005E+03  0.18653363547E+03  0.12509000000E+03 0.  0.
         25    1    4    4    0    0  0.84626548187E+01  0.30173619042E+02 -0.31391195147E+03  0.33936747810E+03  0.12509000000E+03 0.  0.
<mgrwt>
<rscale>  2 0.45010893E+03</rscale>
<asrwt>0</asrwt>
<pdfrwt beam="1">  1       21 0.10267639E-01 0.45010893E+03</pdfrwt>
<pdfrwt beam="2">  1       21 0.10668095E+00 0.45010893E+03</pdfrwt>
<totfact> 0.49882809E+04</totfact>
</mgrwt>
</event>
<event>
 7    0  0.4759581E-002  0.4367114E+03  0.7546771E-02  0.1031761E+00
         21   -1    0    0  502  501  0.00000000000E+00  0.00000000000E+00  0.55829294512E+02  0.55829294512E+02  0.00000000000E+00 0.  1.
         21   -1    0    0  501  502 -0.00000000000E+00 -0.00000000000E+00 -0.85401780486E+03  0.85401780486E+03  0.00000000000E+00 0.  1.
      99926    2    1    2    0    0  0.14210854715E-13  0.00000000000E+00 -0.79818851034E+03  0.90984709937E+03  0.43671139919E+03 0.  0.
      99925    2    3    3    0    0  0.87016229213E+02  0.33058917591E+02 -0.47028123918E+03  0.54675564703E+03  0.26289271092E+03 0.  0.
         25    1    3    3    0    0 -0.87016229213E+02 -0.33058917591E+02 -0.32790727117E+03  0.36309145234E+03  0.12509000000E+03 0.  0.
         25    1    4    4    0    0  0.75655864265E+02  0.29952384941E+02 -0.20867481916E+03  0.25654169917E+03  0.12509000000E+03 0.  0.
         25    1    4    4    0    0  0.11360364947E+02  0.31065326504E+01 -0.26160642002E+03  0.29021394786E+03  0.12509000000E+03 0.  0.
<mgrwt>
<rscale>  2 0.43671140E+03</rscale>
<asrwt>0</asrwt>
<pdfrwt beam="1">  1       21 0.82101904E-02 0.43671140E+03</pdfrwt>
<pdfrwt beam="2">  1       21 0.12559085E+00 0.43671140E+03</pdfrwt>
<totfact> 0.49526316E+04</totfact>
</mgrwt>
</event>
<event>
 7    0  0.4759581E-002  0.4571607E+03  0.7546771E-02  0.1025608E+00
         21   -1    0    0  502  501  0.00000000000E+00  0.00000000000E+00  0.52204992825E+02  0.52204992825E+02  0.00000000000E+00 0. -1.
         21   -1    0    0  501  502 -0.00000000000E+00 -0.00000000000E+00 -0.10008425434E+04  0.10008425434E+04  0.00000000000E+00 0. -1.
      99926    2    1    2    0    0  0.00000000000E+00  0.00000000000E+00 -0.94863755059E+03  0.10530475362E+04  0.45716070609E+03 0.  0.
      99925    2    3    3    0    0  0.22544474265E+02  0.69689428073E+02 -0.38967417538E+03  0.47559413325E+03  0.26263843381E+03 0.  0.
         25    1    3    3    0    0 -0.22544474265E+02 -0.69689428073E+02 -0.55896337521E+03  0.57745340300E+03  0.12509000000E+03 0.  0.
         25    1    4    4    0    0  0.50706950538E+01  0.75299329289E+02 -0.21643728003E+03  0.26112890538E+03  0.12509000000E+03 0.  0.
         25    1    4    4    0    0  0.17473779212E+02 -0.56099012163E+01 -0.17323689535E+03  0.21446522787E+03  0.12509000000E+03 0.  0.
<mgrwt>
<rscale>  2 0.45716071E+03</rscale>
<asrwt>0</asrwt>
<pdfrwt beam="1">  1       21 0.76772055E-02 0.45716071E+03</pdfrwt>
<pdfrwt beam="2">  1       21 0.14718272E+00 0.45716071E+03</pdfrwt>
<totfact> 0.36545546E+04</totfact>
</mgrwt>
</event>
<event>
 7    0  0.4759581E-002  0.4627096E+03  0.7546771E-02  0.1023998E+00
         21   -1    0    0  502  501  0.00000000000E+00  0.00000000000E+00  0.21164675966E+03  0.21164675966E+03  0.00000000000E+00 0. -1.
         21   -1    0    0  501  502 -0.00000000000E+00 -0.00000000000E+00 -0.25289796948E+03  0.25289796948E+03  0.00000000000E+00 0. -1.
      99926    2    1    2    0    0  0.00000000000E+00  0.00000000000E+00 -0.41251209822E+02  0.46454472914E+03  0.46270956664E+03 0.  0.
      99925    2    3    3    0    0 -0.10590226932E+03 -0.15047595869E+02  0.29272498542E+02  0.28548378328E+03  0.26306347249E+03 0.  0.
         25    1    4    4    0    0 -0.79560209100E+02 -0.13689819121E+02 -0.16289072763E+02  0.14976675202E+03  0.12509000000E+03 0.  0.
         25    1    3    3    0    0  0.10590226932E+03  0.15047595869E+02 -0.70523708364E+02  0.17906094585E+03  0.12509000000E+03 0.  0.
         25    1    4    4    0    0 -0.26342060222E+02 -0.13577767487E+01  0.45561571304E+02  0.13571703126E+03  0.12509000000E+03 0.  0.
<mgrwt>
<rscale>  2 0.46270957E+03</rscale>
<asrwt>0</asrwt>
<pdfrwt beam="1">  1       21 0.31124524E-01 0.46270957E+03</pdfrwt>
<pdfrwt beam="2">  1       21 0.37190877E-01 0.46270957E+03</pdfrwt>
<totfact> 0.63834287E+04</totfact>
</mgrwt>
</event>
<event>
 7    0  0.4759581E-002  0.4611187E+03  0.7546771E-02  0.1024457E+00
         21   -1    0    0  502  501  0.00000000000E+00  0.00000000000E+00  0.18734431413E+03  0.18734431413E+03  0.00000000000E+00 0. -1.
         21   -1    0    0  501  502 -0.00000000000E+00 -0.00000000000E+00 -0.28374282635E+03  0.28374282635E+03  0.00000000000E+00 0. -1.
      99926    2    1    2    0    0  0.00000000000E+00  0.00000000000E+00 -0.96398512214E+02  0.47108714048E+03  0.46111866235E+03 0.  0.
      99925    2    3    3    0    0 -0.33882896804E+02  0.70207766999E+02 -0.15183898099E+03  0.31361226972E+03  0.26309769731E+03 0.  0.
         25    1    3    3    0    0  0.33882896804E+02 -0.70207766999E+02  0.55440468778E+02  0.15747487076E+03  0.12509000000E+03 0.  0.
         25    1    4    4    0    0 -0.56492288813E+02  0.35964141406E+02 -0.66295559952E+02  0.15661228410E+03  0.12509000000E+03 0.  0.
         25    1    4    4    0    0  0.22609392009E+02  0.34243625594E+02 -0.85543421040E+02  0.15699998562E+03  0.12509000000E+03 0.  0.
<mgrwt>
<rscale>  2 0.46111866E+03</rscale>
<asrwt>0</asrwt>
<pdfrwt beam="1">  1       21 0.27550635E-01 0.46111866E+03</pdfrwt>
<pdfrwt beam="2">  1       21 0.41726886E-01 0.46111866E+03</pdfrwt>
<totfact> 0.64181883E+04</totfact>
</mgrwt>
</event>
<event>
 7    0  0.4759581E-002  0.4444623E+03  0.7546771E-02  0.1029386E+00
         21   -1    0    0  502  501  0.00000000000E+00  0.00000000000E+00  0.78627522243E+03  0.78627522243E+03  0.00000000000E+00 0. -1.
         21   -1    0    0  501  502 -0.00000000000E+00 -0.00000000000E+00 -0.62810944686E+02  0.62810944686E+02  0.00000000000E+00 0. -1.
      99926    2    1    2    0    0  0.00000000000E+00  0.00000000000E+00  0.72346427775E+03  0.84908616712E+03  0.44446232463E+03 0.  0.
      99925    2    3    3    0    0 -0.75974630937E+02 -0.16947352357E+02  0.33099654281E+03  0.42987525557E+03  0.26301077297E+03 0.  0.
         25    1    3    3    0    0  0.75974630937E+02  0.16947352357E+02  0.39246773494E+03  0.41921091155E+03  0.12509000000E+03 0.  0.
         25    1    4    4    0    0 -0.59211373686E+01  0.16465757297E+02  0.16894775363E+03  0.21094319754E+03  0.12509000000E+03 0.  0.
         25    1    4    4    0    0 -0.70053493568E+02 -0.33413109654E+02  0.16204878918E+03  0.21893205803E+03  0.12509000000E+03 0.  0.
<mgrwt>
<rscale>  2 0.44446232E+03</rscale>
<asrwt>0</asrwt>
<pdfrwt beam="1">  1       21 0.11562870E+00 0.44446232E+03</pdfrwt>
<pdfrwt beam="2">  1       21 0.92369041E-02 0.44446232E+03</pdfrwt>
<totfact> 0.49442322E+04</totfact>
</mgrwt>
</event>
<event>
 7    0  0.4759581E-002  0.4545722E+03  0.7546771E-02  0.1026367E+00
         21   -1    0    0  502  501  0.00000000000E+00  0.00000000000E+00  0.29430623163E+03  0.29430623163E+03  0.00000000000E+00 0.  1.
         21   -1    0    0  501  502 -0.00000000000E+00 -0.00000000000E+00 -0.17552797944E+03  0.17552797944E+03  0.00000000000E+00 0.  1.
      99926    2    1    2    0    0 -0.35527136788E-14 -0.71054273576E-14  0.11877825219E+03  0.46983421108E+03  0.45457223046E+03 0.  0.
      99925    2    3    3    0    0  0.18043537453E+02  0.43725873368E+02  0.18059041939E+03  0.32250541769E+03  0.26298160319E+03 0.  0.
         25    1    4    4    0    0  0.23314611915E+02  0.17004136122E+02  0.13580352827E+03  0.18687647836E+03  0.12509000000E+03 0.  0.
         25    1    3    3    0    0 -0.18043537453E+02 -0.43725873368E+02 -0.61812167205E+02  0.14732879338E+03  0.12509000000E+03 0.  0.
         25    1    4    4    0    0 -0.52710744623E+01  0.26721737245E+02  0.44786891126E+02  0.13562893933E+03  0.12509000000E+03 0.  0.
<mgrwt>
<rscale>  2 0.45457223E+03</rscale>
<asrwt>0</asrwt>
<pdfrwt beam="1">  1       21 0.43280328E-01 0.45457223E+03</pdfrwt>
<pdfrwt beam="2">  1       21 0.25812938E-01 0.45457223E+03</pdfrwt>
<totfact> 0.67677418E+04</totfact>
</mgrwt>
</event>
<event>
 7    0  0.4759581E-002  0.4563194E+03  0.7546771E-02  0.1025854E+00
         21   -1    0    0  502  501  0.00000000000E+00  0.00000000000E+00  0.14952529845E+03  0.14952529845E+03  0.00000000000E+00 0. -1.
         21   -1    0    0  501  502 -0.00000000000E+00 -0.00000000000E+00 -0.34814744611E+03  0.34814744611E+03  0.00000000000E+00 0. -1.
      99926    2    1    2    0    0  0.00000000000E+00  0.00000000000E+00 -0.19862214766E+03  0.49767274457E+03  0.45631940912E+03 0.  0.
      99925    2    3    3    0    0  0.94613308851E+02 -0.63791982473E+02 -0.11470437737E+03  0.30869974250E+03  0.26290177176E+03 0.  0.
         25    1    4    4    0    0  0.46850856757E+02 -0.64574733344E+02 -0.33503195798E+02  0.15210151608E+03  0.12509000000E+03 0.  0.
         25    1    4    4    0    0  0.47762452094E+02  0.78275087135E+00 -0.81201181572E+02  0.15659822642E+03  0.12509000000E+03 0.  0.
         25    1    3    3    0    0 -0.94613308851E+02  0.63791982473E+02 -0.83917770292E+02  0.18897300207E+03  0.12509000000E+03 0.  0.
<mgrwt>
<rscale>  2 0.45631941E+03</rscale>
<asrwt>0</asrwt>
<pdfrwt beam="1">  1       21 0.21989015E-01 0.45631941E+03</pdfrwt>
<pdfrwt beam="2">  1       21 0.51198153E-01 0.45631941E+03</pdfrwt>
<totfact> 0.64753577E+04</totfact>
</mgrwt>
</event>
<event>
 7    0  0.4759581E-002  0.4575666E+03  0.7546771E-02  0.1025489E+00
         21   -1    0    0  502  501  0.00000000000E+00  0.00000000000E+00  0.20825203012E+02  0.20825203012E+02  0.00000000000E+00 0.  1.
         21   -1    0    0  501  502 -0.00000000000E+00 -0.00000000000E+00 -0.25133876426E+04  0.25133876426E+04  0.00000000000E+00 0.  1.
      99926    2    1    2    0    0  0.00000000000E+00  0.00000000000E+00 -0.24925624395E+04  0.25342128456E+04  0.45756664173E+03 0.  0.
      99925    2    3    3    0    0  0.63990362052E+01 -0.45135400585E+02 -0.97662483386E+03  0.10124400358E+04  0.26298404510E+03 0.  0.
         25    1    3    3    0    0 -0.63990362052E+01  0.45135400585E+02 -0.15159376057E+04  0.15217728097E+04  0.12509000000E+03 0.  0.
         25    1    4    4    0    0  0.35521869444E+01 -0.15644517109E+02 -0.63559675617E+03  0.64798774179E+03  0.12509000000E+03 0.  0.
         25    1    4    4    0    0  0.28468492608E+01 -0.29490883476E+02 -0.34102807769E+03  0.36445229404E+03  0.12509000000E+03 0.  0.
<mgrwt>
<rscale>  2 0.45756664E+03</rscale>
<asrwt>0</asrwt>
<pdfrwt beam="1">  1       21 0.30625283E-02 0.45756664E+03</pdfrwt>
<pdfrwt beam="2">  1       21 0.36961602E+00 0.45756664E+03</pdfrwt>
<totfact> 0.66542457E+03</totfact>
</mgrwt>
</event>
<event>
 7    0  0.4759581E-002  0.4570610E+03  0.7546771E-02  0.1025637E+00
         21   -1    0    0  502  501  0.00000000000E+00  0.00000000000E+00  0.57670915108E+03  0.57670915108E+03  0.00000000000E+00 0.  1.
         21   -1    0    0  501  502 -0.00000000000E+00 -0.00000000000E+00 -0.90558986408E+02  0.90558986408E+02  0.00000000000E+00 0.  1.
      99926    2    1    2    0    0  0.35527136788E-14  0.00000000000E+00  0.48615016468E+03  0.66726813749E+03  0.45706102951E+03 0.  0.
      99925    2    3    3    0    0 -0.23117042136E+02  0.63240698053E+02  0.44175415046E+03  0.51843165774E+03  0.26285142338E+03 0.  0.
         25    1    3    3    0    0  0.23117042136E+02 -0.63240698053E+02  0.44396014220E+02  0.14883647976E+03  0.12509000000E+03 0.  0.
         25    1    4    4    0    0 -0.45138538444E+02  0.99560100209E+01  0.20633218487E+03  0.24567679663E+03  0.12509000000E+03 0.  0.
         25    1    4    4    0    0  0.22021496308E+02  0.53284688032E+02  0.23542196558E+03  0.27275486111E+03  0.12509000000E+03 0.  0.
<mgrwt>
<rscale>  2 0.45706103E+03</rscale>
<asrwt>0</asrwt>
<pdfrwt beam="1">  1       21 0.84810168E-01 0.45706103E+03</pdfrwt>
<pdfrwt beam="2">  1       21 0.13317498E-01 0.45706103E+03</pdfrwt>
<totfact> 0.53836170E+04</totfact>
</mgrwt>
</event>
<event>
 7    0  0.4759581E-002  0.4592841E+03  0.7546771E-02  0.1024989E+00
         21   -1    0    0  502  501  0.00000000000E+00  0.00000000000E+00  0.71585489187E+03  0.71585489187E+03  0.00000000000E+00 0. -1.
         21   -1    0    0  501  502 -0.00000000000E+00 -0.00000000000E+00 -0.73667822997E+02  0.73667822997E+02  0.00000000000E+00 0. -1.
      99926    2    1    2    0    0  0.00000000000E+00  0.00000000000E+00  0.64218706888E+03  0.78952271487E+03  0.45928410147E+03 0.  0.
      99925    2    3    3    0    0 -0.58645550886E+02 -0.71939179873E+02  0.52574504787E+03  0.59504701305E+03  0.26278992779E+03 0.  0.
         25    1    4    4    0    0  0.94147380370E+01 -0.27602627398E+02  0.26981770625E+03  0.29883046203E+03  0.12509000000E+03 0.  0.
         25    1    4    4    0    0 -0.68060288923E+02 -0.44336552475E+02  0.25592734162E+03  0.29621655103E+03  0.12509000000E+03 0.  0.
         25    1    3    3    0    0  0.58645550886E+02  0.71939179873E+02  0.11644202101E+03  0.19447570181E+03  0.12509000000E+03 0.  0.
<mgrwt>
<rscale>  2 0.45928410E+03</rscale>
<asrwt>0</asrwt>
<pdfrwt beam="1">  1       21 0.10527277E+00 0.45928410E+03</pdfrwt>
<pdfrwt beam="2">  1       21 0.10833504E-01 0.45928410E+03</pdfrwt>
<totfact> 0.46686127E+04</totfact>
</mgrwt>
</event>
<event>
 7    0  0.4759581E-002  0.4501121E+03  0.7546771E-02  0.1027689E+00
         21   -1    0    0  502  501  0.00000000000E+00  0.00000000000E+00  0.21409315077E+03  0.21409315077E+03  0.00000000000E+00 0.  1.
         21   -1    0    0  501  502 -0.00000000000E+00 -0.00000000000E+00 -0.23658027062E+03  0.23658027062E+03  0.00000000000E+00 0.  1.
      99926    2    1    2    0    0  0.35527136788E-14  0.00000000000E+00 -0.22487119857E+02  0.45067342139E+03  0.45011205515E+03 0.  0.
      99925    2    3    3    0    0 -0.26002214760E+02  0.10441322282E+03 -0.28327057063E+02  0.28556785141E+03  0.26299874396E+03 0.  0.
         25    1    3    3    0    0  0.26002214760E+02 -0.10441322282E+03  0.58399372055E+01  0.16510556998E+03  0.12509000000E+03 0.  0.
         25    1    4    4    0    0 -0.32307656656E+02  0.87187791527E+02 -0.31884702277E+02  0.15909003114E+03  0.12509000000E+03 0.  0.
         25    1    4    4    0    0  0.63054418959E+01  0.17225431291E+02  0.35576452147E+01  0.12647782027E+03  0.12509000000E+03 0.  0.
<mgrwt>
<rscale>  2 0.45011206E+03</rscale>
<asrwt>0</asrwt>
<pdfrwt beam="1">  1       21 0.31484287E-01 0.45011206E+03</pdfrwt>
<pdfrwt beam="2">  1       21 0.34791216E-01 0.45011206E+03</pdfrwt>
<totfact> 0.71616521E+04</totfact>
</mgrwt>
</event>
<event>
 7    0  0.4759581E-002  0.4513313E+03  0.7546771E-02  0.1027326E+00
         21   -1    0    0  502  501  0.00000000000E+00  0.00000000000E+00  0.18164763059E+04  0.18164763059E+04  0.00000000000E+00 0.  1.
         21   -1    0    0  501  502 -0.00000000000E+00 -0.00000000000E+00 -0.28035041287E+02  0.28035041287E+02  0.00000000000E+00 0.  1.
      99926    2    1    2    0    0  0.00000000000E+00  0.00000000000E+00  0.17884412646E+04  0.18445113472E+04  0.45133131172E+03 0.  0.
      99925    2    3    3    0    0  0.84636672237E+02  0.12995199557E+02  0.14092990814E+04  0.14361872789E+04  0.26301664954E+03 0.  0.
         25    1    4    4    0    0  0.74051432014E+02  0.34076761322E+02  0.75722531879E+03  0.77180472385E+03  0.12509000000E+03 0.  0.
         25    1    3    3    0    0 -0.84636672237E+02 -0.12995199557E+02  0.37914218328E+03  0.40832406828E+03  0.12509000000E+03 0.  0.
         25    1    4    4    0    0  0.10585240223E+02 -0.21081561765E+02  0.65207376259E+03  0.66438255509E+03  0.12509000000E+03 0.  0.
<mgrwt>
<rscale>  2 0.45133131E+03</rscale>
<asrwt>0</asrwt>
<pdfrwt beam="1">  1       21 0.26712879E+00 0.45133131E+03</pdfrwt>
<pdfrwt beam="2">  1       21 0.41228014E-02 0.45133131E+03</pdfrwt>
<totfact> 0.16894999E+04</totfact>
</mgrwt>
</event>
<event>
 7    0  0.4759581E-002  0.4459726E+03  0.7546771E-02  0.1028930E+00
         21   -1    0    0  502  501  0.00000000000E+00  0.00000000000E+00  0.48847101342E+02  0.48847101342E+02  0.00000000000E+00 0. -1.
         21   -1    0    0  501  502 -0.00000000000E+00 -0.00000000000E+00 -0.10179291172E+04  0.10179291172E+04  0.00000000000E+00 0. -1.
      99926    2    1    2    0    0  0.00000000000E+00 -0.17763568394E-14 -0.96908201581E+03  0.10667762185E+04  0.44597258545E+03 0.  0.
      99925    2    3    3    0    0  0.71336733867E+02  0.10624648883E+02 -0.43429552557E+03  0.51283947932E+03  0.26303975984E+03 0.  0.
         25    1    4    4    0    0  0.85503506534E+01 -0.18925110408E+02 -0.16713672667E+03  0.20979385549E+03  0.12509000000E+03 0.  0.
         25    1    4    4    0    0  0.62786383214E+02  0.29549759291E+02 -0.26715879890E+03  0.30304562383E+03  0.12509000000E+03 0.  0.
         25    1    3    3    0    0 -0.71336733867E+02 -0.10624648883E+02 -0.53478649025E+03  0.55393673918E+03  0.12509000000E+03 0.  0.
<mgrwt>
<rscale>  2 0.44597259E+03</rscale>
<asrwt>0</asrwt>
<pdfrwt beam="1">  1       21 0.71833981E-02 0.44597259E+03</pdfrwt>
<pdfrwt beam="2">  1       21 0.14969544E+00 0.44597259E+03</pdfrwt>
<totfact> 0.39368988E+04</totfact>
</mgrwt>
</event>
<event>
 7    0  0.4759581E-002  0.4640638E+03  0.7546771E-02  0.1023609E+00
         21   -1    0    0  502  501  0.00000000000E+00  0.00000000000E+00  0.13289109211E+03  0.13289109211E+03  0.00000000000E+00 0.  1.
         21   -1    0    0  501  502 -0.00000000000E+00 -0.00000000000E+00 -0.40513480518E+03  0.40513480518E+03  0.00000000000E+00 0.  1.
      99926    2    1    2    0    0  0.00000000000E+00  0.00000000000E+00 -0.27224371307E+03  0.53802589729E+03  0.46406381765E+03 0.  0.
      99925    2    3    3    0    0  0.93874740427E+02 -0.51528352600E+02 -0.23665678271E+03  0.36955757468E+03  0.26286637325E+03 0.  0.
         25    1    4    4    0    0  0.78386010285E+01 -0.18557990037E+02 -0.12701306999E+03  0.17940365300E+03  0.12509000000E+03 0.  0.
         25    1    3    3    0    0 -0.93874740427E+02  0.51528352600E+02 -0.35586930353E+02  0.16846832261E+03  0.12509000000E+03 0.  0.
         25    1    4    4    0    0  0.86036139399E+02 -0.32970362562E+02 -0.10964371272E+03  0.19015392168E+03  0.12509000000E+03 0.  0.
<mgrwt>
<rscale>  2 0.46406382E+03</rscale>
<asrwt>0</asrwt>
<pdfrwt beam="1">  1       21 0.19542808E-01 0.46406382E+03</pdfrwt>
<pdfrwt beam="2">  1       21 0.59578646E-01 0.46406382E+03</pdfrwt>
<totfact> 0.58360120E+04</totfact>
</mgrwt>
</event>
<event>
 7    0  0.4759581E-002  0.4526942E+03  0.7546771E-02  0.1026922E+00
         21   -1    0    0  502  501  0.00000000000E+00  0.00000000000E+00  0.77313338948E+02  0.77313338948E+02  0.00000000000E+00 0.  1.
         21   -1    0    0  501  502 -0.00000000000E+00 -0.00000000000E+00 -0.66266715158E+03  0.66266715158E+03  0.00000000000E+00 0.  1.
      99926    2    1    2    0    0 -0.71054273576E-14  0.00000000000E+00 -0.58535381263E+03  0.73998049053E+03  0.45269420186E+03 0.  0.
      99925    2    3    3    0    0  0.38048728171E+02 -0.70618782423E+02 -0.49447081558E+03  0.56579109533E+03  0.26302748516E+03 0.  0.
         25    1    4    4    0    0  0.16126737839E+02 -0.75194134826E+02 -0.24006903586E+03  0.28141584828E+03  0.12509000000E+03 0.  0.
         25    1    3    3    0    0 -0.38048728171E+02  0.70618782423E+02 -0.90882997054E+02  0.17418939520E+03  0.12509000000E+03 0.  0.
         25    1    4    4    0    0  0.21921990332E+02  0.45753524029E+01 -0.25440177972E+03  0.28437524705E+03  0.12509000000E+03 0.  0.
<mgrwt>
<rscale>  2 0.45269420E+03</rscale>
<asrwt>0</asrwt>
<pdfrwt beam="1">  1       21 0.11369608E-01 0.45269420E+03</pdfrwt>
<pdfrwt beam="2">  1       21 0.97451053E-01 0.45269420E+03</pdfrwt>
<totfact> 0.51716557E+04</totfact>
</mgrwt>
</event>
<event>
 7    0  0.4759581E-002  0.4533008E+03  0.7546771E-02  0.1026742E+00
         21   -1    0    0  502  501  0.00000000000E+00  0.00000000000E+00  0.12647106122E+03  0.12647106122E+03  0.00000000000E+00 0.  1.
         21   -1    0    0  501  502 -0.00000000000E+00 -0.00000000000E+00 -0.40618310075E+03  0.40618310075E+03  0.00000000000E+00 0.  1.
      99926    2    1    2    0    0  0.14210854715E-13 -0.71054273576E-14 -0.27971203953E+03  0.53265416197E+03  0.45330081757E+03 0.  0.
      99925    2    3    3    0    0 -0.98275523142E+02  0.50216747893E+02 -0.15866787481E+03  0.32654982400E+03  0.26320997861E+03 0.  0.
         25    1    3    3    0    0  0.98275523142E+02 -0.50216747893E+02 -0.12104416472E+03  0.20610433797E+03  0.12509000000E+03 0.  0.
         25    1    4    4    0    0 -0.51062590275E+02  0.13359855579E+02 -0.12334458923E+03  0.18343192105E+03  0.12509000000E+03 0.  0.
         25    1    4    4    0    0 -0.47212932868E+02  0.36856892313E+02 -0.35323285580E+02  0.14311790295E+03  0.12509000000E+03 0.  0.
<mgrwt>
<rscale>  2 0.45330082E+03</rscale>
<asrwt>0</asrwt>
<pdfrwt beam="1">  1       21 0.18598685E-01 0.45330082E+03</pdfrwt>
<pdfrwt beam="2">  1       21 0.59732809E-01 0.45330082E+03</pdfrwt>
<totfact> 0.63882367E+04</totfact>
</mgrwt>
</event>
<event>
 7    0  0.4759581E-002  0.4476213E+03  0.7546771E-02  0.1028434E+00
         21   -1    0    0  502  501  0.00000000000E+00  0.00000000000E+00  0.22934824980E+03  0.22934824980E+03  0.00000000000E+00 0.  1.
         21   -1    0    0  501  502 -0.00000000000E+00 -0.00000000000E+00 -0.21840671391E+03  0.21840671391E+03  0.00000000000E+00 0.  1.
      99926    2    1    2    0    0  0.00000000000E+00  0.00000000000E+00  0.10941535896E+02  0.44775496371E+03  0.44762125767E+03 0.  0.
      99925    2    3    3    0    0  0.67768444722E+02 -0.78402193580E+02 -0.16030889116E+02  0.28309019557E+03  0.26295171298E+03 0.  0.
         25    1    4    4    0    0  0.52104082545E+02 -0.45213557926E+02  0.27848835010E+02  0.14554094596E+03  0.12509000000E+03 0.  0.
         25    1    3    3    0    0 -0.67768444722E+02  0.78402193580E+02  0.26972425011E+02  0.16466476815E+03  0.12509000000E+03 0.  0.
         25    1    4    4    0    0  0.15664362177E+02 -0.33188635654E+02 -0.43879724126E+02  0.13754924961E+03  0.12509000000E+03 0.  0.
<mgrwt>
<rscale>  2 0.44762126E+03</rscale>
<asrwt>0</asrwt>
<pdfrwt beam="1">  1       21 0.33727684E-01 0.44762126E+03</pdfrwt>
<pdfrwt beam="2">  1       21 0.32118634E-01 0.44762126E+03</pdfrwt>
<totfact> 0.73301307E+04</totfact>
</mgrwt>
</event>
<event>
 7    0  0.4759581E-002  0.4586884E+03  0.7546771E-02  0.1025162E+00
         21   -1    0    0  502  501  0.00000000000E+00  0.00000000000E+00  0.56990103964E+03  0.56990103964E+03  0.00000000000E+00 0. -1.
         21   -1    0    0  501  502 -0.00000000000E+00 -0.00000000000E+00 -0.92294550197E+02  0.92294550197E+02  0.00000000000E+00 0. -1.
      99926    2    1    2    0    0  0.00000000000E+00 -0.16653345369E-15  0.47760648945E+03  0.66219558984E+03  0.45868839144E+03 0.  0.
      99925    2    3    3    0    0 -0.42509888064E+02  0.16951409580E+00  0.14269008286E+03  0.30216277630E+03  0.26293490510E+03 0.  0.
         25    1    3    3    0    0  0.42509888064E+02 -0.16951409580E+00  0.33491640659E+03  0.36003281354E+03  0.12509000000E+03 0.  0.
         25    1    4    4    0    0 -0.61439806936E+02  0.24214333191E+01  0.83350729903E+02  0.16240555868E+03  0.12509000000E+03 0.  0.
         25    1    4    4    0    0  0.18929918871E+02 -0.22519192233E+01  0.59339352953E+02  0.13975721762E+03  0.12509000000E+03 0.  0.
<mgrwt>
<rscale>  2 0.45868839E+03</rscale>
<asrwt>0</asrwt>
<pdfrwt beam="1">  1       21 0.83808975E-01 0.45868839E+03</pdfrwt>
<pdfrwt beam="2">  1       21 0.13572728E-01 0.45868839E+03</pdfrwt>
<totfact> 0.53432591E+04</totfact>
</mgrwt>
</event>
<event>
 6    0  0.4759581E-002  0.4621214E+03  0.7546771E-02  0.1024168E+00
         21   -1    0    0  502  501  0.00000000000E+00  0.00000000000E+00  0.36396083893E+03  0.36396083893E+03  0.00000000000E+00 0. -1.
         21   -1    0    0  501  502 -0.00000000000E+00 -0.00000000000E+00 -0.14668898342E+03  0.14668898342E+03  0.00000000000E+00 0. -1.
      99926    2    1    2    0    0  0.35527136788E-14  0.00000000000E+00  0.21727185551E+03  0.51064982234E+03  0.46212139299E+03 0.  0.
         25    1    3    3    0    0  0.21628875976E+02  0.81396661980E+02  0.75467646011E+02  0.16863006420E+03  0.12509000000E+03 0.  0.
         25    1    3    3    0    0  0.14491393576E+02 -0.11782964784E+03  0.53616664787E+02  0.18059922824E+03  0.12509000000E+03 0.  0.
         25    1    3    3    0    0 -0.36120269551E+02  0.36432985864E+02  0.88187544709E+02  0.16142052990E+03  0.12509000000E+03 0.  0.
<mgrwt>
<rscale>  2 0.46212139E+03</rscale>
<asrwt>0</asrwt>
<pdfrwt beam="1">  1       21 0.53523653E-01 0.46212139E+03</pdfrwt>
<pdfrwt beam="2">  1       21 0.21571909E-01 0.46212139E+03</pdfrwt>
<totfact> 0.61006902E+04</totfact>
</mgrwt>
</event>
<event>
 7    0  0.4759581E-002  0.4620417E+03  0.7546771E-02  0.1024191E+00
         21   -1    0    0  502  501  0.00000000000E+00  0.00000000000E+00  0.36247786035E+02  0.36247786035E+02  0.00000000000E+00 0.  1.
         21   -1    0    0  501  502 -0.00000000000E+00 -0.00000000000E+00 -0.14723832683E+04  0.14723832683E+04  0.00000000000E+00 0.  1.
      99926    2    1    2    0    0  0.00000000000E+00  0.00000000000E+00 -0.14361354823E+04  0.15086310543E+04  0.46204170232E+03 0.  0.
      99925    2    3    3    0    0 -0.41750803738E+02  0.10373125862E+03 -0.75620085959E+03  0.80830120145E+03  0.26269333565E+03 0.  0.
         25    1    4    4    0    0 -0.30060637348E+02  0.93115323946E+02 -0.39521914997E+03  0.42593402080E+03  0.12509000000E+03 0.  0.
         25    1    3    3    0    0  0.41750803738E+02 -0.10373125862E+03 -0.67993462268E+03  0.70032985289E+03  0.12509000000E+03 0.  0.
         25    1    4    4    0    0 -0.11690166390E+02  0.10615934672E+02 -0.36098170962E+03  0.38236718065E+03  0.12509000000E+03 0.  0.
<mgrwt>
<rscale>  2 0.46204170E+03</rscale>
<asrwt>0</asrwt>
<pdfrwt beam="1">  1       21 0.53305577E-02 0.46204170E+03</pdfrwt>
<pdfrwt beam="2">  1       21 0.21652691E+00 0.46204170E+03</pdfrwt>
<totfact> 0.22322315E+04</totfact>
</mgrwt>
</event>
<event>
 7    0  0.4759581E-002  0.4506352E+03  0.7546771E-02  0.1027533E+00
         21   -1    0    0  502  501  0.00000000000E+00  0.00000000000E+00  0.18650375412E+03  0.18650375412E+03  0.00000000000E+00 0.  1.
         21   -1    0    0  501  502 -0.00000000000E+00 -0.00000000000E+00 -0.27220916643E+03  0.27220916643E+03  0.00000000000E+00 0.  1.
      99926    2    1    2    0    0  0.71054273576E-14 -0.14210854715E-13 -0.85705412316E+02  0.45871292055E+03  0.45063524693E+03 0.  0.
      99925    2    3    3    0    0 -0.54166910417E+02  0.94258256088E+02 -0.46639630681E+02  0.28844161815E+03  0.26306774585E+03 0.  0.
         25    1    4    4    0    0 -0.46105192068E+02  0.46075164430E+02  0.12700409814E+02  0.14162421411E+03  0.12509000000E+03 0.  0.
         25    1    3    3    0    0  0.54166910417E+02 -0.94258256088E+02 -0.39065781635E+02  0.17027130240E+03  0.12509000000E+03 0.  0.
         25    1    4    4    0    0 -0.80617183485E+01  0.48183091658E+02 -0.59340040496E+02  0.14681740404E+03  0.12509000000E+03 0.  0.
<mgrwt>
<rscale>  2 0.45063525E+03</rscale>
<asrwt>0</asrwt>
<pdfrwt beam="1">  1       21 0.27427023E-01 0.45063525E+03</pdfrwt>
<pdfrwt beam="2">  1       21 0.40030760E-01 0.45063525E+03</pdfrwt>
<totfact> 0.70700867E+04</totfact>
</mgrwt>
</event>
<event>
 7    0  0.4759581E-002  0.4668428E+03  0.7546771E-02  0.1022815E+00
         21   -1    0    0  502  501  0.00000000000E+00  0.00000000000E+00  0.59618885629E+03  0.59618885629E+03  0.00000000000E+00 0.  1.
         21   -1    0    0  501  502 -0.00000000000E+00 -0.00000000000E+00 -0.91389734176E+02  0.91389734176E+02  0.00000000000E+00 0.  1.
      99926    2    1    2    0    0  0.00000000000E+00  0.00000000000E+00  0.50479912211E+03  0.68757859046E+03  0.46684276194E+03 0.  0.
      99925    2    3    3    0    0 -0.96347303039E+02 -0.76115986950E+02  0.28992410543E+03  0.41027870376E+03  0.26305167093E+03 0.  0.
         25    1    4    4    0    0 -0.58123130044E+02 -0.22958858740E+01  0.16379978431E+03  0.21415285844E+03  0.12509000000E+03 0.  0.
         25    1    3    3    0    0  0.96347303039E+02  0.76115986950E+02  0.21487501668E+03  0.27729988670E+03  0.12509000000E+03 0.  0.
         25    1    4    4    0    0 -0.38224172995E+02 -0.73820101076E+02  0.12612432112E+03  0.19612584532E+03  0.12509000000E+03 0.  0.
<mgrwt>
<rscale>  2 0.46684276E+03</rscale>
<asrwt>0</asrwt>
<pdfrwt beam="1">  1       21 0.87674830E-01 0.46684276E+03</pdfrwt>
<pdfrwt beam="2">  1       21 0.13439667E-01 0.46684276E+03</pdfrwt>
<totfact> 0.48862328E+04</totfact>
</mgrwt>
</event>
<event>
 7    0  0.4759581E-002  0.4595269E+03  0.7546771E-02  0.1024919E+00
         21   -1    0    0  502  501  0.00000000000E+00  0.00000000000E+00  0.52113190729E+02  0.52113190729E+02  0.00000000000E+00 0. -1.
         21   -1    0    0  501  502 -0.00000000000E+00 -0.00000000000E+00 -0.10130109708E+04  0.10130109708E+04  0.00000000000E+00 0. -1.
      99926    2    1    2    0    0  0.00000000000E+00  0.00000000000E+00 -0.96089778005E+03  0.10651241615E+04  0.45952686072E+03 0.  0.
      99925    2    3    3    0    0  0.49796093699E+02 -0.31840015358E+02 -0.83711153273E+03  0.87947939145E+03  0.26312514935E+03 0.  0.
         25    1    4    4    0    0  0.17853260860E+02 -0.56124517561E+02 -0.43790872160E+03  0.45921700421E+03  0.12509000000E+03 0.  0.
         25    1    4    4    0    0  0.31942832839E+02  0.24284502202E+02 -0.39920281113E+03  0.42026238724E+03  0.12509000000E+03 0.  0.
         25    1    3    3    0    0 -0.49796093699E+02  0.31840015358E+02 -0.12378624731E+03  0.18564477006E+03  0.12509000000E+03 0.  0.
<mgrwt>
<rscale>  2 0.45952686E+03</rscale>
<asrwt>0</asrwt>
<pdfrwt beam="1">  1       21 0.76637047E-02 0.45952686E+03</pdfrwt>
<pdfrwt beam="2">  1       21 0.14897220E+00 0.45952686E+03</pdfrwt>
<totfact> 0.35457976E+04</totfact>
</mgrwt>
</event>
<event>
 7    0  0.4759581E-002  0.4557803E+03  0.7546771E-02  0.1026012E+00
         21   -1    0    0  502  501  0.00000000000E+00  0.00000000000E+00  0.12165517741E+04  0.12165517741E+04  0.00000000000E+00 0.  1.
         21   -1    0    0  501  502 -0.00000000000E+00 -0.00000000000E+00 -0.42689449637E+02  0.42689449637E+02  0.00000000000E+00 0.  1.
      99926    2    1    2    0    0 -0.71054273576E-14  0.17763568394E-14  0.11738623245E+04  0.12592412238E+04  0.45578032293E+03 0.  0.
      99925    2    3    3    0    0  0.60717786350E+02  0.15382001040E+02  0.10009718286E+04  0.10368409378E+04  0.26300432139E+03 0.  0.
         25    1    4    4    0    0  0.54787729063E+02  0.35651038094E+02  0.45842153975E+03  0.47965665635E+03  0.12509000000E+03 0.  0.
         25    1    3    3    0    0 -0.60717786350E+02 -0.15382001040E+02  0.17289049587E+03  0.22240028597E+03  0.12509000000E+03 0.  0.
         25    1    4    4    0    0  0.59300572870E+01 -0.20269037054E+02  0.54255028889E+03  0.55718428147E+03  0.12509000000E+03 0.  0.
<mgrwt>
<rscale>  2 0.45578032E+03</rscale>
<asrwt>0</asrwt>
<pdfrwt beam="1">  1       21 0.17890465E+00 0.45578032E+03</pdfrwt>
<pdfrwt beam="2">  1       21 0.62778610E-02 0.45578032E+03</pdfrwt>
<totfact> 0.30138288E+04</totfact>
</mgrwt>
</event>
<event>
 7    0  0.4759581E-002  0.4499393E+03  0.7546771E-02  0.1027740E+00
         21   -1    0    0  502  501  0.00000000000E+00  0.00000000000E+00  0.15322211643E+03  0.15322211643E+03  0.00000000000E+00 0.  1.
         21   -1    0    0  501  502 -0.00000000000E+00 -0.00000000000E+00 -0.33031357525E+03  0.33031357525E+03  0.00000000000E+00 0.  1.
      99926    2    1    2    0    0  0.00000000000E+00 -0.35527136788E-14 -0.17709145882E+03  0.48353569168E+03  0.44993930740E+03 0.  0.
      99925    2    3    3    0    0  0.21577011147E+02  0.30936129321E+02 -0.22094230347E+03  0.34572053945E+03  0.26321963914E+03 0.  0.
         25    1    3    3    0    0 -0.21577011147E+02 -0.30936129321E+02  0.43850844650E+02  0.13781515223E+03  0.12509000000E+03 0.  0.
         25    1    4    4    0    0  0.13457194556E+02  0.42007042128E+02 -0.72658650989E+02  0.15123648811E+03  0.12509000000E+03 0.  0.
         25    1    4    4    0    0  0.81198165906E+01 -0.11070912807E+02 -0.14828365248E+03  0.19448405134E+03  0.12509000000E+03 0.  0.
<mgrwt>
<rscale>  2 0.44993931E+03</rscale>
<asrwt>0</asrwt>
<pdfrwt beam="1">  1       21 0.22532665E-01 0.44993931E+03</pdfrwt>
<pdfrwt beam="2">  1       21 0.48575525E-01 0.44993931E+03</pdfrwt>
<totfact> 0.69181438E+04</totfact>
</mgrwt>
</event>
<event>
 7    0  0.4759581E-002  0.4496176E+03  0.7546771E-02  0.1027836E+00
         21   -1    0    0  502  501  0.00000000000E+00  0.00000000000E+00  0.17402356507E+03  0.17402356507E+03  0.00000000000E+00 0.  1.
         21   -1    0    0  501  502 -0.00000000000E+00 -0.00000000000E+00 -0.29041461045E+03  0.29041461045E+03  0.00000000000E+00 0.  1.
      99926    2    1    2    0    0  0.00000000000E+00  0.00000000000E+00 -0.11639104538E+03  0.46443817552E+03  0.44961755241E+03 0.  0.
      99925    2    3    3    0    0 -0.62325652268E+02  0.77824731940E+02 -0.30752069762E+02  0.28299199045E+03  0.26305436896E+03 0.  0.
         25    1    4    4    0    0 -0.46627007643E+02  0.98775967967E+01 -0.39326799437E+02  0.13951971192E+03  0.12509000000E+03 0.  0.
         25    1    3    3    0    0  0.62325652268E+02 -0.77824731940E+02 -0.85638975615E+02  0.18144618507E+03  0.12509000000E+03 0.  0.
         25    1    4    4    0    0 -0.15698644625E+02  0.67947135143E+02  0.85747296749E+01  0.14347227853E+03  0.12509000000E+03 0.  0.
<mgrwt>
<rscale>  2 0.44961755E+03</rscale>
<asrwt>0</asrwt>
<pdfrwt beam="1">  1       21 0.25591701E-01 0.44961755E+03</pdfrwt>
<pdfrwt beam="2">  1       21 0.42708030E-01 0.44961755E+03</pdfrwt>
<totfact> 0.70827817E+04</totfact>
</mgrwt>
</event>
<event>
 7    0  0.4759581E-002  0.4810579E+03  0.7546771E-02  0.1018845E+00
         21   -1    0    0  502  501  0.00000000000E+00  0.00000000000E+00  0.40870529573E+02  0.40870529573E+02  0.00000000000E+00 0. -1.
         21   -1    0    0  501  502 -0.00000000000E+00 -0.00000000000E+00 -0.14155476981E+04  0.14155476981E+04  0.00000000000E+00 0. -1.
      99926    2    1    2    0    0  0.00000000000E+00 -0.17763568394E-14 -0.13746771685E+04  0.14564182277E+04  0.48105793437E+03 0.  0.
      99925    2    3    3    0    0  0.13342721397E+03  0.15366124235E+02 -0.91532327670E+03  0.96175425563E+03  0.26289847498E+03 0.  0.
         25    1    4    4    0    0  0.28255783510E+02  0.14095924426E+02 -0.47011442578E+03  0.48749581107E+03  0.12509000000E+03 0.  0.
         25    1    3    3    0    0 -0.13342721397E+03 -0.15366124235E+02 -0.45935389181E+03  0.49466397202E+03  0.12509000000E+03 0.  0.
         25    1    4    4    0    0  0.10517143046E+03  0.12701998092E+01 -0.44520885092E+03  0.47425844455E+03  0.12509000000E+03 0.  0.
<mgrwt>
<rscale>  2 0.48105793E+03</rscale>
<asrwt>0</asrwt>
<pdfrwt beam="1">  1       21 0.60103728E-02 0.48105793E+03</pdfrwt>
<pdfrwt beam="2">  1       21 0.20816875E+00 0.48105793E+03</pdfrwt>
<totfact> 0.20410878E+04</totfact>
</mgrwt>
</event>
<event>
 7    0  0.4759581E-002  0.4470749E+03  0.7546771E-02  0.1028598E+00
         21   -1    0    0  502  501  0.00000000000E+00  0.00000000000E+00  0.14585253369E+03  0.14585253369E+03  0.00000000000E+00 0. -1.
         21   -1    0    0  501  502 -0.00000000000E+00 -0.00000000000E+00 -0.34259934256E+03  0.34259934256E+03  0.00000000000E+00 0. -1.
      99926    2    1    2    0    0  0.00000000000E+00  0.00000000000E+00 -0.19674680886E+03  0.48845187625E+03  0.44707485795E+03 0.  0.
      99925    2    3    3    0    0  0.21295912338E+02  0.45526946592E+02 -0.23336599187E+02  0.26880482376E+03  0.26303083025E+03 0.  0.
         25    1    3    3    0    0 -0.21295912338E+02 -0.45526946592E+02 -0.17341020968E+03  0.21964705249E+03  0.12509000000E+03 0.  0.
         25    1    4    4    0    0  0.23265345492E+02  0.55775941850E+01  0.23241083929E+02  0.12946058064E+03  0.12509000000E+03 0.  0.
         25    1    4    4    0    0 -0.19694331544E+01  0.39949352407E+02 -0.46577683116E+02  0.13934424311E+03  0.12509000000E+03 0.  0.
<mgrwt>
<rscale>  2 0.44707486E+03</rscale>
<asrwt>0</asrwt>
<pdfrwt beam="1">  1       21 0.21448902E-01 0.44707486E+03</pdfrwt>
<pdfrwt beam="2">  1       21 0.50382256E-01 0.44707486E+03</pdfrwt>
<totfact> 0.70416887E+04</totfact>
</mgrwt>
</event>
<event>
 7    0  0.4759581E-002  0.4511567E+03  0.7546771E-02  0.1027378E+00
         21   -1    0    0  502  501  0.00000000000E+00  0.00000000000E+00  0.59211895553E+02  0.59211895553E+02  0.00000000000E+00 0. -1.
         21   -1    0    0  501  502 -0.00000000000E+00 -0.00000000000E+00 -0.85938105575E+03  0.85938105575E+03  0.00000000000E+00 0. -1.
      99926    2    1    2    0    0  0.00000000000E+00  0.00000000000E+00 -0.80016916020E+03  0.91859295130E+03  0.45115665268E+03 0.  0.
      99925    2    3    3    0    0 -0.67027161964E+02 -0.86027131029E+02 -0.48451110305E+03  0.56196874453E+03  0.26299154575E+03 0.  0.
         25    1    4    4    0    0 -0.45540816400E+02 -0.29572301252E+02 -0.31187125098E+03  0.34038165675E+03  0.12509000000E+03 0.  0.
         25    1    4    4    0    0 -0.21486345564E+02 -0.56454829777E+02 -0.17263985206E+03  0.22158708778E+03  0.12509000000E+03 0.  0.
         25    1    3    3    0    0  0.67027161964E+02  0.86027131029E+02 -0.31565805715E+03  0.35662420678E+03  0.12509000000E+03 0.  0.
<mgrwt>
<rscale>  2 0.45115665E+03</rscale>
<asrwt>0</asrwt>
<pdfrwt beam="1">  1       21 0.87076314E-02 0.45115665E+03</pdfrwt>
<pdfrwt beam="2">  1       21 0.12637957E+00 0.45115665E+03</pdfrwt>
<totfact> 0.43739799E+04</totfact>
</mgrwt>
</event>
<event>
 7    0  0.4759581E-002  0.4604340E+03  0.7546771E-02  0.1024655E+00
         21   -1    0    0  502  501  0.00000000000E+00  0.00000000000E+00  0.22491976213E+02  0.22491976213E+02  0.00000000000E+00 0. -1.
         21   -1    0    0  501  502 -0.00000000000E+00 -0.00000000000E+00 -0.23563897528E+04  0.23563897528E+04  0.00000000000E+00 0. -1.
      99926    2    1    2    0    0  0.00000000000E+00  0.00000000000E+00 -0.23338977766E+04  0.23788817291E+04  0.46043397907E+03 0.  0.
      99925    2    3    3    0    0  0.42127830052E+02  0.97368966708E+02 -0.11926396766E+04  0.12258973282E+04  0.26301975445E+03 0.  0.
         25    1    4    4    0    0  0.29684316688E+02  0.47687962409E+02 -0.42883667777E+03  0.45022628168E+03  0.12509000000E+03 0.  0.
         25    1    3    3    0    0 -0.42127830052E+02 -0.97368966708E+02 -0.11412581000E+04  0.11529844009E+04  0.12509000000E+03 0.  0.
         25    1    4    4    0    0  0.12443513364E+02  0.49681004299E+02 -0.76380299885E+03  0.77567104649E+03  0.12509000000E+03 0.  0.
<mgrwt>
<rscale>  2 0.46043398E+03</rscale>
<asrwt>0</asrwt>
<pdfrwt beam="1">  1       21 0.33076433E-02 0.46043398E+03</pdfrwt>
<pdfrwt beam="2">  1       21 0.34652793E+00 0.46043398E+03</pdfrwt>
<totfact> 0.81040247E+03</totfact>
</mgrwt>
</event>
<event>
 7    0  0.4759581E-002  0.4593313E+03  0.7546771E-02  0.1024975E+00
         21   -1    0    0  502  501  0.00000000000E+00  0.00000000000E+00  0.20194729398E+03  0.20194729398E+03  0.00000000000E+00 0.  1.
         21   -1    0    0  501  502 -0.00000000000E+00 -0.00000000000E+00 -0.26118850576E+03  0.26118850576E+03  0.00000000000E+00 0.  1.
      99926    2    1    2    0    0 -0.44408920985E-15  0.14210854715E-13 -0.59241211776E+02  0.46313579974E+03  0.45933130508E+03 0.  0.
      99925    2    3    3    0    0  0.26306805599E+01  0.11621746053E+03 -0.52378581407E+02  0.29223225265E+03  0.26295009999E+03 0.  0.
         25    1    3    3    0    0 -0.26306805599E+01 -0.11621746053E+03 -0.68626303696E+01  0.17090354709E+03  0.12509000000E+03 0.  0.
         25    1    4    4    0    0 -0.11945094023E+02  0.97973134333E+02 -0.40645789216E+02  0.16444150511E+03  0.12509000000E+03 0.  0.
         25    1    4    4    0    0  0.14575774583E+02  0.18244326199E+02 -0.11732792190E+02  0.12779074754E+03  0.12509000000E+03 0.  0.
<mgrwt>
<rscale>  2 0.45933131E+03</rscale>
<asrwt>0</asrwt>
<pdfrwt beam="1">  1       21 0.29698132E-01 0.45933131E+03</pdfrwt>
<pdfrwt beam="2">  1       21 0.38410074E-01 0.45933131E+03</pdfrwt>
<totfact> 0.65655309E+04</totfact>
</mgrwt>
</event>
<event>
 7    0  0.4759581E-002  0.4530624E+03  0.7546771E-02  0.1026813E+00
         21   -1    0    0  502  501  0.00000000000E+00  0.00000000000E+00  0.42891093887E+03  0.42891093887E+03  0.00000000000E+00 0.  1.
         21   -1    0    0  501  502 -0.00000000000E+00 -0.00000000000E+00 -0.11964342965E+03  0.11964342965E+03  0.00000000000E+00 0.  1.
      99926    2    1    2    0    0 -0.14210854715E-13  0.00000000000E+00  0.30926750922E+03  0.54855436853E+03  0.45306236102E+03 0.  0.
      99925    2    3    3    0    0  0.81146903103E+02  0.61085372103E+02  0.14031091478E+03  0.31508042679E+03  0.26319627651E+03 0.  0.
         25    1    4    4    0    0  0.44419066606E+02  0.62066119505E+02  0.10417175710E+03  0.17979021037E+03  0.12509000000E+03 0.  0.
         25    1    4    4    0    0  0.36727836496E+02 -0.98074740242E+00  0.36139157678E+02  0.13529021641E+03  0.12509000000E+03 0.  0.
         25    1    3    3    0    0 -0.81146903103E+02 -0.61085372103E+02  0.16895659444E+03  0.23347394174E+03  0.12509000000E+03 0.  0.
<mgrwt>
<rscale>  2 0.45306236E+03</rscale>
<asrwt>0</asrwt>
<pdfrwt beam="1">  1       21 0.63075138E-01 0.45306236E+03</pdfrwt>
<pdfrwt beam="2">  1       21 0.17594622E-01 0.45306236E+03</pdfrwt>
<totfact> 0.62921248E+04</totfact>
</mgrwt>
</event>
<event>
 7    0  0.4759581E-002  0.4516374E+03  0.7546771E-02  0.1027235E+00
         21   -1    0    0  502  501  0.00000000000E+00  0.00000000000E+00  0.48110907521E+03  0.48110907521E+03  0.00000000000E+00 0.  1.
         21   -1    0    0  501  502 -0.00000000000E+00 -0.00000000000E+00 -0.10599279216E+03  0.10599279216E+03  0.00000000000E+00 0.  1.
      99926    2    1    2    0    0  0.00000000000E+00  0.00000000000E+00  0.37511628306E+03  0.58710186737E+03  0.45163743961E+03 0.  0.
      99925    2    3    3    0    0 -0.82569210411E+02  0.45841464322E+02  0.31038406618E+03  0.41752332403E+03  0.26280856762E+03 0.  0.
         25    1    3    3    0    0  0.82569210411E+02 -0.45841464322E+02  0.64732216881E+02  0.16957854334E+03  0.12509000000E+03 0.  0.
         25    1    4    4    0    0 -0.21246012212E+02 -0.64558058256E+01  0.11081554888E+03  0.16858429475E+03  0.12509000000E+03 0.  0.
         25    1    4    4    0    0 -0.61323198199E+02  0.52297270147E+02  0.19956851730E+03  0.24893902928E+03  0.12509000000E+03 0.  0.
<mgrwt>
<rscale>  2 0.45163744E+03</rscale>
<asrwt>0</asrwt>
<pdfrwt beam="1">  1       21 0.70751334E-01 0.45163744E+03</pdfrwt>
<pdfrwt beam="2">  1       21 0.15587175E-01 0.45163744E+03</pdfrwt>
<totfact> 0.61086725E+04</totfact>
</mgrwt>
</event>
<event>
 7    0  0.4759581E-002  0.4530772E+03  0.7546771E-02  0.1026808E+00
         21   -1    0    0  502  501  0.00000000000E+00  0.00000000000E+00  0.22965520106E+03  0.22965520106E+03  0.00000000000E+00 0. -1.
         21   -1    0    0  501  502 -0.00000000000E+00 -0.00000000000E+00 -0.22346431481E+03  0.22346431481E+03  0.00000000000E+00 0. -1.
      99926    2    1    2    0    0 -0.88817841970E-15 -0.14210854715E-13  0.61908862498E+01  0.45311951587E+03  0.45307722145E+03 0.  0.
      99925    2    3    3    0    0 -0.63582983962E+01 -0.10869814416E+03  0.22177277791E+02  0.28650983033E+03  0.26408395772E+03 0.  0.
         25    1    3    3    0    0  0.63582983962E+01  0.10869814416E+03 -0.15986391541E+02  0.16660968554E+03  0.12509000000E+03 0.  0.
         25    1    4    4    0    0 -0.30051038203E+02 -0.26518982087E+02 -0.95153726968E+01  0.13169803235E+03  0.12509000000E+03 0.  0.
         25    1    4    4    0    0  0.23692739807E+02 -0.82179162072E+02  0.31692650488E+02  0.15481179798E+03  0.12509000000E+03 0.  0.
<mgrwt>
<rscale>  2 0.45307722E+03</rscale>
<asrwt>0</asrwt>
<pdfrwt beam="1">  1       21 0.33772824E-01 0.45307722E+03</pdfrwt>
<pdfrwt beam="2">  1       21 0.32862399E-01 0.45307722E+03</pdfrwt>
<totfact> 0.69747701E+04</totfact>
</mgrwt>
</event>
<event>
 7    0  0.4759581E-002  0.4584704E+03  0.7546771E-02  0.1025226E+00
         21   -1    0    0  502  501  0.00000000000E+00  0.00000000000E+00  0.23759903609E+04  0.23759903609E+04  0.00000000000E+00 0.  1.
         21   -1    0    0  501  502 -0.00000000000E+00 -0.00000000000E+00 -0.22116577310E+02  0.22116577310E+02  0.00000000000E+00 0.  1.
      99926    2    1    2    0    0  0.00000000000E+00 -0.35527136788E-14  0.23538737836E+04  0.23981069382E+04  0.45847038947E+03 0.  0.
      99925    2    3    3    0    0 -0.47593301303E+02 -0.29614988253E+02  0.20104872517E+04  0.20283719138E+04  0.26285254758E+03 0.  0.
         25    1    4    4    0    0 -0.42174209492E+02  0.19148476530E+02  0.10892395794E+04  0.10973767345E+04  0.12509000000E+03 0.  0.
         25    1    3    3    0    0  0.47593301303E+02  0.29614988253E+02  0.34338653189E+03  0.36973502436E+03  0.12509000000E+03 0.  0.
         25    1    4    4    0    0 -0.54190918111E+01 -0.48763464784E+02  0.92124767229E+03  0.93099517929E+03  0.12509000000E+03 0.  0.
<mgrwt>
<rscale>  2 0.45847039E+03</rscale>
<asrwt>0</asrwt>
<pdfrwt beam="1">  1       21 0.34941017E+00 0.45847039E+03</pdfrwt>
<pdfrwt beam="2">  1       21 0.32524395E-02 0.45847039E+03</pdfrwt>
<totfact> 0.80129191E+03</totfact>
</mgrwt>
</event>
<event>
 6    0  0.4759581E-002  0.4548317E+03  0.7546771E-02  0.1026291E+00
         21   -1    0    0  502  501  0.00000000000E+00  0.00000000000E+00  0.53039693819E+03  0.53039693819E+03  0.00000000000E+00 0.  1.
         21   -1    0    0  501  502 -0.00000000000E+00 -0.00000000000E+00 -0.97508048844E+02  0.97508048844E+02  0.00000000000E+00 0.  1.
      99926    2    1    2    0    0 -0.71054273576E-14  0.00000000000E+00  0.43288888935E+03  0.62790498704E+03  0.45483170758E+03 0.  0.
         25    1    3    3    0    0 -0.69629124528E+02  0.36197449047E+02  0.16431525685E+03  0.22091962799E+03  0.12509000000E+03 0.  0.
         25    1    3    3    0    0  0.42371243250E+02 -0.89249878350E+02  0.97621833693E+02  0.18691814667E+03  0.12509000000E+03 0.  0.
         25    1    3    3    0    0  0.27257881278E+02  0.53052429303E+02  0.17095179881E+03  0.22006721237E+03  0.12509000000E+03 0.  0.
<mgrwt>
<rscale>  2 0.45483171E+03</rscale>
<asrwt>0</asrwt>
<pdfrwt beam="1">  1       21 0.77999548E-01 0.45483171E+03</pdfrwt>
<pdfrwt beam="2">  1       21 0.14339419E-01 0.45483171E+03</pdfrwt>
<totfact> 0.57068477E+04</totfact>
</mgrwt>
</event>
<event>
 7    0  0.4759581E-002  0.4546531E+03  0.7546771E-02  0.1026343E+00
         21   -1    0    0  502  501  0.00000000000E+00  0.00000000000E+00  0.33909514676E+04  0.33909514676E+04  0.00000000000E+00 0.  1.
         21   -1    0    0  501  502 -0.00000000000E+00 -0.00000000000E+00 -0.15239779161E+02  0.15239779161E+02  0.00000000000E+00 0.  1.
      99926    2    1    2    0    0  0.14210854715E-13 -0.17763568394E-14  0.33757116884E+04  0.34061912467E+04  0.45465306119E+03 0.  0.
      99925    2    3    3    0    0 -0.10875291863E+03  0.13899635084E+02  0.19337390127E+04  0.19546565063E+04  0.26327759326E+03 0.  0.
         25    1    3    3    0    0  0.10875291863E+03 -0.13899635084E+02  0.14419726757E+04  0.14515347405E+04  0.12509000000E+03 0.  0.
         25    1    4    4    0    0 -0.25162498759E+02 -0.16854046399E+02  0.74427001027E+03  0.75531620300E+03  0.12509000000E+03 0.  0.
         25    1    4    4    0    0 -0.83590419871E+02  0.30753681484E+02  0.11894690024E+04  0.11993403033E+04  0.12509000000E+03 0.  0.
<mgrwt>
<rscale>  2 0.45465306E+03</rscale>
<asrwt>0</asrwt>
<pdfrwt beam="1">  1       21 0.49866881E+00 0.45465306E+03</pdfrwt>
<pdfrwt beam="2">  1       21 0.22411463E-02 0.45465306E+03</pdfrwt>
<totfact> 0.15518729E+03</totfact>
</mgrwt>
</event>
<event>
 7    0  0.4759581E-002  0.4649874E+03  0.7546771E-02  0.1023345E+00
         21   -1    0    0  502  501  0.00000000000E+00  0.00000000000E+00  0.33008836743E+03  0.33008836743E+03  0.00000000000E+00 0.  1.
         21   -1    0    0  501  502 -0.00000000000E+00 -0.00000000000E+00 -0.16375405680E+03  0.16375405680E+03  0.00000000000E+00 0.  1.
      99926    2    1    2    0    0  0.00000000000E+00  0.00000000000E+00  0.16633431063E+03  0.49384242423E+03  0.46498735152E+03 0.  0.
      99925    2    3    3    0    0  0.37620525246E+02 -0.74634611033E+02  0.19892341755E+03  0.33991001350E+03  0.26264550662E+03 0.  0.
         25    1    3    3    0    0 -0.37620525246E+02  0.74634611033E+02 -0.32589106912E+02  0.15393241073E+03  0.12509000000E+03 0.  0.
         25    1    4    4    0    0 -0.11895383304E+02 -0.57504550029E+02  0.11985882817E+03  0.18292599654E+03  0.12509000000E+03 0.  0.
         25    1    4    4    0    0  0.49515908550E+02 -0.17130061004E+02  0.79064589373E+02  0.15698401696E+03  0.12509000000E+03 0.  0.
<mgrwt>
<rscale>  2 0.46498735E+03</rscale>
<asrwt>0</asrwt>
<pdfrwt beam="1">  1       21 0.48542407E-01 0.46498735E+03</pdfrwt>
<pdfrwt beam="2">  1       21 0.24081479E-01 0.46498735E+03</pdfrwt>
<totfact> 0.60744564E+04</totfact>
</mgrwt>
</event>
<event>
 7    0  0.4759581E-002  0.4567155E+03  0.7546771E-02  0.1025738E+00
         21   -1    0    0  502  501  0.00000000000E+00  0.00000000000E+00  0.41125583840E+03  0.41125583840E+03  0.00000000000E+00 0. -1.
         21   -1    0    0  501  502 -0.00000000000E+00 -0.00000000000E+00 -0.12680004380E+03  0.12680004380E+03  0.00000000000E+00 0. -1.
      99926    2    1    2    0    0  0.00000000000E+00  0.00000000000E+00  0.28445579459E+03  0.53805588220E+03  0.45671548397E+03 0.  0.
      99925    2    3    3    0    0  0.35845965129E+02  0.30479514323E+02  0.55545854436E+02  0.27298758381E+03  0.26310253697E+03 0.  0.
         25    1    3    3    0    0 -0.35845965129E+02 -0.30479514323E+02  0.22890994016E+03  0.26506829839E+03  0.12509000000E+03 0.  0.
         25    1    4    4    0    0  0.58432916281E+02  0.22124156517E+02  0.32032963505E+02  0.14344860703E+03  0.12509000000E+03 0.  0.
         25    1    4    4    0    0 -0.22586951152E+02  0.83553578067E+01  0.23512890931E+02  0.12953897678E+03  0.12509000000E+03 0.  0.
<mgrwt>
<rscale>  2 0.45671548E+03</rscale>
<asrwt>0</asrwt>
<pdfrwt beam="1">  1       21 0.60478799E-01 0.45671548E+03</pdfrwt>
<pdfrwt beam="2">  1       21 0.18647065E-01 0.45671548E+03</pdfrwt>
<totfact> 0.61819155E+04</totfact>
</mgrwt>
</event>
<event>
 7    0  0.4759581E-002  0.4558349E+03  0.7546771E-02  0.1025996E+00
         21   -1    0    0  502  501  0.00000000000E+00  0.00000000000E+00  0.50160654370E+02  0.50160654370E+02  0.00000000000E+00 0.  1.
         21   -1    0    0  501  502 -0.00000000000E+00 -0.00000000000E+00 -0.10355996242E+04  0.10355996242E+04  0.00000000000E+00 0.  1.
      99926    2    1    2    0    0  0.00000000000E+00  0.00000000000E+00 -0.98543896983E+03  0.10857602786E+04  0.45583485964E+03 0.  0.
      99925    2    3    3    0    0  0.58884589956E+02  0.97329508547E+02 -0.63553376138E+03  0.69714531338E+03  0.26299809495E+03 0.  0.
         25    1    4    4    0    0  0.68658925485E+02  0.50766965757E+02 -0.30466576273E+03  0.34023531260E+03  0.12509000000E+03 0.  0.
         25    1    3    3    0    0 -0.58884589956E+02 -0.97329508547E+02 -0.34990520845E+03  0.38861496519E+03  0.12509000000E+03 0.  0.
         25    1    4    4    0    0 -0.97743355290E+01  0.46562542791E+02 -0.33086799865E+03  0.35691000078E+03  0.12509000000E+03 0.  0.
<mgrwt>
<rscale>  2 0.45583486E+03</rscale>
<asrwt>0</asrwt>
<pdfrwt beam="1">  1       21 0.73765671E-02 0.45583486E+03</pdfrwt>
<pdfrwt beam="2">  1       21 0.15229406E+00 0.45583486E+03</pdfrwt>
<totfact> 0.35758445E+04</totfact>
</mgrwt>
</event>
<event>
 7    0  0.4759581E-002  0.4371002E+03  0.7546771E-02  0.1031640E+00
         21   -1    0    0  502  501  0.00000000000E+00  0.00000000000E+00  0.13304230739E+03  0.13304230739E+03  0.00000000000E+00 0.  1.
         21   -1    0    0  501  502 -0.00000000000E+00 -0.00000000000E+00 -0.35901479582E+03  0.35901479582E+03  0.00000000000E+00 0.  1.
      99926    2    1    2    0    0  0.00000000000E+00  0.00000000000E+00 -0.22597248842E+03  0.49205710321E+03  0.43710024857E+03 0.  0.
      99925    2    3    3    0    0  0.55684646785E+02 -0.46268297721E+02 -0.74577614422E+02  0.28275002919E+03  0.26295289155E+03 0.  0.
         25    1    4    4    0    0  0.52201600877E+02 -0.23049967665E+02 -0.72552730121E+02  0.15545968896E+03  0.12509000000E+03 0.  0.
         25    1    3    3    0    0 -0.55684646785E+02  0.46268297721E+02 -0.15139487400E+03  0.20930707402E+03  0.12509000000E+03 0.  0.
         25    1    4    4    0    0  0.34830459083E+01 -0.23218330056E+02 -0.20248843007E+01  0.12729034023E+03  0.12509000000E+03 0.  0.
<mgrwt>
<rscale>  2 0.43710025E+03</rscale>
<asrwt>0</asrwt>
<pdfrwt beam="1">  1       21 0.19565045E-01 0.43710025E+03</pdfrwt>
<pdfrwt beam="2">  1       21 0.52796293E-01 0.43710025E+03</pdfrwt>
<totfact> 0.76080865E+04</totfact>
</mgrwt>
</event>
<event>
 7    0  0.4759581E-002  0.4636343E+03  0.7546771E-02  0.1023732E+00
         21   -1    0    0  502  501  0.00000000000E+00  0.00000000000E+00  0.93775013493E+02  0.93775013493E+02  0.00000000000E+00 0. -1.
         21   -1    0    0  501  502 -0.00000000000E+00 -0.00000000000E+00 -0.57306507995E+03  0.57306507995E+03  0.00000000000E+00 0. -1.
      99926    2    1    2    0    0  0.35527136788E-14  0.00000000000E+00 -0.47929006646E+03  0.66684009345E+03  0.46363427658E+03 0.  0.
      99925    2    3    3    0    0 -0.24655809048E+02  0.31877989491E+02 -0.13474040539E+03  0.29807717208E+03  0.26281344816E+03 0.  0.
         25    1    3    3    0    0  0.24655809048E+02 -0.31877989491E+02 -0.34454966107E+03  0.36876292137E+03  0.12509000000E+03 0.  0.
         25    1    4    4    0    0  0.20284974922E+02  0.10582298748E+02 -0.39427802961E+02  0.13313724122E+03  0.12509000000E+03 0.  0.
         25    1    4    4    0    0 -0.44940783970E+02  0.21295690743E+02 -0.95312602429E+02  0.16493993085E+03  0.12509000000E+03 0.  0.
<mgrwt>
<rscale>  2 0.46363428E+03</rscale>
<asrwt>0</asrwt>
<pdfrwt beam="1">  1       21 0.13790443E-01 0.46363428E+03</pdfrwt>
<pdfrwt beam="2">  1       21 0.84274278E-01 0.46363428E+03</pdfrwt>
<totfact> 0.51167212E+04</totfact>
</mgrwt>
</event>
<event>
 7    0  0.4759581E-002  0.4448466E+03  0.7546771E-02  0.1029270E+00
         21   -1    0    0  502  501  0.00000000000E+00  0.00000000000E+00  0.57383647677E+03  0.57383647677E+03  0.00000000000E+00 0. -1.
         21   -1    0    0  501  502 -0.00000000000E+00 -0.00000000000E+00 -0.86212926701E+02  0.86212926701E+02  0.00000000000E+00 0. -1.
      99926    2    1    2    0    0  0.00000000000E+00  0.00000000000E+00  0.48762355007E+03  0.66004940347E+03  0.44484658978E+03 0.  0.
      99925    2    3    3    0    0  0.73505912698E+02  0.72081777718E+02  0.30555419332E+03  0.41633715378E+03  0.26339012640E+03 0.  0.
         25    1    4    4    0    0  0.62502383563E+02  0.68802258551E+02  0.14895026162E+03  0.21557826252E+03  0.12509000000E+03 0.  0.
         25    1    4    4    0    0  0.11003529135E+02  0.32795191671E+01  0.15660393169E+03  0.20075889126E+03  0.12509000000E+03 0.  0.
         25    1    3    3    0    0 -0.73505912698E+02 -0.72081777718E+02  0.18206935675E+03  0.24371224969E+03  0.12509000000E+03 0.  0.
<mgrwt>
<rscale>  2 0.44484659E+03</rscale>
<asrwt>0</asrwt>
<pdfrwt beam="1">  1       21 0.84387715E-01 0.44484659E+03</pdfrwt>
<pdfrwt beam="2">  1       21 0.12678372E-01 0.44484659E+03</pdfrwt>
<totfact> 0.59767640E+04</totfact>
</mgrwt>
</event>
<event>
 7    0  0.4759581E-002  0.4581509E+03  0.7546771E-02  0.1025319E+00
         21   -1    0    0  502  501  0.00000000000E+00  0.00000000000E+00  0.10066267051E+03  0.10066267051E+03  0.00000000000E+00 0.  1.
         21   -1    0    0  501  502 -0.00000000000E+00 -0.00000000000E+00 -0.52130100862E+03  0.52130100862E+03  0.00000000000E+00 0.  1.
      99926    2    1    2    0    0  0.00000000000E+00  0.00000000000E+00 -0.42063833811E+03  0.62196367913E+03  0.45815085579E+03 0.  0.
      99925    2    3    3    0    0  0.76378085243E+02  0.23988297158E+01 -0.38302231953E+03  0.47063014271E+03  0.26257811730E+03 0.  0.
         25    1    4    4    0    0  0.78224494079E+02  0.11086480098E+02 -0.21411044819E+03  0.26025520867E+03  0.12509000000E+03 0.  0.
         25    1    3    3    0    0 -0.76378085243E+02 -0.23988297158E+01 -0.37616018579E+02  0.15133353641E+03  0.12509000000E+03 0.  0.
         25    1    4    4    0    0 -0.18464088360E+01 -0.86876503822E+01 -0.16891187134E+03  0.21037493405E+03  0.12509000000E+03 0.  0.
<mgrwt>
<rscale>  2 0.45815086E+03</rscale>
<asrwt>0</asrwt>
<pdfrwt beam="1">  1       21 0.14803334E-01 0.45815086E+03</pdfrwt>
<pdfrwt beam="2">  1       21 0.76661914E-01 0.45815086E+03</pdfrwt>
<totfact> 0.55941451E+04</totfact>
</mgrwt>
</event>
<event>
 7    0  0.4759581E-002  0.4555577E+03  0.7546771E-02  0.1026078E+00
         21   -1    0    0  502  501  0.00000000000E+00  0.00000000000E+00  0.63995747645E+03  0.63995747645E+03  0.00000000000E+00 0. -1.
         21   -1    0    0  501  502 -0.00000000000E+00 -0.00000000000E+00 -0.81072887213E+02  0.81072887213E+02  0.00000000000E+00 0. -1.
      99926    2    1    2    0    0  0.00000000000E+00  0.35527136788E-14  0.55888458923E+03  0.72103036366E+03  0.45555768157E+03 0.  0.
      99925    2    3    3    0    0 -0.18101652581E+02  0.24227140792E+02  0.52491804896E+03  0.58792943152E+03  0.26307305858E+03 0.  0.
         25    1    4    4    0    0 -0.12420144196E+02 -0.25181384951E+02  0.22019997068E+03  0.25480168233E+03  0.12509000000E+03 0.  0.
         25    1    4    4    0    0 -0.56815083850E+01  0.49408525743E+02  0.30471807828E+03  0.33312774919E+03  0.12509000000E+03 0.  0.
         25    1    3    3    0    0  0.18101652581E+02 -0.24227140792E+02  0.33966540272E+02  0.13310093213E+03  0.12509000000E+03 0.  0.
<mgrwt>
<rscale>  2 0.45555768E+03</rscale>
<asrwt>0</asrwt>
<pdfrwt beam="1">  1       21 0.94111391E-01 0.45555768E+03</pdfrwt>
<pdfrwt beam="2">  1       21 0.11922484E-01 0.45555768E+03</pdfrwt>
<totfact> 0.51549529E+04</totfact>
</mgrwt>
</event>
<event>
 7    0  0.4759581E-002  0.4540446E+03  0.7546771E-02  0.1026523E+00
         21   -1    0    0  502  501  0.00000000000E+00  0.00000000000E+00  0.71133013685E+02  0.71133013685E+02  0.00000000000E+00 0. -1.
         21   -1    0    0  501  502 -0.00000000000E+00 -0.00000000000E+00 -0.72454571725E+03  0.72454571725E+03  0.00000000000E+00 0. -1.
      99926    2    1    2    0    0  0.00000000000E+00  0.00000000000E+00 -0.65341270356E+03  0.79567873093E+03  0.45404458116E+03 0.  0.
      99925    2    3    3    0    0 -0.97457828442E+02  0.56300083573E+02 -0.43351031072E+03  0.51878109964E+03  0.26179173423E+03 0.  0.
         25    1    3    3    0    0  0.97457828442E+02 -0.56300083573E+02 -0.21990239284E+03  0.27689763129E+03  0.12509000000E+03 0.  0.
         25    1    4    4    0    0 -0.18198880196E+02  0.69119896277E+01 -0.16205633835E+03  0.20564226156E+03  0.12509000000E+03 0.  0.
         25    1    4    4    0    0 -0.79258948245E+02  0.49388093945E+02 -0.27145397237E+03  0.31313883808E+03  0.12509000000E+03 0.  0.
<mgrwt>
<rscale>  2 0.45404458E+03</rscale>
<asrwt>0</asrwt>
<pdfrwt beam="1">  1       21 0.10460738E-01 0.45404458E+03</pdfrwt>
<pdfrwt beam="2">  1       21 0.10655083E+00 0.45404458E+03</pdfrwt>
<totfact> 0.48335955E+04</totfact>
</mgrwt>
</event>
<event>
 7    0  0.4759581E-002  0.4519015E+03  0.7546771E-02  0.1027156E+00
         21   -1    0    0  502  501  0.00000000000E+00  0.00000000000E+00  0.23381359078E+03  0.23381359078E+03  0.00000000000E+00 0. -1.
         21   -1    0    0  501  502 -0.00000000000E+00 -0.00000000000E+00 -0.21835237261E+03  0.21835237261E+03  0.00000000000E+00 0. -1.
      99926    2    1    2    0    0  0.00000000000E+00 -0.71054273576E-14  0.15461218173E+02  0.45216596338E+03  0.45190154810E+03 0.  0.
      99925    2    3    3    0    0  0.71852052788E+02 -0.30420668811E+02 -0.68130830965E+02  0.28268654469E+03  0.26302421531E+03 0.  0.
         25    1    4    4    0    0  0.31613659934E+02 -0.42275397224E+02 -0.36135908059E+01  0.13582046548E+03  0.12509000000E+03 0.  0.
         25    1    3    3    0    0 -0.71852052788E+02  0.30420668811E+02  0.83592049138E+02  0.16947941869E+03  0.12509000000E+03 0.  0.
         25    1    4    4    0    0  0.40238392854E+02  0.11854728413E+02 -0.64517240159E+02  0.14686607921E+03  0.12509000000E+03 0.  0.
<mgrwt>
<rscale>  2 0.45190155E+03</rscale>
<asrwt>0</asrwt>
<pdfrwt beam="1">  1       21 0.34384352E-01 0.45190155E+03</pdfrwt>
<pdfrwt beam="2">  1       21 0.32110643E-01 0.45190155E+03</pdfrwt>
<totfact> 0.70480310E+04</totfact>
</mgrwt>
</event>
<event>
 7    0  0.4759581E-002  0.4176110E+03  0.7546771E-02  0.1037847E+00
         21   -1    0    0  502  501  0.00000000000E+00  0.00000000000E+00  0.69063856006E+03  0.69063856006E+03  0.00000000000E+00 0.  1.
         21   -1    0    0  501  502 -0.00000000000E+00 -0.00000000000E+00 -0.63129603242E+02  0.63129603242E+02  0.00000000000E+00 0.  1.
      99926    2    1    2    0    0 -0.71054273576E-14  0.00000000000E+00  0.62750895682E+03  0.75376816330E+03  0.41761100694E+03 0.  0.
      99925    2    3    3    0    0  0.43086158295E+02  0.17682291530E+02  0.30901146464E+03  0.40843174603E+03  0.26298160661E+03 0.  0.
         25    1    3    3    0    0 -0.43086158295E+02 -0.17682291530E+02  0.31849749217E+03  0.34533641726E+03  0.12509000000E+03 0.  0.
         25    1    4    4    0    0  0.56057085234E+02 -0.57712425056E+01  0.13522910395E+03  0.19263987827E+03  0.12509000000E+03 0.  0.
         25    1    4    4    0    0 -0.12970926939E+02  0.23453534036E+02  0.17378236070E+03  0.21579186776E+03  0.12509000000E+03 0.  0.
<mgrwt>
<rscale>  2 0.41761101E+03</rscale>
<asrwt>0</asrwt>
<pdfrwt beam="1">  1       21 0.10156449E+00 0.41761101E+03</pdfrwt>
<pdfrwt beam="2">  1       21 0.92837656E-02 0.41761101E+03</pdfrwt>
<totfact> 0.67938741E+04</totfact>
</mgrwt>
</event>
<event>
 7    0  0.4759581E-002  0.4490346E+03  0.7546771E-02  0.1028010E+00
         21   -1    0    0  502  501  0.00000000000E+00  0.00000000000E+00  0.91636805764E+03  0.91636805764E+03  0.00000000000E+00 0. -1.
         21   -1    0    0  501  502 -0.00000000000E+00 -0.00000000000E+00 -0.55008475584E+02  0.55008475584E+02  0.00000000000E+00 0. -1.
      99926    2    1    2    0    0  0.00000000000E+00 -0.14210854715E-13  0.86135958205E+03  0.97137653322E+03  0.44903456403E+03 0.  0.
      99925    2    3    3    0    0  0.23776852592E+02 -0.89174004328E+02  0.66428754470E+03  0.72037406755E+03  0.26295154189E+03 0.  0.
         25    1    4    4    0    0  0.57286034368E+01 -0.82114854697E+02  0.40604178532E+03  0.43277373509E+03  0.12509000000E+03 0.  0.
         25    1    3    3    0    0 -0.23776852592E+02  0.89174004328E+02  0.19707203735E+03  0.25100246567E+03  0.12509000000E+03 0.  0.
         25    1    4    4    0    0  0.18048249155E+02 -0.70591496314E+01  0.25824575938E+03  0.28760033246E+03  0.12509000000E+03 0.  0.
<mgrwt>
<rscale>  2 0.44903456E+03</rscale>
<asrwt>0</asrwt>
<pdfrwt beam="1">  1       21 0.13476000E+00 0.44903456E+03</pdfrwt>
<pdfrwt beam="2">  1       21 0.80894823E-02 0.44903456E+03</pdfrwt>
<totfact> 0.42222075E+04</totfact>
</mgrwt>
</event>
<event>
 7    0  0.4759581E-002  0.4629865E+03  0.7546771E-02  0.1023919E+00
         21   -1    0    0  502  501  0.00000000000E+00  0.00000000000E+00  0.57845370241E+03  0.57845370241E+03  0.00000000000E+00 0.  1.
         21   -1    0    0  501  502 -0.00000000000E+00 -0.00000000000E+00 -0.92642010490E+02  0.92642010490E+02  0.00000000000E+00 0.  1.
      99926    2    1    2    0    0  0.00000000000E+00  0.00000000000E+00  0.48581169192E+03  0.67109571290E+03  0.46298645322E+03 0.  0.
      99925    2    3    3    0    0  0.73663696883E+02  0.31655843015E+02  0.43395371483E+03  0.51372611443E+03  0.26300239808E+03 0.  0.
         25    1    4    4    0    0  0.11576473322E+02  0.30012274792E+02  0.26278086439E+03  0.29280717573E+03  0.12509000000E+03 0.  0.
         25    1    3    3    0    0 -0.73663696883E+02 -0.31655843015E+02  0.51857977094E+02  0.15736959847E+03  0.12509000000E+03 0.  0.
         25    1    4    4    0    0  0.62087223561E+02  0.16435682234E+01  0.17117285044E+03  0.22091893870E+03  0.12509000000E+03 0.  0.
<mgrwt>
<rscale>  2 0.46298645E+03</rscale>
<asrwt>0</asrwt>
<pdfrwt beam="1">  1       21 0.85066719E-01 0.46298645E+03</pdfrwt>
<pdfrwt beam="2">  1       21 0.13623825E-01 0.46298645E+03</pdfrwt>
<totfact> 0.51200186E+04</totfact>
</mgrwt>
</event>
<event>
 7    0  0.4759581E-002  0.4491833E+03  0.7546771E-02  0.1027966E+00
         21   -1    0    0  502  501  0.00000000000E+00  0.00000000000E+00  0.13822169928E+03  0.13822169928E+03  0.00000000000E+00 0.  1.
         21   -1    0    0  501  502 -0.00000000000E+00 -0.00000000000E+00 -0.36493125999E+03  0.36493125999E+03  0.00000000000E+00 0.  1.
      99926    2    1    2    0    0  0.00000000000E+00  0.00000000000E+00 -0.22670956072E+03  0.50315295927E+03  0.44918334286E+03 0.  0.
      99925    2    3    3    0    0 -0.10924406065E+02 -0.10609133033E+03 -0.15858503089E+03  0.32521147258E+03  0.26313224215E+03 0.  0.
         25    1    4    4    0    0 -0.50133198403E+01 -0.96845526217E+02 -0.92187698566E+02  0.18316732566E+03  0.12509000000E+03 0.  0.
         25    1    3    3    0    0  0.10924406065E+02  0.10609133033E+03 -0.68124529824E+02  0.17794148668E+03  0.12509000000E+03 0.  0.
         25    1    4    4    0    0 -0.59110862245E+01 -0.92458041165E+01 -0.66397332326E+02  0.14204414692E+03  0.12509000000E+03 0.  0.
<mgrwt>
<rscale>  2 0.44918334E+03</rscale>
<asrwt>0</asrwt>
<pdfrwt beam="1">  1       21 0.20326721E-01 0.44918334E+03</pdfrwt>
<pdfrwt beam="2">  1       21 0.53666361E-01 0.44918334E+03</pdfrwt>
<totfact> 0.68141682E+04</totfact>
</mgrwt>
</event>
<event>
 7    0  0.4759581E-002  0.4416037E+03  0.7546771E-02  0.1030256E+00
         21   -1    0    0  502  501  0.00000000000E+00  0.00000000000E+00  0.16022976812E+04  0.16022976812E+04  0.00000000000E+00 0. -1.
         21   -1    0    0  501  502 -0.00000000000E+00 -0.00000000000E+00 -0.30427210829E+02  0.30427210829E+02  0.00000000000E+00 0. -1.
      99926    2    1    2    0    0  0.00000000000E+00  0.35527136788E-14  0.15718704703E+04  0.16327248920E+04  0.44160366554E+03 0.  0.
      99925    2    3    3    0    0 -0.82539158925E+02 -0.23440498626E+02  0.81147431297E+03  0.85734627869E+03  0.26303975221E+03 0.  0.
         25    1    4    4    0    0 -0.71588880571E+02 -0.12188188695E+02  0.34402661000E+03  0.37319610964E+03  0.12509000000E+03 0.  0.
         25    1    3    3    0    0  0.82539158925E+02  0.23440498626E+02  0.76039615736E+03  0.77537861329E+03  0.12509000000E+03 0.  0.
         25    1    4    4    0    0 -0.10950278354E+02 -0.11252309931E+02  0.46744770297E+03  0.48415016905E+03  0.12509000000E+03 0.  0.
<mgrwt>
<rscale>  2 0.44160367E+03</rscale>
<asrwt>0</asrwt>
<pdfrwt beam="1">  1       21 0.23563196E+00 0.44160367E+03</pdfrwt>
<pdfrwt beam="2">  1       21 0.44745909E-02 0.44160367E+03</pdfrwt>
<totfact> 0.23001460E+04</totfact>
</mgrwt>
</event>
<event>
 7    0  0.4759581E-002  0.4580607E+03  0.7546771E-02  0.1025345E+00
         21   -1    0    0  502  501  0.00000000000E+00  0.00000000000E+00  0.75909624607E+03  0.75909624607E+03  0.00000000000E+00 0.  1.
         21   -1    0    0  501  502 -0.00000000000E+00 -0.00000000000E+00 -0.69101782883E+02  0.69101782883E+02  0.00000000000E+00 0.  1.
      99926    2    1    2    0    0  0.00000000000E+00  0.00000000000E+00  0.68999446318E+03  0.82819802895E+03  0.45806071206E+03 0.  0.
      99925    2    3    3    0    0 -0.67090600092E+02 -0.62408078624E+02  0.56131083357E+03  0.62669641226E+03  0.26321592725E+03 0.  0.
         25    1    4    4    0    0 -0.53907482487E+02  0.43274443511E+01  0.26929109974E+03  0.30181111302E+03  0.12509000000E+03 0.  0.
         25    1    3    3    0    0  0.67090600092E+02  0.62408078624E+02  0.12868362961E+03  0.20150161669E+03  0.12509000000E+03 0.  0.
         25    1    4    4    0    0 -0.13183117605E+02 -0.66735522975E+02  0.29201973383E+03  0.32488529924E+03  0.12509000000E+03 0.  0.
<mgrwt>
<rscale>  2 0.45806071E+03</rscale>
<asrwt>0</asrwt>
<pdfrwt beam="1">  1       21 0.11163180E+00 0.45806071E+03</pdfrwt>
<pdfrwt beam="2">  1       21 0.10162027E-01 0.45806071E+03</pdfrwt>
<totfact> 0.45332457E+04</totfact>
</mgrwt>
</event>
<event>
 7    0  0.4759581E-002  0.4628413E+03  0.7546771E-02  0.1023960E+00
         21   -1    0    0  502  501  0.00000000000E+00  0.00000000000E+00  0.27267817037E+02  0.27267817037E+02  0.00000000000E+00 0. -1.
         21   -1    0    0  501  502 -0.00000000000E+00 -0.00000000000E+00 -0.19640555385E+04  0.19640555385E+04  0.00000000000E+00 0. -1.
      99926    2    1    2    0    0  0.71054273576E-14  0.00000000000E+00 -0.19367877215E+04  0.19913233556E+04  0.46284125605E+03 0.  0.
      99925    2    3    3    0    0  0.51070322949E+02  0.59415760694E+02 -0.16043143545E+04  0.16275590660E+04  0.26265101324E+03 0.  0.
         25    1    4    4    0    0  0.57467342770E+02  0.67704088537E+01 -0.76422528277E+03  0.77655400640E+03  0.12509000000E+03 0.  0.
         25    1    3    3    0    0 -0.51070322949E+02 -0.59415760694E+02 -0.33247336698E+03  0.36376428956E+03  0.12509000000E+03 0.  0.
         25    1    4    4    0    0 -0.63970198208E+01  0.52645351840E+02 -0.84008907172E+03  0.85100505960E+03  0.12509000000E+03 0.  0.
<mgrwt>
<rscale>  2 0.46284126E+03</rscale>
<asrwt>0</asrwt>
<pdfrwt beam="1">  1       21 0.40099720E-02 0.46284126E+03</pdfrwt>
<pdfrwt beam="2">  1       21 0.28883177E+00 0.46284126E+03</pdfrwt>
<totfact> 0.13040011E+04</totfact>
</mgrwt>
</event>
<event>
 7    0  0.4759581E-002  0.4520316E+03  0.7546771E-02  0.1027118E+00
         21   -1    0    0  502  501  0.00000000000E+00  0.00000000000E+00  0.24805879726E+03  0.24805879726E+03  0.00000000000E+00 0.  1.
         21   -1    0    0  501  502 -0.00000000000E+00 -0.00000000000E+00 -0.20593161873E+03  0.20593161873E+03  0.00000000000E+00 0.  1.
      99926    2    1    2    0    0  0.00000000000E+00  0.35527136788E-14  0.42127178534E+02  0.45399041599E+03  0.45203163455E+03 0.  0.
      99925    2    3    3    0    0  0.10724685418E+03  0.22255347548E+02  0.12664572359E+02  0.28513325301E+03  0.26295131175E+03 0.  0.
         25    1    3    3    0    0 -0.10724685418E+03 -0.22255347548E+02  0.29462606175E+02  0.16885716298E+03  0.12509000000E+03 0.  0.
         25    1    4    4    0    0  0.85536677319E+02  0.39745878581E+02  0.49684838596E+01  0.15674326768E+03  0.12509000000E+03 0.  0.
         25    1    4    4    0    0  0.21710176859E+02 -0.17490531032E+02  0.76960884991E+01  0.12838998533E+03  0.12509000000E+03 0.  0.
<mgrwt>
<rscale>  2 0.45203163E+03</rscale>
<asrwt>0</asrwt>
<pdfrwt beam="1">  1       21 0.36479235E-01 0.45203163E+03</pdfrwt>
<pdfrwt beam="2">  1       21 0.30284062E-01 0.45203163E+03</pdfrwt>
<totfact> 0.70269359E+04</totfact>
</mgrwt>
</event>
<event>
 7    0  0.4759581E-002  0.4385940E+03  0.7546771E-02  0.1031179E+00
         21   -1    0    0  502  501  0.00000000000E+00  0.00000000000E+00  0.32259683125E+02  0.32259683125E+02  0.00000000000E+00 0. -1.
         21   -1    0    0  501  502 -0.00000000000E+00 -0.00000000000E+00 -0.14907515435E+04  0.14907515435E+04  0.00000000000E+00 0. -1.
      99926    2    1    2    0    0  0.00000000000E+00  0.00000000000E+00 -0.14584918604E+04  0.15230112266E+04  0.43859399181E+03 0.  0.
      99925    2    3    3    0    0 -0.46725297601E+02  0.73824556019E+02 -0.10783345795E+04  0.11133767740E+04  0.26300010826E+03 0.  0.
         25    1    4    4    0    0  0.15563087325E+02  0.21588000403E+02 -0.48636224506E+03  0.50289560842E+03  0.12509000000E+03 0.  0.
         25    1    4    4    0    0 -0.62288384927E+02  0.52236555615E+02 -0.59197233444E+03  0.61048116554E+03  0.12509000000E+03 0.  0.
         25    1    3    3    0    0  0.46725297601E+02 -0.73824556019E+02 -0.38015728090E+03  0.40963445268E+03  0.12509000000E+03 0.  0.
<mgrwt>
<rscale>  2 0.43859399E+03</rscale>
<asrwt>0</asrwt>
<pdfrwt beam="1">  1       21 0.47440706E-02 0.43859399E+03</pdfrwt>
<pdfrwt beam="2">  1       21 0.21922819E+00 0.43859399E+03</pdfrwt>
<totfact> 0.26431854E+04</totfact>
</mgrwt>
</event>
<event>
 7    0  0.4759581E-002  0.4525631E+03  0.7546771E-02  0.1026960E+00
         21   -1    0    0  502  501  0.00000000000E+00  0.00000000000E+00  0.33767416555E+03  0.33767416555E+03  0.00000000000E+00 0. -1.
         21   -1    0    0  501  502 -0.00000000000E+00 -0.00000000000E+00 -0.15163536432E+03  0.15163536432E+03  0.00000000000E+00 0. -1.
      99926    2    1    2    0    0  0.00000000000E+00  0.00000000000E+00  0.18603880123E+03  0.48930952987E+03  0.45256312317E+03 0.  0.
      99925    2    3    3    0    0  0.76161875804E+02  0.76115061021E+02  0.88230626008E+02  0.29745520732E+03  0.26287035427E+03 0.  0.
         25    1    4    4    0    0  0.21984820916E+02  0.30638072479E+02  0.80678250952E+02  0.15355296191E+03  0.12509000000E+03 0.  0.
         25    1    3    3    0    0 -0.76161875804E+02 -0.76115061021E+02  0.97808175227E+02  0.19185432255E+03  0.12509000000E+03 0.  0.
         25    1    4    4    0    0  0.54177054887E+02  0.45476988542E+02  0.75523750552E+01  0.14390224540E+03  0.12509000000E+03 0.  0.
<mgrwt>
<rscale>  2 0.45256312E+03</rscale>
<asrwt>0</asrwt>
<pdfrwt beam="1">  1       21 0.49657966E-01 0.45256312E+03</pdfrwt>
<pdfrwt beam="2">  1       21 0.22299318E-01 0.45256312E+03</pdfrwt>
<totfact> 0.67321399E+04</totfact>
</mgrwt>
</event>
<event>
 7    0  0.4759581E-002  0.4557531E+03  0.7546771E-02  0.1026020E+00
         21   -1    0    0  502  501  0.00000000000E+00  0.00000000000E+00  0.49685044786E+02  0.49685044786E+02  0.00000000000E+00 0.  1.
         21   -1    0    0  501  502 -0.00000000000E+00 -0.00000000000E+00 -0.10451378380E+04  0.10451378380E+04  0.00000000000E+00 0.  1.
      99926    2    1    2    0    0  0.35527136788E-14  0.00000000000E+00 -0.99545279324E+03  0.10948228828E+04  0.45575309232E+03 0.  0.
      99925    2    3    3    0    0 -0.29119829278E+02  0.28346211893E+02 -0.88137393028E+03  0.92071668746E+03  0.26314965590E+03 0.  0.
         25    1    4    4    0    0  0.24381582367E+02  0.95703109728E+01 -0.46722639252E+03  0.48439040286E+03  0.12509000000E+03 0.  0.
         25    1    4    4    0    0 -0.53501411646E+02  0.18775900920E+02 -0.41414753776E+03  0.43632628460E+03  0.12509000000E+03 0.  0.
         25    1    3    3    0    0  0.29119829278E+02 -0.28346211893E+02 -0.11407886296E+03  0.17410619535E+03  0.12509000000E+03 0.  0.
<mgrwt>
<rscale>  2 0.45575309E+03</rscale>
<asrwt>0</asrwt>
<pdfrwt beam="1">  1       21 0.73066245E-02 0.45575309E+03</pdfrwt>
<pdfrwt beam="2">  1       21 0.15369674E+00 0.45575309E+03</pdfrwt>
<totfact> 0.35465472E+04</totfact>
</mgrwt>
</event>
<event>
 7    0  0.4759581E-002  0.4512056E+03  0.7546771E-02  0.1027363E+00
         21   -1    0    0  502  501  0.00000000000E+00  0.00000000000E+00  0.83847480930E+03  0.83847480930E+03  0.00000000000E+00 0. -1.
         21   -1    0    0  501  502 -0.00000000000E+00 -0.00000000000E+00 -0.60701423984E+02  0.60701423984E+02  0.00000000000E+00 0. -1.
      99926    2    1    2    0    0  0.00000000000E+00  0.00000000000E+00  0.77777338532E+03  0.89917623329E+03  0.45120556246E+03 0.  0.
      99925    2    3    3    0    0 -0.92987910642E+02  0.34611964375E+02  0.39839989014E+03  0.48757388084E+03  0.26298493722E+03 0.  0.
         25    1    4    4    0    0 -0.57194787627E+02  0.55689572702E+02  0.23017783105E+03  0.27386477365E+03  0.12509000000E+03 0.  0.
         25    1    4    4    0    0 -0.35793123015E+02 -0.21077608327E+02  0.16822205910E+03  0.21370910719E+03  0.12509000000E+03 0.  0.
         25    1    3    3    0    0  0.92987910642E+02 -0.34611964375E+02  0.37937349517E+03  0.41160235245E+03  0.12509000000E+03 0.  0.
<mgrwt>
<rscale>  2 0.45120556E+03</rscale>
<asrwt>0</asrwt>
<pdfrwt beam="1">  1       21 0.12330511E+00 0.45120556E+03</pdfrwt>
<pdfrwt beam="2">  1       21 0.89266805E-02 0.45120556E+03</pdfrwt>
<totfact> 0.44579023E+04</totfact>
</mgrwt>
</event>
<event>
 7    0  0.4759581E-002  0.4532065E+03  0.7546771E-02  0.1026770E+00
         21   -1    0    0  502  501  0.00000000000E+00  0.00000000000E+00  0.13494330234E+03  0.13494330234E+03  0.00000000000E+00 0.  1.
         21   -1    0    0  501  502 -0.00000000000E+00 -0.00000000000E+00 -0.38052306815E+03  0.38052306815E+03  0.00000000000E+00 0.  1.
      99926    2    1    2    0    0  0.00000000000E+00  0.17763568394E-14 -0.24557976581E+03  0.51546637049E+03  0.45320652879E+03 0.  0.
      99925    2    3    3    0    0 -0.89343232246E+02  0.11575851604E+02 -0.80260157056E+02  0.28942589928E+03  0.26307688016E+03 0.  0.
         25    1    3    3    0    0  0.89343232246E+02 -0.11575851604E+02 -0.16531960876E+03  0.22604047122E+03  0.12509000000E+03 0.  0.
         25    1    4    4    0    0 -0.34752720146E+01 -0.22784593528E+01 -0.27089038142E+02  0.12805699114E+03  0.12509000000E+03 0.  0.
         25    1    4    4    0    0 -0.85867960231E+02  0.13854310957E+02 -0.53171118913E+02  0.16136890814E+03  0.12509000000E+03 0.  0.
<mgrwt>
<rscale>  2 0.45320653E+03</rscale>
<asrwt>0</asrwt>
<pdfrwt beam="1">  1       21 0.19844603E-01 0.45320653E+03</pdfrwt>
<pdfrwt beam="2">  1       21 0.55959274E-01 0.45320653E+03</pdfrwt>
<totfact> 0.65118965E+04</totfact>
</mgrwt>
</event>
<event>
 7    0  0.4759581E-002  0.4527230E+03  0.7546771E-02  0.1026913E+00
         21   -1    0    0  502  501  0.00000000000E+00  0.00000000000E+00  0.11315626372E+03  0.11315626372E+03  0.00000000000E+00 0.  1.
         21   -1    0    0  501  502 -0.00000000000E+00 -0.00000000000E+00 -0.45282104847E+03  0.45282104847E+03  0.00000000000E+00 0.  1.
      99926    2    1    2    0    0 -0.14210854715E-13  0.88817841970E-15 -0.33966478475E+03  0.56597731219E+03  0.45272304107E+03 0.  0.
      99925    2    3    3    0    0  0.94006086346E+02 -0.46135290942E+01 -0.28768203403E+03  0.40102840072E+03  0.26306728524E+03 0.  0.
         25    1    3    3    0    0 -0.94006086346E+02  0.46135290942E+01 -0.51982750719E+02  0.16494891146E+03  0.12509000000E+03 0.  0.
         25    1    4    4    0    0  0.52321026394E+02  0.28303656236E+02 -0.18286498545E+03  0.22940291577E+03  0.12509000000E+03 0.  0.
         25    1    4    4    0    0  0.41685059952E+02 -0.32917185330E+02 -0.10481704857E+03  0.17162548495E+03  0.12509000000E+03 0.  0.
<mgrwt>
<rscale>  2 0.45272304E+03</rscale>
<asrwt>0</asrwt>
<pdfrwt beam="1">  1       21 0.16640627E-01 0.45272304E+03</pdfrwt>
<pdfrwt beam="2">  1       21 0.66591330E-01 0.45272304E+03</pdfrwt>
<totfact> 0.61930612E+04</totfact>
</mgrwt>
</event>
<event>
 7    0  0.4759581E-002  0.4556369E+03  0.7546771E-02  0.1026054E+00
         21   -1    0    0  502  501  0.00000000000E+00  0.00000000000E+00  0.35765139453E+03  0.35765139453E+03  0.00000000000E+00 0. -1.
         21   -1    0    0  501  502 -0.00000000000E+00 -0.00000000000E+00 -0.14511683323E+03  0.14511683323E+03  0.00000000000E+00 0. -1.
      99926    2    1    2    0    0  0.00000000000E+00  0.00000000000E+00  0.21253456130E+03  0.50276822777E+03  0.45563686320E+03 0.  0.
      99925    2    3    3    0    0  0.55502448549E+02  0.70686858340E+02  0.21064831610E+03  0.34872855834E+03  0.26298619847E+03 0.  0.
         25    1    4    4    0    0  0.41737630493E+02 -0.29989264096E+01  0.93701102127E+02  0.16179749071E+03  0.12509000000E+03 0.  0.
         25    1    4    4    0    0  0.13764818056E+02  0.73685784750E+02  0.11694721397E+03  0.18693106763E+03  0.12509000000E+03 0.  0.
         25    1    3    3    0    0 -0.55502448549E+02 -0.70686858340E+02  0.18862451991E+01  0.15403966943E+03  0.12509000000E+03 0.  0.
<mgrwt>
<rscale>  2 0.45563686E+03</rscale>
<asrwt>0</asrwt>
<pdfrwt beam="1">  1       21 0.52595793E-01 0.45563686E+03</pdfrwt>
<pdfrwt beam="2">  1       21 0.21340711E-01 0.45563686E+03</pdfrwt>
<totfact> 0.64748681E+04</totfact>
</mgrwt>
</event>
<event>
 7    0  0.4759581E-002  0.4544938E+03  0.7546771E-02  0.1026390E+00
         21   -1    0    0  502  501  0.00000000000E+00  0.00000000000E+00  0.37204364495E+03  0.37204364495E+03  0.00000000000E+00 0. -1.
         21   -1    0    0  501  502 -0.00000000000E+00 -0.00000000000E+00 -0.13880404466E+03  0.13880404466E+03  0.00000000000E+00 0. -1.
      99926    2    1    2    0    0  0.00000000000E+00 -0.35527136788E-14  0.23323960029E+03  0.51084768961E+03  0.45449384027E+03 0.  0.
      99925    2    3    3    0    0  0.10333124133E+03 -0.26167124950E+02  0.10593078155E+03  0.30296044303E+03  0.26306203774E+03 0.  0.
         25    1    4    4    0    0  0.70332158357E+02 -0.44763570424E+02  0.77811674149E+02  0.16927065449E+03  0.12509000000E+03 0.  0.
         25    1    3    3    0    0 -0.10333124133E+03  0.26167124950E+02  0.12730881874E+03  0.20788724658E+03  0.12509000000E+03 0.  0.
         25    1    4    4    0    0  0.32999082969E+02  0.18596445474E+02  0.28119107404E+02  0.13368978855E+03  0.12509000000E+03 0.  0.
<mgrwt>
<rscale>  2 0.45449384E+03</rscale>
<asrwt>0</asrwt>
<pdfrwt beam="1">  1       21 0.54712301E-01 0.45449384E+03</pdfrwt>
<pdfrwt beam="2">  1       21 0.20412360E-01 0.45449384E+03</pdfrwt>
<totfact> 0.64774904E+04</totfact>
</mgrwt>
</event>
<event>
 7    0  0.4759581E-002  0.4538311E+03  0.7546771E-02  0.1026586E+00
         21   -1    0    0  502  501  0.00000000000E+00  0.00000000000E+00  0.26914764403E+04  0.26914764403E+04  0.00000000000E+00 0.  1.
         21   -1    0    0  501  502 -0.00000000000E+00 -0.00000000000E+00 -0.19131010603E+02  0.19131010603E+02  0.00000000000E+00 0.  1.
      99926    2    1    2    0    0  0.00000000000E+00 -0.71054273576E-14  0.26723454297E+04  0.27106074509E+04  0.45383108892E+03 0.  0.
      99925    2    3    3    0    0 -0.92587625090E+02  0.48118797266E+02  0.19277805803E+04  0.19484314804E+04  0.26298171233E+03 0.  0.
         25    1    4    4    0    0 -0.69027303525E+02  0.59899800226E+02  0.10899860463E+04  0.11009404362E+04  0.12509000000E+03 0.  0.
         25    1    4    4    0    0 -0.23560321564E+02 -0.11781002960E+02  0.83779453396E+03  0.84749104421E+03  0.12509000000E+03 0.  0.
         25    1    3    3    0    0  0.92587625090E+02 -0.48118797266E+02  0.74456484940E+03  0.76217597052E+03  0.12509000000E+03 0.  0.
<mgrwt>
<rscale>  2 0.45383109E+03</rscale>
<asrwt>0</asrwt>
<pdfrwt beam="1">  1       21 0.39580510E+00 0.45383109E+03</pdfrwt>
<pdfrwt beam="2">  1       21 0.28133858E-02 0.45383109E+03</pdfrwt>
<totfact> 0.52558514E+03</totfact>
</mgrwt>
</event>
<event>
 7    0  0.4759581E-002  0.4367058E+03  0.7546771E-02  0.1031762E+00
         21   -1    0    0  502  501  0.00000000000E+00  0.00000000000E+00  0.19343344733E+03  0.19343344733E+03  0.00000000000E+00 0.  1.
         21   -1    0    0  501  502 -0.00000000000E+00 -0.00000000000E+00 -0.24648260740E+03  0.24648260740E+03  0.00000000000E+00 0.  1.
      99926    2    1    2    0    0  0.00000000000E+00  0.00000000000E+00 -0.53049160069E+02  0.43991605472E+03  0.43670576114E+03 0.  0.
      99925    2    3    3    0    0  0.49355452170E+02 -0.19025133488E+02  0.45446060667E+02  0.27214617372E+03  0.26305945920E+03 0.  0.
         25    1    4    4    0    0  0.32324985766E+02 -0.45402534226E+02  0.52035345429E+01  0.13704334968E+03  0.12509000000E+03 0.  0.
         25    1    3    3    0    0 -0.49355452170E+02  0.19025133488E+02 -0.98495220736E+02  0.16776988100E+03  0.12509000000E+03 0.  0.
         25    1    4    4    0    0  0.17030466404E+02  0.26377400738E+02  0.40242526124E+02  0.13510282404E+03  0.12509000000E+03 0.  0.
<mgrwt>
<rscale>  2 0.43670576E+03</rscale>
<asrwt>0</asrwt>
<pdfrwt beam="1">  1       21 0.28446095E-01 0.43670576E+03</pdfrwt>
<pdfrwt beam="2">  1       21 0.36247442E-01 0.43670576E+03</pdfrwt>
<totfact> 0.80834842E+04</totfact>
</mgrwt>
</event>
<event>
 7    0  0.4759581E-002  0.4639432E+03  0.7546771E-02  0.1023644E+00
         21   -1    0    0  502  501  0.00000000000E+00  0.00000000000E+00  0.78011604827E+02  0.78011604827E+02  0.00000000000E+00 0.  1.
         21   -1    0    0  501  502 -0.00000000000E+00 -0.00000000000E+00 -0.68977963045E+03  0.68977963045E+03  0.00000000000E+00 0.  1.
      99926    2    1    2    0    0  0.00000000000E+00  0.00000000000E+00 -0.61176802562E+03  0.76779123528E+03  0.46394316871E+03 0.  0.
      99925    2    3    3    0    0  0.47533512559E+02 -0.62980893802E+02 -0.53522353937E+03  0.60126017428E+03  0.26234239513E+03 0.  0.
         25    1    4    4    0    0  0.10742501230E+02 -0.23793142830E+01 -0.30483358875E+03  0.32968483040E+03  0.12509000000E+03 0.  0.
         25    1    4    4    0    0  0.36791011329E+02 -0.60601579519E+02 -0.23038995062E+03  0.27157534388E+03  0.12509000000E+03 0.  0.
         25    1    3    3    0    0 -0.47533512559E+02  0.62980893802E+02 -0.76544486251E+02  0.16653106099E+03  0.12509000000E+03 0.  0.
<mgrwt>
<rscale>  2 0.46394317E+03</rscale>
<asrwt>0</asrwt>
<pdfrwt beam="1">  1       21 0.11472294E-01 0.46394317E+03</pdfrwt>
<pdfrwt beam="2">  1       21 0.10143818E+00 0.46394317E+03</pdfrwt>
<totfact> 0.46043400E+04</totfact>
</mgrwt>
</event>
<event>
 7    0  0.4759581E-002  0.4604344E+03  0.7546771E-02  0.1024655E+00
         21   -1    0    0  502  501  0.00000000000E+00  0.00000000000E+00  0.20001894199E+03  0.20001894199E+03  0.00000000000E+00 0. -1.
         21   -1    0    0  501  502 -0.00000000000E+00 -0.00000000000E+00 -0.26497474462E+03  0.26497474462E+03  0.00000000000E+00 0. -1.
      99926    2    1    2    0    0  0.00000000000E+00  0.00000000000E+00 -0.64955802627E+02  0.46499368661E+03  0.46043443865E+03 0.  0.
      99925    2    3    3    0    0 -0.89553421464E+02  0.69239661772E+02 -0.74982311015E+02  0.29599077235E+03  0.26300996995E+03 0.  0.
         25    1    3    3    0    0  0.89553421464E+02 -0.69239661772E+02  0.10026508388E+02  0.16900291426E+03  0.12509000000E+03 0.  0.
         25    1    4    4    0    0 -0.26753032353E+02  0.13929803592E+02 -0.19123880994E+01  0.12868927499E+03  0.12509000000E+03 0.  0.
         25    1    4    4    0    0 -0.62800389111E+02  0.55309858181E+02 -0.73069922916E+02  0.16730149736E+03  0.12509000000E+03 0.  0.
<mgrwt>
<rscale>  2 0.46043444E+03</rscale>
<asrwt>0</asrwt>
<pdfrwt beam="1">  1       21 0.29414550E-01 0.46043444E+03</pdfrwt>
<pdfrwt beam="2">  1       21 0.38966874E-01 0.46043444E+03</pdfrwt>
<totfact> 0.64957062E+04</totfact>
</mgrwt>
</event>
<event>
 7    0  0.4759581E-002  0.4584842E+03  0.7546771E-02  0.1025222E+00
         21   -1    0    0  502  501  0.00000000000E+00  0.00000000000E+00  0.63656859163E+03  0.63656859163E+03  0.00000000000E+00 0. -1.
         21   -1    0    0  501  502 -0.00000000000E+00 -0.00000000000E+00 -0.82555048162E+02  0.82555048162E+02  0.00000000000E+00 0. -1.
      99926    2    1    2    0    0  0.35527136788E-14  0.00000000000E+00  0.55401354347E+03  0.71912363979E+03  0.45848424505E+03 0.  0.
      99925    2    3    3    0    0 -0.26090938725E+02 -0.91158432193E+02  0.24174142110E+03  0.36962116004E+03  0.26304047299E+03 0.  0.
         25    1    4    4    0    0 -0.47618161178E+02 -0.55809882305E+02  0.10033145294E+03  0.17634097875E+03  0.12509000000E+03 0.  0.
         25    1    4    4    0    0  0.21527222453E+02 -0.35348549888E+02  0.14140996816E+03  0.19328018129E+03  0.12509000000E+03 0.  0.
         25    1    3    3    0    0  0.26090938725E+02  0.91158432193E+02  0.31227212237E+03  0.34950247975E+03  0.12509000000E+03 0.  0.
<mgrwt>
<rscale>  2 0.45848425E+03</rscale>
<asrwt>0</asrwt>
<pdfrwt beam="1">  1       21 0.93613026E-01 0.45848425E+03</pdfrwt>
<pdfrwt beam="2">  1       21 0.12140449E-01 0.45848425E+03</pdfrwt>
<totfact> 0.50479228E+04</totfact>
</mgrwt>
</event>
<event>
 7    0  0.4759581E-002  0.4452238E+03  0.7546771E-02  0.1029156E+00
         21   -1    0    0  502  501  0.00000000000E+00  0.00000000000E+00  0.55094710322E+02  0.55094710322E+02  0.00000000000E+00 0.  1.
         21   -1    0    0  501  502 -0.00000000000E+00 -0.00000000000E+00 -0.89947034881E+03  0.89947034881E+03  0.00000000000E+00 0.  1.
      99926    2    1    2    0    0  0.00000000000E+00  0.00000000000E+00 -0.84437563849E+03  0.95456505914E+03  0.44522380130E+03 0.  0.
      99925    2    3    3    0    0 -0.26087886394E+02  0.10012275528E+03 -0.54715236380E+03  0.61589955002E+03  0.26315661225E+03 0.  0.
         25    1    3    3    0    0  0.26087886394E+02 -0.10012275528E+03 -0.29722327469E+03  0.33866550911E+03  0.12509000000E+03 0.  0.
         25    1    4    4    0    0 -0.25298214583E+02  0.10105311345E+02 -0.22793945694E+03  0.26143071952E+03  0.12509000000E+03 0.  0.
         25    1    4    4    0    0 -0.78967181101E+00  0.90017443937E+02 -0.31921290686E+03  0.35446883050E+03  0.12509000000E+03 0.  0.
<mgrwt>
<rscale>  2 0.44522380E+03</rscale>
<asrwt>0</asrwt>
<pdfrwt beam="1">  1       21 0.81021631E-02 0.44522380E+03</pdfrwt>
<pdfrwt beam="2">  1       21 0.13227505E+00 0.44522380E+03</pdfrwt>
<totfact> 0.44242980E+04</totfact>
</mgrwt>
</event>
<event>
 7    0  0.4759581E-002  0.4516168E+03  0.7546771E-02  0.1027241E+00
         21   -1    0    0  502  501  0.00000000000E+00  0.00000000000E+00  0.20869445011E+02  0.20869445011E+02  0.00000000000E+00 0.  1.
         21   -1    0    0  501  502 -0.00000000000E+00 -0.00000000000E+00 -0.24432577332E+04  0.24432577332E+04  0.00000000000E+00 0.  1.
      99926    2    1    2    0    0  0.00000000000E+00  0.00000000000E+00 -0.24223882881E+04  0.24641271782E+04  0.45161679734E+03 0.  0.
      99925    2    3    3    0    0  0.13304147329E+02  0.78175090048E+02 -0.19444796176E+04  0.19637947382E+04  0.26305977520E+03 0.  0.
         25    1    3    3    0    0 -0.13304147329E+02 -0.78175090048E+02 -0.47790867054E+03  0.50033244000E+03  0.12509000000E+03 0.  0.
         25    1    4    4    0    0  0.25534617390E+02  0.68193497274E+02 -0.87223642191E+03  0.88416415532E+03  0.12509000000E+03 0.  0.
         25    1    4    4    0    0 -0.12230470060E+02  0.99815927740E+01 -0.10722431957E+04  0.10796305828E+04  0.12509000000E+03 0.  0.
<mgrwt>
<rscale>  2 0.45161680E+03</rscale>
<asrwt>0</asrwt>
<pdfrwt beam="1">  1       21 0.30690374E-02 0.45161680E+03</pdfrwt>
<pdfrwt beam="2">  1       21 0.35930245E+00 0.45161680E+03</pdfrwt>
<totfact> 0.77065840E+03</totfact>
</mgrwt>
</event>
<event>
 7    0  0.4759581E-002  0.4560504E+03  0.7546771E-02  0.1025933E+00
         21   -1    0    0  502  501  0.00000000000E+00  0.00000000000E+00  0.47948077220E+02  0.47948077220E+02  0.00000000000E+00 0. -1.
         21   -1    0    0  501  502 -0.00000000000E+00 -0.00000000000E+00 -0.10844125062E+04  0.10844125062E+04  0.00000000000E+00 0. -1.
      99926    2    1    2    0    0  0.00000000000E+00  0.00000000000E+00 -0.10364644290E+04  0.11323605834E+04  0.45605041206E+03 0.  0.
      99925    2    3    3    0    0  0.23747768592E+02 -0.80439333229E+02 -0.84400529325E+03  0.88797877177E+03  0.26291999015E+03 0.  0.
         25    1    3    3    0    0 -0.23747768592E+02  0.80439333229E+02 -0.19245913572E+03  0.24438181165E+03  0.12509000000E+03 0.  0.
         25    1    4    4    0    0  0.92172727847E+01 -0.61772565883E+02 -0.55194445572E+03  0.56937772902E+03  0.12509000000E+03 0.  0.
         25    1    4    4    0    0  0.14530495807E+02 -0.18666767346E+02 -0.29206083754E+03  0.31860104274E+03  0.12509000000E+03 0.  0.
<mgrwt>
<rscale>  2 0.45605041E+03</rscale>
<asrwt>0</asrwt>
<pdfrwt beam="1">  1       21 0.70511885E-02 0.45605041E+03</pdfrwt>
<pdfrwt beam="2">  1       21 0.15947241E+00 0.45605041E+03</pdfrwt>
<totfact> 0.34096759E+04</totfact>
</mgrwt>
</event>
<event>
 7    0  0.4759581E-002  0.4571087E+03  0.7546771E-02  0.1025623E+00
         21   -1    0    0  502  501  0.00000000000E+00  0.00000000000E+00  0.17518238878E+03  0.17518238878E+03  0.00000000000E+00 0. -1.
         21   -1    0    0  501  502 -0.00000000000E+00 -0.00000000000E+00 -0.29818692404E+03  0.29818692404E+03  0.00000000000E+00 0. -1.
      99926    2    1    2    0    0 -0.35527136788E-14  0.14210854715E-13 -0.12300453526E+03  0.47336931282E+03  0.45710872955E+03 0.  0.
      99925    2    3    3    0    0 -0.21694921658E+02  0.11282617665E+03 -0.85873481359E+02  0.29951121256E+03  0.26293021106E+03 0.  0.
         25    1    3    3    0    0  0.21694921658E+02 -0.11282617665E+03 -0.37131053898E+02  0.17385810026E+03  0.12509000000E+03 0.  0.
         25    1    4    4    0    0 -0.12019115428E+02  0.12494182555E+02 -0.38533266404E+02  0.13203364894E+03  0.12509000000E+03 0.  0.
         25    1    4    4    0    0 -0.96758062297E+01  0.10033199409E+03 -0.47340214954E+02  0.16747756362E+03  0.12509000000E+03 0.  0.
<mgrwt>
<rscale>  2 0.45710873E+03</rscale>
<asrwt>0</asrwt>
<pdfrwt beam="1">  1       21 0.25762116E-01 0.45710873E+03</pdfrwt>
<pdfrwt beam="2">  1       21 0.43851018E-01 0.45710873E+03</pdfrwt>
<totfact> 0.66073624E+04</totfact>
</mgrwt>
</event>
<event>
 7    0  0.4759581E-002  0.4408928E+03  0.7546771E-02  0.1030473E+00
         21   -1    0    0  502  501  0.00000000000E+00  0.00000000000E+00  0.21277959634E+03  0.21277959634E+03  0.00000000000E+00 0. -1.
         21   -1    0    0  501  502 -0.00000000000E+00 -0.00000000000E+00 -0.22838940448E+03  0.22838940448E+03  0.00000000000E+00 0. -1.
      99926    2    1    2    0    0  0.00000000000E+00  0.00000000000E+00 -0.15609808131E+02  0.44116900082E+03  0.44089275473E+03 0.  0.
      99925    2    3    3    0    0 -0.67982386771E+02 -0.65877419657E+02  0.20319302555E+02  0.28023470234E+03  0.26297751807E+03 0.  0.
         25    1    4    4    0    0 -0.29645274381E+02 -0.24741991608E+02 -0.29717657706E+02  0.13424476050E+03  0.12509000000E+03 0.  0.
         25    1    4    4    0    0 -0.38337112390E+02 -0.41135428049E+02  0.50036960261E+02  0.14598994184E+03  0.12509000000E+03 0.  0.
         25    1    3    3    0    0  0.67982386771E+02  0.65877419657E+02 -0.35929110686E+02  0.16093429848E+03  0.12509000000E+03 0.  0.
<mgrwt>
<rscale>  2 0.44089275E+03</rscale>
<asrwt>0</asrwt>
<pdfrwt beam="1">  1       21 0.31291117E-01 0.44089275E+03</pdfrwt>
<pdfrwt beam="2">  1       21 0.33586677E-01 0.44089275E+03</pdfrwt>
<totfact> 0.77986594E+04</totfact>
</mgrwt>
</event>
<event>
 7    0  0.4759581E-002  0.4650268E+03  0.7546771E-02  0.1023333E+00
         21   -1    0    0  502  501  0.00000000000E+00  0.00000000000E+00  0.16639891182E+03  0.16639891182E+03  0.00000000000E+00 0. -1.
         21   -1    0    0  501  502 -0.00000000000E+00 -0.00000000000E+00 -0.32489686588E+03  0.32489686588E+03  0.00000000000E+00 0. -1.
      99926    2    1    2    0    0  0.00000000000E+00  0.00000000000E+00 -0.15849795406E+03  0.49129577770E+03  0.46502681616E+03 0.  0.
      99925    2    3    3    0    0  0.79802076898E+02  0.76984842520E+02 -0.44231309796E+02  0.28881266347E+03  0.26298537671E+03 0.  0.
         25    1    4    4    0    0  0.36236875442E+02 -0.36989757321E+01 -0.21994062737E+02  0.13212887822E+03  0.12509000000E+03 0.  0.
         25    1    3    3    0    0 -0.79802076898E+02 -0.76984842520E+02 -0.11426664427E+03  0.20248311423E+03  0.12509000000E+03 0.  0.
         25    1    4    4    0    0  0.43565201456E+02  0.80683818252E+02 -0.22237247058E+02  0.15668378526E+03  0.12509000000E+03 0.  0.
<mgrwt>
<rscale>  2 0.46502682E+03</rscale>
<asrwt>0</asrwt>
<pdfrwt beam="1">  1       21 0.24470429E-01 0.46502682E+03</pdfrwt>
<pdfrwt beam="2">  1       21 0.47778950E-01 0.46502682E+03</pdfrwt>
<totfact> 0.60893442E+04</totfact>
</mgrwt>
</event>
<event>
 7    0  0.4759581E-002  0.4529331E+03  0.7546771E-02  0.1026851E+00
         21   -1    0    0  502  501  0.00000000000E+00  0.00000000000E+00  0.96650607720E+03  0.96650607720E+03  0.00000000000E+00 0.  1.
         21   -1    0    0  501  502 -0.00000000000E+00 -0.00000000000E+00 -0.53064443747E+02  0.53064443747E+02  0.00000000000E+00 0.  1.
      99926    2    1    2    0    0  0.00000000000E+00 -0.71054273576E-14  0.91344163345E+03  0.10195705209E+04  0.45293314016E+03 0.  0.
      99925    2    3    3    0    0  0.48140816006E+02  0.42085787334E+02  0.78076260419E+03  0.82633495339E+03  0.26296474942E+03 0.  0.
         25    1    3    3    0    0 -0.48140816006E+02 -0.42085787334E+02  0.13267902926E+03  0.19323556755E+03  0.12509000000E+03 0.  0.
         25    1    4    4    0    0  0.28102024052E+02  0.61638701714E+02  0.42600946730E+03  0.44913319587E+03  0.12509000000E+03 0.  0.
         25    1    4    4    0    0  0.20038791954E+02 -0.19552914379E+02  0.35475313689E+03  0.37720175752E+03  0.12509000000E+03 0.  0.
<mgrwt>
<rscale>  2 0.45293314E+03</rscale>
<asrwt>0</asrwt>
<pdfrwt beam="1">  1       21 0.14213324E+00 0.45293314E+03</pdfrwt>
<pdfrwt beam="2">  1       21 0.78035953E-02 0.45293314E+03</pdfrwt>
<totfact> 0.39040333E+04</totfact>
</mgrwt>
</event>
<event>
 7    0  0.4759581E-002  0.4500979E+03  0.7546771E-02  0.1027693E+00
         21   -1    0    0  502  501  0.00000000000E+00  0.00000000000E+00  0.41102827522E+02  0.41102827522E+02  0.00000000000E+00 0. -1.
         21   -1    0    0  501  502 -0.00000000000E+00 -0.00000000000E+00 -0.12322031280E+04  0.12322031280E+04  0.00000000000E+00 0. -1.
      99926    2    1    2    0    0  0.00000000000E+00  0.00000000000E+00 -0.11911003004E+04  0.12733059555E+04  0.45009791219E+03 0.  0.
      99925    2    3    3    0    0  0.96203931529E+01  0.63068238335E+02 -0.10016882487E+04  0.10375209091E+04  0.26267876692E+03 0.  0.
         25    1    4    4    0    0 -0.46132233796E+01  0.65371674119E+02 -0.44964741691E+03  0.47130143777E+03  0.12509000000E+03 0.  0.
         25    1    3    3    0    0 -0.96203931529E+01 -0.63068238335E+02 -0.18941205172E+03  0.23578504636E+03  0.12509000000E+03 0.  0.
         25    1    4    4    0    0  0.14233616532E+02 -0.23034357849E+01 -0.55204083181E+03  0.56621947136E+03  0.12509000000E+03 0.  0.
<mgrwt>
<rscale>  2 0.45009791E+03</rscale>
<asrwt>0</asrwt>
<pdfrwt beam="1">  1       21 0.60445344E-02 0.45009791E+03</pdfrwt>
<pdfrwt beam="2">  1       21 0.18120632E+00 0.45009791E+03</pdfrwt>
<totfact> 0.31068030E+04</totfact>
</mgrwt>
</event>
<event>
 7    0  0.4759581E-002  0.4535303E+03  0.7546771E-02  0.1026674E+00
         21   -1    0    0  502  501  0.00000000000E+00  0.00000000000E+00  0.16668643282E+04  0.16668643282E+04  0.00000000000E+00 0. -1.
         21   -1    0    0  501  502 -0.00000000000E+00 -0.00000000000E+00 -0.30849801361E+02  0.30849801361E+02  0.00000000000E+00 0. -1.
      99926    2    1    2    0    0  0.00000000000E+00  0.00000000000E+00  0.16360145268E+04  0.16977141295E+04  0.45353030073E+03 0.  0.
      99925    2    3    3    0    0 -0.10803880925E+03  0.59905367070E+01  0.91598923738E+03  0.95893662828E+03  0.26232594845E+03 0.  0.
         25    1    4    4    0    0 -0.80749114578E+02  0.29066933188E+02  0.54887338027E+03  0.56945131643E+03  0.12509000000E+03 0.  0.
         25    1    3    3    0    0  0.10803880925E+03 -0.59905367070E+01  0.72002528943E+03  0.73877750125E+03  0.12509000000E+03 0.  0.
         25    1    4    4    0    0 -0.27289694675E+02 -0.23076396481E+02  0.36711585710E+03  0.38948531185E+03  0.12509000000E+03 0.  0.
<mgrwt>
<rscale>  2 0.45353030E+03</rscale>
<asrwt>0</asrwt>
<pdfrwt beam="1">  1       21 0.24512705E+00 0.45353030E+03</pdfrwt>
<pdfrwt beam="2">  1       21 0.45367366E-02 0.45353030E+03</pdfrwt>
<totfact> 0.19531151E+04</totfact>
</mgrwt>
</event>
<event>
 7    0  0.4759581E-002  0.4519501E+03  0.7546771E-02  0.1027142E+00
         21   -1    0    0  502  501  0.00000000000E+00  0.00000000000E+00  0.35621919077E+03  0.35621919077E+03  0.00000000000E+00 0. -1.
         21   -1    0    0  501  502 -0.00000000000E+00 -0.00000000000E+00 -0.14335198041E+03  0.14335198041E+03  0.00000000000E+00 0. -1.
      99926    2    1    2    0    0 -0.71054273576E-14  0.00000000000E+00  0.21286721036E+03  0.49957117117E+03  0.45195011431E+03 0.  0.
      99925    2    3    3    0    0  0.40645790127E+02  0.99472144901E+02  0.16208499319E+03  0.32702225189E+03  0.26291675554E+03 0.  0.
         25    1    4    4    0    0  0.47082422471E+02  0.62870931678E+02  0.11874786606E+03  0.18952063832E+03  0.12509000000E+03 0.  0.
         25    1    3    3    0    0 -0.40645790127E+02 -0.99472144901E+02  0.50782217169E+02  0.17254891929E+03  0.12509000000E+03 0.  0.
         25    1    4    4    0    0 -0.64366323438E+01  0.36601213223E+02  0.43337127135E+02  0.13750161357E+03  0.12509000000E+03 0.  0.
<mgrwt>
<rscale>  2 0.45195011E+03</rscale>
<asrwt>0</asrwt>
<pdfrwt beam="1">  1       21 0.52385175E-01 0.45195011E+03</pdfrwt>
<pdfrwt beam="2">  1       21 0.21081174E-01 0.45195011E+03</pdfrwt>
<totfact> 0.66905953E+04</totfact>
</mgrwt>
</event>
<event>
 7    0  0.4759581E-002  0.4553534E+03  0.7546771E-02  0.1026138E+00
         21   -1    0    0  502  501  0.00000000000E+00  0.00000000000E+00  0.69515638729E+02  0.69515638729E+02  0.00000000000E+00 0. -1.
         21   -1    0    0  501  502 -0.00000000000E+00 -0.00000000000E+00 -0.74568379094E+03  0.74568379094E+03  0.00000000000E+00 0. -1.
      99926    2    1    2    0    0  0.00000000000E+00  0.00000000000E+00 -0.67616815221E+03  0.81519942967E+03  0.45535342325E+03 0.  0.
      99925    2    3    3    0    0  0.80788982114E+02  0.76455742445E+02 -0.46527096172E+03  0.54594588143E+03  0.26307317887E+03 0.  0.
         25    1    4    4    0    0 -0.69755515002E+00  0.24203367786E+02 -0.21210124542E+03  0.24742824415E+03  0.12509000000E+03 0.  0.
         25    1    3    3    0    0 -0.80788982114E+02 -0.76455742445E+02 -0.21089719049E+03  0.26925354824E+03  0.12509000000E+03 0.  0.
         25    1    4    4    0    0  0.81486537264E+02  0.52252374659E+02 -0.25316971630E+03  0.29851763727E+03  0.12509000000E+03 0.  0.
<mgrwt>
<rscale>  2 0.45535342E+03</rscale>
<asrwt>0</asrwt>
<pdfrwt beam="1">  1       21 0.10222888E-01 0.45535342E+03</pdfrwt>
<pdfrwt beam="2">  1       21 0.10965938E+00 0.45535342E+03</pdfrwt>
<totfact> 0.46908182E+04</totfact>
</mgrwt>
</event>
<event>
 7    0  0.4759581E-002  0.4352265E+03  0.7546771E-02  0.1032222E+00
         21   -1    0    0  502  501  0.00000000000E+00  0.00000000000E+00  0.19856511870E+03  0.19856511870E+03  0.00000000000E+00 0. -1.
         21   -1    0    0  501  502 -0.00000000000E+00 -0.00000000000E+00 -0.23848862185E+03  0.23848862185E+03  0.00000000000E+00 0. -1.
      99926    2    1    2    0    0  0.00000000000E+00 -0.71054273576E-14 -0.39923503152E+02  0.43705374055E+03  0.43522647670E+03 0.  0.
      99925    2    3    3    0    0 -0.66957306224E+02  0.61556470764E+02 -0.47382375975E+02  0.28221310365E+03  0.26291950550E+03 0.  0.
         25    1    3    3    0    0  0.66957306224E+02 -0.61556470764E+02  0.74588728228E+01  0.15484063689E+03  0.12509000000E+03 0.  0.
         25    1    4    4    0    0 -0.97709307979E+00  0.22116690445E+02 -0.46831001462E+02  0.13539111309E+03  0.12509000000E+03 0.  0.
         25    1    4    4    0    0 -0.65980213145E+02  0.39439780319E+02 -0.55137451302E+00  0.14682199056E+03  0.12509000000E+03 0.  0.
<mgrwt>
<rscale>  2 0.43522648E+03</rscale>
<asrwt>0</asrwt>
<pdfrwt beam="1">  1       21 0.29200753E-01 0.43522648E+03</pdfrwt>
<pdfrwt beam="2">  1       21 0.35071856E-01 0.43522648E+03</pdfrwt>
<totfact> 0.82087024E+04</totfact>
</mgrwt>
</event>
<event>
 7    0  0.4759581E-002  0.4466045E+03  0.7546771E-02  0.1028739E+00
         21   -1    0    0  502  501  0.00000000000E+00  0.00000000000E+00  0.18507645303E+03  0.18507645303E+03  0.00000000000E+00 0.  1.
         21   -1    0    0  501  502 -0.00000000000E+00 -0.00000000000E+00 -0.26942322874E+03  0.26942322874E+03  0.00000000000E+00 0.  1.
      99926    2    1    2    0    0 -0.44408920985E-15  0.00000000000E+00 -0.84346775713E+02  0.45449968177E+03  0.44660450307E+03 0.  0.
      99925    2    3    3    0    0 -0.20013827702E+01 -0.99037323065E+02 -0.88406449307E+02  0.29488644316E+03  0.26330574848E+03 0.  0.
         25    1    4    4    0    0 -0.53589461411E+01 -0.42240919946E+02 -0.85590090986E+02  0.15743628996E+03  0.12509000000E+03 0.  0.
         25    1    4    4    0    0  0.33575633710E+01 -0.56796403119E+02 -0.28163583209E+01  0.13745015319E+03  0.12509000000E+03 0.  0.
         25    1    3    3    0    0  0.20013827702E+01  0.99037323065E+02  0.40596735936E+01  0.15961323862E+03  0.12509000000E+03 0.  0.
<mgrwt>
<rscale>  2 0.44660450E+03</rscale>
<asrwt>0</asrwt>
<pdfrwt beam="1">  1       21 0.27217126E-01 0.44660450E+03</pdfrwt>
<pdfrwt beam="2">  1       21 0.39621062E-01 0.44660450E+03</pdfrwt>
<totfact> 0.73372696E+04</totfact>
</mgrwt>
</event>
<event>
 7    0  0.4759581E-002  0.4439284E+03  0.7546771E-02  0.1029548E+00
         21   -1    0    0  502  501  0.00000000000E+00  0.00000000000E+00  0.24804751381E+03  0.24804751381E+03  0.00000000000E+00 0. -1.
         21   -1    0    0  501  502 -0.00000000000E+00 -0.00000000000E+00 -0.19862366298E+03  0.19862366298E+03  0.00000000000E+00 0. -1.
      99926    2    1    2    0    0  0.00000000000E+00  0.00000000000E+00  0.49423850837E+02  0.44667117679E+03  0.44392839867E+03 0.  0.
      99925    2    3    3    0    0  0.47867748128E+02  0.81451350121E+02 -0.10380584193E+02  0.27889238702E+03  0.26219756533E+03 0.  0.
         25    1    3    3    0    0 -0.47867748128E+02 -0.81451350121E+02  0.59804435030E+02  0.16777878977E+03  0.12509000000E+03 0.  0.
         25    1    4    4    0    0  0.44885022691E+02  0.37810151351E+02 -0.38473899930E+02  0.14342950144E+03  0.12509000000E+03 0.  0.
         25    1    4    4    0    0  0.29827254361E+01  0.43641198770E+02  0.28093315737E+02  0.13546288558E+03  0.12509000000E+03 0.  0.
<mgrwt>
<rscale>  2 0.44392840E+03</rscale>
<asrwt>0</asrwt>
<pdfrwt beam="1">  1       21 0.36477576E-01 0.44392840E+03</pdfrwt>
<pdfrwt beam="2">  1       21 0.29209362E-01 0.44392840E+03</pdfrwt>
<totfact> 0.75622795E+04</totfact>
</mgrwt>
</event>
<event>
 7    0  0.4759581E-002  0.4493991E+03  0.7546771E-02  0.1027901E+00
         21   -1    0    0  502  501  0.00000000000E+00  0.00000000000E+00  0.16209888301E+03  0.16209888301E+03  0.00000000000E+00 0.  1.
         21   -1    0    0  501  502 -0.00000000000E+00 -0.00000000000E+00 -0.31147586754E+03  0.31147586754E+03  0.00000000000E+00 0.  1.
      99926    2    1    2    0    0  0.00000000000E+00 -0.71054273576E-14 -0.14937698453E+03  0.47357475055E+03  0.44939911087E+03 0.  0.
      99925    2    3    3    0    0  0.16479664840E+02  0.43118118474E+02  0.78001667469E+01  0.26746090707E+03  0.26333200093E+03 0.  0.
         25    1    4    4    0    0  0.48057010254E+01 -0.19960967618E+02  0.30323419211E+01  0.12679999286E+03  0.12509000000E+03 0.  0.
         25    1    4    4    0    0  0.11673963815E+02  0.63079086092E+02  0.47678248258E+01  0.14066091421E+03  0.12509000000E+03 0.  0.
         25    1    3    3    0    0 -0.16479664840E+02 -0.43118118474E+02 -0.15717715127E+03  0.20611384349E+03  0.12509000000E+03 0.  0.
<mgrwt>
<rscale>  2 0.44939911E+03</rscale>
<asrwt>0</asrwt>
<pdfrwt beam="1">  1       21 0.23838071E-01 0.44939911E+03</pdfrwt>
<pdfrwt beam="2">  1       21 0.45805274E-01 0.44939911E+03</pdfrwt>
<totfact> 0.70241661E+04</totfact>
</mgrwt>
</event>
<event>
 7    0  0.4759581E-002  0.4556674E+03  0.7546771E-02  0.1026045E+00
         21   -1    0    0  502  501  0.00000000000E+00  0.00000000000E+00  0.39131806458E+03  0.39131806458E+03  0.00000000000E+00 0.  1.
         21   -1    0    0  501  502 -0.00000000000E+00 -0.00000000000E+00 -0.13264961349E+03  0.13264961349E+03  0.00000000000E+00 0.  1.
      99926    2    1    2    0    0  0.14210854715E-13  0.00000000000E+00  0.25866845109E+03  0.52396767807E+03  0.45566737877E+03 0.  0.
      99925    2    3    3    0    0 -0.62494402723E+02  0.89839946067E+02  0.19805534225E+03  0.34705463914E+03  0.26314299852E+03 0.  0.
         25    1    4    4    0    0 -0.66963206295E+02  0.45577204772E+02  0.13050776499E+03  0.19809375915E+03  0.12509000000E+03 0.  0.
         25    1    4    4    0    0  0.44688035715E+01  0.44262741294E+02  0.67547577265E+02  0.14896087999E+03  0.12509000000E+03 0.  0.
         25    1    3    3    0    0  0.62494402723E+02 -0.89839946067E+02  0.60613108839E+02  0.17691303893E+03  0.12509000000E+03 0.  0.
<mgrwt>
<rscale>  2 0.45566738E+03</rscale>
<asrwt>0</asrwt>
<pdfrwt beam="1">  1       21 0.57546774E-01 0.45566738E+03</pdfrwt>
<pdfrwt beam="2">  1       21 0.19507296E-01 0.45566738E+03</pdfrwt>
<totfact> 0.63281226E+04</totfact>
</mgrwt>
</event>
<event>
 7    0  0.4759581E-002  0.4566263E+03  0.7546771E-02  0.1025764E+00
         21   -1    0    0  502  501  0.00000000000E+00  0.00000000000E+00  0.14591248573E+03  0.14591248573E+03  0.00000000000E+00 0.  1.
         21   -1    0    0  501  502 -0.00000000000E+00 -0.00000000000E+00 -0.35724771278E+03  0.35724771278E+03  0.00000000000E+00 0.  1.
      99926    2    1    2    0    0  0.00000000000E+00  0.00000000000E+00 -0.21133522706E+03  0.50316019851E+03  0.45662633210E+03 0.  0.
      99925    2    3    3    0    0 -0.31192549091E+02 -0.49300557707E+02 -0.24392372489E+02  0.27078408295E+03  0.26329738250E+03 0.  0.
         25    1    3    3    0    0  0.31192549091E+02  0.49300557707E+02 -0.18694285457E+03  0.23237611556E+03  0.12509000000E+03 0.  0.
         25    1    4    4    0    0 -0.38464266701E+02  0.91010742723E+01 -0.60056630081E+01  0.13132366677E+03  0.12509000000E+03 0.  0.
         25    1    4    4    0    0  0.72717176108E+01 -0.58401631979E+02 -0.18386709481E+02  0.13946041618E+03  0.12509000000E+03 0.  0.
<mgrwt>
<rscale>  2 0.45662633E+03</rscale>
<asrwt>0</asrwt>
<pdfrwt beam="1">  1       21 0.21457719E-01 0.45662633E+03</pdfrwt>
<pdfrwt beam="2">  1       21 0.52536427E-01 0.45662633E+03</pdfrwt>
<totfact> 0.64216209E+04</totfact>
</mgrwt>
</event>
<event>
 7    0  0.4759581E-002  0.4547790E+03  0.7546771E-02  0.1026306E+00
         21   -1    0    0  502  501  0.00000000000E+00  0.00000000000E+00  0.59674794339E+02  0.59674794339E+02  0.00000000000E+00 0.  1.
         21   -1    0    0  501  502 -0.00000000000E+00 -0.00000000000E+00 -0.86646290085E+03  0.86646290085E+03  0.00000000000E+00 0.  1.
      99926    2    1    2    0    0  0.00000000000E+00  0.35527136788E-14 -0.80678810651E+03  0.92613769519E+03  0.45477904706E+03 0.  0.
      99925    2    3    3    0    0 -0.89660175197E+02 -0.29172935966E+02 -0.38086719758E+03  0.47232480867E+03  0.26294656393E+03 0.  0.
         25    1    3    3    0    0  0.89660175197E+02  0.29172935966E+02 -0.42592090893E+03  0.45381288652E+03  0.12509000000E+03 0.  0.
         25    1    4    4    0    0 -0.96999041384E+01 -0.37510228183E+00 -0.20531500547E+03  0.24061585237E+03  0.12509000000E+03 0.  0.
         25    1    4    4    0    0 -0.79960271059E+02 -0.28797833684E+02 -0.17555219212E+03  0.23170895630E+03  0.12509000000E+03 0.  0.
<mgrwt>
<rscale>  2 0.45477905E+03</rscale>
<asrwt>0</asrwt>
<pdfrwt beam="1">  1       21 0.87757052E-02 0.45477905E+03</pdfrwt>
<pdfrwt beam="2">  1       21 0.12742101E+00 0.45477905E+03</pdfrwt>
<totfact> 0.42195395E+04</totfact>
</mgrwt>
</event>
<event>
 6    0  0.4759581E-002  0.4568456E+03  0.7546771E-02  0.1025700E+00
         21   -1    0    0  502  501  0.00000000000E+00  0.00000000000E+00  0.49449894351E+02  0.49449894351E+02  0.00000000000E+00 0. -1.
         21   -1    0    0  501  502 -0.00000000000E+00 -0.00000000000E+00 -0.10551482369E+04  0.10551482369E+04  0.00000000000E+00 0. -1.
      99926    2    1    2    0    0  0.26645352591E-14  0.00000000000E+00 -0.10056983426E+04  0.11045981313E+04  0.45684557058E+03 0.  0.
         25    1    3    3    0    0  0.76169428956E+01  0.95553342333E+02 -0.22635209063E+03  0.27581014499E+03  0.12509000000E+03 0.  0.
         25    1    3    3    0    0  0.15350496469E+02 -0.89481165009E+02 -0.43733652400E+03  0.46384615979E+03  0.12509000000E+03 0.  0.
         25    1    3    3    0    0 -0.22967439365E+02 -0.60721773245E+01 -0.34200972796E+03  0.36494182650E+03  0.12509000000E+03 0.  0.
<mgrwt>
<rscale>  2 0.45684557E+03</rscale>
<asrwt>0</asrwt>
<pdfrwt beam="1">  1       21 0.72720444E-02 0.45684557E+03</pdfrwt>
<pdfrwt beam="2">  1       21 0.15516884E+00 0.45684557E+03</pdfrwt>
<totfact> 0.34830779E+04</totfact>
</mgrwt>
</event>
<event>
 7    0  0.4759581E-002  0.4553991E+03  0.7546771E-02  0.1026124E+00
         21   -1    0    0  502  501  0.00000000000E+00  0.00000000000E+00  0.67235852937E+03  0.67235852937E+03  0.00000000000E+00 0. -1.
         21   -1    0    0  501  502 -0.00000000000E+00 -0.00000000000E+00 -0.77112252337E+02  0.77112252337E+02  0.00000000000E+00 0. -1.
      99926    2    1    2    0    0  0.35527136788E-14  0.00000000000E+00  0.59524627704E+03  0.74947078171E+03  0.45539908027E+03 0.  0.
      99925    2    3    3    0    0  0.11893488741E+02 -0.79704998762E+02  0.50380894550E+03  0.57482074420E+03  0.26476610905E+03 0.  0.
         25    1    4    4    0    0  0.41940295164E+02 -0.26360284007E+02  0.28947910789E+03  0.31921703422E+03  0.12509000000E+03 0.  0.
         25    1    3    3    0    0 -0.11893488741E+02  0.79704998762E+02  0.91437331539E+02  0.17465003751E+03  0.12509000000E+03 0.  0.
         25    1    4    4    0    0 -0.30046806423E+02 -0.53344714754E+02  0.21432983761E+03  0.25560370998E+03  0.12509000000E+03 0.  0.
<mgrwt>
<rscale>  2 0.45539908E+03</rscale>
<asrwt>0</asrwt>
<pdfrwt beam="1">  1       21 0.98876251E-01 0.45539908E+03</pdfrwt>
<pdfrwt beam="2">  1       21 0.11340037E-01 0.45539908E+03</pdfrwt>
<totfact> 0.50140493E+04</totfact>
</mgrwt>
</event>
<event>
 7    0  0.4759581E-002  0.3898367E+03  0.7546771E-02  0.1047357E+00
         21   -1    0    0  502  501  0.00000000000E+00  0.00000000000E+00  0.52408961013E+03  0.52408961013E+03  0.00000000000E+00 0. -1.
         21   -1    0    0  501  502 -0.00000000000E+00 -0.00000000000E+00 -0.72493640434E+02  0.72493640434E+02  0.00000000000E+00 0. -1.
      99926    2    1    2    0    0  0.00000000000E+00 -0.33306690739E-15  0.45159596970E+03  0.59658325057E+03  0.38983670300E+03 0.  0.
      99925    2    3    3    0    0  0.50220434972E+01 -0.97397808045E+00  0.27862464784E+03  0.38305864815E+03  0.26282325616E+03 0.  0.
         25    1    4    4    0    0 -0.19990699261E+02  0.98422611992E+01  0.18509699408E+03  0.22451036386E+03  0.12509000000E+03 0.  0.
         25    1    3    3    0    0 -0.50220434972E+01  0.97397808045E+00  0.17297132186E+03  0.21352460242E+03  0.12509000000E+03 0.  0.
         25    1    4    4    0    0  0.25012742759E+02 -0.10816239280E+02  0.93527653766E+02  0.15854828429E+03  0.12509000000E+03 0.  0.
<mgrwt>
<rscale>  2 0.38983670E+03</rscale>
<asrwt>0</asrwt>
<pdfrwt beam="1">  1       21 0.77072000E-01 0.38983670E+03</pdfrwt>
<pdfrwt beam="2">  1       21 0.10660830E-01 0.38983670E+03</pdfrwt>
<totfact> 0.10216272E+05</totfact>
</mgrwt>
</event>
<event>
 7    0  0.4759581E-002  0.4517038E+03  0.7546771E-02  0.1027215E+00
         21   -1    0    0  502  501  0.00000000000E+00  0.00000000000E+00  0.38969251606E+03  0.38969251606E+03  0.00000000000E+00 0. -1.
         21   -1    0    0  501  502 -0.00000000000E+00 -0.00000000000E+00 -0.13089573884E+03  0.13089573884E+03  0.00000000000E+00 0. -1.
      99926    2    1    2    0    0  0.14210854715E-13  0.00000000000E+00  0.25879677722E+03  0.52058825491E+03  0.45170384020E+03 0.  0.
      99925    2    3    3    0    0 -0.84357388691E+02  0.67356448096E+02  0.13860481646E+03  0.31626822246E+03  0.26298523394E+03 0.  0.
         25    1    3    3    0    0  0.84357388691E+02 -0.67356448096E+02  0.12019196076E+03  0.20432003244E+03  0.12509000000E+03 0.  0.
         25    1    4    4    0    0 -0.51485841067E+02  0.71854973672E+02  0.92227112523E+02  0.17879395252E+03  0.12509000000E+03 0.  0.
         25    1    4    4    0    0 -0.32871547624E+02 -0.44985255765E+01  0.46377703938E+02  0.13747426995E+03  0.12509000000E+03 0.  0.
<mgrwt>
<rscale>  2 0.45170384E+03</rscale>
<asrwt>0</asrwt>
<pdfrwt beam="1">  1       21 0.57307723E-01 0.45170384E+03</pdfrwt>
<pdfrwt beam="2">  1       21 0.19249373E-01 0.45170384E+03</pdfrwt>
<totfact> 0.65544178E+04</totfact>
</mgrwt>
</event>
<event>
 7    0  0.4759581E-002  0.4560996E+03  0.7546771E-02  0.1025919E+00
         21   -1    0    0  502  501  0.00000000000E+00  0.00000000000E+00  0.75908007558E+03  0.75908007558E+03  0.00000000000E+00 0. -1.
         21   -1    0    0  501  502 -0.00000000000E+00 -0.00000000000E+00 -0.68512824251E+02  0.68512824251E+02  0.00000000000E+00 0. -1.
      99926    2    1    2    0    0 -0.14210854715E-13  0.00000000000E+00  0.69056725132E+03  0.82759289983E+03  0.45609963741E+03 0.  0.
      99925    2    3    3    0    0 -0.96476281145E+02 -0.50410239713E+02  0.37095266549E+03  0.46752366111E+03  0.26291372838E+03 0.  0.
         25    1    3    3    0    0  0.96476281145E+02  0.50410239713E+02  0.31961458583E+03  0.36006923871E+03  0.12509000000E+03 0.  0.
         25    1    4    4    0    0 -0.51489315148E+02  0.15496867151E+02  0.17444527104E+03  0.22129157950E+03  0.12509000000E+03 0.  0.
         25    1    4    4    0    0 -0.44986965997E+02 -0.65907106864E+02  0.19650739445E+03  0.24623208162E+03  0.12509000000E+03 0.  0.
<mgrwt>
<rscale>  2 0.45609964E+03</rscale>
<asrwt>0</asrwt>
<pdfrwt beam="1">  1       21 0.11162942E+00 0.45609964E+03</pdfrwt>
<pdfrwt beam="2">  1       21 0.10075416E-01 0.45609964E+03</pdfrwt>
<totfact> 0.46060266E+04</totfact>
</mgrwt>
</event>
<event>
 7    0  0.4759581E-002  0.4531164E+03  0.7546771E-02  0.1026797E+00
         21   -1    0    0  502  501  0.00000000000E+00  0.00000000000E+00  0.89212596140E+03  0.89212596140E+03  0.00000000000E+00 0. -1.
         21   -1    0    0  501  502 -0.00000000000E+00 -0.00000000000E+00 -0.57535159796E+02  0.57535159796E+02  0.00000000000E+00 0. -1.
      99926    2    1    2    0    0  0.00000000000E+00  0.00000000000E+00  0.83459080160E+03  0.94966112119E+03  0.45311636363E+03 0.  0.
      99925    2    3    3    0    0 -0.74271954188E+02 -0.41110422398E+02  0.37504775847E+03  0.46589081764E+03  0.26303429970E+03 0.  0.
         25    1    4    4    0    0 -0.33520632976E+02 -0.57213379399E+02  0.16380955118E+03  0.21651346558E+03  0.12509000000E+03 0.  0.
         25    1    3    3    0    0  0.74271954188E+02  0.41110422398E+02  0.45954304313E+03  0.48377030355E+03  0.12509000000E+03 0.  0.
         25    1    4    4    0    0 -0.40751321212E+02  0.16102957001E+02  0.21123820729E+03  0.24937735207E+03  0.12509000000E+03 0.  0.
<mgrwt>
<rscale>  2 0.45311636E+03</rscale>
<asrwt>0</asrwt>
<pdfrwt beam="1">  1       21 0.13119499E+00 0.45311636E+03</pdfrwt>
<pdfrwt beam="2">  1       21 0.84610535E-02 0.45311636E+03</pdfrwt>
<totfact> 0.41766351E+04</totfact>
</mgrwt>
</event>
<event>
 7    0  0.4759581E-002  0.4481664E+03  0.7546771E-02  0.1028270E+00
         21   -1    0    0  502  501  0.00000000000E+00  0.00000000000E+00  0.10369635335E+03  0.10369635335E+03  0.00000000000E+00 0. -1.
         21   -1    0    0  501  502 -0.00000000000E+00 -0.00000000000E+00 -0.48423378876E+03  0.48423378876E+03  0.00000000000E+00 0. -1.
      99926    2    1    2    0    0  0.00000000000E+00  0.00000000000E+00 -0.38053743541E+03  0.58793014211E+03  0.44816638903E+03 0.  0.
      99925    2    3    3    0    0 -0.63479854105E+02 -0.66577556037E+02 -0.17013915573E+03  0.32643978467E+03  0.26297022237E+03 0.  0.
         25    1    3    3    0    0  0.63479854105E+02  0.66577556037E+02 -0.21039827968E+03  0.26149035745E+03  0.12509000000E+03 0.  0.
         25    1    4    4    0    0 -0.70103572946E+02 -0.51316847051E+02 -0.88601951336E+02  0.17619802386E+03  0.12509000000E+03 0.  0.
         25    1    4    4    0    0  0.66237188412E+01 -0.15260708987E+02 -0.81537204397E+02  0.15024176081E+03  0.12509000000E+03 0.  0.
<mgrwt>
<rscale>  2 0.44816639E+03</rscale>
<asrwt>0</asrwt>
<pdfrwt beam="1">  1       21 0.15249464E-01 0.44816639E+03</pdfrwt>
<pdfrwt beam="2">  1       21 0.71210850E-01 0.44816639E+03</pdfrwt>
<totfact> 0.62748485E+04</totfact>
</mgrwt>
</event>
<event>
 7    0  0.4759581E-002  0.4589704E+03  0.7546771E-02  0.1025080E+00
         21   -1    0    0  502  501  0.00000000000E+00  0.00000000000E+00  0.22849415103E+03  0.22849415103E+03  0.00000000000E+00 0.  1.
         21   -1    0    0  501  502 -0.00000000000E+00 -0.00000000000E+00 -0.23048050325E+03  0.23048050325E+03  0.00000000000E+00 0.  1.
      99926    2    1    2    0    0  0.00000000000E+00  0.28421709430E-13 -0.19863522271E+01  0.45897465428E+03  0.45897035599E+03 0.  0.
      99925    2    3    3    0    0  0.33828511600E+02 -0.10948536489E+03 -0.23961825012E+02  0.28791372120E+03  0.26303750393E+03 0.  0.
         25    1    3    3    0    0 -0.33828511600E+02  0.10948536489E+03  0.21975472785E+02  0.17106093308E+03  0.12509000000E+03 0.  0.
         25    1    4    4    0    0  0.31045903383E+02 -0.96002427085E+02 -0.20582747082E+02  0.16202305916E+03  0.12509000000E+03 0.  0.
         25    1    4    4    0    0  0.27826082168E+01 -0.13482937807E+02 -0.33790779302E+01  0.12589066204E+03  0.12509000000E+03 0.  0.
<mgrwt>
<rscale>  2 0.45897036E+03</rscale>
<asrwt>0</asrwt>
<pdfrwt beam="1">  1       21 0.33602081E-01 0.45897036E+03</pdfrwt>
<pdfrwt beam="2">  1       21 0.33894191E-01 0.45897036E+03</pdfrwt>
<totfact> 0.66135495E+04</totfact>
</mgrwt>
</event>
<event>
 7    0  0.4759581E-002  0.4582872E+03  0.7546771E-02  0.1025279E+00
         21   -1    0    0  502  501  0.00000000000E+00  0.00000000000E+00  0.26915864113E+03  0.26915864113E+03  0.00000000000E+00 0. -1.
         21   -1    0    0  501  502 -0.00000000000E+00 -0.00000000000E+00 -0.19507751610E+03  0.19507751610E+03  0.00000000000E+00 0. -1.
      99926    2    1    2    0    0  0.35527136788E-14  0.35527136788E-14  0.74081125033E+02  0.46423615722E+03  0.45828724245E+03 0.  0.
      99925    2    3    3    0    0  0.23916164609E+02  0.24793110716E+02  0.15895297318E+03  0.30919609796E+03  0.26296292142E+03 0.  0.
         25    1    4    4    0    0 -0.49350527356E+01 -0.48278819390E+01  0.11569216035E+03  0.17052814213E+03  0.12509000000E+03 0.  0.
         25    1    4    4    0    0  0.28851217345E+02  0.29620992655E+02  0.43260812830E+02  0.13866795583E+03  0.12509000000E+03 0.  0.
         25    1    3    3    0    0 -0.23916164609E+02 -0.24793110716E+02 -0.84871848151E+02  0.15504005927E+03  0.12509000000E+03 0.  0.
<mgrwt>
<rscale>  2 0.45828724E+03</rscale>
<asrwt>0</asrwt>
<pdfrwt beam="1">  1       21 0.39582153E-01 0.45828724E+03</pdfrwt>
<pdfrwt beam="2">  1       21 0.28687870E-01 0.45828724E+03</pdfrwt>
<totfact> 0.66121985E+04</totfact>
</mgrwt>
</event>
<event>
 7    0  0.4759581E-002  0.4598280E+03  0.7546771E-02  0.1024831E+00
         21   -1    0    0  502  501  0.00000000000E+00  0.00000000000E+00  0.67765857286E+02  0.67765857286E+02  0.00000000000E+00 0. -1.
         21   -1    0    0  501  502 -0.00000000000E+00 -0.00000000000E+00 -0.78004538458E+03  0.78004538458E+03  0.00000000000E+00 0. -1.
      99926    2    1    2    0    0  0.14210854715E-13  0.00000000000E+00 -0.71227952730E+03  0.84781124187E+03  0.45982798613E+03 0.  0.
      99925    2    3    3    0    0  0.87408213974E+02  0.71847590830E+02 -0.38695557275E+03  0.48136144219E+03  0.26300560939E+03 0.  0.
         25    1    3    3    0    0 -0.87408213974E+02 -0.71847590830E+02 -0.32532395455E+03  0.36644979967E+03  0.12509000000E+03 0.  0.
         25    1    4    4    0    0  0.70760810521E+01  0.40809057443E+02 -0.14728563989E+03  0.19762595454E+03  0.12509000000E+03 0.  0.
         25    1    4    4    0    0  0.80332132922E+02  0.31038533386E+02 -0.23966993286E+03  0.28373548765E+03  0.12509000000E+03 0.  0.
<mgrwt>
<rscale>  2 0.45982799E+03</rscale>
<asrwt>0</asrwt>
<pdfrwt beam="1">  1       21 0.99655671E-02 0.45982799E+03</pdfrwt>
<pdfrwt beam="2">  1       21 0.11471256E+00 0.45982799E+03</pdfrwt>
<totfact> 0.43852789E+04</totfact>
</mgrwt>
</event>
<event>
 7    0  0.4759581E-002  0.4595178E+03  0.7546771E-02  0.1024921E+00
         21   -1    0    0  502  501  0.00000000000E+00  0.00000000000E+00  0.74945956746E+03  0.74945956746E+03  0.00000000000E+00 0. -1.
         21   -1    0    0  501  502 -0.00000000000E+00 -0.00000000000E+00 -0.70436275835E+02  0.70436275835E+02  0.00000000000E+00 0. -1.
      99926    2    1    2    0    0  0.00000000000E+00  0.00000000000E+00  0.67902329162E+03  0.81989584329E+03  0.45951775078E+03 0.  0.
      99925    2    3    3    0    0 -0.10283742509E+03 -0.40300994641E+02  0.49628750916E+03  0.57242952142E+03  0.26301056838E+03 0.  0.
         25    1    3    3    0    0  0.10283742509E+03  0.40300994641E+02  0.18273578247E+03  0.24746632187E+03  0.12509000000E+03 0.  0.
         25    1    4    4    0    0 -0.29786895780E+02 -0.45562672890E+02  0.28788882325E+03  0.31857604897E+03  0.12509000000E+03 0.  0.
         25    1    4    4    0    0 -0.73050529308E+02  0.52616782494E+01  0.20839868591E+03  0.25385347245E+03  0.12509000000E+03 0.  0.
<mgrwt>
<rscale>  2 0.45951775E+03</rscale>
<asrwt>0</asrwt>
<pdfrwt beam="1">  1       21 0.11021464E+00 0.45951775E+03</pdfrwt>
<pdfrwt beam="2">  1       21 0.10358276E-01 0.45951775E+03</pdfrwt>
<totfact> 0.45193965E+04</totfact>
</mgrwt>
</event>
<event>
 7    0  0.4759581E-002  0.4344776E+03  0.7546771E-02  0.1032455E+00
         21   -1    0    0  502  501  0.00000000000E+00  0.00000000000E+00  0.49950146795E+03  0.49950146795E+03  0.00000000000E+00 0.  1.
         21   -1    0    0  501  502 -0.00000000000E+00 -0.00000000000E+00 -0.94479573249E+02  0.94479573249E+02  0.00000000000E+00 0.  1.
      99926    2    1    2    0    0  0.00000000000E+00 -0.35527136788E-14  0.40502189470E+03  0.59398104120E+03  0.43447755076E+03 0.  0.
      99925    2    3    3    0    0 -0.46523693410E+02 -0.20408960280E+02  0.36586180813E+03  0.45340365970E+03  0.26294302857E+03 0.  0.
         25    1    4    4    0    0 -0.63965096817E+01 -0.43528262008E+02  0.15603366074E+03  0.20476727354E+03  0.12509000000E+03 0.  0.
         25    1    3    3    0    0  0.46523693410E+02  0.20408960280E+02  0.39160086573E+02  0.14057738150E+03  0.12509000000E+03 0.  0.
         25    1    4    4    0    0 -0.40127183729E+02  0.23119301728E+02  0.20982814739E+03  0.24863638616E+03  0.12509000000E+03 0.  0.
<mgrwt>
<rscale>  2 0.43447755E+03</rscale>
<asrwt>0</asrwt>
<pdfrwt beam="1">  1       21 0.73456097E-01 0.43447755E+03</pdfrwt>
<pdfrwt beam="2">  1       21 0.13894055E-01 0.43447755E+03</pdfrwt>
<totfact> 0.69681257E+04</totfact>
</mgrwt>
</event>
<event>
 7    0  0.4759581E-002  0.4545865E+03  0.7546771E-02  0.1026363E+00
         21   -1    0    0  502  501  0.00000000000E+00  0.00000000000E+00  0.40925770175E+03  0.40925770175E+03  0.00000000000E+00 0.  1.
         21   -1    0    0  501  502 -0.00000000000E+00 -0.00000000000E+00 -0.12623397146E+03  0.12623397146E+03  0.00000000000E+00 0.  1.
      99926    2    1    2    0    0  0.00000000000E+00 -0.71054273576E-14  0.28302373030E+03  0.53549167321E+03  0.45458651560E+03 0.  0.
      99925    2    3    3    0    0  0.92414881867E+02 -0.59515782644E+02  0.14856853104E+03  0.32146282590E+03  0.26302680709E+03 0.  0.
         25    1    4    4    0    0  0.56963678909E+02 -0.66694302423E+02  0.99445054135E+02  0.18229047584E+03  0.12509000000E+03 0.  0.
         25    1    3    3    0    0 -0.92414881867E+02  0.59515782644E+02  0.13445519926E+03  0.21402884731E+03  0.12509000000E+03 0.  0.
         25    1    4    4    0    0  0.35451202958E+02  0.71785197786E+01  0.49123476903E+02  0.13917235006E+03  0.12509000000E+03 0.  0.
<mgrwt>
<rscale>  2 0.45458652E+03</rscale>
<asrwt>0</asrwt>
<pdfrwt beam="1">  1       21 0.60184956E-01 0.45458652E+03</pdfrwt>
<pdfrwt beam="2">  1       21 0.18563819E-01 0.45458652E+03</pdfrwt>
<totfact> 0.63041595E+04</totfact>
</mgrwt>
</event>
<event>
 7    0  0.4759581E-002  0.4601956E+03  0.7546771E-02  0.1024724E+00
         21   -1    0    0  502  501  0.00000000000E+00  0.00000000000E+00  0.10607410684E+03  0.10607410684E+03  0.00000000000E+00 0. -1.
         21   -1    0    0  501  502 -0.00000000000E+00 -0.00000000000E+00 -0.49913222977E+03  0.49913222977E+03  0.00000000000E+00 0. -1.
      99926    2    1    2    0    0  0.00000000000E+00  0.00000000000E+00 -0.39305812294E+03  0.60520633661E+03  0.46019563434E+03 0.  0.
      99925    2    3    3    0    0 -0.96794171657E+02  0.59237997412E+02 -0.20410571876E+03  0.35177237845E+03  0.26307111169E+03 0.  0.
         25    1    4    4    0    0 -0.91156428995E+02  0.29268445251E+02 -0.10532435058E+03  0.18949106406E+03  0.12509000000E+03 0.  0.
         25    1    4    4    0    0 -0.56377426626E+01  0.29969552160E+02 -0.98781368180E+02  0.16228131438E+03  0.12509000000E+03 0.  0.
         25    1    3    3    0    0  0.96794171657E+02 -0.59237997412E+02 -0.18895240418E+03  0.25343395816E+03  0.12509000000E+03 0.  0.
<mgrwt>
<rscale>  2 0.46019563E+03</rscale>
<asrwt>0</asrwt>
<pdfrwt beam="1">  1       21 0.15599133E-01 0.46019563E+03</pdfrwt>
<pdfrwt beam="2">  1       21 0.73401799E-01 0.46019563E+03</pdfrwt>
<totfact> 0.56023687E+04</totfact>
</mgrwt>
</event>
<event>
 7    0  0.4759581E-002  0.4224846E+03  0.7546771E-02  0.1036261E+00
         21   -1    0    0  502  501  0.00000000000E+00  0.00000000000E+00  0.15021357003E+03  0.15021357003E+03  0.00000000000E+00 0.  1.
         21   -1    0    0  501  502 -0.00000000000E+00 -0.00000000000E+00 -0.29706577671E+03  0.29706577671E+03  0.00000000000E+00 0.  1.
      99926    2    1    2    0    0  0.71054273576E-14  0.00000000000E+00 -0.14685220669E+03  0.44727934674E+03  0.42248460730E+03 0.  0.
      99925    2    3    3    0    0 -0.47471822259E+02  0.23982448965E+02 -0.34520463485E+02  0.27094256555E+03  0.26341882936E+03 0.  0.
         25    1    4    4    0    0 -0.42927194984E+02  0.37394037506E+02  0.90335982082E+01  0.13773224788E+03  0.12509000000E+03 0.  0.
         25    1    4    4    0    0 -0.45446272751E+01 -0.13411588541E+02 -0.43554061693E+02  0.13321031767E+03  0.12509000000E+03 0.  0.
         25    1    3    3    0    0  0.47471822259E+02 -0.23982448965E+02 -0.11233174320E+03  0.17633678118E+03  0.12509000000E+03 0.  0.
<mgrwt>
<rscale>  2 0.42248461E+03</rscale>
<asrwt>0</asrwt>
<pdfrwt beam="1">  1       21 0.22090231E-01 0.42248461E+03</pdfrwt>
<pdfrwt beam="2">  1       21 0.43686143E-01 0.42248461E+03</pdfrwt>
<totfact> 0.90307165E+04</totfact>
</mgrwt>
</event>
<event>
 7    0  0.4759581E-002  0.4568009E+03  0.7546771E-02  0.1025713E+00
         21   -1    0    0  502  501  0.00000000000E+00  0.00000000000E+00  0.11027212563E+04  0.11027212563E+04  0.00000000000E+00 0.  1.
         21   -1    0    0  501  502 -0.00000000000E+00 -0.00000000000E+00 -0.47307291166E+02  0.47307291166E+02  0.00000000000E+00 0.  1.
      99926    2    1    2    0    0  0.00000000000E+00  0.00000000000E+00  0.10554139651E+04  0.11500285475E+04  0.45680085615E+03 0.  0.
      99925    2    3    3    0    0  0.10136690234E+03 -0.45512353399E+02  0.59077973458E+03  0.65618737917E+03  0.26308659902E+03 0.  0.
         25    1    4    4    0    0  0.16377136742E+02 -0.25487405812E+02  0.21437128030E+03  0.25004074144E+03  0.12509000000E+03 0.  0.
         25    1    4    4    0    0  0.84989765603E+02 -0.20024947587E+02  0.37640845428E+03  0.40614663773E+03  0.12509000000E+03 0.  0.
         25    1    3    3    0    0 -0.10136690234E+03  0.45512353399E+02  0.46463423054E+03  0.49384116829E+03  0.12509000000E+03 0.  0.
<mgrwt>
<rscale>  2 0.45680086E+03</rscale>
<asrwt>0</asrwt>
<pdfrwt beam="1">  1       21 0.16216487E+00 0.45680086E+03</pdfrwt>
<pdfrwt beam="2">  1       21 0.69569553E-02 0.45680086E+03</pdfrwt>
<totfact> 0.33311418E+04</totfact>
</mgrwt>
</event>
<event>
 7    0  0.4759581E-002  0.4169207E+03  0.7546771E-02  0.1038073E+00
         21   -1    0    0  502  501  0.00000000000E+00  0.00000000000E+00  0.93569094908E+03  0.93569094908E+03  0.00000000000E+00 0. -1.
         21   -1    0    0  501  502 -0.00000000000E+00 -0.00000000000E+00 -0.46442377198E+02  0.46442377198E+02  0.00000000000E+00 0. -1.
      99926    2    1    2    0    0  0.00000000000E+00  0.15543122345E-14  0.88924857188E+03  0.98213332628E+03  0.41692067350E+03 0.  0.
      99925    2    3    3    0    0  0.12876333420E+02 -0.11163488608E+01  0.41469082315E+03  0.49119584434E+03  0.26294073950E+03 0.  0.
         25    1    3    3    0    0 -0.12876333420E+02  0.11163488608E+01  0.47455774873E+03  0.49093748194E+03  0.12509000000E+03 0.  0.
         25    1    4    4    0    0 -0.73853945190E+01  0.33032906444E+02  0.17277458987E+03  0.21597287784E+03  0.12509000000E+03 0.  0.
         25    1    4    4    0    0  0.20261727939E+02 -0.34149255305E+02  0.24191623329E+03  0.27522296649E+03  0.12509000000E+03 0.  0.
<mgrwt>
<rscale>  2 0.41692067E+03</rscale>
<asrwt>0</asrwt>
<pdfrwt beam="1">  1       21 0.13760160E+00 0.41692067E+03</pdfrwt>
<pdfrwt beam="2">  1       21 0.68297619E-02 0.41692067E+03</pdfrwt>
<totfact> 0.54314436E+04</totfact>
</mgrwt>
</event>
<event>
 7    0  0.4759581E-002  0.4500741E+03  0.7546771E-02  0.1027700E+00
         21   -1    0    0  502  501  0.00000000000E+00  0.00000000000E+00  0.44795386432E+03  0.44795386432E+03  0.00000000000E+00 0.  1.
         21   -1    0    0  501  502 -0.00000000000E+00 -0.00000000000E+00 -0.11305109894E+03  0.11305109894E+03  0.00000000000E+00 0.  1.
      99926    2    1    2    0    0  0.00000000000E+00  0.00000000000E+00  0.33490276537E+03  0.56100496326E+03  0.45007411229E+03 0.  0.
      99925    2    3    3    0    0 -0.37685102732E+02 -0.43688019897E+02  0.95703296653E+02  0.28497470408E+03  0.26215005421E+03 0.  0.
         25    1    4    4    0    0 -0.39683030290E+02  0.22256032081E+01  0.71718484769E+02  0.14956853065E+03  0.12509000000E+03 0.  0.
         25    1    3    3    0    0  0.37685102732E+02  0.43688019897E+02  0.23919946872E+03  0.27603025919E+03  0.12509000000E+03 0.  0.
         25    1    4    4    0    0  0.19979275576E+01 -0.45913623105E+02  0.23984811884E+02  0.13540617343E+03  0.12509000000E+03 0.  0.
<mgrwt>
<rscale>  2 0.45007411E+03</rscale>
<asrwt>0</asrwt>
<pdfrwt beam="1">  1       21 0.65875568E-01 0.45007411E+03</pdfrwt>
<pdfrwt beam="2">  1       21 0.16625162E-01 0.45007411E+03</pdfrwt>
<totfact> 0.63586569E+04</totfact>
</mgrwt>
</event>
<event>
 7    0  0.4759581E-002  0.4583887E+03  0.7546771E-02  0.1025250E+00
         21   -1    0    0  502  501  0.00000000000E+00  0.00000000000E+00  0.21436808590E+04  0.21436808590E+04  0.00000000000E+00 0.  1.
         21   -1    0    0  501  502 -0.00000000000E+00 -0.00000000000E+00 -0.24504601826E+02  0.24504601826E+02  0.00000000000E+00 0.  1.
      99926    2    1    2    0    0 -0.71054273576E-14  0.14210854715E-13  0.21191762572E+04  0.21681854608E+04  0.45838868176E+03 0.  0.
      99925    2    3    3    0    0 -0.41831809031E+02  0.10253157352E+03  0.14984877215E+04  0.15254068129E+04  0.26294080994E+03 0.  0.
         25    1    4    4    0    0 -0.48865059526E+02  0.57673509541E+02  0.93926114596E+03  0.95056458810E+03  0.12509000000E+03 0.  0.
         25    1    4    4    0    0  0.70332504949E+01  0.44858063979E+02  0.55922657553E+03  0.57484222478E+03  0.12509000000E+03 0.  0.
         25    1    3    3    0    0  0.41831809031E+02 -0.10253157352E+03  0.62068853568E+03  0.64277864793E+03  0.12509000000E+03 0.  0.
<mgrwt>
<rscale>  2 0.45838868E+03</rscale>
<asrwt>0</asrwt>
<pdfrwt beam="1">  1       21 0.31524706E+00 0.45838868E+03</pdfrwt>
<pdfrwt beam="2">  1       21 0.36036194E-02 0.45838868E+03</pdfrwt>
<totfact> 0.10864433E+04</totfact>
</mgrwt>
</event>
<event>
 7    0  0.4759581E-002  0.4503919E+03  0.7546771E-02  0.1027605E+00
         21   -1    0    0  502  501  0.00000000000E+00  0.00000000000E+00  0.33717042662E+03  0.33717042662E+03  0.00000000000E+00 0. -1.
         21   -1    0    0  501  502 -0.00000000000E+00 -0.00000000000E+00 -0.15040827750E+03  0.15040827750E+03  0.00000000000E+00 0. -1.
      99926    2    1    2    0    0  0.00000000000E+00  0.14210854715E-13  0.18676214912E+03  0.48757870412E+03  0.45039193195E+03 0.  0.
      99925    2    3    3    0    0 -0.40409395403E+02  0.10032579024E+03  0.13073354255E+03  0.31297945934E+03  0.26299562619E+03 0.  0.
         25    1    4    4    0    0 -0.56509864028E+01  0.13147156364E+02  0.77188239361E+02  0.14768315328E+03  0.12509000000E+03 0.  0.
         25    1    3    3    0    0  0.40409395403E+02 -0.10032579024E+03  0.56028606573E+02  0.17459924478E+03  0.12509000000E+03 0.  0.
         25    1    4    4    0    0 -0.34758409000E+02  0.87178633879E+02  0.53545303191E+02  0.16529630605E+03  0.12509000000E+03 0.  0.
<mgrwt>
<rscale>  2 0.45039193E+03</rscale>
<asrwt>0</asrwt>
<pdfrwt beam="1">  1       21 0.49583887E-01 0.45039193E+03</pdfrwt>
<pdfrwt beam="2">  1       21 0.22118864E-01 0.45039193E+03</pdfrwt>
<totfact> 0.68628853E+04</totfact>
</mgrwt>
</event>
<event>
 7    0  0.4759581E-002  0.4541547E+03  0.7546771E-02  0.1026490E+00
         21   -1    0    0  502  501  0.00000000000E+00  0.00000000000E+00  0.14519144157E+03  0.14519144157E+03  0.00000000000E+00 0. -1.
         21   -1    0    0  501  502 -0.00000000000E+00 -0.00000000000E+00 -0.35514570276E+03  0.35514570276E+03  0.00000000000E+00 0. -1.
      99926    2    1    2    0    0  0.00000000000E+00  0.00000000000E+00 -0.20995426119E+03  0.50033714432E+03  0.45415467211E+03 0.  0.
      99925    2    3    3    0    0 -0.23225108111E+02 -0.10621534233E+03 -0.16322707867E+03  0.32813946060E+03  0.26308044739E+03 0.  0.
         25    1    4    4    0    0 -0.90091946285E+01 -0.77251975282E+02 -0.12562906193E+03  0.19359546114E+03  0.12509000000E+03 0.  0.
         25    1    4    4    0    0 -0.14215913483E+02 -0.28963367051E+02 -0.37598016734E+02  0.13454399946E+03  0.12509000000E+03 0.  0.
         25    1    3    3    0    0  0.23225108111E+02  0.10621534233E+03 -0.46727182526E+02  0.17219768373E+03  0.12509000000E+03 0.  0.
<mgrwt>
<rscale>  2 0.45415467E+03</rscale>
<asrwt>0</asrwt>
<pdfrwt beam="1">  1       21 0.21351683E-01 0.45415467E+03</pdfrwt>
<pdfrwt beam="2">  1       21 0.52227309E-01 0.45415467E+03</pdfrwt>
<totfact> 0.65686646E+04</totfact>
</mgrwt>
</event>
<event>
 7    0  0.4759581E-002  0.4544979E+03  0.7546771E-02  0.1026389E+00
         21   -1    0    0  502  501  0.00000000000E+00  0.00000000000E+00  0.13262461167E+03  0.13262461167E+03  0.00000000000E+00 0.  1.
         21   -1    0    0  501  502 -0.00000000000E+00 -0.00000000000E+00 -0.38938532221E+03  0.38938532221E+03  0.00000000000E+00 0.  1.
      99926    2    1    2    0    0  0.00000000000E+00  0.00000000000E+00 -0.25676071054E+03  0.52200993388E+03  0.45449786423E+03 0.  0.
      99925    2    3    3    0    0 -0.14118969813E+02  0.40226090450E+02 -0.28141256856E+03  0.38757516953E+03  0.26306652130E+03 0.  0.
         25    1    4    4    0    0 -0.67155720071E+01  0.60875474716E+02 -0.15507376248E+03  0.20843776587E+03  0.12509000000E+03 0.  0.
         25    1    3    3    0    0  0.14118969813E+02 -0.40226090450E+02  0.24651858021E+02  0.13443476435E+03  0.12509000000E+03 0.  0.
         25    1    4    4    0    0 -0.74033978062E+01 -0.20649384266E+02 -0.12633880608E+03  0.17913740366E+03  0.12509000000E+03 0.  0.
<mgrwt>
<rscale>  2 0.45449786E+03</rscale>
<asrwt>0</asrwt>
<pdfrwt beam="1">  1       21 0.19503619E-01 0.45449786E+03</pdfrwt>
<pdfrwt beam="2">  1       21 0.57262548E-01 0.45449786E+03</pdfrwt>
<totfact> 0.64005000E+04</totfact>
</mgrwt>
</event>
<event>
 7    0  0.4759581E-002  0.4675148E+03  0.7546771E-02  0.1022624E+00
         21   -1    0    0  502  501  0.00000000000E+00  0.00000000000E+00  0.39699919913E+02  0.39699919913E+02  0.00000000000E+00 0. -1.
         21   -1    0    0  501  502 -0.00000000000E+00 -0.00000000000E+00 -0.13763886764E+04  0.13763886764E+04  0.00000000000E+00 0. -1.
      99926    2    1    2    0    0 -0.71054273576E-14  0.14210854715E-13 -0.13366887565E+04  0.14160885963E+04  0.46751479216E+03 0.  0.
      99925    2    3    3    0    0 -0.34959480490E+02  0.88629526783E+02 -0.58880622936E+03  0.65185490119E+03  0.26295375671E+03 0.  0.
         25    1    4    4    0    0  0.57956173595E+01  0.49462599745E+02 -0.21540023116E+03  0.25401753018E+03  0.12509000000E+03 0.  0.
         25    1    3    3    0    0  0.34959480490E+02 -0.88629526783E+02 -0.74788252710E+03  0.76423369510E+03  0.12509000000E+03 0.  0.
         25    1    4    4    0    0 -0.40755097850E+02  0.39166927039E+02 -0.37340599821E+03  0.39783737101E+03  0.12509000000E+03 0.  0.
<mgrwt>
<rscale>  2 0.46751479E+03</rscale>
<asrwt>0</asrwt>
<pdfrwt beam="1">  1       21 0.58382237E-02 0.46751479E+03</pdfrwt>
<pdfrwt beam="2">  1       21 0.20241009E+00 0.46751479E+03</pdfrwt>
<totfact> 0.23533320E+04</totfact>
</mgrwt>
</event>
<event>
 7    0  0.4759581E-002  0.4540624E+03  0.7546771E-02  0.1026517E+00
         21   -1    0    0  502  501  0.00000000000E+00  0.00000000000E+00  0.77644942258E+02  0.77644942258E+02  0.00000000000E+00 0. -1.
         21   -1    0    0  501  502 -0.00000000000E+00 -0.00000000000E+00 -0.66383172503E+03  0.66383172503E+03  0.00000000000E+00 0. -1.
      99926    2    1    2    0    0  0.00000000000E+00  0.00000000000E+00 -0.58618678277E+03  0.74147666729E+03  0.45406244486E+03 0.  0.
      99925    2    3    3    0    0  0.15064078899E+02  0.11076694833E+03 -0.38417585472E+03  0.47888922192E+03  0.26314930401E+03 0.  0.
         25    1    4    4    0    0  0.31205302587E+02  0.44686437984E+02 -0.24110754784E+03  0.27703971985E+03  0.12509000000E+03 0.  0.
         25    1    4    4    0    0 -0.16141223688E+02  0.66080510348E+02 -0.14306830688E+03  0.20184950207E+03  0.12509000000E+03 0.  0.
         25    1    3    3    0    0 -0.15064078899E+02 -0.11076694833E+03 -0.20201092805E+03  0.26258744537E+03  0.12509000000E+03 0.  0.
<mgrwt>
<rscale>  2 0.45406244E+03</rscale>
<asrwt>0</asrwt>
<pdfrwt beam="1">  1       21 0.11418374E-01 0.45406244E+03</pdfrwt>
<pdfrwt beam="2">  1       21 0.97622311E-01 0.45406244E+03</pdfrwt>
<totfact> 0.51083681E+04</totfact>
</mgrwt>
</event>
<event>
 7    0  0.4759581E-002  0.4665452E+03  0.7546771E-02  0.1022900E+00
         21   -1    0    0  502  501  0.00000000000E+00  0.00000000000E+00  0.12647166399E+04  0.12647166399E+04  0.00000000000E+00 0. -1.
         21   -1    0    0  501  502 -0.00000000000E+00 -0.00000000000E+00 -0.43026327829E+02  0.43026327829E+02  0.00000000000E+00 0. -1.
      99926    2    1    2    0    0  0.00000000000E+00  0.14210854715E-13  0.12216903121E+04  0.13077429677E+04  0.46654522936E+03 0.  0.
      99925    2    3    3    0    0 -0.41076474880E+02 -0.80152371871E+02  0.52359295262E+03  0.59283100750E+03  0.26303487205E+03 0.  0.
         25    1    3    3    0    0  0.41076474880E+02  0.80152371871E+02  0.69809735945E+03  0.71491196023E+03  0.12509000000E+03 0.  0.
         25    1    4    4    0    0 -0.28783345321E+02 -0.73705331019E+02  0.33323462414E+03  0.36462827594E+03  0.12509000000E+03 0.  0.
         25    1    4    4    0    0 -0.12293129559E+02 -0.64470408513E+01  0.19035832848E+03  0.22820273156E+03  0.12509000000E+03 0.  0.
<mgrwt>
<rscale>  2 0.46654523E+03</rscale>
<asrwt>0</asrwt>
<pdfrwt beam="1">  1       21 0.18598772E+00 0.46654523E+03</pdfrwt>
<pdfrwt beam="2">  1       21 0.63274020E-02 0.46654523E+03</pdfrwt>
<totfact> 0.26435440E+04</totfact>
</mgrwt>
</event>
<event>
 7    0  0.4759581E-002  0.4572803E+03  0.7546771E-02  0.1025573E+00
         21   -1    0    0  502  501  0.00000000000E+00  0.00000000000E+00  0.16165837676E+03  0.16165837676E+03  0.00000000000E+00 0.  1.
         21   -1    0    0  501  502 -0.00000000000E+00 -0.00000000000E+00 -0.32337523853E+03  0.32337523853E+03  0.00000000000E+00 0.  1.
      99926    2    1    2    0    0  0.00000000000E+00  0.00000000000E+00 -0.16171686177E+03  0.48503361530E+03  0.45728029105E+03 0.  0.
      99925    2    3    3    0    0 -0.11000633141E+03 -0.94145576310E+01 -0.66148574747E+02  0.29275560711E+03  0.26294521237E+03 0.  0.
         25    1    4    4    0    0 -0.34715040701E+02  0.22896000521E+02 -0.71856776311E+01  0.13201705554E+03  0.12509000000E+03 0.  0.
         25    1    3    3    0    0  0.11000633141E+03  0.94145576310E+01 -0.95568287022E+02  0.19227800818E+03  0.12509000000E+03 0.  0.
         25    1    4    4    0    0 -0.75291290713E+02 -0.32310558152E+02 -0.58962897115E+02  0.16073855157E+03  0.12509000000E+03 0.  0.
<mgrwt>
<rscale>  2 0.45728029E+03</rscale>
<asrwt>0</asrwt>
<pdfrwt beam="1">  1       21 0.23773291E-01 0.45728029E+03</pdfrwt>
<pdfrwt beam="2">  1       21 0.47555182E-01 0.45728029E+03</pdfrwt>
<totfact> 0.65148197E+04</totfact>
</mgrwt>
</event>
<event>
 7    0  0.4759581E-002  0.4289584E+03  0.7546771E-02  0.1034190E+00
         21   -1    0    0  502  501  0.00000000000E+00  0.00000000000E+00  0.75970580671E+02  0.75970580671E+02  0.00000000000E+00 0.  1.
         21   -1    0    0  501  502 -0.00000000000E+00 -0.00000000000E+00 -0.60551504015E+03  0.60551504015E+03  0.00000000000E+00 0.  1.
      99926    2    1    2    0    0 -0.71054273576E-14  0.00000000000E+00 -0.52954445948E+03  0.68148562082E+03  0.42895840920E+03 0.  0.
      99925    2    3    3    0    0  0.61504066463E+02  0.32858157579E+02 -0.42259180303E+03  0.50274338313E+03  0.26325779872E+03 0.  0.
         25    1    4    4    0    0  0.65674957218E+02  0.67385357136E+01 -0.25911176536E+03  0.29520335858E+03  0.12509000000E+03 0.  0.
         25    1    3    3    0    0 -0.61504066463E+02 -0.32858157579E+02 -0.10695265645E+03  0.17874223768E+03  0.12509000000E+03 0.  0.
         25    1    4    4    0    0 -0.41708907546E+01  0.26119621865E+02 -0.16348003767E+03  0.20754002455E+03  0.12509000000E+03 0.  0.
<mgrwt>
<rscale>  2 0.42895841E+03</rscale>
<asrwt>0</asrwt>
<pdfrwt beam="1">  1       21 0.11172144E-01 0.42895841E+03</pdfrwt>
<pdfrwt beam="2">  1       21 0.89046329E-01 0.42895841E+03</pdfrwt>
<totfact> 0.66551694E+04</totfact>
</mgrwt>
</event>
<event>
 7    0  0.4759581E-002  0.4564015E+03  0.7546771E-02  0.1025830E+00
         21   -1    0    0  502  501  0.00000000000E+00  0.00000000000E+00  0.11820878327E+04  0.11820878327E+04  0.00000000000E+00 0. -1.
         21   -1    0    0  501  502 -0.00000000000E+00 -0.00000000000E+00 -0.44053911461E+02  0.44053911461E+02  0.00000000000E+00 0. -1.
      99926    2    1    2    0    0  0.00000000000E+00  0.00000000000E+00  0.11380339212E+04  0.12261417441E+04  0.45640154566E+03 0.  0.
      99925    2    3    3    0    0 -0.79897951297E+02  0.73732383005E+02  0.61899351621E+03  0.68128341663E+03  0.26300945561E+03 0.  0.
         25    1    4    4    0    0 -0.26479871080E+02  0.44509102653E+02  0.21570837366E+03  0.25467597916E+03  0.12509000000E+03 0.  0.
         25    1    4    4    0    0 -0.53418080218E+02  0.29223280352E+02  0.40328514254E+03  0.42660743747E+03  0.12509000000E+03 0.  0.
         25    1    3    3    0    0  0.79897951297E+02 -0.73732383005E+02  0.51904040501E+03  0.54485832751E+03  0.12509000000E+03 0.  0.
<mgrwt>
<rscale>  2 0.45640155E+03</rscale>
<asrwt>0</asrwt>
<pdfrwt beam="1">  1       21 0.17383643E+00 0.45640155E+03</pdfrwt>
<pdfrwt beam="2">  1       21 0.64785171E-02 0.45640155E+03</pdfrwt>
<totfact> 0.30997725E+04</totfact>
</mgrwt>
</event>
<event>
 7    0  0.4759581E-002  0.4488590E+03  0.7546771E-02  0.1028063E+00
         21   -1    0    0  502  501  0.00000000000E+00  0.00000000000E+00  0.78297120213E+02  0.78297120213E+02  0.00000000000E+00 0.  1.
         21   -1    0    0  501  502 -0.00000000000E+00 -0.00000000000E+00 -0.64330092730E+03  0.64330092730E+03  0.00000000000E+00 0.  1.
      99926    2    1    2    0    0  0.17763568394E-14  0.00000000000E+00 -0.56500380709E+03  0.72159804751E+03  0.44885904263E+03 0.  0.
      99925    2    3    3    0    0  0.12305315755E+02  0.77037348961E+02 -0.47603612616E+03  0.54940940015E+03  0.26297171261E+03 0.  0.
         25    1    4    4    0    0  0.25463571608E+02  0.53560623826E+02 -0.31230296232E+03  0.34161057108E+03  0.12509000000E+03 0.  0.
         25    1    4    4    0    0 -0.13158255853E+02  0.23476725135E+02 -0.16373316385E+03  0.20779882907E+03  0.12509000000E+03 0.  0.
         25    1    3    3    0    0 -0.12305315755E+02 -0.77037348961E+02 -0.88967680924E+02  0.17218864736E+03  0.12509000000E+03 0.  0.
<mgrwt>
<rscale>  2 0.44885904E+03</rscale>
<asrwt>0</asrwt>
<pdfrwt beam="1">  1       21 0.11514282E-01 0.44885904E+03</pdfrwt>
<pdfrwt beam="2">  1       21 0.94603081E-01 0.44885904E+03</pdfrwt>
<totfact> 0.54322605E+04</totfact>
</mgrwt>
</event>
<event>
 7    0  0.4759581E-002  0.4484816E+03  0.7546771E-02  0.1028176E+00
         21   -1    0    0  502  501  0.00000000000E+00  0.00000000000E+00  0.93612948772E+02  0.93612948772E+02  0.00000000000E+00 0. -1.
         21   -1    0    0  501  502 -0.00000000000E+00 -0.00000000000E+00 -0.53714733879E+03  0.53714733879E+03  0.00000000000E+00 0. -1.
      99926    2    1    2    0    0  0.00000000000E+00 -0.11102230246E-15 -0.44353439001E+03  0.63076028756E+03  0.44848164426E+03 0.  0.
      99925    2    3    3    0    0  0.59786136779E+02 -0.47991125798E+00 -0.15624821001E+03  0.31176895572E+03  0.26308129191E+03 0.  0.
         25    1    4    4    0    0  0.69051369410E+02 -0.73683743516E+01 -0.69157239441E+02  0.15891071841E+03  0.12509000000E+03 0.  0.
         25    1    4    4    0    0 -0.92652326315E+01  0.68884630937E+01 -0.87090970567E+02  0.15285823731E+03  0.12509000000E+03 0.  0.
         25    1    3    3    0    0 -0.59786136779E+02  0.47991125798E+00 -0.28728618000E+03  0.31899133184E+03  0.12509000000E+03 0.  0.
<mgrwt>
<rscale>  2 0.44848164E+03</rscale>
<asrwt>0</asrwt>
<pdfrwt beam="1">  1       21 0.13766610E-01 0.44848164E+03</pdfrwt>
<pdfrwt beam="2">  1       21 0.78992254E-01 0.44848164E+03</pdfrwt>
<totfact> 0.59843933E+04</totfact>
</mgrwt>
</event>
<event>
 7    0  0.4759581E-002  0.4539784E+03  0.7546771E-02  0.1026542E+00
         21   -1    0    0  502  501  0.00000000000E+00  0.00000000000E+00  0.83600793219E+02  0.83600793219E+02  0.00000000000E+00 0.  1.
         21   -1    0    0  501  502 -0.00000000000E+00 -0.00000000000E+00 -0.61631101098E+03  0.61631101098E+03  0.00000000000E+00 0.  1.
      99926    2    1    2    0    0 -0.35527136788E-14  0.00000000000E+00 -0.53271021776E+03  0.69991180420E+03  0.45397836683E+03 0.  0.
      99925    2    3    3    0    0  0.22299410578E+02  0.11018522280E+03 -0.33914100689E+03  0.44348521718E+03  0.26272508115E+03 0.  0.
         25    1    4    4    0    0 -0.14265611815E+02  0.63500967550E+02 -0.21745487410E+03  0.25917177880E+03  0.12509000000E+03 0.  0.
         25    1    3    3    0    0 -0.22299410578E+02 -0.11018522280E+03 -0.19356921087E+03  0.25642658702E+03  0.12509000000E+03 0.  0.
         25    1    4    4    0    0  0.36565022393E+02  0.46684255247E+02 -0.12168613280E+03  0.18431343838E+03  0.12509000000E+03 0.  0.
<mgrwt>
<rscale>  2 0.45397837E+03</rscale>
<asrwt>0</asrwt>
<pdfrwt beam="1">  1       21 0.12294234E-01 0.45397837E+03</pdfrwt>
<pdfrwt beam="2">  1       21 0.90633972E-01 0.45397837E+03</pdfrwt>
<totfact> 0.53335271E+04</totfact>
</mgrwt>
</event>
<event>
 7    0  0.4759581E-002  0.4537422E+03  0.7546771E-02  0.1026612E+00
         21   -1    0    0  502  501  0.00000000000E+00  0.00000000000E+00  0.29736085676E+02  0.29736085676E+02  0.00000000000E+00 0.  1.
         21   -1    0    0  501  502 -0.00000000000E+00 -0.00000000000E+00 -0.17309103660E+04  0.17309103660E+04  0.00000000000E+00 0.  1.
      99926    2    1    2    0    0 -0.11102230246E-14  0.00000000000E+00 -0.17011742804E+04  0.17606464517E+04  0.45374221290E+03 0.  0.
      99925    2    3    3    0    0 -0.78227253857E+00 -0.10967659779E+03 -0.11538759796E+04  0.11886215342E+04  0.26336629890E+03 0.  0.
         25    1    3    3    0    0  0.78227253857E+00  0.10967659779E+03 -0.54729830081E+03  0.57202491749E+03  0.12509000000E+03 0.  0.
         25    1    4    4    0    0 -0.17711368790E+02 -0.37557329004E+02 -0.40972272450E+03  0.43040035387E+03  0.12509000000E+03 0.  0.
         25    1    4    4    0    0  0.16929096251E+02 -0.72119268789E+02 -0.74415325505E+03  0.75822118035E+03  0.12509000000E+03 0.  0.
<mgrwt>
<rscale>  2 0.45374221E+03</rscale>
<asrwt>0</asrwt>
<pdfrwt beam="1">  1       21 0.43729532E-02 0.45374221E+03</pdfrwt>
<pdfrwt beam="2">  1       21 0.25454567E+00 0.45374221E+03</pdfrwt>
<totfact> 0.18205144E+04</totfact>
</mgrwt>
</event>
<event>
 7    0  0.4759581E-002  0.4558634E+03  0.7546771E-02  0.1025988E+00
         21   -1    0    0  502  501  0.00000000000E+00  0.00000000000E+00  0.92366723070E+03  0.92366723070E+03  0.00000000000E+00 0.  1.
         21   -1    0    0  501  502 -0.00000000000E+00 -0.00000000000E+00 -0.56246285788E+02  0.56246285788E+02  0.00000000000E+00 0.  1.
      99926    2    1    2    0    0 -0.71054273576E-14  0.00000000000E+00  0.86742094491E+03  0.97991351649E+03  0.45586336125E+03 0.  0.
      99925    2    3    3    0    0  0.48320751230E+02  0.68329284324E+02  0.37923975638E+03  0.46905916637E+03  0.26303977388E+03 0.  0.
         25    1    4    4    0    0  0.47355991435E+02  0.67258597610E+02  0.18450370779E+03  0.23760352515E+03  0.12509000000E+03 0.  0.
         25    1    3    3    0    0 -0.48320751230E+02 -0.68329284324E+02  0.48818118854E+03  0.51085435012E+03  0.12509000000E+03 0.  0.
         25    1    4    4    0    0  0.96475979493E+00  0.10706867140E+01  0.19473604859E+03  0.23145564122E+03  0.12509000000E+03 0.  0.
<mgrwt>
<rscale>  2 0.45586336E+03</rscale>
<asrwt>0</asrwt>
<pdfrwt beam="1">  1       21 0.13583341E+00 0.45586336E+03</pdfrwt>
<pdfrwt beam="2">  1       21 0.82715132E-02 0.45586336E+03</pdfrwt>
<totfact> 0.39684045E+04</totfact>
</mgrwt>
</event>
<event>
 7    0  0.4759581E-002  0.4530888E+03  0.7546771E-02  0.1026805E+00
         21   -1    0    0  502  501  0.00000000000E+00  0.00000000000E+00  0.30371187464E+03  0.30371187464E+03  0.00000000000E+00 0.  1.
         21   -1    0    0  501  502 -0.00000000000E+00 -0.00000000000E+00 -0.16898371665E+03  0.16898371665E+03  0.00000000000E+00 0.  1.
      99926    2    1    2    0    0  0.14210854715E-13  0.00000000000E+00  0.13472815799E+03  0.47269559129E+03  0.45308878321E+03 0.  0.
      99925    2    3    3    0    0  0.10287726572E+03  0.38065848280E+02  0.10680809559E+03  0.30399532872E+03  0.26262606495E+03 0.  0.
         25    1    4    4    0    0  0.38617814468E+02 -0.15676383374E+02  0.31039946518E+02  0.13545505147E+03  0.12509000000E+03 0.  0.
         25    1    3    3    0    0 -0.10287726572E+03 -0.38065848280E+02  0.27920062397E+02  0.16870026257E+03  0.12509000000E+03 0.  0.
         25    1    4    4    0    0  0.64259451255E+02  0.53742231654E+02  0.75768149073E+02  0.16854027724E+03  0.12509000000E+03 0.  0.
<mgrwt>
<rscale>  2 0.45308878E+03</rscale>
<asrwt>0</asrwt>
<pdfrwt beam="1">  1       21 0.44663511E-01 0.45308878E+03</pdfrwt>
<pdfrwt beam="2">  1       21 0.24850547E-01 0.45308878E+03</pdfrwt>
<totfact> 0.68265257E+04</totfact>
</mgrwt>
</event>
<event>
 7    0  0.4759581E-002  0.4637710E+03  0.7546771E-02  0.1023693E+00
         21   -1    0    0  502  501  0.00000000000E+00  0.00000000000E+00  0.88665460851E+03  0.88665460851E+03  0.00000000000E+00 0. -1.
         21   -1    0    0  501  502 -0.00000000000E+00 -0.00000000000E+00 -0.60644673371E+02  0.60644673371E+02  0.00000000000E+00 0. -1.
      99926    2    1    2    0    0  0.00000000000E+00 -0.14210854715E-13  0.82600993514E+03  0.94729928188E+03  0.46377097419E+03 0.  0.
      99925    2    3    3    0    0  0.55367810602E+02  0.10766726065E+03  0.50335296987E+03  0.58067568907E+03  0.26298709120E+03 0.  0.
         25    1    3    3    0    0 -0.55367810602E+02 -0.10766726065E+03  0.32265696527E+03  0.36662359281E+03  0.12509000000E+03 0.  0.
         25    1    4    4    0    0  0.49222878323E+02  0.20627336887E+02  0.21328438052E+03  0.25295476642E+03  0.12509000000E+03 0.  0.
         25    1    4    4    0    0  0.61449322791E+01  0.87039923763E+02  0.29006858935E+03  0.32772092266E+03  0.12509000000E+03 0.  0.
<mgrwt>
<rscale>  2 0.46377097E+03</rscale>
<asrwt>0</asrwt>
<pdfrwt beam="1">  1       21 0.13039038E+00 0.46377097E+03</pdfrwt>
<pdfrwt beam="2">  1       21 0.89183348E-02 0.46377097E+03</pdfrwt>
<totfact> 0.38538221E+04</totfact>
</mgrwt>
</event>
<event>
 7    0  0.4759581E-002  0.4508122E+03  0.7546771E-02  0.1027480E+00
         21   -1    0    0  502  501  0.00000000000E+00  0.00000000000E+00  0.25770016448E+03  0.25770016448E+03  0.00000000000E+00 0. -1.
         21   -1    0    0  501  502 -0.00000000000E+00 -0.00000000000E+00 -0.19715904712E+03  0.19715904712E+03  0.00000000000E+00 0. -1.
      99926    2    1    2    0    0  0.00000000000E+00  0.00000000000E+00  0.60541117355E+02  0.45485921160E+03  0.45081223973E+03 0.  0.
      99925    2    3    3    0    0  0.49481945815E+02 -0.54581075936E+02  0.11960453670E+03  0.29813157391E+03  0.26296317870E+03 0.  0.
         25    1    4    4    0    0  0.37556480245E+02 -0.51945535903E+02  0.29858072604E+02  0.14369356460E+03  0.12509000000E+03 0.  0.
         25    1    4    4    0    0  0.11925465570E+02 -0.26355400330E+01  0.89746464096E+02  0.15443800931E+03  0.12509000000E+03 0.  0.
         25    1    3    3    0    0 -0.49481945815E+02  0.54581075936E+02 -0.59063419345E+02  0.15672763769E+03  0.12509000000E+03 0.  0.
<mgrwt>
<rscale>  2 0.45081224E+03</rscale>
<asrwt>0</asrwt>
<pdfrwt beam="1">  1       21 0.37897083E-01 0.45081224E+03</pdfrwt>
<pdfrwt beam="2">  1       21 0.28993978E-01 0.45081224E+03</pdfrwt>
<totfact> 0.70895078E+04</totfact>
</mgrwt>
</event>
<event>
 7    0  0.4759581E-002  0.4553025E+03  0.7546771E-02  0.1026152E+00
         21   -1    0    0  502  501  0.00000000000E+00  0.00000000000E+00  0.28044575079E+03  0.28044575079E+03  0.00000000000E+00 0. -1.
         21   -1    0    0  501  502 -0.00000000000E+00 -0.00000000000E+00 -0.18479541890E+03  0.18479541890E+03  0.00000000000E+00 0. -1.
      99926    2    1    2    0    0  0.00000000000E+00  0.53290705182E-14  0.95650331886E+02  0.46524116969E+03  0.45530249284E+03 0.  0.
      99925    2    3    3    0    0 -0.78709203449E+02 -0.11753316362E+02  0.14326570645E+03  0.30952344062E+03  0.26257650027E+03 0.  0.
         25    1    4    4    0    0 -0.28239882666E+02 -0.44017676021E+02  0.74925822730E+02  0.15490782352E+03  0.12509000000E+03 0.  0.
         25    1    3    3    0    0  0.78709203449E+02  0.11753316362E+02 -0.47615374560E+02  0.15571772907E+03  0.12509000000E+03 0.  0.
         25    1    4    4    0    0 -0.50469320783E+02  0.32264359660E+02  0.68339883716E+02  0.15461561710E+03  0.12509000000E+03 0.  0.
<mgrwt>
<rscale>  2 0.45530249E+03</rscale>
<asrwt>0</asrwt>
<pdfrwt beam="1">  1       21 0.41242022E-01 0.45530249E+03</pdfrwt>
<pdfrwt beam="2">  1       21 0.27175797E-01 0.45530249E+03</pdfrwt>
<totfact> 0.67629600E+04</totfact>
</mgrwt>
</event>
<event>
 7    0  0.4759581E-002  0.4515433E+03  0.7546771E-02  0.1027263E+00
         21   -1    0    0  502  501  0.00000000000E+00  0.00000000000E+00  0.81255547984E+02  0.81255547984E+02  0.00000000000E+00 0.  1.
         21   -1    0    0  501  502 -0.00000000000E+00 -0.00000000000E+00 -0.62731524222E+03  0.62731524222E+03  0.00000000000E+00 0.  1.
      99926    2    1    2    0    0  0.00000000000E+00  0.00000000000E+00 -0.54605969423E+03  0.70857079020E+03  0.45154332578E+03 0.  0.
      99925    2    3    3    0    0 -0.65683992070E+02 -0.12882721101E+02 -0.20794592329E+03  0.34189820939E+03  0.26300670572E+03 0.  0.
         25    1    4    4    0    0 -0.37631974769E+02 -0.83246901004E+01 -0.54212905341E+02  0.14167573256E+03  0.12509000000E+03 0.  0.
         25    1    3    3    0    0  0.65683992070E+02  0.12882721101E+02 -0.33811377094E+03  0.36667258081E+03  0.12509000000E+03 0.  0.
         25    1    4    4    0    0 -0.28052017301E+02 -0.45580310004E+01 -0.15373301795E+03  0.20022247683E+03  0.12509000000E+03 0.  0.
<mgrwt>
<rscale>  2 0.45154333E+03</rscale>
<asrwt>0</asrwt>
<pdfrwt beam="1">  1       21 0.11949345E-01 0.45154333E+03</pdfrwt>
<pdfrwt beam="2">  1       21 0.92252244E-01 0.45154333E+03</pdfrwt>
<totfact> 0.53890865E+04</totfact>
</mgrwt>
</event>
<event>
 7    0  0.4759581E-002  0.4556367E+03  0.7546771E-02  0.1026054E+00
         21   -1    0    0  502  501  0.00000000000E+00  0.00000000000E+00  0.24515053051E+04  0.24515053051E+04  0.00000000000E+00 0. -1.
         21   -1    0    0  501  502 -0.00000000000E+00 -0.00000000000E+00 -0.21171154225E+02  0.21171154225E+02  0.00000000000E+00 0. -1.
      99926    2    1    2    0    0  0.14210854715E-13  0.35527136788E-14  0.24303341509E+04  0.24726764593E+04  0.45563668376E+03 0.  0.
      99925    2    3    3    0    0  0.69683771018E+02  0.20302595862E+02  0.20040275900E+04  0.20225066966E+04  0.26294245168E+03 0.  0.
         25    1    3    3    0    0 -0.69683771018E+02 -0.20302595862E+02  0.42630656084E+03  0.45016976271E+03  0.12509000000E+03 0.  0.
         25    1    4    4    0    0 -0.22767365263E+01  0.28108019952E+02  0.95562540730E+03  0.96419016356E+03  0.12509000000E+03 0.  0.
         25    1    4    4    0    0  0.71960507545E+02 -0.78054240898E+01  0.10484021827E+04  0.10583165330E+04  0.12509000000E+03 0.  0.
<mgrwt>
<rscale>  2 0.45563668E+03</rscale>
<asrwt>0</asrwt>
<pdfrwt beam="1">  1       21 0.36051529E+00 0.45563668E+03</pdfrwt>
<pdfrwt beam="2">  1       21 0.31134067E-02 0.45563668E+03</pdfrwt>
<totfact> 0.73788630E+03</totfact>
</mgrwt>
</event>
<event>
 7    0  0.4759581E-002  0.4536448E+03  0.7546771E-02  0.1026641E+00
         21   -1    0    0  502  501  0.00000000000E+00  0.00000000000E+00  0.75834307869E+02  0.75834307869E+02  0.00000000000E+00 0. -1.
         21   -1    0    0  501  502 -0.00000000000E+00 -0.00000000000E+00 -0.67843179133E+03  0.67843179133E+03  0.00000000000E+00 0. -1.
      99926    2    1    2    0    0  0.00000000000E+00 -0.14210854715E-13 -0.60259748346E+03  0.75426609919E+03  0.45364481847E+03 0.  0.
      99925    2    3    3    0    0  0.70533979564E+02 -0.76281098798E+02 -0.31042329524E+03  0.41989039334E+03  0.26296667447E+03 0.  0.
         25    1    4    4    0    0  0.49433903950E+02 -0.65466097338E+02 -0.20950046280E+03  0.25742469340E+03  0.12509000000E+03 0.  0.
         25    1    3    3    0    0 -0.70533979564E+02  0.76281098798E+02 -0.29217418822E+03  0.33437570586E+03  0.12509000000E+03 0.  0.
         25    1    4    4    0    0  0.21100075614E+02 -0.10815001461E+02 -0.10092283244E+03  0.16246569994E+03  0.12509000000E+03 0.  0.
<mgrwt>
<rscale>  2 0.45364482E+03</rscale>
<asrwt>0</asrwt>
<pdfrwt beam="1">  1       21 0.11152103E-01 0.45364482E+03</pdfrwt>
<pdfrwt beam="2">  1       21 0.99769387E-01 0.45364482E+03</pdfrwt>
<totfact> 0.50590376E+04</totfact>
</mgrwt>
</event>
<event>
 7    0  0.4759581E-002  0.4554136E+03  0.7546771E-02  0.1026120E+00
         21   -1    0    0  502  501  0.00000000000E+00  0.00000000000E+00  0.23265420561E+02  0.23265420561E+02  0.00000000000E+00 0. -1.
         21   -1    0    0  501  502 -0.00000000000E+00 -0.00000000000E+00 -0.22286457147E+04  0.22286457147E+04  0.00000000000E+00 0. -1.
      99926    2    1    2    0    0 -0.14210854715E-13  0.33306690739E-15 -0.22053802941E+04  0.22519111353E+04  0.45541356956E+03 0.  0.
      99925    2    3    3    0    0  0.10972428881E+03  0.35371108229E+00 -0.12426560572E+04  0.12749131777E+04  0.26300188100E+03 0.  0.
         25    1    4    4    0    0  0.39737760842E+02 -0.33604712025E+02 -0.51705200018E+03  0.53450785335E+03  0.12509000000E+03 0.  0.
         25    1    4    4    0    0  0.69986527973E+02  0.33958423107E+02 -0.72560405704E+03  0.74040532433E+03  0.12509000000E+03 0.  0.
         25    1    3    3    0    0 -0.10972428881E+03 -0.35371108229E+00 -0.96272423693E+03  0.97699795759E+03  0.12509000000E+03 0.  0.
<mgrwt>
<rscale>  2 0.45541357E+03</rscale>
<asrwt>0</asrwt>
<pdfrwt beam="1">  1       21 0.34213842E-02 0.45541357E+03</pdfrwt>
<pdfrwt beam="2">  1       21 0.32774213E+00 0.45541357E+03</pdfrwt>
<totfact> 0.99834768E+03</totfact>
</mgrwt>
</event>
<event>
 7    0  0.4759581E-002  0.4517114E+03  0.7546771E-02  0.1027213E+00
         21   -1    0    0  502  501  0.00000000000E+00  0.00000000000E+00  0.49578289217E+03  0.49578289217E+03  0.00000000000E+00 0.  1.
         21   -1    0    0  501  502 -0.00000000000E+00 -0.00000000000E+00 -0.10288938431E+03  0.10288938431E+03  0.00000000000E+00 0.  1.
      99926    2    1    2    0    0 -0.35527136788E-14 -0.26645352591E-14  0.39289350786E+03  0.59867227648E+03  0.45171139692E+03 0.  0.
      99925    2    3    3    0    0 -0.12375206564E+02 -0.28092075331E+01  0.39280389117E+03  0.47294020613E+03  0.26309029679E+03 0.  0.
         25    1    3    3    0    0  0.12375206564E+02  0.28092075331E+01  0.89616686496E-01  0.12573207035E+03  0.12509000000E+03 0.  0.
         25    1    4    4    0    0  0.21762457578E+02  0.27890644744E+02  0.20197601939E+03  0.24019432369E+03  0.12509000000E+03 0.  0.
         25    1    4    4    0    0 -0.34137664142E+02 -0.30699852277E+02  0.19082787179E+03  0.23274588244E+03  0.12509000000E+03 0.  0.
<mgrwt>
<rscale>  2 0.45171140E+03</rscale>
<asrwt>0</asrwt>
<pdfrwt beam="1">  1       21 0.72909248E-01 0.45171140E+03</pdfrwt>
<pdfrwt beam="2">  1       21 0.15130792E-01 0.45171140E+03</pdfrwt>
<totfact> 0.60312045E+04</totfact>
</mgrwt>
</event>
<event>
 7    0  0.4759581E-002  0.4569930E+03  0.7546771E-02  0.1025657E+00
         21   -1    0    0  502  501  0.00000000000E+00  0.00000000000E+00  0.97828144214E+02  0.97828144214E+02  0.00000000000E+00 0. -1.
         21   -1    0    0  501  502 -0.00000000000E+00 -0.00000000000E+00 -0.53369763192E+03  0.53369763192E+03  0.00000000000E+00 0. -1.
      99926    2    1    2    0    0  0.00000000000E+00  0.00000000000E+00 -0.43586948771E+03  0.63152577613E+03  0.45699299295E+03 0.  0.
      99925    2    3    3    0    0  0.64642654037E+02  0.38258123591E+02 -0.15342939105E+03  0.31362284592E+03  0.26301398195E+03 0.  0.
         25    1    4    4    0    0  0.30885622977E+02  0.56821257359E+02 -0.97543223052E+02  0.17130313908E+03  0.12509000000E+03 0.  0.
         25    1    3    3    0    0 -0.64642654037E+02 -0.38258123591E+02 -0.28244009666E+03  0.31790293022E+03  0.12509000000E+03 0.  0.
         25    1    4    4    0    0  0.33757031060E+02 -0.18563133768E+02 -0.55886167998E+02  0.14231970684E+03  0.12509000000E+03 0.  0.
<mgrwt>
<rscale>  2 0.45699299E+03</rscale>
<asrwt>0</asrwt>
<pdfrwt beam="1">  1       21 0.14386492E-01 0.45699299E+03</pdfrwt>
<pdfrwt beam="2">  1       21 0.78484945E-01 0.45699299E+03</pdfrwt>
<totfact> 0.55894002E+04</totfact>
</mgrwt>
</event>
<event>
 7    0  0.4759581E-002  0.4526492E+03  0.7546771E-02  0.1026935E+00
         21   -1    0    0  502  501  0.00000000000E+00  0.00000000000E+00  0.10044315951E+04  0.10044315951E+04  0.00000000000E+00 0.  1.
         21   -1    0    0  501  502 -0.00000000000E+00 -0.00000000000E+00 -0.50996818640E+02  0.50996818640E+02  0.00000000000E+00 0.  1.
      99926    2    1    2    0    0 -0.71054273576E-14  0.00000000000E+00  0.95343477647E+03  0.10554284138E+04  0.45264916168E+03 0.  0.
      99925    2    3    3    0    0  0.55730609782E+02 -0.95745728390E+02  0.59862487886E+03  0.66324131947E+03  0.26318084448E+03 0.  0.
         25    1    4    4    0    0  0.62193572110E+02 -0.62246416513E+02  0.27607654692E+03  0.31560802373E+03  0.12509000000E+03 0.  0.
         25    1    4    4    0    0 -0.64629623279E+01 -0.33499311877E+02  0.32254833193E+03  0.34763329574E+03  0.12509000000E+03 0.  0.
         25    1    3    3    0    0 -0.55730609782E+02  0.95745728390E+02  0.35480989762E+03  0.39218709428E+03  0.12509000000E+03 0.  0.
<mgrwt>
<rscale>  2 0.45264916E+03</rscale>
<asrwt>0</asrwt>
<pdfrwt beam="1">  1       21 0.14771052E+00 0.45264916E+03</pdfrwt>
<pdfrwt beam="2">  1       21 0.74995328E-02 0.45264916E+03</pdfrwt>
<totfact> 0.37767029E+04</totfact>
</mgrwt>
</event>
<event>
 7    0  0.4759581E-002  0.4550971E+03  0.7546771E-02  0.1026213E+00
         21   -1    0    0  502  501  0.00000000000E+00  0.00000000000E+00  0.25117322240E+03  0.25117322240E+03  0.00000000000E+00 0.  1.
         21   -1    0    0  501  502 -0.00000000000E+00 -0.00000000000E+00 -0.20614598914E+03  0.20614598914E+03  0.00000000000E+00 0.  1.
      99926    2    1    2    0    0  0.00000000000E+00  0.13322676296E-14  0.45027233260E+02  0.45731921154E+03  0.45509714294E+03 0.  0.
      99925    2    3    3    0    0 -0.11289981027E+03  0.28948391628E+01  0.38975077597E+02  0.28868088867E+03  0.26279811939E+03 0.  0.
         25    1    4    4    0    0 -0.70692767443E+02 -0.29363196637E+02  0.42648138148E+02  0.15272863672E+03  0.12509000000E+03 0.  0.
         25    1    4    4    0    0 -0.42207042829E+02  0.32258035799E+02 -0.36730605511E+01  0.13595225196E+03  0.12509000000E+03 0.  0.
         25    1    3    3    0    0  0.11289981027E+03 -0.28948391628E+01  0.60521556623E+01  0.16863832287E+03  0.12509000000E+03 0.  0.
<mgrwt>
<rscale>  2 0.45509714E+03</rscale>
<asrwt>0</asrwt>
<pdfrwt beam="1">  1       21 0.36937239E-01 0.45509714E+03</pdfrwt>
<pdfrwt beam="2">  1       21 0.30315587E-01 0.45509714E+03</pdfrwt>
<totfact> 0.68323246E+04</totfact>
</mgrwt>
</event>
<event>
 7    0  0.4759581E-002  0.4591734E+03  0.7546771E-02  0.1025021E+00
         21   -1    0    0  502  501  0.00000000000E+00  0.00000000000E+00  0.88423623932E+02  0.88423623932E+02  0.00000000000E+00 0.  1.
         21   -1    0    0  501  502 -0.00000000000E+00 -0.00000000000E+00 -0.59610828818E+03  0.59610828818E+03  0.00000000000E+00 0.  1.
      99926    2    1    2    0    0  0.00000000000E+00  0.00000000000E+00 -0.50768466425E+03  0.68453191211E+03  0.45917340993E+03 0.  0.
      99925    2    3    3    0    0  0.28701648559E+02 -0.65789334125E+02 -0.45578799454E+03  0.53125832162E+03  0.26332619925E+03 0.  0.
         25    1    4    4    0    0  0.50326278050E+02 -0.22670492851E+02 -0.26327973084E+03  0.29666548549E+03  0.12509000000E+03 0.  0.
         25    1    4    4    0    0 -0.21624629491E+02 -0.43118841274E+02 -0.19250826370E+03  0.23459283613E+03  0.12509000000E+03 0.  0.
         25    1    3    3    0    0 -0.28701648559E+02  0.65789334125E+02 -0.51896669708E+02  0.15327359049E+03  0.12509000000E+03 0.  0.
<mgrwt>
<rscale>  2 0.45917341E+03</rscale>
<asrwt>0</asrwt>
<pdfrwt beam="1">  1       21 0.13003474E-01 0.45917341E+03</pdfrwt>
<pdfrwt beam="2">  1       21 0.87662985E-01 0.45917341E+03</pdfrwt>
<totfact> 0.52020142E+04</totfact>
</mgrwt>
</event>
<event>
 7    0  0.4759581E-002  0.4556563E+03  0.7546771E-02  0.1026049E+00
         21   -1    0    0  502  501  0.00000000000E+00  0.00000000000E+00  0.32104809260E+03  0.32104809260E+03  0.00000000000E+00 0. -1.
         21   -1    0    0  501  502 -0.00000000000E+00 -0.00000000000E+00 -0.16167565473E+03  0.16167565473E+03  0.00000000000E+00 0. -1.
      99926    2    1    2    0    0  0.00000000000E+00  0.00000000000E+00  0.15937243787E+03  0.48272374733E+03  0.45565627647E+03 0.  0.
      99925    2    3    3    0    0 -0.84788529665E+02  0.29559599921E+02  0.17427665765E+03  0.32802239447E+03  0.26298949249E+03 0.  0.
         25    1    3    3    0    0  0.84788529665E+02 -0.29559599921E+02 -0.14904219784E+02  0.15470135286E+03  0.12509000000E+03 0.  0.
         25    1    4    4    0    0 -0.77699381420E+02  0.10118619019E+02  0.11946453298E+03  0.18989171405E+03  0.12509000000E+03 0.  0.
         25    1    4    4    0    0 -0.70891482447E+01  0.19440980903E+02  0.54812124671E+02  0.13813068042E+03  0.12509000000E+03 0.  0.
<mgrwt>
<rscale>  2 0.45565628E+03</rscale>
<asrwt>0</asrwt>
<pdfrwt beam="1">  1       21 0.47212955E-01 0.45565628E+03</pdfrwt>
<pdfrwt beam="2">  1       21 0.23775832E-01 0.45565628E+03</pdfrwt>
<totfact> 0.66157045E+04</totfact>
</mgrwt>
</event>
<event>
 7    0  0.4759581E-002  0.4532090E+03  0.7546771E-02  0.1026769E+00
         21   -1    0    0  502  501  0.00000000000E+00  0.00000000000E+00  0.46056478775E+02  0.46056478775E+02  0.00000000000E+00 0. -1.
         21   -1    0    0  501  502 -0.00000000000E+00 -0.00000000000E+00 -0.11149266712E+04  0.11149266712E+04  0.00000000000E+00 0. -1.
      99926    2    1    2    0    0  0.00000000000E+00  0.00000000000E+00 -0.10688701924E+04  0.11609831500E+04  0.45320898742E+03 0.  0.
      99925    2    3    3    0    0  0.44279634075E+02 -0.70747577605E+02 -0.86403947572E+03  0.90687876919E+03  0.26248615329E+03 0.  0.
         25    1    3    3    0    0 -0.44279634075E+02  0.70747577605E+02 -0.20483071672E+03  0.25410438081E+03  0.12509000000E+03 0.  0.
         25    1    4    4    0    0  0.12854190305E+02 -0.73163651137E+02 -0.49538565813E+03  0.51630669998E+03  0.12509000000E+03 0.  0.
         25    1    4    4    0    0  0.31425443770E+02  0.24160735319E+01 -0.36865381759E+03  0.39057206921E+03  0.12509000000E+03 0.  0.
<mgrwt>
<rscale>  2 0.45320899E+03</rscale>
<asrwt>0</asrwt>
<pdfrwt beam="1">  1       21 0.67730123E-02 0.45320899E+03</pdfrwt>
<pdfrwt beam="2">  1       21 0.16395979E+00 0.45320899E+03</pdfrwt>
<totfact> 0.33888290E+04</totfact>
</mgrwt>
</event>
<event>
 7    0  0.4759581E-002  0.4531660E+03  0.7546771E-02  0.1026782E+00
         21   -1    0    0  502  501  0.00000000000E+00  0.00000000000E+00  0.37527261912E+02  0.37527261912E+02  0.00000000000E+00 0.  1.
         21   -1    0    0  501  502 -0.00000000000E+00 -0.00000000000E+00 -0.13680684816E+04  0.13680684816E+04  0.00000000000E+00 0.  1.
      99926    2    1    2    0    0  0.00000000000E+00 -0.35527136788E-14 -0.13305412197E+04  0.14055957435E+04  0.45316603678E+03 0.  0.
      99925    2    3    3    0    0 -0.10475599269E+03 -0.27186709375E+02 -0.75744643934E+03  0.80910762919E+03  0.26309145172E+03 0.  0.
         25    1    4    4    0    0 -0.23903872261E+02 -0.35648510570E+01 -0.43245139421E+03  0.45082792696E+03  0.12509000000E+03 0.  0.
         25    1    4    4    0    0 -0.80852120429E+02 -0.23621858318E+02 -0.32499504514E+03  0.35827970223E+03  0.12509000000E+03 0.  0.
         25    1    3    3    0    0  0.10475599269E+03  0.27186709375E+02 -0.57309478033E+03  0.59648811431E+03  0.12509000000E+03 0.  0.
<mgrwt>
<rscale>  2 0.45316604E+03</rscale>
<asrwt>0</asrwt>
<pdfrwt beam="1">  1       21 0.55187148E-02 0.45316604E+03</pdfrwt>
<pdfrwt beam="2">  1       21 0.20118655E+00 0.45316604E+03</pdfrwt>
<totfact> 0.26559775E+04</totfact>
</mgrwt>
</event>
<event>
 7    0  0.4759581E-002  0.4413339E+03  0.7546771E-02  0.1030338E+00
         21   -1    0    0  502  501  0.00000000000E+00  0.00000000000E+00  0.47142583753E+02  0.47142583753E+02  0.00000000000E+00 0. -1.
         21   -1    0    0  501  502 -0.00000000000E+00 -0.00000000000E+00 -0.10329071317E+04  0.10329071317E+04  0.00000000000E+00 0. -1.
      99926    2    1    2    0    0 -0.35527136788E-14  0.00000000000E+00 -0.98576454790E+03  0.10800497154E+04  0.44133393689E+03 0.  0.
      99925    2    3    3    0    0 -0.20419551128E+02 -0.97204414833E+02 -0.64982943428E+03  0.70807449447E+03  0.26310746802E+03 0.  0.
         25    1    4    4    0    0  0.12643234104E+02 -0.48762831014E+02 -0.40618718250E+03  0.42798738344E+03  0.12509000000E+03 0.  0.
         25    1    3    3    0    0  0.20419551128E+02  0.97204414833E+02 -0.33593511363E+03  0.37197522095E+03  0.12509000000E+03 0.  0.
         25    1    4    4    0    0 -0.33062785232E+02 -0.48441583819E+02 -0.24364225178E+03  0.28008711102E+03  0.12509000000E+03 0.  0.
<mgrwt>
<rscale>  2 0.44133394E+03</rscale>
<asrwt>0</asrwt>
<pdfrwt beam="1">  1       21 0.69327327E-02 0.44133394E+03</pdfrwt>
<pdfrwt beam="2">  1       21 0.15189811E+00 0.44133394E+03</pdfrwt>
<totfact> 0.40325079E+04</totfact>
</mgrwt>
</event>
<event>
 7    0  0.4759581E-002  0.4324331E+03  0.7546771E-02  0.1033094E+00
         21   -1    0    0  502  501  0.00000000000E+00  0.00000000000E+00  0.30427303101E+03  0.30427303101E+03  0.00000000000E+00 0.  1.
         21   -1    0    0  501  502 -0.00000000000E+00 -0.00000000000E+00 -0.15364358165E+03  0.15364358165E+03  0.00000000000E+00 0.  1.
      99926    2    1    2    0    0  0.00000000000E+00  0.00000000000E+00  0.15062944937E+03  0.45791661266E+03  0.43243310828E+03 0.  0.
      99925    2    3    3    0    0 -0.21112921018E+02 -0.79842168190E+02  0.57980518787E+02  0.28170123396E+03  0.26300820786E+03 0.  0.
         25    1    4    4    0    0 -0.30305941921E+02 -0.46955584653E+02  0.65413480345E+02  0.15182130469E+03  0.12509000000E+03 0.  0.
         25    1    3    3    0    0  0.21112921018E+02  0.79842168190E+02  0.92648930578E+02  0.17621537871E+03  0.12509000000E+03 0.  0.
         25    1    4    4    0    0  0.91930209031E+01 -0.32886583537E+02 -0.74329615581E+01  0.12987992927E+03  0.12509000000E+03 0.  0.
<mgrwt>
<rscale>  2 0.43243311E+03</rscale>
<asrwt>0</asrwt>
<pdfrwt beam="1">  1       21 0.44746034E-01 0.43243311E+03</pdfrwt>
<pdfrwt beam="2">  1       21 0.22594644E-01 0.43243311E+03</pdfrwt>
<totfact> 0.82088054E+04</totfact>
</mgrwt>
</event>
<event>
 7    0  0.4759581E-002  0.4410923E+03  0.7546771E-02  0.1030412E+00
         21   -1    0    0  502  501  0.00000000000E+00  0.00000000000E+00  0.27445865463E+02  0.27445865463E+02  0.00000000000E+00 0.  1.
         21   -1    0    0  501  502 -0.00000000000E+00 -0.00000000000E+00 -0.17722379637E+04  0.17722379637E+04  0.00000000000E+00 0.  1.
      99926    2    1    2    0    0  0.00000000000E+00  0.00000000000E+00 -0.17447920983E+04  0.17996838292E+04  0.44109230200E+03 0.  0.
      99925    2    3    3    0    0 -0.33270753788E+02 -0.93768476950E+02 -0.11279269029E+04  0.11624478857E+04  0.26299528199E+03 0.  0.
         25    1    3    3    0    0  0.33270753788E+02  0.93768476950E+02 -0.61686519541E+03  0.63723594353E+03  0.12509000000E+03 0.  0.
         25    1    4    4    0    0 -0.33401010368E+01 -0.60570197836E+02 -0.42753627041E+03  0.44957165809E+03  0.12509000000E+03 0.  0.
         25    1    4    4    0    0 -0.29930652752E+02 -0.33198279114E+02 -0.70039063245E+03  0.71287622757E+03  0.12509000000E+03 0.  0.
<mgrwt>
<rscale>  2 0.44109230E+03</rscale>
<asrwt>0</asrwt>
<pdfrwt beam="1">  1       21 0.40361569E-02 0.44109230E+03</pdfrwt>
<pdfrwt beam="2">  1       21 0.26062322E+00 0.44109230E+03</pdfrwt>
<totfact> 0.19262325E+04</totfact>
</mgrwt>
</event>
<event>
 7    0  0.4759581E-002  0.4564550E+03  0.7546771E-02  0.1025814E+00
         21   -1    0    0  502  501  0.00000000000E+00  0.00000000000E+00  0.42529297121E+03  0.42529297121E+03  0.00000000000E+00 0.  1.
         21   -1    0    0  501  502 -0.00000000000E+00 -0.00000000000E+00 -0.12247506486E+03  0.12247506486E+03  0.00000000000E+00 0.  1.
      99926    2    1    2    0    0  0.00000000000E+00 -0.14210854715E-13  0.30281790635E+03  0.54776803607E+03  0.45645496704E+03 0.  0.
      99925    2    3    3    0    0  0.67111203716E+02 -0.81688766667E+02  0.24291522518E+03  0.37337535395E+03  0.26310526421E+03 0.  0.
         25    1    3    3    0    0 -0.67111203716E+02  0.81688766667E+02  0.59902681172E+02  0.17439268212E+03  0.12509000000E+03 0.  0.
         25    1    4    4    0    0  0.63988681521E+02 -0.14569924411E+02  0.12969781152E+03  0.19177034305E+03  0.12509000000E+03 0.  0.
         25    1    4    4    0    0  0.31225221944E+01 -0.67118842256E+02  0.11321741365E+03  0.18160501090E+03  0.12509000000E+03 0.  0.
<mgrwt>
<rscale>  2 0.45645497E+03</rscale>
<asrwt>0</asrwt>
<pdfrwt beam="1">  1       21 0.62543084E-01 0.45645497E+03</pdfrwt>
<pdfrwt beam="2">  1       21 0.18011039E-01 0.45645497E+03</pdfrwt>
<totfact> 0.61305426E+04</totfact>
</mgrwt>
</event>
<event>
 7    0  0.4759581E-002  0.4467202E+03  0.7546771E-02  0.1028705E+00
         21   -1    0    0  502  501  0.00000000000E+00  0.00000000000E+00  0.74666695908E+03  0.74666695908E+03  0.00000000000E+00 0. -1.
         21   -1    0    0  501  502 -0.00000000000E+00 -0.00000000000E+00 -0.66816585865E+02  0.66816585865E+02  0.00000000000E+00 0. -1.
      99926    2    1    2    0    0  0.14210854715E-13  0.00000000000E+00  0.67985037322E+03  0.81348354495E+03  0.44672021214E+03 0.  0.
      99925    2    3    3    0    0 -0.82695414384E+02 -0.56446593598E+02  0.48962368423E+03  0.56476995305E+03  0.26307603126E+03 0.  0.
         25    1    3    3    0    0  0.82695414384E+02  0.56446593598E+02  0.19022668899E+03  0.24871359189E+03  0.12509000000E+03 0.  0.
         25    1    4    4    0    0 -0.69519315005E+02 -0.42845670812E+02  0.32008908739E+03  0.35323252771E+03  0.12509000000E+03 0.  0.
         25    1    4    4    0    0 -0.13176099379E+02 -0.13600922786E+02  0.16953459684E+03  0.21153742534E+03  0.12509000000E+03 0.  0.
<mgrwt>
<rscale>  2 0.44672021E+03</rscale>
<asrwt>0</asrwt>
<pdfrwt beam="1">  1       21 0.10980396E+00 0.44672021E+03</pdfrwt>
<pdfrwt beam="2">  1       21 0.98259690E-02 0.44672021E+03</pdfrwt>
<totfact> 0.50309457E+04</totfact>
</mgrwt>
</event>
<event>
 7    0  0.4759581E-002  0.4613463E+03  0.7546771E-02  0.1024391E+00
         21   -1    0    0  502  501  0.00000000000E+00  0.00000000000E+00  0.69958283865E+03  0.69958283865E+03  0.00000000000E+00 0.  1.
         21   -1    0    0  501  502 -0.00000000000E+00 -0.00000000000E+00 -0.76059759216E+02  0.76059759216E+02  0.00000000000E+00 0.  1.
      99926    2    1    2    0    0  0.00000000000E+00  0.00000000000E+00  0.62352307943E+03  0.77564259786E+03  0.46134630056E+03 0.  0.
      99925    2    3    3    0    0  0.69792579549E+02 -0.58744150595E+02  0.51874819465E+03  0.58870099208E+03  0.26295872156E+03 0.  0.
         25    1    4    4    0    0  0.12460118578E+02 -0.16407908257E+02  0.17565182955E+03  0.21662305356E+03  0.12509000000E+03 0.  0.
         25    1    3    3    0    0 -0.69792579549E+02  0.58744150595E+02  0.10477488478E+03  0.18694160578E+03  0.12509000000E+03 0.  0.
         25    1    4    4    0    0  0.57332460970E+02 -0.42336242338E+02  0.34309636510E+03  0.37207793853E+03  0.12509000000E+03 0.  0.
<mgrwt>
<rscale>  2 0.46134630E+03</rscale>
<asrwt>0</asrwt>
<pdfrwt beam="1">  1       21 0.10287983E+00 0.46134630E+03</pdfrwt>
<pdfrwt beam="2">  1       21 0.11185259E-01 0.46134630E+03</pdfrwt>
<totfact> 0.46600391E+04</totfact>
</mgrwt>
</event>
<event>
 7    0  0.4759581E-002  0.4809617E+03  0.7546771E-02  0.1018871E+00
         21   -1    0    0  502  501  0.00000000000E+00  0.00000000000E+00  0.36212832026E+03  0.36212832026E+03  0.00000000000E+00 0.  1.
         21   -1    0    0  501  502 -0.00000000000E+00 -0.00000000000E+00 -0.15969766070E+03  0.15969766070E+03  0.00000000000E+00 0.  1.
      99926    2    1    2    0    0  0.00000000000E+00  0.00000000000E+00  0.20243065957E+03  0.52182598096E+03  0.48096172662E+03 0.  0.
      99925    2    3    3    0    0 -0.26096818839E+02 -0.13353737742E+03  0.12641787816E+03  0.32197922427E+03  0.26301305257E+03 0.  0.
         25    1    4    4    0    0 -0.29234254099E+02 -0.10738526403E+03  0.83771285021E+02  0.18722011867E+03  0.12509000000E+03 0.  0.
         25    1    4    4    0    0  0.31374352604E+01 -0.26152113397E+02  0.42646593139E+02  0.13475910560E+03  0.12509000000E+03 0.  0.
         25    1    3    3    0    0  0.26096818839E+02  0.13353737742E+03  0.76012781405E+02  0.19984675669E+03  0.12509000000E+03 0.  0.
<mgrwt>
<rscale>  2 0.48096173E+03</rscale>
<asrwt>0</asrwt>
<pdfrwt beam="1">  1       21 0.53254165E-01 0.48096173E+03</pdfrwt>
<pdfrwt beam="2">  1       21 0.23484950E-01 0.48096173E+03</pdfrwt>
<totfact> 0.52158355E+04</totfact>
</mgrwt>
</event>
<event>
 7    0  0.4759581E-002  0.4529694E+03  0.7546771E-02  0.1026840E+00
         21   -1    0    0  502  501  0.00000000000E+00  0.00000000000E+00  0.24432948924E+03  0.24432948924E+03  0.00000000000E+00 0.  1.
         21   -1    0    0  501  502 -0.00000000000E+00 -0.00000000000E+00 -0.20994319644E+03  0.20994319644E+03  0.00000000000E+00 0.  1.
      99926    2    1    2    0    0 -0.71054273576E-14  0.00000000000E+00  0.34386292799E+02  0.45427268567E+03  0.45296937625E+03 0.  0.
      99925    2    3    3    0    0 -0.62415093423E+02 -0.35874702531E+02  0.10692195691E+03  0.29274383736E+03  0.26283837482E+03 0.  0.
         25    1    3    3    0    0  0.62415093423E+02  0.35874702531E+02 -0.72535664111E+02  0.16152884831E+03  0.12509000000E+03 0.  0.
         25    1    4    4    0    0 -0.36560336101E+02  0.17814234392E+02  0.32617485660E+02  0.13551905251E+03  0.12509000000E+03 0.  0.
         25    1    4    4    0    0 -0.25854757322E+02 -0.53688936922E+02  0.74304471250E+02  0.15722478485E+03  0.12509000000E+03 0.  0.
<mgrwt>
<rscale>  2 0.45296938E+03</rscale>
<asrwt>0</asrwt>
<pdfrwt beam="1">  1       21 0.35930807E-01 0.45296938E+03</pdfrwt>
<pdfrwt beam="2">  1       21 0.30874000E-01 0.45296938E+03</pdfrwt>
<totfact> 0.69721934E+04</totfact>
</mgrwt>
</event>
<event>
 7    0  0.4759581E-002  0.4629806E+03  0.7546771E-02  0.1023920E+00
         21   -1    0    0  502  501  0.00000000000E+00  0.00000000000E+00  0.15555825357E+03  0.15555825357E+03  0.00000000000E+00 0.  1.
         21   -1    0    0  501  502 -0.00000000000E+00 -0.00000000000E+00 -0.34448681479E+03  0.34448681479E+03  0.00000000000E+00 0.  1.
      99926    2    1    2    0    0 -0.14210854715E-13  0.00000000000E+00 -0.18892856122E+03  0.50004506836E+03  0.46298063583E+03 0.  0.
      99925    2    3    3    0    0 -0.72421916677E+02  0.65968439482E+02 -0.42220708869E+02  0.28378718743E+03  0.26297492365E+03 0.  0.
         25    1    4    4    0    0  0.32448112530E+00  0.19657428026E+02 -0.36346048219E+02  0.13173861653E+03  0.12509000000E+03 0.  0.
         25    1    3    3    0    0  0.72421916677E+02 -0.65968439482E+02 -0.14670785235E+03  0.21625788093E+03  0.12509000000E+03 0.  0.
         25    1    4    4    0    0 -0.72746397803E+02  0.46311011456E+02 -0.58746606500E+01  0.15204857090E+03  0.12509000000E+03 0.  0.
<mgrwt>
<rscale>  2 0.46298064E+03</rscale>
<asrwt>0</asrwt>
<pdfrwt beam="1">  1       21 0.22876214E-01 0.46298064E+03</pdfrwt>
<pdfrwt beam="2">  1       21 0.50659825E-01 0.46298064E+03</pdfrwt>
<totfact> 0.61291425E+04</totfact>
</mgrwt>
</event>
<event>
 7    0  0.4759581E-002  0.4503382E+03  0.7546771E-02  0.1027621E+00
         21   -1    0    0  502  501  0.00000000000E+00  0.00000000000E+00  0.29467553082E+02  0.29467553082E+02  0.00000000000E+00 0. -1.
         21   -1    0    0  501  502 -0.00000000000E+00 -0.00000000000E+00 -0.17205743082E+04  0.17205743082E+04  0.00000000000E+00 0. -1.
      99926    2    1    2    0    0  0.00000000000E+00  0.00000000000E+00 -0.16911067551E+04  0.17500418613E+04  0.45033816076E+03 0.  0.
      99925    2    3    3    0    0  0.11459704672E+02  0.28363595097E+01 -0.14887288137E+04  0.15118324806E+04  0.26302965410E+03 0.  0.
         25    1    3    3    0    0 -0.11459704672E+02 -0.28363595097E+01 -0.20237794144E+03  0.23820938069E+03  0.12509000000E+03 0.  0.
         25    1    4    4    0    0  0.28454170491E+02  0.29895927437E+02 -0.64850423048E+03  0.66174666705E+03  0.12509000000E+03 0.  0.
         25    1    4    4    0    0 -0.16994465820E+02 -0.27059567927E+02 -0.84022458321E+03  0.85008581356E+03  0.12509000000E+03 0.  0.
<mgrwt>
<rscale>  2 0.45033816E+03</rscale>
<asrwt>0</asrwt>
<pdfrwt beam="1">  1       21 0.43334646E-02 0.45033816E+03</pdfrwt>
<pdfrwt beam="2">  1       21 0.25302558E+00 0.45033816E+03</pdfrwt>
<totfact> 0.18914823E+04</totfact>
</mgrwt>
</event>
<event>
 7    0  0.4759581E-002  0.4576654E+03  0.7546771E-02  0.1025460E+00
         21   -1    0    0  502  501  0.00000000000E+00  0.00000000000E+00  0.20329317937E+03  0.20329317937E+03  0.00000000000E+00 0.  1.
         21   -1    0    0  501  502 -0.00000000000E+00 -0.00000000000E+00 -0.25758071315E+03  0.25758071315E+03  0.00000000000E+00 0.  1.
      99926    2    1    2    0    0  0.00000000000E+00  0.17763568394E-14 -0.54287533781E+02  0.46087389251E+03  0.45766538921E+03 0.  0.
      99925    2    3    3    0    0 -0.13225503533E+02 -0.85782753801E+01 -0.14943986488E+03  0.30291828177E+03  0.26301846221E+03 0.  0.
         25    1    4    4    0    0  0.78939953548E+01  0.20326248270E+02 -0.10703588044E+03  0.16607124776E+03  0.12509000000E+03 0.  0.
         25    1    3    3    0    0  0.13225503533E+02  0.85782753801E+01  0.95152331099E+02  0.15795561075E+03  0.12509000000E+03 0.  0.
         25    1    4    4    0    0 -0.21119498888E+02 -0.28904523650E+02 -0.42403984444E+02  0.13684703401E+03  0.12509000000E+03 0.  0.
<mgrwt>
<rscale>  2 0.45766539E+03</rscale>
<asrwt>0</asrwt>
<pdfrwt beam="1">  1       21 0.29896056E-01 0.45766539E+03</pdfrwt>
<pdfrwt beam="2">  1       21 0.37879517E-01 0.45766539E+03</pdfrwt>
<totfact> 0.66688010E+04</totfact>
</mgrwt>
</event>
<event>
 7    0  0.4759581E-002  0.4532966E+03  0.7546771E-02  0.1026744E+00
         21   -1    0    0  502  501  0.00000000000E+00  0.00000000000E+00  0.82244004682E+02  0.82244004682E+02  0.00000000000E+00 0. -1.
         21   -1    0    0  501  502 -0.00000000000E+00 -0.00000000000E+00 -0.62459800855E+03  0.62459800855E+03  0.00000000000E+00 0. -1.
      99926    2    1    2    0    0  0.71054273576E-14  0.00000000000E+00 -0.54235400387E+03  0.70684201323E+03  0.45329655432E+03 0.  0.
      99925    2    3    3    0    0 -0.61696959933E+02 -0.45657446591E+02 -0.46795097705E+03  0.54229890097E+03  0.26309478097E+03 0.  0.
         25    1    4    4    0    0 -0.66900356791E+02 -0.25362109828E+02 -0.28929640863E+03  0.32320088876E+03  0.12509000000E+03 0.  0.
         25    1    4    4    0    0  0.52033968581E+01 -0.20295336762E+02 -0.17865456842E+03  0.21909801220E+03  0.12509000000E+03 0.  0.
         25    1    3    3    0    0  0.61696959933E+02  0.45657446591E+02 -0.74403026821E+02  0.16454311227E+03  0.12509000000E+03 0.  0.
<mgrwt>
<rscale>  2 0.45329655E+03</rscale>
<asrwt>0</asrwt>
<pdfrwt beam="1">  1       21 0.12094707E-01 0.45329655E+03</pdfrwt>
<pdfrwt beam="2">  1       21 0.91852647E-01 0.45329655E+03</pdfrwt>
<totfact> 0.53243104E+04</totfact>
</mgrwt>
</event>
<event>
 7    0  0.4759581E-002  0.4562044E+03  0.7546771E-02  0.1025888E+00
         21   -1    0    0  502  501  0.00000000000E+00  0.00000000000E+00  0.13028862534E+03  0.13028862534E+03  0.00000000000E+00 0. -1.
         21   -1    0    0  501  502 -0.00000000000E+00 -0.00000000000E+00 -0.39934879562E+03  0.39934879562E+03  0.00000000000E+00 0. -1.
      99926    2    1    2    0    0 -0.14210854715E-13 -0.14210854715E-13 -0.26906017028E+03  0.52963742096E+03  0.45620436478E+03 0.  0.
      99925    2    3    3    0    0 -0.65622276346E+02 -0.92101287465E+02 -0.18805848608E+03  0.34256066866E+03  0.26304540905E+03 0.  0.
         25    1    4    4    0    0 -0.21562899178E+02 -0.15563127975E+02 -0.53171791909E+02  0.13849879829E+03  0.12509000000E+03 0.  0.
         25    1    4    4    0    0 -0.44059377168E+02 -0.76538159490E+02 -0.13488669417E+03  0.20406187037E+03  0.12509000000E+03 0.  0.
         25    1    3    3    0    0  0.65622276346E+02  0.92101287465E+02 -0.81001684202E+02  0.18707675229E+03  0.12509000000E+03 0.  0.
<mgrwt>
<rscale>  2 0.45620436E+03</rscale>
<asrwt>0</asrwt>
<pdfrwt beam="1">  1       21 0.19160092E-01 0.45620436E+03</pdfrwt>
<pdfrwt beam="2">  1       21 0.58727764E-01 0.45620436E+03</pdfrwt>
<totfact> 0.62631067E+04</totfact>
</mgrwt>
</event>
<event>
 7    0  0.4759581E-002  0.4595276E+03  0.7546771E-02  0.1024918E+00
         21   -1    0    0  502  501  0.00000000000E+00  0.00000000000E+00  0.36283893224E+03  0.36283893224E+03  0.00000000000E+00 0. -1.
         21   -1    0    0  501  502 -0.00000000000E+00 -0.00000000000E+00 -0.14549540307E+03  0.14549540307E+03  0.00000000000E+00 0. -1.
      99926    2    1    2    0    0  0.00000000000E+00  0.00000000000E+00  0.21734352918E+03  0.50833433531E+03  0.45952756911E+03 0.  0.
      99925    2    3    3    0    0 -0.99825303847E+02 -0.43416002083E+02  0.87723054977E+02  0.29786102119E+03  0.26301295223E+03 0.  0.
         25    1    3    3    0    0  0.99825303847E+02  0.43416002083E+02  0.12962047420E+03  0.21047331412E+03  0.12509000000E+03 0.  0.
         25    1    4    4    0    0 -0.49674957327E+02 -0.49602507044E+02  0.14005377455E+02  0.14412379674E+03  0.12509000000E+03 0.  0.
         25    1    4    4    0    0 -0.50150346520E+02  0.61865049607E+01  0.73717677523E+02  0.15373722444E+03  0.12509000000E+03 0.  0.
<mgrwt>
<rscale>  2 0.45952757E+03</rscale>
<asrwt>0</asrwt>
<pdfrwt beam="1">  1       21 0.53358666E-01 0.45952757E+03</pdfrwt>
<pdfrwt beam="2">  1       21 0.21396383E-01 0.45952757E+03</pdfrwt>
<totfact> 0.62415717E+04</totfact>
</mgrwt>
</event>
<event>
 7    0  0.4759581E-002  0.4553756E+03  0.7546771E-02  0.1026131E+00
         21   -1    0    0  502  501  0.00000000000E+00  0.00000000000E+00  0.13973399991E+03  0.13973399991E+03  0.00000000000E+00 0. -1.
         21   -1    0    0  501  502 -0.00000000000E+00 -0.00000000000E+00 -0.37100308904E+03  0.37100308904E+03  0.00000000000E+00 0. -1.
      99926    2    1    2    0    0  0.00000000000E+00  0.00000000000E+00 -0.23126908913E+03  0.51073708896E+03  0.45537564982E+03 0.  0.
      99925    2    3    3    0    0 -0.32096137676E+02 -0.73832934831E+02 -0.23537371687E+03  0.36192237064E+03  0.26287934772E+03 0.  0.
         25    1    4    4    0    0 -0.18954936074E+02 -0.60446704983E+02 -0.16726729116E+03  0.21826348420E+03  0.12509000000E+03 0.  0.
         25    1    3    3    0    0  0.32096137676E+02  0.73832934831E+02  0.41046277333E+01  0.14881471832E+03  0.12509000000E+03 0.  0.
         25    1    4    4    0    0 -0.13141201601E+02 -0.13386229848E+02 -0.68106425711E+02  0.14365888644E+03  0.12509000000E+03 0.  0.
<mgrwt>
<rscale>  2 0.45537565E+03</rscale>
<asrwt>0</asrwt>
<pdfrwt beam="1">  1       21 0.20549118E-01 0.45537565E+03</pdfrwt>
<pdfrwt beam="2">  1       21 0.54559277E-01 0.45537565E+03</pdfrwt>
<totfact> 0.64330742E+04</totfact>
</mgrwt>
</event>
<event>
 7    0  0.4759581E-002  0.4581937E+03  0.7546771E-02  0.1025306E+00
         21   -1    0    0  502  501  0.00000000000E+00  0.00000000000E+00  0.10496770368E+03  0.10496770368E+03  0.00000000000E+00 0.  1.
         21   -1    0    0  501  502 -0.00000000000E+00 -0.00000000000E+00 -0.50001436974E+03  0.50001436974E+03  0.00000000000E+00 0.  1.
      99926    2    1    2    0    0  0.00000000000E+00  0.71054273576E-14 -0.39504666606E+03  0.60498207342E+03  0.45819367171E+03 0.  0.
      99925    2    3    3    0    0 -0.87831945887E+02 -0.49953855791E+02 -0.32351388135E+03  0.42898694333E+03  0.26298047019E+03 0.  0.
         25    1    4    4    0    0 -0.48992238707E+02 -0.31872141366E+01 -0.10757114946E+03  0.17213209487E+03  0.12509000000E+03 0.  0.
         25    1    4    4    0    0 -0.38839707180E+02 -0.46766641655E+02 -0.21594273188E+03  0.25685484846E+03  0.12509000000E+03 0.  0.
         25    1    3    3    0    0  0.87831945887E+02  0.49953855791E+02 -0.71532784719E+02  0.17599513009E+03  0.12509000000E+03 0.  0.
<mgrwt>
<rscale>  2 0.45819367E+03</rscale>
<asrwt>0</asrwt>
<pdfrwt beam="1">  1       21 0.15436427E-01 0.45819367E+03</pdfrwt>
<pdfrwt beam="2">  1       21 0.73531526E-01 0.45819367E+03</pdfrwt>
<totfact> 0.56922794E+04</totfact>
</mgrwt>
</event>
<event>
 7    0  0.4759581E-002  0.4529922E+03  0.7546771E-02  0.1026833E+00
         21   -1    0    0  502  501  0.00000000000E+00  0.00000000000E+00  0.63391231276E+02  0.63391231276E+02  0.00000000000E+00 0. -1.
         21   -1    0    0  501  502 -0.00000000000E+00 -0.00000000000E+00 -0.80926770204E+03  0.80926770204E+03  0.00000000000E+00 0. -1.
      99926    2    1    2    0    0  0.00000000000E+00  0.00000000000E+00 -0.74587647077E+03  0.87265893332E+03  0.45299216799E+03 0.  0.
      99925    2    3    3    0    0  0.44962361867E+02  0.97260069063E+02 -0.52714063500E+03  0.59884511159E+03  0.26316740602E+03 0.  0.
         25    1    3    3    0    0 -0.44962361867E+02 -0.97260069063E+02 -0.21873583577E+03  0.27381382173E+03  0.12509000000E+03 0.  0.
         25    1    4    4    0    0  0.57005354472E+02  0.29494474233E+02 -0.28364345437E+03  0.31657645484E+03  0.12509000000E+03 0.  0.
         25    1    4    4    0    0 -0.12042992605E+02  0.67765594831E+02 -0.24349718062E+03  0.28226865675E+03  0.12509000000E+03 0.  0.
<mgrwt>
<rscale>  2 0.45299217E+03</rscale>
<asrwt>0</asrwt>
<pdfrwt beam="1">  1       21 0.93222405E-02 0.45299217E+03</pdfrwt>
<pdfrwt beam="2">  1       21 0.11900995E+00 0.45299217E+03</pdfrwt>
<totfact> 0.45142750E+04</totfact>
</mgrwt>
</event>
<event>
 7    0  0.4759581E-002  0.4495082E+03  0.7546771E-02  0.1027869E+00
         21   -1    0    0  502  501  0.00000000000E+00  0.00000000000E+00  0.35849000793E+03  0.35849000793E+03  0.00000000000E+00 0.  1.
         21   -1    0    0  501  502 -0.00000000000E+00 -0.00000000000E+00 -0.14090880685E+03  0.14090880685E+03  0.00000000000E+00 0.  1.
      99926    2    1    2    0    0  0.71054273576E-14 -0.14210854715E-13  0.21758120108E+03  0.49939881478E+03  0.44950817249E+03 0.  0.
      99925    2    3    3    0    0  0.56139430657E+02 -0.78046954288E+02  0.83311934847E+02  0.29223050952E+03  0.26308711382E+03 0.  0.
         25    1    4    4    0    0 -0.13293928430E+02 -0.41042224088E+02  0.40342492812E+02  0.13833371793E+03  0.12509000000E+03 0.  0.
         25    1    3    3    0    0 -0.56139430657E+02  0.78046954288E+02  0.13426926623E+03  0.20716830526E+03  0.12509000000E+03 0.  0.
         25    1    4    4    0    0  0.69433359086E+02 -0.37004730200E+02  0.42969442035E+02  0.15389679158E+03  0.12509000000E+03 0.  0.
<mgrwt>
<rscale>  2 0.44950817E+03</rscale>
<asrwt>0</asrwt>
<pdfrwt beam="1">  1       21 0.52719119E-01 0.44950817E+03</pdfrwt>
<pdfrwt beam="2">  1       21 0.20721883E-01 0.44950817E+03</pdfrwt>
<totfact> 0.68239474E+04</totfact>
</mgrwt>
</event>
<event>
 7    0  0.4759581E-002  0.4399234E+03  0.7546771E-02  0.1030770E+00
         21   -1    0    0  502  501  0.00000000000E+00  0.00000000000E+00  0.52525109586E+03  0.52525109586E+03  0.00000000000E+00 0. -1.
         21   -1    0    0  501  502 -0.00000000000E+00 -0.00000000000E+00 -0.92114331926E+02  0.92114331926E+02  0.00000000000E+00 0. -1.
      99926    2    1    2    0    0  0.00000000000E+00  0.14210854715E-13  0.43313676394E+03  0.61736542779E+03  0.43992341965E+03 0.  0.
      99925    2    3    3    0    0 -0.34160698588E+02 -0.66130167686E+02  0.36688680836E+03  0.45743820334E+03  0.26287568796E+03 0.  0.
         25    1    4    4    0    0 -0.44526887993E+02 -0.14997612537E+02  0.14292959441E+03  0.19566284572E+03  0.12509000000E+03 0.  0.
         25    1    3    3    0    0  0.34160698588E+02  0.66130167686E+02  0.66249955579E+02  0.15992722445E+03  0.12509000000E+03 0.  0.
         25    1    4    4    0    0  0.10366189406E+02 -0.51132555149E+02  0.22395721394E+03  0.26177535762E+03  0.12509000000E+03 0.  0.
<mgrwt>
<rscale>  2 0.43992342E+03</rscale>
<asrwt>0</asrwt>
<pdfrwt beam="1">  1       21 0.77242807E-01 0.43992342E+03</pdfrwt>
<pdfrwt beam="2">  1       21 0.13546226E-01 0.43992342E+03</pdfrwt>
<totfact> 0.65024185E+04</totfact>
</mgrwt>
</event>
<event>
 7    0  0.4759581E-002  0.4485356E+03  0.7546771E-02  0.1028160E+00
         21   -1    0    0  502  501  0.00000000000E+00  0.00000000000E+00  0.37127421234E+03  0.37127421234E+03  0.00000000000E+00 0. -1.
         21   -1    0    0  501  502 -0.00000000000E+00 -0.00000000000E+00 -0.13546872197E+03  0.13546872197E+03  0.00000000000E+00 0. -1.
      99926    2    1    2    0    0  0.14210854715E-13  0.35527136788E-14  0.23580549037E+03  0.50674293431E+03  0.44853558632E+03 0.  0.
      99925    2    3    3    0    0  0.85964319972E+02 -0.23104522324E+02  0.82242036930E+02  0.28959569028E+03  0.26301754301E+03 0.  0.
         25    1    4    4    0    0  0.77330523683E+02 -0.27085842085E+02  0.64665534208E+02  0.16291958798E+03  0.12509000000E+03 0.  0.
         25    1    4    4    0    0  0.86337962889E+01  0.39813197613E+01  0.17576502722E+02  0.12667610230E+03  0.12509000000E+03 0.  0.
         25    1    3    3    0    0 -0.85964319972E+02  0.23104522324E+02  0.15356345344E+03  0.21714724403E+03  0.12509000000E+03 0.  0.
<mgrwt>
<rscale>  2 0.44853559E+03</rscale>
<asrwt>0</asrwt>
<pdfrwt beam="1">  1       21 0.54599149E-01 0.44853559E+03</pdfrwt>
<pdfrwt beam="2">  1       21 0.19921871E-01 0.44853559E+03</pdfrwt>
<totfact> 0.68233436E+04</totfact>
</mgrwt>
</event>
<event>
 7    0  0.4759581E-002  0.4541518E+03  0.7546771E-02  0.1026491E+00
         21   -1    0    0  502  501  0.00000000000E+00  0.00000000000E+00  0.93695505588E+03  0.93695505588E+03  0.00000000000E+00 0. -1.
         21   -1    0    0  501  502 -0.00000000000E+00 -0.00000000000E+00 -0.55033014005E+02  0.55033014005E+02  0.00000000000E+00 0. -1.
      99926    2    1    2    0    0  0.00000000000E+00  0.00000000000E+00  0.88192204187E+03  0.99198806988E+03  0.45415178393E+03 0.  0.
      99925    2    3    3    0    0  0.10493109461E+03  0.32270007239E+02  0.50311272214E+03  0.57822981100E+03  0.26301219583E+03 0.  0.
         25    1    4    4    0    0  0.41432946559E+02  0.28415029213E+02  0.32223512361E+03  0.34929512727E+03  0.12509000000E+03 0.  0.
         25    1    3    3    0    0 -0.10493109461E+03 -0.32270007239E+02  0.37880931973E+03  0.41375825889E+03  0.12509000000E+03 0.  0.
         25    1    4    4    0    0  0.63498148051E+02  0.38549780265E+01  0.18087759853E+03  0.22893468372E+03  0.12509000000E+03 0.  0.
<mgrwt>
<rscale>  2 0.45415178E+03</rscale>
<asrwt>0</asrwt>
<pdfrwt beam="1">  1       21 0.13778750E+00 0.45415178E+03</pdfrwt>
<pdfrwt beam="2">  1       21 0.80930909E-02 0.45415178E+03</pdfrwt>
<totfact> 0.39742489E+04</totfact>
</mgrwt>
</event>
<event>
 7    0  0.4759581E-002  0.4485902E+03  0.7546771E-02  0.1028143E+00
         21   -1    0    0  502  501  0.00000000000E+00  0.00000000000E+00  0.26990982461E+02  0.26990982461E+02  0.00000000000E+00 0.  1.
         21   -1    0    0  501  502 -0.00000000000E+00 -0.00000000000E+00 -0.18638924346E+04  0.18638924346E+04  0.00000000000E+00 0.  1.
      99926    2    1    2    0    0  0.00000000000E+00  0.00000000000E+00 -0.18369014522E+04  0.18908834171E+04  0.44859018274E+03 0.  0.
      99925    2    3    3    0    0  0.37948940552E+02  0.73764139570E+02 -0.87741366041E+03  0.91972658063E+03  0.26298475481E+03 0.  0.
         25    1    4    4    0    0  0.47894350064E+01  0.68863613139E+02 -0.53142820622E+03  0.55029863017E+03  0.12509000000E+03 0.  0.
         25    1    4    4    0    0  0.33159505546E+02  0.49005264316E+01 -0.34598545420E+03  0.36942795046E+03  0.12509000000E+03 0.  0.
         25    1    3    3    0    0 -0.37948940552E+02 -0.73764139570E+02 -0.95948779176E+03  0.97115683647E+03  0.12509000000E+03 0.  0.
<mgrwt>
<rscale>  2 0.44859018E+03</rscale>
<asrwt>0</asrwt>
<pdfrwt beam="1">  1       21 0.39692610E-02 0.44859018E+03</pdfrwt>
<pdfrwt beam="2">  1       21 0.27410191E+00 0.44859018E+03</pdfrwt>
<totfact> 0.16373631E+04</totfact>
</mgrwt>
</event>
<event>
 7    0  0.4759581E-002  0.4514184E+03  0.7546771E-02  0.1027300E+00
         21   -1    0    0  502  501  0.00000000000E+00  0.00000000000E+00  0.79036077674E+03  0.79036077674E+03  0.00000000000E+00 0. -1.
         21   -1    0    0  501  502 -0.00000000000E+00 -0.00000000000E+00 -0.64457464472E+02  0.64457464472E+02  0.00000000000E+00 0. -1.
      99926    2    1    2    0    0  0.00000000000E+00 -0.35527136788E-14  0.72590331226E+03  0.85481824121E+03  0.45141843864E+03 0.  0.
      99925    2    3    3    0    0 -0.68477171308E+02 -0.26333266702E+02  0.30465275328E+03  0.40930493561E+03  0.26331476659E+03 0.  0.
         25    1    4    4    0    0 -0.34731737092E+02  0.28072439224E+02  0.14843632954E+03  0.19918636357E+03  0.12509000000E+03 0.  0.
         25    1    4    4    0    0 -0.33745434216E+02 -0.54405705925E+02  0.15621642374E+03  0.21011857203E+03  0.12509000000E+03 0.  0.
         25    1    3    3    0    0  0.68477171308E+02  0.26333266702E+02  0.42125055898E+03  0.44551330560E+03  0.12509000000E+03 0.  0.
<mgrwt>
<rscale>  2 0.45141844E+03</rscale>
<asrwt>0</asrwt>
<pdfrwt beam="1">  1       21 0.11622952E+00 0.45141844E+03</pdfrwt>
<pdfrwt beam="2">  1       21 0.94790394E-02 0.45141844E+03</pdfrwt>
<totfact> 0.46517752E+04</totfact>
</mgrwt>
</event>
<event>
 7    0  0.4759581E-002  0.4500888E+03  0.7546771E-02  0.1027696E+00
         21   -1    0    0  502  501  0.00000000000E+00  0.00000000000E+00  0.45765780012E+03  0.45765780012E+03  0.00000000000E+00 0.  1.
         21   -1    0    0  501  502 -0.00000000000E+00 -0.00000000000E+00 -0.11066123326E+03  0.11066123326E+03  0.00000000000E+00 0.  1.
      99926    2    1    2    0    0 -0.71054273576E-14 -0.71054273576E-14  0.34699656686E+03  0.56831903338E+03  0.45008877601E+03 0.  0.
      99925    2    3    3    0    0  0.61947202404E+02  0.53408706162E+02  0.30926410827E+03  0.41417237493E+03  0.26306752310E+03 0.  0.
         25    1    4    4    0    0  0.14960189883E+02  0.61299104735E+02  0.13633019584E+03  0.19548610672E+03  0.12509000000E+03 0.  0.
         25    1    3    3    0    0 -0.61947202404E+02 -0.53408706162E+02  0.37732458587E+02  0.15414665845E+03  0.12509000000E+03 0.  0.
         25    1    4    4    0    0  0.46987012521E+02 -0.78903985735E+01  0.17293391244E+03  0.21868626822E+03  0.12509000000E+03 0.  0.
<mgrwt>
<rscale>  2 0.45008878E+03</rscale>
<asrwt>0</asrwt>
<pdfrwt beam="1">  1       21 0.67302617E-01 0.45008878E+03</pdfrwt>
<pdfrwt beam="2">  1       21 0.16273711E-01 0.45008878E+03</pdfrwt>
<totfact> 0.63086672E+04</totfact>
</mgrwt>
</event>
<event>
 7    0  0.4759581E-002  0.4596610E+03  0.7546771E-02  0.1024880E+00
         21   -1    0    0  502  501  0.00000000000E+00  0.00000000000E+00  0.16024101464E+03  0.16024101464E+03  0.00000000000E+00 0.  1.
         21   -1    0    0  501  502 -0.00000000000E+00 -0.00000000000E+00 -0.32964127841E+03  0.32964127841E+03  0.00000000000E+00 0.  1.
      99926    2    1    2    0    0  0.71054273576E-14 -0.14210854715E-13 -0.16940026377E+03  0.48988229304E+03  0.45966097471E+03 0.  0.
      99925    2    3    3    0    0  0.43062324533E+02 -0.10194034851E+03 -0.14820660861E+03  0.32152886252E+03  0.26300078356E+03 0.  0.
         25    1    3    3    0    0 -0.43062324533E+02  0.10194034851E+03 -0.21193655162E+02  0.16835343052E+03  0.12509000000E+03 0.  0.
         25    1    4    4    0    0  0.35278336608E+02 -0.11446710921E+02 -0.74870668714E+02  0.15042843268E+03  0.12509000000E+03 0.  0.
         25    1    4    4    0    0  0.77839879244E+01 -0.90493637590E+02 -0.73335939892E+02  0.17110042984E+03  0.12509000000E+03 0.  0.
<mgrwt>
<rscale>  2 0.45966097E+03</rscale>
<asrwt>0</asrwt>
<pdfrwt beam="1">  1       21 0.23564855E-01 0.45966097E+03</pdfrwt>
<pdfrwt beam="2">  1       21 0.48476658E-01 0.45966097E+03</pdfrwt>
<totfact> 0.63601359E+04</totfact>
</mgrwt>
</event>
<event>
 7    0  0.4759581E-002  0.4446083E+03  0.7546771E-02  0.1029342E+00
         21   -1    0    0  502  501  0.00000000000E+00  0.00000000000E+00  0.47903815689E+03  0.47903815689E+03  0.00000000000E+00 0. -1.
         21   -1    0    0  501  502 -0.00000000000E+00 -0.00000000000E+00 -0.10316325392E+03  0.10316325392E+03  0.00000000000E+00 0. -1.
      99926    2    1    2    0    0 -0.14210854715E-13  0.17763568394E-14  0.37587490297E+03  0.58220141081E+03  0.44460829959E+03 0.  0.
      99925    2    3    3    0    0 -0.99307873973E+02  0.96272899800E+01  0.20591665621E+03  0.34877465080E+03  0.26322490230E+03 0.  0.
         25    1    3    3    0    0  0.99307873973E+02 -0.96272899800E+01  0.16995824676E+03  0.23342676001E+03  0.12509000000E+03 0.  0.
         25    1    4    4    0    0 -0.58332309323E+02  0.44539558704E+02  0.11406730588E+03  0.18451365525E+03  0.12509000000E+03 0.  0.
         25    1    4    4    0    0 -0.40975564649E+02 -0.34912268724E+02  0.91849350321E+02  0.16426099555E+03  0.12509000000E+03 0.  0.
<mgrwt>
<rscale>  2 0.44460830E+03</rscale>
<asrwt>0</asrwt>
<pdfrwt beam="1">  1       21 0.70446787E-01 0.44460830E+03</pdfrwt>
<pdfrwt beam="2">  1       21 0.15171067E-01 0.44460830E+03</pdfrwt>
<totfact> 0.64961528E+04</totfact>
</mgrwt>
</event>
<event>
 7    0  0.4759581E-002  0.4560260E+03  0.7546771E-02  0.1025940E+00
         21   -1    0    0  502  501  0.00000000000E+00  0.00000000000E+00  0.35912966915E+02  0.35912966915E+02  0.00000000000E+00 0. -1.
         21   -1    0    0  501  502 -0.00000000000E+00 -0.00000000000E+00 -0.14476647427E+04  0.14476647427E+04  0.00000000000E+00 0. -1.
      99926    2    1    2    0    0  0.14210854715E-13  0.00000000000E+00 -0.14117517758E+04  0.14835777097E+04  0.45602603439E+03 0.  0.
      99925    2    3    3    0    0  0.11278847893E+03 -0.12370283523E+02 -0.92789767292E+03  0.97109691402E+03  0.26298452450E+03 0.  0.
         25    1    4    4    0    0  0.28077594549E+02 -0.38357714558E+00 -0.53080817375E+03  0.54607080481E+03  0.12509000000E+03 0.  0.
         25    1    3    3    0    0 -0.11278847893E+03  0.12370283523E+02 -0.48385410291E+03  0.51248079563E+03  0.12509000000E+03 0.  0.
         25    1    4    4    0    0  0.84710884378E+02 -0.11986706378E+02 -0.39708949917E+03  0.42502610921E+03  0.12509000000E+03 0.  0.
<mgrwt>
<rscale>  2 0.45602603E+03</rscale>
<asrwt>0</asrwt>
<pdfrwt beam="1">  1       21 0.52813193E-02 0.45602603E+03</pdfrwt>
<pdfrwt beam="2">  1       21 0.21289185E+00 0.45602603E+03</pdfrwt>
<totfact> 0.23992707E+04</totfact>
</mgrwt>
</event>
<event>
 7    0  0.4759581E-002  0.4552377E+03  0.7546771E-02  0.1026172E+00
         21   -1    0    0  502  501  0.00000000000E+00  0.00000000000E+00  0.90103146349E+02  0.90103146349E+02  0.00000000000E+00 0. -1.
         21   -1    0    0  501  502 -0.00000000000E+00 -0.00000000000E+00 -0.57501143070E+03  0.57501143070E+03  0.00000000000E+00 0. -1.
      99926    2    1    2    0    0  0.00000000000E+00  0.00000000000E+00 -0.48490828435E+03  0.66511457705E+03  0.45523769217E+03 0.  0.
      99925    2    3    3    0    0 -0.38860321205E+02  0.18685204571E+02 -0.45824589157E+03  0.53014179193E+03  0.26306227585E+03 0.  0.
         25    1    4    4    0    0 -0.31032264169E+02  0.36494566597E+02 -0.29134105703E+03  0.32065865717E+03  0.12509000000E+03 0.  0.
         25    1    4    4    0    0 -0.78280570357E+01 -0.17809362026E+02 -0.16690483455E+03  0.20948313476E+03  0.12509000000E+03 0.  0.
         25    1    3    3    0    0  0.38860321205E+02 -0.18685204571E+02 -0.26662392777E+02  0.13497278512E+03  0.12509000000E+03 0.  0.
<mgrwt>
<rscale>  2 0.45523769E+03</rscale>
<asrwt>0</asrwt>
<pdfrwt beam="1">  1       21 0.13250462E-01 0.45523769E+03</pdfrwt>
<pdfrwt beam="2">  1       21 0.84560507E-01 0.45523769E+03</pdfrwt>
<totfact> 0.54735416E+04</totfact>
</mgrwt>
</event>
<event>
 7    0  0.4759581E-002  0.4534790E+03  0.7546771E-02  0.1026690E+00
         21   -1    0    0  502  501  0.00000000000E+00  0.00000000000E+00  0.81261982096E+02  0.81261982096E+02  0.00000000000E+00 0. -1.
         21   -1    0    0  501  502 -0.00000000000E+00 -0.00000000000E+00 -0.63265489524E+03  0.63265489524E+03  0.00000000000E+00 0. -1.
      99926    2    1    2    0    0  0.00000000000E+00  0.44408920985E-14 -0.55139291314E+03  0.71391687733E+03  0.45347895550E+03 0.  0.
      99925    2    3    3    0    0  0.11164372974E+03 -0.29235189886E+01 -0.33939599027E+03  0.44361505943E+03  0.26292929352E+03 0.  0.
         25    1    4    4    0    0  0.41033301141E+02 -0.39240342203E+02 -0.16998925966E+03  0.21855752735E+03  0.12509000000E+03 0.  0.
         25    1    3    3    0    0 -0.11164372974E+03  0.29235189886E+01 -0.21199692288E+03  0.27030181790E+03  0.12509000000E+03 0.  0.
         25    1    4    4    0    0  0.70610428596E+02  0.36316823214E+02 -0.16940673060E+03  0.22505753209E+03  0.12509000000E+03 0.  0.
<mgrwt>
<rscale>  2 0.45347896E+03</rscale>
<asrwt>0</asrwt>
<pdfrwt beam="1">  1       21 0.11950291E-01 0.45347896E+03</pdfrwt>
<pdfrwt beam="2">  1       21 0.93037487E-01 0.45347896E+03</pdfrwt>
<totfact> 0.52782645E+04</totfact>
</mgrwt>
</event>
<event>
 7    0  0.4759581E-002  0.4546033E+03  0.7546771E-02  0.1026358E+00
         21   -1    0    0  502  501  0.00000000000E+00  0.00000000000E+00  0.10734686742E+03  0.10734686742E+03  0.00000000000E+00 0.  1.
         21   -1    0    0  501  502 -0.00000000000E+00 -0.00000000000E+00 -0.48129990972E+03  0.48129990972E+03  0.00000000000E+00 0.  1.
      99926    2    1    2    0    0  0.14210854715E-13 -0.71054273576E-14 -0.37395304230E+03  0.58864677714E+03  0.45460328903E+03 0.  0.
      99925    2    3    3    0    0  0.98595878359E+02  0.52120387455E+02 -0.25695812455E+03  0.38426233327E+03  0.26304444678E+03 0.  0.
         25    1    4    4    0    0  0.28786449622E+02 -0.68886401717E+01 -0.14059883858E+03  0.19050368646E+03  0.12509000000E+03 0.  0.
         25    1    4    4    0    0  0.69809428737E+02  0.59009027627E+02 -0.11635928597E+03  0.19375864681E+03  0.12509000000E+03 0.  0.
         25    1    3    3    0    0 -0.98595878359E+02 -0.52120387455E+02 -0.11699491775E+03  0.20438444387E+03  0.12509000000E+03 0.  0.
<mgrwt>
<rscale>  2 0.45460329E+03</rscale>
<asrwt>0</asrwt>
<pdfrwt beam="1">  1       21 0.15786304E-01 0.45460329E+03</pdfrwt>
<pdfrwt beam="2">  1       21 0.70779398E-01 0.45460329E+03</pdfrwt>
<totfact> 0.59569146E+04</totfact>
</mgrwt>
</event>
<event>
 7    0  0.4759581E-002  0.4438914E+03  0.7546771E-02  0.1029559E+00
         21   -1    0    0  502  501  0.00000000000E+00  0.00000000000E+00  0.49787696466E+02  0.49787696466E+02  0.00000000000E+00 0.  1.
         21   -1    0    0  501  502 -0.00000000000E+00 -0.00000000000E+00 -0.98939911894E+03  0.98939911894E+03  0.00000000000E+00 0.  1.
      99926    2    1    2    0    0  0.00000000000E+00  0.14210854715E-13 -0.93961142247E+03  0.10391868154E+04  0.44389144176E+03 0.  0.
      99925    2    3    3    0    0  0.31288343425E+02  0.90454714340E+02 -0.51130400410E+03  0.58283632673E+03  0.26287902801E+03 0.  0.
         25    1    3    3    0    0 -0.31288343425E+02 -0.90454714340E+02 -0.42830741837E+03  0.45635048868E+03  0.12509000000E+03 0.  0.
         25    1    4    4    0    0  0.54274957583E+02  0.33810042327E+02 -0.25147338651E+03  0.28805426955E+03  0.12509000000E+03 0.  0.
         25    1    4    4    0    0 -0.22986614158E+02  0.56644672013E+02 -0.25983061759E+03  0.29478205718E+03  0.12509000000E+03 0.  0.
<mgrwt>
<rscale>  2 0.44389144E+03</rscale>
<asrwt>0</asrwt>
<pdfrwt beam="1">  1       21 0.73217203E-02 0.44389144E+03</pdfrwt>
<pdfrwt beam="2">  1       21 0.14549987E+00 0.44389144E+03</pdfrwt>
<totfact> 0.41129079E+04</totfact>
</mgrwt>
</event>
<event>
 7    0  0.4759581E-002  0.4459760E+03  0.7546771E-02  0.1028929E+00
         21   -1    0    0  502  501  0.00000000000E+00  0.00000000000E+00  0.54675614772E+02  0.54675614772E+02  0.00000000000E+00 0. -1.
         21   -1    0    0  501  502 -0.00000000000E+00 -0.00000000000E+00 -0.90942994601E+03  0.90942994601E+03  0.00000000000E+00 0. -1.
      99926    2    1    2    0    0  0.00000000000E+00  0.00000000000E+00 -0.85475433123E+03  0.96410556078E+03  0.44597596971E+03 0.  0.
      99925    2    3    3    0    0  0.30579944631E+02 -0.77745744441E+02 -0.40707808762E+03  0.49183332891E+03  0.26307398241E+03 0.  0.
         25    1    3    3    0    0 -0.30579944631E+02  0.77745744441E+02 -0.44767624362E+03  0.47227223187E+03  0.12509000000E+03 0.  0.
         25    1    4    4    0    0 -0.96088389637E+01 -0.71380238375E+02 -0.20526426241E+03  0.25093503888E+03  0.12509000000E+03 0.  0.
         25    1    4    4    0    0  0.40188783595E+02 -0.63655060663E+01 -0.20181382521E+03  0.24089829003E+03  0.12509000000E+03 0.  0.
<mgrwt>
<rscale>  2 0.44597597E+03</rscale>
<asrwt>0</asrwt>
<pdfrwt beam="1">  1       21 0.80405317E-02 0.44597597E+03</pdfrwt>
<pdfrwt beam="2">  1       21 0.13373970E+00 0.44597597E+03</pdfrwt>
<totfact> 0.43568524E+04</totfact>
</mgrwt>
</event>
<event>
 7    0  0.4759581E-002  0.4554239E+03  0.7546771E-02  0.1026117E+00
         21   -1    0    0  502  501  0.00000000000E+00  0.00000000000E+00  0.24387092414E+03  0.24387092414E+03  0.00000000000E+00 0.  1.
         21   -1    0    0  501  502 -0.00000000000E+00 -0.00000000000E+00 -0.21262366772E+03  0.21262366772E+03  0.00000000000E+00 0.  1.
      99926    2    1    2    0    0 -0.17763568394E-14 -0.14210854715E-13  0.31247256417E+02  0.45649459186E+03  0.45542389196E+03 0.  0.
      99925    2    3    3    0    0 -0.15101185686E+02 -0.77066469754E+02 -0.62758918691E+02  0.28141759272E+03  0.26284956353E+03 0.  0.
         25    1    4    4    0    0 -0.13720358538E+01 -0.24653694687E+02 -0.68958641795E+02  0.14495685400E+03  0.12509000000E+03 0.  0.
         25    1    4    4    0    0 -0.13729149832E+02 -0.52412775066E+02  0.61997231045E+01  0.13646073872E+03  0.12509000000E+03 0.  0.
         25    1    3    3    0    0  0.15101185686E+02  0.77066469754E+02  0.94006175108E+02  0.17507699914E+03  0.12509000000E+03 0.  0.
<mgrwt>
<rscale>  2 0.45542389E+03</rscale>
<asrwt>0</asrwt>
<pdfrwt beam="1">  1       21 0.35863371E-01 0.45542389E+03</pdfrwt>
<pdfrwt beam="2">  1       21 0.31268186E-01 0.45542389E+03</pdfrwt>
<totfact> 0.68205503E+04</totfact>
</mgrwt>
</event>
<event>
 7    0  0.4759581E-002  0.4551452E+03  0.7546771E-02  0.1026199E+00
         21   -1    0    0  502  501  0.00000000000E+00  0.00000000000E+00  0.16002113995E+04  0.16002113995E+04  0.00000000000E+00 0.  1.
         21   -1    0    0  501  502 -0.00000000000E+00 -0.00000000000E+00 -0.32364035664E+02  0.32364035664E+02  0.00000000000E+00 0.  1.
      99926    2    1    2    0    0 -0.38857805862E-15  0.00000000000E+00  0.15678473639E+04  0.16325754352E+04  0.45514524629E+03 0.  0.
      99925    2    3    3    0    0  0.36008628165E+00  0.20504064367E+02  0.13861082840E+04  0.14109966737E+04  0.26304921924E+03 0.  0.
         25    1    4    4    0    0 -0.13585149910E+02 -0.22460763139E+01  0.88115215162E+03  0.89009337913E+03  0.12509000000E+03 0.  0.
         25    1    3    3    0    0 -0.36008628165E+00 -0.20504064367E+02  0.18173907984E+03  0.22157876152E+03  0.12509000000E+03 0.  0.
         25    1    4    4    0    0  0.13945236192E+02  0.22750140681E+02  0.50495613243E+03  0.52090329457E+03  0.12509000000E+03 0.  0.
<mgrwt>
<rscale>  2 0.45514525E+03</rscale>
<asrwt>0</asrwt>
<pdfrwt beam="1">  1       21 0.23532515E+00 0.45514525E+03</pdfrwt>
<pdfrwt beam="2">  1       21 0.47594181E-02 0.45514525E+03</pdfrwt>
<totfact> 0.20680232E+04</totfact>
</mgrwt>
</event>
<event>
 7    0  0.4759581E-002  0.4559624E+03  0.7546771E-02  0.1025959E+00
         21   -1    0    0  502  501  0.00000000000E+00  0.00000000000E+00  0.11444541583E+03  0.11444541583E+03  0.00000000000E+00 0.  1.
         21   -1    0    0  501  502 -0.00000000000E+00 -0.00000000000E+00 -0.45415030974E+03  0.45415030974E+03  0.00000000000E+00 0.  1.
      99926    2    1    2    0    0 -0.35527136788E-14  0.00000000000E+00 -0.33970489391E+03  0.56859572557E+03  0.45596237146E+03 0.  0.
      99925    2    3    3    0    0  0.89997116368E+01  0.10351479562E+03 -0.27330892465E+03  0.39294766678E+03  0.26251436687E+03 0.  0.
         25    1    4    4    0    0  0.33821530405E+02  0.80991422240E+02 -0.15006799965E+03  0.21417614016E+03  0.12509000000E+03 0.  0.
         25    1    3    3    0    0 -0.89997116368E+01 -0.10351479562E+03 -0.66395969255E+02  0.17564805879E+03  0.12509000000E+03 0.  0.
         25    1    4    4    0    0 -0.24821818768E+02  0.22523373381E+02 -0.12324092500E+03  0.17877152662E+03  0.12509000000E+03 0.  0.
<mgrwt>
<rscale>  2 0.45596237E+03</rscale>
<asrwt>0</asrwt>
<pdfrwt beam="1">  1       21 0.16830208E-01 0.45596237E+03</pdfrwt>
<pdfrwt beam="2">  1       21 0.66786812E-01 0.45596237E+03</pdfrwt>
<totfact> 0.60194733E+04</totfact>
</mgrwt>
</event>
<event>
 7    0  0.4759581E-002  0.4607463E+03  0.7546771E-02  0.1024565E+00
         21   -1    0    0  502  501  0.00000000000E+00  0.00000000000E+00  0.47983820644E+02  0.47983820644E+02  0.00000000000E+00 0.  1.
         21   -1    0    0  501  502 -0.00000000000E+00 -0.00000000000E+00 -0.11060348535E+04  0.11060348535E+04  0.00000000000E+00 0.  1.
      99926    2    1    2    0    0  0.00000000000E+00  0.00000000000E+00 -0.10580510329E+04  0.11540186741E+04  0.46074625571E+03 0.  0.
      99925    2    3    3    0    0 -0.96362271192E+02  0.53961884170E+02 -0.77000304813E+03  0.82112721758E+03  0.26295939051E+03 0.  0.
         25    1    4    4    0    0 -0.81237910108E+02  0.28640281507E+01 -0.41130895387E+03  0.43752755837E+03  0.12509000000E+03 0.  0.
         25    1    3    3    0    0  0.96362271192E+02 -0.53961884170E+02 -0.28804798472E+03  0.33289145657E+03  0.12509000000E+03 0.  0.
         25    1    4    4    0    0 -0.15124361084E+02  0.51097856019E+02 -0.35869409426E+03  0.38359965921E+03  0.12509000000E+03 0.  0.
<mgrwt>
<rscale>  2 0.46074626E+03</rscale>
<asrwt>0</asrwt>
<pdfrwt beam="1">  1       21 0.70564436E-02 0.46074626E+03</pdfrwt>
<pdfrwt beam="2">  1       21 0.16265220E+00 0.46074626E+03</pdfrwt>
<totfact> 0.32182893E+04</totfact>
</mgrwt>
</event>
<event>
 7    0  0.4759581E-002  0.4571507E+03  0.7546771E-02  0.1025611E+00
         21   -1    0    0  502  501  0.00000000000E+00  0.00000000000E+00  0.92969694466E+02  0.92969694466E+02  0.00000000000E+00 0. -1.
         21   -1    0    0  501  502 -0.00000000000E+00 -0.00000000000E+00 -0.56197539247E+03  0.56197539247E+03  0.00000000000E+00 0. -1.
      99926    2    1    2    0    0  0.00000000000E+00  0.00000000000E+00 -0.46900569801E+03  0.65494508694E+03  0.45715065585E+03 0.  0.
      99925    2    3    3    0    0  0.10835335296E+03 -0.30049423654E+02 -0.33107100523E+03  0.43742059515E+03  0.26284092070E+03 0.  0.
         25    1    3    3    0    0 -0.10835335296E+03  0.30049423654E+02 -0.13793469278E+03  0.21752449179E+03  0.12509000000E+03 0.  0.
         25    1    4    4    0    0  0.86552816874E+02 -0.41164349541E+02 -0.19954119871E+03  0.25426382335E+03  0.12509000000E+03 0.  0.
         25    1    4    4    0    0  0.21800536082E+02  0.11114925887E+02 -0.13152980652E+03  0.18315677179E+03  0.12509000000E+03 0.  0.
<mgrwt>
<rscale>  2 0.45715066E+03</rscale>
<asrwt>0</asrwt>
<pdfrwt beam="1">  1       21 0.13672015E-01 0.45715066E+03</pdfrwt>
<pdfrwt beam="2">  1       21 0.82643436E-01 0.45715066E+03</pdfrwt>
<totfact> 0.54487285E+04</totfact>
</mgrwt>
</event>
<event>
 6    0  0.4759581E-002  0.7802040E+03  0.7546771E-02  0.9589121E-01
         21   -1    0    0  502  501  0.00000000000E+00  0.00000000000E+00  0.51390230194E+03  0.51390230194E+03  0.00000000000E+00 0.  1.
         21   -1    0    0  501  502 -0.00000000000E+00 -0.00000000000E+00 -0.29612549138E+03  0.29612549138E+03  0.00000000000E+00 0.  1.
      99925    2    1    2    0    0  0.52865249884E+02 -0.26065290244E+03  0.32667771054E+03  0.49659265759E+03  0.26296629217E+03 0.  0.
         25    1    3    3    0    0  0.14007920393E+02 -0.18055563067E+03  0.18139412933E+03  0.28521552527E+03  0.12509000000E+03 0.  0.
         25    1    1    2    0    0 -0.52865249884E+02  0.26065290244E+03 -0.10890089998E+03  0.31343513573E+03  0.12509000000E+03 0.  0.
         25    1    3    3    0    0  0.38857329491E+02 -0.80097271777E+02  0.14528358120E+03  0.21137713232E+03  0.12509000000E+03 0.  0.
<mgrwt>
<rscale>  2 0.78020400E+03</rscale>
<asrwt>0</asrwt>
<pdfrwt beam="1">  1       21 0.75573869E-01 0.78020400E+03</pdfrwt>
<pdfrwt beam="2">  1       21 0.43547866E-01 0.78020400E+03</pdfrwt>
<totfact> 0.65017019E+03</totfact>
</mgrwt>
</event>
<event>
 7    0  0.4759581E-002  0.4563630E+03  0.7546771E-02  0.1025841E+00
         21   -1    0    0  502  501  0.00000000000E+00  0.00000000000E+00  0.21647940375E+03  0.21647940375E+03  0.00000000000E+00 0.  1.
         21   -1    0    0  501  502 -0.00000000000E+00 -0.00000000000E+00 -0.24051621015E+03  0.24051621015E+03  0.00000000000E+00 0.  1.
      99926    2    1    2    0    0  0.00000000000E+00  0.00000000000E+00 -0.24036806401E+02  0.45699561391E+03  0.45636303868E+03 0.  0.
      99925    2    3    3    0    0  0.50045955270E+01 -0.80333051435E+02  0.66327921185E+02  0.28295039788E+03  0.26302678458E+03 0.  0.
         25    1    4    4    0    0 -0.23076903068E+02 -0.22401072479E+02  0.59216418030E+02  0.14208604354E+03  0.12509000000E+03 0.  0.
         25    1    3    3    0    0 -0.50045955270E+01  0.80333051435E+02 -0.90364727586E+02  0.17404521602E+03  0.12509000000E+03 0.  0.
         25    1    4    4    0    0  0.28081498595E+02 -0.57931978955E+02  0.71115031555E+01  0.14086435435E+03  0.12509000000E+03 0.  0.
<mgrwt>
<rscale>  2 0.45636304E+03</rscale>
<asrwt>0</asrwt>
<pdfrwt beam="1">  1       21 0.31835206E-01 0.45636304E+03</pdfrwt>
<pdfrwt beam="2">  1       21 0.35370031E-01 0.45636304E+03</pdfrwt>
<totfact> 0.67661026E+04</totfact>
</mgrwt>
</event>
<event>
 7    0  0.4759581E-002  0.4518214E+03  0.7546771E-02  0.1027180E+00
         21   -1    0    0  502  501  0.00000000000E+00  0.00000000000E+00  0.26032192993E+03  0.26032192993E+03  0.00000000000E+00 0. -1.
         21   -1    0    0  501  502 -0.00000000000E+00 -0.00000000000E+00 -0.19604823584E+03  0.19604823584E+03  0.00000000000E+00 0. -1.
      99926    2    1    2    0    0  0.00000000000E+00 -0.17763568394E-14  0.64273694090E+02  0.45637016577E+03  0.45182144753E+03 0.  0.
      99925    2    3    3    0    0  0.93563696727E+02  0.10686352937E+02 -0.14321538386E+02  0.28117575332E+03  0.26454930412E+03 0.  0.
         25    1    4    4    0    0  0.18891746060E+02 -0.27503851053E+02 -0.16806840964E+02  0.13055013556E+03  0.12509000000E+03 0.  0.
         25    1    3    3    0    0 -0.93563696727E+02 -0.10686352937E+02  0.78595232476E+02  0.17519441245E+03  0.12509000000E+03 0.  0.
         25    1    4    4    0    0  0.74671950667E+02  0.38190203991E+02  0.24853025786E+01  0.15062561776E+03  0.12509000000E+03 0.  0.
<mgrwt>
<rscale>  2 0.45182145E+03</rscale>
<asrwt>0</asrwt>
<pdfrwt beam="1">  1       21 0.38282637E-01 0.45182145E+03</pdfrwt>
<pdfrwt beam="2">  1       21 0.28830623E-01 0.45182145E+03</pdfrwt>
<totfact> 0.70208772E+04</totfact>
</mgrwt>
</event>
<event>
 7    0  0.4759581E-002  0.4510680E+03  0.7546771E-02  0.1027404E+00
         21   -1    0    0  502  501  0.00000000000E+00  0.00000000000E+00  0.32286182390E+03  0.32286182390E+03  0.00000000000E+00 0.  1.
         21   -1    0    0  501  502 -0.00000000000E+00 -0.00000000000E+00 -0.15754600348E+03  0.15754600348E+03  0.00000000000E+00 0.  1.
      99926    2    1    2    0    0  0.00000000000E+00  0.00000000000E+00  0.16531582042E+03  0.48040782738E+03  0.45106802162E+03 0.  0.
      99925    2    3    3    0    0  0.78598387013E+02 -0.69567444761E+02  0.67884031055E+02  0.29025578955E+03  0.26195962644E+03 0.  0.
         25    1    3    3    0    0 -0.78598387013E+02  0.69567444761E+02  0.97431789362E+02  0.19015203783E+03  0.12509000000E+03 0.  0.
         25    1    4    4    0    0  0.76424801383E+02 -0.31562411448E+02  0.21310819410E+02  0.15145492797E+03  0.12509000000E+03 0.  0.
         25    1    4    4    0    0  0.21735856295E+01 -0.38005033313E+02  0.46573211645E+02  0.13880086158E+03  0.12509000000E+03 0.  0.
<mgrwt>
<rscale>  2 0.45106802E+03</rscale>
<asrwt>0</asrwt>
<pdfrwt beam="1">  1       21 0.47479680E-01 0.45106802E+03</pdfrwt>
<pdfrwt beam="2">  1       21 0.23168530E-01 0.45106802E+03</pdfrwt>
<totfact> 0.68792643E+04</totfact>
</mgrwt>
</event>
<event>
 7    0  0.4759581E-002  0.4461728E+03  0.7546771E-02  0.1028870E+00
         21   -1    0    0  502  501  0.00000000000E+00  0.00000000000E+00  0.26310152990E+04  0.26310152990E+04  0.00000000000E+00 0. -1.
         21   -1    0    0  501  502 -0.00000000000E+00 -0.00000000000E+00 -0.18915715145E+02  0.18915715145E+02  0.00000000000E+00 0. -1.
      99926    2    1    2    0    0  0.13322676296E-14 -0.17763568394E-14  0.26120995839E+04  0.26499310142E+04  0.44617277344E+03 0.  0.
      99925    2    3    3    0    0  0.31523304935E+01  0.64940293149E+01  0.10375107738E+04  0.10703647640E+04  0.26305895300E+03 0.  0.
         25    1    4    4    0    0 -0.84158108798E+01 -0.23107344707E+02  0.63490813310E+03  0.64758059022E+03  0.12509000000E+03 0.  0.
         25    1    3    3    0    0 -0.31523304935E+01 -0.64940293149E+01  0.15745888101E+04  0.15795662501E+04  0.12509000000E+03 0.  0.
         25    1    4    4    0    0  0.11568141373E+02  0.29601374022E+02  0.40260264068E+03  0.42278417381E+03  0.12509000000E+03 0.  0.
<mgrwt>
<rscale>  2 0.44617277E+03</rscale>
<asrwt>0</asrwt>
<pdfrwt beam="1">  1       21 0.38691376E+00 0.44617277E+03</pdfrwt>
<pdfrwt beam="2">  1       21 0.27817246E-02 0.44617277E+03</pdfrwt>
<totfact> 0.61260110E+03</totfact>
</mgrwt>
</event>
<event>
 7    0  0.4759581E-002  0.4386165E+03  0.7546771E-02  0.1031172E+00
         21   -1    0    0  502  501  0.00000000000E+00  0.00000000000E+00  0.99950171361E+02  0.99950171361E+02  0.00000000000E+00 0.  1.
         21   -1    0    0  501  502 -0.00000000000E+00 -0.00000000000E+00 -0.48120088063E+03  0.48120088063E+03  0.00000000000E+00 0.  1.
      99926    2    1    2    0    0  0.00000000000E+00  0.00000000000E+00 -0.38125070927E+03  0.58115105199E+03  0.43861650894E+03 0.  0.
      99925    2    3    3    0    0  0.26393576913E+02 -0.76660226831E+02 -0.31437287124E+03  0.41776939880E+03  0.26292119945E+03 0.  0.
         25    1    4    4    0    0  0.13543956031E+02 -0.88263988500E+01 -0.10406550783E+03  0.16351905724E+03  0.12509000000E+03 0.  0.
         25    1    4    4    0    0  0.12849620881E+02 -0.67833827981E+02 -0.21030736342E+03  0.25425034156E+03  0.12509000000E+03 0.  0.
         25    1    3    3    0    0 -0.26393576913E+02  0.76660226831E+02 -0.66877838022E+02  0.16338165319E+03  0.12509000000E+03 0.  0.
<mgrwt>
<rscale>  2 0.43861651E+03</rscale>
<asrwt>0</asrwt>
<pdfrwt beam="1">  1       21 0.14698555E-01 0.43861651E+03</pdfrwt>
<pdfrwt beam="2">  1       21 0.70764833E-01 0.43861651E+03</pdfrwt>
<totfact> 0.68275878E+04</totfact>
</mgrwt>
</event>
<event>
 7    0  0.4759581E-002  0.4463720E+03  0.7546771E-02  0.1028809E+00
         21   -1    0    0  502  501  0.00000000000E+00  0.00000000000E+00  0.40619478321E+03  0.40619478321E+03  0.00000000000E+00 0.  1.
         21   -1    0    0  501  502 -0.00000000000E+00 -0.00000000000E+00 -0.12263079953E+03  0.12263079953E+03  0.00000000000E+00 0.  1.
      99926    2    1    2    0    0  0.00000000000E+00  0.35527136788E-14  0.28356398368E+03  0.52882558273E+03  0.44637200194E+03 0.  0.
      99925    2    3    3    0    0  0.11027874208E+02 -0.30931817205E+02  0.63695033127E+02  0.27374078342E+03  0.26419418603E+03 0.  0.
         25    1    3    3    0    0 -0.11027874208E+02  0.30931817205E+02  0.21986895055E+03  0.25508479932E+03  0.12509000000E+03 0.  0.
         25    1    4    4    0    0 -0.10789144975E+02 -0.13297980377E+02  0.71877701284E+02  0.14528301337E+03  0.12509000000E+03 0.  0.
         25    1    4    4    0    0  0.21817019182E+02 -0.17633836828E+02 -0.81826681575E+01  0.12845777005E+03  0.12509000000E+03 0.  0.
<mgrwt>
<rscale>  2 0.44637200E+03</rscale>
<asrwt>0</asrwt>
<pdfrwt beam="1">  1       21 0.59734526E-01 0.44637200E+03</pdfrwt>
<pdfrwt beam="2">  1       21 0.18033941E-01 0.44637200E+03</pdfrwt>
<totfact> 0.67801297E+04</totfact>
</mgrwt>
</event>
<event>
 7    0  0.4759581E-002  0.4623733E+03  0.7546771E-02  0.1024095E+00
         21   -1    0    0  502  501  0.00000000000E+00  0.00000000000E+00  0.14852219557E+03  0.14852219557E+03  0.00000000000E+00 0.  1.
         21   -1    0    0  501  502 -0.00000000000E+00 -0.00000000000E+00 -0.35986045943E+03  0.35986045943E+03  0.00000000000E+00 0.  1.
      99926    2    1    2    0    0  0.00000000000E+00  0.17763568394E-14 -0.21133826386E+03  0.50838265500E+03  0.46237329306E+03 0.  0.
      99925    2    3    3    0    0  0.43760135363E+02  0.13123225579E+02 -0.10155254105E+02  0.26711666069E+03  0.26298481465E+03 0.  0.
         25    1    4    4    0    0  0.17409429882E+02  0.45385596941E+02  0.56946824330E+01  0.13432378109E+03  0.12509000000E+03 0.  0.
         25    1    4    4    0    0  0.26350705481E+02 -0.32262371362E+02 -0.15849936538E+02  0.13279287960E+03  0.12509000000E+03 0.  0.
         25    1    3    3    0    0 -0.43760135363E+02 -0.13123225579E+02 -0.20118300975E+03  0.24126599431E+03  0.12509000000E+03 0.  0.
<mgrwt>
<rscale>  2 0.46237329E+03</rscale>
<asrwt>0</asrwt>
<pdfrwt beam="1">  1       21 0.21841500E-01 0.46237329E+03</pdfrwt>
<pdfrwt beam="2">  1       21 0.52920655E-01 0.46237329E+03</pdfrwt>
<totfact> 0.61034649E+04</totfact>
</mgrwt>
</event>
<event>
 7    0  0.4759581E-002  0.4571111E+03  0.7546771E-02  0.1025622E+00
         21   -1    0    0  502  501  0.00000000000E+00  0.00000000000E+00  0.16405261466E+03  0.16405261466E+03  0.00000000000E+00 0.  1.
         21   -1    0    0  501  502 -0.00000000000E+00 -0.00000000000E+00 -0.31842000609E+03  0.31842000609E+03  0.00000000000E+00 0.  1.
      99926    2    1    2    0    0  0.00000000000E+00  0.00000000000E+00 -0.15436739143E+03  0.48247262075E+03  0.45711107867E+03 0.  0.
      99925    2    3    3    0    0 -0.84060148403E+02  0.45185132191E+02 -0.29593880758E+02  0.28166489733E+03  0.26334675219E+03 0.  0.
         25    1    4    4    0    0 -0.34637960174E+02 -0.49381001261E+01  0.16442381294E+02  0.13092758732E+03  0.12509000000E+03 0.  0.
         25    1    4    4    0    0 -0.49422188229E+02  0.50123232317E+02 -0.46036262051E+02  0.15073731002E+03  0.12509000000E+03 0.  0.
         25    1    3    3    0    0  0.84060148403E+02 -0.45185132191E+02 -0.12477351067E+03  0.20080772342E+03  0.12509000000E+03 0.  0.
<mgrwt>
<rscale>  2 0.45711108E+03</rscale>
<asrwt>0</asrwt>
<pdfrwt beam="1">  1       21 0.24125385E-01 0.45711108E+03</pdfrwt>
<pdfrwt beam="2">  1       21 0.46826471E-01 0.45711108E+03</pdfrwt>
<totfact> 0.65417444E+04</totfact>
</mgrwt>
</event>
<event>
 7    0  0.4759581E-002  0.4464574E+03  0.7546771E-02  0.1028784E+00
         21   -1    0    0  502  501  0.00000000000E+00  0.00000000000E+00  0.13507318941E+03  0.13507318941E+03  0.00000000000E+00 0.  1.
         21   -1    0    0  501  502 -0.00000000000E+00 -0.00000000000E+00 -0.36891882395E+03  0.36891882395E+03  0.00000000000E+00 0.  1.
      99926    2    1    2    0    0 -0.88817841970E-15  0.00000000000E+00 -0.23384563454E+03  0.50399201335E+03  0.44645735377E+03 0.  0.
      99925    2    3    3    0    0  0.45265661756E+01  0.10446546644E+03 -0.15948883355E+03  0.32479947603E+03  0.26291536303E+03 0.  0.
         25    1    4    4    0    0 -0.16212604423E+02  0.84708170330E+02 -0.64125740252E+02  0.16491798363E+03  0.12509000000E+03 0.  0.
         25    1    4    4    0    0  0.20739170598E+02  0.19757296114E+02 -0.95363093297E+02  0.15988149239E+03  0.12509000000E+03 0.  0.
         25    1    3    3    0    0 -0.45265661756E+01 -0.10446546644E+03 -0.74356800988E+02  0.17919253733E+03  0.12509000000E+03 0.  0.
<mgrwt>
<rscale>  2 0.44645735E+03</rscale>
<asrwt>0</asrwt>
<pdfrwt beam="1">  1       21 0.19863704E-01 0.44645735E+03</pdfrwt>
<pdfrwt beam="2">  1       21 0.54252769E-01 0.44645735E+03</pdfrwt>
<totfact> 0.69590947E+04</totfact>
</mgrwt>
</event>
<event>
 7    0  0.4759581E-002  0.4554632E+03  0.7546771E-02  0.1026105E+00
         21   -1    0    0  502  501  0.00000000000E+00  0.00000000000E+00  0.11980856727E+03  0.11980856727E+03  0.00000000000E+00 0.  1.
         21   -1    0    0  501  502 -0.00000000000E+00 -0.00000000000E+00 -0.43287120113E+03  0.43287120113E+03  0.00000000000E+00 0.  1.
      99926    2    1    2    0    0 -0.14210854715E-13  0.00000000000E+00 -0.31306263385E+03  0.55267976840E+03  0.45546318587E+03 0.  0.
      99925    2    3    3    0    0  0.77782521807E+02  0.73558363563E+02 -0.15076642542E+03  0.32149040679E+03  0.26299165970E+03 0.  0.
         25    1    4    4    0    0  0.30146623294E+01  0.12621082411E+02 -0.60470778910E+02  0.13954426936E+03  0.12509000000E+03 0.  0.
         25    1    3    3    0    0 -0.77782521807E+02 -0.73558363563E+02 -0.16229620843E+03  0.23118936161E+03  0.12509000000E+03 0.  0.
         25    1    4    4    0    0  0.74767859478E+02  0.60937281152E+02 -0.90295646512E+02  0.18194613743E+03  0.12509000000E+03 0.  0.
<mgrwt>
<rscale>  2 0.45546319E+03</rscale>
<asrwt>0</asrwt>
<pdfrwt beam="1">  1       21 0.17618907E-01 0.45546319E+03</pdfrwt>
<pdfrwt beam="2">  1       21 0.63657530E-01 0.45546319E+03</pdfrwt>
<totfact> 0.61464235E+04</totfact>
</mgrwt>
</event>
<event>
 7    0  0.4759581E-002  0.4493864E+03  0.7546771E-02  0.1027905E+00
         21   -1    0    0  502  501  0.00000000000E+00  0.00000000000E+00  0.57694830362E+03  0.57694830362E+03  0.00000000000E+00 0.  1.
         21   -1    0    0  501  502 -0.00000000000E+00 -0.00000000000E+00 -0.87507031356E+02  0.87507031356E+02  0.00000000000E+00 0.  1.
      99926    2    1    2    0    0  0.00000000000E+00 -0.14210854715E-13  0.48944127226E+03  0.66445533497E+03  0.44938639630E+03 0.  0.
      99925    2    3    3    0    0  0.14813907182E+02 -0.10663092385E+03  0.30177264014E+03  0.41454209133E+03  0.26303766532E+03 0.  0.
         25    1    3    3    0    0 -0.14813907182E+02  0.10663092385E+03  0.18766863212E+03  0.24991324364E+03  0.12509000000E+03 0.  0.
         25    1    4    4    0    0 -0.10751378582E+02 -0.86209327625E+02  0.13501256311E+03  0.20352773916E+03  0.12509000000E+03 0.  0.
         25    1    4    4    0    0  0.25565285764E+02 -0.20421596226E+02  0.16676007703E+03  0.21101435217E+03  0.12509000000E+03 0.  0.
<mgrwt>
<rscale>  2 0.44938640E+03</rscale>
<asrwt>0</asrwt>
<pdfrwt beam="1">  1       21 0.84845337E-01 0.44938640E+03</pdfrwt>
<pdfrwt beam="2">  1       21 0.12868681E-01 0.44938640E+03</pdfrwt>
<totfact> 0.57372492E+04</totfact>
</mgrwt>
</event>
<event>
 7    0  0.4759581E-002  0.4545035E+03  0.7546771E-02  0.1026388E+00
         21   -1    0    0  502  501  0.00000000000E+00  0.00000000000E+00  0.66499611090E+02  0.66499611090E+02  0.00000000000E+00 0. -1.
         21   -1    0    0  501  502 -0.00000000000E+00 -0.00000000000E+00 -0.77659630185E+03  0.77659630185E+03  0.00000000000E+00 0. -1.
      99926    2    1    2    0    0 -0.14210854715E-13  0.00000000000E+00 -0.71009669076E+03  0.84309591294E+03  0.45450347434E+03 0.  0.
      99925    2    3    3    0    0 -0.86839195805E+02 -0.71104834218E+02 -0.42014062942E+03  0.50795569007E+03  0.26249550702E+03 0.  0.
         25    1    4    4    0    0 -0.31325246788E+02 -0.22317534119E+02 -0.26409794347E+03  0.29474493254E+03  0.12509000000E+03 0.  0.
         25    1    4    4    0    0 -0.55513949017E+02 -0.48787300099E+02 -0.15604268595E+03  0.21321075753E+03  0.12509000000E+03 0.  0.
         25    1    3    3    0    0  0.86839195805E+02  0.71104834218E+02 -0.28995606134E+03  0.33514022287E+03  0.12509000000E+03 0.  0.
<mgrwt>
<rscale>  2 0.45450347E+03</rscale>
<asrwt>0</asrwt>
<pdfrwt beam="1">  1       21 0.97793550E-02 0.45450347E+03</pdfrwt>
<pdfrwt beam="2">  1       21 0.11420533E+00 0.45450347E+03</pdfrwt>
<totfact> 0.45928463E+04</totfact>
</mgrwt>
</event>
<event>
 7    0  0.4759581E-002  0.4475703E+03  0.7546771E-02  0.1028449E+00
         21   -1    0    0  502  501  0.00000000000E+00  0.00000000000E+00  0.42298691871E+03  0.42298691871E+03  0.00000000000E+00 0.  1.
         21   -1    0    0  501  502 -0.00000000000E+00 -0.00000000000E+00 -0.11839562437E+03  0.11839562437E+03  0.00000000000E+00 0.  1.
      99926    2    1    2    0    0 -0.71054273576E-14 -0.71054273576E-14  0.30459129434E+03  0.54138254308E+03  0.44757033119E+03 0.  0.
      99925    2    3    3    0    0  0.48374581225E+02  0.45874013690E+02  0.29268165294E+03  0.39913672452E+03  0.26306472520E+03 0.  0.
         25    1    4    4    0    0  0.60987769319E+02  0.40709305198E+02  0.14395279041E+03  0.20432001739E+03  0.12509000000E+03 0.  0.
         25    1    3    3    0    0 -0.48374581225E+02 -0.45874013690E+02  0.11909641392E+02  0.14224581856E+03  0.12509000000E+03 0.  0.
         25    1    4    4    0    0 -0.12613188093E+02  0.51647084924E+01  0.14872886253E+03  0.19481670713E+03  0.12509000000E+03 0.  0.
<mgrwt>
<rscale>  2 0.44757033E+03</rscale>
<asrwt>0</asrwt>
<pdfrwt beam="1">  1       21 0.62203958E-01 0.44757033E+03</pdfrwt>
<pdfrwt beam="2">  1       21 0.17411121E-01 0.44757033E+03</pdfrwt>
<totfact> 0.66249648E+04</totfact>
</mgrwt>
</event>
<event>
 7    0  0.4759581E-002  0.4427910E+03  0.7546771E-02  0.1029894E+00
         21   -1    0    0  502  501  0.00000000000E+00  0.00000000000E+00  0.57705303563E+02  0.57705303563E+02  0.00000000000E+00 0. -1.
         21   -1    0    0  501  502 -0.00000000000E+00 -0.00000000000E+00 -0.84941894279E+03  0.84941894279E+03  0.00000000000E+00 0. -1.
      99926    2    1    2    0    0  0.00000000000E+00  0.00000000000E+00 -0.79171363923E+03  0.90712424635E+03  0.44279104754E+03 0.  0.
      99925    2    3    3    0    0  0.59402166074E+02  0.78903075925E+02 -0.55273276661E+03  0.61987230415E+03  0.26262872927E+03 0.  0.
         25    1    4    4    0    0  0.42658090073E+02  0.42244340196E+02 -0.19969570364E+03  0.24316697777E+03  0.12509000000E+03 0.  0.
         25    1    4    4    0    0  0.16744076002E+02  0.36658735729E+02 -0.35303706297E+03  0.37670532637E+03  0.12509000000E+03 0.  0.
         25    1    3    3    0    0 -0.59402166074E+02 -0.78903075925E+02 -0.23898087261E+03  0.28725194220E+03  0.12509000000E+03 0.  0.
<mgrwt>
<rscale>  2 0.44279105E+03</rscale>
<asrwt>0</asrwt>
<pdfrwt beam="1">  1       21 0.84860751E-02 0.44279105E+03</pdfrwt>
<pdfrwt beam="2">  1       21 0.12491453E+00 0.44279105E+03</pdfrwt>
<totfact> 0.47285089E+04</totfact>
</mgrwt>
</event>
<event>
 7    0  0.4759581E-002  0.4560237E+03  0.7546771E-02  0.1025941E+00
         21   -1    0    0  502  501  0.00000000000E+00  0.00000000000E+00  0.11331244193E+03  0.11331244193E+03  0.00000000000E+00 0.  1.
         21   -1    0    0  501  502 -0.00000000000E+00 -0.00000000000E+00 -0.45881468188E+03  0.45881468188E+03  0.00000000000E+00 0.  1.
      99926    2    1    2    0    0  0.00000000000E+00  0.00000000000E+00 -0.34550223995E+03  0.57212712381E+03  0.45602373621E+03 0.  0.
      99925    2    3    3    0    0 -0.94286027098E+02  0.56715302387E+02 -0.25471240937E+03  0.38239894491E+03  0.26314266311E+03 0.  0.
         25    1    3    3    0    0  0.94286027098E+02 -0.56715302387E+02 -0.90789830578E+02  0.18972817890E+03  0.12509000000E+03 0.  0.
         25    1    4    4    0    0 -0.63091663239E+02  0.17467756910E+02 -0.81786591876E+02  0.16316321648E+03  0.12509000000E+03 0.  0.
         25    1    4    4    0    0 -0.31194363859E+02  0.39247545477E+02 -0.17292581750E+03  0.21923572843E+03  0.12509000000E+03 0.  0.
<mgrwt>
<rscale>  2 0.45602374E+03</rscale>
<asrwt>0</asrwt>
<pdfrwt beam="1">  1       21 0.16663594E-01 0.45602374E+03</pdfrwt>
<pdfrwt beam="2">  1       21 0.67472747E-01 0.45602374E+03</pdfrwt>
<totfact> 0.59940876E+04</totfact>
</mgrwt>
</event>
<event>
 7    0  0.4759581E-002  0.4867484E+03  0.7546771E-02  0.1017297E+00
         21   -1    0    0  502  501  0.00000000000E+00  0.00000000000E+00  0.62579669717E+02  0.62579669717E+02  0.00000000000E+00 0.  1.
         21   -1    0    0  501  502 -0.00000000000E+00 -0.00000000000E+00 -0.94648945549E+03  0.94648945549E+03  0.00000000000E+00 0.  1.
      99926    2    1    2    0    0  0.00000000000E+00  0.00000000000E+00 -0.88390978577E+03  0.10090691252E+04  0.48674838475E+03 0.  0.
      99925    2    3    3    0    0  0.11058370172E+03 -0.87087972905E+02 -0.52150576946E+03  0.60066093571E+03  0.26270177387E+03 0.  0.
         25    1    4    4    0    0  0.61912345234E+02 -0.12331888589E+02 -0.29975583224E+03  0.33088711221E+03  0.12509000000E+03 0.  0.
         25    1    4    4    0    0  0.48671356485E+02 -0.74756084316E+02 -0.22174993722E+03  0.26977382350E+03  0.12509000000E+03 0.  0.
         25    1    3    3    0    0 -0.11058370172E+03  0.87087972905E+02 -0.36240401631E+03  0.40840818950E+03  0.12509000000E+03 0.  0.
<mgrwt>
<rscale>  2 0.48674838E+03</rscale>
<asrwt>0</asrwt>
<pdfrwt beam="1">  1       21 0.92028925E-02 0.48674838E+03</pdfrwt>
<pdfrwt beam="2">  1       21 0.13918963E+00 0.48674838E+03</pdfrwt>
<totfact> 0.30516368E+04</totfact>
</mgrwt>
</event>
<event>
 7    0  0.4759581E-002  0.4545183E+03  0.7546771E-02  0.1026383E+00
         21   -1    0    0  502  501  0.00000000000E+00  0.00000000000E+00  0.23773870385E+03  0.23773870385E+03  0.00000000000E+00 0.  1.
         21   -1    0    0  501  502 -0.00000000000E+00 -0.00000000000E+00 -0.21724151870E+03  0.21724151870E+03  0.00000000000E+00 0.  1.
      99926    2    1    2    0    0  0.00000000000E+00  0.00000000000E+00  0.20497185146E+02  0.45498022254E+03  0.45451828160E+03 0.  0.
      99925    2    3    3    0    0  0.20808702811E+02 -0.11077718708E+03  0.11167000206E+02  0.28634111753E+03  0.26298658978E+03 0.  0.
         25    1    3    3    0    0 -0.20808702811E+02  0.11077718708E+03  0.93301849399E+01  0.16863910502E+03  0.12509000000E+03 0.  0.
         25    1    4    4    0    0  0.29808721195E+02 -0.35137686289E+02 -0.24651626626E+02  0.13556705961E+03  0.12509000000E+03 0.  0.
         25    1    4    4    0    0 -0.90000183837E+01 -0.75639500793E+02  0.35818626832E+02  0.15077405791E+03  0.12509000000E+03 0.  0.
<mgrwt>
<rscale>  2 0.45451828E+03</rscale>
<asrwt>0</asrwt>
<pdfrwt beam="1">  1       21 0.34961574E-01 0.45451828E+03</pdfrwt>
<pdfrwt beam="2">  1       21 0.31947282E-01 0.45451828E+03</pdfrwt>
<totfact> 0.68811366E+04</totfact>
</mgrwt>
</event>
<event>
 7    0  0.4759581E-002  0.4525435E+03  0.7546771E-02  0.1026966E+00
         21   -1    0    0  502  501  0.00000000000E+00  0.00000000000E+00  0.55067181296E+03  0.55067181296E+03  0.00000000000E+00 0. -1.
         21   -1    0    0  501  502 -0.00000000000E+00 -0.00000000000E+00 -0.92975360466E+02  0.92975360466E+02  0.00000000000E+00 0. -1.
      99926    2    1    2    0    0 -0.17763568394E-14 -0.14210854715E-13  0.45769645249E+03  0.64364717342E+03  0.45254352413E+03 0.  0.
      99925    2    3    3    0    0  0.54107193122E+01 -0.72667743217E+02  0.16993957853E+03  0.32152700424E+03  0.26304044805E+03 0.  0.
         25    1    3    3    0    0 -0.54107193122E+01  0.72667743217E+02  0.28775687396E+03  0.32212016919E+03  0.12509000000E+03 0.  0.
         25    1    4    4    0    0 -0.17115715954E+02 -0.72833786787E+02  0.94837334406E+02  0.17389461270E+03  0.12509000000E+03 0.  0.
         25    1    4    4    0    0  0.22526435267E+02  0.16604356997E+00  0.75102244128E+02  0.14763239153E+03  0.12509000000E+03 0.  0.
<mgrwt>
<rscale>  2 0.45254352E+03</rscale>
<asrwt>0</asrwt>
<pdfrwt beam="1">  1       21 0.80981147E-01 0.45254352E+03</pdfrwt>
<pdfrwt beam="2">  1       21 0.13672847E-01 0.45254352E+03</pdfrwt>
<totfact> 0.57169023E+04</totfact>
</mgrwt>
</event>
<event>
 7    0  0.4759581E-002  0.4431381E+03  0.7546771E-02  0.1029788E+00
         21   -1    0    0  502  501  0.00000000000E+00  0.00000000000E+00  0.13958619176E+03  0.13958619176E+03  0.00000000000E+00 0. -1.
         21   -1    0    0  501  502 -0.00000000000E+00 -0.00000000000E+00 -0.35170274720E+03  0.35170274720E+03  0.00000000000E+00 0. -1.
      99926    2    1    2    0    0  0.00000000000E+00  0.00000000000E+00 -0.21211655544E+03  0.49128893895E+03  0.44313811442E+03 0.  0.
      99925    2    3    3    0    0 -0.42564749605E+02  0.89724407209E+02 -0.15880780060E+03  0.32290972824E+03  0.26303716069E+03 0.  0.
         25    1    3    3    0    0  0.42564749605E+02 -0.89724407209E+02 -0.53308754839E+02  0.16837921071E+03  0.12509000000E+03 0.  0.
         25    1    4    4    0    0 -0.55793002106E+02  0.55107021409E+02 -0.60501486231E+02  0.15955431937E+03  0.12509000000E+03 0.  0.
         25    1    4    4    0    0  0.13228252501E+02  0.34617385799E+02 -0.98306314366E+02  0.16335540887E+03  0.12509000000E+03 0.  0.
<mgrwt>
<rscale>  2 0.44313811E+03</rscale>
<asrwt>0</asrwt>
<pdfrwt beam="1">  1       21 0.20527381E-01 0.44313811E+03</pdfrwt>
<pdfrwt beam="2">  1       21 0.51720992E-01 0.44313811E+03</pdfrwt>
<totfact> 0.72474799E+04</totfact>
</mgrwt>
</event>
<event>
 7    0  0.4759581E-002  0.4614850E+03  0.7546771E-02  0.1024351E+00
         21   -1    0    0  502  501  0.00000000000E+00  0.00000000000E+00  0.94073668454E+02  0.94073668454E+02  0.00000000000E+00 0.  1.
         21   -1    0    0  501  502 -0.00000000000E+00 -0.00000000000E+00 -0.56596169028E+03  0.56596169028E+03  0.00000000000E+00 0.  1.
      99926    2    1    2    0    0  0.00000000000E+00  0.00000000000E+00 -0.47188802182E+03  0.66003535873E+03  0.46148496144E+03 0.  0.
      99925    2    3    3    0    0 -0.85313184357E+02  0.62273088531E+01 -0.41392545175E+03  0.49778775033E+03  0.26294723041E+03 0.  0.
         25    1    3    3    0    0  0.85313184357E+02 -0.62273088531E+01 -0.57962570075E+02  0.16224760840E+03  0.12509000000E+03 0.  0.
         25    1    4    4    0    0 -0.81627536738E+02  0.12481490013E+02 -0.24949788613E+03  0.29105935070E+03  0.12509000000E+03 0.  0.
         25    1    4    4    0    0 -0.36856476194E+01 -0.62541811602E+01 -0.16442756562E+03  0.20672839964E+03  0.12509000000E+03 0.  0.
<mgrwt>
<rscale>  2 0.46148496E+03</rscale>
<asrwt>0</asrwt>
<pdfrwt beam="1">  1       21 0.13834363E-01 0.46148496E+03</pdfrwt>
<pdfrwt beam="2">  1       21 0.83229659E-01 0.46148496E+03</pdfrwt>
<totfact> 0.52395248E+04</totfact>
</mgrwt>
</event>
<event>
 7    0  0.4759581E-002  0.4376595E+03  0.7546771E-02  0.1031467E+00
         21   -1    0    0  502  501  0.00000000000E+00  0.00000000000E+00  0.55684772046E+03  0.55684772046E+03  0.00000000000E+00 0.  1.
         21   -1    0    0  501  502 -0.00000000000E+00 -0.00000000000E+00 -0.85995618821E+02  0.85995618821E+02  0.00000000000E+00 0.  1.
      99926    2    1    2    0    0  0.00000000000E+00  0.00000000000E+00  0.47085210164E+03  0.64284333928E+03  0.43765952205E+03 0.  0.
      99925    2    3    3    0    0 -0.32315323284E+02 -0.76905569952E+02  0.23156977337E+03  0.36024417522E+03  0.26304478522E+03 0.  0.
         25    1    3    3    0    0  0.32315323284E+02  0.76905569952E+02  0.23928232827E+03  0.28259916406E+03  0.12509000000E+03 0.  0.
         25    1    4    4    0    0  0.22845736836E+02 -0.46787021535E+02  0.12442162769E+03  0.18395434927E+03  0.12509000000E+03 0.  0.
         25    1    4    4    0    0 -0.55161060120E+02 -0.30118548416E+02  0.10714814568E+03  0.17628982595E+03  0.12509000000E+03 0.  0.
<mgrwt>
<rscale>  2 0.43765952E+03</rscale>
<asrwt>0</asrwt>
<pdfrwt beam="1">  1       21 0.81889369E-01 0.43765952E+03</pdfrwt>
<pdfrwt beam="2">  1       21 0.12646415E-01 0.43765952E+03</pdfrwt>
<totfact> 0.64495294E+04</totfact>
</mgrwt>
</event>
<event>
 7    0  0.4759581E-002  0.4509147E+03  0.7546771E-02  0.1027450E+00
         21   -1    0    0  502  501  0.00000000000E+00  0.00000000000E+00  0.48234314752E+02  0.48234314752E+02  0.00000000000E+00 0.  1.
         21   -1    0    0  501  502 -0.00000000000E+00 -0.00000000000E+00 -0.10538353538E+04  0.10538353538E+04  0.00000000000E+00 0.  1.
      99926    2    1    2    0    0 -0.14210854715E-13  0.00000000000E+00 -0.10056010390E+04  0.11020696685E+04  0.45091474205E+03 0.  0.
      99925    2    3    3    0    0  0.95446505019E+02  0.52385365529E+02 -0.60908102276E+03  0.67226751260E+03  0.26288715139E+03 0.  0.
         25    1    4    4    0    0  0.75440696894E+01  0.35640422795E+02 -0.29832479606E+03  0.32553393796E+03  0.12509000000E+03 0.  0.
         25    1    3    3    0    0 -0.95446505019E+02 -0.52385365529E+02 -0.39652001624E+03  0.42980215591E+03  0.12509000000E+03 0.  0.
         25    1    4    4    0    0  0.87902435330E+02  0.16744942734E+02 -0.31075622671E+03  0.34673357464E+03  0.12509000000E+03 0.  0.
<mgrwt>
<rscale>  2 0.45091474E+03</rscale>
<asrwt>0</asrwt>
<pdfrwt beam="1">  1       21 0.70932823E-02 0.45091474E+03</pdfrwt>
<pdfrwt beam="2">  1       21 0.15497577E+00 0.45091474E+03</pdfrwt>
<totfact> 0.36574249E+04</totfact>
</mgrwt>
</event>
<event>
 7    0  0.4759581E-002  0.4322244E+03  0.7546771E-02  0.1033160E+00
         21   -1    0    0  502  501  0.00000000000E+00  0.00000000000E+00  0.25880914951E+03  0.25880914951E+03  0.00000000000E+00 0.  1.
         21   -1    0    0  501  502 -0.00000000000E+00 -0.00000000000E+00 -0.18045919151E+03  0.18045919151E+03  0.00000000000E+00 0.  1.
      99926    2    1    2    0    0  0.14210854715E-13  0.35527136788E-14  0.78349957998E+02  0.43926834101E+03  0.43222443186E+03 0.  0.
      99925    2    3    3    0    0  0.86068545325E+02  0.26653971814E+02  0.46929515368E+02  0.28193753976E+03  0.26299841864E+03 0.  0.
         25    1    3    3    0    0 -0.86068545325E+02 -0.26653971814E+02  0.31420442630E+02  0.15733080125E+03  0.12509000000E+03 0.  0.
         25    1    4    4    0    0  0.60535969804E+02  0.45471401296E+02  0.44596525113E+02  0.15286794997E+03  0.12509000000E+03 0.  0.
         25    1    4    4    0    0  0.25532575521E+02 -0.18817429481E+02  0.23329902550E+01  0.12906958979E+03  0.12509000000E+03 0.  0.
<mgrwt>
<rscale>  2 0.43222443E+03</rscale>
<asrwt>0</asrwt>
<pdfrwt beam="1">  1       21 0.38060169E-01 0.43222443E+03</pdfrwt>
<pdfrwt beam="2">  1       21 0.26538116E-01 0.43222443E+03</pdfrwt>
<totfact> 0.83958755E+04</totfact>
</mgrwt>
</event>
<event>
 7    0  0.4759581E-002  0.4552114E+03  0.7546771E-02  0.1026179E+00
         21   -1    0    0  502  501  0.00000000000E+00  0.00000000000E+00  0.38613827105E+03  0.38613827105E+03  0.00000000000E+00 0.  1.
         21   -1    0    0  501  502 -0.00000000000E+00 -0.00000000000E+00 -0.13416011849E+03  0.13416011849E+03  0.00000000000E+00 0.  1.
      99926    2    1    2    0    0  0.00000000000E+00  0.00000000000E+00  0.25197815256E+03  0.52029838954E+03  0.45521140670E+03 0.  0.
      99925    2    3    3    0    0  0.39484136649E+02  0.19078111449E+02  0.27796020213E+03  0.38522231326E+03  0.26308056805E+03 0.  0.
         25    1    3    3    0    0 -0.39484136649E+02 -0.19078111449E+02 -0.25982049569E+02  0.13507607628E+03  0.12509000000E+03 0.  0.
         25    1    4    4    0    0  0.56340524900E+02  0.18137491010E+02  0.12117018137E+03  0.18393733792E+03  0.12509000000E+03 0.  0.
         25    1    4    4    0    0 -0.16856388250E+02  0.94062043919E+00  0.15679002076E+03  0.20128497535E+03  0.12509000000E+03 0.  0.
<mgrwt>
<rscale>  2 0.45521141E+03</rscale>
<asrwt>0</asrwt>
<pdfrwt beam="1">  1       21 0.56785040E-01 0.45521141E+03</pdfrwt>
<pdfrwt beam="2">  1       21 0.19729429E-01 0.45521141E+03</pdfrwt>
<totfact> 0.63759931E+04</totfact>
</mgrwt>
</event>
<event>
 7    0  0.4759581E-002  0.4537015E+03  0.7546771E-02  0.1026624E+00
         21   -1    0    0  502  501  0.00000000000E+00  0.00000000000E+00  0.38041771612E+02  0.38041771612E+02  0.00000000000E+00 0. -1.
         21   -1    0    0  501  502 -0.00000000000E+00 -0.00000000000E+00 -0.13527566659E+04  0.13527566659E+04  0.00000000000E+00 0. -1.
      99926    2    1    2    0    0  0.14210854715E-13  0.00000000000E+00 -0.13147148942E+04  0.13907984375E+04  0.45370148833E+03 0.  0.
      99925    2    3    3    0    0 -0.81742145961E+02 -0.75852029713E+02 -0.79910744625E+03  0.84864176512E+03  0.26303008578E+03 0.  0.
         25    1    4    4    0    0 -0.31387343342E+02 -0.30133411511E+01 -0.30072310740E+03  0.32722490885E+03  0.12509000000E+03 0.  0.
         25    1    4    4    0    0 -0.50354802619E+02 -0.72838688562E+02 -0.49838433884E+03  0.52141685627E+03  0.12509000000E+03 0.  0.
         25    1    3    3    0    0  0.81742145961E+02  0.75852029713E+02 -0.51560744800E+03  0.54215667234E+03  0.12509000000E+03 0.  0.
<mgrwt>
<rscale>  2 0.45370149E+03</rscale>
<asrwt>0</asrwt>
<pdfrwt beam="1">  1       21 0.55943785E-02 0.45370149E+03</pdfrwt>
<pdfrwt beam="2">  1       21 0.19893479E+00 0.45370149E+03</pdfrwt>
<totfact> 0.26848157E+04</totfact>
</mgrwt>
</event>
<event>
 7    0  0.4759581E-002  0.4586750E+03  0.7546771E-02  0.1025166E+00
         21   -1    0    0  502  501  0.00000000000E+00  0.00000000000E+00  0.18082286246E+04  0.18082286246E+04  0.00000000000E+00 0. -1.
         21   -1    0    0  501  502 -0.00000000000E+00 -0.00000000000E+00 -0.29086857790E+02  0.29086857790E+02  0.00000000000E+00 0. -1.
      99926    2    1    2    0    0  0.00000000000E+00  0.00000000000E+00  0.17791417668E+04  0.18373154824E+04  0.45867499978E+03 0.  0.
      99925    2    3    3    0    0 -0.69777349949E+02 -0.76914280931E+02  0.13280155981E+04  0.13577875756E+04  0.26301518309E+03 0.  0.
         25    1    3    3    0    0  0.69777349949E+02  0.76914280931E+02  0.45112616873E+03  0.47952790679E+03  0.12509000000E+03 0.  0.
         25    1    4    4    0    0 -0.18421565683E+02 -0.57821444398E+02  0.51766370553E+03  0.53600922906E+03  0.12509000000E+03 0.  0.
         25    1    4    4    0    0 -0.51355784266E+02 -0.19092836533E+02  0.81035189255E+03  0.82177834654E+03  0.12509000000E+03 0.  0.
<mgrwt>
<rscale>  2 0.45867500E+03</rscale>
<asrwt>0</asrwt>
<pdfrwt beam="1">  1       21 0.26591590E+00 0.45867500E+03</pdfrwt>
<pdfrwt beam="2">  1       21 0.42774803E-02 0.45867500E+03</pdfrwt>
<totfact> 0.16089277E+04</totfact>
</mgrwt>
</event>
<event>
 7    0  0.4759581E-002  0.4551929E+03  0.7546771E-02  0.1026185E+00
         21   -1    0    0  502  501  0.00000000000E+00  0.00000000000E+00  0.52819141319E+03  0.52819141319E+03  0.00000000000E+00 0.  1.
         21   -1    0    0  501  502 -0.00000000000E+00 -0.00000000000E+00 -0.98070775539E+02  0.98070775539E+02  0.00000000000E+00 0.  1.
      99926    2    1    2    0    0  0.14210854715E-13  0.00000000000E+00  0.43012063765E+03  0.62626218873E+03  0.45519288889E+03 0.  0.
      99925    2    3    3    0    0 -0.72881087995E+02  0.82248862783E+02  0.23276883766E+03  0.36805341762E+03  0.26306930270E+03 0.  0.
         25    1    4    4    0    0 -0.46670705594E+02  0.49045569431E+02  0.70212342632E+02  0.15862188941E+03  0.12509000000E+03 0.  0.
         25    1    3    3    0    0  0.72881087995E+02 -0.82248862783E+02  0.19735179999E+03  0.25820877111E+03  0.12509000000E+03 0.  0.
         25    1    4    4    0    0 -0.26210382400E+02  0.33203293352E+02  0.16255649503E+03  0.20943152822E+03  0.12509000000E+03 0.  0.
<mgrwt>
<rscale>  2 0.45519289E+03</rscale>
<asrwt>0</asrwt>
<pdfrwt beam="1">  1       21 0.77675206E-01 0.45519289E+03</pdfrwt>
<pdfrwt beam="2">  1       21 0.14422173E-01 0.45519289E+03</pdfrwt>
<totfact> 0.57003335E+04</totfact>
</mgrwt>
</event>
<event>
 7    0  0.4759581E-002  0.4548577E+03  0.7546771E-02  0.1026283E+00
         21   -1    0    0  502  501  0.00000000000E+00  0.00000000000E+00  0.16546170293E+03  0.16546170293E+03  0.00000000000E+00 0.  1.
         21   -1    0    0  501  502 -0.00000000000E+00 -0.00000000000E+00 -0.31260335863E+03  0.31260335863E+03  0.00000000000E+00 0.  1.
      99926    2    1    2    0    0  0.00000000000E+00  0.00000000000E+00 -0.14714165570E+03  0.47806506157E+03  0.45485770989E+03 0.  0.
      99925    2    3    3    0    0  0.95385219483E+02  0.60534306081E+02 -0.94016920647E+02  0.30133790496E+03  0.26306388822E+03 0.  0.
         25    1    3    3    0    0 -0.95385219483E+02 -0.60534306081E+02 -0.53124735055E+02  0.17672715661E+03  0.12509000000E+03 0.  0.
         25    1    4    4    0    0  0.42972099359E+02  0.62832179782E+02 -0.23001245462E+02  0.14822634561E+03  0.12509000000E+03 0.  0.
         25    1    4    4    0    0  0.52413120124E+02 -0.22978737005E+01 -0.71015675185E+02  0.15311155935E+03  0.12509000000E+03 0.  0.
<mgrwt>
<rscale>  2 0.45485771E+03</rscale>
<asrwt>0</asrwt>
<pdfrwt beam="1">  1       21 0.24332604E-01 0.45485771E+03</pdfrwt>
<pdfrwt beam="2">  1       21 0.45971082E-01 0.45485771E+03</pdfrwt>
<totfact> 0.66916756E+04</totfact>
</mgrwt>
</event>
<event>
 7    0  0.4759581E-002  0.4553128E+03  0.7546771E-02  0.1026149E+00
         21   -1    0    0  502  501  0.00000000000E+00  0.00000000000E+00  0.41473747219E+02  0.41473747219E+02  0.00000000000E+00 0.  1.
         21   -1    0    0  501  502 -0.00000000000E+00 -0.00000000000E+00 -0.12496443239E+04  0.12496443239E+04  0.00000000000E+00 0.  1.
      99926    2    1    2    0    0  0.00000000000E+00  0.00000000000E+00 -0.12081705767E+04  0.12911180712E+04  0.45531278394E+03 0.  0.
      99925    2    3    3    0    0 -0.16160502493E+02  0.56833768129E+02 -0.10335951185E+04  0.10683730651E+04  0.26383877283E+03 0.  0.
         25    1    3    3    0    0  0.16160502493E+02 -0.56833768129E+02 -0.17457545819E+03  0.22274500610E+03  0.12509000000E+03 0.  0.
         25    1    4    4    0    0 -0.32988918769E+01  0.69513841608E+02 -0.59076524749E+03  0.60786029859E+03  0.12509000000E+03 0.  0.
         25    1    4    4    0    0 -0.12861610616E+02 -0.12680073479E+02 -0.44282987104E+03  0.46051276646E+03  0.12509000000E+03 0.  0.
<mgrwt>
<rscale>  2 0.45531278E+03</rscale>
<asrwt>0</asrwt>
<pdfrwt beam="1">  1       21 0.60990819E-02 0.45531278E+03</pdfrwt>
<pdfrwt beam="2">  1       21 0.18377118E+00 0.45531278E+03</pdfrwt>
<totfact> 0.29302431E+04</totfact>
</mgrwt>
</event>
<event>
 7    0  0.4759581E-002  0.4545537E+03  0.7546771E-02  0.1026373E+00
         21   -1    0    0  502  501  0.00000000000E+00  0.00000000000E+00  0.55977896485E+03  0.55977896485E+03  0.00000000000E+00 0. -1.
         21   -1    0    0  501  502 -0.00000000000E+00 -0.00000000000E+00 -0.92277059013E+02  0.92277059013E+02  0.00000000000E+00 0. -1.
      99926    2    1    2    0    0  0.00000000000E+00 -0.14210854715E-13  0.46750190584E+03  0.65205602386E+03  0.45455365612E+03 0.  0.
      99925    2    3    3    0    0 -0.39922109593E+02  0.10371376779E+03  0.26712922129E+03  0.39100614113E+03  0.26301608519E+03 0.  0.
         25    1    4    4    0    0 -0.71795660902E+01  0.75199950032E+02  0.18276796568E+03  0.23400473507E+03  0.12509000000E+03 0.  0.
         25    1    3    3    0    0  0.39922109593E+02 -0.10371376779E+03  0.20037268455E+03  0.26104988273E+03  0.12509000000E+03 0.  0.
         25    1    4    4    0    0 -0.32742543502E+02  0.28513817757E+02  0.84361255610E+02  0.15700140606E+03  0.12509000000E+03 0.  0.
<mgrwt>
<rscale>  2 0.45455366E+03</rscale>
<asrwt>0</asrwt>
<pdfrwt beam="1">  1       21 0.82320435E-01 0.45455366E+03</pdfrwt>
<pdfrwt beam="2">  1       21 0.13570156E-01 0.45455366E+03</pdfrwt>
<totfact> 0.55779337E+04</totfact>
</mgrwt>
</event>
<event>
 7    0  0.4759581E-002  0.4462199E+03  0.7546771E-02  0.1028855E+00
         21   -1    0    0  502  501  0.00000000000E+00  0.00000000000E+00  0.18616443310E+03  0.18616443310E+03  0.00000000000E+00 0. -1.
         21   -1    0    0  501  502 -0.00000000000E+00 -0.00000000000E+00 -0.26738756506E+03  0.26738756506E+03  0.00000000000E+00 0. -1.
      99926    2    1    2    0    0  0.00000000000E+00 -0.71054273576E-14 -0.81223131963E+02  0.45355199815E+03  0.44621992096E+03 0.  0.
      99925    2    3    3    0    0  0.43421748202E+02 -0.47494090873E+02 -0.13551895509E+03  0.30276512408E+03  0.26298326236E+03 0.  0.
         25    1    4    4    0    0  0.20162752693E+02  0.66424105990E+01 -0.95546210228E+02  0.15883086792E+03  0.12509000000E+03 0.  0.
         25    1    4    4    0    0  0.23258995509E+02 -0.54136501472E+02 -0.39972744866E+02  0.14393425616E+03  0.12509000000E+03 0.  0.
         25    1    3    3    0    0 -0.43421748202E+02  0.47494090873E+02  0.54295823130E+02  0.15078687408E+03  0.12509000000E+03 0.  0.
<mgrwt>
<rscale>  2 0.44621992E+03</rscale>
<asrwt>0</asrwt>
<pdfrwt beam="1">  1       21 0.27377122E-01 0.44621992E+03</pdfrwt>
<pdfrwt beam="2">  1       21 0.39321701E-01 0.44621992E+03</pdfrwt>
<totfact> 0.73677758E+04</totfact>
</mgrwt>
</event>
<event>
 7    0  0.4759581E-002  0.4550658E+03  0.7546771E-02  0.1026222E+00
         21   -1    0    0  502  501  0.00000000000E+00  0.00000000000E+00  0.44308480101E+02  0.44308480101E+02  0.00000000000E+00 0. -1.
         21   -1    0    0  501  502 -0.00000000000E+00 -0.00000000000E+00 -0.11684268525E+04  0.11684268525E+04  0.00000000000E+00 0. -1.
      99926    2    1    2    0    0  0.00000000000E+00  0.35527136788E-14 -0.11241183724E+04  0.12127353326E+04  0.45506578840E+03 0.  0.
      99925    2    3    3    0    0 -0.10339969083E+03 -0.14377945318E+02 -0.82425397280E+03  0.87146654173E+03  0.26298498112E+03 0.  0.
         25    1    3    3    0    0  0.10339969083E+03  0.14377945318E+02 -0.29986439955E+03  0.34126879083E+03  0.12509000000E+03 0.  0.
         25    1    4    4    0    0 -0.29890955410E+02  0.25895112938E+02 -0.42366222771E+03  0.44351010967E+03  0.12509000000E+03 0.  0.
         25    1    4    4    0    0 -0.73508735423E+02 -0.40273058257E+02 -0.40059174509E+03  0.42795643206E+03  0.12509000000E+03 0.  0.
<mgrwt>
<rscale>  2 0.45506579E+03</rscale>
<asrwt>0</asrwt>
<pdfrwt beam="1">  1       21 0.65159535E-02 0.45506579E+03</pdfrwt>
<pdfrwt beam="2">  1       21 0.17182746E+00 0.45506579E+03</pdfrwt>
<totfact> 0.31738633E+04</totfact>
</mgrwt>
</event>
<event>
 7    0  0.4759581E-002  0.4567113E+03  0.7546771E-02  0.1025739E+00
         21   -1    0    0  502  501  0.00000000000E+00  0.00000000000E+00  0.68592764340E+03  0.68592764340E+03  0.00000000000E+00 0. -1.
         21   -1    0    0  501  502 -0.00000000000E+00 -0.00000000000E+00 -0.76023022827E+02  0.76023022827E+02  0.00000000000E+00 0. -1.
      99926    2    1    2    0    0  0.00000000000E+00  0.14210854715E-13  0.60990462057E+03  0.76195066623E+03  0.45671125623E+03 0.  0.
      99925    2    3    3    0    0 -0.68033864408E+02 -0.66158095871E+02  0.49077850569E+03  0.56486175304E+03  0.26305846886E+03 0.  0.
         25    1    4    4    0    0 -0.45348406247E+02 -0.30169640403E+02  0.32776438323E+03  0.35502631475E+03  0.12509000000E+03 0.  0.
         25    1    4    4    0    0 -0.22685458161E+02 -0.35988455469E+02  0.16301412246E+03  0.20983543829E+03  0.12509000000E+03 0.  0.
         25    1    3    3    0    0  0.68033864408E+02  0.66158095871E+02  0.11912611488E+03  0.19708891319E+03  0.12509000000E+03 0.  0.
<mgrwt>
<rscale>  2 0.45671126E+03</rscale>
<asrwt>0</asrwt>
<pdfrwt beam="1">  1       21 0.10087171E+00 0.45671126E+03</pdfrwt>
<pdfrwt beam="2">  1       21 0.11179857E-01 0.45671126E+03</pdfrwt>
<totfact> 0.48998309E+04</totfact>
</mgrwt>
</event>
<event>
 7    0  0.4759581E-002  0.4568153E+03  0.7546771E-02  0.1025709E+00
         21   -1    0    0  502  501  0.00000000000E+00  0.00000000000E+00  0.10118668748E+04  0.10118668748E+04  0.00000000000E+00 0. -1.
         21   -1    0    0  501  502 -0.00000000000E+00 -0.00000000000E+00 -0.51558220666E+02  0.51558220666E+02  0.00000000000E+00 0. -1.
      99926    2    1    2    0    0  0.00000000000E+00  0.00000000000E+00  0.96030865414E+03  0.10634250955E+04  0.45681530454E+03 0.  0.
      99925    2    3    3    0    0  0.11417400994E+03  0.71895611182E+01  0.62667925468E+03  0.68920126056E+03  0.26302869610E+03 0.  0.
         25    1    4    4    0    0  0.68978837879E+02  0.38123332877E+02  0.28086292269E+03  0.31740031195E+03  0.12509000000E+03 0.  0.
         25    1    3    3    0    0 -0.11417400994E+03 -0.71895611182E+01  0.33362939946E+03  0.37422383492E+03  0.12509000000E+03 0.  0.
         25    1    4    4    0    0  0.45195172063E+02 -0.30933771759E+02  0.34581633199E+03  0.37180094861E+03  0.12509000000E+03 0.  0.
<mgrwt>
<rscale>  2 0.45681530E+03</rscale>
<asrwt>0</asrwt>
<pdfrwt beam="1">  1       21 0.14880394E+00 0.45681530E+03</pdfrwt>
<pdfrwt beam="2">  1       21 0.75820919E-02 0.45681530E+03</pdfrwt>
<totfact> 0.36272017E+04</totfact>
</mgrwt>
</event>
<event>
 7    0  0.4759581E-002  0.4565216E+03  0.7546771E-02  0.1025795E+00
         21   -1    0    0  502  501  0.00000000000E+00  0.00000000000E+00  0.47985411625E+02  0.47985411625E+02  0.00000000000E+00 0.  1.
         21   -1    0    0  501  502 -0.00000000000E+00 -0.00000000000E+00 -0.10858089562E+04  0.10858089562E+04  0.00000000000E+00 0.  1.
      99926    2    1    2    0    0  0.17763568394E-14 -0.35527136788E-14 -0.10378235445E+04  0.11337943678E+04  0.45652158638E+03 0.  0.
      99925    2    3    3    0    0 -0.94069477489E+01 -0.22839481687E+02 -0.37421771481E+03  0.45805008335E+03  0.26298450182E+03 0.  0.
         25    1    4    4    0    0  0.22879521781E+02  0.16824712749E+02 -0.19923558064E+03  0.23695752398E+03  0.12509000000E+03 0.  0.
         25    1    4    4    0    0 -0.32286469530E+02 -0.39664194436E+02 -0.17498213417E+03  0.22109255938E+03  0.12509000000E+03 0.  0.
         25    1    3    3    0    0  0.94069477489E+01  0.22839481687E+02 -0.66360582972E+03  0.67574428442E+03  0.12509000000E+03 0.  0.
<mgrwt>
<rscale>  2 0.45652159E+03</rscale>
<asrwt>0</asrwt>
<pdfrwt beam="1">  1       21 0.70566784E-02 0.45652159E+03</pdfrwt>
<pdfrwt beam="2">  1       21 0.15967778E+00 0.45652159E+03</pdfrwt>
<totfact> 0.33923919E+04</totfact>
</mgrwt>
</event>
<event>
 7    0  0.4759581E-002  0.4413339E+03  0.7546771E-02  0.1030338E+00
         21   -1    0    0  502  501  0.00000000000E+00  0.00000000000E+00  0.16631179079E+03  0.16631179079E+03  0.00000000000E+00 0.  1.
         21   -1    0    0  501  502 -0.00000000000E+00 -0.00000000000E+00 -0.29278685157E+03  0.29278685157E+03  0.00000000000E+00 0.  1.
      99926    2    1    2    0    0 -0.44408920985E-15  0.71054273576E-14 -0.12647506078E+03  0.45909864235E+03  0.44133391260E+03 0.  0.
      99925    2    3    3    0    0 -0.32467934876E+01  0.60321374464E+02 -0.16312759656E+03  0.31543192260E+03  0.26313014869E+03 0.  0.
         25    1    3    3    0    0  0.32467934876E+01 -0.60321374464E+02  0.36652535785E+02  0.14366671975E+03  0.12509000000E+03 0.  0.
         25    1    4    4    0    0  0.65086151753E+01 -0.71674715835E+01 -0.95789048125E+02  0.15785051334E+03  0.12509000000E+03 0.  0.
         25    1    4    4    0    0 -0.97554086629E+01  0.67488846048E+02 -0.67338548438E+02  0.15758140926E+03  0.12509000000E+03 0.  0.
<mgrwt>
<rscale>  2 0.44133391E+03</rscale>
<asrwt>0</asrwt>
<pdfrwt beam="1">  1       21 0.24457616E-01 0.44133391E+03</pdfrwt>
<pdfrwt beam="2">  1       21 0.43056890E-01 0.44133391E+03</pdfrwt>
<totfact> 0.76185639E+04</totfact>
</mgrwt>
</event>
<event>
 7    0  0.4759581E-002  0.4529024E+03  0.7546771E-02  0.1026860E+00
         21   -1    0    0  502  501  0.00000000000E+00  0.00000000000E+00  0.13331983994E+03  0.13331983994E+03  0.00000000000E+00 0.  1.
         21   -1    0    0  501  502 -0.00000000000E+00 -0.00000000000E+00 -0.38464002952E+03  0.38464002952E+03  0.00000000000E+00 0.  1.
      99926    2    1    2    0    0  0.00000000000E+00 -0.71054273576E-14 -0.25132018958E+03  0.51795986946E+03  0.45290240525E+03 0.  0.
      99925    2    3    3    0    0 -0.10134464048E+03 -0.46203211478E+02 -0.15532078380E+03  0.32490840763E+03  0.26274598867E+03 0.  0.
         25    1    4    4    0    0 -0.29325473749E+02 -0.56185156697E+02 -0.67193694134E+02  0.15549680342E+03  0.12509000000E+03 0.  0.
         25    1    3    3    0    0  0.10134464048E+03  0.46203211478E+02 -0.95999405774E+02  0.19305146183E+03  0.12509000000E+03 0.  0.
         25    1    4    4    0    0 -0.72019166729E+02  0.99819452191E+01 -0.88127089670E+02  0.16941160421E+03  0.12509000000E+03 0.  0.
<mgrwt>
<rscale>  2 0.45290241E+03</rscale>
<asrwt>0</asrwt>
<pdfrwt beam="1">  1       21 0.19605859E-01 0.45290241E+03</pdfrwt>
<pdfrwt beam="2">  1       21 0.56564709E-01 0.45290241E+03</pdfrwt>
<totfact> 0.65103219E+04</totfact>
</mgrwt>
</event>
<event>
 7    0  0.4759581E-002  0.4556755E+03  0.7546771E-02  0.1026043E+00
         21   -1    0    0  502  501  0.00000000000E+00  0.00000000000E+00  0.26598430000E+03  0.26598430000E+03  0.00000000000E+00 0. -1.
         21   -1    0    0  501  502 -0.00000000000E+00 -0.00000000000E+00 -0.19516202520E+03  0.19516202520E+03  0.00000000000E+00 0. -1.
      99926    2    1    2    0    0 -0.17763568394E-14 -0.14210854715E-13  0.70822274795E+02  0.46114632520E+03  0.45567547514E+03 0.  0.
      99925    2    3    3    0    0  0.83143528458E+01 -0.10793916397E+03  0.89820171349E+01  0.28453455564E+03  0.26298145398E+03 0.  0.
         25    1    3    3    0    0 -0.83143528458E+01  0.10793916397E+03  0.61840257660E+02  0.17661176956E+03  0.12509000000E+03 0.  0.
         25    1    4    4    0    0 -0.25239622921E+02 -0.83589016542E+02  0.77554911730E+01  0.15274756298E+03  0.12509000000E+03 0.  0.
         25    1    4    4    0    0  0.33553975767E+02 -0.24350147425E+02  0.12265259620E+01  0.13178699266E+03  0.12509000000E+03 0.  0.
<mgrwt>
<rscale>  2 0.45567548E+03</rscale>
<asrwt>0</asrwt>
<pdfrwt beam="1">  1       21 0.39115338E-01 0.45567548E+03</pdfrwt>
<pdfrwt beam="2">  1       21 0.28700298E-01 0.45567548E+03</pdfrwt>
<totfact> 0.67731510E+04</totfact>
</mgrwt>
</event>
<event>
 7    0  0.4759581E-002  0.4646908E+03  0.7546771E-02  0.1023429E+00
         21   -1    0    0  502  501  0.00000000000E+00  0.00000000000E+00  0.48587523879E+03  0.48587523879E+03  0.00000000000E+00 0. -1.
         21   -1    0    0  501  502 -0.00000000000E+00 -0.00000000000E+00 -0.11110750685E+03  0.11110750685E+03  0.00000000000E+00 0. -1.
      99926    2    1    2    0    0  0.14210854715E-13  0.00000000000E+00  0.37476773194E+03  0.59698274564E+03  0.46469080654E+03 0.  0.
      99925    2    3    3    0    0 -0.82486436596E+02 -0.42219047414E+02  0.33589853276E+03  0.43653093689E+03  0.26295431991E+03 0.  0.
         25    1    3    3    0    0  0.82486436596E+02  0.42219047414E+02  0.38869199173E+02  0.16045180875E+03  0.12509000000E+03 0.  0.
         25    1    4    4    0    0 -0.10930268292E+02 -0.15152726956E+02  0.19983648400E+03  0.23649778929E+03  0.12509000000E+03 0.  0.
         25    1    4    4    0    0 -0.71556168304E+02 -0.27066320458E+02  0.13606204876E+03  0.20003314760E+03  0.12509000000E+03 0.  0.
<mgrwt>
<rscale>  2 0.46469081E+03</rscale>
<asrwt>0</asrwt>
<pdfrwt beam="1">  1       21 0.71452240E-01 0.46469081E+03</pdfrwt>
<pdfrwt beam="2">  1       21 0.16339339E-01 0.46469081E+03</pdfrwt>
<totfact> 0.54564254E+04</totfact>
</mgrwt>
</event>
<event>
 7    0  0.4759581E-002  0.4458958E+03  0.7546771E-02  0.1028953E+00
         21   -1    0    0  502  501  0.00000000000E+00  0.00000000000E+00  0.56984023685E+02  0.56984023685E+02  0.00000000000E+00 0.  1.
         21   -1    0    0  501  502 -0.00000000000E+00 -0.00000000000E+00 -0.87227540968E+03  0.87227540968E+03  0.00000000000E+00 0.  1.
      99926    2    1    2    0    0  0.71054273576E-14  0.00000000000E+00 -0.81529138599E+03  0.92925943336E+03  0.44589578426E+03 0.  0.
      99925    2    3    3    0    0 -0.38179193960E+02  0.66885242169E+02 -0.66435515883E+03  0.71864001536E+03  0.26295324325E+03 0.  0.
         25    1    3    3    0    0  0.38179193960E+02 -0.66885242169E+02 -0.15093622716E+03  0.21061941801E+03  0.12509000000E+03 0.  0.
         25    1    4    4    0    0  0.14366084815E+02  0.88645473684E+01 -0.29222870585E+03  0.31832387471E+03  0.12509000000E+03 0.  0.
         25    1    4    4    0    0 -0.52545278775E+02  0.58020694801E+02 -0.37212645298E+03  0.40031614064E+03  0.12509000000E+03 0.  0.
<mgrwt>
<rscale>  2 0.44589578E+03</rscale>
<asrwt>0</asrwt>
<pdfrwt beam="1">  1       21 0.83800039E-02 0.44589578E+03</pdfrwt>
<pdfrwt beam="2">  1       21 0.12827579E+00 0.44589578E+03</pdfrwt>
<totfact> 0.45120582E+04</totfact>
</mgrwt>
</event>
<event>
 7    0  0.4759581E-002  0.4650767E+03  0.7546771E-02  0.1023319E+00
         21   -1    0    0  502  501  0.00000000000E+00  0.00000000000E+00  0.29143291337E+03  0.29143291337E+03  0.00000000000E+00 0. -1.
         21   -1    0    0  501  502 -0.00000000000E+00 -0.00000000000E+00 -0.18554553255E+03  0.18554553255E+03  0.00000000000E+00 0. -1.
      99926    2    1    2    0    0  0.00000000000E+00  0.17763568394E-14  0.10588738082E+03  0.47697844592E+03  0.46507666084E+03 0.  0.
      99925    2    3    3    0    0 -0.11699214373E+03  0.10005912486E+02  0.10163440339E+03  0.30536004394E+03  0.26292189811E+03 0.  0.
         25    1    4    4    0    0 -0.67894383239E+02 -0.21748903818E+02  0.21123187895E+02  0.14552099250E+03  0.12509000000E+03 0.  0.
         25    1    4    4    0    0 -0.49097760492E+02  0.31754816304E+02  0.80511215498E+02  0.15983905144E+03  0.12509000000E+03 0.  0.
         25    1    3    3    0    0  0.11699214373E+03 -0.10005912486E+02  0.42529774228E+01  0.17161840197E+03  0.12509000000E+03 0.  0.
<mgrwt>
<rscale>  2 0.46507666E+03</rscale>
<asrwt>0</asrwt>
<pdfrwt beam="1">  1       21 0.42857782E-01 0.46507666E+03</pdfrwt>
<pdfrwt beam="2">  1       21 0.27286108E-01 0.46507666E+03</pdfrwt>
<totfact> 0.61827716E+04</totfact>
</mgrwt>
</event>
<event>
 7    0  0.4759581E-002  0.4431760E+03  0.7546771E-02  0.1029777E+00
         21   -1    0    0  502  501  0.00000000000E+00  0.00000000000E+00  0.27461580871E+03  0.27461580871E+03  0.00000000000E+00 0. -1.
         21   -1    0    0  501  502 -0.00000000000E+00 -0.00000000000E+00 -0.17879976952E+03  0.17879976952E+03  0.00000000000E+00 0. -1.
      99926    2    1    2    0    0  0.00000000000E+00  0.14210854715E-13  0.95816039189E+02  0.45341557822E+03  0.44317600703E+03 0.  0.
      99925    2    3    3    0    0 -0.20067306865E+02  0.71490857385E+02  0.13203245874E+03  0.30350635022E+03  0.26300170146E+03 0.  0.
         25    1    4    4    0    0 -0.13155027857E+02 -0.39192879069E+01  0.75375176962E+02  0.14668790331E+03  0.12509000000E+03 0.  0.
         25    1    3    3    0    0  0.20067306865E+02 -0.71490857385E+02 -0.36216419551E+02  0.14990922800E+03  0.12509000000E+03 0.  0.
         25    1    4    4    0    0 -0.69122790084E+01  0.75410145292E+02  0.56657281778E+02  0.15681844691E+03  0.12509000000E+03 0.  0.
<mgrwt>
<rscale>  2 0.44317601E+03</rscale>
<asrwt>0</asrwt>
<pdfrwt beam="1">  1       21 0.40384678E-01 0.44317601E+03</pdfrwt>
<pdfrwt beam="2">  1       21 0.26294084E-01 0.44317601E+03</pdfrwt>
<totfact> 0.75528434E+04</totfact>
</mgrwt>
</event>
<event>
 7    0  0.4759581E-002  0.4587131E+03  0.7546771E-02  0.1025155E+00
         21   -1    0    0  502  501  0.00000000000E+00  0.00000000000E+00  0.15342922677E+03  0.15342922677E+03  0.00000000000E+00 0. -1.
         21   -1    0    0  501  502 -0.00000000000E+00 -0.00000000000E+00 -0.34285793895E+03  0.34285793895E+03  0.00000000000E+00 0. -1.
      99926    2    1    2    0    0  0.00000000000E+00  0.14210854715E-13 -0.18942871218E+03  0.49628716572E+03  0.45871310627E+03 0.  0.
      99925    2    3    3    0    0 -0.36161623342E+02 -0.92752707560E+02 -0.53188876865E+02  0.28624067423E+03  0.26304740865E+03 0.  0.
         25    1    4    4    0    0  0.21921425610E+02 -0.35088045437E+02 -0.26348041005E+02  0.13436311696E+03  0.12509000000E+03 0.  0.
         25    1    3    3    0    0  0.36161623342E+02  0.92752707560E+02 -0.13623983532E+03  0.21004649149E+03  0.12509000000E+03 0.  0.
         25    1    4    4    0    0 -0.58083048952E+02 -0.57664662123E+02 -0.26840835860E+02  0.15187755727E+03  0.12509000000E+03 0.  0.
<mgrwt>
<rscale>  2 0.45871311E+03</rscale>
<asrwt>0</asrwt>
<pdfrwt beam="1">  1       21 0.22563122E-01 0.45871311E+03</pdfrwt>
<pdfrwt beam="2">  1       21 0.50420285E-01 0.45871311E+03</pdfrwt>
<totfact> 0.63635726E+04</totfact>
</mgrwt>
</event>
<event>
 7    0  0.4759581E-002  0.4513843E+03  0.7546771E-02  0.1027310E+00
         21   -1    0    0  502  501  0.00000000000E+00  0.00000000000E+00  0.71725104576E+02  0.71725104576E+02  0.00000000000E+00 0.  1.
         21   -1    0    0  501  502 -0.00000000000E+00 -0.00000000000E+00 -0.71016892785E+03  0.71016892785E+03  0.00000000000E+00 0.  1.
      99926    2    1    2    0    0  0.00000000000E+00  0.00000000000E+00 -0.63844382328E+03  0.78189403243E+03  0.45138427362E+03 0.  0.
      99925    2    3    3    0    0  0.18703602608E+02  0.54781675718E+02 -0.56462736764E+03  0.62553791976E+03  0.26295012460E+03 0.  0.
         25    1    3    3    0    0 -0.18703602608E+02 -0.54781675718E+02 -0.73816455636E+02  0.15635611266E+03  0.12509000000E+03 0.  0.
         25    1    4    4    0    0 -0.31892567622E+01  0.59325160556E+02 -0.34568521288E+03  0.37239148827E+03  0.12509000000E+03 0.  0.
         25    1    4    4    0    0  0.21892859370E+02 -0.45434848376E+01 -0.21894215476E+03  0.25314643149E+03  0.12509000000E+03 0.  0.
<mgrwt>
<rscale>  2 0.45138427E+03</rscale>
<asrwt>0</asrwt>
<pdfrwt beam="1">  1       21 0.10547809E-01 0.45138427E+03</pdfrwt>
<pdfrwt beam="2">  1       21 0.10443661E+00 0.45138427E+03</pdfrwt>
<totfact> 0.50058707E+04</totfact>
</mgrwt>
</event>
<event>
 7    0  0.4759581E-002  0.4666406E+03  0.7546771E-02  0.1022873E+00
         21   -1    0    0  502  501  0.00000000000E+00  0.00000000000E+00  0.38321343533E+03  0.38321343533E+03  0.00000000000E+00 0.  1.
         21   -1    0    0  501  502 -0.00000000000E+00 -0.00000000000E+00 -0.14205754988E+03  0.14205754988E+03  0.00000000000E+00 0.  1.
      99926    2    1    2    0    0  0.00000000000E+00  0.00000000000E+00  0.24115588545E+03  0.52527098521E+03  0.46664059705E+03 0.  0.
      99925    2    3    3    0    0 -0.75239524022E+02 -0.87919511287E+02  0.10085691888E+03  0.30454007536E+03  0.26302416804E+03 0.  0.
         25    1    4    4    0    0 -0.24623877701E+02 -0.53223266317E+02  0.10666218747E+02  0.13856524728E+03  0.12509000000E+03 0.  0.
         25    1    4    4    0    0 -0.50615646321E+02 -0.34696244971E+02  0.90190700133E+02  0.16597482809E+03  0.12509000000E+03 0.  0.
         25    1    3    3    0    0  0.75239524022E+02  0.87919511287E+02  0.14029896657E+03  0.22073090985E+03  0.12509000000E+03 0.  0.
<mgrwt>
<rscale>  2 0.46664060E+03</rscale>
<asrwt>0</asrwt>
<pdfrwt beam="1">  1       21 0.56354917E-01 0.46664060E+03</pdfrwt>
<pdfrwt beam="2">  1       21 0.20890816E-01 0.46664060E+03</pdfrwt>
<totfact> 0.57986056E+04</totfact>
</mgrwt>
</event>
<event>
 7    0  0.4759581E-002  0.4712013E+03  0.7546771E-02  0.1021582E+00
         21   -1    0    0  502  501  0.00000000000E+00  0.00000000000E+00  0.11435995211E+04  0.11435995211E+04  0.00000000000E+00 0. -1.
         21   -1    0    0  501  502 -0.00000000000E+00 -0.00000000000E+00 -0.48537688378E+02  0.48537688378E+02  0.00000000000E+00 0. -1.
      99926    2    1    2    0    0  0.00000000000E+00  0.00000000000E+00  0.10950618327E+04  0.11921372094E+04  0.47120134627E+03 0.  0.
      99925    2    3    3    0    0  0.46724595105E+02 -0.23465597404E+02  0.38455767579E+03  0.46881329368E+03  0.26299710316E+03 0.  0.
         25    1    4    4    0    0 -0.15443686579E+02 -0.18215306982E+02  0.16309500657E+03  0.20692460978E+03  0.12509000000E+03 0.  0.
         25    1    3    3    0    0 -0.46724595105E+02  0.23465597404E+02  0.71050415688E+03  0.72332391575E+03  0.12509000000E+03 0.  0.
         25    1    4    4    0    0  0.62168281684E+02 -0.52502904220E+01  0.22146266923E+03  0.26188868391E+03  0.12509000000E+03 0.  0.
<mgrwt>
<rscale>  2 0.47120135E+03</rscale>
<asrwt>0</asrwt>
<pdfrwt beam="1">  1       21 0.16817638E+00 0.47120135E+03</pdfrwt>
<pdfrwt beam="2">  1       21 0.71378961E-02 0.47120135E+03</pdfrwt>
<totfact> 0.28619546E+04</totfact>
</mgrwt>
</event>
<event>
 7    0  0.4759581E-002  0.4412520E+03  0.7546771E-02  0.1030363E+00
         21   -1    0    0  502  501  0.00000000000E+00  0.00000000000E+00  0.10598321524E+04  0.10598321524E+04  0.00000000000E+00 0. -1.
         21   -1    0    0  501  502 -0.00000000000E+00 -0.00000000000E+00 -0.45927863707E+02  0.45927863707E+02  0.00000000000E+00 0. -1.
      99926    2    1    2    0    0  0.35527136788E-14  0.00000000000E+00  0.10139042887E+04  0.11057600161E+04  0.44125197630E+03 0.  0.
      99925    2    3    3    0    0 -0.31173246606E+02 -0.76641673474E+02  0.50711576985E+03  0.57724527804E+03  0.26305890895E+03 0.  0.
         25    1    4    4    0    0 -0.34421119002E+02 -0.11610968496E+02  0.29562179392E+03  0.32304702624E+03  0.12509000000E+03 0.  0.
         25    1    4    4    0    0  0.32478723963E+01 -0.65030704979E+02  0.21149397593E+03  0.25419825180E+03  0.12509000000E+03 0.  0.
         25    1    3    3    0    0  0.31173246606E+02  0.76641673474E+02  0.50678851884E+03  0.52851473806E+03  0.12509000000E+03 0.  0.
<mgrwt>
<rscale>  2 0.44125198E+03</rscale>
<asrwt>0</asrwt>
<pdfrwt beam="1">  1       21 0.15585765E+00 0.44125198E+03</pdfrwt>
<pdfrwt beam="2">  1       21 0.67540982E-02 0.44125198E+03</pdfrwt>
<totfact> 0.39345764E+04</totfact>
</mgrwt>
</event>
<event>
 7    0  0.4759581E-002  0.4521059E+03  0.7546771E-02  0.1027096E+00
         21   -1    0    0  502  501  0.00000000000E+00  0.00000000000E+00  0.89897618069E+02  0.89897618069E+02  0.00000000000E+00 0. -1.
         21   -1    0    0  501  502 -0.00000000000E+00 -0.00000000000E+00 -0.56842357419E+03  0.56842357419E+03  0.00000000000E+00 0. -1.
      99926    2    1    2    0    0  0.00000000000E+00  0.00000000000E+00 -0.47852595612E+03  0.65832119226E+03  0.45210585209E+03 0.  0.
      99925    2    3    3    0    0  0.54756118497E+01 -0.10471478974E+03 -0.25196675148E+03  0.37908697011E+03  0.26310552547E+03 0.  0.
         25    1    4    4    0    0 -0.17868928092E+01 -0.74101820130E+02 -0.86144059536E+02  0.16900467398E+03  0.12509000000E+03 0.  0.
         25    1    3    3    0    0 -0.54756118497E+01  0.10471478974E+03 -0.22655920464E+03  0.27923422215E+03  0.12509000000E+03 0.  0.
         25    1    4    4    0    0  0.72625046589E+01 -0.30612969610E+02 -0.16582269195E+03  0.21008229613E+03  0.12509000000E+03 0.  0.
<mgrwt>
<rscale>  2 0.45210585E+03</rscale>
<asrwt>0</asrwt>
<pdfrwt beam="1">  1       21 0.13220238E-01 0.45210585E+03</pdfrwt>
<pdfrwt beam="2">  1       21 0.83591701E-01 0.45210585E+03</pdfrwt>
<totfact> 0.56502944E+04</totfact>
</mgrwt>
</event>
<event>
 7    0  0.4759581E-002  0.4559966E+03  0.7546771E-02  0.1025949E+00
         21   -1    0    0  502  501  0.00000000000E+00  0.00000000000E+00  0.51949610747E+03  0.51949610747E+03  0.00000000000E+00 0.  1.
         21   -1    0    0  501  502 -0.00000000000E+00 -0.00000000000E+00 -0.10006472254E+03  0.10006472254E+03  0.00000000000E+00 0.  1.
      99926    2    1    2    0    0  0.11102230246E-14  0.00000000000E+00  0.41943138493E+03  0.61956083000E+03  0.45599663969E+03 0.  0.
      99925    2    3    3    0    0 -0.12698846315E+01 -0.48983833523E+02  0.40360692379E+03  0.48428721756E+03  0.26312455531E+03 0.  0.
         25    1    3    3    0    0  0.12698846315E+01  0.48983833523E+02  0.15824461144E+02  0.13527361245E+03  0.12509000000E+03 0.  0.
         25    1    4    4    0    0 -0.40766499821E+02 -0.31005736255E+02  0.20962859068E+03  0.24942918298E+03  0.12509000000E+03 0.  0.
         25    1    4    4    0    0  0.39496615190E+02 -0.17978097268E+02  0.19397833310E+03  0.23485803458E+03  0.12509000000E+03 0.  0.
<mgrwt>
<rscale>  2 0.45599664E+03</rscale>
<asrwt>0</asrwt>
<pdfrwt beam="1">  1       21 0.76396485E-01 0.45599664E+03</pdfrwt>
<pdfrwt beam="2">  1       21 0.14715401E-01 0.45599664E+03</pdfrwt>
<totfact> 0.57039880E+04</totfact>
</mgrwt>
</event>
<event>
 7    0  0.4759581E-002  0.4605137E+03  0.7546771E-02  0.1024632E+00
         21   -1    0    0  502  501  0.00000000000E+00  0.00000000000E+00  0.85126855892E+02  0.85126855892E+02  0.00000000000E+00 0. -1.
         21   -1    0    0  501  502 -0.00000000000E+00 -0.00000000000E+00 -0.62281409519E+03  0.62281409519E+03  0.00000000000E+00 0. -1.
      99926    2    1    2    0    0  0.00000000000E+00  0.17763568394E-14 -0.53768723930E+03  0.70794095108E+03  0.46051365117E+03 0.  0.
      99925    2    3    3    0    0  0.80724606588E+02 -0.13176430341E+02 -0.46797171205E+03  0.54302326475E+03  0.26303357648E+03 0.  0.
         25    1    3    3    0    0 -0.80724606588E+02  0.13176430341E+02 -0.69715527247E+02  0.16491768633E+03  0.12509000000E+03 0.  0.
         25    1    4    4    0    0  0.10395235100E+02  0.20075456355E+02 -0.24033550196E+03  0.27188186122E+03  0.12509000000E+03 0.  0.
         25    1    4    4    0    0  0.70329371488E+02 -0.33251886696E+02 -0.22763621009E+03  0.27114140353E+03  0.12509000000E+03 0.  0.
<mgrwt>
<rscale>  2 0.46051365E+03</rscale>
<asrwt>0</asrwt>
<pdfrwt beam="1">  1       21 0.12518655E-01 0.46051365E+03</pdfrwt>
<pdfrwt beam="2">  1       21 0.91590309E-01 0.46051365E+03</pdfrwt>
<totfact> 0.50257869E+04</totfact>
</mgrwt>
</event>
<event>
 7    0  0.4759581E-002  0.4554482E+03  0.7546771E-02  0.1026110E+00
         21   -1    0    0  502  501  0.00000000000E+00  0.00000000000E+00  0.25276737713E+03  0.25276737713E+03  0.00000000000E+00 0. -1.
         21   -1    0    0  501  502 -0.00000000000E+00 -0.00000000000E+00 -0.20516202580E+03  0.20516202580E+03  0.00000000000E+00 0. -1.
      99926    2    1    2    0    0 -0.71054273576E-14  0.00000000000E+00  0.47605351329E+02  0.45792940293E+03  0.45544820627E+03 0.  0.
      99925    2    3    3    0    0 -0.56662780420E+02 -0.48895412790E+02  0.11583126124E+03  0.29698309213E+03  0.26302213567E+03 0.  0.
         25    1    3    3    0    0  0.56662780420E+02  0.48895412790E+02 -0.68225909914E+02  0.16094631080E+03  0.12509000000E+03 0.  0.
         25    1    4    4    0    0 -0.41495446287E+02 -0.27009999150E+02  0.17514509651E+02  0.13566752841E+03  0.12509000000E+03 0.  0.
         25    1    4    4    0    0 -0.15167334133E+02 -0.21885413640E+02  0.98316751593E+02  0.16131556372E+03  0.12509000000E+03 0.  0.
<mgrwt>
<rscale>  2 0.45544821E+03</rscale>
<asrwt>0</asrwt>
<pdfrwt beam="1">  1       21 0.37171673E-01 0.45544821E+03</pdfrwt>
<pdfrwt beam="2">  1       21 0.30170886E-01 0.45544821E+03</pdfrwt>
<totfact> 0.68087881E+04</totfact>
</mgrwt>
</event>
<event>
 7    0  0.4759581E-002  0.4514652E+03  0.7546771E-02  0.1027286E+00
         21   -1    0    0  502  501  0.00000000000E+00  0.00000000000E+00  0.58678784071E+02  0.58678784071E+02  0.00000000000E+00 0.  1.
         21   -1    0    0  501  502 -0.00000000000E+00 -0.00000000000E+00 -0.86837548141E+03  0.86837548141E+03  0.00000000000E+00 0.  1.
      99926    2    1    2    0    0  0.00000000000E+00  0.00000000000E+00 -0.80969669734E+03  0.92705426548E+03  0.45146524724E+03 0.  0.
      99925    2    3    3    0    0 -0.18115676562E+02  0.76899396174E+02 -0.35457308016E+03  0.44848691402E+03  0.26301472964E+03 0.  0.
         25    1    4    4    0    0  0.88271751273E+01  0.56109013533E+02 -0.12975803824E+03  0.18897300603E+03  0.12509000000E+03 0.  0.
         25    1    4    4    0    0 -0.26942851689E+02  0.20790382642E+02 -0.22481504192E+03  0.25951390799E+03  0.12509000000E+03 0.  0.
         25    1    3    3    0    0  0.18115676562E+02 -0.76899396174E+02 -0.45512361718E+03  0.47856735146E+03  0.12509000000E+03 0.  0.
<mgrwt>
<rscale>  2 0.45146525E+03</rscale>
<asrwt>0</asrwt>
<pdfrwt beam="1">  1       21 0.86292332E-02 0.45146525E+03</pdfrwt>
<pdfrwt beam="2">  1       21 0.12770227E+00 0.45146525E+03</pdfrwt>
<totfact> 0.43268166E+04</totfact>
</mgrwt>
</event>
<event>
 7    0  0.4759581E-002  0.4516691E+03  0.7546771E-02  0.1027225E+00
         21   -1    0    0  502  501  0.00000000000E+00  0.00000000000E+00  0.50253103366E+03  0.50253103366E+03  0.00000000000E+00 0. -1.
         21   -1    0    0  501  502 -0.00000000000E+00 -0.00000000000E+00 -0.10148875808E+03  0.10148875808E+03  0.00000000000E+00 0. -1.
      99926    2    1    2    0    0  0.13322676296E-14  0.00000000000E+00  0.40104227558E+03  0.60401979174E+03  0.45166912891E+03 0.  0.
      99925    2    3    3    0    0  0.59603125776E+00 -0.36314242174E+02  0.11517968786E+03  0.28987968510E+03  0.26352379760E+03 0.  0.
         25    1    4    4    0    0 -0.91593400362E+01 -0.43996326377E+02  0.93027211331E+02  0.16223791293E+03  0.12509000000E+03 0.  0.
         25    1    4    4    0    0  0.97553712939E+01  0.76820842029E+01  0.22152476526E+02  0.12764177217E+03  0.12509000000E+03 0.  0.
         25    1    3    3    0    0 -0.59603125776E+00  0.36314242174E+02  0.28586258772E+03  0.31414010664E+03  0.12509000000E+03 0.  0.
<mgrwt>
<rscale>  2 0.45166913E+03</rscale>
<asrwt>0</asrwt>
<pdfrwt beam="1">  1       21 0.73901622E-01 0.45166913E+03</pdfrwt>
<pdfrwt beam="2">  1       21 0.14924818E-01 0.45166913E+03</pdfrwt>
<totfact> 0.59994735E+04</totfact>
</mgrwt>
</event>
<event>
 7    0  0.4759581E-002  0.4548315E+03  0.7546771E-02  0.1026291E+00
         21   -1    0    0  502  501  0.00000000000E+00  0.00000000000E+00  0.20292288452E+04  0.20292288452E+04  0.00000000000E+00 0.  1.
         21   -1    0    0  501  502 -0.00000000000E+00 -0.00000000000E+00 -0.25486494004E+02  0.25486494004E+02  0.00000000000E+00 0.  1.
      99926    2    1    2    0    0  0.00000000000E+00 -0.35527136788E-14  0.20037423512E+04  0.20547153392E+04  0.45483152396E+03 0.  0.
      99925    2    3    3    0    0  0.78577484591E+02 -0.30399070993E+02  0.91797363572E+03  0.95852204594E+03  0.26266022171E+03 0.  0.
         25    1    4    4    0    0  0.57548674257E+02 -0.45465570360E+02  0.55890855190E+03  0.57741254358E+03  0.12509000000E+03 0.  0.
         25    1    4    4    0    0  0.21028810335E+02  0.15066499367E+02  0.35906508383E+03  0.38110950236E+03  0.12509000000E+03 0.  0.
         25    1    3    3    0    0 -0.78577484591E+02  0.30399070993E+02  0.10857687155E+04  0.10961932933E+04  0.12509000000E+03 0.  0.
<mgrwt>
<rscale>  2 0.45483152E+03</rscale>
<asrwt>0</asrwt>
<pdfrwt beam="1">  1       21 0.29841590E+00 0.45483152E+03</pdfrwt>
<pdfrwt beam="2">  1       21 0.37480152E-02 0.45483152E+03</pdfrwt>
<totfact> 0.12853754E+04</totfact>
</mgrwt>
</event>
<event>
 7    0  0.4759581E-002  0.4505628E+03  0.7546771E-02  0.1027554E+00
         21   -1    0    0  502  501  0.00000000000E+00  0.00000000000E+00  0.90868147317E+02  0.90868147317E+02  0.00000000000E+00 0.  1.
         21   -1    0    0  501  502 -0.00000000000E+00 -0.00000000000E+00 -0.55852046343E+03  0.55852046343E+03  0.00000000000E+00 0.  1.
      99926    2    1    2    0    0  0.00000000000E+00 -0.14210854715E-13 -0.46765231612E+03  0.64938861075E+03  0.45056284690E+03 0.  0.
      99925    2    3    3    0    0 -0.80221591210E+02  0.72054388018E+02 -0.27194785266E+03  0.39331228688E+03  0.26289081748E+03 0.  0.
         25    1    3    3    0    0  0.80221591210E+02 -0.72054388018E+02 -0.19570446346E+03  0.25607632387E+03  0.12509000000E+03 0.  0.
         25    1    4    4    0    0 -0.71965064198E+02  0.32202635328E+02 -0.17935970712E+03  0.23245083959E+03  0.12509000000E+03 0.  0.
         25    1    4    4    0    0 -0.82565270126E+01  0.39851752689E+02 -0.92588145536E+02  0.16086144729E+03  0.12509000000E+03 0.  0.
<mgrwt>
<rscale>  2 0.45056285E+03</rscale>
<asrwt>0</asrwt>
<pdfrwt beam="1">  1       21 0.13362963E-01 0.45056285E+03</pdfrwt>
<pdfrwt beam="2">  1       21 0.82135360E-01 0.45056285E+03</pdfrwt>
<totfact> 0.57731157E+04</totfact>
</mgrwt>
</event>
<event>
 7    0  0.4759581E-002  0.4554179E+03  0.7546771E-02  0.1026119E+00
         21   -1    0    0  502  501  0.00000000000E+00  0.00000000000E+00  0.20752950117E+03  0.20752950117E+03  0.00000000000E+00 0.  1.
         21   -1    0    0  501  502 -0.00000000000E+00 -0.00000000000E+00 -0.24985057055E+03  0.24985057055E+03  0.00000000000E+00 0.  1.
      99926    2    1    2    0    0 -0.35527136788E-14 -0.71054273576E-14 -0.42321069385E+02  0.45738007172E+03  0.45541789281E+03 0.  0.
      99925    2    3    3    0    0  0.21072185616E+02 -0.40184182400E+02 -0.13118820738E+03  0.29736856639E+03  0.26298082249E+03 0.  0.
         25    1    4    4    0    0  0.37969845158E+02  0.87539651198E+01 -0.55731704276E+02  0.14237932437E+03  0.12509000000E+03 0.  0.
         25    1    3    3    0    0 -0.21072185616E+02  0.40184182400E+02  0.88867137995E+02  0.16001150533E+03  0.12509000000E+03 0.  0.
         25    1    4    4    0    0 -0.16897659542E+02 -0.48938147520E+02 -0.75456503104E+02  0.15498924202E+03  0.12509000000E+03 0.  0.
<mgrwt>
<rscale>  2 0.45541789E+03</rscale>
<asrwt>0</asrwt>
<pdfrwt beam="1">  1       21 0.30519045E-01 0.45541789E+03</pdfrwt>
<pdfrwt beam="2">  1       21 0.36742731E-01 0.45541789E+03</pdfrwt>
<totfact> 0.68144302E+04</totfact>
</mgrwt>
</event>
<event>
 7    0  0.4759581E-002  0.4634895E+03  0.7546771E-02  0.1023774E+00
         21   -1    0    0  502  501  0.00000000000E+00  0.00000000000E+00  0.84017156119E+03  0.84017156119E+03  0.00000000000E+00 0. -1.
         21   -1    0    0  501  502 -0.00000000000E+00 -0.00000000000E+00 -0.63922209478E+02  0.63922209478E+02  0.00000000000E+00 0. -1.
      99926    2    1    2    0    0  0.00000000000E+00  0.00000000000E+00  0.77624935172E+03  0.90409377067E+03  0.46348947143E+03 0.  0.
      99925    2    3    3    0    0 -0.19491489592E+02 -0.11935191062E+03  0.48067216169E+03  0.56110954349E+03  0.26300835734E+03 0.  0.
         25    1    4    4    0    0 -0.71888367476E+01 -0.52134275758E+02  0.31225570337E+03  0.34047142974E+03  0.12509000000E+03 0.  0.
         25    1    4    4    0    0 -0.12302652845E+02 -0.67217634863E+02  0.16841645833E+03  0.22063811375E+03  0.12509000000E+03 0.  0.
         25    1    3    3    0    0  0.19491489592E+02  0.11935191062E+03  0.29557719002E+03  0.34298422718E+03  0.12509000000E+03 0.  0.
<mgrwt>
<rscale>  2 0.46348947E+03</rscale>
<asrwt>0</asrwt>
<pdfrwt beam="1">  1       21 0.12355463E+00 0.46348947E+03</pdfrwt>
<pdfrwt beam="2">  1       21 0.94003254E-02 0.46348947E+03</pdfrwt>
<totfact> 0.40310404E+04</totfact>
</mgrwt>
</event>
<event>
 7    0  0.4759581E-002  0.3921922E+03  0.7546771E-02  0.1046517E+00
         21   -1    0    0  502  501  0.00000000000E+00  0.00000000000E+00  0.13304156504E+03  0.13304156504E+03  0.00000000000E+00 0.  1.
         21   -1    0    0  501  502 -0.00000000000E+00 -0.00000000000E+00 -0.28903501988E+03  0.28903501988E+03  0.00000000000E+00 0.  1.
      99926    2    1    2    0    0  0.35527136788E-14  0.00000000000E+00 -0.15599345484E+03  0.42207658492E+03  0.39219215390E+03 0.  0.
      99925    2    3    3    0    0  0.67044169889E+01 -0.23691682005E+02 -0.94805888753E+02  0.28066346195E+03  0.26301630620E+03 0.  0.
         25    1    4    4    0    0 -0.29075612263E+02 -0.15942858297E+02 -0.72798927774E+02  0.14848150708E+03  0.12509000000E+03 0.  0.
         25    1    4    4    0    0  0.35780029252E+02 -0.77488237079E+01 -0.22006960979E+02  0.13218195487E+03  0.12509000000E+03 0.  0.
         25    1    3    3    0    0 -0.67044169889E+01  0.23691682005E+02 -0.61187566085E+02  0.14141312297E+03  0.12509000000E+03 0.  0.
<mgrwt>
<rscale>  2 0.39219215E+03</rscale>
<asrwt>0</asrwt>
<pdfrwt beam="1">  1       21 0.19564936E-01 0.39219215E+03</pdfrwt>
<pdfrwt beam="2">  1       21 0.42505150E-01 0.39219215E+03</pdfrwt>
<totfact> 0.12123157E+05</totfact>
</mgrwt>
</event>
<event>
 7    0  0.4759581E-002  0.4457538E+03  0.7546771E-02  0.1028996E+00
         21   -1    0    0  502  501  0.00000000000E+00  0.00000000000E+00  0.66031372187E+03  0.66031372187E+03  0.00000000000E+00 0.  1.
         21   -1    0    0  501  502 -0.00000000000E+00 -0.00000000000E+00 -0.75228046232E+02  0.75228046232E+02  0.00000000000E+00 0.  1.
      99926    2    1    2    0    0  0.71054273576E-14  0.00000000000E+00  0.58508567564E+03  0.73554176810E+03  0.44575379391E+03 0.  0.
      99925    2    3    3    0    0  0.43440813463E+02  0.29640212749E+02  0.22275719478E+03  0.34863728037E+03  0.26298581511E+03 0.  0.
         25    1    4    4    0    0  0.52681239596E+02  0.39850391308E+02  0.13198275818E+03  0.19346917907E+03  0.12509000000E+03 0.  0.
         25    1    4    4    0    0 -0.92404261332E+01 -0.10210178559E+02  0.90774436598E+02  0.15516810130E+03  0.12509000000E+03 0.  0.
         25    1    3    3    0    0 -0.43440813463E+02 -0.29640212749E+02  0.36232848086E+03  0.38690448773E+03  0.12509000000E+03 0.  0.
<mgrwt>
<rscale>  2 0.44575379E+03</rscale>
<asrwt>0</asrwt>
<pdfrwt beam="1">  1       21 0.97104956E-01 0.44575379E+03</pdfrwt>
<pdfrwt beam="2">  1       21 0.11062948E-01 0.44575379E+03</pdfrwt>
<totfact> 0.54898831E+04</totfact>
</mgrwt>
</event>
<event>
 7    0  0.4759581E-002  0.4481612E+03  0.7546771E-02  0.1028272E+00
         21   -1    0    0  502  501  0.00000000000E+00  0.00000000000E+00  0.19981429901E+03  0.19981429901E+03  0.00000000000E+00 0.  1.
         21   -1    0    0  501  502 -0.00000000000E+00 -0.00000000000E+00 -0.25129393644E+03  0.25129393644E+03  0.00000000000E+00 0.  1.
      99926    2    1    2    0    0  0.00000000000E+00 -0.35527136788E-14 -0.51479637432E+02  0.45110823545E+03  0.44816122882E+03 0.  0.
      99925    2    3    3    0    0 -0.10206576859E+03  0.30934732217E+02 -0.30968489073E+02  0.28545017171E+03  0.26296078498E+03 0.  0.
         25    1    4    4    0    0 -0.29431540804E+02  0.41630739346E+02  0.78281094015E+01  0.13530750700E+03  0.12509000000E+03 0.  0.
         25    1    3    3    0    0  0.10206576859E+03 -0.30934732217E+02 -0.20511148359E+02  0.16565806374E+03  0.12509000000E+03 0.  0.
         25    1    4    4    0    0 -0.72634227784E+02 -0.10696007129E+02 -0.38796598475E+02  0.15014266471E+03  0.12509000000E+03 0.  0.
<mgrwt>
<rscale>  2 0.44816123E+03</rscale>
<asrwt>0</asrwt>
<pdfrwt beam="1">  1       21 0.29384456E-01 0.44816123E+03</pdfrwt>
<pdfrwt beam="2">  1       21 0.36954990E-01 0.44816123E+03</pdfrwt>
<totfact> 0.72719253E+04</totfact>
</mgrwt>
</event>
<event>
 7    0  0.4759581E-002  0.4587688E+03  0.7546771E-02  0.1025139E+00
         21   -1    0    0  502  501  0.00000000000E+00  0.00000000000E+00  0.24376274673E+03  0.24376274673E+03  0.00000000000E+00 0. -1.
         21   -1    0    0  501  502 -0.00000000000E+00 -0.00000000000E+00 -0.21585418813E+03  0.21585418813E+03  0.00000000000E+00 0. -1.
      99926    2    1    2    0    0  0.00000000000E+00 -0.35527136788E-14  0.27908558601E+02  0.45961693486E+03  0.45876882977E+03 0.  0.
      99925    2    3    3    0    0 -0.62563214718E+02 -0.12327880069E+02 -0.80418700561E+02  0.28227986699E+03  0.26296125845E+03 0.  0.
         25    1    3    3    0    0  0.62563214718E+02  0.12327880069E+02  0.10832725916E+03  0.17733706787E+03  0.12509000000E+03 0.  0.
         25    1    4    4    0    0 -0.23382711885E+02 -0.43919621063E+02 -0.53030087835E+02  0.14469064464E+03  0.12509000000E+03 0.  0.
         25    1    4    4    0    0 -0.39180502833E+02  0.31591740994E+02 -0.27388612726E+02  0.13758922236E+03  0.12509000000E+03 0.  0.
<mgrwt>
<rscale>  2 0.45876883E+03</rscale>
<asrwt>0</asrwt>
<pdfrwt beam="1">  1       21 0.35847463E-01 0.45876883E+03</pdfrwt>
<pdfrwt beam="2">  1       21 0.31743263E-01 0.45876883E+03</pdfrwt>
<totfact> 0.66195841E+04</totfact>
</mgrwt>
</event>
<event>
 7    0  0.4759581E-002  0.4638523E+03  0.7546771E-02  0.1023670E+00
         21   -1    0    0  502  501  0.00000000000E+00  0.00000000000E+00  0.16616508662E+03  0.16616508662E+03  0.00000000000E+00 0. -1.
         21   -1    0    0  501  502 -0.00000000000E+00 -0.00000000000E+00 -0.32371259169E+03  0.32371259169E+03  0.00000000000E+00 0. -1.
      99926    2    1    2    0    0 -0.14210854715E-13  0.00000000000E+00 -0.15754750508E+03  0.48987767831E+03  0.46385226458E+03 0.  0.
      99925    2    3    3    0    0 -0.71123847709E+02 -0.35846038011E+02 -0.19496414605E+03  0.33693633898E+03  0.26300482530E+03 0.  0.
         25    1    3    3    0    0  0.71123847709E+02  0.35846038011E+02  0.37416640973E+02  0.15294133933E+03  0.12509000000E+03 0.  0.
         25    1    4    4    0    0 -0.76289217358E+02 -0.16971690281E+02 -0.92967852506E+02  0.17435197921E+03  0.12509000000E+03 0.  0.
         25    1    4    4    0    0  0.51653696490E+01 -0.18874347730E+02 -0.10199629354E+03  0.16258435977E+03  0.12509000000E+03 0.  0.
<mgrwt>
<rscale>  2 0.46385226E+03</rscale>
<asrwt>0</asrwt>
<pdfrwt beam="1">  1       21 0.24436042E-01 0.46385226E+03</pdfrwt>
<pdfrwt beam="2">  1       21 0.47604793E-01 0.46385226E+03</pdfrwt>
<totfact> 0.61547701E+04</totfact>
</mgrwt>
</event>
<event>
 7    0  0.4759581E-002  0.4679343E+03  0.7546771E-02  0.1022505E+00
         21   -1    0    0  502  501  0.00000000000E+00  0.00000000000E+00  0.73958822635E+02  0.73958822635E+02  0.00000000000E+00 0.  1.
         21   -1    0    0  501  502 -0.00000000000E+00 -0.00000000000E+00 -0.74015014065E+03  0.74015014065E+03  0.00000000000E+00 0.  1.
      99926    2    1    2    0    0 -0.14210854715E-13  0.88817841970E-15 -0.66619131801E+03  0.81410896328E+03  0.46793432435E+03 0.  0.
      99925    2    3    3    0    0 -0.12360061677E+03  0.66654990407E+01 -0.44389581179E+03  0.53058763863E+03  0.26297948438E+03 0.  0.
         25    1    4    4    0    0 -0.86697704219E+02  0.14195831623E+02 -0.29684525288E+03  0.33389014033E+03  0.12509000000E+03 0.  0.
         25    1    3    3    0    0  0.12360061677E+03 -0.66654990407E+01 -0.22229550623E+03  0.28352132465E+03  0.12509000000E+03 0.  0.
         25    1    4    4    0    0 -0.36902912551E+02 -0.75303325823E+01 -0.14705055890E+03  0.19669749830E+03  0.12509000000E+03 0.  0.
<mgrwt>
<rscale>  2 0.46793432E+03</rscale>
<asrwt>0</asrwt>
<pdfrwt beam="1">  1       21 0.10876298E-01 0.46793432E+03</pdfrwt>
<pdfrwt beam="2">  1       21 0.10884561E+00 0.46793432E+03</pdfrwt>
<totfact> 0.42598935E+04</totfact>
</mgrwt>
</event>
<event>
 7    0  0.4759581E-002  0.4581865E+03  0.7546771E-02  0.1025309E+00
         21   -1    0    0  502  501  0.00000000000E+00  0.00000000000E+00  0.88679909004E+02  0.88679909004E+02  0.00000000000E+00 0.  1.
         21   -1    0    0  501  502 -0.00000000000E+00 -0.00000000000E+00 -0.59183311158E+03  0.59183311158E+03  0.00000000000E+00 0.  1.
      99926    2    1    2    0    0  0.00000000000E+00  0.00000000000E+00 -0.50315320257E+03  0.68051302058E+03  0.45818645323E+03 0.  0.
      99925    2    3    3    0    0  0.25004508198E+02  0.10662872075E+03 -0.37335878377E+03  0.46958884280E+03  0.26291061284E+03 0.  0.
         25    1    3    3    0    0 -0.25004508198E+02 -0.10662872075E+03 -0.12979441880E+03  0.21092417778E+03  0.12509000000E+03 0.  0.
         25    1    4    4    0    0 -0.69290363936E+01  0.53871207531E+02 -0.12625220855E+03  0.18584199421E+03  0.12509000000E+03 0.  0.
         25    1    4    4    0    0  0.31933544591E+02  0.52757513221E+02 -0.24710657522E+03  0.28374684860E+03  0.12509000000E+03 0.  0.
<mgrwt>
<rscale>  2 0.45818645E+03</rscale>
<asrwt>0</asrwt>
<pdfrwt beam="1">  1       21 0.13041163E-01 0.45818645E+03</pdfrwt>
<pdfrwt beam="2">  1       21 0.87034281E-01 0.45818645E+03</pdfrwt>
<totfact> 0.52640279E+04</totfact>
</mgrwt>
</event>
<event>
 7    0  0.4759581E-002  0.4532720E+03  0.7546771E-02  0.1026751E+00
         21   -1    0    0  502  501  0.00000000000E+00  0.00000000000E+00  0.51909768472E+02  0.51909768472E+02  0.00000000000E+00 0.  1.
         21   -1    0    0  501  502 -0.00000000000E+00 -0.00000000000E+00 -0.98948384338E+03  0.98948384338E+03  0.00000000000E+00 0.  1.
      99926    2    1    2    0    0 -0.23314683517E-14  0.00000000000E+00 -0.93757407490E+03  0.10413936118E+04  0.45327200318E+03 0.  0.
      99925    2    3    3    0    0 -0.80089066601E+00  0.97453794874E+02 -0.46496334495E+03  0.54288955597E+03  0.26275516031E+03 0.  0.
         25    1    3    3    0    0  0.80089066601E+00 -0.97453794874E+02 -0.47261072996E+03  0.49850405588E+03  0.12509000000E+03 0.  0.
         25    1    4    4    0    0  0.23323913840E+02  0.20775099722E+02 -0.17927244252E+03  0.22082057529E+03  0.12509000000E+03 0.  0.
         25    1    4    4    0    0 -0.24124804506E+02  0.76678695152E+02 -0.28569090242E+03  0.32206898067E+03  0.12509000000E+03 0.  0.
<mgrwt>
<rscale>  2 0.45327200E+03</rscale>
<asrwt>0</asrwt>
<pdfrwt beam="1">  1       21 0.76337899E-02 0.45327200E+03</pdfrwt>
<pdfrwt beam="2">  1       21 0.14551232E+00 0.45327200E+03</pdfrwt>
<totfact> 0.38106191E+04</totfact>
</mgrwt>
</event>
<event>
 7    0  0.4759581E-002  0.4532303E+03  0.7546771E-02  0.1026763E+00
         21   -1    0    0  502  501  0.00000000000E+00  0.00000000000E+00  0.38583663014E+03  0.38583663014E+03  0.00000000000E+00 0. -1.
         21   -1    0    0  501  502 -0.00000000000E+00 -0.00000000000E+00 -0.13309889370E+03  0.13309889370E+03  0.00000000000E+00 0. -1.
      99926    2    1    2    0    0  0.00000000000E+00  0.00000000000E+00  0.25273773644E+03  0.51893552384E+03  0.45323031063E+03 0.  0.
      99925    2    3    3    0    0  0.10725974841E+03  0.12509575855E+02  0.12759773851E+03  0.31164666669E+03  0.26302341886E+03 0.  0.
         25    1    3    3    0    0 -0.10725974841E+03 -0.12509575855E+02  0.12513999793E+03  0.20728885715E+03  0.12509000000E+03 0.  0.
         25    1    4    4    0    0  0.43482811952E+02  0.17865813331E+02  0.20991586145E+02  0.13527045875E+03  0.12509000000E+03 0.  0.
         25    1    4    4    0    0  0.63776936457E+02 -0.53562374762E+01  0.10660615237E+03  0.17637620794E+03  0.12509000000E+03 0.  0.
<mgrwt>
<rscale>  2 0.45323031E+03</rscale>
<asrwt>0</asrwt>
<pdfrwt beam="1">  1       21 0.56740681E-01 0.45323031E+03</pdfrwt>
<pdfrwt beam="2">  1       21 0.19573367E-01 0.45323031E+03</pdfrwt>
<totfact> 0.64865813E+04</totfact>
</mgrwt>
</event>
<event>
 7    0  0.4759581E-002  0.4493654E+03  0.7546771E-02  0.1027911E+00
         21   -1    0    0  502  501  0.00000000000E+00  0.00000000000E+00  0.34077110962E+03  0.34077110962E+03  0.00000000000E+00 0. -1.
         21   -1    0    0  501  502 -0.00000000000E+00 -0.00000000000E+00 -0.14814144372E+03  0.14814144372E+03  0.00000000000E+00 0. -1.
      99926    2    1    2    0    0  0.00000000000E+00 -0.71054273576E-14  0.19262966589E+03  0.48891255334E+03  0.44936543774E+03 0.  0.
      99925    2    3    3    0    0 -0.80158840005E+02  0.37099125765E+02  0.54636415893E+02  0.28277805863E+03  0.26301427288E+03 0.  0.
         25    1    4    4    0    0 -0.20940745572E+02  0.49886364191E+02  0.93975578344E+01  0.13661254097E+03  0.12509000000E+03 0.  0.
         25    1    3    3    0    0  0.80158840005E+02 -0.37099125765E+02  0.13799325000E+03  0.20613449471E+03  0.12509000000E+03 0.  0.
         25    1    4    4    0    0 -0.59218094433E+02 -0.12787238427E+02  0.45238858059E+02  0.14616551766E+03  0.12509000000E+03 0.  0.
<mgrwt>
<rscale>  2 0.44936544E+03</rscale>
<asrwt>0</asrwt>
<pdfrwt beam="1">  1       21 0.50113398E-01 0.44936544E+03</pdfrwt>
<pdfrwt beam="2">  1       21 0.21785506E-01 0.44936544E+03</pdfrwt>
<totfact> 0.69096225E+04</totfact>
</mgrwt>
</event>
<event>
 7    0  0.4759581E-002  0.4531777E+03  0.7546771E-02  0.1026779E+00
         21   -1    0    0  502  501  0.00000000000E+00  0.00000000000E+00  0.14400542972E+03  0.14400542972E+03  0.00000000000E+00 0.  1.
         21   -1    0    0  501  502 -0.00000000000E+00 -0.00000000000E+00 -0.35653170868E+03  0.35653170868E+03  0.00000000000E+00 0.  1.
      99926    2    1    2    0    0  0.00000000000E+00  0.00000000000E+00 -0.21252627896E+03  0.50053713841E+03  0.45317767782E+03 0.  0.
      99925    2    3    3    0    0  0.10304315578E+03 -0.32592809897E+02 -0.16393360894E+03  0.32823235354E+03  0.26302484019E+03 0.  0.
         25    1    4    4    0    0  0.91284147392E+02 -0.34094534002E+02 -0.96704386218E+02  0.18572689420E+03  0.12509000000E+03 0.  0.
         25    1    4    4    0    0  0.11759008389E+02  0.15017241059E+01 -0.67229222723E+02  0.14250545934E+03  0.12509000000E+03 0.  0.
         25    1    3    3    0    0 -0.10304315578E+03  0.32592809897E+02 -0.48592670018E+02  0.17230478487E+03  0.12509000000E+03 0.  0.
<mgrwt>
<rscale>  2 0.45317768E+03</rscale>
<asrwt>0</asrwt>
<pdfrwt beam="1">  1       21 0.21177270E-01 0.45317768E+03</pdfrwt>
<pdfrwt beam="2">  1       21 0.52431132E-01 0.45317768E+03</pdfrwt>
<totfact> 0.66185162E+04</totfact>
</mgrwt>
</event>
<event>
 7    0  0.4759581E-002  0.4505410E+03  0.7546771E-02  0.1027561E+00
         21   -1    0    0  502  501  0.00000000000E+00  0.00000000000E+00  0.10835148935E+04  0.10835148935E+04  0.00000000000E+00 0.  1.
         21   -1    0    0  501  502 -0.00000000000E+00 -0.00000000000E+00 -0.46835354260E+02  0.46835354260E+02  0.00000000000E+00 0.  1.
      99926    2    1    2    0    0  0.00000000000E+00  0.00000000000E+00  0.10366795393E+04  0.11303502478E+04  0.45054102537E+03 0.  0.
      99925    2    3    3    0    0 -0.56076118675E+02 -0.68108527694E+02  0.49461065190E+03  0.56708344654E+03  0.26298409789E+03 0.  0.
         25    1    3    3    0    0  0.56076118675E+02  0.68108527694E+02  0.54206888738E+03  0.56326680126E+03  0.12509000000E+03 0.  0.
         25    1    4    4    0    0 -0.94761660540E+01 -0.53303016654E+02  0.31133775779E+03  0.33986720470E+03  0.12509000000E+03 0.  0.
         25    1    4    4    0    0 -0.46599952621E+02 -0.14805511040E+02  0.18327289411E+03  0.22721624184E+03  0.12509000000E+03 0.  0.
<mgrwt>
<rscale>  2 0.45054103E+03</rscale>
<asrwt>0</asrwt>
<pdfrwt beam="1">  1       21 0.15934041E+00 0.45054103E+03</pdfrwt>
<pdfrwt beam="2">  1       21 0.68875528E-02 0.45054103E+03</pdfrwt>
<totfact> 0.35669030E+04</totfact>
</mgrwt>
</event>
<event>
 7    0  0.4759581E-002  0.4580559E+03  0.7546771E-02  0.1025347E+00
         21   -1    0    0  502  501  0.00000000000E+00  0.00000000000E+00  0.22927248434E+03  0.22927248434E+03  0.00000000000E+00 0. -1.
         21   -1    0    0  501  502 -0.00000000000E+00 -0.00000000000E+00 -0.22878362912E+03  0.22878362912E+03  0.00000000000E+00 0. -1.
      99926    2    1    2    0    0 -0.71054273576E-14  0.00000000000E+00  0.48885522204E+00  0.45805611346E+03  0.45805585260E+03 0.  0.
      99925    2    3    3    0    0 -0.57525337579E+02  0.27528158854E+02  0.97254353122E+02  0.28753328895E+03  0.26296391209E+03 0.  0.
         25    1    4    4    0    0 -0.58699252552E+02  0.42299299090E+02  0.47784805007E+02  0.15220291930E+03  0.12509000000E+03 0.  0.
         25    1    3    3    0    0  0.57525337579E+02 -0.27528158854E+02 -0.96765497900E+02  0.17052282451E+03  0.12509000000E+03 0.  0.
         25    1    4    4    0    0  0.11739149737E+01 -0.14771140236E+02  0.49469548115E+02  0.13533036966E+03  0.12509000000E+03 0.  0.
<mgrwt>
<rscale>  2 0.45805585E+03</rscale>
<asrwt>0</asrwt>
<pdfrwt beam="1">  1       21 0.33716542E-01 0.45805585E+03</pdfrwt>
<pdfrwt beam="2">  1       21 0.33644651E-01 0.45805585E+03</pdfrwt>
<totfact> 0.66681718E+04</totfact>
</mgrwt>
</event>
<event>
 7    0  0.4759581E-002  0.4524370E+03  0.7546771E-02  0.1026998E+00
         21   -1    0    0  502  501  0.00000000000E+00  0.00000000000E+00  0.16078157221E+03  0.16078157221E+03  0.00000000000E+00 0.  1.
         21   -1    0    0  501  502 -0.00000000000E+00 -0.00000000000E+00 -0.31828780083E+03  0.31828780083E+03  0.00000000000E+00 0.  1.
      99926    2    1    2    0    0  0.00000000000E+00 -0.88817841970E-15 -0.15750622861E+03  0.47906937304E+03  0.45243701455E+03 0.  0.
      99925    2    3    3    0    0  0.33090659552E+02  0.65504828544E+01  0.12298021699E+02  0.26548357740E+03  0.26304446003E+03 0.  0.
         25    1    4    4    0    0 -0.33583441346E+01 -0.52672986968E-01 -0.29362460833E+02  0.12853382223E+03  0.12509000000E+03 0.  0.
         25    1    4    4    0    0  0.36449003687E+02  0.66031558414E+01  0.41660482533E+02  0.13694975517E+03  0.12509000000E+03 0.  0.
         25    1    3    3    0    0 -0.33090659552E+02 -0.65504828544E+01 -0.16980425031E+03  0.21358579564E+03  0.12509000000E+03 0.  0.
<mgrwt>
<rscale>  2 0.45243701E+03</rscale>
<asrwt>0</asrwt>
<pdfrwt beam="1">  1       21 0.23644349E-01 0.45243701E+03</pdfrwt>
<pdfrwt beam="2">  1       21 0.46807029E-01 0.45243701E+03</pdfrwt>
<totfact> 0.68143694E+04</totfact>
</mgrwt>
</event>
<event>
 7    0  0.4759581E-002  0.4442961E+03  0.7546771E-02  0.1029437E+00
         21   -1    0    0  502  501  0.00000000000E+00  0.00000000000E+00  0.20614188249E+02  0.20614188249E+02  0.00000000000E+00 0. -1.
         21   -1    0    0  501  502 -0.00000000000E+00 -0.00000000000E+00 -0.23939704419E+04  0.23939704419E+04  0.00000000000E+00 0. -1.
      99926    2    1    2    0    0  0.00000000000E+00  0.00000000000E+00 -0.23733562536E+04  0.24145846301E+04  0.44429610555E+03 0.  0.
      99925    2    3    3    0    0 -0.62972359496E+02  0.64288617868E+02 -0.12392607838E+04  0.12700678818E+04  0.26307145347E+03 0.  0.
         25    1    4    4    0    0 -0.17686537902E+02  0.70550470708E+02 -0.66660649903E+03  0.68213042388E+03  0.12509000000E+03 0.  0.
         25    1    4    4    0    0 -0.45285821594E+02 -0.62618528405E+01 -0.57265428480E+03  0.58793745793E+03  0.12509000000E+03 0.  0.
         25    1    3    3    0    0  0.62972359496E+02 -0.64288617868E+02 -0.11340954698E+04  0.11445167483E+04  0.12509000000E+03 0.  0.
<mgrwt>
<rscale>  2 0.44429611E+03</rscale>
<asrwt>0</asrwt>
<pdfrwt beam="1">  1       21 0.30314988E-02 0.44429611E+03</pdfrwt>
<pdfrwt beam="2">  1       21 0.35205442E+00 0.44429611E+03</pdfrwt>
<totfact> 0.87513771E+03</totfact>
</mgrwt>
</event>
<event>
 7    0  0.4759581E-002  0.4534778E+03  0.7546771E-02  0.1026690E+00
         21   -1    0    0  502  501  0.00000000000E+00  0.00000000000E+00  0.60097911804E+03  0.60097911804E+03  0.00000000000E+00 0.  1.
         21   -1    0    0  501  502 -0.00000000000E+00 -0.00000000000E+00 -0.85544615122E+02  0.85544615122E+02  0.00000000000E+00 0.  1.
      99926    2    1    2    0    0  0.00000000000E+00  0.00000000000E+00  0.51543450292E+03  0.68652373317E+03  0.45347779372E+03 0.  0.
      99925    2    3    3    0    0  0.59232748937E+02  0.73835214199E+02  0.23505017418E+03  0.36524031108E+03  0.26304323419E+03 0.  0.
         25    1    4    4    0    0  0.35672654110E+01  0.63359993037E+02  0.97097854331E+02  0.17059518022E+03  0.12509000000E+03 0.  0.
         25    1    4    4    0    0  0.55665483526E+02  0.10475221162E+02  0.13795231985E+03  0.19464513085E+03  0.12509000000E+03 0.  0.
         25    1    3    3    0    0 -0.59232748937E+02 -0.73835214199E+02  0.28038432874E+03  0.32128342209E+03  0.12509000000E+03 0.  0.
<mgrwt>
<rscale>  2 0.45347779E+03</rscale>
<asrwt>0</asrwt>
<pdfrwt beam="1">  1       21 0.88379280E-01 0.45347779E+03</pdfrwt>
<pdfrwt beam="2">  1       21 0.12580091E-01 0.45347779E+03</pdfrwt>
<totfact> 0.54288611E+04</totfact>
</mgrwt>
</event>
<event>
 7    0  0.4759581E-002  0.4542958E+03  0.7546771E-02  0.1026449E+00
         21   -1    0    0  502  501  0.00000000000E+00  0.00000000000E+00  0.46024776063E+03  0.46024776063E+03  0.00000000000E+00 0.  1.
         21   -1    0    0  501  502 -0.00000000000E+00 -0.00000000000E+00 -0.11210520385E+03  0.11210520385E+03  0.00000000000E+00 0.  1.
      99926    2    1    2    0    0  0.00000000000E+00  0.00000000000E+00  0.34814255679E+03  0.57235296448E+03  0.45429580243E+03 0.  0.
      99925    2    3    3    0    0 -0.10871446033E+03 -0.24996490946E+02  0.20074245533E+03  0.34915359967E+03  0.26299628200E+03 0.  0.
         25    1    4    4    0    0 -0.22359288065E+02 -0.32677448556E+02  0.71138106348E+02  0.14925110278E+03  0.12509000000E+03 0.  0.
         25    1    3    3    0    0  0.10871446033E+03  0.24996490946E+02  0.14740010145E+03  0.22319936481E+03  0.12509000000E+03 0.  0.
         25    1    4    4    0    0 -0.86355172264E+02  0.76809576098E+01  0.12960434898E+03  0.19990249689E+03  0.12509000000E+03 0.  0.
<mgrwt>
<rscale>  2 0.45429580E+03</rscale>
<asrwt>0</asrwt>
<pdfrwt beam="1">  1       21 0.67683493E-01 0.45429580E+03</pdfrwt>
<pdfrwt beam="2">  1       21 0.16486060E-01 0.45429580E+03</pdfrwt>
<totfact> 0.60750700E+04</totfact>
</mgrwt>
</event>
<event>
 7    0  0.4759581E-002  0.4339942E+03  0.7546771E-02  0.1032606E+00
         21   -1    0    0  502  501  0.00000000000E+00  0.00000000000E+00  0.39533424673E+03  0.39533424673E+03  0.00000000000E+00 0.  1.
         21   -1    0    0  501  502 -0.00000000000E+00 -0.00000000000E+00 -0.11910865834E+03  0.11910865834E+03  0.00000000000E+00 0.  1.
      99926    2    1    2    0    0  0.00000000000E+00 -0.14210854715E-13  0.27622558838E+03  0.51444290507E+03  0.43399415537E+03 0.  0.
      99925    2    3    3    0    0 -0.51165013018E+02 -0.69379107956E+02  0.13844937889E+03  0.30935484793E+03  0.26287044765E+03 0.  0.
         25    1    4    4    0    0 -0.27747628398E+01 -0.47136914279E+02  0.34140872932E+02  0.13799527275E+03  0.12509000000E+03 0.  0.
         25    1    3    3    0    0  0.51165013018E+02  0.69379107956E+02  0.13777620949E+03  0.20508805714E+03  0.12509000000E+03 0.  0.
         25    1    4    4    0    0 -0.48390250178E+02 -0.22242193677E+02  0.10430850596E+03  0.17135957518E+03  0.12509000000E+03 0.  0.
<mgrwt>
<rscale>  2 0.43399416E+03</rscale>
<asrwt>0</asrwt>
<pdfrwt beam="1">  1       21 0.58137389E-01 0.43399416E+03</pdfrwt>
<pdfrwt beam="2">  1       21 0.17515979E-01 0.43399416E+03</pdfrwt>
<totfact> 0.76182551E+04</totfact>
</mgrwt>
</event>
<event>
 7    0  0.4759581E-002  0.4547892E+03  0.7546771E-02  0.1026303E+00
         21   -1    0    0  502  501  0.00000000000E+00  0.00000000000E+00  0.22169094642E+03  0.22169094642E+03  0.00000000000E+00 0.  1.
         21   -1    0    0  501  502 -0.00000000000E+00 -0.00000000000E+00 -0.23324494845E+03  0.23324494845E+03  0.00000000000E+00 0.  1.
      99926    2    1    2    0    0  0.00000000000E+00  0.00000000000E+00 -0.11554002030E+02  0.45493589486E+03  0.45478915277E+03 0.  0.
      99925    2    3    3    0    0 -0.10462783919E+03 -0.41561140654E+02 -0.15953069766E+02  0.28658752676E+03  0.26306576538E+03 0.  0.
         25    1    4    4    0    0 -0.93998533275E+02 -0.25695576732E+02 -0.20976801227E+02  0.15994849549E+03  0.12509000000E+03 0.  0.
         25    1    3    3    0    0  0.10462783919E+03  0.41561140654E+02  0.43990677353E+01  0.16834836810E+03  0.12509000000E+03 0.  0.
         25    1    4    4    0    0 -0.10629305912E+02 -0.15865563921E+02  0.50237314608E+01  0.12663903127E+03  0.12509000000E+03 0.  0.
<mgrwt>
<rscale>  2 0.45478915E+03</rscale>
<asrwt>0</asrwt>
<pdfrwt beam="1">  1       21 0.32601610E-01 0.45478915E+03</pdfrwt>
<pdfrwt beam="2">  1       21 0.34300727E-01 0.45478915E+03</pdfrwt>
<totfact> 0.68665942E+04</totfact>
</mgrwt>
</event>
<event>
 7    0  0.4759581E-002  0.4573942E+03  0.7546771E-02  0.1025540E+00
         21   -1    0    0  502  501  0.00000000000E+00  0.00000000000E+00  0.15463375280E+04  0.15463375280E+04  0.00000000000E+00 0. -1.
         21   -1    0    0  501  502 -0.00000000000E+00 -0.00000000000E+00 -0.33823378007E+02  0.33823378007E+02  0.00000000000E+00 0. -1.
      99926    2    1    2    0    0  0.00000000000E+00  0.14210854715E-13  0.15125141500E+04  0.15801609060E+04  0.45739417896E+03 0.  0.
      99925    2    3    3    0    0  0.49375139923E+02 -0.75549693940E+02  0.11979515952E+04  0.12298142638E+04  0.26307686789E+03 0.  0.
         25    1    3    3    0    0 -0.49375139923E+02  0.75549693940E+02  0.31456255480E+03  0.35034664217E+03  0.12509000000E+03 0.  0.
         25    1    4    4    0    0 -0.47739798061E+00 -0.21726901466E+02  0.43265424833E+03  0.45089853942E+03  0.12509000000E+03 0.  0.
         25    1    4    4    0    0  0.49852537904E+02 -0.53822792474E+02  0.76529734686E+03  0.77891572442E+03  0.12509000000E+03 0.  0.
<mgrwt>
<rscale>  2 0.45739418E+03</rscale>
<asrwt>0</asrwt>
<pdfrwt beam="1">  1       21 0.22740253E+00 0.45739418E+03</pdfrwt>
<pdfrwt beam="2">  1       21 0.49740272E-02 0.45739418E+03</pdfrwt>
<totfact> 0.21478944E+04</totfact>
</mgrwt>
</event>
<event>
 7    0  0.4759581E-002  0.4553471E+03  0.7546771E-02  0.1026139E+00
         21   -1    0    0  502  501  0.00000000000E+00  0.00000000000E+00  0.90417766527E+02  0.90417766527E+02  0.00000000000E+00 0.  1.
         21   -1    0    0  501  502 -0.00000000000E+00 -0.00000000000E+00 -0.57328605415E+03  0.57328605415E+03  0.00000000000E+00 0.  1.
      99926    2    1    2    0    0  0.14210854715E-13  0.00000000000E+00 -0.48286828762E+03  0.66370382068E+03  0.45534709661E+03 0.  0.
      99925    2    3    3    0    0  0.10834759769E+03 -0.24980040558E+02 -0.27592159997E+03  0.39755039879E+03  0.26372407152E+03 0.  0.
         25    1    3    3    0    0 -0.10834759769E+03  0.24980040558E+02 -0.20694668765E+03  0.26615342188E+03  0.12509000000E+03 0.  0.
         25    1    4    4    0    0  0.36571718577E+02  0.16288465337E+02 -0.16550267180E+03  0.21128522706E+03  0.12509000000E+03 0.  0.
         25    1    4    4    0    0  0.71775879109E+02 -0.41268505895E+02 -0.11041892817E+03  0.18626517173E+03  0.12509000000E+03 0.  0.
<mgrwt>
<rscale>  2 0.45534710E+03</rscale>
<asrwt>0</asrwt>
<pdfrwt beam="1">  1       21 0.13296730E-01 0.45534710E+03</pdfrwt>
<pdfrwt beam="2">  1       21 0.84306773E-01 0.45534710E+03</pdfrwt>
<totfact> 0.54767979E+04</totfact>
</mgrwt>
</event>
<event>
 7    0  0.4759581E-002  0.4493998E+03  0.7546771E-02  0.1027901E+00
         21   -1    0    0  502  501  0.00000000000E+00  0.00000000000E+00  0.38014784766E+03  0.38014784766E+03  0.00000000000E+00 0.  1.
         21   -1    0    0  501  502 -0.00000000000E+00 -0.00000000000E+00 -0.13281686516E+03  0.13281686516E+03  0.00000000000E+00 0.  1.
      99926    2    1    2    0    0  0.00000000000E+00  0.00000000000E+00  0.24733098251E+03  0.51296471282E+03  0.44939980161E+03 0.  0.
      99925    2    3    3    0    0 -0.86199183022E+02 -0.64549056943E+02  0.14937766839E+03  0.32102920346E+03  0.26296232003E+03 0.  0.
         25    1    4    4    0    0 -0.12121931750E+02 -0.25379859055E+02  0.99923496940E+02  0.16255242790E+03  0.12509000000E+03 0.  0.
         25    1    3    3    0    0  0.86199183022E+02  0.64549056943E+02  0.97953314114E+02  0.19193550936E+03  0.12509000000E+03 0.  0.
         25    1    4    4    0    0 -0.74077251272E+02 -0.39169197889E+02  0.49454171454E+02  0.15847677556E+03  0.12509000000E+03 0.  0.
<mgrwt>
<rscale>  2 0.44939980E+03</rscale>
<asrwt>0</asrwt>
<pdfrwt beam="1">  1       21 0.55904095E-01 0.44939980E+03</pdfrwt>
<pdfrwt beam="2">  1       21 0.19531892E-01 0.44939980E+03</pdfrwt>
<totfact> 0.67310792E+04</totfact>
</mgrwt>
</event>
<event>
 7    0  0.4759581E-002  0.4402890E+03  0.7546771E-02  0.1030658E+00
         21   -1    0    0  502  501  0.00000000000E+00  0.00000000000E+00  0.17406895299E+04  0.17406895299E+04  0.00000000000E+00 0. -1.
         21   -1    0    0  501  502 -0.00000000000E+00 -0.00000000000E+00 -0.27841614153E+02  0.27841614153E+02  0.00000000000E+00 0. -1.
      99926    2    1    2    0    0  0.00000000000E+00  0.00000000000E+00  0.17128479158E+04  0.17685311441E+04  0.44028902440E+03 0.  0.
      99925    2    3    3    0    0  0.90722807861E+02 -0.37460673714E+02  0.10501319380E+04  0.10870079198E+04  0.26301178785E+03 0.  0.
         25    1    3    3    0    0 -0.90722807861E+02  0.37460673714E+02  0.66271597777E+03  0.68152322428E+03  0.12509000000E+03 0.  0.
         25    1    4    4    0    0  0.44722473902E+02 -0.29997292173E+02  0.37892525195E+03  0.40265592244E+03  0.12509000000E+03 0.  0.
         25    1    4    4    0    0  0.46000333960E+02 -0.74633815412E+01  0.67120668604E+03  0.68435199735E+03  0.12509000000E+03 0.  0.
<mgrwt>
<rscale>  2 0.44028902E+03</rscale>
<asrwt>0</asrwt>
<pdfrwt beam="1">  1       21 0.25598368E+00 0.44028902E+03</pdfrwt>
<pdfrwt beam="2">  1       21 0.40943562E-02 0.44028902E+03</pdfrwt>
<totfact> 0.20067529E+04</totfact>
</mgrwt>
</event>
<event>
 7    0  0.4759581E-002  0.4590668E+03  0.7546771E-02  0.1025052E+00
         21   -1    0    0  502  501  0.00000000000E+00  0.00000000000E+00  0.26659898945E+03  0.26659898945E+03  0.00000000000E+00 0.  1.
         21   -1    0    0  501  502 -0.00000000000E+00 -0.00000000000E+00 -0.19762109902E+03  0.19762109902E+03  0.00000000000E+00 0.  1.
      99926    2    1    2    0    0  0.00000000000E+00  0.14210854715E-13  0.68977890432E+02  0.46422008848E+03  0.45906681559E+03 0.  0.
      99925    2    3    3    0    0 -0.38061394834E+02  0.86766487052E+02  0.11284826035E+03  0.30128080375E+03  0.26278945905E+03 0.  0.
         25    1    4    4    0    0 -0.68610045272E+00  0.46203116247E+02  0.94282312251E+02  0.16331522032E+03  0.12509000000E+03 0.  0.
         25    1    3    3    0    0  0.38061394834E+02 -0.86766487052E+02 -0.43870369914E+02  0.16293928473E+03  0.12509000000E+03 0.  0.
         25    1    4    4    0    0 -0.37375294382E+02  0.40563370805E+02  0.18565948095E+02  0.13796558343E+03  0.12509000000E+03 0.  0.
<mgrwt>
<rscale>  2 0.45906682E+03</rscale>
<asrwt>0</asrwt>
<pdfrwt beam="1">  1       21 0.39205734E-01 0.45906682E+03</pdfrwt>
<pdfrwt beam="2">  1       21 0.29061926E-01 0.45906682E+03</pdfrwt>
<totfact> 0.65716812E+04</totfact>
</mgrwt>
</event>
<event>
 7    0  0.4759581E-002  0.4620657E+03  0.7546771E-02  0.1024184E+00
         21   -1    0    0  502  501  0.00000000000E+00  0.00000000000E+00  0.36215491819E+02  0.36215491819E+02  0.00000000000E+00 0. -1.
         21   -1    0    0  501  502 -0.00000000000E+00 -0.00000000000E+00 -0.14738491371E+04  0.14738491371E+04  0.00000000000E+00 0. -1.
      99926    2    1    2    0    0  0.00000000000E+00 -0.35527136788E-14 -0.14376336453E+04  0.15100646290E+04  0.46206567225E+03 0.  0.
      99925    2    3    3    0    0  0.78435261510E+02  0.31644960308E+02 -0.62331744860E+03  0.68186666343E+03  0.26318056769E+03 0.  0.
         25    1    3    3    0    0 -0.78435261510E+02 -0.31644960308E+02 -0.81431619672E+03  0.82819796552E+03  0.12509000000E+03 0.  0.
         25    1    4    4    0    0  0.25677169293E+02  0.36106101828E+02 -0.38914410172E+03  0.41114913063E+03  0.12509000000E+03 0.  0.
         25    1    4    4    0    0  0.52758092218E+02 -0.44611415205E+01 -0.23417334687E+03  0.27071753280E+03  0.12509000000E+03 0.  0.
<mgrwt>
<rscale>  2 0.46206567E+03</rscale>
<asrwt>0</asrwt>
<pdfrwt beam="1">  1       21 0.53258074E-02 0.46206567E+03</pdfrwt>
<pdfrwt beam="2">  1       21 0.21674253E+00 0.46206567E+03</pdfrwt>
<totfact> 0.22285211E+04</totfact>
</mgrwt>
</event>
<event>
 7    0  0.4759581E-002  0.4520145E+03  0.7546771E-02  0.1027123E+00
         21   -1    0    0  502  501  0.00000000000E+00  0.00000000000E+00  0.14620410308E+04  0.14620410308E+04  0.00000000000E+00 0. -1.
         21   -1    0    0  501  502 -0.00000000000E+00 -0.00000000000E+00 -0.34936966110E+02  0.34936966110E+02  0.00000000000E+00 0. -1.
      99926    2    1    2    0    0  0.00000000000E+00  0.00000000000E+00  0.14271040646E+04  0.14969779969E+04  0.45201450394E+03 0.  0.
      99925    2    3    3    0    0 -0.44948342217E+02  0.90882169717E+02  0.10451751435E+04  0.10824938221E+04  0.26291038779E+03 0.  0.
         25    1    4    4    0    0  0.81412257369E+01  0.71897723974E+02  0.52458511318E+03  0.54412554740E+03  0.12509000000E+03 0.  0.
         25    1    4    4    0    0 -0.53089567954E+02  0.18984445744E+02  0.52059003034E+03  0.53836827469E+03  0.12509000000E+03 0.  0.
         25    1    3    3    0    0  0.44948342217E+02 -0.90882169717E+02  0.38192892113E+03  0.41448417477E+03  0.12509000000E+03 0.  0.
<mgrwt>
<rscale>  2 0.45201450E+03</rscale>
<asrwt>0</asrwt>
<pdfrwt beam="1">  1       21 0.21500599E+00 0.45201450E+03</pdfrwt>
<pdfrwt beam="2">  1       21 0.51377901E-02 0.45201450E+03</pdfrwt>
<totfact> 0.24414566E+04</totfact>
</mgrwt>
</event>
<event>
 7    0  0.4759581E-002  0.4517168E+03  0.7546771E-02  0.1027211E+00
         21   -1    0    0  502  501  0.00000000000E+00  0.00000000000E+00  0.73241679848E+02  0.73241679848E+02  0.00000000000E+00 0. -1.
         21   -1    0    0  501  502 -0.00000000000E+00 -0.00000000000E+00 -0.69648892623E+03  0.69648892623E+03  0.00000000000E+00 0. -1.
      99926    2    1    2    0    0  0.71054273576E-14  0.14210854715E-13 -0.62324724638E+03  0.76973060608E+03  0.45171680931E+03 0.  0.
      99925    2    3    3    0    0 -0.43881682589E+02 -0.95359555466E+02 -0.44957974203E+03  0.53134655239E+03  0.26303643741E+03 0.  0.
         25    1    4    4    0    0 -0.30384030001E+02 -0.80569169178E+02 -0.19661854447E+03  0.24843699489E+03  0.12509000000E+03 0.  0.
         25    1    3    3    0    0  0.43881682589E+02  0.95359555466E+02 -0.17366750435E+03  0.23838405369E+03  0.12509000000E+03 0.  0.
         25    1    4    4    0    0 -0.13497652588E+02 -0.14790386288E+02 -0.25296119756E+03  0.28290955750E+03  0.12509000000E+03 0.  0.
<mgrwt>
<rscale>  2 0.45171681E+03</rscale>
<asrwt>0</asrwt>
<pdfrwt beam="1">  1       21 0.10770835E-01 0.45171681E+03</pdfrwt>
<pdfrwt beam="2">  1       21 0.10242485E+00 0.45171681E+03</pdfrwt>
<totfact> 0.50554120E+04</totfact>
</mgrwt>
</event>
<event>
 7    0  0.4759581E-002  0.4713321E+03  0.7546771E-02  0.1021545E+00
         21   -1    0    0  502  501  0.00000000000E+00  0.00000000000E+00  0.59602687879E+03  0.59602687879E+03  0.00000000000E+00 0.  1.
         21   -1    0    0  501  502 -0.00000000000E+00 -0.00000000000E+00 -0.93181188237E+02  0.93181188237E+02  0.00000000000E+00 0.  1.
      99926    2    1    2    0    0  0.00000000000E+00  0.00000000000E+00  0.50284569056E+03  0.68920806703E+03  0.47133212404E+03 0.  0.
      99925    2    3    3    0    0  0.37305106012E+02  0.63372750674E+02  0.46497267851E+03  0.53924257232E+03  0.26301175559E+03 0.  0.
         25    1    4    4    0    0  0.25944395761E+02  0.55080688308E+02  0.17832223315E+03  0.22617099909E+03  0.12509000000E+03 0.  0.
         25    1    4    4    0    0  0.11360710251E+02  0.82920623659E+01  0.28665044536E+03  0.31307157323E+03  0.12509000000E+03 0.  0.
         25    1    3    3    0    0 -0.37305106012E+02 -0.63372750674E+02  0.37873012047E+02  0.14996549471E+03  0.12509000000E+03 0.  0.
<mgrwt>
<rscale>  2 0.47133212E+03</rscale>
<asrwt>0</asrwt>
<pdfrwt beam="1">  1       21 0.87651010E-01 0.47133212E+03</pdfrwt>
<pdfrwt beam="2">  1       21 0.13703116E-01 0.47133212E+03</pdfrwt>
<totfact> 0.47130182E+04</totfact>
</mgrwt>
</event>
<event>
 7    0  0.4759581E-002  0.4545201E+03  0.7546771E-02  0.1026383E+00
         21   -1    0    0  502  501  0.00000000000E+00  0.00000000000E+00  0.49944354131E+03  0.49944354131E+03  0.00000000000E+00 0. -1.
         21   -1    0    0  501  502 -0.00000000000E+00 -0.00000000000E+00 -0.10340936439E+03  0.10340936439E+03  0.00000000000E+00 0. -1.
      99926    2    1    2    0    0  0.00000000000E+00  0.71054273576E-14  0.39603417692E+03  0.60285290569E+03  0.45452013884E+03 0.  0.
      99925    2    3    3    0    0  0.42346063222E+02 -0.20398550707E+02  0.11318907099E+03  0.29003002931E+03  0.26286186899E+03 0.  0.
         25    1    4    4    0    0  0.34030403329E+02 -0.47227894330E+02  0.47069010963E+02  0.14577908714E+03  0.12509000000E+03 0.  0.
         25    1    3    3    0    0 -0.42346063222E+02  0.20398550707E+02  0.28284510593E+03  0.31282287639E+03  0.12509000000E+03 0.  0.
         25    1    4    4    0    0  0.83156598928E+01  0.26829343623E+02  0.66120060028E+02  0.14425094217E+03  0.12509000000E+03 0.  0.
<mgrwt>
<rscale>  2 0.45452014E+03</rscale>
<asrwt>0</asrwt>
<pdfrwt beam="1">  1       21 0.73447578E-01 0.45452014E+03</pdfrwt>
<pdfrwt beam="2">  1       21 0.15207260E-01 0.45452014E+03</pdfrwt>
<totfact> 0.58725329E+04</totfact>
</mgrwt>
</event>
<event>
 7    0  0.4759581E-002  0.4660814E+03  0.7546771E-02  0.1023032E+00
         21   -1    0    0  502  501  0.00000000000E+00  0.00000000000E+00  0.17778605447E+03  0.17778605447E+03  0.00000000000E+00 0.  1.
         21   -1    0    0  501  502 -0.00000000000E+00 -0.00000000000E+00 -0.30546816290E+03  0.30546816290E+03  0.00000000000E+00 0.  1.
      99926    2    1    2    0    0  0.00000000000E+00  0.00000000000E+00 -0.12768210843E+03  0.48325421737E+03  0.46608144974E+03 0.  0.
      99925    2    3    3    0    0 -0.32945166082E+02  0.10017755417E+03 -0.14550179861E+03  0.31867604207E+03  0.26317811471E+03 0.  0.
         25    1    3    3    0    0  0.32945166082E+02 -0.10017755417E+03  0.17819690181E+02  0.16457817530E+03  0.12509000000E+03 0.  0.
         25    1    4    4    0    0  0.18532599355E+02  0.51303386187E+02 -0.46919229489E+02  0.14430667645E+03  0.12509000000E+03 0.  0.
         25    1    4    4    0    0 -0.51477765437E+02  0.48874167981E+02 -0.98582569125E+02  0.17436936562E+03  0.12509000000E+03 0.  0.
<mgrwt>
<rscale>  2 0.46608145E+03</rscale>
<asrwt>0</asrwt>
<pdfrwt beam="1">  1       21 0.26145008E-01 0.46608145E+03</pdfrwt>
<pdfrwt beam="2">  1       21 0.44921788E-01 0.46608145E+03</pdfrwt>
<totfact> 0.60926762E+04</totfact>
</mgrwt>
</event>
<event>
 7    0  0.4759581E-002  0.4557116E+03  0.7546771E-02  0.1026032E+00
         21   -1    0    0  502  501  0.00000000000E+00  0.00000000000E+00  0.15357131101E+03  0.15357131101E+03  0.00000000000E+00 0.  1.
         21   -1    0    0  501  502 -0.00000000000E+00 -0.00000000000E+00 -0.33807271797E+03  0.33807271797E+03  0.00000000000E+00 0.  1.
      99926    2    1    2    0    0  0.17763568394E-14  0.00000000000E+00 -0.18450140696E+03  0.49164402898E+03  0.45571162160E+03 0.  0.
      99925    2    3    3    0    0  0.11073310589E+02 -0.58130346799E+02 -0.22114714443E+03  0.34849315193E+03  0.26275399526E+03 0.  0.
         25    1    3    3    0    0 -0.11073310589E+02  0.58130346799E+02  0.36645737463E+02  0.14315087705E+03  0.12509000000E+03 0.  0.
         25    1    4    4    0    0 -0.11117216536E+02  0.80326070031E+01 -0.95853447498E+02  0.15818820050E+03  0.12509000000E+03 0.  0.
         25    1    4    4    0    0  0.22190527125E+02 -0.66162953802E+02 -0.12529369693E+03  0.19030495143E+03  0.12509000000E+03 0.  0.
<mgrwt>
<rscale>  2 0.45571162E+03</rscale>
<asrwt>0</asrwt>
<pdfrwt beam="1">  1       21 0.22584017E-01 0.45571162E+03</pdfrwt>
<pdfrwt beam="2">  1       21 0.49716576E-01 0.45571162E+03</pdfrwt>
<totfact> 0.65491005E+04</totfact>
</mgrwt>
</event>
<event>
 7    0  0.4759581E-002  0.4429066E+03  0.7546771E-02  0.1029859E+00
         21   -1    0    0  502  501  0.00000000000E+00  0.00000000000E+00  0.17350537343E+03  0.17350537343E+03  0.00000000000E+00 0.  1.
         21   -1    0    0  501  502 -0.00000000000E+00 -0.00000000000E+00 -0.28265150049E+03  0.28265150049E+03  0.00000000000E+00 0.  1.
      99926    2    1    2    0    0  0.00000000000E+00  0.00000000000E+00 -0.10914612706E+03  0.45615687392E+03  0.44290655512E+03 0.  0.
      99925    2    3    3    0    0 -0.38643041681E+02 -0.72007739971E+02 -0.79142485991E+01  0.27567474017E+03  0.26316445001E+03 0.  0.
         25    1    3    3    0    0  0.38643041681E+02  0.72007739971E+02 -0.10123187846E+03  0.18048213375E+03  0.12509000000E+03 0.  0.
         25    1    4    4    0    0 -0.57195828028E+01 -0.73905665538E+02  0.62464809858E+01  0.14553792513E+03  0.12509000000E+03 0.  0.
         25    1    4    4    0    0 -0.32923458878E+02  0.18979255663E+01 -0.14160729585E+02  0.13013681504E+03  0.12509000000E+03 0.  0.
<mgrwt>
<rscale>  2 0.44290656E+03</rscale>
<asrwt>0</asrwt>
<pdfrwt beam="1">  1       21 0.25515496E-01 0.44290656E+03</pdfrwt>
<pdfrwt beam="2">  1       21 0.41566397E-01 0.44290656E+03</pdfrwt>
<totfact> 0.75462527E+04</totfact>
</mgrwt>
</event>
<event>
 7    0  0.4759581E-002  0.4506584E+03  0.7546771E-02  0.1027526E+00
         21   -1    0    0  502  501  0.00000000000E+00  0.00000000000E+00  0.14152286551E+03  0.14152286551E+03  0.00000000000E+00 0. -1.
         21   -1    0    0  501  502 -0.00000000000E+00 -0.00000000000E+00 -0.35876353855E+03  0.35876353855E+03  0.00000000000E+00 0. -1.
      99926    2    1    2    0    0  0.00000000000E+00  0.00000000000E+00 -0.21724067304E+03  0.50028640405E+03  0.45065838066E+03 0.  0.
      99925    2    3    3    0    0  0.62911269803E+02 -0.89481097836E+02 -0.14545504175E+03  0.31927430585E+03  0.26232464326E+03 0.  0.
         25    1    4    4    0    0  0.22765800249E+02 -0.33849031013E+02 -0.11187814339E+03  0.17270861481E+03  0.12509000000E+03 0.  0.
         25    1    4    4    0    0  0.40145469554E+02 -0.55632066823E+02 -0.33576898361E+02  0.14656569103E+03  0.12509000000E+03 0.  0.
         25    1    3    3    0    0 -0.62911269803E+02  0.89481097836E+02 -0.71785631289E+02  0.18101209821E+03  0.12509000000E+03 0.  0.
<mgrwt>
<rscale>  2 0.45065838E+03</rscale>
<asrwt>0</asrwt>
<pdfrwt beam="1">  1       21 0.20812186E-01 0.45065838E+03</pdfrwt>
<pdfrwt beam="2">  1       21 0.52759343E-01 0.45065838E+03</pdfrwt>
<totfact> 0.67548580E+04</totfact>
</mgrwt>
</event>
<event>
 7    0  0.4759581E-002  0.4337519E+03  0.7546771E-02  0.1032681E+00
         21   -1    0    0  502  501  0.00000000000E+00  0.00000000000E+00  0.15633607714E+03  0.15633607714E+03  0.00000000000E+00 0.  1.
         21   -1    0    0  501  502 -0.00000000000E+00 -0.00000000000E+00 -0.30085936515E+03  0.30085936515E+03  0.00000000000E+00 0.  1.
      99926    2    1    2    0    0  0.00000000000E+00  0.00000000000E+00 -0.14452328801E+03  0.45719544229E+03  0.43375187800E+03 0.  0.
      99925    2    3    3    0    0 -0.76042935940E+02  0.35091775573E+02 -0.53355683829E+02  0.28120396246E+03  0.26308720738E+03 0.  0.
         25    1    4    4    0    0 -0.15782673908E+02  0.51552121059E+02 -0.29294316216E+02  0.13932831386E+03  0.12509000000E+03 0.  0.
         25    1    4    4    0    0 -0.60260262032E+02 -0.16460345486E+02 -0.24061367613E+02  0.14187564860E+03  0.12509000000E+03 0.  0.
         25    1    3    3    0    0  0.76042935940E+02 -0.35091775573E+02 -0.91167604177E+02  0.17599147982E+03  0.12509000000E+03 0.  0.
<mgrwt>
<rscale>  2 0.43375188E+03</rscale>
<asrwt>0</asrwt>
<pdfrwt beam="1">  1       21 0.22990600E-01 0.43375188E+03</pdfrwt>
<pdfrwt beam="2">  1       21 0.44244024E-01 0.43375188E+03</pdfrwt>
<totfact> 0.81259073E+04</totfact>
</mgrwt>
</event>
<event>
 7    0  0.4759581E-002  0.4539550E+03  0.7546771E-02  0.1026549E+00
         21   -1    0    0  502  501  0.00000000000E+00  0.00000000000E+00  0.50416702042E+03  0.50416702042E+03  0.00000000000E+00 0.  1.
         21   -1    0    0  501  502 -0.00000000000E+00 -0.00000000000E+00 -0.10218596182E+03  0.10218596182E+03  0.00000000000E+00 0.  1.
      99926    2    1    2    0    0  0.35527136788E-14 -0.14210854715E-13  0.40198105860E+03  0.60635298224E+03  0.45395502816E+03 0.  0.
      99925    2    3    3    0    0  0.29561840315E+02 -0.73845526973E+02  0.35881753229E+03  0.45195847987E+03  0.26303874580E+03 0.  0.
         25    1    4    4    0    0  0.18868682448E+02 -0.25255091943E+02  0.23967703794E+03  0.27218823902E+03  0.12509000000E+03 0.  0.
         25    1    4    4    0    0  0.10693157867E+02 -0.48590435030E+02  0.11914049435E+03  0.17977024085E+03  0.12509000000E+03 0.  0.
         25    1    3    3    0    0 -0.29561840315E+02  0.73845526973E+02  0.43163526313E+02  0.15439450236E+03  0.12509000000E+03 0.  0.
<mgrwt>
<rscale>  2 0.45395503E+03</rscale>
<asrwt>0</asrwt>
<pdfrwt beam="1">  1       21 0.74142208E-01 0.45395503E+03</pdfrwt>
<pdfrwt beam="2">  1       21 0.15027348E-01 0.45395503E+03</pdfrwt>
<totfact> 0.58772589E+04</totfact>
</mgrwt>
</event>
<event>
 7    0  0.4759581E-002  0.4543394E+03  0.7546771E-02  0.1026436E+00
         21   -1    0    0  502  501  0.00000000000E+00  0.00000000000E+00  0.38941084160E+02  0.38941084160E+02  0.00000000000E+00 0.  1.
         21   -1    0    0  501  502 -0.00000000000E+00 -0.00000000000E+00 -0.13252346553E+04  0.13252346553E+04  0.00000000000E+00 0.  1.
      99926    2    1    2    0    0  0.53290705182E-14  0.00000000000E+00 -0.12862935712E+04  0.13641757395E+04  0.45433940725E+03 0.  0.
      99925    2    3    3    0    0 -0.39720675486E+01 -0.13800656453E+02 -0.11454054929E+04  0.11752228508E+04  0.26265713485E+03 0.  0.
         25    1    4    4    0    0 -0.41823017106E+02 -0.66055806834E+01 -0.59133585497E+03  0.60590296247E+03  0.12509000000E+03 0.  0.
         25    1    4    4    0    0  0.37850949557E+02 -0.71950757700E+01 -0.55406963791E+03  0.56931988833E+03  0.12509000000E+03 0.  0.
         25    1    3    3    0    0  0.39720675486E+01  0.13800656453E+02 -0.14088807829E+03  0.18895288869E+03  0.12509000000E+03 0.  0.
<mgrwt>
<rscale>  2 0.45433941E+03</rscale>
<asrwt>0</asrwt>
<pdfrwt beam="1">  1       21 0.57266305E-02 0.45433941E+03</pdfrwt>
<pdfrwt beam="2">  1       21 0.19488743E+00 0.45433941E+03</pdfrwt>
<totfact> 0.27443143E+04</totfact>
</mgrwt>
</event>
<event>
 7    0  0.4759581E-002  0.4506731E+03  0.7546771E-02  0.1027521E+00
         21   -1    0    0  502  501  0.00000000000E+00  0.00000000000E+00  0.28193068878E+03  0.28193068878E+03  0.00000000000E+00 0.  1.
         21   -1    0    0  501  502 -0.00000000000E+00 -0.00000000000E+00 -0.18010302202E+03  0.18010302202E+03  0.00000000000E+00 0.  1.
      99926    2    1    2    0    0  0.00000000000E+00  0.00000000000E+00  0.10182766676E+03  0.46203371081E+03  0.45067313677E+03 0.  0.
      99925    2    3    3    0    0 -0.59236171880E+02  0.91715313179E+02  0.69686962517E+02  0.29291494869E+03  0.26272090075E+03 0.  0.
         25    1    3    3    0    0  0.59236171880E+02 -0.91715313179E+02  0.32140704243E+02  0.16911876212E+03  0.12509000000E+03 0.  0.
         25    1    4    4    0    0 -0.13801692298E+02  0.40944069328E+02 -0.42851638461E+01  0.13241138264E+03  0.12509000000E+03 0.  0.
         25    1    4    4    0    0 -0.45434479582E+02  0.50771243851E+02  0.73972126363E+02  0.16050356605E+03  0.12509000000E+03 0.  0.
<mgrwt>
<rscale>  2 0.45067314E+03</rscale>
<asrwt>0</asrwt>
<pdfrwt beam="1">  1       21 0.41460395E-01 0.45067314E+03</pdfrwt>
<pdfrwt beam="2">  1       21 0.26485738E-01 0.45067314E+03</pdfrwt>
<totfact> 0.70419180E+04</totfact>
</mgrwt>
</event>
<event>
 7    0  0.4759581E-002  0.4456299E+03  0.7546771E-02  0.1029033E+00
         21   -1    0    0  502  501  0.00000000000E+00  0.00000000000E+00  0.80916090718E+02  0.80916090718E+02  0.00000000000E+00 0.  1.
         21   -1    0    0  501  502 -0.00000000000E+00 -0.00000000000E+00 -0.61355541562E+03  0.61355541562E+03  0.00000000000E+00 0.  1.
      99926    2    1    2    0    0  0.00000000000E+00  0.00000000000E+00 -0.53263932491E+03  0.69447150634E+03  0.44562991673E+03 0.  0.
      99925    2    3    3    0    0  0.74431303607E+02  0.35828046192E+02 -0.23903804494E+03  0.36481579572E+03  0.26292149023E+03 0.  0.
         25    1    4    4    0    0  0.83457414143E+01  0.33666550204E+02 -0.14657311213E+03  0.19579140252E+03  0.12509000000E+03 0.  0.
         25    1    4    4    0    0  0.66085562192E+02  0.21614959886E+01 -0.92464932817E+02  0.16902439320E+03  0.12509000000E+03 0.  0.
         25    1    3    3    0    0 -0.74431303607E+02 -0.35828046192E+02 -0.29360127996E+03  0.32965571062E+03  0.12509000000E+03 0.  0.
<mgrwt>
<rscale>  2 0.44562992E+03</rscale>
<asrwt>0</asrwt>
<pdfrwt beam="1">  1       21 0.11899424E-01 0.44562992E+03</pdfrwt>
<pdfrwt beam="2">  1       21 0.90228743E-01 0.44562992E+03</pdfrwt>
<totfact> 0.57315701E+04</totfact>
</mgrwt>
</event>
<event>
 7    0  0.4759581E-002  0.4588672E+03  0.7546771E-02  0.1025110E+00
         21   -1    0    0  502  501  0.00000000000E+00  0.00000000000E+00  0.74374030568E+03  0.74374030568E+03  0.00000000000E+00 0. -1.
         21   -1    0    0  501  502 -0.00000000000E+00 -0.00000000000E+00 -0.70777096429E+02  0.70777096429E+02  0.00000000000E+00 0. -1.
      99926    2    1    2    0    0  0.00000000000E+00  0.14210854715E-13  0.67296320925E+03  0.81451740211E+03  0.45886721100E+03 0.  0.
      99925    2    3    3    0    0 -0.42090703291E+02 -0.98657984266E+02  0.50412604126E+03  0.57859681683E+03  0.26291859160E+03 0.  0.
         25    1    3    3    0    0  0.42090703291E+02  0.98657984266E+02  0.16883716799E+03  0.23592058528E+03  0.12509000000E+03 0.  0.
         25    1    4    4    0    0 -0.50703671731E+02 -0.74558369365E+02  0.24066275380E+03  0.28582491483E+03  0.12509000000E+03 0.  0.
         25    1    4    4    0    0  0.86129684394E+01 -0.24099614901E+02  0.26346328746E+03  0.29277190201E+03  0.12509000000E+03 0.  0.
<mgrwt>
<rscale>  2 0.45886721E+03</rscale>
<asrwt>0</asrwt>
<pdfrwt beam="1">  1       21 0.10937357E+00 0.45886721E+03</pdfrwt>
<pdfrwt beam="2">  1       21 0.10408397E-01 0.45886721E+03</pdfrwt>
<totfact> 0.45668911E+04</totfact>
</mgrwt>
</event>
<event>
 7    0  0.4759581E-002  0.4551825E+03  0.7546771E-02  0.1026188E+00
         21   -1    0    0  502  501  0.00000000000E+00  0.00000000000E+00  0.30457957150E+03  0.30457957150E+03  0.00000000000E+00 0.  1.
         21   -1    0    0  501  502 -0.00000000000E+00 -0.00000000000E+00 -0.17006321822E+03  0.17006321822E+03  0.00000000000E+00 0.  1.
      99926    2    1    2    0    0 -0.14210854715E-13  0.00000000000E+00  0.13451635328E+03  0.47464278971E+03  0.45518252221E+03 0.  0.
      99925    2    3    3    0    0  0.89002427327E+02  0.39544395525E+02  0.14510660792E+03  0.31575650056E+03  0.26298488301E+03 0.  0.
         25    1    3    3    0    0 -0.89002427327E+02 -0.39544395525E+02 -0.10590254642E+02  0.15888628915E+03  0.12509000000E+03 0.  0.
         25    1    4    4    0    0  0.60083683097E+01  0.34926955026E+02  0.60871573127E+02  0.14355782526E+03  0.12509000000E+03 0.  0.
         25    1    4    4    0    0  0.82994059018E+02  0.46174404998E+01  0.84235034794E+02  0.17219867530E+03  0.12509000000E+03 0.  0.
<mgrwt>
<rscale>  2 0.45518252E+03</rscale>
<asrwt>0</asrwt>
<pdfrwt beam="1">  1       21 0.44791114E-01 0.45518252E+03</pdfrwt>
<pdfrwt beam="2">  1       21 0.25009297E-01 0.45518252E+03</pdfrwt>
<totfact> 0.66995102E+04</totfact>
</mgrwt>
</event>
<event>
 7    0  0.4759581E-002  0.4378806E+03  0.7546771E-02  0.1031399E+00
         21   -1    0    0  502  501  0.00000000000E+00  0.00000000000E+00  0.14812403840E+04  0.14812403840E+04  0.00000000000E+00 0. -1.
         21   -1    0    0  501  502 -0.00000000000E+00 -0.00000000000E+00 -0.32361290810E+02  0.32361290810E+02  0.00000000000E+00 0. -1.
      99926    2    1    2    0    0 -0.17763568394E-14  0.71054273576E-14  0.14488790931E+04  0.15136016748E+04  0.43788058109E+03 0.  0.
      99925    2    3    3    0    0  0.80129128828E+01  0.51655078906E+02  0.12058169410E+04  0.12352867958E+04  0.26307131870E+03 0.  0.
         25    1    3    3    0    0 -0.80129128828E+01 -0.51655078906E+02  0.24306215217E+03  0.27831487899E+03  0.12509000000E+03 0.  0.
         25    1    4    4    0    0 -0.41476754647E+01 -0.13217360539E+02  0.51684677731E+03  0.53194924677E+03  0.12509000000E+03 0.  0.
         25    1    4    4    0    0  0.12160588347E+02  0.64872439445E+02  0.68897016367E+03  0.70333754900E+03  0.12509000000E+03 0.  0.
<mgrwt>
<rscale>  2 0.43788058E+03</rscale>
<asrwt>0</asrwt>
<pdfrwt beam="1">  1       21 0.21782942E+00 0.43788058E+03</pdfrwt>
<pdfrwt beam="2">  1       21 0.47590143E-02 0.43788058E+03</pdfrwt>
<totfact> 0.26843694E+04</totfact>
</mgrwt>
</event>
<event>
 7    0  0.4759581E-002  0.4523747E+03  0.7546771E-02  0.1027016E+00
         21   -1    0    0  502  501  0.00000000000E+00  0.00000000000E+00  0.21869180925E+03  0.21869180925E+03  0.00000000000E+00 0. -1.
         21   -1    0    0  501  502 -0.00000000000E+00 -0.00000000000E+00 -0.23393984000E+03  0.23393984000E+03  0.00000000000E+00 0. -1.
      99926    2    1    2    0    0  0.00000000000E+00 -0.35527136788E-14 -0.15248030745E+02  0.45263164925E+03  0.45237474228E+03 0.  0.
      99925    2    3    3    0    0  0.82004978792E+02 -0.21369841631E+02  0.61779602197E+02  0.28303727724E+03  0.26289141177E+03 0.  0.
         25    1    4    4    0    0  0.11650927971E+02 -0.33875629294E+02  0.46458911284E+02  0.13816381914E+03  0.12509000000E+03 0.  0.
         25    1    4    4    0    0  0.70354050821E+02  0.12505787663E+02  0.15320690913E+02  0.14487345810E+03  0.12509000000E+03 0.  0.
         25    1    3    3    0    0 -0.82004978792E+02  0.21369841631E+02 -0.77027632942E+02  0.16959437200E+03  0.12509000000E+03 0.  0.
<mgrwt>
<rscale>  2 0.45237474E+03</rscale>
<asrwt>0</asrwt>
<pdfrwt beam="1">  1       21 0.32160561E-01 0.45237474E+03</pdfrwt>
<pdfrwt beam="2">  1       21 0.34402917E-01 0.45237474E+03</pdfrwt>
<totfact> 0.70178180E+04</totfact>
</mgrwt>
</event>
<event>
 7    0  0.4759581E-002  0.4540585E+03  0.7546771E-02  0.1026519E+00
         21   -1    0    0  502  501  0.00000000000E+00  0.00000000000E+00  0.47525216047E+03  0.47525216047E+03  0.00000000000E+00 0.  1.
         21   -1    0    0  501  502 -0.00000000000E+00 -0.00000000000E+00 -0.10845248631E+03  0.10845248631E+03  0.00000000000E+00 0.  1.
      99926    2    1    2    0    0  0.00000000000E+00 -0.35527136788E-14  0.36679967417E+03  0.58370464678E+03  0.45405849150E+03 0.  0.
      99925    2    3    3    0    0  0.94313368329E+02 -0.27689094486E+02  0.30020859009E+03  0.41124138119E+03  0.26331080236E+03 0.  0.
         25    1    4    4    0    0  0.44535342743E+02 -0.54490224912E+02  0.14460713252E+03  0.20374325078E+03  0.12509000000E+03 0.  0.
         25    1    3    3    0    0 -0.94313368329E+02  0.27689094486E+02  0.66591084075E+02  0.17246326559E+03  0.12509000000E+03 0.  0.
         25    1    4    4    0    0  0.49778025587E+02  0.26801130426E+02  0.15560145758E+03  0.20749813041E+03  0.12509000000E+03 0.  0.
<mgrwt>
<rscale>  2 0.45405849E+03</rscale>
<asrwt>0</asrwt>
<pdfrwt beam="1">  1       21 0.69890023E-01 0.45405849E+03</pdfrwt>
<pdfrwt beam="2">  1       21 0.15948895E-01 0.45405849E+03</pdfrwt>
<totfact> 0.60139005E+04</totfact>
</mgrwt>
</event>
<event>
 7    0  0.4759581E-002  0.4535313E+03  0.7546771E-02  0.1026674E+00
         21   -1    0    0  502  501  0.00000000000E+00  0.00000000000E+00  0.99157174351E+02  0.99157174351E+02  0.00000000000E+00 0.  1.
         21   -1    0    0  501  502 -0.00000000000E+00 -0.00000000000E+00 -0.51859746474E+03  0.51859746474E+03  0.00000000000E+00 0.  1.
      99926    2    1    2    0    0 -0.17763568394E-14  0.00000000000E+00 -0.41944029039E+03  0.61775463909E+03  0.45353129651E+03 0.  0.
      99925    2    3    3    0    0 -0.11453495991E+02 -0.35089926119E+02 -0.12055053362E+03  0.29164870494E+03  0.26299059005E+03 0.  0.
         25    1    4    4    0    0 -0.17168905814E+02 -0.47206421577E+02 -0.90325649834E+02  0.16226351618E+03  0.12509000000E+03 0.  0.
         25    1    3    3    0    0  0.11453495991E+02  0.35089926119E+02 -0.29888975677E+03  0.32610593415E+03  0.12509000000E+03 0.  0.
         25    1    4    4    0    0  0.57154098228E+01  0.12116495458E+02 -0.30224883788E+02  0.12938518876E+03  0.12509000000E+03 0.  0.
<mgrwt>
<rscale>  2 0.45353130E+03</rscale>
<asrwt>0</asrwt>
<pdfrwt beam="1">  1       21 0.14581937E-01 0.45353130E+03</pdfrwt>
<pdfrwt beam="2">  1       21 0.76264334E-01 0.45353130E+03</pdfrwt>
<totfact> 0.58271438E+04</totfact>
</mgrwt>
</event>
<event>
 7    0  0.4759581E-002  0.4531613E+03  0.7546771E-02  0.1026783E+00
         21   -1    0    0  502  501  0.00000000000E+00  0.00000000000E+00  0.85734565028E+03  0.85734565028E+03  0.00000000000E+00 0. -1.
         21   -1    0    0  501  502 -0.00000000000E+00 -0.00000000000E+00 -0.59881083216E+02  0.59881083216E+02  0.00000000000E+00 0. -1.
      99926    2    1    2    0    0  0.00000000000E+00  0.00000000000E+00  0.79746456707E+03  0.91722673350E+03  0.45316127915E+03 0.  0.
      99925    2    3    3    0    0  0.90690292263E+02 -0.64921095125E+02  0.49896967748E+03  0.57490205587E+03  0.26287289153E+03 0.  0.
         25    1    3    3    0    0 -0.90690292263E+02  0.64921095125E+02  0.29849488959E+03  0.34232467763E+03  0.12509000000E+03 0.  0.
         25    1    4    4    0    0  0.13899897918E+02 -0.25311551098E+02  0.17506125327E+03  0.21708945686E+03  0.12509000000E+03 0.  0.
         25    1    4    4    0    0  0.76790394345E+02 -0.39609544027E+02  0.32390842420E+03  0.35781259901E+03  0.12509000000E+03 0.  0.
<mgrwt>
<rscale>  2 0.45316128E+03</rscale>
<asrwt>0</asrwt>
<pdfrwt beam="1">  1       21 0.12608023E+00 0.45316128E+03</pdfrwt>
<pdfrwt beam="2">  1       21 0.88060422E-02 0.45316128E+03</pdfrwt>
<totfact> 0.43114076E+04</totfact>
</mgrwt>
</event>
<event>
 6    0  0.4759581E-002  0.4142105E+03  0.7546771E-02  0.1038967E+00
         21   -1    0    0  502  501  0.00000000000E+00  0.00000000000E+00  0.24369606830E+02  0.24369606830E+02  0.00000000000E+00 0. -1.
         21   -1    0    0  501  502 -0.00000000000E+00 -0.00000000000E+00 -0.17600849630E+04  0.17600849630E+04  0.00000000000E+00 0. -1.
      99926    2    1    2    0    0  0.17763568394E-14  0.00000000000E+00 -0.17357153562E+04  0.17844545698E+04  0.41421047082E+03 0.  0.
         25    1    3    3    0    0  0.28399532052E+02 -0.56674784236E+02 -0.49521234136E+03  0.51468566691E+03  0.12509000000E+03 0.  0.
         25    1    3    3    0    0 -0.22534804554E+02  0.17785447460E+02 -0.43059882361E+03  0.44931836659E+03  0.12509000000E+03 0.  0.
         25    1    3    3    0    0 -0.58647274986E+01  0.38889336776E+02 -0.80990419119E+03  0.82045053633E+03  0.12509000000E+03 0.  0.
<mgrwt>
<rscale>  2 0.41421047E+03</rscale>
<asrwt>0</asrwt>
<pdfrwt beam="1">  1       21 0.35837654E-02 0.41421047E+03</pdfrwt>
<pdfrwt beam="2">  1       21 0.25883605E+00 0.41421047E+03</pdfrwt>
<totfact> 0.24425460E+04</totfact>
</mgrwt>
</event>
<event>
 7    0  0.4759581E-002  0.4542032E+03  0.7546771E-02  0.1026476E+00
         21   -1    0    0  502  501  0.00000000000E+00  0.00000000000E+00  0.19616499337E+03  0.19616499337E+03  0.00000000000E+00 0. -1.
         21   -1    0    0  501  502 -0.00000000000E+00 -0.00000000000E+00 -0.26291716695E+03  0.26291716695E+03  0.00000000000E+00 0. -1.
      99926    2    1    2    0    0 -0.71054273576E-14  0.00000000000E+00 -0.66752173587E+02  0.45908216032E+03  0.45420323342E+03 0.  0.
      99925    2    3    3    0    0  0.44907586002E+02  0.10302166747E+03 -0.37997081314E+02  0.28848169525E+03  0.26295960728E+03 0.  0.
         25    1    4    4    0    0  0.51779574049E+02  0.42422696044E+02 -0.45838890282E+02  0.14909567865E+03  0.12509000000E+03 0.  0.
         25    1    3    3    0    0 -0.44907586002E+02 -0.10302166747E+03 -0.28755092273E+02  0.17060046507E+03  0.12509000000E+03 0.  0.
         25    1    4    4    0    0 -0.68719880471E+01  0.60598971431E+02  0.78418089684E+01  0.13938601661E+03  0.12509000000E+03 0.  0.
<mgrwt>
<rscale>  2 0.45420323E+03</rscale>
<asrwt>0</asrwt>
<pdfrwt beam="1">  1       21 0.28847794E-01 0.45420323E+03</pdfrwt>
<pdfrwt beam="2">  1       21 0.38664289E-01 0.45420323E+03</pdfrwt>
<totfact> 0.68682887E+04</totfact>
</mgrwt>
</event>
<event>
 7    0  0.4759581E-002  0.4530147E+03  0.7546771E-02  0.1026827E+00
         21   -1    0    0  502  501  0.00000000000E+00  0.00000000000E+00  0.10370744923E+03  0.10370744923E+03  0.00000000000E+00 0.  1.
         21   -1    0    0  501  502 -0.00000000000E+00 -0.00000000000E+00 -0.49471450039E+03  0.49471450039E+03  0.00000000000E+00 0.  1.
      99926    2    1    2    0    0  0.00000000000E+00  0.00000000000E+00 -0.39100705116E+03  0.59842194962E+03  0.45301469704E+03 0.  0.
      99925    2    3    3    0    0  0.91088488934E+02  0.11387976699E+01 -0.16192157766E+03  0.32196929193E+03  0.26295858602E+03 0.  0.
         25    1    4    4    0    0  0.49666903110E+02 -0.14462263904E+01 -0.35174124237E+02  0.13911728847E+03  0.12509000000E+03 0.  0.
         25    1    4    4    0    0  0.41421585824E+02  0.25850240602E+01 -0.12674745342E+03  0.18285200346E+03  0.12509000000E+03 0.  0.
         25    1    3    3    0    0 -0.91088488934E+02 -0.11387976699E+01 -0.22908547350E+03  0.27645265769E+03  0.12509000000E+03 0.  0.
<mgrwt>
<rscale>  2 0.45301470E+03</rscale>
<asrwt>0</asrwt>
<pdfrwt beam="1">  1       21 0.15251095E-01 0.45301470E+03</pdfrwt>
<pdfrwt beam="2">  1       21 0.72752133E-01 0.45301470E+03</pdfrwt>
<totfact> 0.59706623E+04</totfact>
</mgrwt>
</event>
<event>
 7    0  0.4759581E-002  0.4556535E+03  0.7546771E-02  0.1026049E+00
         21   -1    0    0  502  501  0.00000000000E+00  0.00000000000E+00  0.27990849513E+03  0.27990849513E+03  0.00000000000E+00 0.  1.
         21   -1    0    0  501  502 -0.00000000000E+00 -0.00000000000E+00 -0.18543569954E+03  0.18543569954E+03  0.00000000000E+00 0.  1.
      99926    2    1    2    0    0  0.00000000000E+00  0.00000000000E+00  0.94472795588E+02  0.46534419467E+03  0.45565349818E+03 0.  0.
      99925    2    3    3    0    0 -0.73244157611E+02  0.26150123850E+02  0.14425517426E+03  0.30986323465E+03  0.26297743874E+03 0.  0.
         25    1    4    4    0    0 -0.28899680260E+02  0.80553705078E+01  0.26114289675E+02  0.13126136042E+03  0.12509000000E+03 0.  0.
         25    1    4    4    0    0 -0.44344477351E+02  0.18094753342E+02  0.11814088458E+03  0.17860187423E+03  0.12509000000E+03 0.  0.
         25    1    3    3    0    0  0.73244157611E+02 -0.26150123850E+02 -0.49782378669E+02  0.15548096002E+03  0.12509000000E+03 0.  0.
<mgrwt>
<rscale>  2 0.45565350E+03</rscale>
<asrwt>0</asrwt>
<pdfrwt beam="1">  1       21 0.41163014E-01 0.45565350E+03</pdfrwt>
<pdfrwt beam="2">  1       21 0.27269956E-01 0.45565350E+03</pdfrwt>
<totfact> 0.67433762E+04</totfact>
</mgrwt>
</event>
<event>
 7    0  0.4759581E-002  0.4729167E+03  0.7546771E-02  0.1021100E+00
         21   -1    0    0  502  501  0.00000000000E+00  0.00000000000E+00  0.40011188045E+03  0.40011188045E+03  0.00000000000E+00 0. -1.
         21   -1    0    0  501  502 -0.00000000000E+00 -0.00000000000E+00 -0.13974232022E+03  0.13974232022E+03  0.00000000000E+00 0. -1.
      99926    2    1    2    0    0  0.00000000000E+00  0.28421709430E-13  0.26036956023E+03  0.53985420067E+03  0.47291674752E+03 0.  0.
      99925    2    3    3    0    0 -0.22832693892E+01  0.12887115038E+03  0.17313564684E+03  0.34017883797E+03  0.26293098501E+03 0.  0.
         25    1    4    4    0    0 -0.69339319264E+00  0.41788899002E+02  0.12128314892E+03  0.17917562107E+03  0.12509000000E+03 0.  0.
         25    1    4    4    0    0 -0.15898761966E+01  0.87082251382E+02  0.51852497915E+02  0.16100321690E+03  0.12509000000E+03 0.  0.
         25    1    3    3    0    0  0.22832693892E+01 -0.12887115038E+03  0.87233913393E+02  0.19967536269E+03  0.12509000000E+03 0.  0.
<mgrwt>
<rscale>  2 0.47291675E+03</rscale>
<asrwt>0</asrwt>
<pdfrwt beam="1">  1       21 0.58839982E-01 0.47291675E+03</pdfrwt>
<pdfrwt beam="2">  1       21 0.20550341E-01 0.47291675E+03</pdfrwt>
<totfact> 0.54398742E+04</totfact>
</mgrwt>
</event>
<event>
 7    0  0.4759581E-002  0.4546496E+03  0.7546771E-02  0.1026345E+00
         21   -1    0    0  502  501  0.00000000000E+00  0.00000000000E+00  0.73451707514E+03  0.73451707514E+03  0.00000000000E+00 0. -1.
         21   -1    0    0  501  502 -0.00000000000E+00 -0.00000000000E+00 -0.70354468917E+02  0.70354468917E+02  0.00000000000E+00 0. -1.
      99926    2    1    2    0    0  0.35527136788E-14  0.00000000000E+00  0.66416260623E+03  0.80487154406E+03  0.45464957377E+03 0.  0.
      99925    2    3    3    0    0  0.16607967366E+02  0.31408310732E+02  0.22816320288E+03  0.34989319910E+03  0.26287734225E+03 0.  0.
         25    1    3    3    0    0 -0.16607967366E+02 -0.31408310732E+02  0.43599940335E+03  0.45497834496E+03  0.12509000000E+03 0.  0.
         25    1    4    4    0    0  0.30418120079E+02  0.38595798545E+02  0.15077190087E+03  0.20197666174E+03  0.12509000000E+03 0.  0.
         25    1    4    4    0    0 -0.13810152713E+02 -0.71874878129E+01  0.77391302009E+02  0.14791653736E+03  0.12509000000E+03 0.  0.
<mgrwt>
<rscale>  2 0.45464957E+03</rscale>
<asrwt>0</asrwt>
<pdfrwt beam="1">  1       21 0.10801721E+00 0.45464957E+03</pdfrwt>
<pdfrwt beam="2">  1       21 0.10346246E-01 0.45464957E+03</pdfrwt>
<totfact> 0.47661011E+04</totfact>
</mgrwt>
</event>
<event>
 7    0  0.4759581E-002  0.4581803E+03  0.7546771E-02  0.1025310E+00
         21   -1    0    0  502  501  0.00000000000E+00  0.00000000000E+00  0.19053693740E+03  0.19053693740E+03  0.00000000000E+00 0.  1.
         21   -1    0    0  501  502 -0.00000000000E+00 -0.00000000000E+00 -0.27544426616E+03  0.27544426616E+03  0.00000000000E+00 0.  1.
      99926    2    1    2    0    0  0.00000000000E+00  0.00000000000E+00 -0.84907328761E+02  0.46598120355E+03  0.45818034396E+03 0.  0.
      99925    2    3    3    0    0 -0.77588279715E+02  0.86458392149E+02 -0.50284250522E+02  0.29179377471E+03  0.26290702993E+03 0.  0.
         25    1    4    4    0    0 -0.14567361500E+02  0.19653045073E+02  0.36289917285E+01  0.12751128531E+03  0.12509000000E+03 0.  0.
         25    1    4    4    0    0 -0.63020918215E+02  0.66805347076E+02 -0.53913242250E+02  0.16428248939E+03  0.12509000000E+03 0.  0.
         25    1    3    3    0    0  0.77588279715E+02 -0.86458392149E+02 -0.34623078239E+02  0.17418742885E+03  0.12509000000E+03 0.  0.
<mgrwt>
<rscale>  2 0.45818034E+03</rscale>
<asrwt>0</asrwt>
<pdfrwt beam="1">  1       21 0.28020138E-01 0.45818034E+03</pdfrwt>
<pdfrwt beam="2">  1       21 0.40506509E-01 0.45818034E+03</pdfrwt>
<totfact> 0.66051635E+04</totfact>
</mgrwt>
</event>
<event>
 7    0  0.4759581E-002  0.4579160E+03  0.7546771E-02  0.1025387E+00
         21   -1    0    0  502  501  0.00000000000E+00  0.00000000000E+00  0.90998172437E+02  0.90998172437E+02  0.00000000000E+00 0. -1.
         21   -1    0    0  501  502 -0.00000000000E+00 -0.00000000000E+00 -0.57607493507E+03  0.57607493507E+03  0.00000000000E+00 0. -1.
      99926    2    1    2    0    0  0.00000000000E+00  0.00000000000E+00 -0.48507676264E+03  0.66707310751E+03  0.45791600225E+03 0.  0.
      99925    2    3    3    0    0  0.34349747721E+02 -0.97434199899E+02 -0.38096706952E+03  0.47430468484E+03  0.26297470891E+03 0.  0.
         25    1    4    4    0    0  0.24634056042E+02 -0.52132402753E+02 -0.25998939747E+03  0.29422205735E+03  0.12509000000E+03 0.  0.
         25    1    3    3    0    0 -0.34349747721E+02  0.97434199899E+02 -0.10410969312E+03  0.19276842267E+03  0.12509000000E+03 0.  0.
         25    1    4    4    0    0  0.97156916791E+01 -0.45301797146E+02 -0.12097767204E+03  0.18008262749E+03  0.12509000000E+03 0.  0.
<mgrwt>
<rscale>  2 0.45791600E+03</rscale>
<asrwt>0</asrwt>
<pdfrwt beam="1">  1       21 0.13382084E-01 0.45791600E+03</pdfrwt>
<pdfrwt beam="2">  1       21 0.84716904E-01 0.45791600E+03</pdfrwt>
<totfact> 0.53487012E+04</totfact>
</mgrwt>
</event>
<event>
 7    0  0.4759581E-002  0.4595801E+03  0.7546771E-02  0.1024903E+00
         21   -1    0    0  502  501  0.00000000000E+00  0.00000000000E+00  0.28535058333E+03  0.28535058333E+03  0.00000000000E+00 0. -1.
         21   -1    0    0  501  502 -0.00000000000E+00 -0.00000000000E+00 -0.18504767227E+03  0.18504767227E+03  0.00000000000E+00 0. -1.
      99926    2    1    2    0    0 -0.35527136788E-14  0.14210854715E-13  0.10030291106E+03  0.47039825560E+03  0.45958007452E+03 0.  0.
      99925    2    3    3    0    0 -0.21863382113E+01 -0.11742743504E+03  0.61371192136E+02  0.29445175971E+03  0.26294758603E+03 0.  0.
         25    1    4    4    0    0  0.31487491884E+02 -0.49451017759E+02  0.52844545042E+02  0.14790848300E+03  0.12509000000E+03 0.  0.
         25    1    3    3    0    0  0.21863382113E+01  0.11742743504E+03  0.38931718927E+02  0.17594649588E+03  0.12509000000E+03 0.  0.
         25    1    4    4    0    0 -0.33673830095E+02 -0.67976417280E+02  0.85266470945E+01  0.14654327671E+03  0.12509000000E+03 0.  0.
<mgrwt>
<rscale>  2 0.45958007E+03</rscale>
<asrwt>0</asrwt>
<pdfrwt beam="1">  1       21 0.41963321E-01 0.45958007E+03</pdfrwt>
<pdfrwt beam="2">  1       21 0.27212893E-01 0.45958007E+03</pdfrwt>
<totfact> 0.65012181E+04</totfact>
</mgrwt>
</event>
<event>
 7    0  0.4759581E-002  0.4492833E+03  0.7546771E-02  0.1027936E+00
         21   -1    0    0  502  501  0.00000000000E+00  0.00000000000E+00  0.65922918383E+02  0.65922918383E+02  0.00000000000E+00 0.  1.
         21   -1    0    0  501  502 -0.00000000000E+00 -0.00000000000E+00 -0.76549808796E+03  0.76549808796E+03  0.00000000000E+00 0.  1.
      99926    2    1    2    0    0  0.00000000000E+00  0.00000000000E+00 -0.69957516958E+03  0.83142100634E+03  0.44928328691E+03 0.  0.
      99925    2    3    3    0    0 -0.22800553307E+01 -0.45226365520E+02 -0.26237533623E+03  0.37442885633E+03  0.26325943213E+03 0.  0.
         25    1    3    3    0    0  0.22800553307E+01  0.45226365520E+02 -0.43719983335E+03  0.45699215001E+03  0.12509000000E+03 0.  0.
         25    1    4    4    0    0  0.28735568372E+02  0.36303169822E+01 -0.14190697972E+03  0.19137400838E+03  0.12509000000E+03 0.  0.
         25    1    4    4    0    0 -0.31015623703E+02 -0.48856682503E+02 -0.12046835651E+03  0.18305484795E+03  0.12509000000E+03 0.  0.
<mgrwt>
<rscale>  2 0.44928329E+03</rscale>
<asrwt>0</asrwt>
<pdfrwt beam="1">  1       21 0.96945474E-02 0.44928329E+03</pdfrwt>
<pdfrwt beam="2">  1       21 0.11257324E+00 0.44928329E+03</pdfrwt>
<totfact> 0.48417679E+04</totfact>
</mgrwt>
</event>
<event>
 7    0  0.4759581E-002  0.4573275E+03  0.7546771E-02  0.1025559E+00
         21   -1    0    0  502  501  0.00000000000E+00  0.00000000000E+00  0.26992193325E+03  0.26992193325E+03  0.00000000000E+00 0.  1.
         21   -1    0    0  501  502 -0.00000000000E+00 -0.00000000000E+00 -0.19371200878E+03  0.19371200878E+03  0.00000000000E+00 0.  1.
      99926    2    1    2    0    0  0.00000000000E+00  0.69388939039E-17  0.76209924470E+02  0.46363394203E+03  0.45732754084E+03 0.  0.
      99925    2    3    3    0    0  0.10375951189E+03  0.59949585782E-01  0.98933218829E+02  0.29953063277E+03  0.26299197380E+03 0.  0.
         25    1    4    4    0    0  0.10626360462E+02  0.31064891875E+01  0.57636163674E+02  0.13817382268E+03  0.12509000000E+03 0.  0.
         25    1    3    3    0    0 -0.10375951189E+03 -0.59949585782E-01 -0.22723294359E+02  0.16410330925E+03  0.12509000000E+03 0.  0.
         25    1    4    4    0    0  0.93133151429E+02 -0.30465396017E+01  0.41297055154E+02  0.16135681009E+03  0.12509000000E+03 0.  0.
<mgrwt>
<rscale>  2 0.45732754E+03</rscale>
<asrwt>0</asrwt>
<pdfrwt beam="1">  1       21 0.39694402E-01 0.45732754E+03</pdfrwt>
<pdfrwt beam="2">  1       21 0.28487060E-01 0.45732754E+03</pdfrwt>
<totfact> 0.66669493E+04</totfact>
</mgrwt>
</event>
<event>
 7    0  0.4759581E-002  0.4534263E+03  0.7546771E-02  0.1026705E+00
         21   -1    0    0  502  501  0.00000000000E+00  0.00000000000E+00  0.20319244579E+03  0.20319244579E+03  0.00000000000E+00 0.  1.
         21   -1    0    0  501  502 -0.00000000000E+00 -0.00000000000E+00 -0.25295650613E+03  0.25295650613E+03  0.00000000000E+00 0.  1.
      99926    2    1    2    0    0  0.00000000000E+00  0.00000000000E+00 -0.49764060342E+02  0.45614895193E+03  0.45342629461E+03 0.  0.
      99925    2    3    3    0    0  0.10021897547E+03 -0.35616558150E+02 -0.65678522082E+02  0.29118483325E+03  0.26298774989E+03 0.  0.
         25    1    3    3    0    0 -0.10021897547E+03  0.35616558150E+02  0.15914461740E+02  0.16496411868E+03  0.12509000000E+03 0.  0.
         25    1    4    4    0    0  0.13430024914E+02 -0.12282142138E+02 -0.78176257989E+01  0.12664848976E+03  0.12509000000E+03 0.  0.
         25    1    4    4    0    0  0.86788950561E+02 -0.23334416012E+02 -0.57860896283E+02  0.16453634349E+03  0.12509000000E+03 0.  0.
<mgrwt>
<rscale>  2 0.45342629E+03</rscale>
<asrwt>0</asrwt>
<pdfrwt beam="1">  1       21 0.29881242E-01 0.45342629E+03</pdfrwt>
<pdfrwt beam="2">  1       21 0.37199486E-01 0.45342629E+03</pdfrwt>
<totfact> 0.69328038E+04</totfact>
</mgrwt>
</event>
<event>
 7    0  0.4759581E-002  0.4527790E+03  0.7546771E-02  0.1026897E+00
         21   -1    0    0  502  501  0.00000000000E+00  0.00000000000E+00  0.10004857013E+04  0.10004857013E+04  0.00000000000E+00 0. -1.
         21   -1    0    0  501  502 -0.00000000000E+00 -0.00000000000E+00 -0.51227318099E+02  0.51227318099E+02  0.00000000000E+00 0. -1.
      99926    2    1    2    0    0  0.00000000000E+00  0.00000000000E+00  0.94925838324E+03  0.10517130194E+04  0.45277897158E+03 0.  0.
      99925    2    3    3    0    0  0.10471756820E+03 -0.30585131272E+02  0.54975767308E+03  0.61910517755E+03  0.26297623926E+03 0.  0.
         25    1    3    3    0    0 -0.10471756820E+03  0.30585131272E+02  0.39950071016E+03  0.43260784189E+03  0.12509000000E+03 0.  0.
         25    1    4    4    0    0  0.92756972379E+02 -0.25764133216E+02  0.33285321425E+03  0.36838351867E+03  0.12509000000E+03 0.  0.
         25    1    4    4    0    0  0.11960595823E+02 -0.48209980562E+01  0.21690445883E+03  0.25072165888E+03  0.12509000000E+03 0.  0.
<mgrwt>
<rscale>  2 0.45277897E+03</rscale>
<asrwt>0</asrwt>
<pdfrwt beam="1">  1       21 0.14713024E+00 0.45277897E+03</pdfrwt>
<pdfrwt beam="2">  1       21 0.75334297E-02 0.45277897E+03</pdfrwt>
<totfact> 0.37866780E+04</totfact>
</mgrwt>
</event>
<event>
 7    0  0.4759581E-002  0.4485015E+03  0.7546771E-02  0.1028170E+00
         21   -1    0    0  502  501  0.00000000000E+00  0.00000000000E+00  0.16133483286E+03  0.16133483286E+03  0.00000000000E+00 0.  1.
         21   -1    0    0  501  502 -0.00000000000E+00 -0.00000000000E+00 -0.31170202401E+03  0.31170202401E+03  0.00000000000E+00 0.  1.
      99926    2    1    2    0    0  0.00000000000E+00  0.00000000000E+00 -0.15036719115E+03  0.47303685687E+03  0.44850147802E+03 0.  0.
      99925    2    3    3    0    0  0.42232191727E+02 -0.92697911750E+02 -0.12995390616E+03  0.31043098009E+03  0.26287433273E+03 0.  0.
         25    1    4    4    0    0  0.58750199643E+02 -0.32549232341E+02 -0.70727228895E+02  0.15862183800E+03  0.12509000000E+03 0.  0.
         25    1    4    4    0    0 -0.16518007916E+02 -0.60148679409E+02 -0.59226677269E+02  0.15180914208E+03  0.12509000000E+03 0.  0.
         25    1    3    3    0    0 -0.42232191727E+02  0.92697911750E+02 -0.20413284989E+02  0.16260587678E+03  0.12509000000E+03 0.  0.
<mgrwt>
<rscale>  2 0.44850148E+03</rscale>
<asrwt>0</asrwt>
<pdfrwt beam="1">  1       21 0.23725711E-01 0.44850148E+03</pdfrwt>
<pdfrwt beam="2">  1       21 0.45838532E-01 0.44850148E+03</pdfrwt>
<totfact> 0.70791827E+04</totfact>
</mgrwt>
</event>
<event>
 7    0  0.4759581E-002  0.4515372E+03  0.7546771E-02  0.1027265E+00
         21   -1    0    0  502  501  0.00000000000E+00  0.00000000000E+00  0.24534651946E+03  0.24534651946E+03  0.00000000000E+00 0. -1.
         21   -1    0    0  501  502 -0.00000000000E+00 -0.00000000000E+00 -0.20775294170E+03  0.20775294170E+03  0.00000000000E+00 0. -1.
      99926    2    1    2    0    0  0.00000000000E+00  0.00000000000E+00  0.37593577756E+02  0.45309946116E+03  0.45153720181E+03 0.  0.
      99925    2    3    3    0    0  0.35533789214E+02  0.79354928937E+02 -0.44664955236E+02  0.27996994527E+03  0.26235159063E+03 0.  0.
         25    1    3    3    0    0 -0.35533789214E+02 -0.79354928937E+02  0.82258532992E+02  0.17312951589E+03  0.12509000000E+03 0.  0.
         25    1    4    4    0    0 -0.70042843930E+01  0.62400783513E+02 -0.16051830972E+01  0.13997500668E+03  0.12509000000E+03 0.  0.
         25    1    4    4    0    0  0.42538073607E+02  0.16954145424E+02 -0.43059772138E+02  0.13999493859E+03  0.12509000000E+03 0.  0.
<mgrwt>
<rscale>  2 0.45153720E+03</rscale>
<asrwt>0</asrwt>
<pdfrwt beam="1">  1       21 0.36080371E-01 0.45153720E+03</pdfrwt>
<pdfrwt beam="2">  1       21 0.30551903E-01 0.45153720E+03</pdfrwt>
<totfact> 0.70616228E+04</totfact>
</mgrwt>
</event>
<event>
 7    0  0.4759581E-002  0.4590672E+03  0.7546771E-02  0.1025052E+00
         21   -1    0    0  502  501  0.00000000000E+00  0.00000000000E+00  0.16086900013E+03  0.16086900013E+03  0.00000000000E+00 0.  1.
         21   -1    0    0  501  502 -0.00000000000E+00 -0.00000000000E+00 -0.32750663716E+03  0.32750663716E+03  0.00000000000E+00 0.  1.
      99926    2    1    2    0    0  0.00000000000E+00  0.00000000000E+00 -0.16663763702E+03  0.48837563729E+03  0.45906716396E+03 0.  0.
      99925    2    3    3    0    0 -0.39898324558E+02 -0.64004603564E+02 -0.95178156433E+01  0.27384682349E+03  0.26308369076E+03 0.  0.
         25    1    4    4    0    0 -0.42265353090E+02 -0.39893379444E+01 -0.24249089158E+02  0.13430488194E+03  0.12509000000E+03 0.  0.
         25    1    4    4    0    0  0.23670285318E+01 -0.60015265620E+02  0.14731273514E+02  0.13954194155E+03  0.12509000000E+03 0.  0.
         25    1    3    3    0    0  0.39898324558E+02  0.64004603564E+02 -0.15711982138E+03  0.21452881380E+03  0.12509000000E+03 0.  0.
<mgrwt>
<rscale>  2 0.45906716E+03</rscale>
<asrwt>0</asrwt>
<pdfrwt beam="1">  1       21 0.23657206E-01 0.45906716E+03</pdfrwt>
<pdfrwt beam="2">  1       21 0.48162741E-01 0.45906716E+03</pdfrwt>
<totfact> 0.64003703E+04</totfact>
</mgrwt>
</event>
<event>
 7    0  0.4759581E-002  0.4535837E+03  0.7546771E-02  0.1026659E+00
         21   -1    0    0  502  501  0.00000000000E+00  0.00000000000E+00  0.10360627369E+04  0.10360627369E+04  0.00000000000E+00 0.  1.
         21   -1    0    0  501  502 -0.00000000000E+00 -0.00000000000E+00 -0.49644240815E+02  0.49644240815E+02  0.00000000000E+00 0.  1.
      99926    2    1    2    0    0  0.00000000000E+00 -0.14210854715E-13  0.98641849605E+03  0.10857069777E+04  0.45358372108E+03 0.  0.
      99925    2    3    3    0    0 -0.43015888337E+02 -0.74633188205E+02  0.44986614055E+03  0.52807231437E+03  0.26279335106E+03 0.  0.
         25    1    4    4    0    0  0.61748750368E+01 -0.56301336012E+02  0.18393049972E+03  0.22953410715E+03  0.12509000000E+03 0.  0.
         25    1    4    4    0    0 -0.49190763374E+02 -0.18331852193E+02  0.26593564083E+03  0.29853820722E+03  0.12509000000E+03 0.  0.
         25    1    3    3    0    0  0.43015888337E+02  0.74633188205E+02  0.53655235550E+03  0.55763466331E+03  0.12509000000E+03 0.  0.
<mgrwt>
<rscale>  2 0.45358372E+03</rscale>
<asrwt>0</asrwt>
<pdfrwt beam="1">  1       21 0.15236215E+00 0.45358372E+03</pdfrwt>
<pdfrwt beam="2">  1       21 0.73006243E-02 0.45358372E+03</pdfrwt>
<totfact> 0.36394318E+04</totfact>
</mgrwt>
</event>
<event>
 7    0  0.4759581E-002  0.4696598E+03  0.7546771E-02  0.1022016E+00
         21   -1    0    0  502  501  0.00000000000E+00  0.00000000000E+00  0.26253398989E+03  0.26253398989E+03  0.00000000000E+00 0.  1.
         21   -1    0    0  501  502 -0.00000000000E+00 -0.00000000000E+00 -0.21004927125E+03  0.21004927125E+03  0.00000000000E+00 0.  1.
      99926    2    1    2    0    0  0.00000000000E+00 -0.71054273576E-14  0.52484718645E+02  0.47258326114E+03  0.46965976304E+03 0.  0.
      99925    2    3    3    0    0  0.70019501719E+02  0.47236656268E+02 -0.62020501684E+02  0.28312881834E+03  0.26302348341E+03 0.  0.
         25    1    4    4    0    0  0.54438195258E+02  0.60877313400E+01  0.42383003365E+00  0.13655865153E+03  0.12509000000E+03 0.  0.
         25    1    4    4    0    0  0.15581306461E+02  0.41148924927E+02 -0.62444331718E+02  0.14657016681E+03  0.12509000000E+03 0.  0.
         25    1    3    3    0    0 -0.70019501719E+02 -0.47236656268E+02  0.11450522033E+03  0.18945444281E+03  0.12509000000E+03 0.  0.
<mgrwt>
<rscale>  2 0.46965976E+03</rscale>
<asrwt>0</asrwt>
<pdfrwt beam="1">  1       21 0.38607940E-01 0.46965976E+03</pdfrwt>
<pdfrwt beam="2">  1       21 0.30889599E-01 0.46965976E+03</pdfrwt>
<totfact> 0.59951355E+04</totfact>
</mgrwt>
</event>
<event>
 7    0  0.4759581E-002  0.4631083E+03  0.7546771E-02  0.1023884E+00
         21   -1    0    0  502  501  0.00000000000E+00  0.00000000000E+00  0.84965980819E+02  0.84965980819E+02  0.00000000000E+00 0. -1.
         21   -1    0    0  501  502 -0.00000000000E+00 -0.00000000000E+00 -0.63104450296E+03  0.63104450296E+03  0.00000000000E+00 0. -1.
      99926    2    1    2    0    0  0.00000000000E+00  0.00000000000E+00 -0.54607852215E+03  0.71601048378E+03  0.46310826006E+03 0.  0.
      99925    2    3    3    0    0 -0.49679554883E+02 -0.35220932532E+02 -0.50220690344E+03  0.57013108397E+03  0.26292414645E+03 0.  0.
         25    1    4    4    0    0 -0.10801435180E+02 -0.11098026726E+02 -0.32395528336E+03  0.34761238602E+03  0.12509000000E+03 0.  0.
         25    1    4    4    0    0 -0.38878119703E+02 -0.24122905807E+02 -0.17825162008E+03  0.22251869795E+03  0.12509000000E+03 0.  0.
         25    1    3    3    0    0  0.49679554883E+02  0.35220932532E+02 -0.43871618709E+02  0.14587939981E+03  0.12509000000E+03 0.  0.
<mgrwt>
<rscale>  2 0.46310826E+03</rscale>
<asrwt>0</asrwt>
<pdfrwt beam="1">  1       21 0.12494998E-01 0.46310826E+03</pdfrwt>
<pdfrwt beam="2">  1       21 0.92800659E-01 0.46310826E+03</pdfrwt>
<totfact> 0.48851028E+04</totfact>
</mgrwt>
</event>
<event>
 7    0  0.4759581E-002  0.4196500E+03  0.7546771E-02  0.1037180E+00
         21   -1    0    0  502  501  0.00000000000E+00  0.00000000000E+00  0.53722381896E+03  0.53722381896E+03  0.00000000000E+00 0.  1.
         21   -1    0    0  501  502 -0.00000000000E+00 -0.00000000000E+00 -0.81951949724E+02  0.81951949724E+02  0.00000000000E+00 0.  1.
      99926    2    1    2    0    0  0.00000000000E+00  0.00000000000E+00  0.45527186924E+03  0.61917576869E+03  0.41965004183E+03 0.  0.
      99925    2    3    3    0    0 -0.38157454381E+02  0.45883565842E+02  0.36511272434E+03  0.45383529437E+03  0.26286475610E+03 0.  0.
         25    1    3    3    0    0  0.38157454381E+02 -0.45883565842E+02  0.90159144898E+02  0.16534047432E+03  0.12509000000E+03 0.  0.
         25    1    4    4    0    0 -0.33269079575E+02  0.54571454883E+02  0.22944977429E+03  0.26903453750E+03  0.12509000000E+03 0.  0.
         25    1    4    4    0    0 -0.48883748061E+01 -0.86878890410E+01  0.13566295005E+03  0.18480075687E+03  0.12509000000E+03 0.  0.
<mgrwt>
<rscale>  2 0.41965004E+03</rscale>
<asrwt>0</asrwt>
<pdfrwt beam="1">  1       21 0.79003501E-01 0.41965004E+03</pdfrwt>
<pdfrwt beam="2">  1       21 0.12051758E-01 0.41965004E+03</pdfrwt>
<totfact> 0.76801655E+04</totfact>
</mgrwt>
</event>
<event>
 7    0  0.4759581E-002  0.4510152E+03  0.7546771E-02  0.1027420E+00
         21   -1    0    0  502  501  0.00000000000E+00  0.00000000000E+00  0.67715691800E+03  0.67715691800E+03  0.00000000000E+00 0.  1.
         21   -1    0    0  501  502 -0.00000000000E+00 -0.00000000000E+00 -0.75098802937E+02  0.75098802937E+02  0.00000000000E+00 0.  1.
      99926    2    1    2    0    0  0.00000000000E+00 -0.35527136788E-14  0.60205811507E+03  0.75225572094E+03  0.45101518352E+03 0.  0.
      99925    2    3    3    0    0 -0.94910465852E+02  0.23542827103E+02  0.46203840293E+03  0.54055950198E+03  0.26298826620E+03 0.  0.
         25    1    3    3    0    0  0.94910465852E+02 -0.23542827103E+02  0.14001971214E+03  0.21169621896E+03  0.12509000000E+03 0.  0.
         25    1    4    4    0    0 -0.74590876197E+02  0.43641450055E+02  0.23969874433E+03  0.28385096637E+03  0.12509000000E+03 0.  0.
         25    1    4    4    0    0 -0.20319589656E+02 -0.20098622952E+02  0.22233965860E+03  0.25670853561E+03  0.12509000000E+03 0.  0.
<mgrwt>
<rscale>  2 0.45101518E+03</rscale>
<asrwt>0</asrwt>
<pdfrwt beam="1">  1       21 0.99581896E-01 0.45101518E+03</pdfrwt>
<pdfrwt beam="2">  1       21 0.11043942E-01 0.45101518E+03</pdfrwt>
<totfact> 0.51757891E+04</totfact>
</mgrwt>
</event>
<event>
 7    0  0.4759581E-002  0.4545501E+03  0.7546771E-02  0.1026374E+00
         21   -1    0    0  502  501  0.00000000000E+00  0.00000000000E+00  0.12545965858E+04  0.12545965858E+04  0.00000000000E+00 0.  1.
         21   -1    0    0  501  502 -0.00000000000E+00 -0.00000000000E+00 -0.41171750601E+02  0.41171750601E+02  0.00000000000E+00 0.  1.
      99926    2    1    2    0    0  0.00000000000E+00  0.00000000000E+00  0.12134248352E+04  0.12957683364E+04  0.45455005330E+03 0.  0.
      99925    2    3    3    0    0 -0.55334120586E+02  0.10309079255E+02  0.48562529459E+03  0.55515519756E+03  0.26305365349E+03 0.  0.
         25    1    3    3    0    0  0.55334120586E+02 -0.10309079255E+02  0.72779954065E+03  0.74061313889E+03  0.12509000000E+03 0.  0.
         25    1    4    4    0    0 -0.42383548759E+02  0.36034382446E+02  0.29653137637E+03  0.32660864531E+03  0.12509000000E+03 0.  0.
         25    1    4    4    0    0 -0.12950571828E+02 -0.25725303191E+02  0.18909391823E+03  0.22854655225E+03  0.12509000000E+03 0.  0.
<mgrwt>
<rscale>  2 0.45455005E+03</rscale>
<asrwt>0</asrwt>
<pdfrwt beam="1">  1       21 0.18449947E+00 0.45455005E+03</pdfrwt>
<pdfrwt beam="2">  1       21 0.60546700E-02 0.45455005E+03</pdfrwt>
<totfact> 0.29340389E+04</totfact>
</mgrwt>
</event>
<event>
 7    0  0.4759581E-002  0.4573594E+03  0.7546771E-02  0.1025550E+00
         21   -1    0    0  502  501  0.00000000000E+00  0.00000000000E+00  0.86847599298E+03  0.86847599298E+03  0.00000000000E+00 0.  1.
         21   -1    0    0  501  502 -0.00000000000E+00 -0.00000000000E+00 -0.60213989199E+02  0.60213989199E+02  0.00000000000E+00 0.  1.
      99926    2    1    2    0    0  0.00000000000E+00  0.14210854715E-13  0.80826200378E+03  0.92868998218E+03  0.45735939505E+03 0.  0.
      99925    2    3    3    0    0  0.91747992354E+02 -0.70014954304E+02  0.50431626619E+03  0.58033627196E+03  0.26293631220E+03 0.  0.
         25    1    3    3    0    0 -0.91747992354E+02  0.70014954304E+02  0.30394573759E+03  0.34835371022E+03  0.12509000000E+03 0.  0.
         25    1    4    4    0    0  0.62622626095E+02 -0.20387484789E+01  0.21385458434E+03  0.25555242346E+03  0.12509000000E+03 0.  0.
         25    1    4    4    0    0  0.29125366259E+02 -0.67976205825E+02  0.29046168185E+03  0.32478384850E+03  0.12509000000E+03 0.  0.
<mgrwt>
<rscale>  2 0.45735940E+03</rscale>
<asrwt>0</asrwt>
<pdfrwt beam="1">  1       21 0.12771705E+00 0.45735940E+03</pdfrwt>
<pdfrwt beam="2">  1       21 0.88549990E-02 0.45735940E+03</pdfrwt>
<totfact> 0.41249497E+04</totfact>
</mgrwt>
</event>
<event>
 7    0  0.4759581E-002  0.4541705E+03  0.7546771E-02  0.1026486E+00
         21   -1    0    0  502  501  0.00000000000E+00  0.00000000000E+00  0.12572706109E+03  0.12572706109E+03  0.00000000000E+00 0. -1.
         21   -1    0    0  501  502 -0.00000000000E+00 -0.00000000000E+00 -0.41015608706E+03  0.41015608706E+03  0.00000000000E+00 0. -1.
      99926    2    1    2    0    0  0.00000000000E+00  0.00000000000E+00 -0.28442902598E+03  0.53588314815E+03  0.45417053807E+03 0.  0.
      99925    2    3    3    0    0 -0.68801753832E+02 -0.87186893715E+02 -0.19657144753E+03  0.34693421866E+03  0.26341560759E+03 0.  0.
         25    1    4    4    0    0 -0.37478171391E+02 -0.80723074615E+02 -0.80640279863E+02  0.17341046953E+03  0.12509000000E+03 0.  0.
         25    1    4    4    0    0 -0.31323582441E+02 -0.64638191001E+01 -0.11593116767E+03  0.17352374913E+03  0.12509000000E+03 0.  0.
         25    1    3    3    0    0  0.68801753832E+02  0.87186893715E+02 -0.87857578450E+02  0.18894892949E+03  0.12509000000E+03 0.  0.
<mgrwt>
<rscale>  2 0.45417054E+03</rscale>
<asrwt>0</asrwt>
<pdfrwt beam="1">  1       21 0.18489274E-01 0.45417054E+03</pdfrwt>
<pdfrwt beam="2">  1       21 0.60317071E-01 0.45417054E+03</pdfrwt>
<totfact> 0.63223152E+04</totfact>
</mgrwt>
</event>
<event>
 7    0  0.4759581E-002  0.4668886E+03  0.7546771E-02  0.1022802E+00
         21   -1    0    0  502  501  0.00000000000E+00  0.00000000000E+00  0.11050929989E+03  0.11050929989E+03  0.00000000000E+00 0.  1.
         21   -1    0    0  501  502 -0.00000000000E+00 -0.00000000000E+00 -0.49313722418E+03  0.49313722418E+03  0.00000000000E+00 0.  1.
      99926    2    1    2    0    0 -0.22204460493E-15  0.00000000000E+00 -0.38262792429E+03  0.60364652408E+03  0.46688863509E+03 0.  0.
      99925    2    3    3    0    0 -0.16545577460E+01  0.62363041598E+02 -0.99850560903E+02  0.28820646342E+03  0.26306072403E+03 0.  0.
         25    1    4    4    0    0  0.24015588557E+02  0.35844122853E+02 -0.16309345709E+02  0.13332311313E+03  0.12509000000E+03 0.  0.
         25    1    3    3    0    0  0.16545577460E+01 -0.62363041598E+02 -0.28277736339E+03  0.31544006065E+03  0.12509000000E+03 0.  0.
         25    1    4    4    0    0 -0.25670146303E+02  0.26518918744E+02 -0.83541215194E+02  0.15488335030E+03  0.12509000000E+03 0.  0.
<mgrwt>
<rscale>  2 0.46688864E+03</rscale>
<asrwt>0</asrwt>
<pdfrwt beam="1">  1       21 0.16251368E-01 0.46688864E+03</pdfrwt>
<pdfrwt beam="2">  1       21 0.72520178E-01 0.46688864E+03</pdfrwt>
<totfact> 0.53271406E+04</totfact>
</mgrwt>
</event>
<event>
 7    0  0.4759581E-002  0.4671369E+03  0.7546771E-02  0.1022731E+00
         21   -1    0    0  502  501  0.00000000000E+00  0.00000000000E+00  0.11048696960E+04  0.11048696960E+04  0.00000000000E+00 0. -1.
         21   -1    0    0  501  502 -0.00000000000E+00 -0.00000000000E+00 -0.49376153092E+02  0.49376153092E+02  0.00000000000E+00 0. -1.
      99926    2    1    2    0    0  0.00000000000E+00  0.00000000000E+00  0.10554935429E+04  0.11542458491E+04  0.46713687612E+03 0.  0.
      99925    2    3    3    0    0  0.75436845521E+02  0.85927827716E+02  0.77749660808E+03  0.82866312057E+03  0.26288264033E+03 0.  0.
         25    1    4    4    0    0  0.58076974038E+02  0.55489517453E+02  0.31582027021E+03  0.34905869511E+03  0.12509000000E+03 0.  0.
         25    1    4    4    0    0  0.17359871483E+02  0.30438310263E+02  0.46167633787E+03  0.47960442546E+03  0.12509000000E+03 0.  0.
         25    1    3    3    0    0 -0.75436845521E+02 -0.85927827716E+02  0.27799693486E+03  0.32558272855E+03  0.12509000000E+03 0.  0.
<mgrwt>
<rscale>  2 0.46713688E+03</rscale>
<asrwt>0</asrwt>
<pdfrwt beam="1">  1       21 0.16248082E+00 0.46713688E+03</pdfrwt>
<pdfrwt beam="2">  1       21 0.72611997E-02 0.46713688E+03</pdfrwt>
<totfact> 0.30638663E+04</totfact>
</mgrwt>
</event>
<event>
 7    0  0.4759581E-002  0.4550725E+03  0.7546771E-02  0.1026220E+00
         21   -1    0    0  502  501  0.00000000000E+00  0.00000000000E+00  0.25082622872E+03  0.25082622872E+03  0.00000000000E+00 0. -1.
         21   -1    0    0  501  502 -0.00000000000E+00 -0.00000000000E+00 -0.20640886153E+03  0.20640886153E+03  0.00000000000E+00 0. -1.
      99926    2    1    2    0    0  0.00000000000E+00  0.00000000000E+00  0.44417367195E+02  0.45723509025E+03  0.45507254944E+03 0.  0.
      99925    2    3    3    0    0  0.83017016028E+02  0.80475122985E+01  0.10482664148E+03  0.29520615480E+03  0.26306170695E+03 0.  0.
         25    1    3    3    0    0 -0.83017016028E+02 -0.80475122985E+01 -0.60409274283E+02  0.16202893545E+03  0.12509000000E+03 0.  0.
         25    1    4    4    0    0  0.44734820083E+02  0.40983439915E+02  0.71111100384E+02  0.15615743073E+03  0.12509000000E+03 0.  0.
         25    1    4    4    0    0  0.38282195945E+02 -0.32935927617E+02  0.33715541094E+02  0.13904872407E+03  0.12509000000E+03 0.  0.
<mgrwt>
<rscale>  2 0.45507255E+03</rscale>
<asrwt>0</asrwt>
<pdfrwt beam="1">  1       21 0.36886210E-01 0.45507255E+03</pdfrwt>
<pdfrwt beam="2">  1       21 0.30354244E-01 0.45507255E+03</pdfrwt>
<totfact> 0.68342792E+04</totfact>
</mgrwt>
</event>
<event>
 7    0  0.4759581E-002  0.4568659E+03  0.7546771E-02  0.1025694E+00
         21   -1    0    0  502  501  0.00000000000E+00  0.00000000000E+00  0.68197764157E+03  0.68197764157E+03  0.00000000000E+00 0. -1.
         21   -1    0    0  501  502 -0.00000000000E+00 -0.00000000000E+00 -0.76515140365E+02  0.76515140365E+02  0.00000000000E+00 0. -1.
      99926    2    1    2    0    0  0.71054273576E-14  0.14210854715E-13  0.60546250120E+03  0.75849278193E+03  0.45686591018E+03 0.  0.
      99925    2    3    3    0    0 -0.56480443924E+02 -0.97662381174E+02  0.41718998822E+03  0.50586256108E+03  0.26290961031E+03 0.  0.
         25    1    3    3    0    0  0.56480443924E+02  0.97662381174E+02  0.18827251298E+03  0.25263022085E+03  0.12509000000E+03 0.  0.
         25    1    4    4    0    0 -0.43773088527E+01 -0.82009163081E+02  0.21376883859E+03  0.26093924219E+03  0.12509000000E+03 0.  0.
         25    1    4    4    0    0 -0.52103135072E+02 -0.15653218094E+02  0.20342114963E+03  0.24492331889E+03  0.12509000000E+03 0.  0.
<mgrwt>
<rscale>  2 0.45686591E+03</rscale>
<asrwt>0</asrwt>
<pdfrwt beam="1">  1       21 0.10029083E+00 0.45686591E+03</pdfrwt>
<pdfrwt beam="2">  1       21 0.11252227E-01 0.45686591E+03</pdfrwt>
<totfact> 0.49113937E+04</totfact>
</mgrwt>
</event>
<event>
 7    0  0.4759581E-002  0.4580747E+03  0.7546771E-02  0.1025341E+00
         21   -1    0    0  502  501  0.00000000000E+00  0.00000000000E+00  0.45816142457E+03  0.45816142457E+03  0.00000000000E+00 0. -1.
         21   -1    0    0  501  502 -0.00000000000E+00 -0.00000000000E+00 -0.11449699028E+03  0.11449699028E+03  0.00000000000E+00 0. -1.
      99926    2    1    2    0    0  0.00000000000E+00  0.00000000000E+00  0.34366443429E+03  0.57265841486E+03  0.45807468464E+03 0.  0.
      99925    2    3    3    0    0  0.68829116404E+02  0.52361830120E+02  0.11907002443E+03  0.30142168143E+03  0.26305541394E+03 0.  0.
         25    1    4    4    0    0  0.37112254165E+02 -0.65222402862E+01  0.30375420904E+02  0.13412692989E+03  0.12509000000E+03 0.  0.
         25    1    4    4    0    0  0.31716862240E+02  0.58884070406E+02  0.88694603531E+02  0.16729475154E+03  0.12509000000E+03 0.  0.
         25    1    3    3    0    0 -0.68829116404E+02 -0.52361830120E+02  0.22459440986E+03  0.27123673342E+03  0.12509000000E+03 0.  0.
<mgrwt>
<rscale>  2 0.45807468E+03</rscale>
<asrwt>0</asrwt>
<pdfrwt beam="1">  1       21 0.67376679E-01 0.45807468E+03</pdfrwt>
<pdfrwt beam="2">  1       21 0.16837793E-01 0.45807468E+03</pdfrwt>
<totfact> 0.58947302E+04</totfact>
</mgrwt>
</event>
<event>
 7    0  0.4759581E-002  0.4523327E+03  0.7546771E-02  0.1027029E+00
         21   -1    0    0  502  501  0.00000000000E+00  0.00000000000E+00  0.57892885817E+02  0.57892885817E+02  0.00000000000E+00 0.  1.
         21   -1    0    0  501  502 -0.00000000000E+00 -0.00000000000E+00 -0.88354914081E+03  0.88354914081E+03  0.00000000000E+00 0.  1.
      99926    2    1    2    0    0 -0.71054273576E-14  0.00000000000E+00 -0.82565625499E+03  0.94144202662E+03  0.45233266308E+03 0.  0.
      99925    2    3    3    0    0  0.37557671106E+02 -0.39233313299E+02 -0.72154810292E+03  0.76987324462E+03  0.26291313475E+03 0.  0.
         25    1    4    4    0    0 -0.14902416207E+02  0.15475930941E+01 -0.37013019219E+03  0.39098381593E+03  0.12509000000E+03 0.  0.
         25    1    4    4    0    0  0.52460087313E+02 -0.40780906393E+02 -0.35141791073E+03  0.37888942868E+03  0.12509000000E+03 0.  0.
         25    1    3    3    0    0 -0.37557671106E+02  0.39233313299E+02 -0.10410815207E+03  0.17156878201E+03  0.12509000000E+03 0.  0.
<mgrwt>
<rscale>  2 0.45233266E+03</rscale>
<asrwt>0</asrwt>
<pdfrwt beam="1">  1       21 0.85136609E-02 0.45233266E+03</pdfrwt>
<pdfrwt beam="2">  1       21 0.12993368E+00 0.45233266E+03</pdfrwt>
<totfact> 0.42366169E+04</totfact>
</mgrwt>
</event>
<event>
 7    0  0.4759581E-002  0.4613359E+03  0.7546771E-02  0.1024394E+00
         21   -1    0    0  502  501  0.00000000000E+00  0.00000000000E+00  0.22053323458E+03  0.22053323458E+03  0.00000000000E+00 0.  1.
         21   -1    0    0  501  502 -0.00000000000E+00 -0.00000000000E+00 -0.24126842281E+03  0.24126842281E+03  0.00000000000E+00 0.  1.
      99926    2    1    2    0    0 -0.14210854715E-13  0.71054273576E-14 -0.20735188228E+02  0.46180165740E+03  0.46133591096E+03 0.  0.
      99925    2    3    3    0    0  0.10373598929E+03 -0.57423028548E+02 -0.20817671446E+02  0.28944715474E+03  0.26322560715E+03 0.  0.
         25    1    4    4    0    0  0.47080772123E+02  0.10272486554E+02 -0.24647621388E+02  0.13629796926E+03  0.12509000000E+03 0.  0.
         25    1    3    3    0    0 -0.10373598929E+03  0.57423028548E+02  0.82483217472E-01  0.17235450266E+03  0.12509000000E+03 0.  0.
         25    1    4    4    0    0  0.56655217171E+02 -0.67695515102E+02  0.38299499428E+01  0.15314918548E+03  0.12509000000E+03 0.  0.
<mgrwt>
<rscale>  2 0.46133591E+03</rscale>
<asrwt>0</asrwt>
<pdfrwt beam="1">  1       21 0.32431358E-01 0.46133591E+03</pdfrwt>
<pdfrwt beam="2">  1       21 0.35480650E-01 0.46133591E+03</pdfrwt>
<totfact> 0.64716340E+04</totfact>
</mgrwt>
</event>
<event>
 7    0  0.4759581E-002  0.4451159E+03  0.7546771E-02  0.1029189E+00
         21   -1    0    0  502  501  0.00000000000E+00  0.00000000000E+00  0.56128277068E+03  0.56128277068E+03  0.00000000000E+00 0. -1.
         21   -1    0    0  501  502 -0.00000000000E+00 -0.00000000000E+00 -0.88247908044E+02  0.88247908044E+02  0.00000000000E+00 0. -1.
      99926    2    1    2    0    0  0.00000000000E+00  0.00000000000E+00  0.47303486264E+03  0.64953067873E+03  0.44511585159E+03 0.  0.
      99925    2    3    3    0    0 -0.62128088479E+02  0.78345783605E+02  0.34008064733E+03  0.44139059932E+03  0.26300732555E+03 0.  0.
         25    1    3    3    0    0  0.62128088479E+02 -0.78345783605E+02  0.13295421531E+03  0.20814007941E+03  0.12509000000E+03 0.  0.
         25    1    4    4    0    0 -0.45048850732E+02  0.51695871827E+02  0.12063732997E+03  0.18682273844E+03  0.12509000000E+03 0.  0.
         25    1    4    4    0    0 -0.17079237747E+02  0.26649911779E+02  0.21944331735E+03  0.25456786087E+03  0.12509000000E+03 0.  0.
<mgrwt>
<rscale>  2 0.44511585E+03</rscale>
<asrwt>0</asrwt>
<pdfrwt beam="1">  1       21 0.82541582E-01 0.44511585E+03</pdfrwt>
<pdfrwt beam="2">  1       21 0.12977634E-01 0.44511585E+03</pdfrwt>
<totfact> 0.60293927E+04</totfact>
</mgrwt>
</event>
<event>
 7    0  0.4759581E-002  0.4376005E+03  0.7546771E-02  0.1031486E+00
         21   -1    0    0  502  501  0.00000000000E+00  0.00000000000E+00  0.24436517638E+04  0.24436517638E+04  0.00000000000E+00 0.  1.
         21   -1    0    0  501  502 -0.00000000000E+00 -0.00000000000E+00 -0.19590990001E+02  0.19590990001E+02  0.00000000000E+00 0.  1.
      99926    2    1    2    0    0  0.00000000000E+00  0.00000000000E+00  0.24240607738E+04  0.24632427538E+04  0.43760053596E+03 0.  0.
      99925    2    3    3    0    0  0.73252780748E+01 -0.84611044853E+02  0.13025602929E+04  0.13315963756E+04  0.26319745853E+03 0.  0.
         25    1    4    4    0    0  0.28053972354E+02 -0.76935493011E+02  0.71242259093E+03  0.72794199743E+03  0.12509000000E+03 0.  0.
         25    1    3    3    0    0 -0.73252780748E+01  0.84611044853E+02  0.11215004808E+04  0.11316463782E+04  0.12509000000E+03 0.  0.
         25    1    4    4    0    0 -0.20728694279E+02 -0.76755518421E+01  0.59013770199E+03  0.60365437816E+03  0.12509000000E+03 0.  0.
<mgrwt>
<rscale>  2 0.43760054E+03</rscale>
<asrwt>0</asrwt>
<pdfrwt beam="1">  1       21 0.35936034E+00 0.43760054E+03</pdfrwt>
<pdfrwt beam="2">  1       21 0.28810296E-02 0.43760054E+03</pdfrwt>
<totfact> 0.86240642E+03</totfact>
</mgrwt>
</event>
<event>
 7    0  0.4759581E-002  0.4625403E+03  0.7546771E-02  0.1024047E+00
         21   -1    0    0  502  501  0.00000000000E+00  0.00000000000E+00  0.29248232909E+03  0.29248232909E+03  0.00000000000E+00 0. -1.
         21   -1    0    0  501  502 -0.00000000000E+00 -0.00000000000E+00 -0.18286874206E+03  0.18286874206E+03  0.00000000000E+00 0. -1.
      99926    2    1    2    0    0  0.17763568394E-14  0.35527136788E-14  0.10961358703E+03  0.47535107115E+03  0.46254027109E+03 0.  0.
      99925    2    3    3    0    0  0.10338372779E+02 -0.25115455304E+02  0.18882311281E+03  0.32482092426E+03  0.26290073576E+03 0.  0.
         25    1    3    3    0    0 -0.10338372779E+02  0.25115455304E+02 -0.79209525778E+02  0.15053014688E+03  0.12509000000E+03 0.  0.
         25    1    4    4    0    0 -0.73986182198E+01 -0.36274379866E+02  0.13283314123E+03  0.18617927300E+03  0.12509000000E+03 0.  0.
         25    1    4    4    0    0  0.17736990999E+02  0.11158924562E+02  0.55989971582E+02  0.13864165126E+03  0.12509000000E+03 0.  0.
<mgrwt>
<rscale>  2 0.46254027E+03</rscale>
<asrwt>0</asrwt>
<pdfrwt beam="1">  1       21 0.43012107E-01 0.46254027E+03</pdfrwt>
<pdfrwt beam="2">  1       21 0.26892462E-01 0.46254027E+03</pdfrwt>
<totfact> 0.63175468E+04</totfact>
</mgrwt>
</event>
<event>
 7    0  0.4759581E-002  0.4528551E+03  0.7546771E-02  0.1026874E+00
         21   -1    0    0  502  501  0.00000000000E+00  0.00000000000E+00  0.65908012595E+02  0.65908012595E+02  0.00000000000E+00 0.  1.
         21   -1    0    0  501  502 -0.00000000000E+00 -0.00000000000E+00 -0.77789371088E+03  0.77789371088E+03  0.00000000000E+00 0.  1.
      99926    2    1    2    0    0  0.00000000000E+00 -0.71054273576E-14 -0.71198569829E+03  0.84380172348E+03  0.45285506951E+03 0.  0.
      99925    2    3    3    0    0 -0.86361722525E+01 -0.43083314836E+02 -0.25834451980E+03  0.37118286815E+03  0.26287653987E+03 0.  0.
         25    1    4    4    0    0  0.18824993837E+02 -0.34743524144E+02 -0.88259498227E+02  0.15810989846E+03  0.12509000000E+03 0.  0.
         25    1    4    4    0    0 -0.27461166089E+02 -0.83397906920E+01 -0.17008502157E+03  0.21307296970E+03  0.12509000000E+03 0.  0.
         25    1    3    3    0    0  0.86361722525E+01  0.43083314836E+02 -0.45364117849E+03  0.47261885533E+03  0.12509000000E+03 0.  0.
<mgrwt>
<rscale>  2 0.45285507E+03</rscale>
<asrwt>0</asrwt>
<pdfrwt beam="1">  1       21 0.96923553E-02 0.45285507E+03</pdfrwt>
<pdfrwt beam="2">  1       21 0.11439613E+00 0.45285507E+03</pdfrwt>
<totfact> 0.46495392E+04</totfact>
</mgrwt>
</event>
<event>
 7    0  0.4759581E-002  0.4562828E+03  0.7546771E-02  0.1025865E+00
         21   -1    0    0  502  501  0.00000000000E+00  0.00000000000E+00  0.97126848584E+03  0.97126848584E+03  0.00000000000E+00 0.  1.
         21   -1    0    0  501  502 -0.00000000000E+00 -0.00000000000E+00 -0.53588164235E+02  0.53588164235E+02  0.00000000000E+00 0.  1.
      99926    2    1    2    0    0  0.00000000000E+00  0.00000000000E+00  0.91768032161E+03  0.10248566501E+04  0.45628278572E+03 0.  0.
      99925    2    3    3    0    0  0.37092822839E+02  0.88110803342E+02  0.71796415595E+03  0.77054690568E+03  0.26292701163E+03 0.  0.
         25    1    4    4    0    0 -0.14206525313E+02  0.17128541202E+02  0.32241828252E+03  0.34654908641E+03  0.12509000000E+03 0.  0.
         25    1    3    3    0    0 -0.37092822839E+02 -0.88110803342E+02  0.19971616565E+03  0.25430974440E+03  0.12509000000E+03 0.  0.
         25    1    4    4    0    0  0.51299348152E+02  0.70982262139E+02  0.39554587343E+03  0.42399781927E+03  0.12509000000E+03 0.  0.
<mgrwt>
<rscale>  2 0.45628279E+03</rscale>
<asrwt>0</asrwt>
<pdfrwt beam="1">  1       21 0.14283359E+00 0.45628279E+03</pdfrwt>
<pdfrwt beam="2">  1       21 0.78806130E-02 0.45628279E+03</pdfrwt>
<totfact> 0.37833384E+04</totfact>
</mgrwt>
</event>
<event>
 7    0  0.4759581E-002  0.4610023E+03  0.7546771E-02  0.1024491E+00
         21   -1    0    0  502  501  0.00000000000E+00  0.00000000000E+00  0.19436750866E+03  0.19436750866E+03  0.00000000000E+00 0.  1.
         21   -1    0    0  501  502 -0.00000000000E+00 -0.00000000000E+00 -0.27335222601E+03  0.27335222601E+03  0.00000000000E+00 0.  1.
      99926    2    1    2    0    0  0.00000000000E+00  0.00000000000E+00 -0.78984717349E+02  0.46771973468E+03  0.46100234775E+03 0.  0.
      99925    2    3    3    0    0  0.66866687247E+02  0.87034764847E+02 -0.95473700553E+02  0.30049055414E+03  0.26293181906E+03 0.  0.
         25    1    3    3    0    0 -0.66866687247E+02 -0.87034764847E+02  0.16488983205E+02  0.16722918054E+03  0.12509000000E+03 0.  0.
         25    1    4    4    0    0  0.11153432444E+02  0.73373222093E+02 -0.66149331104E+02  0.15978507715E+03  0.12509000000E+03 0.  0.
         25    1    4    4    0    0  0.55713254803E+02  0.13661542754E+02 -0.29324369449E+02  0.14070547699E+03  0.12509000000E+03 0.  0.
<mgrwt>
<rscale>  2 0.46100235E+03</rscale>
<asrwt>0</asrwt>
<pdfrwt beam="1">  1       21 0.28583457E-01 0.46100235E+03</pdfrwt>
<pdfrwt beam="2">  1       21 0.40198857E-01 0.46100235E+03</pdfrwt>
<totfact> 0.64476843E+04</totfact>
</mgrwt>
</event>
<event>
 7    0  0.4759581E-002  0.4550623E+03  0.7546771E-02  0.1026223E+00
         21   -1    0    0  502  501  0.00000000000E+00  0.00000000000E+00  0.58628992767E+03  0.58628992767E+03  0.00000000000E+00 0. -1.
         21   -1    0    0  501  502 -0.00000000000E+00 -0.00000000000E+00 -0.88301759856E+02  0.88301759856E+02  0.00000000000E+00 0. -1.
      99926    2    1    2    0    0  0.35527136788E-14  0.00000000000E+00  0.49798816781E+03  0.67459168753E+03  0.45506233595E+03 0.  0.
      99925    2    3    3    0    0  0.19776675515E+02 -0.44309525579E+02  0.16186548022E+03  0.31267951563E+03  0.26308476743E+03 0.  0.
         25    1    4    4    0    0  0.50497791952E+02 -0.24757528776E+02  0.87020706823E+02  0.16242867277E+03  0.12509000000E+03 0.  0.
         25    1    4    4    0    0 -0.30721116436E+02 -0.19551996803E+02  0.74844773396E+02  0.15025084286E+03  0.12509000000E+03 0.  0.
         25    1    3    3    0    0 -0.19776675515E+02  0.44309525579E+02  0.33612268759E+03  0.36191217190E+03  0.12509000000E+03 0.  0.
<mgrwt>
<rscale>  2 0.45506234E+03</rscale>
<asrwt>0</asrwt>
<pdfrwt beam="1">  1       21 0.86219105E-01 0.45506234E+03</pdfrwt>
<pdfrwt beam="2">  1       21 0.12985553E-01 0.45506234E+03</pdfrwt>
<totfact> 0.54277997E+04</totfact>
</mgrwt>
</event>
<event>
 7    0  0.4759581E-002  0.4528549E+03  0.7546771E-02  0.1026874E+00
         21   -1    0    0  502  501  0.00000000000E+00  0.00000000000E+00  0.35084161516E+03  0.35084161516E+03  0.00000000000E+00 0.  1.
         21   -1    0    0  501  502 -0.00000000000E+00 -0.00000000000E+00 -0.14613256598E+03  0.14613256598E+03  0.00000000000E+00 0.  1.
      99926    2    1    2    0    0  0.00000000000E+00 -0.35527136788E-14  0.20470904918E+03  0.49697418114E+03  0.45285487952E+03 0.  0.
      99925    2    3    3    0    0  0.19047646388E+02  0.23150037392E+02  0.11605340076E+02  0.26494985562E+03  0.26299240485E+03 0.  0.
         25    1    4    4    0    0  0.24966557067E+01  0.50477957103E+02 -0.35300412177E+01  0.13496009312E+03  0.12509000000E+03 0.  0.
         25    1    3    3    0    0 -0.19047646388E+02 -0.23150037392E+02  0.19310370911E+03  0.23202432552E+03  0.12509000000E+03 0.  0.
         25    1    4    4    0    0  0.16550990681E+02 -0.27327919711E+02  0.15135381294E+02  0.12998976250E+03  0.12509000000E+03 0.  0.
<mgrwt>
<rscale>  2 0.45285488E+03</rscale>
<asrwt>0</asrwt>
<pdfrwt beam="1">  1       21 0.51594355E-01 0.45285488E+03</pdfrwt>
<pdfrwt beam="2">  1       21 0.21490083E-01 0.45285488E+03</pdfrwt>
<totfact> 0.66610837E+04</totfact>
</mgrwt>
</event>
<event>
 7    0  0.4759581E-002  0.4571611E+03  0.7546771E-02  0.1025608E+00
         21   -1    0    0  502  501  0.00000000000E+00  0.00000000000E+00  0.25081574673E+03  0.25081574673E+03  0.00000000000E+00 0. -1.
         21   -1    0    0  501  502 -0.00000000000E+00 -0.00000000000E+00 -0.20831657260E+03  0.20831657260E+03  0.00000000000E+00 0. -1.
      99926    2    1    2    0    0  0.00000000000E+00  0.00000000000E+00  0.42499174130E+02  0.45913231933E+03  0.45716113883E+03 0.  0.
      99925    2    3    3    0    0 -0.90219605674E+02  0.71112098317E+02  0.18489122116E+02  0.28760827300E+03  0.26302122212E+03 0.  0.
         25    1    4    4    0    0 -0.52668040015E+02  0.49307778010E+02 -0.28339367079E+02  0.14715912217E+03  0.12509000000E+03 0.  0.
         25    1    4    4    0    0 -0.37551565658E+02  0.21804320307E+02  0.46828489195E+02  0.14044915083E+03  0.12509000000E+03 0.  0.
         25    1    3    3    0    0  0.90219605674E+02 -0.71112098317E+02  0.24010052014E+02  0.17152404634E+03  0.12509000000E+03 0.  0.
<mgrwt>
<rscale>  2 0.45716114E+03</rscale>
<asrwt>0</asrwt>
<pdfrwt beam="1">  1       21 0.36884669E-01 0.45716114E+03</pdfrwt>
<pdfrwt beam="2">  1       21 0.30634790E-01 0.45716114E+03</pdfrwt>
<totfact> 0.67079991E+04</totfact>
</mgrwt>
</event>
<event>
 7    0  0.4759581E-002  0.4509033E+03  0.7546771E-02  0.1027453E+00
         21   -1    0    0  502  501  0.00000000000E+00  0.00000000000E+00  0.24790126979E+03  0.24790126979E+03  0.00000000000E+00 0. -1.
         21   -1    0    0  501  502 -0.00000000000E+00 -0.00000000000E+00 -0.20503505024E+03  0.20503505024E+03  0.00000000000E+00 0. -1.
      99926    2    1    2    0    0  0.35527136788E-14  0.00000000000E+00  0.42866219551E+02  0.45293632002E+03  0.45090331250E+03 0.  0.
      99925    2    3    3    0    0 -0.90294436779E+01  0.72591373141E+02  0.10857893398E+03  0.29382407271E+03  0.26304403147E+03 0.  0.
         25    1    4    4    0    0  0.28648219668E+02  0.60347892511E+02  0.56999419285E+02  0.15283661381E+03  0.12509000000E+03 0.  0.
         25    1    3    3    0    0  0.90294436779E+01 -0.72591373141E+02 -0.65712714426E+02  0.15911224731E+03  0.12509000000E+03 0.  0.
         25    1    4    4    0    0 -0.37677663346E+02  0.12243480630E+02  0.51579514692E+02  0.14098745891E+03  0.12509000000E+03 0.  0.
<mgrwt>
<rscale>  2 0.45090331E+03</rscale>
<asrwt>0</asrwt>
<pdfrwt beam="1">  1       21 0.36456069E-01 0.45090331E+03</pdfrwt>
<pdfrwt beam="2">  1       21 0.30152213E-01 0.45090331E+03</pdfrwt>
<totfact> 0.70989371E+04</totfact>
</mgrwt>
</event>
<event>
 7    0  0.4759581E-002  0.4551035E+03  0.7546771E-02  0.1026211E+00
         21   -1    0    0  502  501  0.00000000000E+00  0.00000000000E+00  0.87767435277E+02  0.87767435277E+02  0.00000000000E+00 0. -1.
         21   -1    0    0  501  502 -0.00000000000E+00 -0.00000000000E+00 -0.58996589701E+03  0.58996589701E+03  0.00000000000E+00 0. -1.
      99926    2    1    2    0    0  0.00000000000E+00  0.00000000000E+00 -0.50219846173E+03  0.67773333229E+03  0.45510347694E+03 0.  0.
      99925    2    3    3    0    0 -0.79751319095E+02  0.60618167163E+02 -0.39461544846E+03  0.48471403809E+03  0.26304279399E+03 0.  0.
         25    1    3    3    0    0  0.79751319095E+02 -0.60618167163E+02 -0.10758301327E+03  0.19301929420E+03  0.12509000000E+03 0.  0.
         25    1    4    4    0    0 -0.65396609132E+02  0.33149535417E+00 -0.18108804023E+03  0.22960229265E+03  0.12509000000E+03 0.  0.
         25    1    4    4    0    0 -0.14354709963E+02  0.60286671809E+02 -0.21352740823E+03  0.25511174544E+03  0.12509000000E+03 0.  0.
<mgrwt>
<rscale>  2 0.45510348E+03</rscale>
<asrwt>0</asrwt>
<pdfrwt beam="1">  1       21 0.12906976E-01 0.45510348E+03</pdfrwt>
<pdfrwt beam="2">  1       21 0.86759691E-01 0.45510348E+03</pdfrwt>
<totfact> 0.54085096E+04</totfact>
</mgrwt>
</event>
<event>
 7    0  0.4759581E-002  0.4452110E+03  0.7546771E-02  0.1029160E+00
         21   -1    0    0  502  501  0.00000000000E+00  0.00000000000E+00  0.14123443570E+03  0.14123443570E+03  0.00000000000E+00 0.  1.
         21   -1    0    0  501  502 -0.00000000000E+00 -0.00000000000E+00 -0.35085781115E+03  0.35085781115E+03  0.00000000000E+00 0.  1.
      99926    2    1    2    0    0  0.00000000000E+00  0.00000000000E+00 -0.20962337546E+03  0.49209224685E+03  0.44521098355E+03 0.  0.
      99925    2    3    3    0    0 -0.49304969006E+02 -0.68355338682E+02 -0.66407371530E+02  0.28409762150E+03  0.26305529315E+03 0.  0.
         25    1    3    3    0    0  0.49304969006E+02  0.68355338682E+02 -0.14321600393E+03  0.20799462535E+03  0.12509000000E+03 0.  0.
         25    1    4    4    0    0 -0.58058242694E+02 -0.60462533445E+02 -0.35400264653E+02  0.15468407912E+03  0.12509000000E+03 0.  0.
         25    1    4    4    0    0  0.87532736881E+01 -0.78928052375E+01 -0.31007106878E+02  0.12941354238E+03  0.12509000000E+03 0.  0.
<mgrwt>
<rscale>  2 0.44521098E+03</rscale>
<asrwt>0</asrwt>
<pdfrwt beam="1">  1       21 0.20769770E-01 0.44521098E+03</pdfrwt>
<pdfrwt beam="2">  1       21 0.51596736E-01 0.44521098E+03</pdfrwt>
<totfact> 0.71204189E+04</totfact>
</mgrwt>
</event>
<event>
 7    0  0.4759581E-002  0.4418863E+03  0.7546771E-02  0.1030170E+00
         21   -1    0    0  502  501  0.00000000000E+00  0.00000000000E+00  0.52713229792E+03  0.52713229792E+03  0.00000000000E+00 0.  1.
         21   -1    0    0  501  502 -0.00000000000E+00 -0.00000000000E+00 -0.92606510622E+02  0.92606510622E+02  0.00000000000E+00 0.  1.
      99926    2    1    2    0    0  0.00000000000E+00  0.00000000000E+00  0.43452578730E+03  0.61973880854E+03  0.44188633265E+03 0.  0.
      99925    2    3    3    0    0  0.53753748772E+02 -0.82028914020E+02  0.30649609160E+03  0.41563756082E+03  0.26305231334E+03 0.  0.
         25    1    4    4    0    0  0.21173121326E+02 -0.36522493794E+01  0.16851408062E+03  0.21096479199E+03  0.12509000000E+03 0.  0.
         25    1    3    3    0    0 -0.53753748772E+02  0.82028914020E+02  0.12802969570E+03  0.20410124772E+03  0.12509000000E+03 0.  0.
         25    1    4    4    0    0  0.32580627446E+02 -0.78376664641E+02  0.13798201098E+03  0.20467276883E+03  0.12509000000E+03 0.  0.
<mgrwt>
<rscale>  2 0.44188633E+03</rscale>
<asrwt>0</asrwt>
<pdfrwt beam="1">  1       21 0.77519454E-01 0.44188633E+03</pdfrwt>
<pdfrwt beam="2">  1       21 0.13618605E-01 0.44188633E+03</pdfrwt>
<totfact> 0.63837068E+04</totfact>
</mgrwt>
</event>
<event>
 7    0  0.4759581E-002  0.4513113E+03  0.7546771E-02  0.1027332E+00
         21   -1    0    0  502  501  0.00000000000E+00  0.00000000000E+00  0.31699534993E+03  0.31699534993E+03  0.00000000000E+00 0. -1.
         21   -1    0    0  501  502 -0.00000000000E+00 -0.00000000000E+00 -0.16063473829E+03  0.16063473829E+03  0.00000000000E+00 0. -1.
      99926    2    1    2    0    0  0.71054273576E-14  0.00000000000E+00  0.15636061164E+03  0.47763008822E+03  0.45131126764E+03 0.  0.
      99925    2    3    3    0    0  0.58291604173E+02 -0.40191047485E+02  0.18734810120E+03  0.33058939989E+03  0.26301484536E+03 0.  0.
         25    1    3    3    0    0 -0.58291604173E+02  0.40191047485E+02 -0.30987489560E+02  0.14704068833E+03  0.12509000000E+03 0.  0.
         25    1    4    4    0    0  0.67567801965E+02 -0.23469318304E+02  0.11828238166E+03  0.18642544535E+03  0.12509000000E+03 0.  0.
         25    1    4    4    0    0 -0.92761977918E+01 -0.16721729180E+02  0.69065719543E+02  0.14416395454E+03  0.12509000000E+03 0.  0.
<mgrwt>
<rscale>  2 0.45131127E+03</rscale>
<asrwt>0</asrwt>
<pdfrwt beam="1">  1       21 0.46616963E-01 0.45131127E+03</pdfrwt>
<pdfrwt beam="2">  1       21 0.23622756E-01 0.45131127E+03</pdfrwt>
<totfact> 0.68867394E+04</totfact>
</mgrwt>
</event>
<event>
 7    0  0.4759581E-002  0.4525091E+03  0.7546771E-02  0.1026976E+00
         21   -1    0    0  502  501  0.00000000000E+00  0.00000000000E+00  0.19785761326E+03  0.19785761326E+03  0.00000000000E+00 0. -1.
         21   -1    0    0  501  502 -0.00000000000E+00 -0.00000000000E+00 -0.25872711937E+03  0.25872711937E+03  0.00000000000E+00 0. -1.
      99926    2    1    2    0    0  0.17763568394E-14  0.00000000000E+00 -0.60869506117E+02  0.45658473263E+03  0.45250913946E+03 0.  0.
      99925    2    3    3    0    0 -0.92325669462E+01 -0.68137816052E+02  0.48946340743E+02  0.27648745173E+03  0.26328988667E+03 0.  0.
         25    1    3    3    0    0  0.92325669462E+01  0.68137816052E+02 -0.10981584686E+03  0.18009728091E+03  0.12509000000E+03 0.  0.
         25    1    4    4    0    0  0.24120760656E+02 -0.58146607642E+02  0.43064733116E+02  0.14650910693E+03  0.12509000000E+03 0.  0.
         25    1    4    4    0    0 -0.33353327602E+02 -0.99912084092E+01  0.58816076268E+01  0.12997834480E+03  0.12509000000E+03 0.  0.
<mgrwt>
<rscale>  2 0.45250914E+03</rscale>
<asrwt>0</asrwt>
<pdfrwt beam="1">  1       21 0.29096708E-01 0.45250914E+03</pdfrwt>
<pdfrwt beam="2">  1       21 0.38048106E-01 0.45250914E+03</pdfrwt>
<totfact> 0.69806555E+04</totfact>
</mgrwt>
</event>
<event>
 7    0  0.4759581E-002  0.4567756E+03  0.7546771E-02  0.1025721E+00
         21   -1    0    0  502  501  0.00000000000E+00  0.00000000000E+00  0.11895533143E+03  0.11895533143E+03  0.00000000000E+00 0.  1.
         21   -1    0    0  501  502 -0.00000000000E+00 -0.00000000000E+00 -0.43849222788E+03  0.43849222788E+03  0.00000000000E+00 0.  1.
      99926    2    1    2    0    0 -0.71054273576E-14  0.00000000000E+00 -0.31953689645E+03  0.55744755930E+03  0.45677560485E+03 0.  0.
      99925    2    3    3    0    0  0.46919800997E+02 -0.95933755351E+02 -0.14943065834E+03  0.32082889249E+03  0.26305304306E+03 0.  0.
         25    1    3    3    0    0 -0.46919800997E+02  0.95933755351E+02 -0.17010623811E+03  0.23661866681E+03  0.12509000000E+03 0.  0.
         25    1    4    4    0    0 -0.44898897365E+01 -0.68185819245E+02 -0.51469291163E+02  0.15154557430E+03  0.12509000000E+03 0.  0.
         25    1    4    4    0    0  0.51409690733E+02 -0.27747936106E+02 -0.97961367176E+02  0.16928331819E+03  0.12509000000E+03 0.  0.
<mgrwt>
<rscale>  2 0.45677560E+03</rscale>
<asrwt>0</asrwt>
<pdfrwt beam="1">  1       21 0.17493431E-01 0.45677560E+03</pdfrwt>
<pdfrwt beam="2">  1       21 0.64484151E-01 0.45677560E+03</pdfrwt>
<totfact> 0.60522461E+04</totfact>
</mgrwt>
</event>
<event>
 7    0  0.4759581E-002  0.4549171E+03  0.7546771E-02  0.1026266E+00
         21   -1    0    0  502  501  0.00000000000E+00  0.00000000000E+00  0.10543301527E+03  0.10543301527E+03  0.00000000000E+00 0.  1.
         21   -1    0    0  501  502 -0.00000000000E+00 -0.00000000000E+00 -0.49071341107E+03  0.49071341107E+03  0.00000000000E+00 0.  1.
      99926    2    1    2    0    0 -0.35527136788E-14 -0.35527136788E-14 -0.38528039579E+03  0.59614642634E+03  0.45491711141E+03 0.  0.
      99925    2    3    3    0    0 -0.23335105637E+02  0.29713984957E+02 -0.10301402329E+03  0.28510099364E+03  0.26314110193E+03 0.  0.
         25    1    3    3    0    0  0.23335105637E+02 -0.29713984957E+02 -0.28226637250E+03  0.31104543270E+03  0.12509000000E+03 0.  0.
         25    1    4    4    0    0 -0.50382949636E+02  0.19023011470E+01 -0.51584649013E+02  0.14439717614E+03  0.12509000000E+03 0.  0.
         25    1    4    4    0    0  0.27047843999E+02  0.27811683810E+02 -0.51429374280E+02  0.14070381750E+03  0.12509000000E+03 0.  0.
<mgrwt>
<rscale>  2 0.45491711E+03</rscale>
<asrwt>0</asrwt>
<pdfrwt beam="1">  1       21 0.15504855E-01 0.45491711E+03</pdfrwt>
<pdfrwt beam="2">  1       21 0.72163736E-01 0.45491711E+03</pdfrwt>
<totfact> 0.58954699E+04</totfact>
</mgrwt>
</event>
<event>
 7    0  0.4759581E-002  0.4610650E+03  0.7546771E-02  0.1024473E+00
         21   -1    0    0  502  501  0.00000000000E+00  0.00000000000E+00  0.33741876935E+02  0.33741876935E+02  0.00000000000E+00 0.  1.
         21   -1    0    0  501  502 -0.00000000000E+00 -0.00000000000E+00 -0.15750525656E+04  0.15750525656E+04  0.00000000000E+00 0.  1.
      99926    2    1    2    0    0  0.00000000000E+00  0.00000000000E+00 -0.15413106886E+04  0.16087944425E+04  0.46106498385E+03 0.  0.
      99925    2    3    3    0    0  0.11561017597E+03  0.26384484513E+02 -0.98258149026E+03  0.10240828221E+04  0.26309197578E+03 0.  0.
         25    1    4    4    0    0  0.54433175815E+02 -0.86771611287E+01 -0.60170298029E+03  0.61703504629E+03  0.12509000000E+03 0.  0.
         25    1    3    3    0    0 -0.11561017597E+03 -0.26384484513E+02 -0.55872919836E+03  0.58471162038E+03  0.12509000000E+03 0.  0.
         25    1    4    4    0    0  0.61177000160E+02  0.35061645642E+02 -0.38087850997E+03  0.40704777582E+03  0.12509000000E+03 0.  0.
<mgrwt>
<rscale>  2 0.46106498E+03</rscale>
<asrwt>0</asrwt>
<pdfrwt beam="1">  1       21 0.49620402E-02 0.46106498E+03</pdfrwt>
<pdfrwt beam="2">  1       21 0.23162540E+00 0.46106498E+03</pdfrwt>
<totfact> 0.20260717E+04</totfact>
</mgrwt>
</event>
<event>
 6    0  0.4759581E-002  0.4550877E+03  0.7546771E-02  0.1026216E+00
         21   -1    0    0  502  501  0.00000000000E+00  0.00000000000E+00  0.11167568381E+03  0.11167568381E+03  0.00000000000E+00 0. -1.
         21   -1    0    0  501  502 -0.00000000000E+00 -0.00000000000E+00 -0.46363013127E+03  0.46363013127E+03  0.00000000000E+00 0. -1.
      99926    2    1    2    0    0  0.00000000000E+00  0.00000000000E+00 -0.35195444747E+03  0.57530581508E+03  0.45508773635E+03 0.  0.
         25    1    3    3    0    0  0.14250018739E+02 -0.48013375843E+02 -0.17491475199E+02  0.13587423265E+03  0.12509000000E+03 0.  0.
         25    1    3    3    0    0 -0.24205209309E+02 -0.22224403794E+02 -0.96408591961E+02  0.16131317673E+03  0.12509000000E+03 0.  0.
         25    1    3    3    0    0  0.99551905709E+01  0.70237779637E+02 -0.23805438031E+03  0.27811840570E+03  0.12509000000E+03 0.  0.
<mgrwt>
<rscale>  2 0.45508774E+03</rscale>
<asrwt>0</asrwt>
<pdfrwt beam="1">  1       21 0.16422895E-01 0.45508774E+03</pdfrwt>
<pdfrwt beam="2">  1       21 0.68180901E-01 0.45508774E+03</pdfrwt>
<totfact> 0.60182842E+04</totfact>
</mgrwt>
</event>
<event>
 6    0  0.4759581E-002  0.4432566E+03  0.7546771E-02  0.1029752E+00
         21   -1    0    0  502  501  0.00000000000E+00  0.00000000000E+00  0.10626811950E+03  0.10626811950E+03  0.00000000000E+00 0. -1.
         21   -1    0    0  501  502 -0.00000000000E+00 -0.00000000000E+00 -0.46221872207E+03  0.46221872207E+03  0.00000000000E+00 0. -1.
      99926    2    1    2    0    0  0.35527136788E-14  0.14210854715E-13 -0.35595060257E+03  0.56848684156E+03  0.44325664976E+03 0.  0.
         25    1    3    3    0    0  0.18789725371E+02 -0.15121695793E+02 -0.13800184402E+03  0.18781303607E+03  0.12509000000E+03 0.  0.
         25    1    3    3    0    0  0.21314186827E+02  0.94864300338E+02 -0.11151192375E+03  0.19374196055E+03  0.12509000000E+03 0.  0.
         25    1    3    3    0    0 -0.40103912198E+02 -0.79742604545E+02 -0.10643683480E+03  0.18693184495E+03  0.12509000000E+03 0.  0.
<mgrwt>
<rscale>  2 0.44325665E+03</rscale>
<asrwt>0</asrwt>
<pdfrwt beam="1">  1       21 0.15627664E-01 0.44325665E+03</pdfrwt>
<pdfrwt beam="2">  1       21 0.67973343E-01 0.44325665E+03</pdfrwt>
<totfact> 0.66637192E+04</totfact>
</mgrwt>
</event>
<event>
 7    0  0.4759581E-002  0.4496221E+03  0.7546771E-02  0.1027835E+00
         21   -1    0    0  502  501  0.00000000000E+00  0.00000000000E+00  0.16002163984E+02  0.16002163984E+02  0.00000000000E+00 0. -1.
         21   -1    0    0  501  502 -0.00000000000E+00 -0.00000000000E+00 -0.31583239199E+04  0.31583239199E+04  0.00000000000E+00 0. -1.
      99926    2    1    2    0    0 -0.71054273576E-14 -0.14210854715E-13 -0.31423217559E+04  0.31743260839E+04  0.44962214039E+03 0.  0.
      99925    2    3    3    0    0  0.39908152772E+02  0.64729986187E+02 -0.25293444456E+04  0.25441107851E+04  0.26293293929E+03 0.  0.
         25    1    3    3    0    0 -0.39908152772E+02 -0.64729986187E+02 -0.61297731027E+03  0.63021529875E+03  0.12509000000E+03 0.  0.
         25    1    4    4    0    0  0.49609483875E+02  0.62116076710E+02 -0.13637706615E+04  0.13718007993E+04  0.12509000000E+03 0.  0.
         25    1    4    4    0    0 -0.97013311031E+01  0.26139094766E+01 -0.11655737842E+04  0.11723099858E+04  0.12509000000E+03 0.  0.
<mgrwt>
<rscale>  2 0.44962214E+03</rscale>
<asrwt>0</asrwt>
<pdfrwt beam="1">  1       21 0.23532573E-02 0.44962214E+03</pdfrwt>
<pdfrwt beam="2">  1       21 0.46445982E+00 0.44962214E+03</pdfrwt>
<totfact> 0.24909944E+03</totfact>
</mgrwt>
</event>
<event>
 7    0  0.4759581E-002  0.4428819E+03  0.7546771E-02  0.1029866E+00
         21   -1    0    0  502  501  0.00000000000E+00  0.00000000000E+00  0.41123479584E+03  0.41123479584E+03  0.00000000000E+00 0.  1.
         21   -1    0    0  501  502 -0.00000000000E+00 -0.00000000000E+00 -0.11924112858E+03  0.11924112858E+03  0.00000000000E+00 0.  1.
      99926    2    1    2    0    0 -0.71054273576E-14  0.00000000000E+00  0.29199366727E+03  0.53047592442E+03  0.44288193084E+03 0.  0.
      99925    2    3    3    0    0 -0.53990892331E+02  0.18960910255E+02  0.28598828508E+03  0.39278748885E+03  0.26309348077E+03 0.  0.
         25    1    4    4    0    0 -0.75239545453E+01 -0.15453731690E+02  0.98710110048E+02  0.16027046403E+03  0.12509000000E+03 0.  0.
         25    1    4    4    0    0 -0.46466937786E+02  0.34414641945E+02  0.18727817504E+03  0.23251702482E+03  0.12509000000E+03 0.  0.
         25    1    3    3    0    0  0.53990892331E+02 -0.18960910255E+02  0.60053821813E+01  0.13768843556E+03  0.12509000000E+03 0.  0.
<mgrwt>
<rscale>  2 0.44288193E+03</rscale>
<asrwt>0</asrwt>
<pdfrwt beam="1">  1       21 0.60475705E-01 0.44288193E+03</pdfrwt>
<pdfrwt beam="2">  1       21 0.17535460E-01 0.44288193E+03</pdfrwt>
<totfact> 0.69616784E+04</totfact>
</mgrwt>
</event>
<event>
 7    0  0.4759581E-002  0.4278519E+03  0.7546771E-02  0.1034541E+00
         21   -1    0    0  502  501  0.00000000000E+00  0.00000000000E+00  0.33763105471E+03  0.33763105471E+03  0.00000000000E+00 0.  1.
         21   -1    0    0  501  502 -0.00000000000E+00 -0.00000000000E+00 -0.13554531325E+03  0.13554531325E+03  0.00000000000E+00 0.  1.
      99926    2    1    2    0    0  0.00000000000E+00  0.00000000000E+00  0.20208574146E+03  0.47317636795E+03  0.42785187657E+03 0.  0.
      99925    2    3    3    0    0  0.21448368069E+02 -0.80848030851E+02  0.14833465078E+03  0.31338549076E+03  0.26307957087E+03 0.  0.
         25    1    3    3    0    0 -0.21448368069E+02  0.80848030851E+02  0.53751090686E+02  0.15979087720E+03  0.12509000000E+03 0.  0.
         25    1    4    4    0    0  0.87218190374E+01 -0.77661122870E+01  0.98528608943E+02  0.15966144653E+03  0.12509000000E+03 0.  0.
         25    1    4    4    0    0  0.12726549031E+02 -0.73081918564E+02  0.49806041833E+02  0.15372404423E+03  0.12509000000E+03 0.  0.
<mgrwt>
<rscale>  2 0.42785188E+03</rscale>
<asrwt>0</asrwt>
<pdfrwt beam="1">  1       21 0.49651626E-01 0.42785188E+03</pdfrwt>
<pdfrwt beam="2">  1       21 0.19933134E-01 0.42785188E+03</pdfrwt>
<totfact> 0.83868839E+04</totfact>
</mgrwt>
</event>
<event>
 7    0  0.4759581E-002  0.4534870E+03  0.7546771E-02  0.1026687E+00
         21   -1    0    0  502  501  0.00000000000E+00  0.00000000000E+00  0.16438836820E+03  0.16438836820E+03  0.00000000000E+00 0. -1.
         21   -1    0    0  501  502 -0.00000000000E+00 -0.00000000000E+00 -0.31275091893E+03  0.31275091893E+03  0.00000000000E+00 0. -1.
      99926    2    1    2    0    0  0.00000000000E+00 -0.35527136788E-14 -0.14836255073E+03  0.47713928713E+03  0.45348699305E+03 0.  0.
      99925    2    3    3    0    0 -0.38760942420E+02  0.74527212911E+01 -0.20344838984E+03  0.33487224428E+03  0.26304033712E+03 0.  0.
         25    1    4    4    0    0 -0.15528450716E+02  0.35974252930E+02 -0.13270627062E+03  0.18653080715E+03  0.12509000000E+03 0.  0.
         25    1    4    4    0    0 -0.23232491704E+02 -0.28521531639E+02 -0.70742119218E+02  0.14834143713E+03  0.12509000000E+03 0.  0.
         25    1    3    3    0    0  0.38760942420E+02 -0.74527212911E+01  0.55085839110E+02  0.14226704285E+03  0.12509000000E+03 0.  0.
<mgrwt>
<rscale>  2 0.45348699E+03</rscale>
<asrwt>0</asrwt>
<pdfrwt beam="1">  1       21 0.24174760E-01 0.45348699E+03</pdfrwt>
<pdfrwt beam="2">  1       21 0.45992782E-01 0.45348699E+03</pdfrwt>
<totfact> 0.67718485E+04</totfact>
</mgrwt>
</event>
<event>
 7    0  0.4759581E-002  0.4519152E+03  0.7546771E-02  0.1027152E+00
         21   -1    0    0  502  501  0.00000000000E+00  0.00000000000E+00  0.87650587821E+02  0.87650587821E+02  0.00000000000E+00 0.  1.
         21   -1    0    0  501  502 -0.00000000000E+00 -0.00000000000E+00 -0.58250415436E+03  0.58250415436E+03  0.00000000000E+00 0.  1.
      99926    2    1    2    0    0  0.00000000000E+00  0.00000000000E+00 -0.49485356653E+03  0.67015474218E+03  0.45191517584E+03 0.  0.
      99925    2    3    3    0    0 -0.75905917970E+02  0.76431124048E+02 -0.27938789734E+03  0.39872079476E+03  0.26328169304E+03 0.  0.
         25    1    4    4    0    0 -0.12967257546E+02  0.33054108257E+01 -0.13768843862E+03  0.18650654074E+03  0.12509000000E+03 0.  0.
         25    1    3    3    0    0  0.75905917970E+02 -0.76431124048E+02 -0.21546566919E+03  0.27143394741E+03  0.12509000000E+03 0.  0.
         25    1    4    4    0    0 -0.62938660424E+02  0.73125713222E+02 -0.14169945872E+03  0.21221425403E+03  0.12509000000E+03 0.  0.
<mgrwt>
<rscale>  2 0.45191518E+03</rscale>
<asrwt>0</asrwt>
<pdfrwt beam="1">  1       21 0.12889792E-01 0.45191518E+03</pdfrwt>
<pdfrwt beam="2">  1       21 0.85662377E-01 0.45191518E+03</pdfrwt>
<totfact> 0.55900431E+04</totfact>
</mgrwt>
</event>
<event>
 7    0  0.4759581E-002  0.4562034E+03  0.7546771E-02  0.1025888E+00
         21   -1    0    0  502  501  0.00000000000E+00  0.00000000000E+00  0.15346544304E+03  0.15346544304E+03  0.00000000000E+00 0. -1.
         21   -1    0    0  501  502 -0.00000000000E+00 -0.00000000000E+00 -0.33903652460E+03  0.33903652460E+03  0.00000000000E+00 0. -1.
      99926    2    1    2    0    0  0.00000000000E+00 -0.53290705182E-14 -0.18557108156E+03  0.49250196764E+03  0.45620342153E+03 0.  0.
      99925    2    3    3    0    0  0.10792058374E+03 -0.12138765308E+02 -0.15473396615E+03  0.32400081689E+03  0.26313442770E+03 0.  0.
         25    1    4    4    0    0  0.48479024749E+02  0.20333591969E+02 -0.40626921872E+02  0.14163942136E+03  0.12509000000E+03 0.  0.
         25    1    4    4    0    0  0.59441558994E+02 -0.32472357277E+02 -0.11410704428E+03  0.18236139552E+03  0.12509000000E+03 0.  0.
         25    1    3    3    0    0 -0.10792058374E+03  0.12138765308E+02 -0.30837115405E+02  0.16850115075E+03  0.12509000000E+03 0.  0.
<mgrwt>
<rscale>  2 0.45620342E+03</rscale>
<asrwt>0</asrwt>
<pdfrwt beam="1">  1       21 0.22568448E-01 0.45620342E+03</pdfrwt>
<pdfrwt beam="2">  1       21 0.49858312E-01 0.45620342E+03</pdfrwt>
<totfact> 0.65175802E+04</totfact>
</mgrwt>
</event>
<event>
 7    0  0.4759581E-002  0.4798129E+03  0.7546771E-02  0.1019187E+00
         21   -1    0    0  502  501  0.00000000000E+00  0.00000000000E+00  0.77097803576E+03  0.77097803576E+03  0.00000000000E+00 0. -1.
         21   -1    0    0  501  502 -0.00000000000E+00 -0.00000000000E+00 -0.74652053820E+02  0.74652053820E+02  0.00000000000E+00 0. -1.
      99926    2    1    2    0    0  0.14210854715E-13  0.00000000000E+00  0.69632598194E+03  0.84563008958E+03  0.47981285443E+03 0.  0.
      99925    2    3    3    0    0 -0.10729130565E+03  0.75458251399E+02  0.48645583684E+03  0.56832455794E+03  0.26296035821E+03 0.  0.
         25    1    4    4    0    0 -0.77816025986E+02  0.57597525420E+02  0.32281737159E+03  0.35948765255E+03  0.12509000000E+03 0.  0.
         25    1    3    3    0    0  0.10729130565E+03 -0.75458251399E+02  0.20987014510E+03  0.27730553164E+03  0.12509000000E+03 0.  0.
         25    1    4    4    0    0 -0.29475279669E+02  0.17860725978E+02  0.16363846525E+03  0.20883690539E+03  0.12509000000E+03 0.  0.
<mgrwt>
<rscale>  2 0.47981285E+03</rscale>
<asrwt>0</asrwt>
<pdfrwt beam="1">  1       21 0.11337912E+00 0.47981285E+03</pdfrwt>
<pdfrwt beam="2">  1       21 0.10978244E-01 0.47981285E+03</pdfrwt>
<totfact> 0.37735537E+04</totfact>
</mgrwt>
</event>
<event>
 7    0  0.4759581E-002  0.4514814E+03  0.7546771E-02  0.1027281E+00
         21   -1    0    0  502  501  0.00000000000E+00  0.00000000000E+00  0.78887786304E+02  0.78887786304E+02  0.00000000000E+00 0. -1.
         21   -1    0    0  501  502 -0.00000000000E+00 -0.00000000000E+00 -0.64596634721E+03  0.64596634721E+03  0.00000000000E+00 0. -1.
      99926    2    1    2    0    0  0.00000000000E+00  0.00000000000E+00 -0.56707856091E+03  0.72485413352E+03  0.45148136244E+03 0.  0.
      99925    2    3    3    0    0 -0.32120990002E+02 -0.65938861492E+02 -0.48925535517E+03  0.56028302152E+03  0.26299538054E+03 0.  0.
         25    1    4    4    0    0 -0.35026477803E+02 -0.66109935716E+02 -0.22796894694E+03  0.27058219937E+03  0.12509000000E+03 0.  0.
         25    1    3    3    0    0  0.32120990002E+02  0.65938861492E+02 -0.77823205740E+02  0.16457111200E+03  0.12509000000E+03 0.  0.
         25    1    4    4    0    0  0.29054878012E+01  0.17107422348E+00 -0.26128640823E+03  0.28970082214E+03  0.12509000000E+03 0.  0.
<mgrwt>
<rscale>  2 0.45148136E+03</rscale>
<asrwt>0</asrwt>
<pdfrwt beam="1">  1       21 0.11601146E-01 0.45148136E+03</pdfrwt>
<pdfrwt beam="2">  1       21 0.94995046E-01 0.45148136E+03</pdfrwt>
<totfact> 0.53026478E+04</totfact>
</mgrwt>
</event>
<event>
 7    0  0.4759581E-002  0.4740355E+03  0.7546771E-02  0.1020787E+00
         21   -1    0    0  502  501  0.00000000000E+00  0.00000000000E+00  0.22721885526E+03  0.22721885526E+03  0.00000000000E+00 0.  1.
         21   -1    0    0  501  502 -0.00000000000E+00 -0.00000000000E+00 -0.24723920932E+03  0.24723920932E+03  0.00000000000E+00 0.  1.
      99926    2    1    2    0    0  0.00000000000E+00  0.00000000000E+00 -0.20020354060E+02  0.47445806458E+03  0.47403548440E+03 0.  0.
      99925    2    3    3    0    0  0.12466916858E+03  0.18425877814E+02 -0.45123712026E+02  0.29512708218E+03  0.26302458190E+03 0.  0.
         25    1    3    3    0    0 -0.12466916858E+03 -0.18425877814E+02  0.25103357966E+02  0.17933098240E+03  0.12509000000E+03 0.  0.
         25    1    4    4    0    0  0.52021250193E+02  0.30415503344E+02 -0.55670451012E+02  0.14959284920E+03  0.12509000000E+03 0.  0.
         25    1    4    4    0    0  0.72647918388E+02 -0.11989625530E+02  0.10546738986E+02  0.14553423298E+03  0.12509000000E+03 0.  0.
<mgrwt>
<rscale>  2 0.47403548E+03</rscale>
<asrwt>0</asrwt>
<pdfrwt beam="1">  1       21 0.33414537E-01 0.47403548E+03</pdfrwt>
<pdfrwt beam="2">  1       21 0.36358707E-01 0.47403548E+03</pdfrwt>
<totfact> 0.57845509E+04</totfact>
</mgrwt>
</event>
<event>
 7    0  0.4759581E-002  0.4555442E+03  0.7546771E-02  0.1026081E+00
         21   -1    0    0  502  501  0.00000000000E+00  0.00000000000E+00  0.10845272992E+03  0.10845272992E+03  0.00000000000E+00 0. -1.
         21   -1    0    0  501  502 -0.00000000000E+00 -0.00000000000E+00 -0.47836632699E+03  0.47836632699E+03  0.00000000000E+00 0. -1.
      99926    2    1    2    0    0  0.00000000000E+00  0.00000000000E+00 -0.36991359707E+03  0.58681905691E+03  0.45554421987E+03 0.  0.
      99925    2    3    3    0    0 -0.58243472258E+02  0.92157642641E+02 -0.19346391577E+03  0.34460565661E+03  0.26351364045E+03 0.  0.
         25    1    4    4    0    0 -0.15960614120E+01  0.12755125519E+02 -0.72774002016E+02  0.14528869229E+03  0.12509000000E+03 0.  0.
         25    1    3    3    0    0  0.58243472258E+02 -0.92157642641E+02 -0.17644968130E+03  0.24221340031E+03  0.12509000000E+03 0.  0.
         25    1    4    4    0    0 -0.56647410846E+02  0.79402517122E+02 -0.12068991375E+03  0.19931696431E+03  0.12509000000E+03 0.  0.
<mgrwt>
<rscale>  2 0.45554422E+03</rscale>
<asrwt>0</asrwt>
<pdfrwt beam="1">  1       21 0.15948931E-01 0.45554422E+03</pdfrwt>
<pdfrwt beam="2">  1       21 0.70347989E-01 0.45554422E+03</pdfrwt>
<totfact> 0.59241763E+04</totfact>
</mgrwt>
</event>
<event>
 7    0  0.4759581E-002  0.4565793E+03  0.7546771E-02  0.1025778E+00
         21   -1    0    0  502  501  0.00000000000E+00  0.00000000000E+00  0.18059753788E+03  0.18059753788E+03  0.00000000000E+00 0. -1.
         21   -1    0    0  501  502 -0.00000000000E+00 -0.00000000000E+00 -0.28857622043E+03  0.28857622043E+03  0.00000000000E+00 0. -1.
      99926    2    1    2    0    0  0.14210854715E-13  0.00000000000E+00 -0.10797868255E+03  0.46917375830E+03  0.45657925883E+03 0.  0.
      99925    2    3    3    0    0  0.95685316584E+02 -0.48628703006E+02 -0.10942214630E+03  0.30434044173E+03  0.26292483299E+03 0.  0.
         25    1    3    3    0    0 -0.95685316584E+02  0.48628703006E+02  0.14434637523E+01  0.16483331658E+03  0.12509000000E+03 0.  0.
         25    1    4    4    0    0  0.60385355050E+02 -0.38194237812E+02 -0.96315484315E+02  0.17328984830E+03  0.12509000000E+03 0.  0.
         25    1    4    4    0    0  0.35299961534E+02 -0.10434465194E+02 -0.13106661983E+02  0.13105059342E+03  0.12509000000E+03 0.  0.
<mgrwt>
<rscale>  2 0.45657926E+03</rscale>
<asrwt>0</asrwt>
<pdfrwt beam="1">  1       21 0.26558461E-01 0.45657926E+03</pdfrwt>
<pdfrwt beam="2">  1       21 0.42437679E-01 0.45657926E+03</pdfrwt>
<totfact> 0.66658383E+04</totfact>
</mgrwt>
</event>
<event>
 7    0  0.4759581E-002  0.4509664E+03  0.7546771E-02  0.1027434E+00
         21   -1    0    0  502  501  0.00000000000E+00  0.00000000000E+00  0.30389362574E+02  0.30389362574E+02  0.00000000000E+00 0.  1.
         21   -1    0    0  501  502 -0.00000000000E+00 -0.00000000000E+00 -0.16730415733E+04  0.16730415733E+04  0.00000000000E+00 0.  1.
      99926    2    1    2    0    0 -0.14210854715E-13  0.00000000000E+00 -0.16426522107E+04  0.17034309358E+04  0.45096637112E+03 0.  0.
      99925    2    3    3    0    0 -0.64778241597E+02 -0.54584571993E+02 -0.12986814805E+04  0.13277461379E+04  0.26298388313E+03 0.  0.
         25    1    3    3    0    0  0.64778241597E+02  0.54584571993E+02 -0.34397073016E+03  0.37568479792E+03  0.12509000000E+03 0.  0.
         25    1    4    4    0    0  0.39616509292E+01 -0.39510743317E+02 -0.55110772640E+03  0.56651922096E+03  0.12509000000E+03 0.  0.
         25    1    4    4    0    0 -0.68739892526E+02 -0.15073828676E+02 -0.74757375412E+03  0.76122691695E+03  0.12509000000E+03 0.  0.
<mgrwt>
<rscale>  2 0.45096637E+03</rscale>
<asrwt>0</asrwt>
<pdfrwt beam="1">  1       21 0.44690237E-02 0.45096637E+03</pdfrwt>
<pdfrwt beam="2">  1       21 0.24603554E+00 0.45096637E+03</pdfrwt>
<totfact> 0.19803377E+04</totfact>
</mgrwt>
</event>
<event>
 7    0  0.4759581E-002  0.4590567E+03  0.7546771E-02  0.1025055E+00
         21   -1    0    0  502  501  0.00000000000E+00  0.00000000000E+00  0.85732121505E+02  0.85732121505E+02  0.00000000000E+00 0. -1.
         21   -1    0    0  501  502 -0.00000000000E+00 -0.00000000000E+00 -0.61451019707E+03  0.61451019707E+03  0.00000000000E+00 0. -1.
      99926    2    1    2    0    0 -0.71054273576E-14  0.00000000000E+00 -0.52877807556E+03  0.70024231857E+03  0.45905669751E+03 0.  0.
      99925    2    3    3    0    0  0.52172211414E+02 -0.77972327075E+02 -0.43819270778E+03  0.51953581512E+03  0.26287447691E+03 0.  0.
         25    1    4    4    0    0 -0.45263665206E+01 -0.38727517479E+02 -0.26010559667E+03  0.29124343447E+03  0.12509000000E+03 0.  0.
         25    1    3    3    0    0 -0.52172211414E+02  0.77972327075E+02 -0.90585367786E+02  0.18070650345E+03  0.12509000000E+03 0.  0.
         25    1    4    4    0    0  0.56698577934E+02 -0.39244809596E+02 -0.17808711110E+03  0.22829238065E+03  0.12509000000E+03 0.  0.
<mgrwt>
<rscale>  2 0.45905670E+03</rscale>
<asrwt>0</asrwt>
<pdfrwt beam="1">  1       21 0.12607665E-01 0.45905670E+03</pdfrwt>
<pdfrwt beam="2">  1       21 0.90369145E-01 0.45905670E+03</pdfrwt>
<totfact> 0.51234415E+04</totfact>
</mgrwt>
</event>
<event>
 7    0  0.4759581E-002  0.4534223E+03  0.7546771E-02  0.1026706E+00
         21   -1    0    0  502  501  0.00000000000E+00  0.00000000000E+00  0.35774286988E+02  0.35774286988E+02  0.00000000000E+00 0.  1.
         21   -1    0    0  501  502 -0.00000000000E+00 -0.00000000000E+00 -0.14367286871E+04  0.14367286871E+04  0.00000000000E+00 0.  1.
      99926    2    1    2    0    0  0.00000000000E+00 -0.71054273576E-14 -0.14009544001E+04  0.14725029741E+04  0.45342229489E+03 0.  0.
      99925    2    3    3    0    0 -0.83964411012E+02 -0.37257031594E+02 -0.67747770268E+03  0.73256774142E+03  0.26313751047E+03 0.  0.
         25    1    4    4    0    0 -0.18735840361E+02 -0.23983784229E+02 -0.41193984809E+03  0.43158799817E+03  0.12509000000E+03 0.  0.
         25    1    4    4    0    0 -0.65228570651E+02 -0.13273247365E+02 -0.26553785459E+03  0.30097974324E+03  0.12509000000E+03 0.  0.
         25    1    3    3    0    0  0.83964411012E+02  0.37257031594E+02 -0.72347669745E+03  0.73993523269E+03  0.12509000000E+03 0.  0.
<mgrwt>
<rscale>  2 0.45342229E+03</rscale>
<asrwt>0</asrwt>
<pdfrwt beam="1">  1       21 0.52609261E-02 0.45342229E+03</pdfrwt>
<pdfrwt beam="2">  1       21 0.21128357E+00 0.45342229E+03</pdfrwt>
<totfact> 0.24763251E+04</totfact>
</mgrwt>
</event>
<event>
 7    0  0.4759581E-002  0.4550671E+03  0.7546771E-02  0.1026222E+00
         21   -1    0    0  502  501  0.00000000000E+00  0.00000000000E+00  0.57570102361E+02  0.57570102361E+02  0.00000000000E+00 0.  1.
         21   -1    0    0  501  502 -0.00000000000E+00 -0.00000000000E+00 -0.89927775273E+03  0.89927775273E+03  0.00000000000E+00 0.  1.
      99926    2    1    2    0    0  0.17763568394E-14  0.00000000000E+00 -0.84170765037E+03  0.95684785509E+03  0.45506708198E+03 0.  0.
      99925    2    3    3    0    0  0.11608862555E+02  0.28706386446E+02 -0.75926180911E+03  0.80386534905E+03  0.26222544180E+03 0.  0.
         25    1    4    4    0    0 -0.56572655593E+01 -0.86105512570E+01 -0.46199635856E+03  0.47874240429E+03  0.12509000000E+03 0.  0.
         25    1    4    4    0    0  0.17266128114E+02  0.37316937703E+02 -0.29726545055E+03  0.32512294476E+03  0.12509000000E+03 0.  0.
         25    1    3    3    0    0 -0.11608862555E+02 -0.28706386446E+02 -0.82445841264E+02  0.15298250604E+03  0.12509000000E+03 0.  0.
<mgrwt>
<rscale>  2 0.45506708E+03</rscale>
<asrwt>0</asrwt>
<pdfrwt beam="1">  1       21 0.84661923E-02 0.45506708E+03</pdfrwt>
<pdfrwt beam="2">  1       21 0.13224672E+00 0.45506708E+03</pdfrwt>
<totfact> 0.40843348E+04</totfact>
</mgrwt>
</event>
<event>
 7    0  0.4759581E-002  0.4523927E+03  0.7546771E-02  0.1027011E+00
         21   -1    0    0  502  501  0.00000000000E+00  0.00000000000E+00  0.12839363181E+04  0.12839363181E+04  0.00000000000E+00 0. -1.
         21   -1    0    0  501  502 -0.00000000000E+00 -0.00000000000E+00 -0.39849939765E+02  0.39849939765E+02  0.00000000000E+00 0. -1.
      99926    2    1    2    0    0  0.00000000000E+00  0.00000000000E+00  0.12440863784E+04  0.13237862579E+04  0.45239268315E+03 0.  0.
      99925    2    3    3    0    0 -0.44908521244E+02 -0.10170727686E+02  0.48971768394E+03  0.55773152473E+03  0.26290839608E+03 0.  0.
         25    1    3    3    0    0  0.44908521244E+02  0.10170727686E+02  0.75436869444E+03  0.76605473318E+03  0.12509000000E+03 0.  0.
         25    1    4    4    0    0 -0.53341058710E+02 -0.12705718972E+02  0.30823115881E+03  0.33713596545E+03  0.12509000000E+03 0.  0.
         25    1    4    4    0    0  0.84325374659E+01  0.25349912856E+01  0.18148652513E+03  0.22059555928E+03  0.12509000000E+03 0.  0.
<mgrwt>
<rscale>  2 0.45239268E+03</rscale>
<asrwt>0</asrwt>
<pdfrwt beam="1">  1       21 0.18881414E+00 0.45239268E+03</pdfrwt>
<pdfrwt beam="2">  1       21 0.58602861E-02 0.45239268E+03</pdfrwt>
<totfact> 0.29015489E+04</totfact>
</mgrwt>
</event>
<event>
 7    0  0.4759581E-002  0.4553103E+03  0.7546771E-02  0.1026150E+00
         21   -1    0    0  502  501  0.00000000000E+00  0.00000000000E+00  0.50986617713E+03  0.50986617713E+03  0.00000000000E+00 0.  1.
         21   -1    0    0  501  502 -0.00000000000E+00 -0.00000000000E+00 -0.10164799284E+03  0.10164799284E+03  0.00000000000E+00 0.  1.
      99926    2    1    2    0    0  0.00000000000E+00  0.00000000000E+00  0.40821818429E+03  0.61151416997E+03  0.45531032724E+03 0.  0.
      99925    2    3    3    0    0  0.67078825361E+02 -0.87563508549E+02  0.29272748549E+03  0.40865326578E+03  0.26294709359E+03 0.  0.
         25    1    4    4    0    0  0.54746229103E+02 -0.82080346188E+02  0.16549450495E+03  0.22971780971E+03  0.12509000000E+03 0.  0.
         25    1    4    4    0    0  0.12332596258E+02 -0.54831623615E+01  0.12723298054E+03  0.17893545607E+03  0.12509000000E+03 0.  0.
         25    1    3    3    0    0 -0.67078825361E+02  0.87563508549E+02  0.11549069880E+03  0.20286090419E+03  0.12509000000E+03 0.  0.
<mgrwt>
<rscale>  2 0.45531033E+03</rscale>
<asrwt>0</asrwt>
<pdfrwt beam="1">  1       21 0.74980319E-01 0.45531033E+03</pdfrwt>
<pdfrwt beam="2">  1       21 0.14948234E-01 0.45531033E+03</pdfrwt>
<totfact> 0.57833194E+04</totfact>
</mgrwt>
</event>
<event>
 7    0  0.4759581E-002  0.4553106E+03  0.7546771E-02  0.1026150E+00
         21   -1    0    0  502  501  0.00000000000E+00  0.00000000000E+00  0.23489014778E+02  0.23489014778E+02  0.00000000000E+00 0.  1.
         21   -1    0    0  501  502 -0.00000000000E+00 -0.00000000000E+00 -0.22064330440E+04  0.22064330440E+04  0.00000000000E+00 0.  1.
      99926    2    1    2    0    0 -0.35527136788E-14  0.00000000000E+00 -0.21829440292E+04  0.22299220588E+04  0.45531061211E+03 0.  0.
      99925    2    3    3    0    0 -0.27058281730E+02  0.88092205961E+02 -0.10492730472E+04  0.10856538250E+04  0.26301694374E+03 0.  0.
         25    1    4    4    0    0  0.26691129108E+02  0.45097783847E+02 -0.48625568953E+03  0.50481514456E+03  0.12509000000E+03 0.  0.
         25    1    4    4    0    0 -0.53749410838E+02  0.42994422115E+02 -0.56301735770E+03  0.58083868042E+03  0.12509000000E+03 0.  0.
         25    1    3    3    0    0  0.27058281730E+02 -0.88092205961E+02 -0.11336709820E+04  0.11442682338E+04  0.12509000000E+03 0.  0.
<mgrwt>
<rscale>  2 0.45531061E+03</rscale>
<asrwt>0</asrwt>
<pdfrwt beam="1">  1       21 0.34542681E-02 0.45531061E+03</pdfrwt>
<pdfrwt beam="2">  1       21 0.32447533E+00 0.45531061E+03</pdfrwt>
<totfact> 0.10281247E+04</totfact>
</mgrwt>
</event>
<event>
 7    0  0.4759581E-002  0.4547263E+03  0.7546771E-02  0.1026322E+00
         21   -1    0    0  502  501  0.00000000000E+00  0.00000000000E+00  0.73935600367E+02  0.73935600367E+02  0.00000000000E+00 0.  1.
         21   -1    0    0  501  502 -0.00000000000E+00 -0.00000000000E+00 -0.69917603791E+03  0.69917603791E+03  0.00000000000E+00 0.  1.
      99926    2    1    2    0    0  0.00000000000E+00  0.00000000000E+00 -0.62524043754E+03  0.77311163827E+03  0.45472629185E+03 0.  0.
      99925    2    3    3    0    0  0.59023216970E+02  0.83757965388E+02 -0.47434993651E+03  0.55194521155E+03  0.26293823872E+03 0.  0.
         25    1    4    4    0    0  0.46725657353E+02  0.31812044807E+02 -0.30705952507E+03  0.33634558609E+03  0.12509000000E+03 0.  0.
         25    1    4    4    0    0  0.12297559616E+02  0.51945920581E+02 -0.16729041144E+03  0.21559962546E+03  0.12509000000E+03 0.  0.
         25    1    3    3    0    0 -0.59023216970E+02 -0.83757965388E+02 -0.15089050103E+03  0.22116642672E+03  0.12509000000E+03 0.  0.
<mgrwt>
<rscale>  2 0.45472629E+03</rscale>
<asrwt>0</asrwt>
<pdfrwt beam="1">  1       21 0.10872883E-01 0.45472629E+03</pdfrwt>
<pdfrwt beam="2">  1       21 0.10282000E+00 0.45472629E+03</pdfrwt>
<totfact> 0.49198484E+04</totfact>
</mgrwt>
</event>
<event>
 7    0  0.4759581E-002  0.4526225E+03  0.7546771E-02  0.1026943E+00
         21   -1    0    0  502  501  0.00000000000E+00  0.00000000000E+00  0.68691281188E+03  0.68691281188E+03  0.00000000000E+00 0. -1.
         21   -1    0    0  501  502 -0.00000000000E+00 -0.00000000000E+00 -0.74560827816E+02  0.74560827816E+02  0.00000000000E+00 0. -1.
      99926    2    1    2    0    0  0.00000000000E+00  0.00000000000E+00  0.61235198407E+03  0.76147363970E+03  0.45262252658E+03 0.  0.
      99925    2    3    3    0    0  0.64692414354E+02  0.36699302514E+02  0.52444992530E+03  0.59145532505E+03  0.26313443353E+03 0.  0.
         25    1    4    4    0    0  0.67527029390E+02  0.29899511359E+02  0.32381215471E+03  0.35490238111E+03  0.12509000000E+03 0.  0.
         25    1    3    3    0    0 -0.64692414354E+02 -0.36699302514E+02  0.87902058772E+02  0.17001831465E+03  0.12509000000E+03 0.  0.
         25    1    4    4    0    0 -0.28346150360E+01  0.67997911550E+01  0.20063777058E+03  0.23655294394E+03  0.12509000000E+03 0.  0.
<mgrwt>
<rscale>  2 0.45262253E+03</rscale>
<asrwt>0</asrwt>
<pdfrwt beam="1">  1       21 0.10101659E+00 0.45262253E+03</pdfrwt>
<pdfrwt beam="2">  1       21 0.10964828E-01 0.45262253E+03</pdfrwt>
<totfact> 0.50622695E+04</totfact>
</mgrwt>
</event>
<event>
 6    0  0.4759581E-002  0.4616855E+03  0.7546771E-02  0.1024294E+00
         21   -1    0    0  502  501  0.00000000000E+00  0.00000000000E+00  0.48082264908E+02  0.48082264908E+02  0.00000000000E+00 0.  1.
         21   -1    0    0  501  502 -0.00000000000E+00 -0.00000000000E+00 -0.11082750005E+04  0.11082750005E+04  0.00000000000E+00 0.  1.
      99926    2    1    2    0    0  0.00000000000E+00  0.00000000000E+00 -0.10601927356E+04  0.11563572654E+04  0.46168548674E+03 0.  0.
         25    1    3    3    0    0  0.28127208691E+02 -0.80384677706E+00 -0.31304325755E+03  0.33828298100E+03  0.12509000000E+03 0.  0.
         25    1    3    3    0    0  0.61204370622E+02 -0.59886421524E+02 -0.48539781209E+03  0.50851834043E+03  0.12509000000E+03 0.  0.
         25    1    3    3    0    0 -0.89331579313E+02  0.60690268302E+02 -0.26175166599E+03  0.30955594402E+03  0.12509000000E+03 0.  0.
<mgrwt>
<rscale>  2 0.46168549E+03</rscale>
<asrwt>0</asrwt>
<pdfrwt beam="1">  1       21 0.70709212E-02 0.46168549E+03</pdfrwt>
<pdfrwt beam="2">  1       21 0.16298162E+00 0.46168549E+03</pdfrwt>
<totfact> 0.31877296E+04</totfact>
</mgrwt>
</event>
<event>
 7    0  0.4759581E-002  0.4463232E+03  0.7546771E-02  0.1028824E+00
         21   -1    0    0  502  501  0.00000000000E+00  0.00000000000E+00  0.81361393397E+03  0.81361393397E+03  0.00000000000E+00 0.  1.
         21   -1    0    0  501  502 -0.00000000000E+00 -0.00000000000E+00 -0.61209745796E+02  0.61209745796E+02  0.00000000000E+00 0.  1.
      99926    2    1    2    0    0  0.00000000000E+00  0.00000000000E+00  0.75240418817E+03  0.87482367976E+03  0.44632321057E+03 0.  0.
      99925    2    3    3    0    0 -0.65477934646E+02 -0.32762017204E+02  0.32988335591E+03  0.42813355060E+03  0.26289655560E+03 0.  0.
         25    1    4    4    0    0 -0.56674326468E+01  0.13483465467E+02  0.16906030783E+03  0.21081465655E+03  0.12509000000E+03 0.  0.
         25    1    4    4    0    0 -0.59810501999E+02 -0.46245482670E+02  0.16082304808E+03  0.21731889405E+03  0.12509000000E+03 0.  0.
         25    1    3    3    0    0  0.65477934646E+02  0.32762017204E+02  0.42252083226E+03  0.44669012916E+03  0.12509000000E+03 0.  0.
<mgrwt>
<rscale>  2 0.44632321E+03</rscale>
<asrwt>0</asrwt>
<pdfrwt beam="1">  1       21 0.11964910E+00 0.44632321E+03</pdfrwt>
<pdfrwt beam="2">  1       21 0.90014337E-02 0.44632321E+03</pdfrwt>
<totfact> 0.47486053E+04</totfact>
</mgrwt>
</event>
<event>
 7    0  0.4759581E-002  0.4271815E+03  0.7546771E-02  0.1034754E+00
         21   -1    0    0  502  501  0.00000000000E+00  0.00000000000E+00  0.87434198870E+02  0.87434198870E+02  0.00000000000E+00 0.  1.
         21   -1    0    0  501  502 -0.00000000000E+00 -0.00000000000E+00 -0.52177529190E+03  0.52177529190E+03  0.00000000000E+00 0.  1.
      99926    2    1    2    0    0  0.00000000000E+00  0.00000000000E+00 -0.43434109303E+03  0.60920949077E+03  0.42718148198E+03 0.  0.
      99925    2    3    3    0    0  0.26660788173E+02  0.20230790352E+02 -0.17029362371E+03  0.31511995227E+03  0.26302202101E+03 0.  0.
         25    1    4    4    0    0  0.41708721537E+02 -0.92376655138E+01 -0.11178777175E+03  0.17311546993E+03  0.12509000000E+03 0.  0.
         25    1    3    3    0    0 -0.26660788173E+02 -0.20230790352E+02 -0.26404746932E+03  0.29408953851E+03  0.12509000000E+03 0.  0.
         25    1    4    4    0    0 -0.15047933364E+02  0.29468455866E+02 -0.58505851965E+02  0.14200448234E+03  0.12509000000E+03 0.  0.
<mgrwt>
<rscale>  2 0.42718148E+03</rscale>
<asrwt>0</asrwt>
<pdfrwt beam="1">  1       21 0.12857970E-01 0.42718148E+03</pdfrwt>
<pdfrwt beam="2">  1       21 0.76731661E-01 0.42718148E+03</pdfrwt>
<totfact> 0.72848515E+04</totfact>
</mgrwt>
</event>
<event>
 7    0  0.4759581E-002  0.4566382E+03  0.7546771E-02  0.1025761E+00
         21   -1    0    0  502  501  0.00000000000E+00  0.00000000000E+00  0.30019462657E+02  0.30019462657E+02  0.00000000000E+00 0.  1.
         21   -1    0    0  501  502 -0.00000000000E+00 -0.00000000000E+00 -0.17365268114E+04  0.17365268114E+04  0.00000000000E+00 0.  1.
      99926    2    1    2    0    0 -0.15543122345E-14  0.00000000000E+00 -0.17065073487E+04  0.17665462740E+04  0.45663815770E+03 0.  0.
      99925    2    3    3    0    0  0.66691572205E+00  0.91565726617E+02 -0.13392419233E+04  0.13679034165E+04  0.26307052408E+03 0.  0.
         25    1    4    4    0    0  0.23287833434E+02  0.56949128495E+02 -0.53097940961E+03  0.54897374067E+03  0.12509000000E+03 0.  0.
         25    1    4    4    0    0 -0.22620917711E+02  0.34616598122E+02 -0.80826251366E+03  0.81892967578E+03  0.12509000000E+03 0.  0.
         25    1    3    3    0    0 -0.66691572205E+00 -0.91565726617E+02 -0.36726542545E+03  0.39864285758E+03  0.12509000000E+03 0.  0.
<mgrwt>
<rscale>  2 0.45663816E+03</rscale>
<asrwt>0</asrwt>
<pdfrwt beam="1">  1       21 0.44146259E-02 0.45663816E+03</pdfrwt>
<pdfrwt beam="2">  1       21 0.25537164E+00 0.45663816E+03</pdfrwt>
<totfact> 0.17685205E+04</totfact>
</mgrwt>
</event>
<event>
 7    0  0.4759581E-002  0.4529345E+03  0.7546771E-02  0.1026851E+00
         21   -1    0    0  502  501  0.00000000000E+00  0.00000000000E+00  0.74125830526E+02  0.74125830526E+02  0.00000000000E+00 0. -1.
         21   -1    0    0  501  502 -0.00000000000E+00 -0.00000000000E+00 -0.69189662523E+03  0.69189662523E+03  0.00000000000E+00 0. -1.
      99926    2    1    2    0    0 -0.71054273576E-14 -0.14210854715E-13 -0.61777079470E+03  0.76602245575E+03  0.45293448525E+03 0.  0.
      99925    2    3    3    0    0 -0.48933860306E+02 -0.97349409759E+02 -0.35134901552E+03  0.45217615135E+03  0.26295572038E+03 0.  0.
         25    1    4    4    0    0  0.73309040457E+01 -0.41979263274E+02 -0.20638798530E+03  0.24507041698E+03  0.12509000000E+03 0.  0.
         25    1    4    4    0    0 -0.56264764351E+02 -0.55370146484E+02 -0.14496103021E+03  0.20710573437E+03  0.12509000000E+03 0.  0.
         25    1    3    3    0    0  0.48933860306E+02  0.97349409759E+02 -0.26642177918E+03  0.31384630440E+03  0.12509000000E+03 0.  0.
<mgrwt>
<rscale>  2 0.45293449E+03</rscale>
<asrwt>0</asrwt>
<pdfrwt beam="1">  1       21 0.10900857E-01 0.45293449E+03</pdfrwt>
<pdfrwt beam="2">  1       21 0.10174950E+00 0.45293449E+03</pdfrwt>
<totfact> 0.50262092E+04</totfact>
</mgrwt>
</event>
<event>
 7    0  0.4759581E-002  0.4506475E+03  0.7546771E-02  0.1027529E+00
         21   -1    0    0  502  501  0.00000000000E+00  0.00000000000E+00  0.17863098279E+04  0.17863098279E+04  0.00000000000E+00 0. -1.
         21   -1    0    0  501  502 -0.00000000000E+00 -0.00000000000E+00 -0.28422167297E+02  0.28422167297E+02  0.00000000000E+00 0. -1.
      99926    2    1    2    0    0  0.00000000000E+00 -0.14210854715E-13  0.17578876606E+04  0.18147319952E+04  0.45064751979E+03 0.  0.
      99925    2    3    3    0    0 -0.51177325368E+02 -0.92331887936E+02  0.10020857400E+04  0.10414090695E+04  0.26308311142E+03 0.  0.
         25    1    4    4    0    0 -0.38932342078E+02 -0.87147864120E+02  0.53172133850E+03  0.55451381173E+03  0.12509000000E+03 0.  0.
         25    1    4    4    0    0 -0.12244983291E+02 -0.51840238157E+01  0.47036440150E+03  0.48689525775E+03  0.12509000000E+03 0.  0.
         25    1    3    3    0    0  0.51177325368E+02  0.92331887936E+02  0.75580192063E+03  0.77332292575E+03  0.12509000000E+03 0.  0.
<mgrwt>
<rscale>  2 0.45064752E+03</rscale>
<asrwt>0</asrwt>
<pdfrwt beam="1">  1       21 0.26269255E+00 0.45064752E+03</pdfrwt>
<pdfrwt beam="2">  1       21 0.41797317E-02 0.45064752E+03</pdfrwt>
<totfact> 0.17564017E+04</totfact>
</mgrwt>
</event>
<event>
 7    0  0.4759581E-002  0.4682837E+03  0.7546771E-02  0.1022406E+00
         21   -1    0    0  502  501  0.00000000000E+00  0.00000000000E+00  0.86020273786E+03  0.86020273786E+03  0.00000000000E+00 0.  1.
         21   -1    0    0  501  502 -0.00000000000E+00 -0.00000000000E+00 -0.63731955914E+02  0.63731955914E+02  0.00000000000E+00 0.  1.
      99926    2    1    2    0    0  0.00000000000E+00  0.00000000000E+00  0.79647078195E+03  0.92393469377E+03  0.46828368738E+03 0.  0.
      99925    2    3    3    0    0  0.42302792819E+02  0.69166049515E+02  0.30742037466E+03  0.41267030263E+03  0.26308938259E+03 0.  0.
         25    1    3    3    0    0 -0.42302792819E+02 -0.69166049515E+02  0.48905040729E+03  0.51126439115E+03  0.12509000000E+03 0.  0.
         25    1    4    4    0    0  0.33840338337E+02 -0.34096330835E+01  0.16093126405E+03  0.20664746295E+03  0.12509000000E+03 0.  0.
         25    1    4    4    0    0  0.84624544820E+01  0.72575682599E+02  0.14648911061E+03  0.20602283967E+03  0.12509000000E+03 0.  0.
<mgrwt>
<rscale>  2 0.46828369E+03</rscale>
<asrwt>0</asrwt>
<pdfrwt beam="1">  1       21 0.12650040E+00 0.46828369E+03</pdfrwt>
<pdfrwt beam="2">  1       21 0.93723470E-02 0.46828369E+03</pdfrwt>
<totfact> 0.38096950E+04</totfact>
</mgrwt>
</event>
<event>
 7    0  0.4759581E-002  0.4545521E+03  0.7546771E-02  0.1026373E+00
         21   -1    0    0  502  501  0.00000000000E+00  0.00000000000E+00  0.57599784555E+02  0.57599784555E+02  0.00000000000E+00 0. -1.
         21   -1    0    0  501  502 -0.00000000000E+00 -0.00000000000E+00 -0.89678121139E+03  0.89678121139E+03  0.00000000000E+00 0. -1.
      99926    2    1    2    0    0  0.14210854715E-13  0.71054273576E-14 -0.83918142684E+03  0.95438099595E+03  0.45455210733E+03 0.  0.
      99925    2    3    3    0    0  0.10244516204E+03  0.46415046032E+02 -0.51142422800E+03  0.58597679237E+03  0.26299181069E+03 0.  0.
         25    1    4    4    0    0  0.28564770362E+02  0.50973294427E+02 -0.20972537505E+03  0.25109054918E+03  0.12509000000E+03 0.  0.
         25    1    4    4    0    0  0.73880391677E+02 -0.45582483949E+01 -0.30169885296E+03  0.33488624319E+03  0.12509000000E+03 0.  0.
         25    1    3    3    0    0 -0.10244516204E+03 -0.46415046032E+02 -0.32775719884E+03  0.36840420358E+03  0.12509000000E+03 0.  0.
<mgrwt>
<rscale>  2 0.45455211E+03</rscale>
<asrwt>0</asrwt>
<pdfrwt beam="1">  1       21 0.84705566E-02 0.45455211E+03</pdfrwt>
<pdfrwt beam="2">  1       21 0.13187959E+00 0.45455211E+03</pdfrwt>
<totfact> 0.41107707E+04</totfact>
</mgrwt>
</event>
<event>
 7    0  0.4759581E-002  0.4497108E+03  0.7546771E-02  0.1027808E+00
         21   -1    0    0  502  501  0.00000000000E+00  0.00000000000E+00  0.43809795133E+03  0.43809795133E+03  0.00000000000E+00 0. -1.
         21   -1    0    0  501  502 -0.00000000000E+00 -0.00000000000E+00 -0.11540785066E+03  0.11540785066E+03  0.00000000000E+00 0. -1.
      99926    2    1    2    0    0  0.00000000000E+00  0.00000000000E+00  0.32269010067E+03  0.55350580199E+03  0.44971076457E+03 0.  0.
      99925    2    3    3    0    0  0.83645759599E+01 -0.47553169676E+02  0.84941825977E+02  0.28055338802E+03  0.26299015124E+03 0.  0.
         25    1    4    4    0    0  0.20244283998E+02 -0.19846712623E+02  0.35714591647E+01  0.12831206669E+03  0.12509000000E+03 0.  0.
         25    1    3    3    0    0 -0.83645759599E+01  0.47553169676E+02  0.23774827469E+03  0.27295241398E+03  0.12509000000E+03 0.  0.
         25    1    4    4    0    0 -0.11879708038E+02 -0.27706457053E+02  0.81370366813E+02  0.15224132133E+03  0.12509000000E+03 0.  0.
<mgrwt>
<rscale>  2 0.44971076E+03</rscale>
<asrwt>0</asrwt>
<pdfrwt beam="1">  1       21 0.64426169E-01 0.44971076E+03</pdfrwt>
<pdfrwt beam="2">  1       21 0.16971743E-01 0.44971076E+03</pdfrwt>
<totfact> 0.64283366E+04</totfact>
</mgrwt>
</event>
<event>
 7    0  0.4759581E-002  0.4554346E+03  0.7546771E-02  0.1026114E+00
         21   -1    0    0  502  501  0.00000000000E+00  0.00000000000E+00  0.55669023144E+03  0.55669023144E+03  0.00000000000E+00 0. -1.
         21   -1    0    0  501  502 -0.00000000000E+00 -0.00000000000E+00 -0.93149063419E+02  0.93149063419E+02  0.00000000000E+00 0. -1.
      99926    2    1    2    0    0  0.44408920985E-14 -0.14210854715E-13  0.46354116802E+03  0.64983929486E+03  0.45543462175E+03 0.  0.
      99925    2    3    3    0    0  0.70771890578E+01 -0.77258352276E+02  0.40988264896E+03  0.49316867104E+03  0.26304488698E+03 0.  0.
         25    1    4    4    0    0  0.38981422448E+02 -0.45451429625E+02  0.24310808810E+03  0.27988289399E+03  0.12509000000E+03 0.  0.
         25    1    3    3    0    0 -0.70771890578E+01  0.77258352276E+02  0.53658519054E+02  0.15667062382E+03  0.12509000000E+03 0.  0.
         25    1    4    4    0    0 -0.31904233391E+02 -0.31806922651E+02  0.16677456087E+03  0.21328577704E+03  0.12509000000E+03 0.  0.
<mgrwt>
<rscale>  2 0.45543462E+03</rscale>
<asrwt>0</asrwt>
<pdfrwt beam="1">  1       21 0.81866209E-01 0.45543462E+03</pdfrwt>
<pdfrwt beam="2">  1       21 0.13698392E-01 0.45543462E+03</pdfrwt>
<totfact> 0.55520141E+04</totfact>
</mgrwt>
</event>
<event>
 7    0  0.4759581E-002  0.4505801E+03  0.7546771E-02  0.1027549E+00
         21   -1    0    0  502  501  0.00000000000E+00  0.00000000000E+00  0.59468356720E+03  0.59468356720E+03  0.00000000000E+00 0.  1.
         21   -1    0    0  501  502 -0.00000000000E+00 -0.00000000000E+00 -0.85348928996E+02  0.85348928996E+02  0.00000000000E+00 0.  1.
      99926    2    1    2    0    0  0.71054273576E-14  0.00000000000E+00  0.50933463820E+03  0.68003249619E+03  0.45058009522E+03 0.  0.
      99925    2    3    3    0    0  0.38493173950E+02  0.88248654839E+02  0.24456586050E+03  0.37178006187E+03  0.26294182771E+03 0.  0.
         25    1    4    4    0    0 -0.15316165444E+02  0.20261670460E+02  0.10510374412E+03  0.16534637988E+03  0.12509000000E+03 0.  0.
         25    1    3    3    0    0 -0.38493173950E+02 -0.88248654839E+02  0.26476877770E+03  0.30825243432E+03  0.12509000000E+03 0.  0.
         25    1    4    4    0    0  0.53809339394E+02  0.67986984379E+02  0.13946211639E+03  0.20643368198E+03  0.12509000000E+03 0.  0.
<mgrwt>
<rscale>  2 0.45058010E+03</rscale>
<asrwt>0</asrwt>
<pdfrwt beam="1">  1       21 0.87453463E-01 0.45058010E+03</pdfrwt>
<pdfrwt beam="2">  1       21 0.12551313E-01 0.45058010E+03</pdfrwt>
<totfact> 0.55921912E+04</totfact>
</mgrwt>
</event>
<event>
 7    0  0.4759581E-002  0.4491508E+03  0.7546771E-02  0.1027976E+00
         21   -1    0    0  502  501  0.00000000000E+00  0.00000000000E+00  0.79726808243E+02  0.79726808243E+02  0.00000000000E+00 0. -1.
         21   -1    0    0  501  502 -0.00000000000E+00 -0.00000000000E+00 -0.63258664094E+03  0.63258664094E+03  0.00000000000E+00 0. -1.
      99926    2    1    2    0    0  0.00000000000E+00  0.14210854715E-13 -0.55285983270E+03  0.71231344919E+03  0.44915081574E+03 0.  0.
      99925    2    3    3    0    0  0.57358205213E+02  0.90424001852E+02 -0.36333662438E+03  0.46124967560E+03  0.26319440877E+03 0.  0.
         25    1    4    4    0    0  0.40126867190E+01  0.28440397246E+02 -0.21682315913E+03  0.25196179926E+03  0.12509000000E+03 0.  0.
         25    1    4    4    0    0  0.53345518494E+02  0.61983604607E+02 -0.14651346525E+03  0.20928787634E+03  0.12509000000E+03 0.  0.
         25    1    3    3    0    0 -0.57358205213E+02 -0.90424001852E+02 -0.18952320832E+03  0.25106377359E+03  0.12509000000E+03 0.  0.
<mgrwt>
<rscale>  2 0.44915082E+03</rscale>
<asrwt>0</asrwt>
<pdfrwt beam="1">  1       21 0.11724530E-01 0.44915082E+03</pdfrwt>
<pdfrwt beam="2">  1       21 0.93027450E-01 0.44915082E+03</pdfrwt>
<totfact> 0.54714124E+04</totfact>
</mgrwt>
</event>
<event>
 6    0  0.4759581E-002  0.4549278E+03  0.7546771E-02  0.1026263E+00
         21   -1    0    0  502  501  0.00000000000E+00  0.00000000000E+00  0.15722557379E+04  0.15722557379E+04  0.00000000000E+00 0. -1.
         21   -1    0    0  501  502 -0.00000000000E+00 -0.00000000000E+00 -0.32908024272E+02  0.32908024272E+02  0.00000000000E+00 0. -1.
      99926    2    1    2    0    0  0.00000000000E+00  0.88817841970E-15  0.15393477137E+04  0.16051637622E+04  0.45492781838E+03 0.  0.
         25    1    3    3    0    0  0.10268612472E+03 -0.10895371448E+02  0.43423759594E+03  0.46354389992E+03  0.12509000000E+03 0.  0.
         25    1    3    3    0    0 -0.10143151139E+03  0.56134194439E+01  0.61099925495E+03  0.63189196832E+03  0.12509000000E+03 0.  0.
         25    1    3    3    0    0 -0.12546133289E+01  0.52819520043E+01  0.49411086277E+03  0.50972789396E+03  0.12509000000E+03 0.  0.
<mgrwt>
<rscale>  2 0.45492782E+03</rscale>
<asrwt>0</asrwt>
<pdfrwt beam="1">  1       21 0.23121403E+00 0.45492782E+03</pdfrwt>
<pdfrwt beam="2">  1       21 0.48394164E-02 0.45492782E+03</pdfrwt>
<totfact> 0.21325308E+04</totfact>
</mgrwt>
</event>
<event>
 7    0  0.4759581E-002  0.4505399E+03  0.7546771E-02  0.1027561E+00
         21   -1    0    0  502  501  0.00000000000E+00  0.00000000000E+00  0.22377050265E+04  0.22377050265E+04  0.00000000000E+00 0.  1.
         21   -1    0    0  501  502 -0.00000000000E+00 -0.00000000000E+00 -0.22677946492E+02  0.22677946492E+02  0.00000000000E+00 0.  1.
      99926    2    1    2    0    0  0.00000000000E+00  0.71054273576E-14  0.22150270800E+04  0.22603829730E+04  0.45053991990E+03 0.  0.
      99925    2    3    3    0    0  0.10168030161E+03 -0.36728861219E+02  0.13276776477E+04  0.13577621134E+04  0.26287283524E+03 0.  0.
         25    1    3    3    0    0 -0.10168030161E+03  0.36728861219E+02  0.88734943230E+03  0.90262085954E+03  0.12509000000E+03 0.  0.
         25    1    4    4    0    0  0.24461643813E+02  0.14134114491E+01  0.48281407822E+03  0.49935689840E+03  0.12509000000E+03 0.  0.
         25    1    4    4    0    0  0.77218657800E+02 -0.38142272668E+02  0.84486356948E+03  0.85840521504E+03  0.12509000000E+03 0.  0.
<mgrwt>
<rscale>  2 0.45053992E+03</rscale>
<asrwt>0</asrwt>
<pdfrwt beam="1">  1       21 0.32907412E+00 0.45053992E+03</pdfrwt>
<pdfrwt beam="2">  1       21 0.33349937E-02 0.45053992E+03</pdfrwt>
<totfact> 0.10256066E+04</totfact>
</mgrwt>
</event>
<event>
 7    0  0.4759581E-002  0.4502474E+03  0.7546771E-02  0.1027648E+00
         21   -1    0    0  502  501  0.00000000000E+00  0.00000000000E+00  0.10844727266E+03  0.10844727266E+03  0.00000000000E+00 0. -1.
         21   -1    0    0  501  502 -0.00000000000E+00 -0.00000000000E+00 -0.46733016471E+03  0.46733016471E+03  0.00000000000E+00 0. -1.
      99926    2    1    2    0    0  0.00000000000E+00  0.00000000000E+00 -0.35888289205E+03  0.57577743737E+03  0.45024740663E+03 0.  0.
      99925    2    3    3    0    0  0.85654647865E+02 -0.45804943045E+02 -0.28876224505E+03  0.40257459459E+03  0.26314987847E+03 0.  0.
         25    1    3    3    0    0 -0.85654647865E+02  0.45804943045E+02 -0.70120646999E+02  0.17320284277E+03  0.12509000000E+03 0.  0.
         25    1    4    4    0    0  0.60401732511E+02 -0.20416855623E+02 -0.20268688973E+03  0.24656581404E+03  0.12509000000E+03 0.  0.
         25    1    4    4    0    0  0.25252915355E+02 -0.25388087422E+02 -0.86075355319E+02  0.15600878055E+03  0.12509000000E+03 0.  0.
<mgrwt>
<rscale>  2 0.45024741E+03</rscale>
<asrwt>0</asrwt>
<pdfrwt beam="1">  1       21 0.15948129E-01 0.45024741E+03</pdfrwt>
<pdfrwt beam="2">  1       21 0.68725023E-01 0.45024741E+03</pdfrwt>
<totfact> 0.62510578E+04</totfact>
</mgrwt>
</event>
<event>
 7    0  0.4759581E-002  0.4474542E+03  0.7546771E-02  0.1028484E+00
         21   -1    0    0  502  501  0.00000000000E+00  0.00000000000E+00  0.30868007764E+02  0.30868007764E+02  0.00000000000E+00 0. -1.
         21   -1    0    0  501  502 -0.00000000000E+00 -0.00000000000E+00 -0.16215437297E+04  0.16215437297E+04  0.00000000000E+00 0. -1.
      99926    2    1    2    0    0  0.00000000000E+00  0.00000000000E+00 -0.15906757220E+04  0.16524117375E+04  0.44745424096E+03 0.  0.
      99925    2    3    3    0    0  0.52661948628E+02 -0.78048645190E+02 -0.11870322363E+04  0.12194678110E+04  0.26304246853E+03 0.  0.
         25    1    4    4    0    0  0.27728193213E+02 -0.52469043695E+02 -0.44246111500E+03  0.46361751438E+03  0.12509000000E+03 0.  0.
         25    1    4    4    0    0  0.24933755415E+02 -0.25579601496E+02 -0.74457112128E+03  0.75585029663E+03  0.12509000000E+03 0.  0.
         25    1    3    3    0    0 -0.52661948628E+02  0.78048645190E+02 -0.40364348567E+03  0.43294392648E+03  0.12509000000E+03 0.  0.
<mgrwt>
<rscale>  2 0.44745424E+03</rscale>
<asrwt>0</asrwt>
<pdfrwt beam="1">  1       21 0.45394128E-02 0.44745424E+03</pdfrwt>
<pdfrwt beam="2">  1       21 0.23846232E+00 0.44745424E+03</pdfrwt>
<totfact> 0.21503448E+04</totfact>
</mgrwt>
</event>
<event>
 7    0  0.4759581E-002  0.4425355E+03  0.7546771E-02  0.1029972E+00
         21   -1    0    0  502  501  0.00000000000E+00  0.00000000000E+00  0.27668962433E+03  0.27668962433E+03  0.00000000000E+00 0.  1.
         21   -1    0    0  501  502 -0.00000000000E+00 -0.00000000000E+00 -0.17694708450E+03  0.17694708450E+03  0.00000000000E+00 0.  1.
      99926    2    1    2    0    0  0.00000000000E+00 -0.14210854715E-13  0.99742539829E+02  0.45363670884E+03  0.44253552327E+03 0.  0.
      99925    2    3    3    0    0  0.28565787704E+02 -0.90155341678E+02  0.99956608483E+02  0.29681979717E+03  0.26299558656E+03 0.  0.
         25    1    4    4    0    0 -0.87020263494E+01 -0.15321585876E+02  0.25188815471E+02  0.12881172610E+03  0.12509000000E+03 0.  0.
         25    1    4    4    0    0  0.37267814053E+02 -0.74833755801E+02  0.74767793012E+02  0.16800807107E+03  0.12509000000E+03 0.  0.
         25    1    3    3    0    0 -0.28565787704E+02  0.90155341678E+02 -0.21406865378E+00  0.15681691167E+03  0.12509000000E+03 0.  0.
<mgrwt>
<rscale>  2 0.44253552E+03</rscale>
<asrwt>0</asrwt>
<pdfrwt beam="1">  1       21 0.40689651E-01 0.44253552E+03</pdfrwt>
<pdfrwt beam="2">  1       21 0.26021630E-01 0.44253552E+03</pdfrwt>
<totfact> 0.75903824E+04</totfact>
</mgrwt>
</event>
<event>
 7    0  0.4759581E-002  0.4425149E+03  0.7546771E-02  0.1029978E+00
         21   -1    0    0  502  501  0.00000000000E+00  0.00000000000E+00  0.79172414775E+02  0.79172414775E+02  0.00000000000E+00 0. -1.
         21   -1    0    0  501  502 -0.00000000000E+00 -0.00000000000E+00 -0.61833227726E+03  0.61833227726E+03  0.00000000000E+00 0. -1.
      99926    2    1    2    0    0  0.00000000000E+00  0.00000000000E+00 -0.53915986249E+03  0.69750469204E+03  0.44251490155E+03 0.  0.
      99925    2    3    3    0    0 -0.78928077897E+02 -0.17066977592E+02 -0.24759249912E+03  0.37012118805E+03  0.26299567490E+03 0.  0.
         25    1    3    3    0    0  0.78928077897E+02  0.17066977592E+02 -0.29156736337E+03  0.32738350399E+03  0.12509000000E+03 0.  0.
         25    1    4    4    0    0 -0.17444421928E+02 -0.42510833630E+02 -0.11361662330E+03  0.17512202609E+03  0.12509000000E+03 0.  0.
         25    1    4    4    0    0 -0.61483655968E+02  0.25443856038E+02 -0.13397587582E+03  0.19499916196E+03  0.12509000000E+03 0.  0.
<mgrwt>
<rscale>  2 0.44251490E+03</rscale>
<asrwt>0</asrwt>
<pdfrwt beam="1">  1       21 0.11643002E-01 0.44251490E+03</pdfrwt>
<pdfrwt beam="2">  1       21 0.90931217E-01 0.44251490E+03</pdfrwt>
<totfact> 0.58586593E+04</totfact>
</mgrwt>
</event>
<event>
 7    0  0.4759581E-002  0.4471890E+03  0.7546771E-02  0.1028564E+00
         21   -1    0    0  502  501  0.00000000000E+00  0.00000000000E+00  0.82374375791E+03  0.82374375791E+03  0.00000000000E+00 0.  1.
         21   -1    0    0  501  502 -0.00000000000E+00 -0.00000000000E+00 -0.60691805937E+02  0.60691805937E+02  0.00000000000E+00 0.  1.
      99926    2    1    2    0    0  0.00000000000E+00 -0.17763568394E-14  0.76305195198E+03  0.88443556385E+03  0.44718898152E+03 0.  0.
      99925    2    3    3    0    0 -0.10353072339E+03  0.15355371223E+02  0.52368942291E+03  0.59478693787E+03  0.26185204159E+03 0.  0.
         25    1    4    4    0    0 -0.73268909329E+02 -0.57360672449E+01  0.33853526668E+03  0.36831354907E+03  0.12509000000E+03 0.  0.
         25    1    3    3    0    0  0.10353072339E+03 -0.15355371223E+02  0.23936252907E+03  0.28964862598E+03  0.12509000000E+03 0.  0.
         25    1    4    4    0    0 -0.30261814057E+02  0.21091438468E+02  0.18515415623E+03  0.22647338880E+03  0.12509000000E+03 0.  0.
<mgrwt>
<rscale>  2 0.44718898E+03</rscale>
<asrwt>0</asrwt>
<pdfrwt beam="1">  1       21 0.12113878E+00 0.44718898E+03</pdfrwt>
<pdfrwt beam="2">  1       21 0.89252661E-02 0.44718898E+03</pdfrwt>
<totfact> 0.46705620E+04</totfact>
</mgrwt>
</event>
<event>
 7    0  0.4759581E-002  0.4475156E+03  0.7546771E-02  0.1028466E+00
         21   -1    0    0  502  501  0.00000000000E+00  0.00000000000E+00  0.16052606332E+03  0.16052606332E+03  0.00000000000E+00 0. -1.
         21   -1    0    0  501  502 -0.00000000000E+00 -0.00000000000E+00 -0.31189666685E+03  0.31189666685E+03  0.00000000000E+00 0. -1.
      99926    2    1    2    0    0  0.00000000000E+00 -0.35527136788E-14 -0.15137060353E+03  0.47242273017E+03  0.44751555991E+03 0.  0.
      99925    2    3    3    0    0  0.10095063079E+03  0.31302006054E+02 -0.10069247278E+03  0.30099745059E+03  0.26322926461E+03 0.  0.
         25    1    4    4    0    0  0.51533068995E+02  0.52917677244E+01 -0.92080333249E+02  0.16373746021E+03  0.12509000000E+03 0.  0.
         25    1    4    4    0    0  0.49417561797E+02  0.26010238330E+02 -0.86121395292E+01  0.13725999038E+03  0.12509000000E+03 0.  0.
         25    1    3    3    0    0 -0.10095063079E+03 -0.31302006054E+02 -0.50678130750E+02  0.17142527957E+03  0.12509000000E+03 0.  0.
<mgrwt>
<rscale>  2 0.44751556E+03</rscale>
<asrwt>0</asrwt>
<pdfrwt beam="1">  1       21 0.23606774E-01 0.44751556E+03</pdfrwt>
<pdfrwt beam="2">  1       21 0.45867157E-01 0.44751556E+03</pdfrwt>
<totfact> 0.71404002E+04</totfact>
</mgrwt>
</event>
<event>
 7    0  0.4759581E-002  0.4563664E+03  0.7546771E-02  0.1025840E+00
         21   -1    0    0  502  501  0.00000000000E+00  0.00000000000E+00  0.54701074245E+03  0.54701074245E+03  0.00000000000E+00 0.  1.
         21   -1    0    0  501  502 -0.00000000000E+00 -0.00000000000E+00 -0.95185658677E+02  0.95185658677E+02  0.00000000000E+00 0.  1.
      99926    2    1    2    0    0  0.44408920985E-15  0.00000000000E+00  0.45182508377E+03  0.64219640112E+03  0.45636642218E+03 0.  0.
      99925    2    3    3    0    0  0.38678266078E+01  0.41719784014E+02  0.43372284156E+03  0.50903972749E+03  0.26315478413E+03 0.  0.
         25    1    3    3    0    0 -0.38678266078E+01 -0.41719784014E+02  0.18102242215E+02  0.13315667364E+03  0.12509000000E+03 0.  0.
         25    1    4    4    0    0  0.24418287502E+02  0.12859071171E+02  0.27860785617E+03  0.30664548602E+03  0.12509000000E+03 0.  0.
         25    1    4    4    0    0 -0.20550460895E+02  0.28860712843E+02  0.15511498539E+03  0.20239424147E+03  0.12509000000E+03 0.  0.
<mgrwt>
<rscale>  2 0.45636642E+03</rscale>
<asrwt>0</asrwt>
<pdfrwt beam="1">  1       21 0.80442755E-01 0.45636642E+03</pdfrwt>
<pdfrwt beam="2">  1       21 0.13997891E-01 0.45636642E+03</pdfrwt>
<totfact> 0.55551889E+04</totfact>
</mgrwt>
</event>
<event>
 7    0  0.4759581E-002  0.4641644E+03  0.7546771E-02  0.1023580E+00
         21   -1    0    0  502  501  0.00000000000E+00  0.00000000000E+00  0.11615216886E+03  0.11615216886E+03  0.00000000000E+00 0. -1.
         21   -1    0    0  501  502 -0.00000000000E+00 -0.00000000000E+00 -0.46372064016E+03  0.46372064016E+03  0.00000000000E+00 0. -1.
      99926    2    1    2    0    0 -0.14210854715E-13  0.00000000000E+00 -0.34756847130E+03  0.57987280902E+03  0.46416444543E+03 0.  0.
      99925    2    3    3    0    0  0.89164077998E+02 -0.33789064142E+02 -0.31121353242E+03  0.41843822988E+03  0.26295390434E+03 0.  0.
         25    1    4    4    0    0  0.11326586658E+02 -0.38198636784E+02 -0.16458514620E+03  0.21053077178E+03  0.12509000000E+03 0.  0.
         25    1    4    4    0    0  0.77837491339E+02  0.44095726417E+01 -0.14662838622E+03  0.20790745811E+03  0.12509000000E+03 0.  0.
         25    1    3    3    0    0 -0.89164077998E+02  0.33789064142E+02 -0.36354938881E+02  0.16143457914E+03  0.12509000000E+03 0.  0.
<mgrwt>
<rscale>  2 0.46416445E+03</rscale>
<asrwt>0</asrwt>
<pdfrwt beam="1">  1       21 0.17081202E-01 0.46416445E+03</pdfrwt>
<pdfrwt beam="2">  1       21 0.68194210E-01 0.46416445E+03</pdfrwt>
<totfact> 0.55781756E+04</totfact>
</mgrwt>
</event>
<event>
 7    0  0.4759581E-002  0.4534639E+03  0.7546771E-02  0.1026694E+00
         21   -1    0    0  502  501  0.00000000000E+00  0.00000000000E+00  0.19153479931E+03  0.19153479931E+03  0.00000000000E+00 0.  1.
         21   -1    0    0  501  502 -0.00000000000E+00 -0.00000000000E+00 -0.26839707793E+03  0.26839707793E+03  0.00000000000E+00 0.  1.
      99926    2    1    2    0    0 -0.14210854715E-13  0.00000000000E+00 -0.76862278624E+02  0.45993187724E+03  0.45346391458E+03 0.  0.
      99925    2    3    3    0    0 -0.83719699651E+02  0.73997439159E+02 -0.50002928589E+02  0.29006857368E+03  0.26297314589E+03 0.  0.
         25    1    3    3    0    0  0.83719699651E+02 -0.73997439159E+02 -0.26859350035E+02  0.16986330356E+03  0.12509000000E+03 0.  0.
         25    1    4    4    0    0 -0.16655739936E+02  0.18998022146E+01 -0.15274051219E+02  0.12712917707E+03  0.12509000000E+03 0.  0.
         25    1    4    4    0    0 -0.67063959715E+02  0.72097636945E+02 -0.34728877371E+02  0.16293939661E+03  0.12509000000E+03 0.  0.
<mgrwt>
<rscale>  2 0.45346391E+03</rscale>
<asrwt>0</asrwt>
<pdfrwt beam="1">  1       21 0.28166883E-01 0.45346391E+03</pdfrwt>
<pdfrwt beam="2">  1       21 0.39470158E-01 0.45346391E+03</pdfrwt>
<totfact> 0.69026998E+04</totfact>
</mgrwt>
</event>
<event>
 7    0  0.4759581E-002  0.4449326E+03  0.7546771E-02  0.1029244E+00
         21   -1    0    0  502  501  0.00000000000E+00  0.00000000000E+00  0.98812015863E+02  0.98812015863E+02  0.00000000000E+00 0.  1.
         21   -1    0    0  501  502 -0.00000000000E+00 -0.00000000000E+00 -0.50086269844E+03  0.50086269844E+03  0.00000000000E+00 0.  1.
      99926    2    1    2    0    0 -0.71054273576E-14  0.00000000000E+00 -0.40205068258E+03  0.59967471430E+03  0.44493259221E+03 0.  0.
      99925    2    3    3    0    0  0.39828777858E+02 -0.82747911789E+02 -0.19115835685E+03  0.33784150480E+03  0.26298634283E+03 0.  0.
         25    1    3    3    0    0 -0.39828777858E+02  0.82747911789E+02 -0.21089232572E+03  0.26183320951E+03  0.12509000000E+03 0.  0.
         25    1    4    4    0    0 -0.14508177194E+02 -0.39128807049E+02 -0.11843217625E+03  0.17724344619E+03  0.12509000000E+03 0.  0.
         25    1    4    4    0    0  0.54336955053E+02 -0.43619104740E+02 -0.72726180608E+02  0.16059805861E+03  0.12509000000E+03 0.  0.
<mgrwt>
<rscale>  2 0.44493259E+03</rscale>
<asrwt>0</asrwt>
<pdfrwt beam="1">  1       21 0.14531179E-01 0.44493259E+03</pdfrwt>
<pdfrwt beam="2">  1       21 0.73656277E-01 0.44493259E+03</pdfrwt>
<totfact> 0.63608891E+04</totfact>
</mgrwt>
</event>
<event>
 7    0  0.4759581E-002  0.4451461E+03  0.7546771E-02  0.1029179E+00
         21   -1    0    0  502  501  0.00000000000E+00  0.00000000000E+00  0.59335365215E+02  0.59335365215E+02  0.00000000000E+00 0. -1.
         21   -1    0    0  501  502 -0.00000000000E+00 -0.00000000000E+00 -0.83489426930E+03  0.83489426930E+03  0.00000000000E+00 0. -1.
      99926    2    1    2    0    0  0.00000000000E+00  0.00000000000E+00 -0.77555890409E+03  0.89422963452E+03  0.44514607214E+03 0.  0.
      99925    2    3    3    0    0  0.54046320995E+02 -0.81345223724E+02 -0.42187482838E+03  0.50657259054E+03  0.26286758726E+03 0.  0.
         25    1    3    3    0    0 -0.54046320995E+02  0.81345223724E+02 -0.35368407571E+03  0.38765704398E+03  0.12509000000E+03 0.  0.
         25    1    4    4    0    0  0.57438422531E+02 -0.57817392584E+02 -0.18581936361E+03  0.23836603630E+03  0.12509000000E+03 0.  0.
         25    1    4    4    0    0 -0.33921015351E+01 -0.23527831140E+02 -0.23605546476E+03  0.26820655424E+03  0.12509000000E+03 0.  0.
<mgrwt>
<rscale>  2 0.44514607E+03</rscale>
<asrwt>0</asrwt>
<pdfrwt beam="1">  1       21 0.87257891E-02 0.44514607E+03</pdfrwt>
<pdfrwt beam="2">  1       21 0.12277857E+00 0.44514607E+03</pdfrwt>
<totfact> 0.47006481E+04</totfact>
</mgrwt>
</event>
<event>
 7    0  0.4759581E-002  0.4554071E+03  0.7546771E-02  0.1026122E+00
         21   -1    0    0  502  501  0.00000000000E+00  0.00000000000E+00  0.20119981152E+03  0.20119981152E+03  0.00000000000E+00 0.  1.
         21   -1    0    0  501  502 -0.00000000000E+00 -0.00000000000E+00 -0.25769853726E+03  0.25769853726E+03  0.00000000000E+00 0.  1.
      99926    2    1    2    0    0  0.71054273576E-14  0.00000000000E+00 -0.56498725737E+02  0.45889834877E+03  0.45540705802E+03 0.  0.
      99925    2    3    3    0    0 -0.52722825429E+02 -0.52367687687E+01 -0.13681150456E+03  0.30108589486E+03  0.26292243768E+03 0.  0.
         25    1    4    4    0    0 -0.33431858905E+02 -0.27095432974E+02 -0.34056536720E+02  0.13659870963E+03  0.12509000000E+03 0.  0.
         25    1    3    3    0    0  0.52722825429E+02  0.52367687687E+01  0.80312778824E+02  0.15781245392E+03  0.12509000000E+03 0.  0.
         25    1    4    4    0    0 -0.19290966524E+02  0.21858664205E+02 -0.10275496784E+03  0.16448718523E+03  0.12509000000E+03 0.  0.
<mgrwt>
<rscale>  2 0.45540706E+03</rscale>
<asrwt>0</asrwt>
<pdfrwt beam="1">  1       21 0.29588207E-01 0.45540706E+03</pdfrwt>
<pdfrwt beam="2">  1       21 0.37896844E-01 0.45540706E+03</pdfrwt>
<totfact> 0.68039750E+04</totfact>
</mgrwt>
</event>
<event>
 7    0  0.4759581E-002  0.4499178E+03  0.7546771E-02  0.1027747E+00
         21   -1    0    0  502  501  0.00000000000E+00  0.00000000000E+00  0.10605319422E+04  0.10605319422E+04  0.00000000000E+00 0.  1.
         21   -1    0    0  501  502 -0.00000000000E+00 -0.00000000000E+00 -0.47718036670E+02  0.47718036670E+02  0.00000000000E+00 0.  1.
      99926    2    1    2    0    0  0.00000000000E+00  0.00000000000E+00  0.10128139055E+04  0.11082499788E+04  0.44991777963E+03 0.  0.
      99925    2    3    3    0    0 -0.46512250249E+02 -0.78598912711E+02  0.78384543375E+03  0.83181689895E+03  0.26299146539E+03 0.  0.
         25    1    4    4    0    0 -0.20696248572E+02 -0.42536674191E+02  0.51380407225E+03  0.53092356900E+03  0.12509000000E+03 0.  0.
         25    1    3    3    0    0  0.46512250249E+02  0.78598912711E+02  0.22896847176E+03  0.27643307990E+03  0.12509000000E+03 0.  0.
         25    1    4    4    0    0 -0.25816001677E+02 -0.36062238521E+02  0.27004136150E+03  0.30089332995E+03  0.12509000000E+03 0.  0.
<mgrwt>
<rscale>  2 0.44991778E+03</rscale>
<asrwt>0</asrwt>
<pdfrwt beam="1">  1       21 0.15596057E+00 0.44991778E+03</pdfrwt>
<pdfrwt beam="2">  1       21 0.70173590E-02 0.44991778E+03</pdfrwt>
<totfact> 0.36637632E+04</totfact>
</mgrwt>
</event>
<event>
 7    0  0.4759581E-002  0.4542492E+03  0.7546771E-02  0.1026462E+00
         21   -1    0    0  502  501  0.00000000000E+00  0.00000000000E+00  0.45675185618E+02  0.45675185618E+02  0.00000000000E+00 0. -1.
         21   -1    0    0  501  502 -0.00000000000E+00 -0.00000000000E+00 -0.11294007019E+04  0.11294007019E+04  0.00000000000E+00 0. -1.
      99926    2    1    2    0    0 -0.17763568394E-14  0.00000000000E+00 -0.10837255163E+04  0.11750758875E+04  0.45424921220E+03 0.  0.
      99925    2    3    3    0    0 -0.13294578959E+02 -0.44073043897E+02 -0.41698164853E+03  0.49513907257E+03  0.26300157215E+03 0.  0.
         25    1    4    4    0    0  0.32563731146E+02 -0.30768869942E+02 -0.21809291674E+03  0.25538039936E+03  0.12509000000E+03 0.  0.
         25    1    3    3    0    0  0.13294578959E+02  0.44073043897E+02 -0.66674386773E+03  0.67993681492E+03  0.12509000000E+03 0.  0.
         25    1    4    4    0    0 -0.45858310105E+02 -0.13304173954E+02 -0.19888873178E+03  0.23975867321E+03  0.12509000000E+03 0.  0.
<mgrwt>
<rscale>  2 0.45424921E+03</rscale>
<asrwt>0</asrwt>
<pdfrwt beam="1">  1       21 0.67169387E-02 0.45424921E+03</pdfrwt>
<pdfrwt beam="2">  1       21 0.16608835E+00 0.45424921E+03</pdfrwt>
<totfact> 0.33149575E+04</totfact>
</mgrwt>
</event>
<event>
 7    0  0.4759581E-002  0.4562892E+03  0.7546771E-02  0.1025863E+00
         21   -1    0    0  502  501  0.00000000000E+00  0.00000000000E+00  0.14348406108E+04  0.14348406108E+04  0.00000000000E+00 0. -1.
         21   -1    0    0  501  502 -0.00000000000E+00 -0.00000000000E+00 -0.36275778333E+02  0.36275778333E+02  0.00000000000E+00 0. -1.
      99926    2    1    2    0    0  0.00000000000E+00  0.00000000000E+00  0.13985648325E+04  0.14711163892E+04  0.45628920628E+03 0.  0.
      99925    2    3    3    0    0 -0.10052089252E+03  0.53231830843E+02  0.83635035570E+03  0.88402976551E+03  0.26284716317E+03 0.  0.
         25    1    3    3    0    0  0.10052089252E+03 -0.53231830843E+02  0.56221447681E+03  0.58708662366E+03  0.12509000000E+03 0.  0.
         25    1    4    4    0    0 -0.52628635018E+02  0.46376938162E+02  0.32224886138E+03  0.35272146288E+03  0.12509000000E+03 0.  0.
         25    1    4    4    0    0 -0.47892257506E+02  0.68548926808E+01  0.51410149432E+03  0.53130830263E+03  0.12509000000E+03 0.  0.
<mgrwt>
<rscale>  2 0.45628921E+03</rscale>
<asrwt>0</asrwt>
<pdfrwt beam="1">  1       21 0.21100593E+00 0.45628921E+03</pdfrwt>
<pdfrwt beam="2">  1       21 0.53346742E-02 0.45628921E+03</pdfrwt>
<totfact> 0.24252178E+04</totfact>
</mgrwt>
</event>
<event>
 7    0  0.4759581E-002  0.4540076E+03  0.7546771E-02  0.1026534E+00
         21   -1    0    0  502  501  0.00000000000E+00  0.00000000000E+00  0.11867258747E+03  0.11867258747E+03  0.00000000000E+00 0. -1.
         21   -1    0    0  501  502 -0.00000000000E+00 -0.00000000000E+00 -0.43422593589E+03  0.43422593589E+03  0.00000000000E+00 0. -1.
      99926    2    1    2    0    0  0.00000000000E+00  0.00000000000E+00 -0.31555334842E+03  0.55289852336E+03  0.45400755659E+03 0.  0.
      99925    2    3    3    0    0  0.39914327042E+02  0.37464940609E+02 -0.79481964690E+02  0.28018258765E+03  0.26303635572E+03 0.  0.
         25    1    3    3    0    0 -0.39914327042E+02 -0.37464940609E+02 -0.23607138373E+03  0.27271593572E+03  0.12509000000E+03 0.  0.
         25    1    4    4    0    0  0.33596670070E+02  0.52976356155E+01 -0.77139935355E+02  0.15084720385E+03  0.12509000000E+03 0.  0.
         25    1    4    4    0    0  0.63176569714E+01  0.32167304993E+02 -0.23420293349E+01  0.12933538380E+03  0.12509000000E+03 0.  0.
<mgrwt>
<rscale>  2 0.45400756E+03</rscale>
<asrwt>0</asrwt>
<pdfrwt beam="1">  1       21 0.17451851E-01 0.45400756E+03</pdfrwt>
<pdfrwt beam="2">  1       21 0.63856755E-01 0.45400756E+03</pdfrwt>
<totfact> 0.62162011E+04</totfact>
</mgrwt>
</event>
<event>
 7    0  0.4759581E-002  0.4038082E+03  0.7546771E-02  0.1042469E+00
         21   -1    0    0  502  501  0.00000000000E+00  0.00000000000E+00  0.38453706830E+03  0.38453706830E+03  0.00000000000E+00 0. -1.
         21   -1    0    0  501  502 -0.00000000000E+00 -0.00000000000E+00 -0.10601127627E+03  0.10601127627E+03  0.00000000000E+00 0. -1.
      99926    2    1    2    0    0  0.71054273576E-14 -0.35527136788E-14  0.27852579202E+03  0.49054834457E+03  0.40380819895E+03 0.  0.
      99925    2    3    3    0    0  0.41638094878E+02 -0.31073589559E+02  0.19368179386E+03  0.33071933895E+03  0.26298924877E+03 0.  0.
         25    1    4    4    0    0  0.33609910588E+02 -0.49597074594E+02  0.77889389612E+02  0.15907155941E+03  0.12509000000E+03 0.  0.
         25    1    3    3    0    0 -0.41638094878E+02  0.31073589559E+02  0.84843998163E+02  0.15982900562E+03  0.12509000000E+03 0.  0.
         25    1    4    4    0    0  0.80281842906E+01  0.18523485035E+02  0.11579240425E+03  0.17164777954E+03  0.12509000000E+03 0.  0.
<mgrwt>
<rscale>  2 0.40380820E+03</rscale>
<asrwt>0</asrwt>
<pdfrwt beam="1">  1       21 0.56549568E-01 0.40380820E+03</pdfrwt>
<pdfrwt beam="2">  1       21 0.15589894E-01 0.40380820E+03</pdfrwt>
<totfact> 0.10118885E+05</totfact>
</mgrwt>
</event>
<event>
 7    0  0.4759581E-002  0.4361972E+03  0.7546771E-02  0.1031920E+00
         21   -1    0    0  502  501  0.00000000000E+00  0.00000000000E+00  0.13997805729E+03  0.13997805729E+03  0.00000000000E+00 0.  1.
         21   -1    0    0  501  502 -0.00000000000E+00 -0.00000000000E+00 -0.33981748425E+03  0.33981748425E+03  0.00000000000E+00 0.  1.
      99926    2    1    2    0    0 -0.71054273576E-14  0.00000000000E+00 -0.19983942696E+03  0.47979554154E+03  0.43619716312E+03 0.  0.
      99925    2    3    3    0    0  0.52429695169E+02 -0.18195903418E+02 -0.43897367893E+02  0.27232169325E+03  0.26296798640E+03 0.  0.
         25    1    4    4    0    0 -0.12464709637E+02 -0.22010427002E+02 -0.25633102855E+02  0.13017062628E+03  0.12509000000E+03 0.  0.
         25    1    3    3    0    0 -0.52429695169E+02  0.18195903418E+02 -0.15594205907E+03  0.20747384829E+03  0.12509000000E+03 0.  0.
         25    1    4    4    0    0  0.64894404806E+02  0.38145235834E+01 -0.18264265038E+02  0.14215106698E+03  0.12509000000E+03 0.  0.
<mgrwt>
<rscale>  2 0.43619716E+03</rscale>
<asrwt>0</asrwt>
<pdfrwt beam="1">  1       21 0.20585009E-01 0.43619716E+03</pdfrwt>
<pdfrwt beam="2">  1       21 0.49973158E-01 0.43619716E+03</pdfrwt>
<totfact> 0.77678143E+04</totfact>
</mgrwt>
</event>
<event>
 7    0  0.4759581E-002  0.4488503E+03  0.7546771E-02  0.1028065E+00
         21   -1    0    0  502  501  0.00000000000E+00  0.00000000000E+00  0.11976399065E+04  0.11976399065E+04  0.00000000000E+00 0.  1.
         21   -1    0    0  501  502 -0.00000000000E+00 -0.00000000000E+00 -0.42054921746E+02  0.42054921746E+02  0.00000000000E+00 0.  1.
      99926    2    1    2    0    0 -0.88817841970E-15  0.00000000000E+00  0.11555849848E+04  0.12396948282E+04  0.44885032048E+03 0.  0.
      99925    2    3    3    0    0  0.60362691675E+01  0.92923156116E+02  0.87962115847E+03  0.92271739844E+03  0.26268396501E+03 0.  0.
         25    1    4    4    0    0  0.22365911924E+02  0.28061114362E+02  0.52235299241E+03  0.53831943764E+03  0.12509000000E+03 0.  0.
         25    1    3    3    0    0 -0.60362691675E+01 -0.92923156116E+02  0.27596382628E+03  0.31697742980E+03  0.12509000000E+03 0.  0.
         25    1    4    4    0    0 -0.16329642757E+02  0.64862041754E+02  0.35726816605E+03  0.38439796080E+03  0.12509000000E+03 0.  0.
<mgrwt>
<rscale>  2 0.44885032E+03</rscale>
<asrwt>0</asrwt>
<pdfrwt beam="1">  1       21 0.17612349E+00 0.44885032E+03</pdfrwt>
<pdfrwt beam="2">  1       21 0.61845481E-02 0.44885032E+03</pdfrwt>
<totfact> 0.32443245E+04</totfact>
</mgrwt>
</event>
<event>
 7    0  0.4759581E-002  0.4575622E+03  0.7546771E-02  0.1025491E+00
         21   -1    0    0  502  501  0.00000000000E+00  0.00000000000E+00  0.15386944689E+04  0.15386944689E+04  0.00000000000E+00 0. -1.
         21   -1    0    0  501  502 -0.00000000000E+00 -0.00000000000E+00 -0.34016360025E+02  0.34016360025E+02  0.00000000000E+00 0. -1.
      99926    2    1    2    0    0  0.14210854715E-13  0.71054273576E-14  0.15046781089E+04  0.15727108290E+04  0.45756217074E+03 0.  0.
      99925    2    3    3    0    0  0.96719265328E+02  0.58929271570E+02  0.10169167337E+04  0.10565849310E+04  0.26348585869E+03 0.  0.
         25    1    4    4    0    0  0.32233762334E+02  0.64307821184E+02  0.57134413868E+03  0.58928443404E+03  0.12509000000E+03 0.  0.
         25    1    4    4    0    0  0.64485502994E+02 -0.53785496138E+01  0.44557259505E+03  0.46730049695E+03  0.12509000000E+03 0.  0.
         25    1    3    3    0    0 -0.96719265328E+02 -0.58929271570E+02  0.48776137518E+03  0.51612589796E+03  0.12509000000E+03 0.  0.
<mgrwt>
<rscale>  2 0.45756217E+03</rscale>
<asrwt>0</asrwt>
<pdfrwt beam="1">  1       21 0.22627855E+00 0.45756217E+03</pdfrwt>
<pdfrwt beam="2">  1       21 0.50024069E-02 0.45756217E+03</pdfrwt>
<totfact> 0.21618672E+04</totfact>
</mgrwt>
</event>
<event>
 7    0  0.4759581E-002  0.4515522E+03  0.7546771E-02  0.1027260E+00
         21   -1    0    0  502  501  0.00000000000E+00  0.00000000000E+00  0.24878381414E+03  0.24878381414E+03  0.00000000000E+00 0.  1.
         21   -1    0    0  501  502 -0.00000000000E+00 -0.00000000000E+00 -0.20489611999E+03  0.20489611999E+03  0.00000000000E+00 0.  1.
      99926    2    1    2    0    0 -0.71054273576E-14 -0.35527136788E-14  0.43887694147E+02  0.45367993413E+03  0.45155215970E+03 0.  0.
      99925    2    3    3    0    0 -0.45872854530E+02 -0.44572863591E+01  0.12786622657E+03  0.29612331512E+03  0.26308755135E+03 0.  0.
         25    1    3    3    0    0  0.45872854530E+02  0.44572863591E+01 -0.83978532421E+02  0.15755661900E+03  0.12509000000E+03 0.  0.
         25    1    4    4    0    0 -0.89148704182E+01 -0.35112956355E+02  0.41381504833E+02  0.13664674040E+03  0.12509000000E+03 0.  0.
         25    1    4    4    0    0 -0.36957984112E+02  0.30655669996E+02  0.86484721735E+02  0.15947657473E+03  0.12509000000E+03 0.  0.
<mgrwt>
<rscale>  2 0.45155216E+03</rscale>
<asrwt>0</asrwt>
<pdfrwt beam="1">  1       21 0.36585855E-01 0.45155216E+03</pdfrwt>
<pdfrwt beam="2">  1       21 0.30131782E-01 0.45155216E+03</pdfrwt>
<totfact> 0.70563852E+04</totfact>
</mgrwt>
</event>
<event>
 7    0  0.4759581E-002  0.4499663E+03  0.7546771E-02  0.1027732E+00
         21   -1    0    0  502  501  0.00000000000E+00  0.00000000000E+00  0.60749400746E+02  0.60749400746E+02  0.00000000000E+00 0. -1.
         21   -1    0    0  501  502 -0.00000000000E+00 -0.00000000000E+00 -0.83321658302E+03  0.83321658302E+03  0.00000000000E+00 0. -1.
      99926    2    1    2    0    0  0.00000000000E+00  0.00000000000E+00 -0.77246718227E+03  0.89396598376E+03  0.44996625700E+03 0.  0.
      99925    2    3    3    0    0  0.80464812108E+02 -0.71788596428E+02 -0.50834621551E+03  0.58246063590E+03  0.26308996367E+03 0.  0.
         25    1    3    3    0    0 -0.80464812108E+02  0.71788596428E+02 -0.26412096676E+03  0.31150534787E+03  0.12509000000E+03 0.  0.
         25    1    4    4    0    0  0.48203869211E+02 -0.58632857182E+01 -0.18970016430E+03  0.23236103710E+03  0.12509000000E+03 0.  0.
         25    1    4    4    0    0  0.32260942897E+02 -0.65925310710E+02 -0.31864605121E+03  0.35009959880E+03  0.12509000000E+03 0.  0.
<mgrwt>
<rscale>  2 0.44996626E+03</rscale>
<asrwt>0</asrwt>
<pdfrwt beam="1">  1       21 0.89337365E-02 0.44996626E+03</pdfrwt>
<pdfrwt beam="2">  1       21 0.12253184E+00 0.44996626E+03</pdfrwt>
<totfact> 0.45253054E+04</totfact>
</mgrwt>
</event>
<event>
 7    0  0.4759581E-002  0.4537587E+03  0.7546771E-02  0.1026607E+00
         21   -1    0    0  502  501  0.00000000000E+00  0.00000000000E+00  0.65609109783E+02  0.65609109783E+02  0.00000000000E+00 0.  1.
         21   -1    0    0  501  502 -0.00000000000E+00 -0.00000000000E+00 -0.78455948344E+03  0.78455948344E+03  0.00000000000E+00 0.  1.
      99926    2    1    2    0    0  0.00000000000E+00  0.00000000000E+00 -0.71895037366E+03  0.85016859322E+03  0.45375874330E+03 0.  0.
      99925    2    3    3    0    0 -0.77343804270E+02  0.20342268709E+02 -0.60003910442E+03  0.65994958784E+03  0.26285102189E+03 0.  0.
         25    1    4    4    0    0 -0.68557064685E+02  0.10280938060E+02 -0.38647461790E+03  0.41208725677E+03  0.12509000000E+03 0.  0.
         25    1    4    4    0    0 -0.87867395851E+01  0.10061330649E+02 -0.21356448651E+03  0.24786233108E+03  0.12509000000E+03 0.  0.
         25    1    3    3    0    0  0.77343804270E+02 -0.20342268709E+02 -0.11891126924E+03  0.19021900538E+03  0.12509000000E+03 0.  0.
<mgrwt>
<rscale>  2 0.45375874E+03</rscale>
<asrwt>0</asrwt>
<pdfrwt beam="1">  1       21 0.96483985E-02 0.45375874E+03</pdfrwt>
<pdfrwt beam="2">  1       21 0.11537639E+00 0.45375874E+03</pdfrwt>
<totfact> 0.45876912E+04</totfact>
</mgrwt>
</event>
<event>
 7    0  0.4759581E-002  0.4540312E+03  0.7546771E-02  0.1026527E+00
         21   -1    0    0  502  501  0.00000000000E+00  0.00000000000E+00  0.41951012223E+02  0.41951012223E+02  0.00000000000E+00 0. -1.
         21   -1    0    0  501  502 -0.00000000000E+00 -0.00000000000E+00 -0.12284822934E+04  0.12284822934E+04  0.00000000000E+00 0. -1.
      99926    2    1    2    0    0  0.00000000000E+00  0.71054273576E-14 -0.11865312812E+04  0.12704333056E+04  0.45403116944E+03 0.  0.
      99925    2    3    3    0    0 -0.29249714797E+02 -0.47768964077E+02 -0.10197139627E+04  0.10545329916E+04  0.26284186297E+03 0.  0.
         25    1    4    4    0    0 -0.41382042190E+02 -0.53742962680E+02 -0.57701651776E+03  0.59430324694E+03  0.12509000000E+03 0.  0.
         25    1    4    4    0    0  0.12132327394E+02  0.59739986022E+01 -0.44269744495E+03  0.46022974469E+03  0.12509000000E+03 0.  0.
         25    1    3    3    0    0  0.29249714797E+02  0.47768964077E+02 -0.16681731847E+03  0.21590031400E+03  0.12509000000E+03 0.  0.
<mgrwt>
<rscale>  2 0.45403117E+03</rscale>
<asrwt>0</asrwt>
<pdfrwt beam="1">  1       21 0.61692663E-02 0.45403117E+03</pdfrwt>
<pdfrwt beam="2">  1       21 0.18065917E+00 0.45403117E+03</pdfrwt>
<totfact> 0.30212801E+04</totfact>
</mgrwt>
</event>
<event>
 7    0  0.4759581E-002  0.4562607E+03  0.7546771E-02  0.1025871E+00
         21   -1    0    0  502  501  0.00000000000E+00  0.00000000000E+00  0.21106836384E+04  0.21106836384E+04  0.00000000000E+00 0. -1.
         21   -1    0    0  501  502 -0.00000000000E+00 -0.00000000000E+00 -0.24657152210E+02  0.24657152210E+02  0.00000000000E+00 0. -1.
      99926    2    1    2    0    0  0.00000000000E+00  0.14210854715E-13  0.20860264862E+04  0.21353407906E+04  0.45626066120E+03 0.  0.
      99925    2    3    3    0    0  0.33931735552E+02  0.85742585170E+02  0.99455169477E+03  0.10328581912E+04  0.26298253930E+03 0.  0.
         25    1    4    4    0    0 -0.10063138263E+01  0.10191910496E+02  0.37933016259E+03  0.39955446194E+03  0.12509000000E+03 0.  0.
         25    1    4    4    0    0  0.34938049379E+02  0.75550674675E+02  0.61522153219E+03  0.63330372927E+03  0.12509000000E+03 0.  0.
         25    1    3    3    0    0 -0.33931735552E+02 -0.85742585170E+02  0.10914747914E+04  0.11024825994E+04  0.12509000000E+03 0.  0.
<mgrwt>
<rscale>  2 0.45626066E+03</rscale>
<asrwt>0</asrwt>
<pdfrwt beam="1">  1       21 0.31039453E+00 0.45626066E+03</pdfrwt>
<pdfrwt beam="2">  1       21 0.36260532E-02 0.45626066E+03</pdfrwt>
<totfact> 0.11510246E+04</totfact>
</mgrwt>
</event>
<event>
 7    0  0.4759581E-002  0.4115845E+03  0.7546771E-02  0.1039841E+00
         21   -1    0    0  502  501  0.00000000000E+00  0.00000000000E+00  0.27322329344E+03  0.27322329344E+03  0.00000000000E+00 0. -1.
         21   -1    0    0  501  502 -0.00000000000E+00 -0.00000000000E+00 -0.15500304287E+03  0.15500304287E+03  0.00000000000E+00 0. -1.
      99926    2    1    2    0    0  0.00000000000E+00 -0.71054273576E-14  0.11822025057E+03  0.42822633630E+03  0.41158445969E+03 0.  0.
      99925    2    3    3    0    0 -0.24556150028E+02 -0.36998925192E+02  0.12714328092E+03  0.29518854641E+03  0.26267649129E+03 0.  0.
         25    1    3    3    0    0  0.24556150028E+02  0.36998925192E+02 -0.89230303527E+01  0.13303778990E+03  0.12509000000E+03 0.  0.
         25    1    4    4    0    0 -0.33896534382E+02 -0.44049034471E+02  0.91307887558E+02  0.16454157806E+03  0.12509000000E+03 0.  0.
         25    1    4    4    0    0  0.93403843541E+01  0.70501092795E+01  0.35835393363E+02  0.13064696835E+03  0.12509000000E+03 0.  0.
<mgrwt>
<rscale>  2 0.41158446E+03</rscale>
<asrwt>0</asrwt>
<pdfrwt beam="1">  1       21 0.40179896E-01 0.41158446E+03</pdfrwt>
<pdfrwt beam="2">  1       21 0.22794565E-01 0.41158446E+03</pdfrwt>
<totfact> 0.10132357E+05</totfact>
</mgrwt>
</event>
<event>
 7    0  0.4759581E-002  0.4545603E+03  0.7546771E-02  0.1026371E+00
         21   -1    0    0  502  501  0.00000000000E+00  0.00000000000E+00  0.50254090684E+02  0.50254090684E+02  0.00000000000E+00 0. -1.
         21   -1    0    0  501  502 -0.00000000000E+00 -0.00000000000E+00 -0.10279018618E+04  0.10279018618E+04  0.00000000000E+00 0. -1.
      99926    2    1    2    0    0  0.00000000000E+00  0.88817841970E-15 -0.97764777112E+03  0.10781559525E+04  0.45456032989E+03 0.  0.
      99925    2    3    3    0    0 -0.93535168257E+02  0.41503801032E+01 -0.46672515302E+03  0.54387561115E+03  0.26306322165E+03 0.  0.
         25    1    3    3    0    0  0.93535168257E+02 -0.41503801032E+01 -0.51092261809E+03  0.53428034133E+03  0.12509000000E+03 0.  0.
         25    1    4    4    0    0 -0.40379792959E+02 -0.97995023463E+01 -0.30433778683E+03  0.33165577715E+03  0.12509000000E+03 0.  0.
         25    1    4    4    0    0 -0.53155375298E+02  0.13949882449E+02 -0.16238736619E+03  0.21221983400E+03  0.12509000000E+03 0.  0.
<mgrwt>
<rscale>  2 0.45456033E+03</rscale>
<asrwt>0</asrwt>
<pdfrwt beam="1">  1       21 0.73903077E-02 0.45456033E+03</pdfrwt>
<pdfrwt beam="2">  1       21 0.15116203E+00 0.45456033E+03</pdfrwt>
<totfact> 0.36385589E+04</totfact>
</mgrwt>
</event>
<event>
 7    0  0.4759581E-002  0.4511056E+03  0.7546771E-02  0.1027393E+00
         21   -1    0    0  502  501  0.00000000000E+00  0.00000000000E+00  0.23842461479E+03  0.23842461479E+03  0.00000000000E+00 0.  1.
         21   -1    0    0  501  502 -0.00000000000E+00 -0.00000000000E+00 -0.21337587040E+03  0.21337587040E+03  0.00000000000E+00 0.  1.
      99926    2    1    2    0    0  0.00000000000E+00 -0.14210854715E-13  0.25048744391E+02  0.45180048519E+03  0.45110557392E+03 0.  0.
      99925    2    3    3    0    0  0.69305903375E+01  0.75603054090E+02 -0.63182950425E+02  0.28093154436E+03  0.26299542301E+03 0.  0.
         25    1    4    4    0    0 -0.81680819353E+01  0.76102955823E+02 -0.46432259290E+02  0.15382405615E+03  0.12509000000E+03 0.  0.
         25    1    4    4    0    0  0.15098672273E+02 -0.49990173250E+00 -0.16750691135E+02  0.12710748821E+03  0.12509000000E+03 0.  0.
         25    1    3    3    0    0 -0.69305903375E+01 -0.75603054090E+02  0.88231694816E+02  0.17086894083E+03  0.12509000000E+03 0.  0.
<mgrwt>
<rscale>  2 0.45110557E+03</rscale>
<asrwt>0</asrwt>
<pdfrwt beam="1">  1       21 0.35062443E-01 0.45110557E+03</pdfrwt>
<pdfrwt beam="2">  1       21 0.31378804E-01 0.45110557E+03</pdfrwt>
<totfact> 0.70960303E+04</totfact>
</mgrwt>
</event>
<event>
 7    0  0.4759581E-002  0.4562755E+03  0.7546771E-02  0.1025867E+00
         21   -1    0    0  502  501  0.00000000000E+00  0.00000000000E+00  0.86949657653E+03  0.86949657653E+03  0.00000000000E+00 0. -1.
         21   -1    0    0  501  502 -0.00000000000E+00 -0.00000000000E+00 -0.59858589542E+02  0.59858589542E+02  0.00000000000E+00 0. -1.
      99926    2    1    2    0    0  0.71054273576E-14  0.00000000000E+00  0.80963798698E+03  0.92935516607E+03  0.45627552502E+03 0.  0.
      99925    2    3    3    0    0  0.46569599312E+02 -0.89367210625E+02  0.39849703034E+03  0.48794875442E+03  0.26294272729E+03 0.  0.
         25    1    4    4    0    0 -0.14865461344E+02 -0.51602671096E+02  0.21470765038E+03  0.25422568878E+03  0.12509000000E+03 0.  0.
         25    1    3    3    0    0 -0.46569599312E+02  0.89367210625E+02  0.41114095665E+03  0.44140641165E+03  0.12509000000E+03 0.  0.
         25    1    4    4    0    0  0.61435060656E+02 -0.37764539529E+02  0.18378937996E+03  0.23372306563E+03  0.12509000000E+03 0.  0.
<mgrwt>
<rscale>  2 0.45627553E+03</rscale>
<asrwt>0</asrwt>
<pdfrwt beam="1">  1       21 0.12786714E+00 0.45627553E+03</pdfrwt>
<pdfrwt beam="2">  1       21 0.88027343E-02 0.45627553E+03</pdfrwt>
<totfact> 0.41572010E+04</totfact>
</mgrwt>
</event>
<event>
 7    0  0.4759581E-002  0.4534222E+03  0.7546771E-02  0.1026706E+00
         21   -1    0    0  502  501  0.00000000000E+00  0.00000000000E+00  0.58725624368E+03  0.58725624368E+03  0.00000000000E+00 0. -1.
         21   -1    0    0  501  502 -0.00000000000E+00 -0.00000000000E+00 -0.87522124324E+02  0.87522124324E+02  0.00000000000E+00 0. -1.
      99926    2    1    2    0    0  0.00000000000E+00  0.00000000000E+00  0.49973411936E+03  0.67477836800E+03  0.45342216077E+03 0.  0.
      99925    2    3    3    0    0 -0.72664680627E+02 -0.52172752739E+02  0.41443190198E+03  0.49892010596E+03  0.26299300146E+03 0.  0.
         25    1    4    4    0    0 -0.53724290775E+01  0.20550993639E+01  0.17195702879E+03  0.21272003732E+03  0.12509000000E+03 0.  0.
         25    1    3    3    0    0  0.72664680627E+02  0.52172752739E+02  0.85302217377E+02  0.17585826204E+03  0.12509000000E+03 0.  0.
         25    1    4    4    0    0 -0.67292251550E+02 -0.54227852103E+02  0.24247487319E+03  0.28620006864E+03  0.12509000000E+03 0.  0.
<mgrwt>
<rscale>  2 0.45342216E+03</rscale>
<asrwt>0</asrwt>
<pdfrwt beam="1">  1       21 0.86361211E-01 0.45342216E+03</pdfrwt>
<pdfrwt beam="2">  1       21 0.12870901E-01 0.45342216E+03</pdfrwt>
<totfact> 0.54974477E+04</totfact>
</mgrwt>
</event>
<event>
 7    0  0.4759581E-002  0.4574865E+03  0.7546771E-02  0.1025513E+00
         21   -1    0    0  502  501  0.00000000000E+00  0.00000000000E+00  0.26692635598E+03  0.26692635598E+03  0.00000000000E+00 0.  1.
         21   -1    0    0  501  502 -0.00000000000E+00 -0.00000000000E+00 -0.19602217772E+03  0.19602217772E+03  0.00000000000E+00 0.  1.
      99926    2    1    2    0    0  0.00000000000E+00  0.00000000000E+00  0.70904178257E+02  0.46294853369E+03  0.45748654882E+03 0.  0.
      99925    2    3    3    0    0  0.89819809090E+02  0.27120878769E+02  0.11267279868E+03  0.30109901741E+03  0.26298729732E+03 0.  0.
         25    1    4    4    0    0  0.42113486798E+02  0.36339452387E+02  0.20808599836E+02  0.13847240699E+03  0.12509000000E+03 0.  0.
         25    1    3    3    0    0 -0.89819809090E+02 -0.27120878769E+02 -0.41768620427E+02  0.16184951629E+03  0.12509000000E+03 0.  0.
         25    1    4    4    0    0  0.47706322292E+02 -0.92185736176E+01  0.91864198847E+02  0.16262661042E+03  0.12509000000E+03 0.  0.
<mgrwt>
<rscale>  2 0.45748655E+03</rscale>
<asrwt>0</asrwt>
<pdfrwt beam="1">  1       21 0.39253876E-01 0.45748655E+03</pdfrwt>
<pdfrwt beam="2">  1       21 0.28826791E-01 0.45748655E+03</pdfrwt>
<totfact> 0.66635046E+04</totfact>
</mgrwt>
</event>
<event>
 7    0  0.4759581E-002  0.4394520E+03  0.7546771E-02  0.1030915E+00
         21   -1    0    0  502  501  0.00000000000E+00  0.00000000000E+00  0.46935907310E+03  0.46935907310E+03  0.00000000000E+00 0.  1.
         21   -1    0    0  501  502 -0.00000000000E+00 -0.00000000000E+00 -0.10286264084E+03  0.10286264084E+03  0.00000000000E+00 0.  1.
      99926    2    1    2    0    0  0.71054273576E-14  0.35527136788E-14  0.36649643226E+03  0.57222171393E+03  0.43945199401E+03 0.  0.
      99925    2    3    3    0    0  0.36500393548E+02  0.30407857957E+02  0.12243586618E+03  0.29388741032E+03  0.26291130075E+03 0.  0.
         25    1    3    3    0    0 -0.36500393548E+02 -0.30407857957E+02  0.24406056608E+03  0.27833430362E+03  0.12509000000E+03 0.  0.
         25    1    4    4    0    0  0.19746729863E+02  0.50512121842E+02  0.85208451598E+02  0.16077747391E+03  0.12509000000E+03 0.  0.
         25    1    4    4    0    0  0.16753663684E+02 -0.20104263885E+02  0.37227414584E+02  0.13310993641E+03  0.12509000000E+03 0.  0.
<mgrwt>
<rscale>  2 0.43945199E+03</rscale>
<asrwt>0</asrwt>
<pdfrwt beam="1">  1       21 0.69023392E-01 0.43945199E+03</pdfrwt>
<pdfrwt beam="2">  1       21 0.15126859E-01 0.43945199E+03</pdfrwt>
<totfact> 0.68457350E+04</totfact>
</mgrwt>
</event>
<event>
 7    0  0.4759581E-002  0.4581210E+03  0.7546771E-02  0.1025328E+00
         21   -1    0    0  502  501  0.00000000000E+00  0.00000000000E+00  0.26921607317E+02  0.26921607317E+02  0.00000000000E+00 0.  1.
         21   -1    0    0  501  502 -0.00000000000E+00 -0.00000000000E+00 -0.19489442539E+04  0.19489442539E+04  0.00000000000E+00 0.  1.
      99926    2    1    2    0    0  0.00000000000E+00  0.14210854715E-13 -0.19220226466E+04  0.19758658612E+04  0.45812099662E+03 0.  0.
      99925    2    3    3    0    0 -0.32995484727E+02 -0.99338253582E+02 -0.99069455985E+03  0.10303626598E+04  0.26308688522E+03 0.  0.
         25    1    4    4    0    0 -0.29206373437E+02 -0.75600729899E+02 -0.64358085171E+03  0.66061509474E+03  0.12509000000E+03 0.  0.
         25    1    4    4    0    0 -0.37891112898E+01 -0.23737523684E+02 -0.34711370814E+03  0.36974756507E+03  0.12509000000E+03 0.  0.
         25    1    3    3    0    0  0.32995484727E+02  0.99338253582E+02 -0.93132808671E+03  0.94550320139E+03  0.12509000000E+03 0.  0.
<mgrwt>
<rscale>  2 0.45812100E+03</rscale>
<asrwt>0</asrwt>
<pdfrwt beam="1">  1       21 0.39590591E-02 0.45812100E+03</pdfrwt>
<pdfrwt beam="2">  1       21 0.28660951E+00 0.45812100E+03</pdfrwt>
<totfact> 0.13771237E+04</totfact>
</mgrwt>
</event>
<event>
 7    0  0.4759581E-002  0.4462835E+03  0.7546771E-02  0.1028836E+00
         21   -1    0    0  502  501  0.00000000000E+00  0.00000000000E+00  0.10473635394E+03  0.10473635394E+03  0.00000000000E+00 0. -1.
         21   -1    0    0  501  502 -0.00000000000E+00 -0.00000000000E+00 -0.47540551961E+03  0.47540551961E+03  0.00000000000E+00 0. -1.
      99926    2    1    2    0    0  0.00000000000E+00 -0.17763568394E-14 -0.37066916567E+03  0.58014187355E+03  0.44628350077E+03 0.  0.
      99925    2    3    3    0    0  0.88740130945E+02  0.15972386404E+02 -0.30367174729E+03  0.41201665195E+03  0.26346017425E+03 0.  0.
         25    1    4    4    0    0  0.46576268891E+02 -0.45112175773E+01 -0.93676429785E+02  0.16313332432E+03  0.12509000000E+03 0.  0.
         25    1    3    3    0    0 -0.88740130945E+02 -0.15972386404E+02 -0.66997418382E+02  0.16812522160E+03  0.12509000000E+03 0.  0.
         25    1    4    4    0    0  0.42163862054E+02  0.20483603981E+02 -0.20999531751E+03  0.24888332762E+03  0.12509000000E+03 0.  0.
<mgrwt>
<rscale>  2 0.44628350E+03</rscale>
<asrwt>0</asrwt>
<pdfrwt beam="1">  1       21 0.15402405E-01 0.44628350E+03</pdfrwt>
<pdfrwt beam="2">  1       21 0.69912577E-01 0.44628350E+03</pdfrwt>
<totfact> 0.64230418E+04</totfact>
</mgrwt>
</event>
<event>
 7    0  0.4759581E-002  0.4602510E+03  0.7546771E-02  0.1024708E+00
         21   -1    0    0  502  501  0.00000000000E+00  0.00000000000E+00  0.25577503373E+03  0.25577503373E+03  0.00000000000E+00 0.  1.
         21   -1    0    0  501  502 -0.00000000000E+00 -0.00000000000E+00 -0.20704812431E+03  0.20704812431E+03  0.00000000000E+00 0.  1.
      99926    2    1    2    0    0  0.00000000000E+00 -0.53290705182E-14  0.48726909423E+02  0.46282315805E+03  0.46025097927E+03 0.  0.
      99925    2    3    3    0    0  0.11114747713E+03 -0.55030612458E+01  0.69888872049E+02  0.29406480383E+03  0.26306958976E+03 0.  0.
         25    1    3    3    0    0 -0.11114747713E+03  0.55030612458E+01 -0.21161962627E+02  0.16875835422E+03  0.12509000000E+03 0.  0.
         25    1    4    4    0    0  0.50573559026E+02  0.35310155971E+02  0.48381325543E+02  0.14762368627E+03  0.12509000000E+03 0.  0.
         25    1    4    4    0    0  0.60573918108E+02 -0.40813217217E+02  0.21507546507E+02  0.14644111756E+03  0.12509000000E+03 0.  0.
<mgrwt>
<rscale>  2 0.46025098E+03</rscale>
<asrwt>0</asrwt>
<pdfrwt beam="1">  1       21 0.37613976E-01 0.46025098E+03</pdfrwt>
<pdfrwt beam="2">  1       21 0.30448253E-01 0.46025098E+03</pdfrwt>
<totfact> 0.65201655E+04</totfact>
</mgrwt>
</event>
<event>
 7    0  0.4759581E-002  0.4516556E+03  0.7546771E-02  0.1027229E+00
         21   -1    0    0  502  501  0.00000000000E+00  0.00000000000E+00  0.79055543093E+03  0.79055543093E+03  0.00000000000E+00 0.  1.
         21   -1    0    0  501  502 -0.00000000000E+00 -0.00000000000E+00 -0.64509331944E+02  0.64509331944E+02  0.00000000000E+00 0.  1.
      99926    2    1    2    0    0  0.00000000000E+00  0.00000000000E+00  0.72604609899E+03  0.85506476288E+03  0.45165563304E+03 0.  0.
      99925    2    3    3    0    0  0.38316209777E+02 -0.69637121755E+02  0.60223108816E+03  0.66194530331E+03  0.26300539988E+03 0.  0.
         25    1    4    4    0    0  0.57828075911E+02 -0.22617130000E+02  0.30001434795E+03  0.33092557775E+03  0.12509000000E+03 0.  0.
         25    1    3    3    0    0 -0.38316209777E+02  0.69637121755E+02  0.12381501083E+03  0.19311945957E+03  0.12509000000E+03 0.  0.
         25    1    4    4    0    0 -0.19511866134E+02 -0.47019991754E+02  0.30221674021E+03  0.33101972556E+03  0.12509000000E+03 0.  0.
<mgrwt>
<rscale>  2 0.45165563E+03</rscale>
<asrwt>0</asrwt>
<pdfrwt beam="1">  1       21 0.11625815E+00 0.45165563E+03</pdfrwt>
<pdfrwt beam="2">  1       21 0.94866669E-02 0.45165563E+03</pdfrwt>
<totfact> 0.46419449E+04</totfact>
</mgrwt>
</event>
<event>
 7    0  0.4759581E-002  0.4528754E+03  0.7546771E-02  0.1026868E+00
         21   -1    0    0  502  501  0.00000000000E+00  0.00000000000E+00  0.37922713655E+03  0.37922713655E+03  0.00000000000E+00 0.  1.
         21   -1    0    0  501  502 -0.00000000000E+00 -0.00000000000E+00 -0.13520662949E+03  0.13520662949E+03  0.00000000000E+00 0.  1.
      99926    2    1    2    0    0  0.00000000000E+00 -0.35527136788E-14  0.24402050705E+03  0.51443376604E+03  0.45287536009E+03 0.  0.
      99925    2    3    3    0    0  0.10754931986E+03 -0.16444243986E+02  0.12803510540E+03  0.31210386005E+03  0.26301817785E+03 0.  0.
         25    1    4    4    0    0  0.44368451280E+02  0.20511346484E+02  0.31438669332E+02  0.13793176876E+03  0.12509000000E+03 0.  0.
         25    1    4    4    0    0  0.63180868584E+02 -0.36955590470E+02  0.96596436073E+02  0.17417209129E+03  0.12509000000E+03 0.  0.
         25    1    3    3    0    0 -0.10754931986E+03  0.16444243986E+02  0.11598540165E+03  0.20232990599E+03  0.12509000000E+03 0.  0.
<mgrwt>
<rscale>  2 0.45287536E+03</rscale>
<asrwt>0</asrwt>
<pdfrwt beam="1">  1       21 0.55768696E-01 0.45287536E+03</pdfrwt>
<pdfrwt beam="2">  1       21 0.19883328E-01 0.45287536E+03</pdfrwt>
<totfact> 0.65363100E+04</totfact>
</mgrwt>
</event>
<event>
 7    0  0.4759581E-002  0.4670139E+03  0.7546771E-02  0.1022766E+00
         21   -1    0    0  502  501  0.00000000000E+00  0.00000000000E+00  0.10983028305E+04  0.10983028305E+04  0.00000000000E+00 0.  1.
         21   -1    0    0  501  502 -0.00000000000E+00 -0.00000000000E+00 -0.49645233915E+02  0.49645233915E+02  0.00000000000E+00 0.  1.
      99926    2    1    2    0    0  0.00000000000E+00  0.00000000000E+00  0.10486575966E+04  0.11479480645E+04  0.46701392241E+03 0.  0.
      99925    2    3    3    0    0 -0.17571678012E+02 -0.83047790109E+02  0.43055143892E+03  0.51162390995E+03  0.26301860080E+03 0.  0.
         25    1    3    3    0    0  0.17571678012E+02  0.83047790109E+02  0.61810615770E+03  0.63632415450E+03  0.12509000000E+03 0.  0.
         25    1    4    4    0    0 -0.99782064317E+01 -0.27227045735E+02  0.27941479221E+03  0.30750774109E+03  0.12509000000E+03 0.  0.
         25    1    4    4    0    0 -0.75934715806E+01 -0.55820744374E+02  0.15113664671E+03  0.20411616886E+03  0.12509000000E+03 0.  0.
<mgrwt>
<rscale>  2 0.46701392E+03</rscale>
<asrwt>0</asrwt>
<pdfrwt beam="1">  1       21 0.16151511E+00 0.46701392E+03</pdfrwt>
<pdfrwt beam="2">  1       21 0.73007704E-02 0.46701392E+03</pdfrwt>
<totfact> 0.30858643E+04</totfact>
</mgrwt>
</event>
<event>
 7    0  0.4759581E-002  0.4584380E+03  0.7546771E-02  0.1025235E+00
         21   -1    0    0  502  501  0.00000000000E+00  0.00000000000E+00  0.30511114917E+03  0.30511114917E+03  0.00000000000E+00 0.  1.
         21   -1    0    0  501  502 -0.00000000000E+00 -0.00000000000E+00 -0.17220397011E+03  0.17220397011E+03  0.00000000000E+00 0.  1.
      99926    2    1    2    0    0  0.00000000000E+00 -0.35527136788E-14  0.13290717906E+03  0.47731511927E+03  0.45843800545E+03 0.  0.
      99925    2    3    3    0    0  0.34135344348E+02 -0.27909364815E+02  0.19543705644E+03  0.33068071661E+03  0.26307781915E+03 0.  0.
         25    1    4    4    0    0  0.25275633617E+02  0.18974697540E+02  0.12393215308E+03  0.17890104379E+03  0.12509000000E+03 0.  0.
         25    1    3    3    0    0 -0.34135344348E+02  0.27909364815E+02 -0.62529877383E+02  0.14663440266E+03  0.12509000000E+03 0.  0.
         25    1    4    4    0    0  0.88597107311E+01 -0.46884062355E+02  0.71504903360E+02  0.15177967282E+03  0.12509000000E+03 0.  0.
<mgrwt>
<rscale>  2 0.45843801E+03</rscale>
<asrwt>0</asrwt>
<pdfrwt beam="1">  1       21 0.44869287E-01 0.45843801E+03</pdfrwt>
<pdfrwt beam="2">  1       21 0.25324113E-01 0.45843801E+03</pdfrwt>
<totfact> 0.65101637E+04</totfact>
</mgrwt>
</event>
<event>
 7    0  0.4759581E-002  0.4688693E+03  0.7546771E-02  0.1022240E+00
         21   -1    0    0  502  501  0.00000000000E+00  0.00000000000E+00  0.40242320398E+03  0.40242320398E+03  0.00000000000E+00 0. -1.
         21   -1    0    0  501  502 -0.00000000000E+00 -0.00000000000E+00 -0.13657163260E+03  0.13657163260E+03  0.00000000000E+00 0. -1.
      99926    2    1    2    0    0  0.00000000000E+00  0.00000000000E+00  0.26585157138E+03  0.53899483658E+03  0.46886925241E+03 0.  0.
      99925    2    3    3    0    0  0.82576238203E+02 -0.31792573045E+02  0.26790689888E+03  0.38575862908E+03  0.26307035300E+03 0.  0.
         25    1    4    4    0    0  0.11057118088E+02 -0.22756095468E+02  0.16435613369E+03  0.20808783368E+03  0.12509000000E+03 0.  0.
         25    1    4    4    0    0  0.71519120115E+02 -0.90364775766E+01  0.10355076519E+03  0.17767079541E+03  0.12509000000E+03 0.  0.
         25    1    3    3    0    0 -0.82576238203E+02  0.31792573045E+02 -0.20553275031E+01  0.15323620750E+03  0.12509000000E+03 0.  0.
<mgrwt>
<rscale>  2 0.46886925E+03</rscale>
<asrwt>0</asrwt>
<pdfrwt beam="1">  1       21 0.59179883E-01 0.46886925E+03</pdfrwt>
<pdfrwt beam="2">  1       21 0.20084064E-01 0.46886925E+03</pdfrwt>
<totfact> 0.56168652E+04</totfact>
</mgrwt>
</event>
<event>
 7    0  0.4759581E-002  0.4598596E+03  0.7546771E-02  0.1024822E+00
         21   -1    0    0  502  501  0.00000000000E+00  0.00000000000E+00  0.92911172730E+03  0.92911172730E+03  0.00000000000E+00 0.  1.
         21   -1    0    0  501  502 -0.00000000000E+00 -0.00000000000E+00 -0.56901354706E+02  0.56901354706E+02  0.00000000000E+00 0.  1.
      99926    2    1    2    0    0 -0.14210854715E-13 -0.71054273576E-14  0.87221037260E+03  0.98601308201E+03  0.45985961317E+03 0.  0.
      99925    2    3    3    0    0  0.11176140656E+03  0.36985479119E+02  0.54520966822E+03  0.61664130937E+03  0.26293418270E+03 0.  0.
         25    1    3    3    0    0 -0.11176140656E+03 -0.36985479119E+02  0.32700070437E+03  0.36937177264E+03  0.12509000000E+03 0.  0.
         25    1    4    4    0    0  0.66385282487E+02  0.22594272369E+02  0.19758572058E+03  0.24414162274E+03  0.12509000000E+03 0.  0.
         25    1    4    4    0    0  0.45376124074E+02  0.14391206750E+02  0.34762394764E+03  0.37249968663E+03  0.12509000000E+03 0.  0.
<mgrwt>
<rscale>  2 0.45985961E+03</rscale>
<asrwt>0</asrwt>
<pdfrwt beam="1">  1       21 0.13663407E+00 0.45985961E+03</pdfrwt>
<pdfrwt beam="2">  1       21 0.83678468E-02 0.45985961E+03</pdfrwt>
<totfact> 0.38242176E+04</totfact>
</mgrwt>
</event>
<event>
 7    0  0.4759581E-002  0.4484757E+03  0.7546771E-02  0.1028178E+00
         21   -1    0    0  502  501  0.00000000000E+00  0.00000000000E+00  0.13985468047E+03  0.13985468047E+03  0.00000000000E+00 0. -1.
         21   -1    0    0  501  502 -0.00000000000E+00 -0.00000000000E+00 -0.35953465230E+03  0.35953465230E+03  0.00000000000E+00 0. -1.
      99926    2    1    2    0    0  0.00000000000E+00 -0.35527136788E-14 -0.21967997183E+03  0.49938933276E+03  0.44847565782E+03 0.  0.
      99925    2    3    3    0    0  0.10420439749E+03 -0.17598619176E+02 -0.15903501348E+03  0.32476520234E+03  0.26270141470E+03 0.  0.
         25    1    4    4    0    0  0.79122865511E+02  0.82414677778E+01 -0.11406019082E+03  0.18704433931E+03  0.12509000000E+03 0.  0.
         25    1    3    3    0    0 -0.10420439749E+03  0.17598619176E+02 -0.60644958354E+02  0.17462413043E+03  0.12509000000E+03 0.  0.
         25    1    4    4    0    0  0.25081531981E+02 -0.25840086954E+02 -0.44974822660E+02  0.13772086303E+03  0.12509000000E+03 0.  0.
<mgrwt>
<rscale>  2 0.44847566E+03</rscale>
<asrwt>0</asrwt>
<pdfrwt beam="1">  1       21 0.20566865E-01 0.44847566E+03</pdfrwt>
<pdfrwt beam="2">  1       21 0.52872742E-01 0.44847566E+03</pdfrwt>
<totfact> 0.68808559E+04</totfact>
</mgrwt>
</event>
<event>
 7    0  0.4759581E-002  0.4469812E+03  0.7546771E-02  0.1028626E+00
         21   -1    0    0  502  501  0.00000000000E+00  0.00000000000E+00  0.13542021603E+04  0.13542021603E+04  0.00000000000E+00 0.  1.
         21   -1    0    0  501  502 -0.00000000000E+00 -0.00000000000E+00 -0.36883745887E+02  0.36883745887E+02  0.00000000000E+00 0.  1.
      99926    2    1    2    0    0 -0.35527136788E-14  0.00000000000E+00  0.13173184144E+04  0.13910859061E+04  0.44698120032E+03 0.  0.
      99925    2    3    3    0    0  0.14324037858E+02  0.26127220053E+02  0.52016318800E+03  0.58362583115E+03  0.26298585312E+03 0.  0.
         25    1    4    4    0    0 -0.23904208408E+02 -0.12387704300E+02  0.23662726918E+03  0.26900713562E+03  0.12509000000E+03 0.  0.
         25    1    4    4    0    0  0.38228246266E+02  0.38514924353E+02  0.28353591882E+03  0.31461869552E+03  0.12509000000E+03 0.  0.
         25    1    3    3    0    0 -0.14324037858E+02 -0.26127220053E+02  0.79715522636E+03  0.80746007499E+03  0.12509000000E+03 0.  0.
<mgrwt>
<rscale>  2 0.44698120E+03</rscale>
<asrwt>0</asrwt>
<pdfrwt beam="1">  1       21 0.19914734E+00 0.44698120E+03</pdfrwt>
<pdfrwt beam="2">  1       21 0.54240812E-02 0.44698120E+03</pdfrwt>
<totfact> 0.28293065E+04</totfact>
</mgrwt>
</event>
<event>
 7    0  0.4759581E-002  0.4358975E+03  0.7546771E-02  0.1032013E+00
         21   -1    0    0  502  501  0.00000000000E+00  0.00000000000E+00  0.48566159275E+03  0.48566159275E+03  0.00000000000E+00 0. -1.
         21   -1    0    0  501  502 -0.00000000000E+00 -0.00000000000E+00 -0.97808128582E+02  0.97808128582E+02  0.00000000000E+00 0. -1.
      99926    2    1    2    0    0  0.00000000000E+00  0.00000000000E+00  0.38785346416E+03  0.58346972133E+03  0.43589747194E+03 0.  0.
      99925    2    3    3    0    0  0.14903582487E+02 -0.69406992118E+02  0.16594812967E+03  0.31902892852E+03  0.26306126314E+03 0.  0.
         25    1    4    4    0    0 -0.14387411186E-01 -0.33794783329E+00  0.51211928990E+02  0.13516761515E+03  0.12509000000E+03 0.  0.
         25    1    4    4    0    0  0.14917969899E+02 -0.69069044285E+02  0.11473620068E+03  0.18386131336E+03  0.12509000000E+03 0.  0.
         25    1    3    3    0    0 -0.14903582487E+02  0.69406992118E+02  0.22190533449E+03  0.26444079281E+03  0.12509000000E+03 0.  0.
<mgrwt>
<rscale>  2 0.43589747E+03</rscale>
<asrwt>0</asrwt>
<pdfrwt beam="1">  1       21 0.71420822E-01 0.43589747E+03</pdfrwt>
<pdfrwt beam="2">  1       21 0.14383548E-01 0.43589747E+03</pdfrwt>
<totfact> 0.69642307E+04</totfact>
</mgrwt>
</event>
<event>
 7    0  0.4759581E-002  0.4268889E+03  0.7546771E-02  0.1034847E+00
         21   -1    0    0  502  501  0.00000000000E+00  0.00000000000E+00  0.79785919081E+02  0.79785919081E+02  0.00000000000E+00 0.  1.
         21   -1    0    0  501  502 -0.00000000000E+00 -0.00000000000E+00 -0.57100959437E+03  0.57100959437E+03  0.00000000000E+00 0.  1.
      99926    2    1    2    0    0 -0.35527136788E-14  0.00000000000E+00 -0.49122367529E+03  0.65079551345E+03  0.42688886278E+03 0.  0.
      99925    2    3    3    0    0 -0.27672847201E+02 -0.65335700582E+02 -0.24843993642E+03  0.36861473416E+03  0.26290659936E+03 0.  0.
         25    1    4    4    0    0 -0.17215869953E+02 -0.67265105999E+02 -0.16233831884E+03  0.21638442302E+03  0.12509000000E+03 0.  0.
         25    1    4    4    0    0 -0.10456977247E+02  0.19294054171E+01 -0.86101617582E+02  0.15223031114E+03  0.12509000000E+03 0.  0.
         25    1    3    3    0    0  0.27672847201E+02  0.65335700582E+02 -0.24278373887E+03  0.28218077929E+03  0.12509000000E+03 0.  0.
<mgrwt>
<rscale>  2 0.42688886E+03</rscale>
<asrwt>0</asrwt>
<pdfrwt beam="1">  1       21 0.11733224E-01 0.42688886E+03</pdfrwt>
<pdfrwt beam="2">  1       21 0.83971995E-01 0.42688886E+03</pdfrwt>
<totfact> 0.69906134E+04</totfact>
</mgrwt>
</event>
<event>
 7    0  0.4759581E-002  0.4457385E+03  0.7546771E-02  0.1029001E+00
         21   -1    0    0  502  501  0.00000000000E+00  0.00000000000E+00  0.18320962799E+03  0.18320962799E+03  0.00000000000E+00 0.  1.
         21   -1    0    0  501  502 -0.00000000000E+00 -0.00000000000E+00 -0.27111404052E+03  0.27111404052E+03  0.00000000000E+00 0.  1.
      99926    2    1    2    0    0  0.00000000000E+00  0.14210854715E-13 -0.87904412529E+02  0.45432366851E+03  0.44573849960E+03 0.  0.
      99925    2    3    3    0    0 -0.87337494837E+02  0.51517602469E+02 -0.30942555397E+02  0.28351950394E+03  0.26295240255E+03 0.  0.
         25    1    3    3    0    0  0.87337494837E+02 -0.51517602469E+02 -0.56961857132E+02  0.17080416458E+03  0.12509000000E+03 0.  0.
         25    1    4    4    0    0 -0.35737395154E+02 -0.14659210606E+02 -0.81148651499E+01  0.13116940575E+03  0.12509000000E+03 0.  0.
         25    1    4    4    0    0 -0.51600099683E+02  0.66176813074E+02 -0.22827690247E+02  0.15235009819E+03  0.12509000000E+03 0.  0.
<mgrwt>
<rscale>  2 0.44573850E+03</rscale>
<asrwt>0</asrwt>
<pdfrwt beam="1">  1       21 0.26942593E-01 0.44573850E+03</pdfrwt>
<pdfrwt beam="2">  1       21 0.39869711E-01 0.44573850E+03</pdfrwt>
<totfact> 0.73901907E+04</totfact>
</mgrwt>
</event>
<event>
 7    0  0.4759581E-002  0.4494885E+03  0.7546771E-02  0.1027875E+00
         21   -1    0    0  502  501  0.00000000000E+00  0.00000000000E+00  0.87808158585E+02  0.87808158585E+02  0.00000000000E+00 0.  1.
         21   -1    0    0  501  502 -0.00000000000E+00 -0.00000000000E+00 -0.57523093300E+03  0.57523093300E+03  0.00000000000E+00 0.  1.
      99926    2    1    2    0    0  0.00000000000E+00  0.00000000000E+00 -0.48742277441E+03  0.66303909158E+03  0.44948846031E+03 0.  0.
      99925    2    3    3    0    0  0.48303015488E+02  0.72736282141E+02 -0.21419072702E+03  0.35010617885E+03  0.26281727661E+03 0.  0.
         25    1    4    4    0    0  0.61955979274E+01  0.18039479909E+02 -0.60466432917E+02  0.14024088519E+03  0.12509000000E+03 0.  0.
         25    1    3    3    0    0 -0.48303015488E+02 -0.72736282141E+02 -0.27323204740E+03  0.31293291273E+03  0.12509000000E+03 0.  0.
         25    1    4    4    0    0  0.42107417560E+02  0.54696802232E+02 -0.15372429410E+03  0.20986529366E+03  0.12509000000E+03 0.  0.
<mgrwt>
<rscale>  2 0.44948846E+03</rscale>
<asrwt>0</asrwt>
<pdfrwt beam="1">  1       21 0.12912964E-01 0.44948846E+03</pdfrwt>
<pdfrwt beam="2">  1       21 0.84592786E-01 0.44948846E+03</pdfrwt>
<totfact> 0.57410110E+04</totfact>
</mgrwt>
</event>
<event>
 7    0  0.4759581E-002  0.4458714E+03  0.7546771E-02  0.1028960E+00
         21   -1    0    0  502  501  0.00000000000E+00  0.00000000000E+00  0.92997057002E+03  0.92997057002E+03  0.00000000000E+00 0.  1.
         21   -1    0    0  501  502 -0.00000000000E+00 -0.00000000000E+00 -0.53442904724E+02  0.53442904724E+02  0.00000000000E+00 0.  1.
      99926    2    1    2    0    0  0.00000000000E+00  0.14210854715E-13  0.87652766529E+03  0.98341347474E+03  0.44587141003E+03 0.  0.
      99925    2    3    3    0    0 -0.18881152554E+02 -0.10260705364E+03  0.55260017292E+03  0.62083764296E+03  0.26303559155E+03 0.  0.
         25    1    4    4    0    0  0.80639922479E+01 -0.89681885716E+02  0.28866241434E+03  0.32723289283E+03  0.12509000000E+03 0.  0.
         25    1    4    4    0    0 -0.26945144802E+02 -0.12925167923E+02  0.26393775858E+03  0.29360475013E+03  0.12509000000E+03 0.  0.
         25    1    3    3    0    0  0.18881152554E+02  0.10260705364E+03  0.32392749237E+03  0.36257583178E+03  0.12509000000E+03 0.  0.
<mgrwt>
<rscale>  2 0.44587141E+03</rscale>
<asrwt>0</asrwt>
<pdfrwt beam="1">  1       21 0.13676037E+00 0.44587141E+03</pdfrwt>
<pdfrwt beam="2">  1       21 0.78592513E-02 0.44587141E+03</pdfrwt>
<totfact> 0.42788727E+04</totfact>
</mgrwt>
</event>
<event>
 7    0  0.4759581E-002  0.4447247E+03  0.7546771E-02  0.1029307E+00
         21   -1    0    0  502  501  0.00000000000E+00  0.00000000000E+00  0.23265528689E+03  0.23265528689E+03  0.00000000000E+00 0.  1.
         21   -1    0    0  501  502 -0.00000000000E+00 -0.00000000000E+00 -0.21252477796E+03  0.21252477796E+03  0.00000000000E+00 0.  1.
      99926    2    1    2    0    0  0.00000000000E+00  0.35527136788E-14  0.20130508923E+02  0.44518006485E+03  0.44472469321E+03 0.  0.
      99925    2    3    3    0    0 -0.79470461119E+02  0.42708876700E+01  0.78673212199E+02  0.28577946611E+03  0.26295747615E+03 0.  0.
         25    1    4    4    0    0 -0.45939395203E+02  0.33787201733E+02  0.14426063711E+02  0.13823032390E+03  0.12509000000E+03 0.  0.
         25    1    4    4    0    0 -0.33531065915E+02 -0.29516314063E+02  0.64247148489E+02  0.14754914221E+03  0.12509000000E+03 0.  0.
         25    1    3    3    0    0  0.79470461119E+02 -0.42708876700E+01 -0.58542703276E+02  0.15940059874E+03  0.12509000000E+03 0.  0.
<mgrwt>
<rscale>  2 0.44472469E+03</rscale>
<asrwt>0</asrwt>
<pdfrwt beam="1">  1       21 0.34214013E-01 0.44472469E+03</pdfrwt>
<pdfrwt beam="2">  1       21 0.31253644E-01 0.44472469E+03</pdfrwt>
<totfact> 0.75254375E+04</totfact>
</mgrwt>
</event>
<event>
 7    0  0.4759581E-002  0.4736825E+03  0.7546771E-02  0.1020886E+00
         21   -1    0    0  502  501  0.00000000000E+00  0.00000000000E+00  0.17625019312E+04  0.17625019312E+04  0.00000000000E+00 0.  1.
         21   -1    0    0  501  502 -0.00000000000E+00 -0.00000000000E+00 -0.31826227297E+02  0.31826227297E+02  0.00000000000E+00 0.  1.
      99926    2    1    2    0    0  0.00000000000E+00  0.17763568394E-14  0.17306757039E+04  0.17943281585E+04  0.47368253957E+03 0.  0.
      99925    2    3    3    0    0  0.12764475073E+03 -0.14822884981E+02  0.11440055922E+04  0.11808607769E+04  0.26300281168E+03 0.  0.
         25    1    3    3    0    0 -0.12764475073E+03  0.14822884981E+02  0.58667011163E+03  0.61346738160E+03  0.12509000000E+03 0.  0.
         25    1    4    4    0    0  0.99307097629E+02 -0.17498171517E+02  0.72819368261E+03  0.74570881256E+03  0.12509000000E+03 0.  0.
         25    1    4    4    0    0  0.28337653101E+02  0.26752865365E+01  0.41581190964E+03  0.43515196431E+03  0.12509000000E+03 0.  0.
<mgrwt>
<rscale>  2 0.47368254E+03</rscale>
<asrwt>0</asrwt>
<pdfrwt beam="1">  1       21 0.25919139E+00 0.47368254E+03</pdfrwt>
<pdfrwt beam="2">  1       21 0.46803287E-02 0.47368254E+03</pdfrwt>
<totfact> 0.15062674E+04</totfact>
</mgrwt>
</event>
<event>
 7    0  0.4759581E-002  0.4574351E+03  0.7546771E-02  0.1025528E+00
         21   -1    0    0  502  501  0.00000000000E+00  0.00000000000E+00  0.15992222388E+03  0.15992222388E+03  0.00000000000E+00 0.  1.
         21   -1    0    0  501  502 -0.00000000000E+00 -0.00000000000E+00 -0.32710718310E+03  0.32710718310E+03  0.00000000000E+00 0.  1.
      99926    2    1    2    0    0  0.00000000000E+00  0.00000000000E+00 -0.16718495922E+03  0.48702940699E+03  0.45743505843E+03 0.  0.
      99925    2    3    3    0    0  0.47514945510E+02 -0.90999343177E+01  0.76719822574E+01  0.26665940691E+03  0.26212192036E+03 0.  0.
         25    1    4    4    0    0  0.31939580479E+02 -0.27798801777E+02  0.34361490709E+02  0.13645926251E+03  0.12509000000E+03 0.  0.
         25    1    4    4    0    0  0.15575365031E+02  0.18698867459E+02 -0.26689508452E+02  0.13020014440E+03  0.12509000000E+03 0.  0.
         25    1    3    3    0    0 -0.47514945510E+02  0.90999343177E+01 -0.17485694147E+03  0.22037000008E+03  0.12509000000E+03 0.  0.
<mgrwt>
<rscale>  2 0.45743506E+03</rscale>
<asrwt>0</asrwt>
<pdfrwt beam="1">  1       21 0.23517974E-01 0.45743506E+03</pdfrwt>
<pdfrwt beam="2">  1       21 0.48103997E-01 0.45743506E+03</pdfrwt>
<totfact> 0.64927673E+04</totfact>
</mgrwt>
</event>
<event>
 7    0  0.4759581E-002  0.4561009E+03  0.7546771E-02  0.1025918E+00
         21   -1    0    0  502  501  0.00000000000E+00  0.00000000000E+00  0.46989863708E+02  0.46989863708E+02  0.00000000000E+00 0.  1.
         21   -1    0    0  501  502 -0.00000000000E+00 -0.00000000000E+00 -0.11067708749E+04  0.11067708749E+04  0.00000000000E+00 0.  1.
      99926    2    1    2    0    0  0.71054273576E-14  0.00000000000E+00 -0.10597810112E+04  0.11537607386E+04  0.45610092115E+03 0.  0.
      99925    2    3    3    0    0 -0.34610758579E+02 -0.14524465240E+02 -0.39365578207E+03  0.47495355415E+03  0.26307249788E+03 0.  0.
         25    1    4    4    0    0 -0.36200190430E+02 -0.13479321030E+02 -0.13737139667E+03  0.18976447140E+03  0.12509000000E+03 0.  0.
         25    1    4    4    0    0  0.15894318507E+01 -0.10451442099E+01 -0.25628438540E+03  0.28518908275E+03  0.12509000000E+03 0.  0.
         25    1    3    3    0    0  0.34610758579E+02  0.14524465240E+02 -0.66612522915E+03  0.67880718448E+03  0.12509000000E+03 0.  0.
<mgrwt>
<rscale>  2 0.45610092E+03</rscale>
<asrwt>0</asrwt>
<pdfrwt beam="1">  1       21 0.69102740E-02 0.45610092E+03</pdfrwt>
<pdfrwt beam="2">  1       21 0.16276043E+00 0.45610092E+03</pdfrwt>
<totfact> 0.33369818E+04</totfact>
</mgrwt>
</event>
<event>
 7    0  0.4759581E-002  0.4513568E+03  0.7546771E-02  0.1027318E+00
         21   -1    0    0  502  501  0.00000000000E+00  0.00000000000E+00  0.10553921332E+04  0.10553921332E+04  0.00000000000E+00 0. -1.
         21   -1    0    0  501  502 -0.00000000000E+00 -0.00000000000E+00 -0.48257655826E+02  0.48257655826E+02  0.00000000000E+00 0. -1.
      99926    2    1    2    0    0  0.00000000000E+00  0.00000000000E+00  0.10071344774E+04  0.11036497891E+04  0.45135684476E+03 0.  0.
      99925    2    3    3    0    0  0.74927174296E+02 -0.79919486897E+02  0.64920534033E+03  0.70898286480E+03  0.26303597252E+03 0.  0.
         25    1    3    3    0    0 -0.74927174296E+02  0.79919486897E+02  0.35792913708E+03  0.39466692426E+03  0.12509000000E+03 0.  0.
         25    1    4    4    0    0  0.44474605407E+02 -0.61072887131E+01  0.36351939519E+03  0.38705186769E+03  0.12509000000E+03 0.  0.
         25    1    4    4    0    0  0.30452568889E+02 -0.73812198184E+02  0.28568594514E+03  0.32193099712E+03  0.12509000000E+03 0.  0.
<mgrwt>
<rscale>  2 0.45135684E+03</rscale>
<asrwt>0</asrwt>
<pdfrwt beam="1">  1       21 0.15520471E+00 0.45135684E+03</pdfrwt>
<pdfrwt beam="2">  1       21 0.70967147E-02 0.45135684E+03</pdfrwt>
<totfact> 0.36390801E+04</totfact>
</mgrwt>
</event>
<event>
 7    0  0.4759581E-002  0.4460848E+03  0.7546771E-02  0.1028896E+00
         21   -1    0    0  502  501  0.00000000000E+00  0.00000000000E+00  0.76026607833E+03  0.76026607833E+03  0.00000000000E+00 0. -1.
         21   -1    0    0  501  502 -0.00000000000E+00 -0.00000000000E+00 -0.65434880529E+02  0.65434880529E+02  0.00000000000E+00 0. -1.
      99926    2    1    2    0    0  0.13322676296E-14 -0.71054273576E-14  0.69483119780E+03  0.82570095886E+03  0.44608483501E+03 0.  0.
      99925    2    3    3    0    0 -0.27761655967E+01 -0.57571523304E+02  0.27941159726E+03  0.38804454110E+03  0.26303143881E+03 0.  0.
         25    1    3    3    0    0  0.27761655967E+01  0.57571523304E+02  0.41541960054E+03  0.43765641776E+03  0.12509000000E+03 0.  0.
         25    1    4    4    0    0 -0.18144637442E+02  0.69149620230E+01  0.11436180538E+03  0.17059652751E+03  0.12509000000E+03 0.  0.
         25    1    4    4    0    0  0.15368471845E+02 -0.64486485327E+02  0.16504979188E+03  0.21744801360E+03  0.12509000000E+03 0.  0.
<mgrwt>
<rscale>  2 0.44608484E+03</rscale>
<asrwt>0</asrwt>
<pdfrwt beam="1">  1       21 0.11180383E+00 0.44608484E+03</pdfrwt>
<pdfrwt beam="2">  1       21 0.96227770E-02 0.44608484E+03</pdfrwt>
<totfact> 0.49950151E+04</totfact>
</mgrwt>
</event>
<event>
 7    0  0.4759581E-002  0.4665459E+03  0.7546771E-02  0.1022900E+00
         21   -1    0    0  502  501  0.00000000000E+00  0.00000000000E+00  0.25264653854E+03  0.25264653854E+03  0.00000000000E+00 0.  1.
         21   -1    0    0  501  502 -0.00000000000E+00 -0.00000000000E+00 -0.21538500583E+03  0.21538500583E+03  0.00000000000E+00 0.  1.
      99926    2    1    2    0    0  0.26645352591E-14 -0.71054273576E-14  0.37261532718E+02  0.46803154437E+03  0.46654592990E+03 0.  0.
      99925    2    3    3    0    0  0.29097393273E+01 -0.56870704436E+02  0.13340571845E+03  0.30029974608E+03  0.26294506684E+03 0.  0.
         25    1    4    4    0    0  0.21309534505E+02 -0.61204157323E+02  0.86819237492E+02  0.16548454077E+03  0.12509000000E+03 0.  0.
         25    1    4    4    0    0 -0.18399795177E+02  0.43334528870E+01  0.46586480956E+02  0.13481520532E+03  0.12509000000E+03 0.  0.
         25    1    3    3    0    0 -0.29097393273E+01  0.56870704436E+02 -0.96144185731E+02  0.16773179828E+03  0.12509000000E+03 0.  0.
<mgrwt>
<rscale>  2 0.46654593E+03</rscale>
<asrwt>0</asrwt>
<pdfrwt beam="1">  1       21 0.37153903E-01 0.46654593E+03</pdfrwt>
<pdfrwt beam="2">  1       21 0.31674265E-01 0.46654593E+03</pdfrwt>
<totfact> 0.61717037E+04</totfact>
</mgrwt>
</event>
<event>
 7    0  0.4759581E-002  0.4564594E+03  0.7546771E-02  0.1025813E+00
         21   -1    0    0  502  501  0.00000000000E+00  0.00000000000E+00  0.13465167229E+04  0.13465167229E+04  0.00000000000E+00 0.  1.
         21   -1    0    0  501  502 -0.00000000000E+00 -0.00000000000E+00 -0.38684112554E+02  0.38684112554E+02  0.00000000000E+00 0.  1.
      99926    2    1    2    0    0 -0.35527136788E-14 -0.14210854715E-13  0.13078326103E+04  0.13852008354E+04  0.45645943725E+03 0.  0.
      99925    2    3    3    0    0  0.20518853203E+02 -0.76194525628E+02  0.56916699480E+03  0.63187419398E+03  0.26284463086E+03 0.  0.
         25    1    4    4    0    0  0.22613855751E+02 -0.70725310011E+02  0.25345622591E+03  0.29223453338E+03  0.12509000000E+03 0.  0.
         25    1    3    3    0    0 -0.20518853203E+02  0.76194525628E+02  0.73866561550E+03  0.75332664144E+03  0.12509000000E+03 0.  0.
         25    1    4    4    0    0 -0.20950025484E+01 -0.54692156176E+01  0.31571076889E+03  0.33963966059E+03  0.12509000000E+03 0.  0.
<mgrwt>
<rscale>  2 0.45645944E+03</rscale>
<asrwt>0</asrwt>
<pdfrwt beam="1">  1       21 0.19801713E+00 0.45645944E+03</pdfrwt>
<pdfrwt beam="2">  1       21 0.56888410E-02 0.45645944E+03</pdfrwt>
<totfact> 0.26428032E+04</totfact>
</mgrwt>
</event>
<event>
 7    0  0.4759581E-002  0.4481828E+03  0.7546771E-02  0.1028265E+00
         21   -1    0    0  502  501  0.00000000000E+00  0.00000000000E+00  0.38996904778E+02  0.38996904778E+02  0.00000000000E+00 0.  1.
         21   -1    0    0  501  502 -0.00000000000E+00 -0.00000000000E+00 -0.12877167195E+04  0.12877167195E+04  0.00000000000E+00 0.  1.
      99926    2    1    2    0    0 -0.71054273576E-14  0.00000000000E+00 -0.12487198147E+04  0.13267136243E+04  0.44818284791E+03 0.  0.
      99925    2    3    3    0    0  0.63573114468E+02  0.77577327597E+02 -0.68345253932E+03  0.73914713155E+03  0.26300442188E+03 0.  0.
         25    1    3    3    0    0 -0.63573114468E+02 -0.77577327597E+02 -0.56526727538E+03  0.58756649271E+03  0.12509000000E+03 0.  0.
         25    1    4    4    0    0  0.34876518828E+02  0.72211283682E+02 -0.30056537398E+03  0.33528777668E+03  0.12509000000E+03 0.  0.
         25    1    4    4    0    0  0.28696595640E+02  0.53660439155E+01 -0.38288716534E+03  0.40385935486E+03  0.12509000000E+03 0.  0.
<mgrwt>
<rscale>  2 0.44818285E+03</rscale>
<asrwt>0</asrwt>
<pdfrwt beam="1">  1       21 0.57348392E-02 0.44818285E+03</pdfrwt>
<pdfrwt beam="2">  1       21 0.18937010E+00 0.44818285E+03</pdfrwt>
<totfact> 0.29902615E+04</totfact>
</mgrwt>
</event>
<event>
 7    0  0.4759581E-002  0.4540284E+03  0.7546771E-02  0.1026528E+00
         21   -1    0    0  502  501  0.00000000000E+00  0.00000000000E+00  0.83205304426E+03  0.83205304426E+03  0.00000000000E+00 0.  1.
         21   -1    0    0  501  502 -0.00000000000E+00 -0.00000000000E+00 -0.61937682277E+02  0.61937682277E+02  0.00000000000E+00 0.  1.
      99926    2    1    2    0    0 -0.14210854715E-13 -0.71054273576E-14  0.77011536198E+03  0.89399072654E+03  0.45402835635E+03 0.  0.
      99925    2    3    3    0    0  0.87501416589E+02  0.39936974239E+02  0.59896543252E+03  0.66120055005E+03  0.26301163132E+03 0.  0.
         25    1    3    3    0    0 -0.87501416589E+02 -0.39936974239E+02  0.17114992946E+03  0.23279017649E+03  0.12509000000E+03 0.  0.
         25    1    4    4    0    0  0.83035532769E+02  0.19029788684E+02  0.28815623164E+03  0.32548203405E+03  0.12509000000E+03 0.  0.
         25    1    4    4    0    0  0.44658838198E+01  0.20907185555E+02  0.31080920089E+03  0.33571851600E+03  0.12509000000E+03 0.  0.
<mgrwt>
<rscale>  2 0.45402836E+03</rscale>
<asrwt>0</asrwt>
<pdfrwt beam="1">  1       21 0.12236073E+00 0.45402836E+03</pdfrwt>
<pdfrwt beam="2">  1       21 0.91084832E-02 0.45402836E+03</pdfrwt>
<totfact> 0.43827016E+04</totfact>
</mgrwt>
</event>
<event>
 7    0  0.4759581E-002  0.4527987E+03  0.7546771E-02  0.1026891E+00
         21   -1    0    0  502  501  0.00000000000E+00  0.00000000000E+00  0.12626274215E+04  0.12626274215E+04  0.00000000000E+00 0.  1.
         21   -1    0    0  501  502 -0.00000000000E+00 -0.00000000000E+00 -0.40595244706E+02  0.40595244706E+02  0.00000000000E+00 0.  1.
      99926    2    1    2    0    0  0.00000000000E+00  0.00000000000E+00  0.12220321768E+04  0.13032226662E+04  0.45279871532E+03 0.  0.
      99925    2    3    3    0    0  0.13795353824E+02  0.75655463828E+02  0.53964435667E+03  0.60521499709E+03  0.26297357285E+03 0.  0.
         25    1    4    4    0    0  0.77752538329E+01  0.59164752133E+02  0.35868225976E+03  0.38452749451E+03  0.12509000000E+03 0.  0.
         25    1    4    4    0    0  0.60200999909E+01  0.16490711695E+02  0.18096209691E+03  0.22068750258E+03  0.12509000000E+03 0.  0.
         25    1    3    3    0    0 -0.13795353824E+02 -0.75655463828E+02  0.68238782013E+03  0.69800766912E+03  0.12509000000E+03 0.  0.
<mgrwt>
<rscale>  2 0.45279872E+03</rscale>
<asrwt>0</asrwt>
<pdfrwt beam="1">  1       21 0.18568048E+00 0.45279872E+03</pdfrwt>
<pdfrwt beam="2">  1       21 0.59698898E-02 0.45279872E+03</pdfrwt>
<totfact> 0.29523427E+04</totfact>
</mgrwt>
</event>
<event>
 7    0  0.4759581E-002  0.4528679E+03  0.7546771E-02  0.1026870E+00
         21   -1    0    0  502  501  0.00000000000E+00  0.00000000000E+00  0.46675478154E+03  0.46675478154E+03  0.00000000000E+00 0.  1.
         21   -1    0    0  501  502 -0.00000000000E+00 -0.00000000000E+00 -0.10984853157E+03  0.10984853157E+03  0.00000000000E+00 0.  1.
      99926    2    1    2    0    0  0.14210854715E-13  0.00000000000E+00  0.35690624996E+03  0.57660331311E+03  0.45286787193E+03 0.  0.
      99925    2    3    3    0    0  0.97723466997E+02 -0.18661361850E+02  0.15948964657E+03  0.32259751431E+03  0.26217186434E+03 0.  0.
         25    1    4    4    0    0  0.10001304837E+02 -0.14351084081E+02  0.87457266217E+02  0.15363027445E+03  0.12509000000E+03 0.  0.
         25    1    3    3    0    0 -0.97723466997E+02  0.18661361850E+02  0.19741660339E+03  0.25400579880E+03  0.12509000000E+03 0.  0.
         25    1    4    4    0    0  0.87722162160E+02 -0.43102777687E+01  0.72032380354E+02  0.16896723987E+03  0.12509000000E+03 0.  0.
<mgrwt>
<rscale>  2 0.45286787E+03</rscale>
<asrwt>0</asrwt>
<pdfrwt beam="1">  1       21 0.68640408E-01 0.45286787E+03</pdfrwt>
<pdfrwt beam="2">  1       21 0.16154196E-01 0.45286787E+03</pdfrwt>
<totfact> 0.61166621E+04</totfact>
</mgrwt>
</event>
<event>
 7    0  0.4759581E-002  0.4409401E+03  0.7546771E-02  0.1030459E+00
         21   -1    0    0  502  501  0.00000000000E+00  0.00000000000E+00  0.68998471794E+03  0.68998471794E+03  0.00000000000E+00 0.  1.
         21   -1    0    0  501  502 -0.00000000000E+00 -0.00000000000E+00 -0.70446564503E+02  0.70446564503E+02  0.00000000000E+00 0.  1.
      99926    2    1    2    0    0 -0.17763568394E-14  0.35527136788E-14  0.61953815344E+03  0.76043128245E+03  0.44094014532E+03 0.  0.
      99925    2    3    3    0    0  0.11163327353E+02 -0.14712229011E+02  0.56392537890E+03  0.62229599241E+03  0.26248695139E+03 0.  0.
         25    1    3    3    0    0 -0.11163327353E+02  0.14712229011E+02  0.55612774543E+02  0.13813529003E+03  0.12509000000E+03 0.  0.
         25    1    4    4    0    0  0.44125928303E+01  0.22697900853E+02  0.21677979367E+03  0.25134767300E+03  0.12509000000E+03 0.  0.
         25    1    4    4    0    0  0.67507345222E+01 -0.37410129864E+02  0.34714558523E+03  0.37094831941E+03  0.12509000000E+03 0.  0.
<mgrwt>
<rscale>  2 0.44094015E+03</rscale>
<asrwt>0</asrwt>
<pdfrwt beam="1">  1       21 0.10146834E+00 0.44094015E+03</pdfrwt>
<pdfrwt beam="2">  1       21 0.10359789E-01 0.44094015E+03</pdfrwt>
<totfact> 0.55629225E+04</totfact>
</mgrwt>
</event>
<event>
 7    0  0.4759581E-002  0.4527319E+03  0.7546771E-02  0.1026910E+00
         21   -1    0    0  502  501  0.00000000000E+00  0.00000000000E+00  0.67846972456E+03  0.67846972456E+03  0.00000000000E+00 0.  1.
         21   -1    0    0  501  502 -0.00000000000E+00 -0.00000000000E+00 -0.75525160047E+02  0.75525160047E+02  0.00000000000E+00 0.  1.
      99926    2    1    2    0    0  0.00000000000E+00  0.88817841970E-15  0.60294456451E+03  0.75399488461E+03  0.45273186119E+03 0.  0.
      99925    2    3    3    0    0 -0.11037541652E+03  0.44169931357E+01  0.39914487526E+03  0.49058633532E+03  0.26297543336E+03 0.  0.
         25    1    4    4    0    0 -0.43273945495E+02  0.17706736568E+02  0.13195895127E+03  0.18774140673E+03  0.12509000000E+03 0.  0.
         25    1    4    4    0    0 -0.67101471026E+02 -0.13289743432E+02  0.26718592399E+03  0.30284492859E+03  0.12509000000E+03 0.  0.
         25    1    3    3    0    0  0.11037541652E+03 -0.44169931357E+01  0.20379968925E+03  0.26340854929E+03  0.12509000000E+03 0.  0.
<mgrwt>
<rscale>  2 0.45273186E+03</rscale>
<asrwt>0</asrwt>
<pdfrwt beam="1">  1       21 0.99774956E-01 0.45273186E+03</pdfrwt>
<pdfrwt beam="2">  1       21 0.11106642E-01 0.45273186E+03</pdfrwt>
<totfact> 0.50969980E+04</totfact>
</mgrwt>
</event>
<event>
 7    0  0.4759581E-002  0.4585094E+03  0.7546771E-02  0.1025214E+00
         21   -1    0    0  502  501  0.00000000000E+00  0.00000000000E+00  0.59802658992E+02  0.59802658992E+02  0.00000000000E+00 0. -1.
         21   -1    0    0  501  502 -0.00000000000E+00 -0.00000000000E+00 -0.87885246651E+03  0.87885246651E+03  0.00000000000E+00 0. -1.
      99926    2    1    2    0    0  0.14210854715E-13  0.00000000000E+00 -0.81904980751E+03  0.93865512550E+03  0.45850938642E+03 0.  0.
      99925    2    3    3    0    0 -0.10719546875E+03  0.40795940128E+02 -0.56519892632E+03  0.63329803087E+03  0.26165128004E+03 0.  0.
         25    1    4    4    0    0 -0.38299643756E+02 -0.11293286006E+02 -0.30285466722E+03  0.33009522653E+03  0.12509000000E+03 0.  0.
         25    1    3    3    0    0  0.10719546875E+03 -0.40795940128E+02 -0.25385088120E+03  0.30535709462E+03  0.12509000000E+03 0.  0.
         25    1    4    4    0    0 -0.68895824997E+02  0.52089226133E+02 -0.26234425910E+03  0.30320280435E+03  0.12509000000E+03 0.  0.
<mgrwt>
<rscale>  2 0.45850939E+03</rscale>
<asrwt>0</asrwt>
<pdfrwt beam="1">  1       21 0.87945086E-02 0.45850939E+03</pdfrwt>
<pdfrwt beam="2">  1       21 0.12924301E+00 0.45850939E+03</pdfrwt>
<totfact> 0.40481105E+04</totfact>
</mgrwt>
</event>
<event>
 7    0  0.4759581E-002  0.4306187E+03  0.7546771E-02  0.1033665E+00
         21   -1    0    0  502  501  0.00000000000E+00  0.00000000000E+00  0.10541548466E+03  0.10541548466E+03  0.00000000000E+00 0. -1.
         21   -1    0    0  501  502 -0.00000000000E+00 -0.00000000000E+00 -0.43976573822E+03  0.43976573822E+03  0.00000000000E+00 0. -1.
      99926    2    1    2    0    0  0.35527136788E-14  0.71054273576E-14 -0.33435025356E+03  0.54518122288E+03  0.43061871037E+03 0.  0.
      99925    2    3    3    0    0  0.14118588955E+02  0.57169376853E+02 -0.29897447467E+03  0.40246953437E+03  0.26292264525E+03 0.  0.
         25    1    4    4    0    0  0.45631982754E+02  0.37770869783E+02 -0.16709345661E+03  0.21697153683E+03  0.12509000000E+03 0.  0.
         25    1    3    3    0    0 -0.14118588955E+02 -0.57169376853E+02 -0.35375778887E+02  0.14271168850E+03  0.12509000000E+03 0.  0.
         25    1    4    4    0    0 -0.31513393799E+02  0.19398507071E+02 -0.13188101806E+03  0.18549799754E+03  0.12509000000E+03 0.  0.
<mgrwt>
<rscale>  2 0.43061871E+03</rscale>
<asrwt>0</asrwt>
<pdfrwt beam="1">  1       21 0.15502277E-01 0.43061871E+03</pdfrwt>
<pdfrwt beam="2">  1       21 0.64671432E-01 0.43061871E+03</pdfrwt>
<totfact> 0.75781679E+04</totfact>
</mgrwt>
</event>
<event>
 7    0  0.4759581E-002  0.4570408E+03  0.7546771E-02  0.1025643E+00
         21   -1    0    0  502  501  0.00000000000E+00  0.00000000000E+00  0.81068826033E+02  0.81068826033E+02  0.00000000000E+00 0. -1.
         21   -1    0    0  501  502 -0.00000000000E+00 -0.00000000000E+00 -0.64416356327E+03  0.64416356327E+03  0.00000000000E+00 0. -1.
      99926    2    1    2    0    0  0.00000000000E+00  0.00000000000E+00 -0.56309473724E+03  0.72523238930E+03  0.45704084652E+03 0.  0.
      99925    2    3    3    0    0  0.20676881058E+02 -0.94140711208E+02 -0.25517707449E+03  0.37918210098E+03  0.26338891291E+03 0.  0.
         25    1    4    4    0    0 -0.94988847339E+01 -0.33229772052E+02 -0.76221357555E+02  0.15050465112E+03  0.12509000000E+03 0.  0.
         25    1    4    4    0    0  0.30175765791E+02 -0.60910939156E+02 -0.17895571693E+03  0.22867744986E+03  0.12509000000E+03 0.  0.
         25    1    3    3    0    0 -0.20676881058E+02  0.94140711208E+02 -0.30791766275E+03  0.34605028832E+03  0.12509000000E+03 0.  0.
<mgrwt>
<rscale>  2 0.45704085E+03</rscale>
<asrwt>0</asrwt>
<pdfrwt beam="1">  1       21 0.11921886E-01 0.45704085E+03</pdfrwt>
<pdfrwt beam="2">  1       21 0.94729935E-01 0.45704085E+03</pdfrwt>
<totfact> 0.50735134E+04</totfact>
</mgrwt>
</event>
<event>
 7    0  0.4759581E-002  0.4564636E+03  0.7546771E-02  0.1025812E+00
         21   -1    0    0  502  501  0.00000000000E+00  0.00000000000E+00  0.31366890397E+03  0.31366890397E+03  0.00000000000E+00 0.  1.
         21   -1    0    0  501  502 -0.00000000000E+00 -0.00000000000E+00 -0.16606605592E+03  0.16606605592E+03  0.00000000000E+00 0.  1.
      99926    2    1    2    0    0  0.00000000000E+00  0.00000000000E+00  0.14760284805E+03  0.47973495988E+03  0.45646361408E+03 0.  0.
      99925    2    3    3    0    0  0.59079143743E+02  0.97916396278E+02  0.94438960812E+02  0.30210649119E+03  0.26319507748E+03 0.  0.
         25    1    4    4    0    0  0.58903428088E+01  0.78828349784E+02  0.65524441555E+02  0.16183190479E+03  0.12509000000E+03 0.  0.
         25    1    3    3    0    0 -0.59079143743E+02 -0.97916396278E+02  0.53163887239E+02  0.17762846870E+03  0.12509000000E+03 0.  0.
         25    1    4    4    0    0  0.53188800934E+02  0.19088046494E+02  0.28914519257E+02  0.14027458639E+03  0.12509000000E+03 0.  0.
<mgrwt>
<rscale>  2 0.45646361E+03</rscale>
<asrwt>0</asrwt>
<pdfrwt beam="1">  1       21 0.46127780E-01 0.45646361E+03</pdfrwt>
<pdfrwt beam="2">  1       21 0.24421479E-01 0.45646361E+03</pdfrwt>
<totfact> 0.65949922E+04</totfact>
</mgrwt>
</event>
<event>
 7    0  0.4759581E-002  0.4555579E+03  0.7546771E-02  0.1026077E+00
         21   -1    0    0  502  501  0.00000000000E+00  0.00000000000E+00  0.40677470162E+04  0.40677470162E+04  0.00000000000E+00 0. -1.
         21   -1    0    0  501  502 -0.00000000000E+00 -0.00000000000E+00 -0.12754787876E+02  0.12754787876E+02  0.00000000000E+00 0. -1.
      99926    2    1    2    0    0  0.00000000000E+00  0.14210854715E-13  0.40549922283E+04  0.40805018040E+04  0.45555790114E+03 0.  0.
      99925    2    3    3    0    0  0.66990496337E+02 -0.84829596674E+02  0.28674033793E+04  0.28814611169E+04  0.26293010767E+03 0.  0.
         25    1    4    4    0    0  0.74847491322E+02 -0.48843996169E+02  0.15969377362E+04  0.16043208919E+04  0.12509000000E+03 0.  0.
         25    1    4    4    0    0 -0.78569949849E+01 -0.35985600505E+02  0.12704656431E+04  0.12771402250E+04  0.12509000000E+03 0.  0.
         25    1    3    3    0    0 -0.66990496337E+02  0.84829596674E+02  0.11875888490E+04  0.11990406871E+04  0.12509000000E+03 0.  0.
<mgrwt>
<rscale>  2 0.45555790E+03</rscale>
<asrwt>0</asrwt>
<pdfrwt beam="1">  1       21 0.59819719E+00 0.45555790E+03</pdfrwt>
<pdfrwt beam="2">  1       21 0.18757069E-02 0.45555790E+03</pdfrwt>
<totfact> 0.37503182E+02</totfact>
</mgrwt>
</event>
<event>
 7    0  0.4759581E-002  0.4479759E+03  0.7546771E-02  0.1028327E+00
         21   -1    0    0  502  501  0.00000000000E+00  0.00000000000E+00  0.38544057700E+03  0.38544057700E+03  0.00000000000E+00 0.  1.
         21   -1    0    0  501  502 -0.00000000000E+00 -0.00000000000E+00 -0.13016430398E+03  0.13016430398E+03  0.00000000000E+00 0.  1.
      99926    2    1    2    0    0 -0.77715611724E-15  0.00000000000E+00  0.25527627302E+03  0.51560488099E+03  0.44797591200E+03 0.  0.
      99925    2    3    3    0    0 -0.87819223100E+00 -0.15865361963E+02  0.28292250548E+03  0.38651459010E+03  0.26286099619E+03 0.  0.
         25    1    3    3    0    0  0.87819223100E+00  0.15865361963E+02 -0.27646232463E+02  0.12909029089E+03  0.12509000000E+03 0.  0.
         25    1    4    4    0    0 -0.23743502901E+02  0.23204609220E+02  0.15541041744E+03  0.20224271005E+03  0.12509000000E+03 0.  0.
         25    1    4    4    0    0  0.22865310670E+02 -0.39069971182E+02  0.12751208805E+03  0.18427188005E+03  0.12509000000E+03 0.  0.
<mgrwt>
<rscale>  2 0.44797591E+03</rscale>
<asrwt>0</asrwt>
<pdfrwt beam="1">  1       21 0.56682437E-01 0.44797591E+03</pdfrwt>
<pdfrwt beam="2">  1       21 0.19141810E-01 0.44797591E+03</pdfrwt>
<totfact> 0.67893067E+04</totfact>
</mgrwt>
</event>
<event>
 7    0  0.4759581E-002  0.4610001E+03  0.7546771E-02  0.1024492E+00
         21   -1    0    0  502  501  0.00000000000E+00  0.00000000000E+00  0.89817824475E+03  0.89817824475E+03  0.00000000000E+00 0.  1.
         21   -1    0    0  501  502 -0.00000000000E+00 -0.00000000000E+00 -0.59153373383E+02  0.59153373383E+02  0.00000000000E+00 0.  1.
      99926    2    1    2    0    0  0.00000000000E+00  0.35527136788E-14  0.83902487137E+03  0.95733161813E+03  0.46100010011E+03 0.  0.
      99925    2    3    3    0    0  0.65909444486E+02  0.28302857655E+02  0.72170156821E+03  0.77143548534E+03  0.26289626825E+03 0.  0.
         25    1    4    4    0    0  0.32322095208E+02  0.65901231248E+01  0.24603914021E+03  0.27797646335E+03  0.12509000000E+03 0.  0.
         25    1    3    3    0    0 -0.65909444486E+02 -0.28302857655E+02  0.11732330316E+03  0.18589613280E+03  0.12509000000E+03 0.  0.
         25    1    4    4    0    0  0.33587349279E+02  0.21712734530E+02  0.47566242800E+03  0.49345902199E+03  0.12509000000E+03 0.  0.
<mgrwt>
<rscale>  2 0.46100010E+03</rscale>
<asrwt>0</asrwt>
<pdfrwt beam="1">  1       21 0.13208503E+00 0.46100010E+03</pdfrwt>
<pdfrwt beam="2">  1       21 0.86990260E-02 0.46100010E+03</pdfrwt>
<totfact> 0.38983994E+04</totfact>
</mgrwt>
</event>
<event>
 7    0  0.4759581E-002  0.4430077E+03  0.7546771E-02  0.1029828E+00
         21   -1    0    0  502  501  0.00000000000E+00  0.00000000000E+00  0.78179459472E+02  0.78179459472E+02  0.00000000000E+00 0. -1.
         21   -1    0    0  501  502 -0.00000000000E+00 -0.00000000000E+00 -0.62758111657E+03  0.62758111657E+03  0.00000000000E+00 0. -1.
      99926    2    1    2    0    0  0.00000000000E+00  0.14210854715E-13 -0.54940165710E+03  0.70576057604E+03  0.44300768602E+03 0.  0.
      99925    2    3    3    0    0 -0.39999384192E+02  0.93204990946E+02 -0.34334318400E+03  0.44423672721E+03  0.26301065896E+03 0.  0.
         25    1    4    4    0    0 -0.32218954559E+02  0.88206156345E+02 -0.18670894964E+03  0.24356955275E+03  0.12509000000E+03 0.  0.
         25    1    4    4    0    0 -0.77804296327E+01  0.49988346013E+01 -0.15663423436E+03  0.20066717446E+03  0.12509000000E+03 0.  0.
         25    1    3    3    0    0  0.39999384192E+02 -0.93204990946E+02 -0.20605847310E+03  0.26152384883E+03  0.12509000000E+03 0.  0.
<mgrwt>
<rscale>  2 0.44300769E+03</rscale>
<asrwt>0</asrwt>
<pdfrwt beam="1">  1       21 0.11496979E-01 0.44300769E+03</pdfrwt>
<pdfrwt beam="2">  1       21 0.92291344E-01 0.44300769E+03</pdfrwt>
<totfact> 0.57860829E+04</totfact>
</mgrwt>
</event>
<event>
 7    0  0.4759581E-002  0.4614409E+03  0.7546771E-02  0.1024364E+00
         21   -1    0    0  502  501  0.00000000000E+00  0.00000000000E+00  0.76624517696E+03  0.76624517696E+03  0.00000000000E+00 0.  1.
         21   -1    0    0  501  502 -0.00000000000E+00 -0.00000000000E+00 -0.69471141162E+02  0.69471141162E+02  0.00000000000E+00 0.  1.
      99926    2    1    2    0    0  0.14210854715E-13  0.00000000000E+00  0.69677403580E+03  0.83571631813E+03  0.46144090349E+03 0.  0.
      99925    2    3    3    0    0  0.10703550394E+03 -0.57392085364E+01  0.53004942324E+03  0.60133598159E+03  0.26298865768E+03 0.  0.
         25    1    4    4    0    0  0.32505518410E+02 -0.16732920159E+02  0.31996166842E+03  0.34548455349E+03  0.12509000000E+03 0.  0.
         25    1    3    3    0    0 -0.10703550394E+03  0.57392085364E+01  0.16672461257E+03  0.23438033653E+03  0.12509000000E+03 0.  0.
         25    1    4    4    0    0  0.74529985527E+02  0.10993711622E+02  0.21008775482E+03  0.25585142810E+03  0.12509000000E+03 0.  0.
<mgrwt>
<rscale>  2 0.46144090E+03</rscale>
<asrwt>0</asrwt>
<pdfrwt beam="1">  1       21 0.11268311E+00 0.46144090E+03</pdfrwt>
<pdfrwt beam="2">  1       21 0.10216345E-01 0.46144090E+03</pdfrwt>
<totfact> 0.43828121E+04</totfact>
</mgrwt>
</event>
<event>
 7    0  0.4759581E-002  0.4574727E+03  0.7546771E-02  0.1025517E+00
         21   -1    0    0  502  501  0.00000000000E+00  0.00000000000E+00  0.14354077302E+03  0.14354077302E+03  0.00000000000E+00 0. -1.
         21   -1    0    0  501  502 -0.00000000000E+00 -0.00000000000E+00 -0.36449787609E+03  0.36449787609E+03  0.00000000000E+00 0. -1.
      99926    2    1    2    0    0  0.00000000000E+00  0.00000000000E+00 -0.22095710308E+03  0.50803864911E+03  0.45747265228E+03 0.  0.
      99925    2    3    3    0    0 -0.10644949538E+03 -0.29051389075E+02 -0.17652496079E+03  0.33541998951E+03  0.26300195685E+03 0.  0.
         25    1    3    3    0    0  0.10644949538E+03  0.29051389075E+02 -0.44432142287E+02  0.17261865960E+03  0.12509000000E+03 0.  0.
         25    1    4    4    0    0 -0.44684258533E+02 -0.24584319359E+02 -0.13209902040E+03  0.18894107814E+03  0.12509000000E+03 0.  0.
         25    1    4    4    0    0 -0.61765236847E+02 -0.44670697155E+01 -0.44425940387E+02  0.14647891136E+03  0.12509000000E+03 0.  0.
<mgrwt>
<rscale>  2 0.45747265E+03</rscale>
<asrwt>0</asrwt>
<pdfrwt beam="1">  1       21 0.21108937E-01 0.45747265E+03</pdfrwt>
<pdfrwt beam="2">  1       21 0.53602628E-01 0.45747265E+03</pdfrwt>
<totfact> 0.63455027E+04</totfact>
</mgrwt>
</event>
<event>
 7    0  0.4759581E-002  0.4428323E+03  0.7546771E-02  0.1029881E+00
         21   -1    0    0  502  501  0.00000000000E+00  0.00000000000E+00  0.41592748329E+02  0.41592748329E+02  0.00000000000E+00 0.  1.
         21   -1    0    0  501  502 -0.00000000000E+00 -0.00000000000E+00 -0.11786935286E+04  0.11786935286E+04  0.00000000000E+00 0.  1.
      99926    2    1    2    0    0  0.71054273576E-14  0.44408920985E-15 -0.11371007803E+04  0.12202862770E+04  0.44283226302E+03 0.  0.
      99925    2    3    3    0    0  0.52849052811E+02  0.21796040993E+01 -0.96190721696E+03  0.99861520128E+03  0.26300010101E+03 0.  0.
         25    1    4    4    0    0 -0.11498861340E+02  0.16032113998E+02 -0.43186131208E+03  0.45004550155E+03  0.12509000000E+03 0.  0.
         25    1    4    4    0    0  0.64347914150E+02 -0.13852509899E+02 -0.53004590487E+03  0.54856969973E+03  0.12509000000E+03 0.  0.
         25    1    3    3    0    0 -0.52849052811E+02 -0.21796040993E+01 -0.17519356335E+03  0.22167107569E+03  0.12509000000E+03 0.  0.
<mgrwt>
<rscale>  2 0.44283226E+03</rscale>
<asrwt>0</asrwt>
<pdfrwt beam="1">  1       21 0.61165813E-02 0.44283226E+03</pdfrwt>
<pdfrwt beam="2">  1       21 0.17333727E+00 0.44283226E+03</pdfrwt>
<totfact> 0.34692293E+04</totfact>
</mgrwt>
</event>
<event>
 7    0  0.4759581E-002  0.4492403E+03  0.7546771E-02  0.1027949E+00
         21   -1    0    0  502  501  0.00000000000E+00  0.00000000000E+00  0.59267119226E+03  0.59267119226E+03  0.00000000000E+00 0.  1.
         21   -1    0    0  501  502 -0.00000000000E+00 -0.00000000000E+00 -0.85130186824E+02  0.85130186824E+02  0.00000000000E+00 0.  1.
      99926    2    1    2    0    0  0.00000000000E+00 -0.14210854715E-13  0.50754100544E+03  0.67780137909E+03  0.44924028903E+03 0.  0.
      99925    2    3    3    0    0 -0.40772166396E+02  0.99670116299E+02  0.31976072678E+03  0.42779049374E+03  0.26298532756E+03 0.  0.
         25    1    4    4    0    0  0.58748351568E+01  0.38267459402E+02  0.10640462456E+03  0.16872570748E+03  0.12509000000E+03 0.  0.
         25    1    3    3    0    0  0.40772166396E+02 -0.99670116299E+02  0.18778027866E+03  0.25001088534E+03  0.12509000000E+03 0.  0.
         25    1    4    4    0    0 -0.46647001553E+02  0.61402656897E+02  0.21335610222E+03  0.25906478626E+03  0.12509000000E+03 0.  0.
<mgrwt>
<rscale>  2 0.44924029E+03</rscale>
<asrwt>0</asrwt>
<pdfrwt beam="1">  1       21 0.87157526E-01 0.44924029E+03</pdfrwt>
<pdfrwt beam="2">  1       21 0.12519145E-01 0.44924029E+03</pdfrwt>
<totfact> 0.56651410E+04</totfact>
</mgrwt>
</event>
<event>
 7    0  0.4759581E-002  0.4563607E+03  0.7546771E-02  0.1025842E+00
         21   -1    0    0  502  501  0.00000000000E+00  0.00000000000E+00  0.66435512007E+03  0.66435512007E+03  0.00000000000E+00 0. -1.
         21   -1    0    0  501  502 -0.00000000000E+00 -0.00000000000E+00 -0.78371154557E+02  0.78371154557E+02  0.00000000000E+00 0. -1.
      99926    2    1    2    0    0 -0.71054273576E-14  0.00000000000E+00  0.58598396551E+03  0.74272627462E+03  0.45636072485E+03 0.  0.
      99925    2    3    3    0    0 -0.29243890265E+02  0.81524964741E+02  0.49002670549E+03  0.56284623447E+03  0.26299845356E+03 0.  0.
         25    1    4    4    0    0 -0.55294105112E+02  0.39202491351E+02  0.25507846440E+03  0.29207328616E+03  0.12509000000E+03 0.  0.
         25    1    4    4    0    0  0.26050214847E+02  0.42322473390E+02  0.23494824109E+03  0.27077294831E+03  0.12509000000E+03 0.  0.
         25    1    3    3    0    0  0.29243890265E+02 -0.81524964741E+02  0.95957260024E+02  0.17988004015E+03  0.12509000000E+03 0.  0.
<mgrwt>
<rscale>  2 0.45636072E+03</rscale>
<asrwt>0</asrwt>
<pdfrwt beam="1">  1       21 0.97699279E-01 0.45636072E+03</pdfrwt>
<pdfrwt beam="2">  1       21 0.11525170E-01 0.45636072E+03</pdfrwt>
<totfact> 0.50105710E+04</totfact>
</mgrwt>
</event>
<event>
 7    0  0.4759581E-002  0.4419982E+03  0.7546771E-02  0.1030135E+00
         21   -1    0    0  502  501  0.00000000000E+00  0.00000000000E+00  0.98998074839E+02  0.98998074839E+02  0.00000000000E+00 0.  1.
         21   -1    0    0  501  502 -0.00000000000E+00 -0.00000000000E+00 -0.49334904258E+03  0.49334904258E+03  0.00000000000E+00 0.  1.
      99926    2    1    2    0    0 -0.14210854715E-13 -0.71054273576E-14 -0.39435096775E+03  0.59234711742E+03  0.44199821466E+03 0.  0.
      99925    2    3    3    0    0  0.73627557497E+02  0.63352737080E+02 -0.28577778994E+03  0.40033089530E+03  0.26298534939E+03 0.  0.
         25    1    4    4    0    0  0.57934162390E+02 -0.16467370357E+01 -0.15443270102E+03  0.20701701901E+03  0.12509000000E+03 0.  0.
         25    1    4    4    0    0  0.15693395107E+02  0.64999474115E+02 -0.13134508892E+03  0.19331387630E+03  0.12509000000E+03 0.  0.
         25    1    3    3    0    0 -0.73627557497E+02 -0.63352737080E+02 -0.10857317781E+03  0.19201622212E+03  0.12509000000E+03 0.  0.
<mgrwt>
<rscale>  2 0.44199821E+03</rscale>
<asrwt>0</asrwt>
<pdfrwt beam="1">  1       21 0.14558540E-01 0.44199821E+03</pdfrwt>
<pdfrwt beam="2">  1       21 0.72551330E-01 0.44199821E+03</pdfrwt>
<totfact> 0.65640683E+04</totfact>
</mgrwt>
</event>
<event>
 7    0  0.4759581E-002  0.4597356E+03  0.7546771E-02  0.1024858E+00
         21   -1    0    0  502  501  0.00000000000E+00  0.00000000000E+00  0.11279862437E+03  0.11279862437E+03  0.00000000000E+00 0. -1.
         21   -1    0    0  501  502 -0.00000000000E+00 -0.00000000000E+00 -0.46843835871E+03  0.46843835871E+03  0.00000000000E+00 0. -1.
      99926    2    1    2    0    0  0.35527136788E-14  0.00000000000E+00 -0.35563973434E+03  0.58123698308E+03  0.45973558689E+03 0.  0.
      99925    2    3    3    0    0 -0.18147467014E+02 -0.90465928722E+02 -0.31486770088E+03  0.42054074283E+03  0.26305785011E+03 0.  0.
         25    1    3    3    0    0  0.18147467014E+02  0.90465928722E+02 -0.40772033464E+02  0.16069624025E+03  0.12509000000E+03 0.  0.
         25    1    4    4    0    0  0.27535687061E+02 -0.45029999828E+02 -0.12776380967E+03  0.18643233118E+03  0.12509000000E+03 0.  0.
         25    1    4    4    0    0 -0.45683154075E+02 -0.45435928894E+02 -0.18710389121E+03  0.23410841165E+03  0.12509000000E+03 0.  0.
<mgrwt>
<rscale>  2 0.45973559E+03</rscale>
<asrwt>0</asrwt>
<pdfrwt beam="1">  1       21 0.16588033E-01 0.45973559E+03</pdfrwt>
<pdfrwt beam="2">  1       21 0.68887994E-01 0.45973559E+03</pdfrwt>
<totfact> 0.57659176E+04</totfact>
</mgrwt>
</event>
<event>
 7    0  0.4759581E-002  0.4577411E+03  0.7546771E-02  0.1025438E+00
         21   -1    0    0  502  501  0.00000000000E+00  0.00000000000E+00  0.58469383008E+02  0.58469383008E+02  0.00000000000E+00 0.  1.
         21   -1    0    0  501  502 -0.00000000000E+00 -0.00000000000E+00 -0.89588285512E+03  0.89588285512E+03  0.00000000000E+00 0.  1.
      99926    2    1    2    0    0  0.14210854715E-13 -0.14210854715E-13 -0.83741347211E+03  0.95435223813E+03  0.45774105250E+03 0.  0.
      99925    2    3    3    0    0  0.90276014841E+02 -0.70230970844E+02 -0.48896684044E+03  0.56686712700E+03  0.26299737737E+03 0.  0.
         25    1    3    3    0    0 -0.90276014841E+02  0.70230970844E+02 -0.34844663167E+03  0.38748511113E+03  0.12509000000E+03 0.  0.
         25    1    4    4    0    0  0.13942969129E+02 -0.19752207005E+02 -0.27053168198E+03  0.29903085982E+03  0.12509000000E+03 0.  0.
         25    1    4    4    0    0  0.76333045712E+02 -0.50478763839E+02 -0.21843515846E+03  0.26783626718E+03  0.12509000000E+03 0.  0.
<mgrwt>
<rscale>  2 0.45774105E+03</rscale>
<asrwt>0</asrwt>
<pdfrwt beam="1">  1       21 0.85984381E-02 0.45774105E+03</pdfrwt>
<pdfrwt beam="2">  1       21 0.13174749E+00 0.45774105E+03</pdfrwt>
<totfact> 0.40098702E+04</totfact>
</mgrwt>
</event>
<event>
 7    0  0.4759581E-002  0.4457538E+03  0.7546771E-02  0.1028996E+00
         21   -1    0    0  502  501  0.00000000000E+00  0.00000000000E+00  0.38252336231E+03  0.38252336231E+03  0.00000000000E+00 0.  1.
         21   -1    0    0  501  502 -0.00000000000E+00 -0.00000000000E+00 -0.12985903087E+03  0.12985903087E+03  0.00000000000E+00 0.  1.
      99926    2    1    2    0    0  0.00000000000E+00 -0.22204460493E-15  0.25266433144E+03  0.51238239318E+03  0.44575380251E+03 0.  0.
      99925    2    3    3    0    0 -0.72450303734E+02 -0.48439884799E+00  0.74120248343E+02  0.28265477432E+03  0.26296507198E+03 0.  0.
         25    1    4    4    0    0 -0.46070858974E+02  0.38092011727E+02  0.28472810057E+02  0.14153350987E+03  0.12509000000E+03 0.  0.
         25    1    3    3    0    0  0.72450303734E+02  0.48439884799E+00  0.17854408310E+03  0.22972761885E+03  0.12509000000E+03 0.  0.
         25    1    4    4    0    0 -0.26379444761E+02 -0.38576410575E+02  0.45647438286E+02  0.14112126445E+03  0.12509000000E+03 0.  0.
<mgrwt>
<rscale>  2 0.44575380E+03</rscale>
<asrwt>0</asrwt>
<pdfrwt beam="1">  1       21 0.56253435E-01 0.44575380E+03</pdfrwt>
<pdfrwt beam="2">  1       21 0.19096916E-01 0.44575380E+03</pdfrwt>
<totfact> 0.69359639E+04</totfact>
</mgrwt>
</event>
<event>
 7    0  0.4759581E-002  0.4422759E+03  0.7546771E-02  0.1030051E+00
         21   -1    0    0  502  501  0.00000000000E+00  0.00000000000E+00  0.20672615489E+04  0.20672615489E+04  0.00000000000E+00 0.  1.
         21   -1    0    0  501  502 -0.00000000000E+00 -0.00000000000E+00 -0.23655447026E+02  0.23655447026E+02  0.00000000000E+00 0.  1.
      99926    2    1    2    0    0  0.00000000000E+00 -0.17763568394E-14  0.20436061018E+04  0.20909169959E+04  0.44227591414E+03 0.  0.
      99925    2    3    3    0    0 -0.27489117538E+02 -0.14757166782E+02  0.17543529498E+04  0.17742336847E+04  0.26301610163E+03 0.  0.
         25    1    4    4    0    0 -0.43948458950E+02 -0.78647175432E+01  0.10808797805E+04  0.10890096092E+04  0.12509000000E+03 0.  0.
         25    1    3    3    0    0  0.27489117538E+02  0.14757166782E+02  0.28925315204E+03  0.31668331124E+03  0.12509000000E+03 0.  0.
         25    1    4    4    0    0  0.16459341411E+02 -0.68924492387E+01  0.67347316927E+03  0.68522407547E+03  0.12509000000E+03 0.  0.
<mgrwt>
<rscale>  2 0.44227591E+03</rscale>
<asrwt>0</asrwt>
<pdfrwt beam="1">  1       21 0.30400893E+00 0.44227591E+03</pdfrwt>
<pdfrwt beam="2">  1       21 0.34787436E-02 0.44227591E+03</pdfrwt>
<totfact> 0.13574004E+04</totfact>
</mgrwt>
</event>
<event>
 7    0  0.4759581E-002  0.4588944E+03  0.7546771E-02  0.1025102E+00
         21   -1    0    0  502  501  0.00000000000E+00  0.00000000000E+00  0.31450095516E+03  0.31450095516E+03  0.00000000000E+00 0. -1.
         21   -1    0    0  501  502 -0.00000000000E+00 -0.00000000000E+00 -0.16739538523E+03  0.16739538523E+03  0.00000000000E+00 0. -1.
      99926    2    1    2    0    0  0.00000000000E+00  0.00000000000E+00  0.14710556994E+03  0.48189634039E+03  0.45889436058E+03 0.  0.
      99925    2    3    3    0    0  0.10098503225E+03  0.53183855538E+02  0.11774926509E+03  0.31003651389E+03  0.26311832184E+03 0.  0.
         25    1    3    3    0    0 -0.10098503225E+03 -0.53183855538E+02  0.29356304848E+02  0.17185982650E+03  0.12509000000E+03 0.  0.
         25    1    4    4    0    0  0.58788274504E+02  0.47228473210E+02  0.24024530169E+02  0.14802457921E+03  0.12509000000E+03 0.  0.
         25    1    4    4    0    0  0.42196757747E+02  0.59553823284E+01  0.93724734920E+02  0.16201193468E+03  0.12509000000E+03 0.  0.
<mgrwt>
<rscale>  2 0.45889436E+03</rscale>
<asrwt>0</asrwt>
<pdfrwt beam="1">  1       21 0.46250140E-01 0.45889436E+03</pdfrwt>
<pdfrwt beam="2">  1       21 0.24616969E-01 0.45889436E+03</pdfrwt>
<totfact> 0.64544012E+04</totfact>
</mgrwt>
</event>
<event>
 7    0  0.4759581E-002  0.4492623E+03  0.7546771E-02  0.1027942E+00
         21   -1    0    0  502  501  0.00000000000E+00  0.00000000000E+00  0.47768758739E+03  0.47768758739E+03  0.00000000000E+00 0.  1.
         21   -1    0    0  501  502 -0.00000000000E+00 -0.00000000000E+00 -0.10563212499E+03  0.10563212499E+03  0.00000000000E+00 0.  1.
      99926    2    1    2    0    0  0.32196467714E-14  0.00000000000E+00  0.37205546240E+03  0.58331971239E+03  0.44926230618E+03 0.  0.
      99925    2    3    3    0    0  0.53142682465E+00 -0.10805795399E+02  0.96267662893E+02  0.28029584190E+03  0.26302328497E+03 0.  0.
         25    1    3    3    0    0 -0.53142682465E+00  0.10805795399E+02  0.27578779951E+03  0.30302387049E+03  0.12509000000E+03 0.  0.
         25    1    4    4    0    0  0.37002749884E+02 -0.44040970746E+01  0.66501960079E+02  0.14648760481E+03  0.12509000000E+03 0.  0.
         25    1    4    4    0    0 -0.36471323060E+02 -0.64016983247E+01  0.29765702814E+02  0.13380823708E+03  0.12509000000E+03 0.  0.
<mgrwt>
<rscale>  2 0.44926231E+03</rscale>
<asrwt>0</asrwt>
<pdfrwt beam="1">  1       21 0.70248174E-01 0.44926231E+03</pdfrwt>
<pdfrwt beam="2">  1       21 0.15534136E-01 0.44926231E+03</pdfrwt>
<totfact> 0.62503933E+04</totfact>
</mgrwt>
</event>
<event>
 7    0  0.4759581E-002  0.4555417E+03  0.7546771E-02  0.1026082E+00
         21   -1    0    0  502  501  0.00000000000E+00  0.00000000000E+00  0.39824182601E+02  0.39824182601E+02  0.00000000000E+00 0.  1.
         21   -1    0    0  501  502 -0.00000000000E+00 -0.00000000000E+00 -0.13027148130E+04  0.13027148130E+04  0.00000000000E+00 0.  1.
      99926    2    1    2    0    0  0.00000000000E+00  0.00000000000E+00 -0.12628906304E+04  0.13425389956E+04  0.45554166699E+03 0.  0.
      99925    2    3    3    0    0 -0.39562738140E+02  0.10095763838E+03 -0.69412324459E+03  0.75016959881E+03  0.26303933794E+03 0.  0.
         25    1    3    3    0    0  0.39562738140E+02 -0.10095763838E+03 -0.56876738585E+03  0.59236939683E+03  0.12509000000E+03 0.  0.
         25    1    4    4    0    0 -0.53012634078E+02  0.48955942650E+02 -0.41940841933E+03  0.44357406822E+03  0.12509000000E+03 0.  0.
         25    1    4    4    0    0  0.13449895939E+02  0.52001695733E+02 -0.27471482526E+03  0.30659553059E+03  0.12509000000E+03 0.  0.
<mgrwt>
<rscale>  2 0.45554167E+03</rscale>
<asrwt>0</asrwt>
<pdfrwt beam="1">  1       21 0.58564981E-02 0.45554167E+03</pdfrwt>
<pdfrwt beam="2">  1       21 0.19157569E+00 0.45554167E+03</pdfrwt>
<totfact> 0.27786713E+04</totfact>
</mgrwt>
</event>
<event>
 7    0  0.4759581E-002  0.4526282E+03  0.7546771E-02  0.1026941E+00
         21   -1    0    0  502  501  0.00000000000E+00  0.00000000000E+00  0.83219774740E+02  0.83219774740E+02  0.00000000000E+00 0. -1.
         21   -1    0    0  501  502 -0.00000000000E+00 -0.00000000000E+00 -0.61545543228E+03  0.61545543228E+03  0.00000000000E+00 0. -1.
      99926    2    1    2    0    0  0.14210854715E-13 -0.71054273576E-14 -0.53223565754E+03  0.69867520702E+03  0.45262815837E+03 0.  0.
      99925    2    3    3    0    0  0.10229370921E+03 -0.26267766723E+02 -0.28291260790E+03  0.40040772690E+03  0.26293118024E+03 0.  0.
         25    1    3    3    0    0 -0.10229370921E+03  0.26267766723E+02 -0.24932304964E+03  0.29826748011E+03  0.12509000000E+03 0.  0.
         25    1    4    4    0    0  0.49954182923E+02 -0.52164455706E+02 -0.12909174886E+03  0.19372335573E+03  0.12509000000E+03 0.  0.
         25    1    4    4    0    0  0.52339526289E+02  0.25896688983E+02 -0.15382085904E+03  0.20668437118E+03  0.12509000000E+03 0.  0.
<mgrwt>
<rscale>  2 0.45262816E+03</rscale>
<asrwt>0</asrwt>
<pdfrwt beam="1">  1       21 0.12238202E-01 0.45262816E+03</pdfrwt>
<pdfrwt beam="2">  1       21 0.90508151E-01 0.45262816E+03</pdfrwt>
<totfact> 0.53975444E+04</totfact>
</mgrwt>
</event>
<event>
 7    0  0.4759581E-002  0.4441653E+03  0.7546771E-02  0.1029476E+00
         21   -1    0    0  502  501  0.00000000000E+00  0.00000000000E+00  0.62352392537E+03  0.62352392537E+03  0.00000000000E+00 0. -1.
         21   -1    0    0  501  502 -0.00000000000E+00 -0.00000000000E+00 -0.79099946210E+02  0.79099946210E+02  0.00000000000E+00 0. -1.
      99926    2    1    2    0    0  0.00000000000E+00  0.35527136788E-14  0.54442397916E+03  0.70262387158E+03  0.44416532488E+03 0.  0.
      99925    2    3    3    0    0 -0.75565184086E+02 -0.17498147505E+02  0.23974147043E+03  0.36425244631E+03  0.26303533943E+03 0.  0.
         25    1    4    4    0    0 -0.68498219410E+02 -0.35380219713E+02  0.11547236513E+03  0.18688269373E+03  0.12509000000E+03 0.  0.
         25    1    3    3    0    0  0.75565184086E+02  0.17498147505E+02  0.30468250873E+03  0.33837142527E+03  0.12509000000E+03 0.  0.
         25    1    4    4    0    0 -0.70669646757E+01  0.17882072208E+02  0.12426910530E+03  0.17736975257E+03  0.12509000000E+03 0.  0.
<mgrwt>
<rscale>  2 0.44416532E+03</rscale>
<asrwt>0</asrwt>
<pdfrwt beam="1">  1       21 0.91694693E-01 0.44416532E+03</pdfrwt>
<pdfrwt beam="2">  1       21 0.11632345E-01 0.44416532E+03</pdfrwt>
<totfact> 0.57509288E+04</totfact>
</mgrwt>
</event>
<event>
 7    0  0.4759581E-002  0.4501965E+03  0.7546771E-02  0.1027663E+00
         21   -1    0    0  502  501  0.00000000000E+00  0.00000000000E+00  0.33799496205E+03  0.33799496205E+03  0.00000000000E+00 0. -1.
         21   -1    0    0  501  502 -0.00000000000E+00 -0.00000000000E+00 -0.14991117068E+03  0.14991117068E+03  0.00000000000E+00 0. -1.
      99926    2    1    2    0    0  0.71054273576E-14  0.00000000000E+00  0.18808379136E+03  0.48790613273E+03  0.45019649242E+03 0.  0.
      99925    2    3    3    0    0  0.63419422179E+02 -0.86499717931E+02  0.13626199175E+03  0.31517156373E+03  0.26317591052E+03 0.  0.
         25    1    4    4    0    0  0.68150067939E+02 -0.66773718554E+02  0.80478099549E+02  0.17671274390E+03  0.12509000000E+03 0.  0.
         25    1    3    3    0    0 -0.63419422179E+02  0.86499717931E+02  0.51821799615E+02  0.17273456900E+03  0.12509000000E+03 0.  0.
         25    1    4    4    0    0 -0.47306457601E+01 -0.19725999377E+02  0.55783892199E+02  0.13845881983E+03  0.12509000000E+03 0.  0.
<mgrwt>
<rscale>  2 0.45019649E+03</rscale>
<asrwt>0</asrwt>
<pdfrwt beam="1">  1       21 0.49705141E-01 0.45019649E+03</pdfrwt>
<pdfrwt beam="2">  1       21 0.22045760E-01 0.45019649E+03</pdfrwt>
<totfact> 0.68712024E+04</totfact>
</mgrwt>
</event>
<event>
 7    0  0.4759581E-002  0.4535796E+03  0.7546771E-02  0.1026660E+00
         21   -1    0    0  502  501  0.00000000000E+00  0.00000000000E+00  0.89618430715E+02  0.89618430715E+02  0.00000000000E+00 0.  1.
         21   -1    0    0  501  502 -0.00000000000E+00 -0.00000000000E+00 -0.57391773007E+03  0.57391773007E+03  0.00000000000E+00 0.  1.
      99926    2    1    2    0    0 -0.14210854715E-13  0.35527136788E-14 -0.48429929936E+03  0.66353616079E+03  0.45357956889E+03 0.  0.
      99925    2    3    3    0    0  0.97950717212E+02 -0.18658885853E+02 -0.37915738980E+03  0.47210777661E+03  0.26302648055E+03 0.  0.
         25    1    4    4    0    0  0.15755227031E+02 -0.32605148381E+02 -0.19313110368E+03  0.23293444183E+03  0.12509000000E+03 0.  0.
         25    1    4    4    0    0  0.82195490182E+02  0.13946262528E+02 -0.18602628612E+03  0.23917333478E+03  0.12509000000E+03 0.  0.
         25    1    3    3    0    0 -0.97950717212E+02  0.18658885853E+02 -0.10514190956E+03  0.19142838418E+03  0.12509000000E+03 0.  0.
<mgrwt>
<rscale>  2 0.45357957E+03</rscale>
<asrwt>0</asrwt>
<pdfrwt beam="1">  1       21 0.13179181E-01 0.45357957E+03</pdfrwt>
<pdfrwt beam="2">  1       21 0.84399666E-01 0.45357957E+03</pdfrwt>
<totfact> 0.55547017E+04</totfact>
</mgrwt>
</event>
<event>
 7    0  0.4759581E-002  0.4545270E+03  0.7546771E-02  0.1026381E+00
         21   -1    0    0  502  501  0.00000000000E+00  0.00000000000E+00  0.17788052844E+03  0.17788052844E+03  0.00000000000E+00 0.  1.
         21   -1    0    0  501  502 -0.00000000000E+00 -0.00000000000E+00 -0.29035614911E+03  0.29035614911E+03  0.00000000000E+00 0.  1.
      99926    2    1    2    0    0  0.00000000000E+00 -0.22204460493E-14 -0.11247562067E+03  0.46823667755E+03  0.45452702995E+03 0.  0.
      99925    2    3    3    0    0 -0.22719184164E+02  0.38145475238E+01 -0.18508606556E+03  0.32177679598E+03  0.26220744205E+03 0.  0.
         25    1    4    4    0    0  0.49699842505E+01 -0.22132390163E+02 -0.12363229631E+03  0.17733300941E+03  0.12509000000E+03 0.  0.
         25    1    3    3    0    0  0.22719184164E+02 -0.38145475238E+01  0.72610444884E+02  0.14645988157E+03  0.12509000000E+03 0.  0.
         25    1    4    4    0    0 -0.27689168415E+02  0.25946937687E+02 -0.61453769252E+02  0.14444378657E+03  0.12509000000E+03 0.  0.
<mgrwt>
<rscale>  2 0.45452703E+03</rscale>
<asrwt>0</asrwt>
<pdfrwt beam="1">  1       21 0.26158902E-01 0.45452703E+03</pdfrwt>
<pdfrwt beam="2">  1       21 0.42699433E-01 0.45452703E+03</pdfrwt>
<totfact> 0.67821251E+04</totfact>
</mgrwt>
</event>
<event>
 7    0  0.4759581E-002  0.4675378E+03  0.7546771E-02  0.1022617E+00
         21   -1    0    0  502  501  0.00000000000E+00  0.00000000000E+00  0.10394616498E+03  0.10394616498E+03  0.00000000000E+00 0. -1.
         21   -1    0    0  501  502 -0.00000000000E+00 -0.00000000000E+00 -0.52573262379E+03  0.52573262379E+03  0.00000000000E+00 0. -1.
      99926    2    1    2    0    0 -0.35527136788E-14  0.00000000000E+00 -0.42178645882E+03  0.62967878877E+03  0.46753776338E+03 0.  0.
      99925    2    3    3    0    0 -0.15959610548E+02  0.51261419172E+02 -0.11119810590E+03  0.29056955073E+03  0.26302700011E+03 0.  0.
         25    1    4    4    0    0  0.22385667561E+02  0.13215149131E+02 -0.80149927231E+02  0.15082200507E+03  0.12509000000E+03 0.  0.
         25    1    3    3    0    0  0.15959610548E+02 -0.51261419172E+02 -0.31058835291E+03  0.33910923805E+03  0.12509000000E+03 0.  0.
         25    1    4    4    0    0 -0.38345278109E+02  0.38046270041E+02 -0.31048178673E+02  0.13974754565E+03  0.12509000000E+03 0.  0.
<mgrwt>
<rscale>  2 0.46753776E+03</rscale>
<asrwt>0</asrwt>
<pdfrwt beam="1">  1       21 0.15286201E-01 0.46753776E+03</pdfrwt>
<pdfrwt beam="2">  1       21 0.77313618E-01 0.46753776E+03</pdfrwt>
<totfact> 0.51588438E+04</totfact>
</mgrwt>
</event>
<event>
 7    0  0.4759581E-002  0.4538774E+03  0.7546771E-02  0.1026572E+00
         21   -1    0    0  502  501  0.00000000000E+00  0.00000000000E+00  0.40795418631E+03  0.40795418631E+03  0.00000000000E+00 0.  1.
         21   -1    0    0  501  502 -0.00000000000E+00 -0.00000000000E+00 -0.12624252679E+03  0.12624252679E+03  0.00000000000E+00 0.  1.
      99926    2    1    2    0    0  0.00000000000E+00 -0.14210854715E-13  0.28171165952E+03  0.53419671310E+03  0.45387737241E+03 0.  0.
      99925    2    3    3    0    0  0.49844312330E+02 -0.98413568904E+02  0.15465555029E+03  0.32452924064E+03  0.26311822966E+03 0.  0.
         25    1    3    3    0    0 -0.49844312330E+02  0.98413568904E+02  0.12705610923E+03  0.20966747247E+03  0.12509000000E+03 0.  0.
         25    1    4    4    0    0  0.14361527054E+02 -0.81061042155E+02  0.11055301008E+03  0.18613603131E+03  0.12509000000E+03 0.  0.
         25    1    4    4    0    0  0.35482785276E+02 -0.17352526749E+02  0.44102540208E+02  0.13839320933E+03  0.12509000000E+03 0.  0.
<mgrwt>
<rscale>  2 0.45387737E+03</rscale>
<asrwt>0</asrwt>
<pdfrwt beam="1">  1       21 0.59993262E-01 0.45387737E+03</pdfrwt>
<pdfrwt beam="2">  1       21 0.18565078E-01 0.45387737E+03</pdfrwt>
<totfact> 0.63485272E+04</totfact>
</mgrwt>
</event>
<event>
 7    0  0.4759581E-002  0.4580810E+03  0.7546771E-02  0.1025339E+00
         21   -1    0    0  502  501  0.00000000000E+00  0.00000000000E+00  0.97242070656E+02  0.97242070656E+02  0.00000000000E+00 0. -1.
         21   -1    0    0  501  502 -0.00000000000E+00 -0.00000000000E+00 -0.53947393003E+03  0.53947393003E+03  0.00000000000E+00 0. -1.
      99926    2    1    2    0    0  0.00000000000E+00  0.25535129566E-14 -0.44223185938E+03  0.63671600069E+03  0.45808104969E+03 0.  0.
      99925    2    3    3    0    0  0.11387144152E+03  0.95714562316E+00 -0.30867991223E+03  0.42119047550E+03  0.26296484008E+03 0.  0.
         25    1    3    3    0    0 -0.11387144152E+03 -0.95714562316E+00 -0.13355194715E+03  0.21552552519E+03  0.12509000000E+03 0.  0.
         25    1    4    4    0    0  0.50675774796E+02 -0.16115582015E+02 -0.20524415960E+03  0.24617152412E+03  0.12509000000E+03 0.  0.
         25    1    4    4    0    0  0.63195666723E+02  0.17072727639E+02 -0.10343575262E+03  0.17501895138E+03  0.12509000000E+03 0.  0.
<mgrwt>
<rscale>  2 0.45808105E+03</rscale>
<asrwt>0</asrwt>
<pdfrwt beam="1">  1       21 0.14300305E-01 0.45808105E+03</pdfrwt>
<pdfrwt beam="2">  1       21 0.79334400E-01 0.45808105E+03</pdfrwt>
<totfact> 0.55120674E+04</totfact>
</mgrwt>
</event>
<event>
 7    0  0.4759581E-002  0.4578646E+03  0.7546771E-02  0.1025402E+00
         21   -1    0    0  502  501  0.00000000000E+00  0.00000000000E+00  0.43196803468E+03  0.43196803468E+03  0.00000000000E+00 0. -1.
         21   -1    0    0  501  502 -0.00000000000E+00 -0.00000000000E+00 -0.12132843957E+03  0.12132843957E+03  0.00000000000E+00 0. -1.
      99926    2    1    2    0    0 -0.71054273576E-14  0.00000000000E+00  0.31063959512E+03  0.55329647425E+03  0.45786464197E+03 0.  0.
      99925    2    3    3    0    0 -0.60699151636E+02  0.26159543848E+02  0.79647567253E+02  0.28242097927E+03  0.26277207960E+03 0.  0.
         25    1    3    3    0    0  0.60699151636E+02 -0.26159543848E+02  0.23099202786E+03  0.27087549498E+03  0.12509000000E+03 0.  0.
         25    1    4    4    0    0 -0.19123918152E+02  0.52021713316E+01  0.78378634324E+02  0.14894128122E+03  0.12509000000E+03 0.  0.
         25    1    4    4    0    0 -0.41575233484E+02  0.20957372516E+02  0.12689329295E+01  0.13347969805E+03  0.12509000000E+03 0.  0.
<mgrwt>
<rscale>  2 0.45786464E+03</rscale>
<asrwt>0</asrwt>
<pdfrwt beam="1">  1       21 0.63524710E-01 0.45786464E+03</pdfrwt>
<pdfrwt beam="2">  1       21 0.17842418E-01 0.45786464E+03</pdfrwt>
<totfact> 0.60271608E+04</totfact>
</mgrwt>
</event>
<event>
 7    0  0.4759581E-002  0.4523765E+03  0.7546771E-02  0.1027016E+00
         21   -1    0    0  502  501  0.00000000000E+00  0.00000000000E+00  0.42779147024E+03  0.42779147024E+03  0.00000000000E+00 0.  1.
         21   -1    0    0  501  502 -0.00000000000E+00 -0.00000000000E+00 -0.11959361272E+03  0.11959361272E+03  0.00000000000E+00 0.  1.
      99926    2    1    2    0    0  0.00000000000E+00  0.00000000000E+00  0.30819785752E+03  0.54738508296E+03  0.45237651317E+03 0.  0.
      99925    2    3    3    0    0  0.52655974036E+02  0.96495832525E+02  0.20847334364E+03  0.35328051304E+03  0.26317653502E+03 0.  0.
         25    1    4    4    0    0  0.23831622873E+01  0.49551251839E+02  0.14257242278E+03  0.19604950869E+03  0.12509000000E+03 0.  0.
         25    1    4    4    0    0  0.50272811748E+02  0.46944580687E+02  0.65900920865E+02  0.15723100435E+03  0.12509000000E+03 0.  0.
         25    1    3    3    0    0 -0.52655974036E+02 -0.96495832525E+02  0.99724513875E+02  0.19410456992E+03  0.12509000000E+03 0.  0.
<mgrwt>
<rscale>  2 0.45237651E+03</rscale>
<asrwt>0</asrwt>
<pdfrwt beam="1">  1       21 0.62910510E-01 0.45237651E+03</pdfrwt>
<pdfrwt beam="2">  1       21 0.17587296E-01 0.45237651E+03</pdfrwt>
<totfact> 0.63344339E+04</totfact>
</mgrwt>
</event>
<event>
 7    0  0.4759581E-002  0.4552767E+03  0.7546771E-02  0.1026160E+00
         21   -1    0    0  502  501  0.00000000000E+00  0.00000000000E+00  0.32945486884E+02  0.32945486884E+02  0.00000000000E+00 0.  1.
         21   -1    0    0  501  502 -0.00000000000E+00 -0.00000000000E+00 -0.15728777435E+04  0.15728777435E+04  0.00000000000E+00 0.  1.
      99926    2    1    2    0    0  0.00000000000E+00  0.00000000000E+00 -0.15399322566E+04  0.16058232304E+04  0.45527672054E+03 0.  0.
      99925    2    3    3    0    0  0.71270209845E+02  0.29515638157E+02 -0.12620686497E+04  0.12914885236E+04  0.26301086378E+03 0.  0.
         25    1    4    4    0    0  0.38286902016E+02 -0.22842103079E+01 -0.45263100044E+03  0.47116179295E+03  0.12509000000E+03 0.  0.
         25    1    3    3    0    0 -0.71270209845E+02 -0.29515638157E+02 -0.27786360694E+03  0.31433470675E+03  0.12509000000E+03 0.  0.
         25    1    4    4    0    0  0.32983307828E+02  0.31799848465E+02 -0.80943764923E+03  0.82032673067E+03  0.12509000000E+03 0.  0.
<mgrwt>
<rscale>  2 0.45527672E+03</rscale>
<asrwt>0</asrwt>
<pdfrwt beam="1">  1       21 0.48449245E-02 0.45527672E+03</pdfrwt>
<pdfrwt beam="2">  1       21 0.23130555E+00 0.45527672E+03</pdfrwt>
<totfact> 0.21252813E+04</totfact>
</mgrwt>
</event>
<event>
 7    0  0.4759581E-002  0.4540392E+03  0.7546771E-02  0.1026524E+00
         21   -1    0    0  502  501  0.00000000000E+00  0.00000000000E+00  0.34358002149E+03  0.34358002149E+03  0.00000000000E+00 0. -1.
         21   -1    0    0  501  502 -0.00000000000E+00 -0.00000000000E+00 -0.15000261679E+03  0.15000261679E+03  0.00000000000E+00 0. -1.
      99926    2    1    2    0    0  0.71054273576E-14 -0.14210854715E-13  0.19357740469E+03  0.49358263828E+03  0.45403921549E+03 0.  0.
      99925    2    3    3    0    0 -0.43472562995E+02  0.83410396661E+02  0.18872384924E+03  0.33699967910E+03  0.26287817414E+03 0.  0.
         25    1    4    4    0    0 -0.46119014639E+02  0.75743451456E+02  0.11394634720E+03  0.19103746253E+03  0.12509000000E+03 0.  0.
         25    1    3    3    0    0  0.43472562995E+02 -0.83410396661E+02  0.48535554509E+01  0.15658295918E+03  0.12509000000E+03 0.  0.
         25    1    4    4    0    0  0.26464516441E+01  0.76669452056E+01  0.74777502040E+02  0.14596221657E+03  0.12509000000E+03 0.  0.
<mgrwt>
<rscale>  2 0.45403922E+03</rscale>
<asrwt>0</asrwt>
<pdfrwt beam="1">  1       21 0.50526474E-01 0.45403922E+03</pdfrwt>
<pdfrwt beam="2">  1       21 0.22059208E-01 0.45403922E+03</pdfrwt>
<totfact> 0.66227583E+04</totfact>
</mgrwt>
</event>
<event>
 7    0  0.4759581E-002  0.4528330E+03  0.7546771E-02  0.1026881E+00
         21   -1    0    0  502  501  0.00000000000E+00  0.00000000000E+00  0.68167109504E+02  0.68167109504E+02  0.00000000000E+00 0. -1.
         21   -1    0    0  501  502 -0.00000000000E+00 -0.00000000000E+00 -0.75204041215E+03  0.75204041215E+03  0.00000000000E+00 0. -1.
      99926    2    1    2    0    0  0.00000000000E+00 -0.17763568394E-14 -0.68387330264E+03  0.82020752165E+03  0.45283295431E+03 0.  0.
      99925    2    3    3    0    0  0.68000335242E+02  0.29235037668E+01 -0.27179867456E+03  0.38421944879E+03  0.26290202142E+03 0.  0.
         25    1    4    4    0    0  0.58613144278E+02 -0.91416870007E+01 -0.18556568297E+03  0.23151933379E+03  0.12509000000E+03 0.  0.
         25    1    4    4    0    0  0.93871909643E+01  0.12065190768E+02 -0.86232991595E+02  0.15270011500E+03  0.12509000000E+03 0.  0.
         25    1    3    3    0    0 -0.68000335242E+02 -0.29235037668E+01 -0.41207462808E+03  0.43598807286E+03  0.12509000000E+03 0.  0.
<mgrwt>
<rscale>  2 0.45283295E+03</rscale>
<asrwt>0</asrwt>
<pdfrwt beam="1">  1       21 0.10024575E-01 0.45283295E+03</pdfrwt>
<pdfrwt beam="2">  1       21 0.11059418E+00 0.45283295E+03</pdfrwt>
<totfact> 0.47607254E+04</totfact>
</mgrwt>
</event>
<event>
 7    0  0.4759581E-002  0.4593543E+03  0.7546771E-02  0.1024969E+00
         21   -1    0    0  502  501  0.00000000000E+00  0.00000000000E+00  0.27870812193E+02  0.27870812193E+02  0.00000000000E+00 0.  1.
         21   -1    0    0  501  502 -0.00000000000E+00 -0.00000000000E+00 -0.18927178402E+04  0.18927178402E+04  0.00000000000E+00 0.  1.
      99926    2    1    2    0    0  0.00000000000E+00  0.44408920985E-14 -0.18648470280E+04  0.19205886524E+04  0.45935425745E+03 0.  0.
      99925    2    3    3    0    0  0.22090333459E+02 -0.60026938650E+01 -0.68792612158E+03  0.73681741468E+03  0.26293257434E+03 0.  0.
         25    1    4    4    0    0  0.95478456039E+01  0.31565139196E+02 -0.40012232632E+03  0.42051504549E+03  0.12509000000E+03 0.  0.
         25    1    4    4    0    0  0.12542487856E+02 -0.37567833061E+02 -0.28780379527E+03  0.31630236919E+03  0.12509000000E+03 0.  0.
         25    1    3    3    0    0 -0.22090333459E+02  0.60026938650E+01 -0.11769209064E+04  0.11837712377E+04  0.12509000000E+03 0.  0.
<mgrwt>
<rscale>  2 0.45935426E+03</rscale>
<asrwt>0</asrwt>
<pdfrwt beam="1">  1       21 0.40986492E-02 0.45935426E+03</pdfrwt>
<pdfrwt beam="2">  1       21 0.27834084E+00 0.45935426E+03</pdfrwt>
<totfact> 0.14551915E+04</totfact>
</mgrwt>
</event>
<event>
 7    0  0.4759581E-002  0.4511492E+03  0.7546771E-02  0.1027380E+00
         21   -1    0    0  502  501  0.00000000000E+00  0.00000000000E+00  0.11986460363E+03  0.11986460363E+03  0.00000000000E+00 0. -1.
         21   -1    0    0  501  502 -0.00000000000E+00 -0.00000000000E+00 -0.42451153966E+03  0.42451153966E+03  0.00000000000E+00 0. -1.
      99926    2    1    2    0    0  0.00000000000E+00 -0.35527136788E-14 -0.30464693603E+03  0.54437614329E+03  0.45114923224E+03 0.  0.
      99925    2    3    3    0    0  0.58027610859E+02  0.31429448894E+02 -0.86978433722E+02  0.28479552214E+03  0.26303655187E+03 0.  0.
         25    1    3    3    0    0 -0.58027610859E+02 -0.31429448894E+02 -0.21766850231E+03  0.25958062115E+03  0.12509000000E+03 0.  0.
         25    1    4    4    0    0  0.40295823575E+02  0.54392632970E+02 -0.36676511322E+02  0.14688426227E+03  0.12509000000E+03 0.  0.
         25    1    4    4    0    0  0.17731787284E+02 -0.22963184076E+02 -0.50301922400E+02  0.13791125987E+03  0.12509000000E+03 0.  0.
<mgrwt>
<rscale>  2 0.45114923E+03</rscale>
<asrwt>0</asrwt>
<pdfrwt beam="1">  1       21 0.17627148E-01 0.45114923E+03</pdfrwt>
<pdfrwt beam="2">  1       21 0.62428167E-01 0.45114923E+03</pdfrwt>
<totfact> 0.64172851E+04</totfact>
</mgrwt>
</event>
<event>
 7    0  0.4759581E-002  0.4523480E+03  0.7546771E-02  0.1027024E+00
         21   -1    0    0  502  501  0.00000000000E+00  0.00000000000E+00  0.10720440832E+04  0.10720440832E+04  0.00000000000E+00 0. -1.
         21   -1    0    0  501  502 -0.00000000000E+00 -0.00000000000E+00 -0.47716958426E+02  0.47716958426E+02  0.00000000000E+00 0. -1.
      99926    2    1    2    0    0  0.71054273576E-14  0.35527136788E-14  0.10243271248E+04  0.11197610416E+04  0.45234802066E+03 0.  0.
      99925    2    3    3    0    0 -0.53973718051E+02 -0.12894614911E+02  0.40895443823E+03  0.48935602517E+03  0.26295656197E+03 0.  0.
         25    1    3    3    0    0  0.53973718051E+02  0.12894614911E+02  0.61537268653E+03  0.63040501645E+03  0.12509000000E+03 0.  0.
         25    1    4    4    0    0 -0.55240732475E+02  0.22658682803E+02  0.21726548246E+03  0.25771447844E+03  0.12509000000E+03 0.  0.
         25    1    4    4    0    0  0.12670144240E+01 -0.35553297713E+02  0.19168895577E+03  0.23164154672E+03  0.12509000000E+03 0.  0.
<mgrwt>
<rscale>  2 0.45234802E+03</rscale>
<asrwt>0</asrwt>
<pdfrwt beam="1">  1       21 0.15765353E+00 0.45234802E+03</pdfrwt>
<pdfrwt beam="2">  1       21 0.70172004E-02 0.45234802E+03</pdfrwt>
<totfact> 0.35537232E+04</totfact>
</mgrwt>
</event>
<event>
 7    0  0.4759581E-002  0.4541961E+03  0.7546771E-02  0.1026478E+00
         21   -1    0    0  502  501  0.00000000000E+00  0.00000000000E+00  0.15288678489E+04  0.15288678489E+04  0.00000000000E+00 0. -1.
         21   -1    0    0  501  502 -0.00000000000E+00 -0.00000000000E+00 -0.33733149670E+02  0.33733149670E+02  0.00000000000E+00 0. -1.
      99926    2    1    2    0    0 -0.71054273576E-14  0.11102230246E-15  0.14951346992E+04  0.15626009986E+04  0.45419611611E+03 0.  0.
      99925    2    3    3    0    0 -0.32734023588E+02  0.76453481315E+00  0.57189481422E+03  0.63035023070E+03  0.26306963717E+03 0.  0.
         25    1    4    4    0    0 -0.57285068793E+02 -0.13263388918E+01  0.30034039928E+03  0.33035617418E+03  0.12509000000E+03 0.  0.
         25    1    4    4    0    0  0.24551045205E+02  0.20908737049E+01  0.27155441494E+03  0.29999405652E+03  0.12509000000E+03 0.  0.
         25    1    3    3    0    0  0.32734023588E+02 -0.76453481315E+00  0.92323988501E+03  0.93225076787E+03  0.12509000000E+03 0.  0.
<mgrwt>
<rscale>  2 0.45419612E+03</rscale>
<asrwt>0</asrwt>
<pdfrwt beam="1">  1       21 0.22483346E+00 0.45419612E+03</pdfrwt>
<pdfrwt beam="2">  1       21 0.49607583E-02 0.45419612E+03</pdfrwt>
<totfact> 0.22425443E+04</totfact>
</mgrwt>
</event>
<event>
 7    0  0.4759581E-002  0.4600499E+03  0.7546771E-02  0.1024767E+00
         21   -1    0    0  502  501  0.00000000000E+00  0.00000000000E+00  0.13845097752E+03  0.13845097752E+03  0.00000000000E+00 0. -1.
         21   -1    0    0  501  502 -0.00000000000E+00 -0.00000000000E+00 -0.38216762148E+03  0.38216762148E+03  0.00000000000E+00 0. -1.
      99926    2    1    2    0    0  0.17763568394E-14  0.00000000000E+00 -0.24371664395E+03  0.52061859900E+03  0.46004991368E+03 0.  0.
      99925    2    3    3    0    0 -0.89723865070E+01 -0.51420139147E+02 -0.33385164020E+02  0.27039595018E+03  0.26320118971E+03 0.  0.
         25    1    4    4    0    0 -0.19820307995E+02 -0.38337355651E+02 -0.53183898860E+02  0.14261357805E+03  0.12509000000E+03 0.  0.
         25    1    4    4    0    0  0.10847921488E+02 -0.13082783495E+02  0.19798734840E+02  0.12778237212E+03  0.12509000000E+03 0.  0.
         25    1    3    3    0    0  0.89723865070E+01  0.51420139147E+02 -0.21033147994E+03  0.25022264882E+03  0.12509000000E+03 0.  0.
<mgrwt>
<rscale>  2 0.46004991E+03</rscale>
<asrwt>0</asrwt>
<pdfrwt beam="1">  1       21 0.20360438E-01 0.46004991E+03</pdfrwt>
<pdfrwt beam="2">  1       21 0.56201120E-01 0.46004991E+03</pdfrwt>
<totfact> 0.61349873E+04</totfact>
</mgrwt>
</event>
<event>
 7    0  0.4759581E-002  0.4574544E+03  0.7546771E-02  0.1025522E+00
         21   -1    0    0  502  501  0.00000000000E+00  0.00000000000E+00  0.54927096477E+02  0.54927096477E+02  0.00000000000E+00 0. -1.
         21   -1    0    0  501  502 -0.00000000000E+00 -0.00000000000E+00 -0.95246475919E+03  0.95246475919E+03  0.00000000000E+00 0. -1.
      99926    2    1    2    0    0  0.00000000000E+00  0.00000000000E+00 -0.89753766272E+03  0.10073918557E+04  0.45745436371E+03 0.  0.
      99925    2    3    3    0    0  0.17003810867E+02  0.10717650192E+03 -0.47675026325E+03  0.55519115267E+03  0.26300279532E+03 0.  0.
         25    1    3    3    0    0 -0.17003810867E+02 -0.10717650192E+03 -0.42078739946E+03  0.45220070300E+03  0.12509000000E+03 0.  0.
         25    1    4    4    0    0  0.18700561931E+02  0.31978707840E+02 -0.16013454898E+03  0.20655006814E+03  0.12509000000E+03 0.  0.
         25    1    4    4    0    0 -0.16967510643E+01  0.75197794077E+02 -0.31661571427E+03  0.34864108453E+03  0.12509000000E+03 0.  0.
<mgrwt>
<rscale>  2 0.45745436E+03</rscale>
<asrwt>0</asrwt>
<pdfrwt beam="1">  1       21 0.80775143E-02 0.45745436E+03</pdfrwt>
<pdfrwt beam="2">  1       21 0.14006834E+00 0.45745436E+03</pdfrwt>
<totfact> 0.38144162E+04</totfact>
</mgrwt>
</event>
<event>
 7    0  0.4759581E-002  0.4586220E+03  0.7546771E-02  0.1025182E+00
         21   -1    0    0  502  501  0.00000000000E+00  0.00000000000E+00  0.16483495012E+04  0.16483495012E+04  0.00000000000E+00 0.  1.
         21   -1    0    0  501  502 -0.00000000000E+00 -0.00000000000E+00 -0.31900724204E+02  0.31900724204E+02  0.00000000000E+00 0.  1.
      99926    2    1    2    0    0  0.00000000000E+00  0.00000000000E+00  0.16164487770E+04  0.16802502255E+04  0.45862203537E+03 0.  0.
      99925    2    3    3    0    0  0.58782146530E+01  0.94337515046E+02  0.76380867278E+03  0.81331494779E+03  0.26295131781E+03 0.  0.
         25    1    3    3    0    0 -0.58782146530E+01 -0.94337515046E+02  0.85264010427E+03  0.86693527766E+03  0.12509000000E+03 0.  0.
         25    1    4    4    0    0  0.23720765433E+02  0.77109538548E+02  0.47046917613E+03  0.49345446542E+03  0.12509000000E+03 0.  0.
         25    1    4    4    0    0 -0.17842550780E+02  0.17227976498E+02  0.29333949664E+03  0.31986048237E+03  0.12509000000E+03 0.  0.
<mgrwt>
<rscale>  2 0.45862204E+03</rscale>
<asrwt>0</asrwt>
<pdfrwt beam="1">  1       21 0.24240428E+00 0.45862204E+03</pdfrwt>
<pdfrwt beam="2">  1       21 0.46912841E-02 0.45862204E+03</pdfrwt>
<totfact> 0.19131965E+04</totfact>
</mgrwt>
</event>
<event>
 7    0  0.4759581E-002  0.4252361E+03  0.7546771E-02  0.1035376E+00
         21   -1    0    0  502  501  0.00000000000E+00  0.00000000000E+00  0.21711759646E+03  0.21711759646E+03  0.00000000000E+00 0.  1.
         21   -1    0    0  501  502 -0.00000000000E+00 -0.00000000000E+00 -0.20821172881E+03  0.20821172881E+03  0.00000000000E+00 0.  1.
      99926    2    1    2    0    0  0.71054273576E-14  0.71054273576E-14  0.89058676510E+01  0.42532932526E+03  0.42523607614E+03 0.  0.
      99925    2    3    3    0    0  0.32795951796E+02  0.60062737480E+02  0.51089331191E+02  0.27663480760E+03  0.26312276626E+03 0.  0.
         25    1    4    4    0    0 -0.23938036666E+02  0.30139800631E+02  0.32338747192E+02  0.13481372279E+03  0.12509000000E+03 0.  0.
         25    1    3    3    0    0 -0.32795951796E+02 -0.60062737480E+02 -0.42183463540E+02  0.14869451767E+03  0.12509000000E+03 0.  0.
         25    1    4    4    0    0  0.56733988462E+02  0.29922936849E+02  0.18750583999E+02  0.14182108481E+03  0.12509000000E+03 0.  0.
<mgrwt>
<rscale>  2 0.42523608E+03</rscale>
<asrwt>0</asrwt>
<pdfrwt beam="1">  1       21 0.31929059E-01 0.42523608E+03</pdfrwt>
<pdfrwt beam="2">  1       21 0.30619372E-01 0.42523608E+03</pdfrwt>
<totfact> 0.90415410E+04</totfact>
</mgrwt>
</event>
<event>
 7    0  0.4759581E-002  0.4510493E+03  0.7546771E-02  0.1027410E+00
         21   -1    0    0  502  501  0.00000000000E+00  0.00000000000E+00  0.57238488683E+02  0.57238488683E+02  0.00000000000E+00 0.  1.
         21   -1    0    0  501  502 -0.00000000000E+00 -0.00000000000E+00 -0.88858675658E+03  0.88858675658E+03  0.00000000000E+00 0.  1.
      99926    2    1    2    0    0  0.00000000000E+00  0.71054273576E-14 -0.83134826789E+03  0.94582524526E+03  0.45104927895E+03 0.  0.
      99925    2    3    3    0    0  0.21909642077E+02 -0.30089007428E+02 -0.74162410244E+03  0.78744811702E+03  0.26207412480E+03 0.  0.
         25    1    4    4    0    0 -0.72964177411E+01 -0.47662802650E+02 -0.34292313859E+03  0.36819664250E+03  0.12509000000E+03 0.  0.
         25    1    4    4    0    0  0.29206059818E+02  0.17573795222E+02 -0.39870096385E+03  0.41925147451E+03  0.12509000000E+03 0.  0.
         25    1    3    3    0    0 -0.21909642077E+02  0.30089007428E+02 -0.89724165453E+02  0.15837712824E+03  0.12509000000E+03 0.  0.
<mgrwt>
<rscale>  2 0.45104928E+03</rscale>
<asrwt>0</asrwt>
<pdfrwt beam="1">  1       21 0.84174255E-02 0.45104928E+03</pdfrwt>
<pdfrwt beam="2">  1       21 0.13067451E+00 0.45104928E+03</pdfrwt>
<totfact> 0.42611646E+04</totfact>
</mgrwt>
</event>
<event>
 7    0  0.4759581E-002  0.4568836E+03  0.7546771E-02  0.1025689E+00
         21   -1    0    0  502  501  0.00000000000E+00  0.00000000000E+00  0.12915885386E+03  0.12915885386E+03  0.00000000000E+00 0.  1.
         21   -1    0    0  501  502 -0.00000000000E+00 -0.00000000000E+00 -0.40404247556E+03  0.40404247556E+03  0.00000000000E+00 0.  1.
      99926    2    1    2    0    0  0.14210854715E-13  0.00000000000E+00 -0.27488362170E+03  0.53320132942E+03  0.45688363093E+03 0.  0.
      99925    2    3    3    0    0 -0.80376531280E+02  0.48996574737E+02 -0.24950129544E+03  0.37460491803E+03  0.26309104331E+03 0.  0.
         25    1    3    3    0    0  0.80376531280E+02 -0.48996574737E+02 -0.25382326263E+02  0.15859641138E+03  0.12509000000E+03 0.  0.
         25    1    4    4    0    0 -0.82711744167E+02  0.28371168093E+02 -0.13573499351E+03  0.20424899600E+03  0.12509000000E+03 0.  0.
         25    1    4    4    0    0  0.23352128872E+01  0.20625406644E+02 -0.11376630193E+03  0.17035592204E+03  0.12509000000E+03 0.  0.
<mgrwt>
<rscale>  2 0.45688363E+03</rscale>
<asrwt>0</asrwt>
<pdfrwt beam="1">  1       21 0.18993949E-01 0.45688363E+03</pdfrwt>
<pdfrwt beam="2">  1       21 0.59418010E-01 0.45688363E+03</pdfrwt>
<totfact> 0.62058661E+04</totfact>
</mgrwt>
</event>
<event>
 7    0  0.4759581E-002  0.4542725E+03  0.7546771E-02  0.1026456E+00
         21   -1    0    0  502  501  0.00000000000E+00  0.00000000000E+00  0.34878835869E+03  0.34878835869E+03  0.00000000000E+00 0.  1.
         21   -1    0    0  501  502 -0.00000000000E+00 -0.00000000000E+00 -0.14791456458E+03  0.14791456458E+03  0.00000000000E+00 0.  1.
      99926    2    1    2    0    0 -0.14210854715E-13 -0.35527136788E-14  0.20087379411E+03  0.49670292327E+03  0.45427250943E+03 0.  0.
      99925    2    3    3    0    0  0.96574519877E+02  0.79482527203E+01  0.18831900132E+03  0.33797377178E+03  0.26338643006E+03 0.  0.
         25    1    3    3    0    0 -0.96574519877E+02 -0.79482527203E+01  0.12554792781E+02  0.15872915149E+03  0.12509000000E+03 0.  0.
         25    1    4    4    0    0  0.73926858755E+02 -0.18650290602E+02  0.70316852962E+02  0.16249609748E+03  0.12509000000E+03 0.  0.
         25    1    4    4    0    0  0.22647661122E+02  0.26598543323E+02  0.11800214836E+03  0.17547767430E+03  0.12509000000E+03 0.  0.
<mgrwt>
<rscale>  2 0.45427251E+03</rscale>
<asrwt>0</asrwt>
<pdfrwt beam="1">  1       21 0.51292406E-01 0.45427251E+03</pdfrwt>
<pdfrwt beam="2">  1       21 0.21752142E-01 0.45427251E+03</pdfrwt>
<totfact> 0.65882570E+04</totfact>
</mgrwt>
</event>
<event>
 7    0  0.4759581E-002  0.4578312E+03  0.7546771E-02  0.1025412E+00
         21   -1    0    0  502  501  0.00000000000E+00  0.00000000000E+00  0.89218894020E+02  0.89218894020E+02  0.00000000000E+00 0. -1.
         21   -1    0    0  501  502 -0.00000000000E+00 -0.00000000000E+00 -0.58734602480E+03  0.58734602480E+03  0.00000000000E+00 0. -1.
      99926    2    1    2    0    0  0.35527136788E-14  0.00000000000E+00 -0.49812713078E+03  0.67656491882E+03  0.45783124725E+03 0.  0.
      99925    2    3    3    0    0  0.29058670499E+02  0.10374040191E+03 -0.37554957775E+03  0.47094575161E+03  0.26295615279E+03 0.  0.
         25    1    4    4    0    0  0.46252514568E+02  0.76806931414E+02 -0.22526674398E+03  0.27282084572E+03  0.12509000000E+03 0.  0.
         25    1    3    3    0    0 -0.29058670499E+02 -0.10374040191E+03 -0.12257755303E+03  0.20561916721E+03  0.12509000000E+03 0.  0.
         25    1    4    4    0    0 -0.17193844069E+02  0.26933470492E+02 -0.15028283377E+03  0.19812490589E+03  0.12509000000E+03 0.  0.
<mgrwt>
<rscale>  2 0.45783125E+03</rscale>
<asrwt>0</asrwt>
<pdfrwt beam="1">  1       21 0.13120425E-01 0.45783125E+03</pdfrwt>
<pdfrwt beam="2">  1       21 0.86374416E-01 0.45783125E+03</pdfrwt>
<totfact> 0.53001762E+04</totfact>
</mgrwt>
</event>
<event>
 7    0  0.4759581E-002  0.4482695E+03  0.7546771E-02  0.1028239E+00
         21   -1    0    0  502  501  0.00000000000E+00  0.00000000000E+00  0.41891521152E+03  0.41891521152E+03  0.00000000000E+00 0. -1.
         21   -1    0    0  501  502 -0.00000000000E+00 -0.00000000000E+00 -0.11992016024E+03  0.11992016024E+03  0.00000000000E+00 0. -1.
      99926    2    1    2    0    0  0.00000000000E+00 -0.17763568394E-14  0.29899505128E+03  0.53883537176E+03  0.44826946936E+03 0.  0.
      99925    2    3    3    0    0 -0.66656397694E+02  0.14298544431E+02  0.28794478371E+03  0.39594681294E+03  0.26308583483E+03 0.  0.
         25    1    4    4    0    0 -0.28485305351E+02 -0.53199379768E+01  0.19807601133E+03  0.23605365645E+03  0.12509000000E+03 0.  0.
         25    1    3    3    0    0  0.66656397694E+02 -0.14298544431E+02  0.11050267569E+02  0.14288855881E+03  0.12509000000E+03 0.  0.
         25    1    4    4    0    0 -0.38171092344E+02  0.19618482408E+02  0.89868772388E+02  0.15989315649E+03  0.12509000000E+03 0.  0.
<mgrwt>
<rscale>  2 0.44826947E+03</rscale>
<asrwt>0</asrwt>
<pdfrwt beam="1">  1       21 0.61605178E-01 0.44826947E+03</pdfrwt>
<pdfrwt beam="2">  1       21 0.17635318E-01 0.44826947E+03</pdfrwt>
<totfact> 0.66059379E+04</totfact>
</mgrwt>
</event>
<event>
 7    0  0.4759581E-002  0.4312914E+03  0.7546771E-02  0.1033453E+00
         21   -1    0    0  502  501  0.00000000000E+00  0.00000000000E+00  0.72047952237E+03  0.72047952237E+03  0.00000000000E+00 0.  1.
         21   -1    0    0  501  502 -0.00000000000E+00 -0.00000000000E+00 -0.64544617456E+02  0.64544617456E+02  0.00000000000E+00 0.  1.
      99926    2    1    2    0    0  0.00000000000E+00 -0.71054273576E-14  0.65593490491E+03  0.78502413982E+03  0.43129143351E+03 0.  0.
      99925    2    3    3    0    0  0.40809900094E+02 -0.37581013182E+02  0.54971661745E+03  0.61179708308E+03  0.26273471576E+03 0.  0.
         25    1    3    3    0    0 -0.40809900094E+02  0.37581013182E+02  0.10621828746E+03  0.17322705674E+03  0.12509000000E+03 0.  0.
         25    1    4    4    0    0  0.11802623340E+02 -0.37975276236E+02  0.19975679894E+03  0.23902240553E+03  0.12509000000E+03 0.  0.
         25    1    4    4    0    0  0.29007276754E+02  0.39426305426E+00  0.34995981851E+03  0.37277467755E+03  0.12509000000E+03 0.  0.
<mgrwt>
<rscale>  2 0.43129143E+03</rscale>
<asrwt>0</asrwt>
<pdfrwt beam="1">  1       21 0.10595287E+00 0.43129143E+03</pdfrwt>
<pdfrwt beam="2">  1       21 0.94918559E-02 0.43129143E+03</pdfrwt>
<totfact> 0.58678893E+04</totfact>
</mgrwt>
</event>
<event>
 7    0  0.4759581E-002  0.4705245E+03  0.7546771E-02  0.1021772E+00
         21   -1    0    0  502  501  0.00000000000E+00  0.00000000000E+00  0.42653880697E+03  0.42653880697E+03  0.00000000000E+00 0.  1.
         21   -1    0    0  501  502 -0.00000000000E+00 -0.00000000000E+00 -0.12976152356E+03  0.12976152356E+03  0.00000000000E+00 0.  1.
      99926    2    1    2    0    0  0.00000000000E+00  0.00000000000E+00  0.29677728341E+03  0.55630033053E+03  0.47052449649E+03 0.  0.
      99925    2    3    3    0    0 -0.10777867692E+03 -0.43278579800E+02  0.24609866751E+03  0.37824104580E+03  0.26270221908E+03 0.  0.
         25    1    4    4    0    0 -0.78121821489E+02  0.95854393355E+01  0.13723326605E+03  0.20168137507E+03  0.12509000000E+03 0.  0.
         25    1    4    4    0    0 -0.29656855435E+02 -0.52864019136E+02  0.10886540146E+03  0.17655967073E+03  0.12509000000E+03 0.  0.
         25    1    3    3    0    0  0.10777867692E+03  0.43278579800E+02  0.50678615903E+02  0.17805928473E+03  0.12509000000E+03 0.  0.
<mgrwt>
<rscale>  2 0.47052450E+03</rscale>
<asrwt>0</asrwt>
<pdfrwt beam="1">  1       21 0.62726295E-01 0.47052450E+03</pdfrwt>
<pdfrwt beam="2">  1       21 0.19082577E-01 0.47052450E+03</pdfrwt>
<totfact> 0.54448731E+04</totfact>
</mgrwt>
</event>
<event>
 7    0  0.4759581E-002  0.4566784E+03  0.7546771E-02  0.1025749E+00
         21   -1    0    0  502  501  0.00000000000E+00  0.00000000000E+00  0.56195588609E+03  0.56195588609E+03  0.00000000000E+00 0.  1.
         21   -1    0    0  501  502 -0.00000000000E+00 -0.00000000000E+00 -0.92780945325E+02  0.92780945325E+02  0.00000000000E+00 0.  1.
      99926    2    1    2    0    0  0.00000000000E+00  0.00000000000E+00  0.46917494077E+03  0.65473683142E+03  0.45667843541E+03 0.  0.
      99925    2    3    3    0    0 -0.36008135475E+02  0.82047300913E+02  0.39761085687E+03  0.48503924271E+03  0.26294548497E+03 0.  0.
         25    1    4    4    0    0 -0.54213132743E+02  0.25019034405E+02  0.21340041597E+03  0.25446465665E+03  0.12509000000E+03 0.  0.
         25    1    3    3    0    0  0.36008135475E+02 -0.82047300913E+02  0.71564083903E+02  0.16969758871E+03  0.12509000000E+03 0.  0.
         25    1    4    4    0    0  0.18204997268E+02  0.57028266508E+02  0.18421044089E+03  0.23057458607E+03  0.12509000000E+03 0.  0.
<mgrwt>
<rscale>  2 0.45667844E+03</rscale>
<asrwt>0</asrwt>
<pdfrwt beam="1">  1       21 0.82640570E-01 0.45667844E+03</pdfrwt>
<pdfrwt beam="2">  1       21 0.13644257E-01 0.45667844E+03</pdfrwt>
<totfact> 0.54701616E+04</totfact>
</mgrwt>
</event>
<event>
 7    0  0.4759581E-002  0.4504704E+03  0.7546771E-02  0.1027582E+00
         21   -1    0    0  502  501  0.00000000000E+00  0.00000000000E+00  0.86485745175E+03  0.86485745175E+03  0.00000000000E+00 0.  1.
         21   -1    0    0  501  502 -0.00000000000E+00 -0.00000000000E+00 -0.58658090907E+02  0.58658090907E+02  0.00000000000E+00 0.  1.
      99926    2    1    2    0    0  0.00000000000E+00 -0.71054273576E-14  0.80619936084E+03  0.92351554266E+03  0.45047036318E+03 0.  0.
      99925    2    3    3    0    0  0.70507942868E+02  0.50640102906E+02  0.37471842903E+03  0.46595779477E+03  0.26299615097E+03 0.  0.
         25    1    4    4    0    0  0.10229867836E+01  0.15872201698E+02  0.13590279878E+03  0.18539161822E+03  0.12509000000E+03 0.  0.
         25    1    3    3    0    0 -0.70507942868E+02 -0.50640102906E+02  0.43148093181E+03  0.45755774788E+03  0.12509000000E+03 0.  0.
         25    1    4    4    0    0  0.69484956084E+02  0.34767901208E+02  0.23881563025E+03  0.28056617655E+03  0.12509000000E+03 0.  0.
<mgrwt>
<rscale>  2 0.45047036E+03</rscale>
<asrwt>0</asrwt>
<pdfrwt beam="1">  1       21 0.12718491E+00 0.45047036E+03</pdfrwt>
<pdfrwt beam="2">  1       21 0.86261904E-02 0.45047036E+03</pdfrwt>
<totfact> 0.43762413E+04</totfact>
</mgrwt>
</event>
<event>
 7    0  0.4759581E-002  0.4537331E+03  0.7546771E-02  0.1026615E+00
         21   -1    0    0  502  501  0.00000000000E+00  0.00000000000E+00  0.18363187137E+03  0.18363187137E+03  0.00000000000E+00 0.  1.
         21   -1    0    0  501  502 -0.00000000000E+00 -0.00000000000E+00 -0.28028043847E+03  0.28028043847E+03  0.00000000000E+00 0.  1.
      99926    2    1    2    0    0  0.00000000000E+00  0.00000000000E+00 -0.96648567101E+02  0.46391230983E+03  0.45373305554E+03 0.  0.
      99925    2    3    3    0    0 -0.68091810812E+02  0.72373963680E+02 -0.11350953268E+03  0.30326896083E+03  0.26308394720E+03 0.  0.
         25    1    4    4    0    0 -0.70678019756E+02  0.19124701720E+02 -0.65617970201E+02  0.15910487989E+03  0.12509000000E+03 0.  0.
         25    1    3    3    0    0  0.68091810812E+02 -0.72373963680E+02  0.16860965577E+02  0.16064334900E+03  0.12509000000E+03 0.  0.
         25    1    4    4    0    0  0.25862089432E+01  0.53249261961E+02 -0.47891562476E+02  0.14416408094E+03  0.12509000000E+03 0.  0.
<mgrwt>
<rscale>  2 0.45373306E+03</rscale>
<asrwt>0</asrwt>
<pdfrwt beam="1">  1       21 0.27004687E-01 0.45373306E+03</pdfrwt>
<pdfrwt beam="2">  1       21 0.41217711E-01 0.45373306E+03</pdfrwt>
<totfact> 0.68578411E+04</totfact>
</mgrwt>
</event>
<event>
 7    0  0.4759581E-002  0.4505454E+03  0.7546771E-02  0.1027560E+00
         21   -1    0    0  502  501  0.00000000000E+00  0.00000000000E+00  0.32649262094E+02  0.32649262094E+02  0.00000000000E+00 0. -1.
         21   -1    0    0  501  502 -0.00000000000E+00 -0.00000000000E+00 -0.15543320631E+04  0.15543320631E+04  0.00000000000E+00 0. -1.
      99926    2    1    2    0    0 -0.88817841970E-15  0.00000000000E+00 -0.15216828010E+04  0.15869813252E+04  0.45054542461E+03 0.  0.
      99925    2    3    3    0    0  0.40825499551E+01  0.20610413832E+02 -0.58517367619E+03  0.64192137719E+03  0.26304632065E+03 0.  0.
         25    1    4    4    0    0  0.51006462671E+01 -0.22045380891E+02 -0.34672735488E+03  0.36929579219E+03  0.12509000000E+03 0.  0.
         25    1    4    4    0    0 -0.10180963121E+01  0.42655794722E+02 -0.23844632132E+03  0.27262558499E+03  0.12509000000E+03 0.  0.
         25    1    3    3    0    0 -0.40825499551E+01 -0.20610413832E+02 -0.93650912484E+03  0.94505994803E+03  0.12509000000E+03 0.  0.
<mgrwt>
<rscale>  2 0.45054542E+03</rscale>
<asrwt>0</asrwt>
<pdfrwt beam="1">  1       21 0.48013620E-02 0.45054542E+03</pdfrwt>
<pdfrwt beam="2">  1       21 0.22857825E+00 0.45054542E+03</pdfrwt>
<totfact> 0.22493616E+04</totfact>
</mgrwt>
</event>
<event>
 7    0  0.4759581E-002  0.4506169E+03  0.7546771E-02  0.1027538E+00
         21   -1    0    0  502  501  0.00000000000E+00  0.00000000000E+00  0.40842968288E+03  0.40842968288E+03  0.00000000000E+00 0. -1.
         21   -1    0    0  501  502 -0.00000000000E+00 -0.00000000000E+00 -0.12429039580E+03  0.12429039580E+03  0.00000000000E+00 0. -1.
      99926    2    1    2    0    0  0.35527136788E-14  0.00000000000E+00  0.28413928708E+03  0.53272007867E+03  0.45061685251E+03 0.  0.
      99925    2    3    3    0    0  0.12530431544E+02 -0.79785585953E+02  0.91925951251E+02  0.28958179290E+03  0.26245853544E+03 0.  0.
         25    1    3    3    0    0 -0.12530431544E+02  0.79785585953E+02  0.19221333583E+03  0.24313828578E+03  0.12509000000E+03 0.  0.
         25    1    4    4    0    0 -0.19253361190E+02 -0.56582681009E+02  0.74235623164E+02  0.15726006344E+03  0.12509000000E+03 0.  0.
         25    1    4    4    0    0  0.31783792735E+02 -0.23202904944E+02  0.17690328087E+02  0.13232172946E+03  0.12509000000E+03 0.  0.
<mgrwt>
<rscale>  2 0.45061685E+03</rscale>
<asrwt>0</asrwt>
<pdfrwt beam="1">  1       21 0.60063188E-01 0.45061685E+03</pdfrwt>
<pdfrwt beam="2">  1       21 0.18277999E-01 0.45061685E+03</pdfrwt>
<totfact> 0.65257785E+04</totfact>
</mgrwt>
</event>
<event>
 7    0  0.4759581E-002  0.4613831E+03  0.7546771E-02  0.1024381E+00
         21   -1    0    0  502  501  0.00000000000E+00  0.00000000000E+00  0.63085976465E+02  0.63085976465E+02  0.00000000000E+00 0.  1.
         21   -1    0    0  501  502 -0.00000000000E+00 -0.00000000000E+00 -0.84358836307E+03  0.84358836307E+03  0.00000000000E+00 0.  1.
      99926    2    1    2    0    0 -0.71054273576E-14  0.00000000000E+00 -0.78050238660E+03  0.90667433953E+03  0.46138311897E+03 0.  0.
      99925    2    3    3    0    0  0.40196213838E+02 -0.99701502106E+02 -0.58870205915E+03  0.65370991745E+03  0.26307872699E+03 0.  0.
         25    1    4    4    0    0  0.10143663800E+02 -0.27389120397E+02 -0.19752367516E+03  0.23561869234E+03  0.12509000000E+03 0.  0.
         25    1    4    4    0    0  0.30052550038E+02 -0.72312381709E+02 -0.39117838399E+03  0.41809122511E+03  0.12509000000E+03 0.  0.
         25    1    3    3    0    0 -0.40196213838E+02  0.99701502106E+02 -0.19180032745E+03  0.25296442209E+03  0.12509000000E+03 0.  0.
<mgrwt>
<rscale>  2 0.46138312E+03</rscale>
<asrwt>0</asrwt>
<pdfrwt beam="1">  1       21 0.92773498E-02 0.46138312E+03</pdfrwt>
<pdfrwt beam="2">  1       21 0.12405711E+00 0.46138312E+03</pdfrwt>
<totfact> 0.40865652E+04</totfact>
</mgrwt>
</event>
<event>
 7    0  0.4759581E-002  0.4537354E+03  0.7546771E-02  0.1026614E+00
         21   -1    0    0  502  501  0.00000000000E+00  0.00000000000E+00  0.87250478627E+03  0.87250478627E+03  0.00000000000E+00 0. -1.
         21   -1    0    0  501  502 -0.00000000000E+00 -0.00000000000E+00 -0.58989884807E+02  0.58989884807E+02  0.00000000000E+00 0. -1.
      99926    2    1    2    0    0  0.00000000000E+00  0.17763568394E-14  0.81351490146E+03  0.93149467108E+03  0.45373541557E+03 0.  0.
      99925    2    3    3    0    0  0.10454107438E+03  0.88572155491E+01  0.42996922206E+03  0.51464687777E+03  0.26264156254E+03 0.  0.
         25    1    4    4    0    0  0.43514364153E+02  0.38817763819E+02  0.17799932058E+03  0.22523673080E+03  0.12509000000E+03 0.  0.
         25    1    4    4    0    0  0.61026710228E+02 -0.29960548270E+02  0.25196990149E+03  0.28941014697E+03  0.12509000000E+03 0.  0.
         25    1    3    3    0    0 -0.10454107438E+03 -0.88572155491E+01  0.38354567940E+03  0.41684779331E+03  0.12509000000E+03 0.  0.
<mgrwt>
<rscale>  2 0.45373542E+03</rscale>
<asrwt>0</asrwt>
<pdfrwt beam="1">  1       21 0.12830952E+00 0.45373542E+03</pdfrwt>
<pdfrwt beam="2">  1       21 0.86749836E-02 0.45373542E+03</pdfrwt>
<totfact> 0.42316381E+04</totfact>
</mgrwt>
</event>
<event>
 6    0  0.4759581E-002  0.4571193E+03  0.7546771E-02  0.1025620E+00
         21   -1    0    0  502  501  0.00000000000E+00  0.00000000000E+00  0.17050816895E+03  0.17050816895E+03  0.00000000000E+00 0.  1.
         21   -1    0    0  501  502 -0.00000000000E+00 -0.00000000000E+00 -0.30637542869E+03  0.30637542869E+03  0.00000000000E+00 0.  1.
      99926    2    1    2    0    0  0.00000000000E+00  0.71054273576E-14 -0.13586725974E+03  0.47688359764E+03  0.45711929890E+03 0.  0.
         25    1    3    3    0    0 -0.35264235677E+02  0.66255716531E+02 -0.62951484716E+01  0.14601548988E+03  0.12509000000E+03 0.  0.
         25    1    3    3    0    0 -0.27417034393E+01 -0.10910994021E+03 -0.58527082069E+02  0.17602676906E+03  0.12509000000E+03 0.  0.
         25    1    3    3    0    0  0.38005939116E+02  0.42854223682E+02 -0.71045029195E+02  0.15484133869E+03  0.12509000000E+03 0.  0.
<mgrwt>
<rscale>  2 0.45711930E+03</rscale>
<asrwt>0</asrwt>
<pdfrwt beam="1">  1       21 0.25074731E-01 0.45711930E+03</pdfrwt>
<pdfrwt beam="2">  1       21 0.45055210E-01 0.45711930E+03</pdfrwt>
<totfact> 0.65813761E+04</totfact>
</mgrwt>
</event>
<event>
 7    0  0.4759581E-002  0.4554940E+03  0.7546771E-02  0.1026096E+00
         21   -1    0    0  502  501  0.00000000000E+00  0.00000000000E+00  0.10032612934E+03  0.10032612934E+03  0.00000000000E+00 0.  1.
         21   -1    0    0  501  502 -0.00000000000E+00 -0.00000000000E+00 -0.51700083855E+03  0.51700083855E+03  0.00000000000E+00 0.  1.
      99926    2    1    2    0    0  0.35527136788E-14  0.00000000000E+00 -0.41667470921E+03  0.61732696788E+03  0.45549398677E+03 0.  0.
      99925    2    3    3    0    0  0.22057728365E+02  0.29488101090E+02 -0.11639809073E+03  0.28995921260E+03  0.26300520520E+03 0.  0.
         25    1    4    4    0    0 -0.28251692148E+02  0.23321953026E+02 -0.50799509380E+02  0.13989342320E+03  0.12509000000E+03 0.  0.
         25    1    4    4    0    0  0.50309420513E+02  0.61661480641E+01 -0.65598581345E+02  0.15006578940E+03  0.12509000000E+03 0.  0.
         25    1    3    3    0    0 -0.22057728365E+02 -0.29488101090E+02 -0.30027661849E+03  0.32736775528E+03  0.12509000000E+03 0.  0.
<mgrwt>
<rscale>  2 0.45549399E+03</rscale>
<asrwt>0</asrwt>
<pdfrwt beam="1">  1       21 0.14753843E-01 0.45549399E+03</pdfrwt>
<pdfrwt beam="2">  1       21 0.76029533E-01 0.45549399E+03</pdfrwt>
<totfact> 0.57399976E+04</totfact>
</mgrwt>
</event>
<event>
 7    0  0.4759581E-002  0.4571792E+03  0.7546771E-02  0.1025603E+00
         21   -1    0    0  502  501  0.00000000000E+00  0.00000000000E+00  0.11573967001E+04  0.11573967001E+04  0.00000000000E+00 0. -1.
         21   -1    0    0  501  502 -0.00000000000E+00 -0.00000000000E+00 -0.45147193083E+02  0.45147193083E+02  0.00000000000E+00 0. -1.
      99926    2    1    2    0    0  0.00000000000E+00  0.00000000000E+00  0.11122495071E+04  0.12025438932E+04  0.45717923091E+03 0.  0.
      99925    2    3    3    0    0 -0.96576872385E+02  0.14034096610E+02  0.85968949246E+03  0.90428541937E+03  0.26294875566E+03 0.  0.
         25    1    4    4    0    0 -0.44938838423E+02 -0.41596626655E+01  0.54966468095E+03  0.56552238822E+03  0.12509000000E+03 0.  0.
         25    1    4    4    0    0 -0.51638033961E+02  0.18193759276E+02  0.31002481151E+03  0.33876303116E+03  0.12509000000E+03 0.  0.
         25    1    3    3    0    0  0.96576872385E+02 -0.14034096610E+02  0.25256001460E+03  0.29825847385E+03  0.12509000000E+03 0.  0.
<mgrwt>
<rscale>  2 0.45717923E+03</rscale>
<asrwt>0</asrwt>
<pdfrwt beam="1">  1       21 0.17020538E+00 0.45717923E+03</pdfrwt>
<pdfrwt beam="2">  1       21 0.66392938E-02 0.45717923E+03</pdfrwt>
<totfact> 0.31536660E+04</totfact>
</mgrwt>
</event>
<event>
 7    0  0.4759581E-002  0.4604888E+03  0.7546771E-02  0.1024640E+00
         21   -1    0    0  502  501  0.00000000000E+00  0.00000000000E+00  0.18131839943E+03  0.18131839943E+03  0.00000000000E+00 0. -1.
         21   -1    0    0  501  502 -0.00000000000E+00 -0.00000000000E+00 -0.29237231523E+03  0.29237231523E+03  0.00000000000E+00 0. -1.
      99926    2    1    2    0    0  0.14210854715E-13  0.26645352591E-14 -0.11105391580E+03  0.47369071466E+03  0.46048878481E+03 0.  0.
      99925    2    3    3    0    0 -0.10477486535E+03 -0.56986546330E+01 -0.13583017203E+02  0.28353727333E+03  0.26305634365E+03 0.  0.
         25    1    4    4    0    0 -0.86394704010E+02  0.21042048845E+02 -0.15824169906E+02  0.15428779976E+03  0.12509000000E+03 0.  0.
         25    1    4    4    0    0 -0.18380161344E+02 -0.26740703478E+02  0.22411527028E+01  0.12924947357E+03  0.12509000000E+03 0.  0.
         25    1    3    3    0    0  0.10477486535E+03  0.56986546330E+01 -0.97470898598E+02  0.19015344133E+03  0.12509000000E+03 0.  0.
<mgrwt>
<rscale>  2 0.46048878E+03</rscale>
<asrwt>0</asrwt>
<pdfrwt beam="1">  1       21 0.26664471E-01 0.46048878E+03</pdfrwt>
<pdfrwt beam="2">  1       21 0.42995928E-01 0.46048878E+03</pdfrwt>
<totfact> 0.64315842E+04</totfact>
</mgrwt>
</event>
<event>
 7    0  0.4759581E-002  0.4448124E+03  0.7546771E-02  0.1029280E+00
         21   -1    0    0  502  501  0.00000000000E+00  0.00000000000E+00  0.39873233573E+03  0.39873233573E+03  0.00000000000E+00 0.  1.
         21   -1    0    0  501  502 -0.00000000000E+00 -0.00000000000E+00 -0.12405442172E+03  0.12405442172E+03  0.00000000000E+00 0.  1.
      99926    2    1    2    0    0 -0.14210854715E-13  0.35527136788E-14  0.27467791401E+03  0.52278675745E+03  0.44481236192E+03 0.  0.
      99925    2    3    3    0    0 -0.10327426526E+03  0.46005971189E+01  0.18313477725E+03  0.33646876759E+03  0.26265213794E+03 0.  0.
         25    1    4    4    0    0 -0.73729397761E+02  0.35384319099E+02  0.85805809039E+02  0.17233171240E+03  0.12509000000E+03 0.  0.
         25    1    4    4    0    0 -0.29544867497E+02 -0.30783721980E+02  0.97328968207E+02  0.16413705519E+03  0.12509000000E+03 0.  0.
         25    1    3    3    0    0  0.10327426526E+03 -0.46005971189E+01  0.91543136764E+02  0.18631798986E+03  0.12509000000E+03 0.  0.
<mgrwt>
<rscale>  2 0.44481236E+03</rscale>
<asrwt>0</asrwt>
<pdfrwt beam="1">  1       21 0.58637108E-01 0.44481236E+03</pdfrwt>
<pdfrwt beam="2">  1       21 0.18243297E-01 0.44481236E+03</pdfrwt>
<totfact> 0.69109212E+04</totfact>
</mgrwt>
</event>
<event>
 7    0  0.4759581E-002  0.4752434E+03  0.7546771E-02  0.1020451E+00
         21   -1    0    0  502  501  0.00000000000E+00  0.00000000000E+00  0.24914685201E+03  0.24914685201E+03  0.00000000000E+00 0. -1.
         21   -1    0    0  501  502 -0.00000000000E+00 -0.00000000000E+00 -0.22662969296E+03  0.22662969296E+03  0.00000000000E+00 0. -1.
      99926    2    1    2    0    0  0.00000000000E+00  0.00000000000E+00  0.22517159046E+02  0.47577654497E+03  0.47524340952E+03 0.  0.
      99925    2    3    3    0    0 -0.86671424692E+02  0.95112927683E+02  0.39554817349E+02  0.29550953531E+03  0.26306443510E+03 0.  0.
         25    1    4    4    0    0 -0.15388921696E+01  0.47395453992E+02  0.10248648070E+02  0.13416870028E+03  0.12509000000E+03 0.  0.
         25    1    3    3    0    0  0.86671424692E+02 -0.95112927683E+02 -0.17037658304E+02  0.18026700966E+03  0.12509000000E+03 0.  0.
         25    1    4    4    0    0 -0.85132532522E+02  0.47717473691E+02  0.29306169280E+02  0.16134083503E+03  0.12509000000E+03 0.  0.
<mgrwt>
<rscale>  2 0.47524341E+03</rscale>
<asrwt>0</asrwt>
<pdfrwt beam="1">  1       21 0.36639243E-01 0.47524341E+03</pdfrwt>
<pdfrwt beam="2">  1       21 0.33327896E-01 0.47524341E+03</pdfrwt>
<totfact> 0.57231889E+04</totfact>
</mgrwt>
</event>
<event>
 7    0  0.4759581E-002  0.4554931E+03  0.7546771E-02  0.1026096E+00
         21   -1    0    0  502  501  0.00000000000E+00  0.00000000000E+00  0.83499028049E+03  0.83499028049E+03  0.00000000000E+00 0.  1.
         21   -1    0    0  501  502 -0.00000000000E+00 -0.00000000000E+00 -0.62118684652E+02  0.62118684652E+02  0.00000000000E+00 0.  1.
      99926    2    1    2    0    0  0.00000000000E+00  0.00000000000E+00  0.77287159584E+03  0.89710896514E+03  0.45549313023E+03 0.  0.
      99925    2    3    3    0    0 -0.49012152900E+02  0.52856309262E+02  0.65860053901E+03  0.71298573714E+03  0.26343502202E+03 0.  0.
         25    1    4    4    0    0 -0.18327828605E+02  0.32511682103E+02  0.22417298401E+03  0.25941078165E+03  0.12509000000E+03 0.  0.
         25    1    4    4    0    0 -0.30684324295E+02  0.20344627159E+02  0.43442755499E+03  0.45357495549E+03  0.12509000000E+03 0.  0.
         25    1    3    3    0    0  0.49012152900E+02 -0.52856309262E+02  0.11427105683E+03  0.18412322800E+03  0.12509000000E+03 0.  0.
<mgrwt>
<rscale>  2 0.45549313E+03</rscale>
<asrwt>0</asrwt>
<pdfrwt beam="1">  1       21 0.12279268E+00 0.45549313E+03</pdfrwt>
<pdfrwt beam="2">  1       21 0.91351012E-02 0.45549313E+03</pdfrwt>
<totfact> 0.43191908E+04</totfact>
</mgrwt>
</event>
<event>
 7    0  0.4759581E-002  0.4576565E+03  0.7546771E-02  0.1025463E+00
         21   -1    0    0  502  501  0.00000000000E+00  0.00000000000E+00  0.16406153810E+03  0.16406153810E+03  0.00000000000E+00 0.  1.
         21   -1    0    0  501  502 -0.00000000000E+00 -0.00000000000E+00 -0.31916292477E+03  0.31916292477E+03  0.00000000000E+00 0.  1.
      99926    2    1    2    0    0 -0.35527136788E-14  0.00000000000E+00 -0.15510138668E+03  0.48322446287E+03  0.45765646654E+03 0.  0.
      99925    2    3    3    0    0 -0.18917181003E+02 -0.68800860682E+02 -0.19290806605E+03  0.33433433132E+03  0.26358016804E+03 0.  0.
         25    1    4    4    0    0  0.13659670903E+02 -0.69602012494E+02 -0.10088294844E+03  0.17565848723E+03  0.12509000000E+03 0.  0.
         25    1    4    4    0    0 -0.32576851906E+02  0.80115181174E+00 -0.92025117613E+02  0.15867584408E+03  0.12509000000E+03 0.  0.
         25    1    3    3    0    0  0.18917181003E+02  0.68800860682E+02  0.37806679373E+02  0.14889013155E+03  0.12509000000E+03 0.  0.
<mgrwt>
<rscale>  2 0.45765647E+03</rscale>
<asrwt>0</asrwt>
<pdfrwt beam="1">  1       21 0.24126697E-01 0.45765647E+03</pdfrwt>
<pdfrwt beam="2">  1       21 0.46935724E-01 0.45765647E+03</pdfrwt>
<totfact> 0.65082884E+04</totfact>
</mgrwt>
</event>
<event>
 7    0  0.4759581E-002  0.4513662E+03  0.7546771E-02  0.1027315E+00
         21   -1    0    0  502  501  0.00000000000E+00  0.00000000000E+00  0.57501659752E+02  0.57501659752E+02  0.00000000000E+00 0. -1.
         21   -1    0    0  501  502 -0.00000000000E+00 -0.00000000000E+00 -0.88576317262E+03  0.88576317262E+03  0.00000000000E+00 0. -1.
      99926    2    1    2    0    0  0.00000000000E+00  0.71054273576E-14 -0.82826151287E+03  0.94326483238E+03  0.45136615989E+03 0.  0.
      99925    2    3    3    0    0 -0.64140124315E+02  0.58108093566E+02 -0.38151833000E+03  0.47133529778E+03  0.26288822857E+03 0.  0.
         25    1    4    4    0    0 -0.10973722151E+02  0.22239356285E+02 -0.24050992788E+03  0.27222701015E+03  0.12509000000E+03 0.  0.
         25    1    4    4    0    0 -0.53166402164E+02  0.35868737281E+02 -0.14100840212E+03  0.19910828763E+03  0.12509000000E+03 0.  0.
         25    1    3    3    0    0  0.64140124315E+02 -0.58108093566E+02 -0.44674318287E+03  0.47192953460E+03  0.12509000000E+03 0.  0.
<mgrwt>
<rscale>  2 0.45136616E+03</rscale>
<asrwt>0</asrwt>
<pdfrwt beam="1">  1       21 0.84561274E-02 0.45136616E+03</pdfrwt>
<pdfrwt beam="2">  1       21 0.13025928E+00 0.45136616E+03</pdfrwt>
<totfact> 0.42612874E+04</totfact>
</mgrwt>
</event>
<event>
 7    0  0.4759581E-002  0.4618687E+03  0.7546771E-02  0.1024241E+00
         21   -1    0    0  502  501  0.00000000000E+00  0.00000000000E+00  0.82397431648E+03  0.82397431648E+03  0.00000000000E+00 0.  1.
         21   -1    0    0  501  502 -0.00000000000E+00 -0.00000000000E+00 -0.64723719495E+02  0.64723719495E+02  0.00000000000E+00 0.  1.
      99926    2    1    2    0    0  0.00000000000E+00  0.00000000000E+00  0.75925059699E+03  0.88869803598E+03  0.46186873690E+03 0.  0.
      99925    2    3    3    0    0  0.65955851374E+02  0.88201110987E+02  0.38587947740E+03  0.47981772176E+03  0.26304460597E+03 0.  0.
         25    1    4    4    0    0  0.53991104442E+02  0.54686947731E+02  0.14656287921E+03  0.20744610692E+03  0.12509000000E+03 0.  0.
         25    1    4    4    0    0  0.11964746933E+02  0.33514163255E+02  0.23931659819E+03  0.27237161485E+03  0.12509000000E+03 0.  0.
         25    1    3    3    0    0 -0.65955851374E+02 -0.88201110987E+02  0.37337111959E+03  0.40888031421E+03  0.12509000000E+03 0.  0.
<mgrwt>
<rscale>  2 0.46186874E+03</rscale>
<asrwt>0</asrwt>
<pdfrwt beam="1">  1       21 0.12117269E+00 0.46186874E+03</pdfrwt>
<pdfrwt beam="2">  1       21 0.95181945E-02 0.46186874E+03</pdfrwt>
<totfact> 0.41451005E+04</totfact>
</mgrwt>
</event>
<event>
 7    0  0.4759581E-002  0.4523619E+03  0.7546771E-02  0.1027020E+00
         21   -1    0    0  502  501  0.00000000000E+00  0.00000000000E+00  0.24869694334E+03  0.24869694334E+03  0.00000000000E+00 0. -1.
         21   -1    0    0  501  502 -0.00000000000E+00 -0.00000000000E+00 -0.20570346315E+03  0.20570346315E+03  0.00000000000E+00 0. -1.
      99926    2    1    2    0    0 -0.44408920985E-14  0.00000000000E+00  0.42993480192E+02  0.45440040650E+03  0.45236190167E+03 0.  0.
      99925    2    3    3    0    0  0.13835169944E+01 -0.30062787317E+02  0.13413483590E+03  0.29673005380E+03  0.26296555919E+03 0.  0.
         25    1    4    4    0    0 -0.33948139983E+02  0.12686214096E+01  0.51049657374E+02  0.13931138226E+03  0.12509000000E+03 0.  0.
         25    1    3    3    0    0 -0.13835169944E+01  0.30062787317E+02 -0.91141355710E+02  0.15767035270E+03  0.12509000000E+03 0.  0.
         25    1    4    4    0    0  0.35331656977E+02 -0.31331408727E+02  0.83085178528E+02  0.15741867154E+03  0.12509000000E+03 0.  0.
<mgrwt>
<rscale>  2 0.45236190E+03</rscale>
<asrwt>0</asrwt>
<pdfrwt beam="1">  1       21 0.36573080E-01 0.45236190E+03</pdfrwt>
<pdfrwt beam="2">  1       21 0.30250509E-01 0.45236190E+03</pdfrwt>
<totfact> 0.70052667E+04</totfact>
</mgrwt>
</event>
<event>
 7    0  0.4759581E-002  0.4284773E+03  0.7546771E-02  0.1034342E+00
         21   -1    0    0  502  501  0.00000000000E+00  0.00000000000E+00  0.47834947447E+02  0.47834947447E+02  0.00000000000E+00 0. -1.
         21   -1    0    0  501  502 -0.00000000000E+00 -0.00000000000E+00 -0.95951180380E+03  0.95951180380E+03  0.00000000000E+00 0. -1.
      99926    2    1    2    0    0 -0.17763568394E-14  0.00000000000E+00 -0.91167685635E+03  0.10073467512E+04  0.42847728859E+03 0.  0.
      99925    2    3    3    0    0  0.42626391646E+01 -0.37062717335E+01 -0.79029506409E+03  0.83295364893E+03  0.26308475136E+03 0.  0.
         25    1    4    4    0    0  0.13029880531E+02  0.37340861599E+02 -0.39072813781E+03  0.41216514106E+03  0.12509000000E+03 0.  0.
         25    1    3    3    0    0 -0.42626391646E+01  0.37062717335E+01 -0.12138179227E+03  0.17439310232E+03  0.12509000000E+03 0.  0.
         25    1    4    4    0    0 -0.87672413663E+01 -0.41047133333E+02 -0.39956692628E+03  0.42078850787E+03  0.12509000000E+03 0.  0.
<mgrwt>
<rscale>  2 0.42847729E+03</rscale>
<asrwt>0</asrwt>
<pdfrwt beam="1">  1       21 0.70345516E-02 0.42847729E+03</pdfrwt>
<pdfrwt beam="2">  1       21 0.14110467E+00 0.42847729E+03</pdfrwt>
<totfact> 0.48098304E+04</totfact>
</mgrwt>
</event>
<event>
 7    0  0.4759581E-002  0.4518345E+03  0.7546771E-02  0.1027176E+00
         21   -1    0    0  502  501  0.00000000000E+00  0.00000000000E+00  0.22980038093E+03  0.22980038093E+03  0.00000000000E+00 0. -1.
         21   -1    0    0  501  502 -0.00000000000E+00 -0.00000000000E+00 -0.22209975061E+03  0.22209975061E+03  0.00000000000E+00 0. -1.
      99926    2    1    2    0    0  0.00000000000E+00  0.00000000000E+00  0.77006303228E+01  0.45190013154E+03  0.45183451526E+03 0.  0.
      99925    2    3    3    0    0 -0.69843593529E+02 -0.71881396940E+02  0.50323039013E+02  0.28604103289E+03  0.26313874944E+03 0.  0.
         25    1    4    4    0    0 -0.75495955298E+01 -0.62127747759E+02  0.98037970234E+01  0.14021581926E+03  0.12509000000E+03 0.  0.
         25    1    4    4    0    0 -0.62293998000E+02 -0.97536491802E+01  0.40519241990E+02  0.14582521363E+03  0.12509000000E+03 0.  0.
         25    1    3    3    0    0  0.69843593529E+02  0.71881396940E+02 -0.42622408690E+02  0.16585909865E+03  0.12509000000E+03 0.  0.
<mgrwt>
<rscale>  2 0.45183452E+03</rscale>
<asrwt>0</asrwt>
<pdfrwt beam="1">  1       21 0.33794174E-01 0.45183452E+03</pdfrwt>
<pdfrwt beam="2">  1       21 0.32661728E-01 0.45183452E+03</pdfrwt>
<totfact> 0.70538326E+04</totfact>
</mgrwt>
</event>
<event>
 7    0  0.4759581E-002  0.4551479E+03  0.7546771E-02  0.1026198E+00
         21   -1    0    0  502  501  0.00000000000E+00  0.00000000000E+00  0.31861004418E+03  0.31861004418E+03  0.00000000000E+00 0.  1.
         21   -1    0    0  501  502 -0.00000000000E+00 -0.00000000000E+00 -0.16254951840E+03  0.16254951840E+03  0.00000000000E+00 0.  1.
      99926    2    1    2    0    0  0.71054273576E-14  0.14210854715E-13  0.15606052578E+03  0.48115956258E+03  0.45514792865E+03 0.  0.
      99925    2    3    3    0    0  0.47240028274E+02  0.83649240079E+02  0.16181591993E+03  0.32333228896E+03  0.26292691285E+03 0.  0.
         25    1    4    4    0    0  0.14589997380E+02  0.80597134139E+02  0.10094322313E+03  0.18040456882E+03  0.12509000000E+03 0.  0.
         25    1    4    4    0    0  0.32650030894E+02  0.30521059407E+01  0.60872696808E+02  0.14292772014E+03  0.12509000000E+03 0.  0.
         25    1    3    3    0    0 -0.47240028274E+02 -0.83649240079E+02 -0.57553941509E+01  0.15782727362E+03  0.12509000000E+03 0.  0.
<mgrwt>
<rscale>  2 0.45514793E+03</rscale>
<asrwt>0</asrwt>
<pdfrwt beam="1">  1       21 0.46854418E-01 0.45514793E+03</pdfrwt>
<pdfrwt beam="2">  1       21 0.23904341E-01 0.45514793E+03</pdfrwt>
<totfact> 0.66537625E+04</totfact>
</mgrwt>
</event>
<event>
 7    0  0.4759581E-002  0.4563775E+03  0.7546771E-02  0.1025837E+00
         21   -1    0    0  502  501  0.00000000000E+00  0.00000000000E+00  0.18424089915E+03  0.18424089915E+03  0.00000000000E+00 0. -1.
         21   -1    0    0  501  502 -0.00000000000E+00 -0.00000000000E+00 -0.28261970180E+03  0.28261970180E+03  0.00000000000E+00 0. -1.
      99926    2    1    2    0    0  0.00000000000E+00  0.00000000000E+00 -0.98378802648E+02  0.46686060095E+03  0.45637751030E+03 0.  0.
      99925    2    3    3    0    0 -0.52177010169E+02 -0.39773639800E+02 -0.15781886147E+03  0.31361239866E+03  0.26294782893E+03 0.  0.
         25    1    3    3    0    0  0.52177010169E+02  0.39773639800E+02  0.59440058827E+02  0.15324820229E+03  0.12509000000E+03 0.  0.
         25    1    4    4    0    0  0.11984785860E+02 -0.27812581949E+02 -0.60520395953E+02  0.14222306857E+03  0.12509000000E+03 0.  0.
         25    1    4    4    0    0 -0.64161796029E+02 -0.11961057851E+02 -0.97298465521E+02  0.17138933009E+03  0.12509000000E+03 0.  0.
<mgrwt>
<rscale>  2 0.45637751E+03</rscale>
<asrwt>0</asrwt>
<pdfrwt beam="1">  1       21 0.27094250E-01 0.45637751E+03</pdfrwt>
<pdfrwt beam="2">  1       21 0.41561721E-01 0.45637751E+03</pdfrwt>
<totfact> 0.66936103E+04</totfact>
</mgrwt>
</event>
<event>
 7    0  0.4759581E-002  0.4367316E+03  0.7546771E-02  0.1031754E+00
         21   -1    0    0  502  501  0.00000000000E+00  0.00000000000E+00  0.16489726330E+03  0.16489726330E+03  0.00000000000E+00 0.  1.
         21   -1    0    0  501  502 -0.00000000000E+00 -0.00000000000E+00 -0.28917173363E+03  0.28917173363E+03  0.00000000000E+00 0.  1.
      99926    2    1    2    0    0  0.00000000000E+00  0.17763568394E-14 -0.12427447034E+03  0.45406899693E+03  0.43673162239E+03 0.  0.
      99925    2    3    3    0    0  0.58604098150E+02  0.11526062075E+02 -0.15631526942E+03  0.31179668292E+03  0.26308823159E+03 0.  0.
         25    1    3    3    0    0 -0.58604098150E+02 -0.11526062075E+02  0.32040799085E+02  0.14227231401E+03  0.12509000000E+03 0.  0.
         25    1    4    4    0    0  0.56156630837E+02  0.35144155015E+02 -0.95039789705E+02  0.17049559685E+03  0.12509000000E+03 0.  0.
         25    1    4    4    0    0  0.24474673131E+01 -0.23618092940E+02 -0.61275479717E+02  0.14130108607E+03  0.12509000000E+03 0.  0.
<mgrwt>
<rscale>  2 0.43673162E+03</rscale>
<asrwt>0</asrwt>
<pdfrwt beam="1">  1       21 0.24249598E-01 0.43673162E+03</pdfrwt>
<pdfrwt beam="2">  1       21 0.42525255E-01 0.43673162E+03</pdfrwt>
<totfact> 0.79558355E+04</totfact>
</mgrwt>
</event>
<event>
 7    0  0.4759581E-002  0.4573804E+03  0.7546771E-02  0.1025544E+00
         21   -1    0    0  502  501  0.00000000000E+00  0.00000000000E+00  0.42847879359E+02  0.42847879359E+02  0.00000000000E+00 0.  1.
         21   -1    0    0  501  502 -0.00000000000E+00 -0.00000000000E+00 -0.12205786656E+04  0.12205786656E+04  0.00000000000E+00 0.  1.
      99926    2    1    2    0    0  0.00000000000E+00  0.00000000000E+00 -0.11777307862E+04  0.12634265450E+04  0.45738039928E+03 0.  0.
      99925    2    3    3    0    0  0.54209741818E+02  0.77982905031E+02 -0.55824691131E+03  0.62434297532E+03  0.26295343173E+03 0.  0.
         25    1    3    3    0    0 -0.54209741818E+02 -0.77982905031E+02 -0.61948387493E+03  0.63908356964E+03  0.12509000000E+03 0.  0.
         25    1    4    4    0    0  0.24202601516E+02  0.64662946636E+02 -0.36343319441E+03  0.39051025273E+03  0.12509000000E+03 0.  0.
         25    1    4    4    0    0  0.30007140302E+02  0.13319958396E+02 -0.19481371691E+03  0.23383272259E+03  0.12509000000E+03 0.  0.
<mgrwt>
<rscale>  2 0.45738040E+03</rscale>
<asrwt>0</asrwt>
<pdfrwt beam="1">  1       21 0.63011601E-02 0.45738040E+03</pdfrwt>
<pdfrwt beam="2">  1       21 0.17949682E+00 0.45738040E+03</pdfrwt>
<totfact> 0.29642608E+04</totfact>
</mgrwt>
</event>
<event>
 7    0  0.4759581E-002  0.4538162E+03  0.7546771E-02  0.1026590E+00
         21   -1    0    0  502  501  0.00000000000E+00  0.00000000000E+00  0.27695025255E+03  0.27695025255E+03  0.00000000000E+00 0.  1.
         21   -1    0    0  501  502 -0.00000000000E+00 -0.00000000000E+00 -0.18590803879E+03  0.18590803879E+03  0.00000000000E+00 0.  1.
      99926    2    1    2    0    0  0.00000000000E+00 -0.71054273576E-14  0.91042213756E+02  0.46285829134E+03  0.45381616672E+03 0.  0.
      99925    2    3    3    0    0  0.20998609872E+02  0.59968466539E+02 -0.36560223607E+02  0.27320848587E+03  0.26319017498E+03 0.  0.
         25    1    4    4    0    0  0.36563363537E+02 -0.18510008708E+01 -0.19111078044E+02  0.13173096508E+03  0.12509000000E+03 0.  0.
         25    1    3    3    0    0 -0.20998609872E+02 -0.59968466539E+02  0.12760243736E+03  0.18964980547E+03  0.12509000000E+03 0.  0.
         25    1    4    4    0    0 -0.15564753665E+02  0.61819467409E+02 -0.17449145564E+02  0.14147752079E+03  0.12509000000E+03 0.  0.
<mgrwt>
<rscale>  2 0.45381617E+03</rscale>
<asrwt>0</asrwt>
<pdfrwt beam="1">  1       21 0.40727978E-01 0.45381617E+03</pdfrwt>
<pdfrwt beam="2">  1       21 0.27339417E-01 0.45381617E+03</pdfrwt>
<totfact> 0.68612933E+04</totfact>
</mgrwt>
</event>
<event>
 7    0  0.4759581E-002  0.4554808E+03  0.7546771E-02  0.1026100E+00
         21   -1    0    0  502  501  0.00000000000E+00  0.00000000000E+00  0.80499034417E+02  0.80499034417E+02  0.00000000000E+00 0. -1.
         21   -1    0    0  501  502 -0.00000000000E+00 -0.00000000000E+00 -0.64430211550E+03  0.64430211550E+03  0.00000000000E+00 0. -1.
      99926    2    1    2    0    0  0.00000000000E+00  0.00000000000E+00 -0.56380308109E+03  0.72480114992E+03  0.45548083679E+03 0.  0.
      99925    2    3    3    0    0 -0.91221320222E+02 -0.67703851937E+02 -0.36307483534E+03  0.46241883807E+03  0.26287393351E+03 0.  0.
         25    1    3    3    0    0  0.91221320222E+02  0.67703851937E+02 -0.20072824575E+03  0.26238231185E+03  0.12509000000E+03 0.  0.
         25    1    4    4    0    0 -0.42796742825E+02 -0.47140469162E+02 -0.12292340129E+03  0.18657828307E+03  0.12509000000E+03 0.  0.
         25    1    4    4    0    0 -0.48424577397E+02 -0.20563382775E+02 -0.24015143404E+03  0.27584055500E+03  0.12509000000E+03 0.  0.
<mgrwt>
<rscale>  2 0.45548084E+03</rscale>
<asrwt>0</asrwt>
<pdfrwt beam="1">  1       21 0.11838093E-01 0.45548084E+03</pdfrwt>
<pdfrwt beam="2">  1       21 0.94750310E-01 0.45548084E+03</pdfrwt>
<totfact> 0.51382476E+04</totfact>
</mgrwt>
</event>
<event>
 7    0  0.4759581E-002  0.4532097E+03  0.7546771E-02  0.1026769E+00
         21   -1    0    0  502  501  0.00000000000E+00  0.00000000000E+00  0.64387784169E+02  0.64387784169E+02  0.00000000000E+00 0. -1.
         21   -1    0    0  501  502 -0.00000000000E+00 -0.00000000000E+00 -0.79750783222E+03  0.79750783222E+03  0.00000000000E+00 0. -1.
      99926    2    1    2    0    0  0.00000000000E+00  0.00000000000E+00 -0.73312004806E+03  0.86189561639E+03  0.45320971823E+03 0.  0.
      99925    2    3    3    0    0  0.68341968244E+02 -0.37346625477E+02 -0.61380547694E+03  0.67229374394E+03  0.26297589159E+03 0.  0.
         25    1    3    3    0    0 -0.68341968244E+02  0.37346625477E+02 -0.11931457112E+03  0.18960187246E+03  0.12509000000E+03 0.  0.
         25    1    4    4    0    0  0.60386954423E+02 -0.31650158286E+02 -0.39714338470E+03  0.42192261482E+03  0.12509000000E+03 0.  0.
         25    1    4    4    0    0  0.79550138208E+01 -0.56964671911E+01 -0.21666209224E+03  0.25037112912E+03  0.12509000000E+03 0.  0.
<mgrwt>
<rscale>  2 0.45320972E+03</rscale>
<asrwt>0</asrwt>
<pdfrwt beam="1">  1       21 0.94687926E-02 0.45320972E+03</pdfrwt>
<pdfrwt beam="2">  1       21 0.11728055E+00 0.45320972E+03</pdfrwt>
<totfact> 0.45548011E+04</totfact>
</mgrwt>
</event>
<event>
 7    0  0.4759581E-002  0.4106146E+03  0.7546771E-02  0.1040165E+00
         21   -1    0    0  502  501  0.00000000000E+00  0.00000000000E+00  0.26718389625E+03  0.26718389625E+03  0.00000000000E+00 0. -1.
         21   -1    0    0  501  502 -0.00000000000E+00 -0.00000000000E+00 -0.15776057075E+03  0.15776057075E+03  0.00000000000E+00 0. -1.
      99926    2    1    2    0    0  0.00000000000E+00  0.00000000000E+00  0.10942332550E+03  0.42494446701E+03  0.41061458313E+03 0.  0.
      99925    2    3    3    0    0 -0.11753592790E+01  0.52035719544E+02  0.10836781890E+03  0.28945380396E+03  0.26330746833E+03 0.  0.
         25    1    3    3    0    0  0.11753592790E+01 -0.52035719544E+02  0.10555065997E+01  0.13549066304E+03  0.12509000000E+03 0.  0.
         25    1    4    4    0    0 -0.23372546143E+01  0.17588108666E+02  0.10205306351E+02  0.12675354316E+03  0.12509000000E+03 0.  0.
         25    1    4    4    0    0  0.11618953352E+01  0.34447610878E+02  0.98162512549E+02  0.16270026080E+03  0.12509000000E+03 0.  0.
<mgrwt>
<rscale>  2 0.41061458E+03</rscale>
<asrwt>0</asrwt>
<pdfrwt beam="1">  1       21 0.39291749E-01 0.41061458E+03</pdfrwt>
<pdfrwt beam="2">  1       21 0.23200084E-01 0.41061458E+03</pdfrwt>
<totfact> 0.10256330E+05</totfact>
</mgrwt>
</event>
<event>
 7    0  0.4759581E-002  0.4718317E+03  0.7546771E-02  0.1021405E+00
         21   -1    0    0  502  501  0.00000000000E+00  0.00000000000E+00  0.48046790834E+03  0.48046790834E+03  0.00000000000E+00 0.  1.
         21   -1    0    0  501  502 -0.00000000000E+00 -0.00000000000E+00 -0.11583766100E+03  0.11583766100E+03  0.00000000000E+00 0.  1.
      99926    2    1    2    0    0  0.00000000000E+00  0.00000000000E+00  0.36463024734E+03  0.59630556934E+03  0.47183165933E+03 0.  0.
      99925    2    3    3    0    0  0.10600309526E+03  0.69926152497E+02  0.24817697847E+03  0.38338493873E+03  0.26318410969E+03 0.  0.
         25    1    3    3    0    0 -0.10600309526E+03 -0.69926152497E+02  0.11645326887E+03  0.21292063061E+03  0.12509000000E+03 0.  0.
         25    1    4    4    0    0  0.52449816861E+02  0.74282307033E+02  0.11301251312E+03  0.19154158987E+03  0.12509000000E+03 0.  0.
         25    1    4    4    0    0  0.53553278400E+02 -0.43561545357E+01  0.13516446535E+03  0.19184334886E+03  0.12509000000E+03 0.  0.
<mgrwt>
<rscale>  2 0.47183166E+03</rscale>
<asrwt>0</asrwt>
<pdfrwt beam="1">  1       21 0.70657045E-01 0.47183166E+03</pdfrwt>
<pdfrwt beam="2">  1       21 0.17034950E-01 0.47183166E+03</pdfrwt>
<totfact> 0.51681048E+04</totfact>
</mgrwt>
</event>
<event>
 7    0  0.4759581E-002  0.4545600E+03  0.7546771E-02  0.1026371E+00
         21   -1    0    0  502  501  0.00000000000E+00  0.00000000000E+00  0.45612587172E+02  0.45612587172E+02  0.00000000000E+00 0.  1.
         21   -1    0    0  501  502 -0.00000000000E+00 -0.00000000000E+00 -0.11324989688E+04  0.11324989688E+04  0.00000000000E+00 0.  1.
      99926    2    1    2    0    0  0.00000000000E+00  0.00000000000E+00 -0.10868863816E+04  0.11781115560E+04  0.45456004196E+03 0.  0.
      99925    2    3    3    0    0 -0.16559790079E+02  0.89331885547E+02 -0.85766149281E+03  0.90162291212E+03  0.26284258976E+03 0.  0.
         25    1    4    4    0    0 -0.23474607523E+02  0.23182359172E+02 -0.51118594479E+03  0.52730167573E+03  0.12509000000E+03 0.  0.
         25    1    4    4    0    0  0.69148174445E+01  0.66149526375E+02 -0.34647554802E+03  0.37432123640E+03  0.12509000000E+03 0.  0.
         25    1    3    3    0    0  0.16559790079E+02 -0.89331885547E+02 -0.22922488880E+03  0.27648864383E+03  0.12509000000E+03 0.  0.
<mgrwt>
<rscale>  2 0.45456004E+03</rscale>
<asrwt>0</asrwt>
<pdfrwt beam="1">  1       21 0.67077342E-02 0.45456004E+03</pdfrwt>
<pdfrwt beam="2">  1       21 0.16654395E+00 0.45456004E+03</pdfrwt>
<totfact> 0.32970396E+04</totfact>
</mgrwt>
</event>
<event>
 7    0  0.4759581E-002  0.4527200E+03  0.7546771E-02  0.1026914E+00
         21   -1    0    0  502  501  0.00000000000E+00  0.00000000000E+00  0.99126754283E+03  0.99126754283E+03  0.00000000000E+00 0. -1.
         21   -1    0    0  501  502 -0.00000000000E+00 -0.00000000000E+00 -0.51690223004E+02  0.51690223004E+02  0.00000000000E+00 0. -1.
      99926    2    1    2    0    0 -0.14210854715E-13  0.00000000000E+00  0.93957731982E+03  0.10429577658E+04  0.45271995911E+03 0.  0.
      99925    2    3    3    0    0 -0.83801933169E+02 -0.56665745898E+02  0.48710484766E+03  0.56273634093E+03  0.26299674149E+03 0.  0.
         25    1    4    4    0    0 -0.37679546953E+02 -0.22162792326E+02  0.15948830277E+03  0.20735227137E+03  0.12509000000E+03 0.  0.
         25    1    3    3    0    0  0.83801933169E+02  0.56665745898E+02  0.45247247217E+03  0.48022142490E+03  0.12509000000E+03 0.  0.
         25    1    4    4    0    0 -0.46122386216E+02 -0.34502953572E+02  0.32761654489E+03  0.35538406956E+03  0.12509000000E+03 0.  0.
<mgrwt>
<rscale>  2 0.45271996E+03</rscale>
<asrwt>0</asrwt>
<pdfrwt beam="1">  1       21 0.14577463E+00 0.45271996E+03</pdfrwt>
<pdfrwt beam="2">  1       21 0.76015040E-02 0.45271996E+03</pdfrwt>
<totfact> 0.38212430E+04</totfact>
</mgrwt>
</event>
<event>
 7    0  0.4759581E-002  0.4406155E+03  0.7546771E-02  0.1030558E+00
         21   -1    0    0  502  501  0.00000000000E+00  0.00000000000E+00  0.17117340747E+03  0.17117340747E+03  0.00000000000E+00 0.  1.
         21   -1    0    0  501  502 -0.00000000000E+00 -0.00000000000E+00 -0.28354582436E+03  0.28354582436E+03  0.00000000000E+00 0.  1.
      99926    2    1    2    0    0  0.00000000000E+00  0.14210854715E-13 -0.11237241689E+03  0.45471923183E+03  0.44061550099E+03 0.  0.
      99925    2    3    3    0    0 -0.21154106316E+02  0.76784082065E+02 -0.13053627479E+03  0.30531800925E+03  0.26426516279E+03 0.  0.
         25    1    4    4    0    0 -0.11196958229E+02 -0.43925760945E+01 -0.71836833610E+02  0.14475049348E+03  0.12509000000E+03 0.  0.
         25    1    4    4    0    0 -0.99571480862E+01  0.81176658159E+02 -0.58699441181E+02  0.16056751578E+03  0.12509000000E+03 0.  0.
         25    1    3    3    0    0  0.21154106316E+02 -0.76784082065E+02  0.18163857905E+02  0.14940122257E+03  0.12509000000E+03 0.  0.
<mgrwt>
<rscale>  2 0.44061550E+03</rscale>
<asrwt>0</asrwt>
<pdfrwt beam="1">  1       21 0.25172560E-01 0.44061550E+03</pdfrwt>
<pdfrwt beam="2">  1       21 0.41697915E-01 0.44061550E+03</pdfrwt>
<totfact> 0.77007902E+04</totfact>
</mgrwt>
</event>
<event>
 7    0  0.4759581E-002  0.4534555E+03  0.7546771E-02  0.1026697E+00
         21   -1    0    0  502  501  0.00000000000E+00  0.00000000000E+00  0.87068115732E+02  0.87068115732E+02  0.00000000000E+00 0.  1.
         21   -1    0    0  501  502 -0.00000000000E+00 -0.00000000000E+00 -0.59040513220E+03  0.59040513220E+03  0.00000000000E+00 0.  1.
      99926    2    1    2    0    0  0.00000000000E+00  0.00000000000E+00 -0.50333701647E+03  0.67747324793E+03  0.45345545483E+03 0.  0.
      99925    2    3    3    0    0  0.37503800804E+02  0.49864203881E+02 -0.17847542010E+03  0.32381304548E+03  0.26288483969E+03 0.  0.
         25    1    3    3    0    0 -0.37503800804E+02 -0.49864203881E+02 -0.32486159637E+03  0.35366020245E+03  0.12509000000E+03 0.  0.
         25    1    4    4    0    0  0.52387917336E+02  0.26892794790E+01 -0.91944863681E+02  0.16386913121E+03  0.12509000000E+03 0.  0.
         25    1    4    4    0    0 -0.14884116532E+02  0.47174924402E+02 -0.86530556419E+02  0.15994391427E+03  0.12509000000E+03 0.  0.
<mgrwt>
<rscale>  2 0.45345545E+03</rscale>
<asrwt>0</asrwt>
<pdfrwt beam="1">  1       21 0.12804134E-01 0.45345545E+03</pdfrwt>
<pdfrwt beam="2">  1       21 0.86824287E-01 0.45345545E+03</pdfrwt>
<totfact> 0.54807286E+04</totfact>
</mgrwt>
</event>
<event>
 7    0  0.4759581E-002  0.4523292E+03  0.7546771E-02  0.1027030E+00
         21   -1    0    0  502  501  0.00000000000E+00  0.00000000000E+00  0.26651126274E+02  0.26651126274E+02  0.00000000000E+00 0. -1.
         21   -1    0    0  501  502 -0.00000000000E+00 -0.00000000000E+00 -0.19192598218E+04  0.19192598218E+04  0.00000000000E+00 0. -1.
      99926    2    1    2    0    0  0.00000000000E+00  0.14210854715E-13 -0.18926086955E+04  0.19459109481E+04  0.45232924232E+03 0.  0.
      99925    2    3    3    0    0 -0.56357908277E+02  0.90693014871E+02 -0.13199142800E+04  0.13500688226E+04  0.26288910692E+03 0.  0.
         25    1    3    3    0    0  0.56357908277E+02 -0.90693014871E+02 -0.57269441554E+03  0.59584212545E+03  0.12509000000E+03 0.  0.
         25    1    4    4    0    0 -0.27368090820E+02  0.16164505918E+02 -0.75599489905E+03  0.76693291698E+03  0.12509000000E+03 0.  0.
         25    1    4    4    0    0 -0.28989817457E+02  0.74528508952E+02 -0.56391938093E+03  0.58313590564E+03  0.12509000000E+03 0.  0.
<mgrwt>
<rscale>  2 0.45232924E+03</rscale>
<asrwt>0</asrwt>
<pdfrwt beam="1">  1       21 0.39192813E-02 0.45232924E+03</pdfrwt>
<pdfrwt beam="2">  1       21 0.28224423E+00 0.45232924E+03</pdfrwt>
<totfact> 0.14920089E+04</totfact>
</mgrwt>
</event>
<event>
 7    0  0.4759581E-002  0.4614910E+03  0.7546771E-02  0.1024350E+00
         21   -1    0    0  502  501  0.00000000000E+00  0.00000000000E+00  0.46993239878E+03  0.46993239878E+03  0.00000000000E+00 0. -1.
         21   -1    0    0  501  502 -0.00000000000E+00 -0.00000000000E+00 -0.11330028454E+03  0.11330028454E+03  0.00000000000E+00 0. -1.
      99926    2    1    2    0    0  0.00000000000E+00  0.00000000000E+00  0.35663211424E+03  0.58323268332E+03  0.46149095115E+03 0.  0.
      99925    2    3    3    0    0  0.77571735605E+02  0.88938035137E+02  0.24404619435E+03  0.37768355121E+03  0.26298093394E+03 0.  0.
         25    1    4    4    0    0  0.18146369101E+02  0.78394700351E+02  0.13857423226E+03  0.20328636379E+03  0.12509000000E+03 0.  0.
         25    1    3    3    0    0 -0.77571735605E+02 -0.88938035137E+02  0.11258591988E+03  0.20554913212E+03  0.12509000000E+03 0.  0.
         25    1    4    4    0    0  0.59425366503E+02  0.10543334785E+02  0.10547196209E+03  0.17439718742E+03  0.12509000000E+03 0.  0.
<mgrwt>
<rscale>  2 0.46149095E+03</rscale>
<asrwt>0</asrwt>
<pdfrwt beam="1">  1       21 0.69107705E-01 0.46149095E+03</pdfrwt>
<pdfrwt beam="2">  1       21 0.16661807E-01 0.46149095E+03</pdfrwt>
<totfact> 0.56753688E+04</totfact>
</mgrwt>
</event>
<event>
 7    0  0.4759581E-002  0.4657043E+03  0.7546771E-02  0.1023140E+00
         21   -1    0    0  502  501  0.00000000000E+00  0.00000000000E+00  0.93251175020E+02  0.93251175020E+02  0.00000000000E+00 0.  1.
         21   -1    0    0  501  502 -0.00000000000E+00 -0.00000000000E+00 -0.58144169290E+03  0.58144169290E+03  0.00000000000E+00 0.  1.
      99926    2    1    2    0    0  0.57731597281E-14  0.00000000000E+00 -0.48819051788E+03  0.67469286792E+03  0.46570428844E+03 0.  0.
      99925    2    3    3    0    0 -0.25017717693E+01 -0.30393577080E+02 -0.13184802039E+03  0.29580302640E+03  0.26303136991E+03 0.  0.
         25    1    3    3    0    0  0.25017717693E+01  0.30393577080E+02 -0.35634249750E+03  0.37888984153E+03  0.12509000000E+03 0.  0.
         25    1    4    4    0    0  0.35517489036E+02 -0.12417336874E+02 -0.84605120140E+02  0.15563167009E+03  0.12509000000E+03 0.  0.
         25    1    4    4    0    0 -0.38019260805E+02 -0.17976240206E+02 -0.47242900247E+02  0.14017135630E+03  0.12509000000E+03 0.  0.
<mgrwt>
<rscale>  2 0.46570429E+03</rscale>
<asrwt>0</asrwt>
<pdfrwt beam="1">  1       21 0.13713408E-01 0.46570429E+03</pdfrwt>
<pdfrwt beam="2">  1       21 0.85506133E-01 0.46570429E+03</pdfrwt>
<totfact> 0.49949098E+04</totfact>
</mgrwt>
</event>
<event>
 7    0  0.4759581E-002  0.4581949E+03  0.7546771E-02  0.1025306E+00
         21   -1    0    0  502  501  0.00000000000E+00  0.00000000000E+00  0.40532870775E+03  0.40532870775E+03  0.00000000000E+00 0.  1.
         21   -1    0    0  501  502 -0.00000000000E+00 -0.00000000000E+00 -0.12948909196E+03  0.12948909196E+03  0.00000000000E+00 0.  1.
      99926    2    1    2    0    0  0.00000000000E+00  0.00000000000E+00  0.27583961578E+03  0.53481779971E+03  0.45819492059E+03 0.  0.
      99925    2    3    3    0    0  0.10763633586E+03  0.43203576023E+02  0.17837269130E+03  0.33835039975E+03  0.26308182422E+03 0.  0.
         25    1    4    4    0    0  0.31786462969E+02  0.42708662866E+02  0.11827347853E+03  0.18019581831E+03  0.12509000000E+03 0.  0.
         25    1    3    3    0    0 -0.10763633586E+03 -0.43203576023E+02  0.97466924486E+02  0.19646739996E+03  0.12509000000E+03 0.  0.
         25    1    4    4    0    0  0.75849872891E+02  0.49491315686E+00  0.60099212766E+02  0.15815458144E+03  0.12509000000E+03 0.  0.
<mgrwt>
<rscale>  2 0.45819492E+03</rscale>
<asrwt>0</asrwt>
<pdfrwt beam="1">  1       21 0.59607162E-01 0.45819492E+03</pdfrwt>
<pdfrwt beam="2">  1       21 0.19042514E-01 0.45819492E+03</pdfrwt>
<totfact> 0.61314224E+04</totfact>
</mgrwt>
</event>
<event>
 7    0  0.4759581E-002  0.4590357E+03  0.7546771E-02  0.1025061E+00
         21   -1    0    0  502  501  0.00000000000E+00  0.00000000000E+00  0.17059657343E+02  0.17059657343E+02  0.00000000000E+00 0.  1.
         21   -1    0    0  501  502 -0.00000000000E+00 -0.00000000000E+00 -0.30878952509E+04  0.30878952509E+04  0.00000000000E+00 0.  1.
      99926    2    1    2    0    0 -0.14210854715E-13 -0.14210854715E-13 -0.30708355936E+04  0.31049549083E+04  0.45903566263E+03 0.  0.
      99925    2    3    3    0    0 -0.85122650576E+02 -0.76426560058E+02 -0.20882990693E+04  0.21079030468E+04  0.26301210490E+03 0.  0.
         25    1    4    4    0    0 -0.72696893836E+02 -0.70258846569E+02 -0.11412158072E+04  0.11524938918E+04  0.12509000000E+03 0.  0.
         25    1    4    4    0    0 -0.12425756740E+02 -0.61677134893E+01 -0.94708326210E+03  0.95540915505E+03  0.12509000000E+03 0.  0.
         25    1    3    3    0    0  0.85122650576E+02  0.76426560058E+02 -0.98253652430E+03  0.99705186144E+03  0.12509000000E+03 0.  0.
<mgrwt>
<rscale>  2 0.45903566E+03</rscale>
<asrwt>0</asrwt>
<pdfrwt beam="1">  1       21 0.25087731E-02 0.45903566E+03</pdfrwt>
<pdfrwt beam="2">  1       21 0.45410226E+00 0.45903566E+03</pdfrwt>
<totfact> 0.26212063E+03</totfact>
</mgrwt>
</event>
<event>
 7    0  0.4759581E-002  0.4668809E+03  0.7546771E-02  0.1022804E+00
         21   -1    0    0  502  501  0.00000000000E+00  0.00000000000E+00  0.84150385474E+03  0.84150385474E+03  0.00000000000E+00 0. -1.
         21   -1    0    0  501  502 -0.00000000000E+00 -0.00000000000E+00 -0.64758405061E+02  0.64758405061E+02  0.00000000000E+00 0. -1.
      99926    2    1    2    0    0  0.14210854715E-13  0.00000000000E+00  0.77674544968E+03  0.90626225981E+03  0.46688091623E+03 0.  0.
      99925    2    3    3    0    0 -0.10174161812E+03 -0.52080131732E+02  0.39057355510E+03  0.48455153283E+03  0.26301860970E+03 0.  0.
         25    1    4    4    0    0 -0.24399848761E+02 -0.24873571375E+02  0.12778904289E+03  0.18218560523E+03  0.12509000000E+03 0.  0.
         25    1    3    3    0    0  0.10174161812E+03  0.52080131732E+02  0.38617189458E+03  0.42171072697E+03  0.12509000000E+03 0.  0.
         25    1    4    4    0    0 -0.77341769355E+02 -0.27206560358E+02  0.26278451222E+03  0.30236592760E+03  0.12509000000E+03 0.  0.
<mgrwt>
<rscale>  2 0.46688092E+03</rscale>
<asrwt>0</asrwt>
<pdfrwt beam="1">  1       21 0.12375056E+00 0.46688092E+03</pdfrwt>
<pdfrwt beam="2">  1       21 0.95232953E-02 0.46688092E+03</pdfrwt>
<totfact> 0.39189675E+04</totfact>
</mgrwt>
</event>
<event>
 7    0  0.4759581E-002  0.4548303E+03  0.7546771E-02  0.1026291E+00
         21   -1    0    0  502  501  0.00000000000E+00  0.00000000000E+00  0.18027107940E+03  0.18027107940E+03  0.00000000000E+00 0. -1.
         21   -1    0    0  501  502 -0.00000000000E+00 -0.00000000000E+00 -0.28688824397E+03  0.28688824397E+03  0.00000000000E+00 0. -1.
      99926    2    1    2    0    0  0.00000000000E+00  0.00000000000E+00 -0.10661716457E+03  0.46715932336E+03  0.45483031300E+03 0.  0.
      99925    2    3    3    0    0  0.72276052332E+02  0.80440133264E+02 -0.10166972805E+03  0.30173130878E+03  0.26269869873E+03 0.  0.
         25    1    4    4    0    0  0.56887747025E+02  0.12118775710E+02 -0.70907389316E+02  0.15510785424E+03  0.12509000000E+03 0.  0.
         25    1    3    3    0    0 -0.72276052332E+02 -0.80440133264E+02 -0.49474365149E+01  0.16542801458E+03  0.12509000000E+03 0.  0.
         25    1    4    4    0    0  0.15388305307E+02  0.68321357554E+02 -0.30762338737E+02  0.14662345455E+03  0.12509000000E+03 0.  0.
<mgrwt>
<rscale>  2 0.45483031E+03</rscale>
<asrwt>0</asrwt>
<pdfrwt beam="1">  1       21 0.26510453E-01 0.45483031E+03</pdfrwt>
<pdfrwt beam="2">  1       21 0.42189447E-01 0.45483031E+03</pdfrwt>
<totfact> 0.67738912E+04</totfact>
</mgrwt>
</event>
<event>
 7    0  0.4759581E-002  0.4525004E+03  0.7546771E-02  0.1026979E+00
         21   -1    0    0  502  501  0.00000000000E+00  0.00000000000E+00  0.45934150191E+02  0.45934150191E+02  0.00000000000E+00 0.  1.
         21   -1    0    0  501  502 -0.00000000000E+00 -0.00000000000E+00 -0.11144027846E+04  0.11144027846E+04  0.00000000000E+00 0.  1.
      99926    2    1    2    0    0  0.00000000000E+00  0.00000000000E+00 -0.10684686344E+04  0.11603369348E+04  0.45250036411E+03 0.  0.
      99925    2    3    3    0    0  0.23658631798E+02  0.10530317444E+03 -0.60930209708E+03  0.67235137506E+03  0.26298067729E+03 0.  0.
         25    1    3    3    0    0 -0.23658631798E+02 -0.10530317444E+03 -0.45916653730E+03  0.48798555970E+03  0.12509000000E+03 0.  0.
         25    1    4    4    0    0  0.23637435654E+02  0.16436556017E+02 -0.32198623324E+03  0.34662880901E+03  0.12509000000E+03 0.  0.
         25    1    4    4    0    0  0.21196144228E-01  0.88866618424E+02 -0.28731586384E+03  0.32572256605E+03  0.12509000000E+03 0.  0.
<mgrwt>
<rscale>  2 0.45250036E+03</rscale>
<asrwt>0</asrwt>
<pdfrwt beam="1">  1       21 0.67550221E-02 0.45250036E+03</pdfrwt>
<pdfrwt beam="2">  1       21 0.16388276E+00 0.45250036E+03</pdfrwt>
<totfact> 0.34098496E+04</totfact>
</mgrwt>
</event>
<event>
 7    0  0.4759581E-002  0.4536393E+03  0.7546771E-02  0.1026642E+00
         21   -1    0    0  502  501  0.00000000000E+00  0.00000000000E+00  0.56785089609E+03  0.56785089609E+03  0.00000000000E+00 0.  1.
         21   -1    0    0  501  502 -0.00000000000E+00 -0.00000000000E+00 -0.90599738299E+02  0.90599738299E+02  0.00000000000E+00 0.  1.
      99926    2    1    2    0    0  0.00000000000E+00  0.00000000000E+00  0.47725115779E+03  0.65845063439E+03  0.45363925129E+03 0.  0.
      99925    2    3    3    0    0 -0.90445205312E+02  0.43785963873E+02  0.22914615140E+03  0.36298295749E+03  0.26296601098E+03 0.  0.
         25    1    4    4    0    0 -0.39312111091E+02  0.42824698448E+02  0.15976392940E+03  0.21107206853E+03  0.12509000000E+03 0.  0.
         25    1    4    4    0    0 -0.51133094220E+02  0.96126542504E+00  0.69382222006E+02  0.15191088897E+03  0.12509000000E+03 0.  0.
         25    1    3    3    0    0  0.90445205312E+02 -0.43785963873E+02  0.24810500639E+03  0.29546767690E+03  0.12509000000E+03 0.  0.
<mgrwt>
<rscale>  2 0.45363925E+03</rscale>
<asrwt>0</asrwt>
<pdfrwt beam="1">  1       21 0.83507483E-01 0.45363925E+03</pdfrwt>
<pdfrwt beam="2">  1       21 0.13323491E-01 0.45363925E+03</pdfrwt>
<totfact> 0.55813517E+04</totfact>
</mgrwt>
</event>
<event>
 7    0  0.4759581E-002  0.4556215E+03  0.7546771E-02  0.1026059E+00
         21   -1    0    0  502  501  0.00000000000E+00  0.00000000000E+00  0.31489291249E+03  0.31489291249E+03  0.00000000000E+00 0. -1.
         21   -1    0    0  501  502 -0.00000000000E+00 -0.00000000000E+00 -0.16481077603E+03  0.16481077603E+03  0.00000000000E+00 0. -1.
      99926    2    1    2    0    0  0.00000000000E+00  0.00000000000E+00  0.15008213646E+03  0.47970368851E+03  0.45562153273E+03 0.  0.
      99925    2    3    3    0    0 -0.41875541803E+02 -0.10455774453E+03  0.75870513493E+02  0.29574511702E+03  0.26272220401E+03 0.  0.
         25    1    3    3    0    0  0.41875541803E+02  0.10455774453E+03  0.74211622965E+02  0.18395857149E+03  0.12509000000E+03 0.  0.
         25    1    4    4    0    0  0.20197044979E+01 -0.63088273702E+02  0.59571235718E+01  0.14023981213E+03  0.12509000000E+03 0.  0.
         25    1    4    4    0    0 -0.43895246301E+02 -0.41469470828E+02  0.69913389922E+02  0.15550530489E+03  0.12509000000E+03 0.  0.
<mgrwt>
<rscale>  2 0.45562153E+03</rscale>
<asrwt>0</asrwt>
<pdfrwt beam="1">  1       21 0.46307781E-01 0.45562153E+03</pdfrwt>
<pdfrwt beam="2">  1       21 0.24236879E-01 0.45562153E+03</pdfrwt>
<totfact> 0.66393529E+04</totfact>
</mgrwt>
</event>
<event>
 7    0  0.4759581E-002  0.4611916E+03  0.7546771E-02  0.1024436E+00
         21   -1    0    0  502  501  0.00000000000E+00  0.00000000000E+00  0.46026178050E+02  0.46026178050E+02  0.00000000000E+00 0. -1.
         21   -1    0    0  501  502 -0.00000000000E+00 -0.00000000000E+00 -0.11553082072E+04  0.11553082072E+04  0.00000000000E+00 0. -1.
      99926    2    1    2    0    0  0.00000000000E+00  0.00000000000E+00 -0.11092820291E+04  0.12013343852E+04  0.46119159249E+03 0.  0.
      99925    2    3    3    0    0  0.63065778157E+02  0.90641047499E+02 -0.80870702306E+03  0.85755257326E+03  0.26305184830E+03 0.  0.
         25    1    3    3    0    0 -0.63065778157E+02 -0.90641047499E+02 -0.30057500607E+03  0.34378181197E+03  0.12509000000E+03 0.  0.
         25    1    4    4    0    0  0.88996177705E+00  0.70104714586E+02 -0.43746087081E+03  0.46036396973E+03  0.12509000000E+03 0.  0.
         25    1    4    4    0    0  0.62175816380E+02  0.20536332913E+02 -0.37124615225E+03  0.39718860353E+03  0.12509000000E+03 0.  0.
<mgrwt>
<rscale>  2 0.46119159E+03</rscale>
<asrwt>0</asrwt>
<pdfrwt beam="1">  1       21 0.67685556E-02 0.46119159E+03</pdfrwt>
<pdfrwt beam="2">  1       21 0.16989826E+00 0.46119159E+03</pdfrwt>
<totfact> 0.30610421E+04</totfact>
</mgrwt>
</event>
<event>
 7    0  0.4759581E-002  0.4556829E+03  0.7546771E-02  0.1026041E+00
         21   -1    0    0  502  501  0.00000000000E+00  0.00000000000E+00  0.92339938240E+03  0.92339938240E+03  0.00000000000E+00 0.  1.
         21   -1    0    0  501  502 -0.00000000000E+00 -0.00000000000E+00 -0.56218054153E+02  0.56218054153E+02  0.00000000000E+00 0.  1.
      99926    2    1    2    0    0  0.00000000000E+00  0.00000000000E+00  0.86718132825E+03  0.97961743656E+03  0.45568285675E+03 0.  0.
      99925    2    3    3    0    0  0.11134243012E+03  0.15065748160E+02  0.58499731746E+03  0.65113693857E+03  0.26293219244E+03 0.  0.
         25    1    4    4    0    0  0.56051268227E+02  0.18526647020E+02  0.38263372458E+03  0.40686736979E+03  0.12509000000E+03 0.  0.
         25    1    4    4    0    0  0.55291161895E+02 -0.34608988603E+01  0.20236359289E+03  0.24426956878E+03  0.12509000000E+03 0.  0.
         25    1    3    3    0    0 -0.11134243012E+03 -0.15065748160E+02  0.28218401079E+03  0.32848049799E+03  0.12509000000E+03 0.  0.
<mgrwt>
<rscale>  2 0.45568286E+03</rscale>
<asrwt>0</asrwt>
<pdfrwt beam="1">  1       21 0.13579402E+00 0.45568286E+03</pdfrwt>
<pdfrwt beam="2">  1       21 0.82673615E-02 0.45568286E+03</pdfrwt>
<totfact> 0.39751478E+04</totfact>
</mgrwt>
</event>
<event>
 7    0  0.4759581E-002  0.4550664E+03  0.7546771E-02  0.1026222E+00
         21   -1    0    0  502  501  0.00000000000E+00  0.00000000000E+00  0.80651259134E+03  0.80651259134E+03  0.00000000000E+00 0.  1.
         21   -1    0    0  501  502 -0.00000000000E+00 -0.00000000000E+00 -0.64191638324E+02  0.64191638324E+02  0.00000000000E+00 0.  1.
      99926    2    1    2    0    0  0.00000000000E+00  0.00000000000E+00  0.74232095302E+03  0.87070422966E+03  0.45506643281E+03 0.  0.
      99925    2    3    3    0    0  0.74592985636E+02 -0.37270228958E+02  0.61385161348E+03  0.67295422897E+03  0.26286956356E+03 0.  0.
         25    1    4    4    0    0  0.78703077483E+02 -0.25636177402E+02  0.34227093594E+03  0.37369545045E+03  0.12509000000E+03 0.  0.
         25    1    4    4    0    0 -0.41100918467E+01 -0.11634051556E+02  0.27158067754E+03  0.29925877852E+03  0.12509000000E+03 0.  0.
         25    1    3    3    0    0 -0.74592985636E+02  0.37270228958E+02  0.12846933954E+03  0.19775000069E+03  0.12509000000E+03 0.  0.
<mgrwt>
<rscale>  2 0.45506643E+03</rscale>
<asrwt>0</asrwt>
<pdfrwt beam="1">  1       21 0.11860479E+00 0.45506643E+03</pdfrwt>
<pdfrwt beam="2">  1       21 0.94399473E-02 0.45506643E+03</pdfrwt>
<totfact> 0.44501428E+04</totfact>
</mgrwt>
</event>
<event>
 7    0  0.4759581E-002  0.4549020E+03  0.7546771E-02  0.1026270E+00
         21   -1    0    0  502  501  0.00000000000E+00  0.00000000000E+00  0.19874595055E+03  0.19874595055E+03  0.00000000000E+00 0.  1.
         21   -1    0    0  501  502 -0.00000000000E+00 -0.00000000000E+00 -0.26030196422E+03  0.26030196422E+03  0.00000000000E+00 0.  1.
      99926    2    1    2    0    0  0.00000000000E+00 -0.14210854715E-13 -0.61556013676E+02  0.45904791477E+03  0.45490201718E+03 0.  0.
      99925    2    3    3    0    0 -0.65413674007E+02  0.89068098222E+02 -0.62302020348E+02  0.29213434583E+03  0.26315178017E+03 0.  0.
         25    1    4    4    0    0 -0.51255535105E+02  0.77062285759E+02 -0.56484500264E+02  0.16554072803E+03  0.12509000000E+03 0.  0.
         25    1    3    3    0    0  0.65413674007E+02 -0.89068098222E+02  0.74600667205E+00  0.16691356893E+03  0.12509000000E+03 0.  0.
         25    1    4    4    0    0 -0.14158138902E+02  0.12005812463E+02 -0.58175200848E+01  0.12659361781E+03  0.12509000000E+03 0.  0.
<mgrwt>
<rscale>  2 0.45490202E+03</rscale>
<asrwt>0</asrwt>
<pdfrwt beam="1">  1       21 0.29227346E-01 0.45490202E+03</pdfrwt>
<pdfrwt beam="2">  1       21 0.38279700E-01 0.45490202E+03</pdfrwt>
<totfact> 0.68303365E+04</totfact>
</mgrwt>
</event>
<event>
 7    0  0.4759581E-002  0.4524864E+03  0.7546771E-02  0.1026983E+00
         21   -1    0    0  502  501  0.00000000000E+00  0.00000000000E+00  0.23226719751E+03  0.23226719751E+03  0.00000000000E+00 0.  1.
         21   -1    0    0  501  502 -0.00000000000E+00 -0.00000000000E+00 -0.22037544712E+03  0.22037544712E+03  0.00000000000E+00 0.  1.
      99926    2    1    2    0    0  0.00000000000E+00  0.00000000000E+00  0.11891750393E+02  0.45264264463E+03  0.45248640865E+03 0.  0.
      99925    2    3    3    0    0 -0.98413738521E+01 -0.86653678709E+02 -0.60756124771E+02  0.28373161912E+03  0.26307149659E+03 0.  0.
         25    1    4    4    0    0 -0.61811821050E+01 -0.12436782814E+02  0.51784353447E+00  0.12585967123E+03  0.12509000000E+03 0.  0.
         25    1    4    4    0    0 -0.36601917471E+01 -0.74216895895E+02 -0.61273968306E+02  0.15787194789E+03  0.12509000000E+03 0.  0.
         25    1    3    3    0    0  0.98413738521E+01  0.86653678709E+02  0.72647875164E+02  0.16891102551E+03  0.12509000000E+03 0.  0.
<mgrwt>
<rscale>  2 0.45248641E+03</rscale>
<asrwt>0</asrwt>
<pdfrwt beam="1">  1       21 0.34156941E-01 0.45248641E+03</pdfrwt>
<pdfrwt beam="2">  1       21 0.32408154E-01 0.45248641E+03</pdfrwt>
<totfact> 0.70114529E+04</totfact>
</mgrwt>
</event>
<event>
 7    0  0.4759581E-002  0.4571926E+03  0.7546771E-02  0.1025599E+00
         21   -1    0    0  502  501  0.00000000000E+00  0.00000000000E+00  0.24490844924E+03  0.24490844924E+03  0.00000000000E+00 0.  1.
         21   -1    0    0  501  502 -0.00000000000E+00 -0.00000000000E+00 -0.21337062221E+03  0.21337062221E+03  0.00000000000E+00 0.  1.
      99926    2    1    2    0    0 -0.35527136788E-14  0.00000000000E+00  0.31537827030E+02  0.45827907144E+03  0.45719259923E+03 0.  0.
      99925    2    3    3    0    0 -0.23526331455E+02  0.10457421788E+03  0.61985017682E+02  0.29075655106E+03  0.26307408509E+03 0.  0.
         25    1    4    4    0    0 -0.38927879391E+02  0.49949493170E+02  0.36829539634E+00  0.14020690212E+03  0.12509000000E+03 0.  0.
         25    1    4    4    0    0  0.15401547936E+02  0.54624724714E+02  0.61616722286E+02  0.15054964893E+03  0.12509000000E+03 0.  0.
         25    1    3    3    0    0  0.23526331455E+02 -0.10457421788E+03 -0.30447190652E+02  0.16752252039E+03  0.12509000000E+03 0.  0.
<mgrwt>
<rscale>  2 0.45719260E+03</rscale>
<asrwt>0</asrwt>
<pdfrwt beam="1">  1       21 0.36015948E-01 0.45719260E+03</pdfrwt>
<pdfrwt beam="2">  1       21 0.31378033E-01 0.45719260E+03</pdfrwt>
<totfact> 0.67124275E+04</totfact>
</mgrwt>
</event>
<event>
 7    0  0.4759581E-002  0.4576238E+03  0.7546771E-02  0.1025473E+00
         21   -1    0    0  502  501  0.00000000000E+00  0.00000000000E+00  0.60420124810E+03  0.60420124810E+03  0.00000000000E+00 0.  1.
         21   -1    0    0  501  502 -0.00000000000E+00 -0.00000000000E+00 -0.86651400464E+02  0.86651400464E+02  0.00000000000E+00 0.  1.
      99926    2    1    2    0    0  0.00000000000E+00 -0.35527136788E-14  0.51754984764E+03  0.69085264857E+03  0.45762379445E+03 0.  0.
      99925    2    3    3    0    0 -0.34716701279E+02  0.16217499541E+02  0.16047516341E+03  0.31056578992E+03  0.26311703700E+03 0.  0.
         25    1    4    4    0    0 -0.44282429005E+02  0.12988118182E+02  0.46996702387E+02  0.14137122362E+03  0.12509000000E+03 0.  0.
         25    1    4    4    0    0  0.95657277251E+01  0.32293813594E+01  0.11347846102E+03  0.16919456630E+03  0.12509000000E+03 0.  0.
         25    1    3    3    0    0  0.34716701279E+02 -0.16217499541E+02  0.35707468423E+03  0.38028685865E+03  0.12509000000E+03 0.  0.
<mgrwt>
<rscale>  2 0.45762379E+03</rscale>
<asrwt>0</asrwt>
<pdfrwt beam="1">  1       21 0.88853123E-01 0.45762379E+03</pdfrwt>
<pdfrwt beam="2">  1       21 0.12742853E-01 0.45762379E+03</pdfrwt>
<totfact> 0.52313613E+04</totfact>
</mgrwt>
</event>
<event>
 7    0  0.4759581E-002  0.4230951E+03  0.7546771E-02  0.1036064E+00
         21   -1    0    0  502  501  0.00000000000E+00  0.00000000000E+00  0.15001495584E+03  0.15001495584E+03  0.00000000000E+00 0. -1.
         21   -1    0    0  501  502 -0.00000000000E+00 -0.00000000000E+00 -0.29831942598E+03  0.29831942598E+03  0.00000000000E+00 0. -1.
      99926    2    1    2    0    0 -0.14210854715E-13  0.53151927304E-14 -0.14830447013E+03  0.44833438182E+03  0.42309514540E+03 0.  0.
      99925    2    3    3    0    0  0.79415425758E+02 -0.67122722395E-01 -0.10406175557E+03  0.29370016748E+03  0.26291467257E+03 0.  0.
         25    1    3    3    0    0 -0.79415425758E+02  0.67122722395E-01 -0.44242714561E+02  0.15463421434E+03  0.12509000000E+03 0.  0.
         25    1    4    4    0    0  0.34431721182E+02 -0.39736892193E+02 -0.57470784735E+02  0.14735997836E+03  0.12509000000E+03 0.  0.
         25    1    4    4    0    0  0.44983704576E+02  0.39669769471E+02 -0.46590970839E+02  0.14634018912E+03  0.12509000000E+03 0.  0.
<mgrwt>
<rscale>  2 0.42309515E+03</rscale>
<asrwt>0</asrwt>
<pdfrwt beam="1">  1       21 0.22061023E-01 0.42309515E+03</pdfrwt>
<pdfrwt beam="2">  1       21 0.43870504E-01 0.42309515E+03</pdfrwt>
<totfact> 0.89734727E+04</totfact>
</mgrwt>
</event>
<event>
 6    0  0.4759581E-002  0.4684763E+03  0.7546771E-02  0.1022351E+00
         21   -1    0    0  502  501  0.00000000000E+00  0.00000000000E+00  0.40081045266E+03  0.40081045266E+03  0.00000000000E+00 0. -1.
         21   -1    0    0  501  502 -0.00000000000E+00 -0.00000000000E+00 -0.13689141508E+03  0.13689141508E+03  0.00000000000E+00 0. -1.
      99926    2    1    2    0    0 -0.14210854715E-13  0.14210854715E-13  0.26391903758E+03  0.53770186774E+03  0.46847629628E+03 0.  0.
         25    1    3    3    0    0 -0.88250087636E+02  0.73996254150E+02  0.48589380744E+02  0.17683879557E+03  0.12509000000E+03 0.  0.
         25    1    3    3    0    0  0.29398540735E+02 -0.75149393010E+01  0.13927537593E+03  0.18964674252E+03  0.12509000000E+03 0.  0.
         25    1    3    3    0    0  0.58851546901E+02 -0.66481314849E+02  0.76054280907E+02  0.17121632966E+03  0.12509000000E+03 0.  0.
<mgrwt>
<rscale>  2 0.46847630E+03</rscale>
<asrwt>0</asrwt>
<pdfrwt beam="1">  1       21 0.58942713E-01 0.46847630E+03</pdfrwt>
<pdfrwt beam="2">  1       21 0.20131091E-01 0.46847630E+03</pdfrwt>
<totfact> 0.56416834E+04</totfact>
</mgrwt>
</event>
<event>
 7    0  0.4759581E-002  0.4530711E+03  0.7546771E-02  0.1026810E+00
         21   -1    0    0  502  501  0.00000000000E+00  0.00000000000E+00  0.81218363753E+03  0.81218363753E+03  0.00000000000E+00 0. -1.
         21   -1    0    0  501  502 -0.00000000000E+00 -0.00000000000E+00 -0.63185654087E+02  0.63185654087E+02  0.00000000000E+00 0. -1.
      99926    2    1    2    0    0  0.00000000000E+00  0.00000000000E+00  0.74899798345E+03  0.87536929162E+03  0.45307109542E+03 0.  0.
      99925    2    3    3    0    0 -0.60481835044E+02  0.81922158090E+02  0.55945313661E+03  0.62648367649E+03  0.26291575169E+03 0.  0.
         25    1    3    3    0    0  0.60481835044E+02 -0.81922158090E+02  0.18954484684E+03  0.24888561513E+03  0.12509000000E+03 0.  0.
         25    1    4    4    0    0 -0.66215204042E+02  0.28564263406E+02  0.31953223696E+03  0.35064045537E+03  0.12509000000E+03 0.  0.
         25    1    4    4    0    0  0.57333689980E+01  0.53357894684E+02  0.23992089966E+03  0.27584322112E+03  0.12509000000E+03 0.  0.
<mgrwt>
<rscale>  2 0.45307110E+03</rscale>
<asrwt>0</asrwt>
<pdfrwt beam="1">  1       21 0.11943876E+00 0.45307110E+03</pdfrwt>
<pdfrwt beam="2">  1       21 0.92920084E-02 0.45307110E+03</pdfrwt>
<totfact> 0.44991703E+04</totfact>
</mgrwt>
</event>
<event>
 7    0  0.4759581E-002  0.4482765E+03  0.7546771E-02  0.1028237E+00
         21   -1    0    0  502  501  0.00000000000E+00  0.00000000000E+00  0.82473540540E+02  0.82473540540E+02  0.00000000000E+00 0.  1.
         21   -1    0    0  501  502 -0.00000000000E+00 -0.00000000000E+00 -0.60914029408E+03  0.60914029408E+03  0.00000000000E+00 0.  1.
      99926    2    1    2    0    0  0.00000000000E+00  0.00000000000E+00 -0.52666675354E+03  0.69161383462E+03  0.44827650725E+03 0.  0.
      99925    2    3    3    0    0 -0.53247447671E+02  0.48531784704E+02 -0.45504043831E+03  0.53046650469E+03  0.26294921048E+03 0.  0.
         25    1    4    4    0    0 -0.13885423163E+02  0.16616063387E+02 -0.29472512333E+03  0.32090388742E+03  0.12509000000E+03 0.  0.
         25    1    3    3    0    0  0.53247447671E+02 -0.48531784704E+02 -0.71626315230E+02  0.16114732993E+03  0.12509000000E+03 0.  0.
         25    1    4    4    0    0 -0.39362024508E+02  0.31915721316E+02 -0.16031531498E+03  0.20956261728E+03  0.12509000000E+03 0.  0.
<mgrwt>
<rscale>  2 0.44827651E+03</rscale>
<asrwt>0</asrwt>
<pdfrwt beam="1">  1       21 0.12128462E-01 0.44827651E+03</pdfrwt>
<pdfrwt beam="2">  1       21 0.89579452E-01 0.44827651E+03</pdfrwt>
<totfact> 0.56280679E+04</totfact>
</mgrwt>
</event>
<event>
 7    0  0.4759581E-002  0.4041028E+03  0.7546771E-02  0.1042368E+00
         21   -1    0    0  502  501  0.00000000000E+00  0.00000000000E+00  0.26767571348E+03  0.26767571348E+03  0.00000000000E+00 0.  1.
         21   -1    0    0  501  502 -0.00000000000E+00 -0.00000000000E+00 -0.15251578071E+03  0.15251578071E+03  0.00000000000E+00 0.  1.
      99926    2    1    2    0    0  0.00000000000E+00  0.35527136788E-14  0.11515993276E+03  0.42019149419E+03  0.40410281078E+03 0.  0.
      99925    2    3    3    0    0 -0.21362636103E+02  0.25783285088E+02  0.33849602508E+02  0.26728623621E+03  0.26301139988E+03 0.  0.
         25    1    3    3    0    0  0.21362636103E+02 -0.25783285088E+02  0.81310330257E+02  0.15290525798E+03  0.12509000000E+03 0.  0.
         25    1    4    4    0    0 -0.12854120906E+02  0.18346480249E+02  0.57493779623E+02  0.13948069600E+03  0.12509000000E+03 0.  0.
         25    1    4    4    0    0 -0.85085151967E+01  0.74368048389E+01 -0.23644177115E+02  0.12780554021E+03  0.12509000000E+03 0.  0.
<mgrwt>
<rscale>  2 0.40410281E+03</rscale>
<asrwt>0</asrwt>
<pdfrwt beam="1">  1       21 0.39364076E-01 0.40410281E+03</pdfrwt>
<pdfrwt beam="2">  1       21 0.22428791E-01 0.40410281E+03</pdfrwt>
<totfact> 0.10918686E+05</totfact>
</mgrwt>
</event>
<event>
 7    0  0.4759581E-002  0.4436092E+03  0.7546771E-02  0.1029645E+00
         21   -1    0    0  502  501  0.00000000000E+00  0.00000000000E+00  0.17065131381E+04  0.17065131381E+04  0.00000000000E+00 0. -1.
         21   -1    0    0  501  502 -0.00000000000E+00 -0.00000000000E+00 -0.28829128677E+02  0.28829128677E+02  0.00000000000E+00 0. -1.
      99926    2    1    2    0    0 -0.17763568394E-14  0.00000000000E+00  0.16776840095E+04  0.17353422668E+04  0.44360922825E+03 0.  0.
      99925    2    3    3    0    0 -0.92749235296E+01  0.84224933669E+02  0.84411066607E+03  0.88818709179E+03  0.26300880174E+03 0.  0.
         25    1    3    3    0    0  0.92749235296E+01 -0.84224933669E+02  0.83357334340E+03  0.84715517503E+03  0.12509000000E+03 0.  0.
         25    1    4    4    0    0 -0.28740993072E+02  0.82468056483E+01  0.40238797557E+03  0.42244247593E+03  0.12509000000E+03 0.  0.
         25    1    4    4    0    0  0.19466069542E+02  0.75978128020E+02  0.44172269049E+03  0.46574461585E+03  0.12509000000E+03 0.  0.
<mgrwt>
<rscale>  2 0.44360923E+03</rscale>
<asrwt>0</asrwt>
<pdfrwt beam="1">  1       21 0.25095775E+00 0.44360923E+03</pdfrwt>
<pdfrwt beam="2">  1       21 0.42395789E-02 0.44360923E+03</pdfrwt>
<totfact> 0.20269747E+04</totfact>
</mgrwt>
</event>
<event>
 7    0  0.4759581E-002  0.4540496E+03  0.7546771E-02  0.1026521E+00
         21   -1    0    0  502  501  0.00000000000E+00  0.00000000000E+00  0.23794774691E+02  0.23794774691E+02  0.00000000000E+00 0. -1.
         21   -1    0    0  501  502 -0.00000000000E+00 -0.00000000000E+00 -0.21660323931E+04  0.21660323931E+04  0.00000000000E+00 0. -1.
      99926    2    1    2    0    0  0.00000000000E+00  0.00000000000E+00 -0.21422376184E+04  0.21898271678E+04  0.45404956896E+03 0.  0.
      99925    2    3    3    0    0 -0.27822976909E+02 -0.88298849227E+02 -0.16554364622E+04  0.16787560586E+04  0.26302322946E+03 0.  0.
         25    1    3    3    0    0  0.27822976909E+02  0.88298849227E+02 -0.48680115623E+03  0.51107110917E+03  0.12509000000E+03 0.  0.
         25    1    4    4    0    0  0.24448301745E+02 -0.34094216246E+02 -0.85323470661E+03  0.86337541528E+03  0.12509000000E+03 0.  0.
         25    1    4    4    0    0 -0.52271278654E+02 -0.54204632981E+02 -0.80220175558E+03  0.81538064336E+03  0.12509000000E+03 0.  0.
<mgrwt>
<rscale>  2 0.45404957E+03</rscale>
<asrwt>0</asrwt>
<pdfrwt beam="1">  1       21 0.34992299E-02 0.45404957E+03</pdfrwt>
<pdfrwt beam="2">  1       21 0.31853432E+00 0.45404957E+03</pdfrwt>
<totfact> 0.10931378E+04</totfact>
</mgrwt>
</event>
<event>
 7    0  0.4759581E-002  0.4522675E+03  0.7546771E-02  0.1027048E+00
         21   -1    0    0  502  501  0.00000000000E+00  0.00000000000E+00  0.48034694273E+02  0.48034694273E+02  0.00000000000E+00 0. -1.
         21   -1    0    0  501  502 -0.00000000000E+00 -0.00000000000E+00 -0.10645738345E+04  0.10645738345E+04  0.00000000000E+00 0. -1.
      99926    2    1    2    0    0  0.00000000000E+00  0.00000000000E+00 -0.10165391402E+04  0.11126085288E+04  0.45226752557E+03 0.  0.
      99925    2    3    3    0    0  0.97548745794E+02 -0.47532041344E+02 -0.69337316981E+03  0.74948485109E+03  0.26303257714E+03 0.  0.
         25    1    4    4    0    0  0.89188471319E+02 -0.16268188803E+02 -0.40605194702E+03  0.43444784401E+03  0.12509000000E+03 0.  0.
         25    1    3    3    0    0 -0.97548745794E+02  0.47532041344E+02 -0.32316597042E+03  0.36312367768E+03  0.12509000000E+03 0.  0.
         25    1    4    4    0    0  0.83602744743E+01 -0.31263852542E+02 -0.28732122279E+03  0.31503700708E+03  0.12509000000E+03 0.  0.
<mgrwt>
<rscale>  2 0.45226753E+03</rscale>
<asrwt>0</asrwt>
<pdfrwt beam="1">  1       21 0.70639247E-02 0.45226753E+03</pdfrwt>
<pdfrwt beam="2">  1       21 0.15655500E+00 0.45226753E+03</pdfrwt>
<totfact> 0.35812435E+04</totfact>
</mgrwt>
</event>
<event>
 7    0  0.4759581E-002  0.4765761E+03  0.7546771E-02  0.1020080E+00
         21   -1    0    0  502  501  0.00000000000E+00  0.00000000000E+00  0.77129786332E+02  0.77129786332E+02  0.00000000000E+00 0.  1.
         21   -1    0    0  501  502 -0.00000000000E+00 -0.00000000000E+00 -0.73617714418E+03  0.73617714418E+03  0.00000000000E+00 0.  1.
      99926    2    1    2    0    0  0.00000000000E+00  0.00000000000E+00 -0.65904735785E+03  0.81330693051E+03  0.47657606248E+03 0.  0.
      99925    2    3    3    0    0  0.12841442483E+03 -0.26369289793E+02 -0.42642708308E+03  0.51844203894E+03  0.26411453312E+03 0.  0.
         25    1    4    4    0    0  0.80153658883E+02 -0.16656479156E+02 -0.29354979864E+03  0.32942531735E+03  0.12509000000E+03 0.  0.
         25    1    3    3    0    0 -0.12841442483E+03  0.26369289793E+02 -0.23262027477E+03  0.29486489157E+03  0.12509000000E+03 0.  0.
         25    1    4    4    0    0  0.48260765948E+02 -0.97128106369E+01 -0.13287728444E+03  0.18901672159E+03  0.12509000000E+03 0.  0.
<mgrwt>
<rscale>  2 0.47657606E+03</rscale>
<asrwt>0</asrwt>
<pdfrwt beam="1">  1       21 0.11342616E-01 0.47657606E+03</pdfrwt>
<pdfrwt beam="2">  1       21 0.10826134E+00 0.47657606E+03</pdfrwt>
<totfact> 0.39926437E+04</totfact>
</mgrwt>
</event>
<event>
 7    0  0.4759581E-002  0.4518857E+03  0.7546771E-02  0.1027161E+00
         21   -1    0    0  502  501  0.00000000000E+00  0.00000000000E+00  0.72077709504E+03  0.72077709504E+03  0.00000000000E+00 0.  1.
         21   -1    0    0  501  502 -0.00000000000E+00 -0.00000000000E+00 -0.70826584777E+02  0.70826584777E+02  0.00000000000E+00 0.  1.
      99926    2    1    2    0    0  0.00000000000E+00  0.00000000000E+00  0.64995051026E+03  0.79160367982E+03  0.45188573789E+03 0.  0.
      99925    2    3    3    0    0 -0.10744043442E+03 -0.21331886444E+02  0.43419177557E+03  0.51921088252E+03  0.26279068899E+03 0.  0.
         25    1    4    4    0    0 -0.31575717232E+02 -0.21888451405E+02  0.14633225997E+03  0.19630784149E+03  0.12509000000E+03 0.  0.
         25    1    3    3    0    0  0.10744043442E+03  0.21331886444E+02  0.21575873469E+03  0.27239279730E+03  0.12509000000E+03 0.  0.
         25    1    4    4    0    0 -0.75864717184E+02  0.55656496138E+00  0.28785951560E+03  0.32290304102E+03  0.12509000000E+03 0.  0.
<mgrwt>
<rscale>  2 0.45188574E+03</rscale>
<asrwt>0</asrwt>
<pdfrwt beam="1">  1       21 0.10599663E+00 0.45188574E+03</pdfrwt>
<pdfrwt beam="2">  1       21 0.10415675E-01 0.45188574E+03</pdfrwt>
<totfact> 0.49369289E+04</totfact>
</mgrwt>
</event>
<event>
 7    0  0.4759581E-002  0.4532965E+03  0.7546771E-02  0.1026744E+00
         21   -1    0    0  502  501  0.00000000000E+00  0.00000000000E+00  0.15145827983E+03  0.15145827983E+03  0.00000000000E+00 0. -1.
         21   -1    0    0  501  502 -0.00000000000E+00 -0.00000000000E+00 -0.33916558797E+03  0.33916558797E+03  0.00000000000E+00 0. -1.
      99926    2    1    2    0    0  0.00000000000E+00  0.00000000000E+00 -0.18770730814E+03  0.49062386780E+03  0.45329653223E+03 0.  0.
      99925    2    3    3    0    0  0.77178917373E+02 -0.72408575751E+02 -0.80048195580E+02  0.29456882516E+03  0.26298952833E+03 0.  0.
         25    1    4    4    0    0  0.46614974958E+02 -0.35685977676E+02  0.73772223566E+00  0.13818283984E+03  0.12509000000E+03 0.  0.
         25    1    3    3    0    0 -0.77178917373E+02  0.72408575751E+02 -0.10765911256E+03  0.19605504265E+03  0.12509000000E+03 0.  0.
         25    1    4    4    0    0  0.30563942416E+02 -0.36722598075E+02 -0.80785917816E+02  0.15638598531E+03  0.12509000000E+03 0.  0.
<mgrwt>
<rscale>  2 0.45329653E+03</rscale>
<asrwt>0</asrwt>
<pdfrwt beam="1">  1       21 0.22273276E-01 0.45329653E+03</pdfrwt>
<pdfrwt beam="2">  1       21 0.49877292E-01 0.45329653E+03</pdfrwt>
<totfact> 0.66833760E+04</totfact>
</mgrwt>
</event>
<event>
 7    0  0.4759581E-002  0.4671351E+03  0.7546771E-02  0.1022732E+00
         21   -1    0    0  502  501  0.00000000000E+00  0.00000000000E+00  0.74967338860E+03  0.74967338860E+03  0.00000000000E+00 0. -1.
         21   -1    0    0  501  502 -0.00000000000E+00 -0.00000000000E+00 -0.72770091354E+02  0.72770091354E+02  0.00000000000E+00 0. -1.
      99926    2    1    2    0    0  0.00000000000E+00  0.00000000000E+00  0.67690329725E+03  0.82244347995E+03  0.46713510240E+03 0.  0.
      99925    2    3    3    0    0  0.36028665876E+02  0.11885750099E+03  0.41954880337E+03  0.51050756679E+03  0.26300495629E+03 0.  0.
         25    1    4    4    0    0  0.20745777501E+02  0.47073718513E+02  0.27112720817E+03  0.30299140808E+03  0.12509000000E+03 0.  0.
         25    1    4    4    0    0  0.15282888376E+02  0.71783782474E+02  0.14842159520E+03  0.20751615871E+03  0.12509000000E+03 0.  0.
         25    1    3    3    0    0 -0.36028665876E+02 -0.11885750099E+03  0.25735449388E+03  0.31193591317E+03  0.12509000000E+03 0.  0.
<mgrwt>
<rscale>  2 0.46713510E+03</rscale>
<asrwt>0</asrwt>
<pdfrwt beam="1">  1       21 0.11024608E+00 0.46713510E+03</pdfrwt>
<pdfrwt beam="2">  1       21 0.10701484E-01 0.46713510E+03</pdfrwt>
<totfact> 0.42504266E+04</totfact>
</mgrwt>
</event>
<event>
 7    0  0.4759581E-002  0.4403504E+03  0.7546771E-02  0.1030639E+00
         21   -1    0    0  502  501  0.00000000000E+00  0.00000000000E+00  0.38378749605E+03  0.38378749605E+03  0.00000000000E+00 0.  1.
         21   -1    0    0  501  502 -0.00000000000E+00 -0.00000000000E+00 -0.12631237563E+03  0.12631237563E+03  0.00000000000E+00 0.  1.
      99926    2    1    2    0    0  0.88817841970E-15  0.00000000000E+00  0.25747512042E+03  0.51009987169E+03  0.44035036217E+03 0.  0.
      99925    2    3    3    0    0  0.56820380425E+01 -0.90319626371E+02  0.11857348051E+03  0.30241960268E+03  0.26307418220E+03 0.  0.
         25    1    4    4    0    0 -0.25986016034E+02 -0.58288060818E+02  0.88876951275E+02  0.16619082896E+03  0.12509000000E+03 0.  0.
         25    1    4    4    0    0  0.31668054076E+02 -0.32031565552E+02  0.29696529236E+02  0.13622877372E+03  0.12509000000E+03 0.  0.
         25    1    3    3    0    0 -0.56820380425E+01  0.90319626371E+02  0.13890163991E+03  0.20768026900E+03  0.12509000000E+03 0.  0.
<mgrwt>
<rscale>  2 0.44035036E+03</rscale>
<asrwt>0</asrwt>
<pdfrwt beam="1">  1       21 0.56439337E-01 0.44035036E+03</pdfrwt>
<pdfrwt beam="2">  1       21 0.18575349E-01 0.44035036E+03</pdfrwt>
<totfact> 0.72649952E+04</totfact>
</mgrwt>
</event>
<event>
 7    0  0.4759581E-002  0.4620293E+03  0.7546771E-02  0.1024194E+00
         21   -1    0    0  502  501  0.00000000000E+00  0.00000000000E+00  0.50882602634E+03  0.50882602634E+03  0.00000000000E+00 0. -1.
         21   -1    0    0  501  502 -0.00000000000E+00 -0.00000000000E+00 -0.10488413384E+03  0.10488413384E+03  0.00000000000E+00 0. -1.
      99926    2    1    2    0    0 -0.88817841970E-15 -0.71054273576E-14  0.40394189250E+03  0.61371016018E+03  0.46202933693E+03 0.  0.
      99925    2    3    3    0    0  0.53242910689E+01  0.58882133301E+02  0.11452950253E+03  0.29292597530E+03  0.26304593963E+03 0.  0.
         25    1    3    3    0    0 -0.53242910689E+01 -0.58882133301E+02  0.28941238998E+03  0.32078418488E+03  0.12509000000E+03 0.  0.
         25    1    4    4    0    0  0.12049718769E+02  0.56874130622E+02  0.91532019443E+02  0.16554600913E+03  0.12509000000E+03 0.  0.
         25    1    4    4    0    0 -0.67254276999E+01  0.20080026794E+01  0.22997483086E+02  0.12737996617E+03  0.12509000000E+03 0.  0.
<mgrwt>
<rscale>  2 0.46202934E+03</rscale>
<asrwt>0</asrwt>
<pdfrwt beam="1">  1       21 0.74827356E-01 0.46202934E+03</pdfrwt>
<pdfrwt beam="2">  1       21 0.15424138E-01 0.46202934E+03</pdfrwt>
<totfact> 0.54739178E+04</totfact>
</mgrwt>
</event>
<event>
 7    0  0.4759581E-002  0.4460561E+03  0.7546771E-02  0.1028905E+00
         21   -1    0    0  502  501  0.00000000000E+00  0.00000000000E+00  0.61988489820E+03  0.61988489820E+03  0.00000000000E+00 0. -1.
         21   -1    0    0  501  502 -0.00000000000E+00 -0.00000000000E+00 -0.80243155973E+02  0.80243155973E+02  0.00000000000E+00 0. -1.
      99926    2    1    2    0    0  0.00000000000E+00  0.00000000000E+00  0.53964174222E+03  0.70012805417E+03  0.44605614253E+03 0.  0.
      99925    2    3    3    0    0 -0.49248020974E+02  0.86705488000E+02  0.39187658540E+03  0.48235464236E+03  0.26297439724E+03 0.  0.
         25    1    4    4    0    0 -0.22429086428E+02  0.85749598180E+02  0.21373981518E+03  0.26303664041E+03  0.12509000000E+03 0.  0.
         25    1    3    3    0    0  0.49248020974E+02 -0.86705488000E+02  0.14776515683E+03  0.21777341181E+03  0.12509000000E+03 0.  0.
         25    1    4    4    0    0 -0.26818934546E+02  0.95588982005E+00  0.17813677022E+03  0.21931800195E+03  0.12509000000E+03 0.  0.
<mgrwt>
<rscale>  2 0.44605614E+03</rscale>
<asrwt>0</asrwt>
<pdfrwt beam="1">  1       21 0.91159541E-01 0.44605614E+03</pdfrwt>
<pdfrwt beam="2">  1       21 0.11800464E-01 0.44605614E+03</pdfrwt>
<totfact> 0.56788753E+04</totfact>
</mgrwt>
</event>
<event>
 7    0  0.4759581E-002  0.4497092E+03  0.7546771E-02  0.1027809E+00
         21   -1    0    0  502  501  0.00000000000E+00  0.00000000000E+00  0.94039511068E+03  0.94039511068E+03  0.00000000000E+00 0.  1.
         21   -1    0    0  501  502 -0.00000000000E+00 -0.00000000000E+00 -0.53764204014E+02  0.53764204014E+02  0.00000000000E+00 0.  1.
      99926    2    1    2    0    0 -0.88817841970E-15  0.00000000000E+00  0.88663090667E+03  0.99415931469E+03  0.44970921531E+03 0.  0.
      99925    2    3    3    0    0 -0.14729488526E+01 -0.92662650421E+02  0.43742929507E+03  0.51874567131E+03  0.26299077350E+03 0.  0.
         25    1    3    3    0    0  0.14729488526E+01  0.92662650421E+02  0.44920161159E+03  0.47541364339E+03  0.12509000000E+03 0.  0.
         25    1    4    4    0    0  0.21160327742E+02 -0.82297366696E+02  0.23122560464E+03  0.27628500570E+03  0.12509000000E+03 0.  0.
         25    1    4    4    0    0 -0.22633276594E+02 -0.10365283725E+02  0.20620369043E+03  0.24246066560E+03  0.12509000000E+03 0.  0.
<mgrwt>
<rscale>  2 0.44970922E+03</rscale>
<asrwt>0</asrwt>
<pdfrwt beam="1">  1       21 0.13829339E+00 0.44970922E+03</pdfrwt>
<pdfrwt beam="2">  1       21 0.79065012E-02 0.44970922E+03</pdfrwt>
<totfact> 0.41065612E+04</totfact>
</mgrwt>
</event>
<event>
 7    0  0.4759581E-002  0.4576660E+03  0.7546771E-02  0.1025460E+00
         21   -1    0    0  502  501  0.00000000000E+00  0.00000000000E+00  0.86054115199E+02  0.86054115199E+02  0.00000000000E+00 0.  1.
         21   -1    0    0  501  502 -0.00000000000E+00 -0.00000000000E+00 -0.60850723383E+03  0.60850723383E+03  0.00000000000E+00 0.  1.
      99926    2    1    2    0    0  0.00000000000E+00  0.00000000000E+00 -0.52245311863E+03  0.69456134902E+03  0.45766604243E+03 0.  0.
      99925    2    3    3    0    0 -0.58694314504E+02  0.24005075695E+02 -0.47485183796E+03  0.54645781688E+03  0.26288897161E+03 0.  0.
         25    1    3    3    0    0  0.58694314504E+02 -0.24005075695E+02 -0.47601280663E+02  0.14810353215E+03  0.12509000000E+03 0.  0.
         25    1    4    4    0    0 -0.55122133500E+02  0.31446394661E+02 -0.19910674953E+03  0.24355354883E+03  0.12509000000E+03 0.  0.
         25    1    4    4    0    0 -0.35721810042E+01 -0.74413189659E+01 -0.27574508844E+03  0.30290426805E+03  0.12509000000E+03 0.  0.
<mgrwt>
<rscale>  2 0.45766604E+03</rscale>
<asrwt>0</asrwt>
<pdfrwt beam="1">  1       21 0.12655017E-01 0.45766604E+03</pdfrwt>
<pdfrwt beam="2">  1       21 0.89486357E-01 0.45766604E+03</pdfrwt>
<totfact> 0.52097395E+04</totfact>
</mgrwt>
</event>
<event>
 7    0  0.4759581E-002  0.4538163E+03  0.7546771E-02  0.1026590E+00
         21   -1    0    0  502  501  0.00000000000E+00  0.00000000000E+00  0.27964657171E+03  0.27964657171E+03  0.00000000000E+00 0.  1.
         21   -1    0    0  501  502 -0.00000000000E+00 -0.00000000000E+00 -0.18411564396E+03  0.18411564396E+03  0.00000000000E+00 0.  1.
      99926    2    1    2    0    0  0.14210854715E-13  0.00000000000E+00  0.95530927754E+02  0.46376221567E+03  0.45381630042E+03 0.  0.
      99925    2    3    3    0    0 -0.84931905915E+02  0.72300169764E+02  0.70683234244E+02  0.29433477054E+03  0.26305150514E+03 0.  0.
         25    1    4    4    0    0 -0.47817392650E-01  0.28290155961E+02  0.29793038849E+02  0.13166422625E+03  0.12509000000E+03 0.  0.
         25    1    3    3    0    0  0.84931905915E+02 -0.72300169764E+02  0.24847693509E+02  0.16942744513E+03  0.12509000000E+03 0.  0.
         25    1    4    4    0    0 -0.84884088522E+02  0.44010013803E+02  0.40890195395E+02  0.16267054429E+03  0.12509000000E+03 0.  0.
<mgrwt>
<rscale>  2 0.45381630E+03</rscale>
<asrwt>0</asrwt>
<pdfrwt beam="1">  1       21 0.41124496E-01 0.45381630E+03</pdfrwt>
<pdfrwt beam="2">  1       21 0.27075830E-01 0.45381630E+03</pdfrwt>
<totfact> 0.68544502E+04</totfact>
</mgrwt>
</event>
<event>
 7    0  0.4759581E-002  0.4833482E+03  0.7546771E-02  0.1018219E+00
         21   -1    0    0  502  501  0.00000000000E+00  0.00000000000E+00  0.42534724664E+03  0.42534724664E+03  0.00000000000E+00 0. -1.
         21   -1    0    0  501  502 -0.00000000000E+00 -0.00000000000E+00 -0.13731456275E+03  0.13731456275E+03  0.00000000000E+00 0. -1.
      99926    2    1    2    0    0  0.14210854715E-13  0.71054273576E-14  0.28803268390E+03  0.56266180939E+03  0.48334820239E+03 0.  0.
      99925    2    3    3    0    0  0.12299898216E+03  0.39919395446E+02  0.12063266743E+03  0.31691278832E+03  0.26298130581E+03 0.  0.
         25    1    3    3    0    0 -0.12299898216E+03 -0.39919395446E+02  0.16740001647E+03  0.24574902107E+03  0.12509000000E+03 0.  0.
         25    1    4    4    0    0  0.50748366321E+02  0.39571983247E+02  0.96158226863E+02  0.17039733342E+03  0.12509000000E+03 0.  0.
         25    1    4    4    0    0  0.72250615838E+02  0.34741219978E+00  0.24474440568E+02  0.14651545490E+03  0.12509000000E+03 0.  0.
<mgrwt>
<rscale>  2 0.48334820E+03</rscale>
<asrwt>0</asrwt>
<pdfrwt beam="1">  1       21 0.62551065E-01 0.48334820E+03</pdfrwt>
<pdfrwt beam="2">  1       21 0.20193318E-01 0.48334820E+03</pdfrwt>
<totfact> 0.49066435E+04</totfact>
</mgrwt>
</event>
<event>
 7    0  0.4759581E-002  0.4454625E+03  0.7546771E-02  0.1029084E+00
         21   -1    0    0  502  501  0.00000000000E+00  0.00000000000E+00  0.42194783894E+02  0.42194783894E+02  0.00000000000E+00 0.  1.
         21   -1    0    0  501  502 -0.00000000000E+00 -0.00000000000E+00 -0.11757188439E+04  0.11757188439E+04  0.00000000000E+00 0.  1.
      99926    2    1    2    0    0  0.14210854715E-13 -0.71054273576E-14 -0.11335240600E+04  0.12179136278E+04  0.44546246772E+03 0.  0.
      99925    2    3    3    0    0 -0.88730672226E+02  0.33262143420E+02 -0.60245575422E+03  0.66414422101E+03  0.26297358827E+03 0.  0.
         25    1    4    4    0    0 -0.40479632631E+02  0.36408558762E+02 -0.38718246564E+03  0.41051425506E+03  0.12509000000E+03 0.  0.
         25    1    3    3    0    0  0.88730672226E+02 -0.33262143420E+02 -0.53106830576E+03  0.55376940676E+03  0.12509000000E+03 0.  0.
         25    1    4    4    0    0 -0.48251039595E+02 -0.31464153419E+01 -0.21527328858E+03  0.25362996595E+03  0.12509000000E+03 0.  0.
<mgrwt>
<rscale>  2 0.44546247E+03</rscale>
<asrwt>0</asrwt>
<pdfrwt beam="1">  1       21 0.62051148E-02 0.44546247E+03</pdfrwt>
<pdfrwt beam="2">  1       21 0.17289984E+00 0.44546247E+03</pdfrwt>
<totfact> 0.34053410E+04</totfact>
</mgrwt>
</event>
<event>
 7    0  0.4759581E-002  0.4539319E+03  0.7546771E-02  0.1026556E+00
         21   -1    0    0  502  501  0.00000000000E+00  0.00000000000E+00  0.28224589160E+03  0.28224589160E+03  0.00000000000E+00 0.  1.
         21   -1    0    0  501  502 -0.00000000000E+00 -0.00000000000E+00 -0.18251296017E+03  0.18251296017E+03  0.00000000000E+00 0.  1.
      99926    2    1    2    0    0  0.00000000000E+00  0.00000000000E+00  0.99732931439E+02  0.46475885177E+03  0.45393185908E+03 0.  0.
      99925    2    3    3    0    0 -0.10165386528E+03 -0.28145651203E+02  0.24130132472E+02  0.28451186200E+03  0.26313314181E+03 0.  0.
         25    1    4    4    0    0 -0.50614912165E+02  0.99964493579E+01 -0.21263525317E+02  0.13697242037E+03  0.12509000000E+03 0.  0.
         25    1    3    3    0    0  0.10165386528E+03  0.28145651203E+02  0.75602798966E+02  0.18024698977E+03  0.12509000000E+03 0.  0.
         25    1    4    4    0    0 -0.51038953114E+02 -0.38142100561E+02  0.45393657790E+02  0.14753944163E+03  0.12509000000E+03 0.  0.
<mgrwt>
<rscale>  2 0.45393186E+03</rscale>
<asrwt>0</asrwt>
<pdfrwt beam="1">  1       21 0.41506749E-01 0.45393186E+03</pdfrwt>
<pdfrwt beam="2">  1       21 0.26840141E-01 0.45393186E+03</pdfrwt>
<totfact> 0.68405743E+04</totfact>
</mgrwt>
</event>
<event>
 7    0  0.4759581E-002  0.4556155E+03  0.7546771E-02  0.1026061E+00
         21   -1    0    0  502  501  0.00000000000E+00  0.00000000000E+00  0.58604310008E+03  0.58604310008E+03  0.00000000000E+00 0. -1.
         21   -1    0    0  501  502 -0.00000000000E+00 -0.00000000000E+00 -0.88553863179E+02  0.88553863179E+02  0.00000000000E+00 0. -1.
      99926    2    1    2    0    0  0.00000000000E+00  0.00000000000E+00  0.49748923691E+03  0.67459696326E+03  0.45561554189E+03 0.  0.
      99925    2    3    3    0    0 -0.50381610799E+02  0.60739873624E+02  0.43410578986E+03  0.51368516005E+03  0.26305316556E+03 0.  0.
         25    1    3    3    0    0  0.50381610799E+02 -0.60739873624E+02  0.63383447047E+02  0.16091180322E+03  0.12509000000E+03 0.  0.
         25    1    4    4    0    0 -0.55178154220E+02  0.56651729840E+02  0.20917028657E+03  0.25622990474E+03  0.12509000000E+03 0.  0.
         25    1    4    4    0    0  0.47965434212E+01  0.40881437841E+01  0.22493550329E+03  0.25745525531E+03  0.12509000000E+03 0.  0.
<mgrwt>
<rscale>  2 0.45561554E+03</rscale>
<asrwt>0</asrwt>
<pdfrwt beam="1">  1       21 0.86182807E-01 0.45561554E+03</pdfrwt>
<pdfrwt beam="2">  1       21 0.13022627E-01 0.45561554E+03</pdfrwt>
<totfact> 0.54041707E+04</totfact>
</mgrwt>
</event>
<event>
 7    0  0.4759581E-002  0.4555919E+03  0.7546771E-02  0.1026067E+00
         21   -1    0    0  502  501  0.00000000000E+00  0.00000000000E+00  0.12781404066E+03  0.12781404066E+03  0.00000000000E+00 0.  1.
         21   -1    0    0  501  502 -0.00000000000E+00 -0.00000000000E+00 -0.40598816420E+03  0.40598816420E+03  0.00000000000E+00 0.  1.
      99926    2    1    2    0    0  0.00000000000E+00  0.00000000000E+00 -0.27817412354E+03  0.53380220486E+03  0.45559186879E+03 0.  0.
      99925    2    3    3    0    0 -0.78845691416E+02  0.79330734704E+02 -0.15235023052E+03  0.32406625496E+03  0.26324577175E+03 0.  0.
         25    1    3    3    0    0  0.78845691416E+02 -0.79330734704E+02 -0.12582389303E+03  0.20973594990E+03  0.12509000000E+03 0.  0.
         25    1    4    4    0    0 -0.58890788565E+02  0.16825430791E+02 -0.10724890556E+03  0.17578696181E+03  0.12509000000E+03 0.  0.
         25    1    4    4    0    0 -0.19954902852E+02  0.62505303913E+02 -0.45101324960E+02  0.14827929315E+03  0.12509000000E+03 0.  0.
<mgrwt>
<rscale>  2 0.45559187E+03</rscale>
<asrwt>0</asrwt>
<pdfrwt beam="1">  1       21 0.18796183E-01 0.45559187E+03</pdfrwt>
<pdfrwt beam="2">  1       21 0.59704141E-01 0.45559187E+03</pdfrwt>
<totfact> 0.62655396E+04</totfact>
</mgrwt>
</event>
<event>
 7    0  0.4759581E-002  0.4518137E+03  0.7546771E-02  0.1027183E+00
         21   -1    0    0  502  501  0.00000000000E+00  0.00000000000E+00  0.19775184003E+03  0.19775184003E+03  0.00000000000E+00 0.  1.
         21   -1    0    0  501  502 -0.00000000000E+00 -0.00000000000E+00 -0.25807038748E+03  0.25807038748E+03  0.00000000000E+00 0.  1.
      99926    2    1    2    0    0  0.00000000000E+00  0.00000000000E+00 -0.60318547442E+02  0.45582222751E+03  0.45181365177E+03 0.  0.
      99925    2    3    3    0    0  0.55731135602E+02  0.92066618538E+02 -0.14364255921E+02  0.28452854189E+03  0.26299798018E+03 0.  0.
         25    1    3    3    0    0 -0.55731135602E+02 -0.92066618538E+02 -0.45954291521E+02  0.17129368562E+03  0.12509000000E+03 0.  0.
         25    1    4    4    0    0  0.54777296688E+02  0.15368943969E+02 -0.82207288027E+01  0.13766570071E+03  0.12509000000E+03 0.  0.
         25    1    4    4    0    0  0.95383891390E+00  0.76697674568E+02 -0.61435271180E+01  0.14686284118E+03  0.12509000000E+03 0.  0.
<mgrwt>
<rscale>  2 0.45181365E+03</rscale>
<asrwt>0</asrwt>
<pdfrwt beam="1">  1       21 0.29081153E-01 0.45181365E+03</pdfrwt>
<pdfrwt beam="2">  1       21 0.37951527E-01 0.45181365E+03</pdfrwt>
<totfact> 0.70254407E+04</totfact>
</mgrwt>
</event>
<event>
 7    0  0.4759581E-002  0.4588330E+03  0.7546771E-02  0.1025120E+00
         21   -1    0    0  502  501  0.00000000000E+00  0.00000000000E+00  0.32541164106E+03  0.32541164106E+03  0.00000000000E+00 0.  1.
         21   -1    0    0  501  502 -0.00000000000E+00 -0.00000000000E+00 -0.16173955680E+03  0.16173955680E+03  0.00000000000E+00 0.  1.
      99926    2    1    2    0    0  0.00000000000E+00  0.00000000000E+00  0.16367208426E+03  0.48715119786E+03  0.45883301801E+03 0.  0.
      99925    2    3    3    0    0 -0.32082176918E+02 -0.68097971088E+02  0.80220847361E+01  0.27374775320E+03  0.26307200307E+03 0.  0.
         25    1    4    4    0    0 -0.10090759545E+02 -0.74815932537E+02  0.11082498790E+02  0.14652500493E+03  0.12509000000E+03 0.  0.
         25    1    4    4    0    0 -0.21991417373E+02  0.67179614487E+01 -0.30604140540E+01  0.12722274827E+03  0.12509000000E+03 0.  0.
         25    1    3    3    0    0  0.32082176918E+02  0.68097971088E+02  0.15564999952E+03  0.21340344466E+03  0.12509000000E+03 0.  0.
<mgrwt>
<rscale>  2 0.45883302E+03</rscale>
<asrwt>0</asrwt>
<pdfrwt beam="1">  1       21 0.47854653E-01 0.45883302E+03</pdfrwt>
<pdfrwt beam="2">  1       21 0.23785229E-01 0.45883302E+03</pdfrwt>
<totfact> 0.64207085E+04</totfact>
</mgrwt>
</event>
<event>
 6    0  0.4759581E-002  0.4515219E+03  0.7546771E-02  0.1027269E+00
         21   -1    0    0  502  501  0.00000000000E+00  0.00000000000E+00  0.77919407382E+02  0.77919407382E+02  0.00000000000E+00 0.  1.
         21   -1    0    0  501  502 -0.00000000000E+00 -0.00000000000E+00 -0.65411185451E+03  0.65411185451E+03  0.00000000000E+00 0.  1.
      99926    2    1    2    0    0  0.00000000000E+00  0.00000000000E+00 -0.57619244713E+03  0.73203126189E+03  0.45152190673E+03 0.  0.
         25    1    3    3    0    0 -0.15740477818E+02  0.11862008676E+02 -0.31026547280E+03  0.33511287890E+03  0.12509000000E+03 0.  0.
         25    1    3    3    0    0  0.41949909727E+02 -0.73119154456E+02 -0.11344791310E+03  0.18874358999E+03  0.12509000000E+03 0.  0.
         25    1    3    3    0    0 -0.26209431909E+02  0.61257145780E+02 -0.15247906122E+03  0.20817479300E+03  0.12509000000E+03 0.  0.
<mgrwt>
<rscale>  2 0.45152191E+03</rscale>
<asrwt>0</asrwt>
<pdfrwt beam="1">  1       21 0.11458737E-01 0.45152191E+03</pdfrwt>
<pdfrwt beam="2">  1       21 0.96192915E-01 0.45152191E+03</pdfrwt>
<totfact> 0.52622612E+04</totfact>
</mgrwt>
</event>
<event>
 7    0  0.4759581E-002  0.4601904E+03  0.7546771E-02  0.1024726E+00
         21   -1    0    0  502  501  0.00000000000E+00  0.00000000000E+00  0.20893279215E+03  0.20893279215E+03  0.00000000000E+00 0.  1.
         21   -1    0    0  501  502 -0.00000000000E+00 -0.00000000000E+00 -0.25340114210E+03  0.25340114210E+03  0.00000000000E+00 0.  1.
      99926    2    1    2    0    0  0.71054273576E-14  0.00000000000E+00 -0.44468349947E+02  0.46233393425E+03  0.46019043081E+03 0.  0.
      99925    2    3    3    0    0 -0.61452162947E+02 -0.57306983381E+02  0.55378190227E+02  0.28156530213E+03  0.26296733016E+03 0.  0.
         25    1    4    4    0    0 -0.14621489265E+02 -0.59608314546E+02  0.70858900372E+01  0.13951579498E+03  0.12509000000E+03 0.  0.
         25    1    3    3    0    0  0.61452162947E+02  0.57306983381E+02 -0.99846540174E+02  0.18076863212E+03  0.12509000000E+03 0.  0.
         25    1    4    4    0    0 -0.46830673682E+02  0.23013311655E+01  0.48292300190E+02  0.14204950715E+03  0.12509000000E+03 0.  0.
<mgrwt>
<rscale>  2 0.46019043E+03</rscale>
<asrwt>0</asrwt>
<pdfrwt beam="1">  1       21 0.30725411E-01 0.46019043E+03</pdfrwt>
<pdfrwt beam="2">  1       21 0.37264874E-01 0.46019043E+03</pdfrwt>
<totfact> 0.65266803E+04</totfact>
</mgrwt>
</event>
<event>
 7    0  0.4759581E-002  0.4544006E+03  0.7546771E-02  0.1026418E+00
         21   -1    0    0  502  501  0.00000000000E+00  0.00000000000E+00  0.70037325008E+03  0.70037325008E+03  0.00000000000E+00 0.  1.
         21   -1    0    0  501  502 -0.00000000000E+00 -0.00000000000E+00 -0.73703526188E+02  0.73703526188E+02  0.00000000000E+00 0.  1.
      99926    2    1    2    0    0 -0.35527136788E-14 -0.35527136788E-14  0.62666972390E+03  0.77407677627E+03  0.45440060818E+03 0.  0.
      99925    2    3    3    0    0  0.25455188272E+02 -0.47717389378E+01  0.58121614096E+03  0.63848816169E+03  0.26302888436E+03 0.  0.
         25    1    3    3    0    0 -0.25455188272E+02  0.47717389378E+01  0.45453582940E+02  0.13558861458E+03  0.12509000000E+03 0.  0.
         25    1    4    4    0    0  0.28513389352E+02 -0.38424492777E+02  0.32016943512E+03  0.34705248926E+03  0.12509000000E+03 0.  0.
         25    1    4    4    0    0 -0.30582010800E+01  0.33652753839E+02  0.26104670583E+03  0.29143567242E+03  0.12509000000E+03 0.  0.
<mgrwt>
<rscale>  2 0.45440061E+03</rscale>
<asrwt>0</asrwt>
<pdfrwt beam="1">  1       21 0.10299606E+00 0.45440061E+03</pdfrwt>
<pdfrwt beam="2">  1       21 0.10838754E-01 0.45440061E+03</pdfrwt>
<totfact> 0.49275690E+04</totfact>
</mgrwt>
</event>
<event>
 7    0  0.4759581E-002  0.4591460E+03  0.7546771E-02  0.1025029E+00
         21   -1    0    0  502  501  0.00000000000E+00  0.00000000000E+00  0.76787816910E+02  0.76787816910E+02  0.00000000000E+00 0. -1.
         21   -1    0    0  501  502 -0.00000000000E+00 -0.00000000000E+00 -0.68635583657E+03  0.68635583657E+03  0.00000000000E+00 0. -1.
      99926    2    1    2    0    0  0.00000000000E+00 -0.35527136788E-14 -0.60956801966E+03  0.76314365348E+03  0.45914601736E+03 0.  0.
      99925    2    3    3    0    0  0.10927932424E+03  0.31111465149E+02 -0.33576015428E+03  0.44138574881E+03  0.26301445604E+03 0.  0.
         25    1    4    4    0    0  0.26883186912E+02  0.41153185723E+02 -0.13286262005E+03  0.18898749784E+03  0.12509000000E+03 0.  0.
         25    1    3    3    0    0 -0.10927932424E+03 -0.31111465149E+02 -0.27380786538E+03  0.32175790466E+03  0.12509000000E+03 0.  0.
         25    1    4    4    0    0  0.82396137326E+02 -0.10041720574E+02 -0.20289753423E+03  0.25239825097E+03  0.12509000000E+03 0.  0.
<mgrwt>
<rscale>  2 0.45914602E+03</rscale>
<asrwt>0</asrwt>
<pdfrwt beam="1">  1       21 0.11292326E-01 0.45914602E+03</pdfrwt>
<pdfrwt beam="2">  1       21 0.10093468E+00 0.45914602E+03</pdfrwt>
<totfact> 0.48016768E+04</totfact>
</mgrwt>
</event>
<event>
 7    0  0.4759581E-002  0.4650091E+03  0.7546771E-02  0.1023338E+00
         21   -1    0    0  502  501  0.00000000000E+00  0.00000000000E+00  0.22820180850E+03  0.22820180850E+03  0.00000000000E+00 0. -1.
         21   -1    0    0  501  502 -0.00000000000E+00 -0.00000000000E+00 -0.23688839624E+03  0.23688839624E+03  0.00000000000E+00 0. -1.
      99926    2    1    2    0    0 -0.71054273576E-14  0.00000000000E+00 -0.86865877440E+01  0.46509020474E+03  0.46500907705E+03 0.  0.
      99925    2    3    3    0    0  0.57275638856E+02  0.72563973523E+02 -0.85588129937E+02  0.29157540897E+03  0.26295410640E+03 0.  0.
         25    1    4    4    0    0  0.61436266273E+01  0.64373514155E+02 -0.63213866027E+02  0.15435412023E+03  0.12509000000E+03 0.  0.
         25    1    3    3    0    0 -0.57275638856E+02 -0.72563973523E+02  0.76901542193E+02  0.17351479577E+03  0.12509000000E+03 0.  0.
         25    1    4    4    0    0  0.51132012229E+02  0.81904593678E+01 -0.22374263911E+02  0.13722128874E+03  0.12509000000E+03 0.  0.
<mgrwt>
<rscale>  2 0.46500908E+03</rscale>
<asrwt>0</asrwt>
<pdfrwt beam="1">  1       21 0.33559090E-01 0.46500908E+03</pdfrwt>
<pdfrwt beam="2">  1       21 0.34836528E-01 0.46500908E+03</pdfrwt>
<totfact> 0.62657379E+04</totfact>
</mgrwt>
</event>
<event>
 7    0  0.4759581E-002  0.4569308E+03  0.7546771E-02  0.1025675E+00
         21   -1    0    0  502  501  0.00000000000E+00  0.00000000000E+00  0.52866232864E+03  0.52866232864E+03  0.00000000000E+00 0.  1.
         21   -1    0    0  501  502 -0.00000000000E+00 -0.00000000000E+00 -0.98733026429E+02  0.98733026429E+02  0.00000000000E+00 0.  1.
      99926    2    1    2    0    0  0.00000000000E+00  0.00000000000E+00  0.42992930221E+03  0.62739535507E+03  0.45693076791E+03 0.  0.
      99925    2    3    3    0    0  0.77432348407E+02  0.23997250838E+02  0.38209405052E+03  0.47084710042E+03  0.26292487883E+03 0.  0.
         25    1    4    4    0    0  0.33761254782E+02  0.32269471766E+01  0.25516182140E+03  0.28619101788E+03  0.12509000000E+03 0.  0.
         25    1    4    4    0    0  0.43671093626E+02  0.20770303661E+02  0.12693222912E+03  0.18465608255E+03  0.12509000000E+03 0.  0.
         25    1    3    3    0    0 -0.77432348407E+02 -0.23997250838E+02  0.47835251692E+02  0.15654825464E+03  0.12509000000E+03 0.  0.
<mgrwt>
<rscale>  2 0.45693077E+03</rscale>
<asrwt>0</asrwt>
<pdfrwt beam="1">  1       21 0.77744459E-01 0.45693077E+03</pdfrwt>
<pdfrwt beam="2">  1       21 0.14519563E-01 0.45693077E+03</pdfrwt>
<totfact> 0.56161930E+04</totfact>
</mgrwt>
</event>
<event>
 7    0  0.4759581E-002  0.4529502E+03  0.7546771E-02  0.1026846E+00
         21   -1    0    0  502  501  0.00000000000E+00  0.00000000000E+00  0.99446771878E+02  0.99446771878E+02  0.00000000000E+00 0.  1.
         21   -1    0    0  501  502 -0.00000000000E+00 -0.00000000000E+00 -0.51576315247E+03  0.51576315247E+03  0.00000000000E+00 0.  1.
      99926    2    1    2    0    0  0.00000000000E+00  0.00000000000E+00 -0.41631638059E+03  0.61520992434E+03  0.45295024259E+03 0.  0.
      99925    2    3    3    0    0 -0.16399999295E+02  0.62167550015E+02 -0.38571664197E+03  0.47127377060E+03  0.26303588103E+03 0.  0.
         25    1    3    3    0    0  0.16399999295E+02 -0.62167550015E+02 -0.30599738621E+02  0.14393615375E+03  0.12509000000E+03 0.  0.
         25    1    4    4    0    0  0.10048337380E+02  0.31719914674E+02 -0.12833147020E+03  0.18227341116E+03  0.12509000000E+03 0.  0.
         25    1    4    4    0    0 -0.26448336676E+02  0.30447635341E+02 -0.25738517177E+03  0.28900035944E+03  0.12509000000E+03 0.  0.
<mgrwt>
<rscale>  2 0.45295024E+03</rscale>
<asrwt>0</asrwt>
<pdfrwt beam="1">  1       21 0.14624526E-01 0.45295024E+03</pdfrwt>
<pdfrwt beam="2">  1       21 0.75847520E-01 0.45295024E+03</pdfrwt>
<totfact> 0.58696119E+04</totfact>
</mgrwt>
</event>
<event>
 7    0  0.4759581E-002  0.4586654E+03  0.7546771E-02  0.1025169E+00
         21   -1    0    0  502  501  0.00000000000E+00  0.00000000000E+00  0.45888298217E+02  0.45888298217E+02  0.00000000000E+00 0. -1.
         21   -1    0    0  501  502 -0.00000000000E+00 -0.00000000000E+00 -0.11461197615E+04  0.11461197615E+04  0.00000000000E+00 0. -1.
      99926    2    1    2    0    0 -0.26645352591E-14 -0.14210854715E-13 -0.11002314633E+04  0.11920080597E+04  0.45866539179E+03 0.  0.
      99925    2    3    3    0    0  0.72662966048E+01  0.11631857610E+03 -0.69154739473E+03  0.74900356064E+03  0.26303179367E+03 0.  0.
         25    1    4    4    0    0  0.26747634367E+02  0.86150677568E+02 -0.31777361692E+03  0.35322083022E+03  0.12509000000E+03 0.  0.
         25    1    4    4    0    0 -0.19481337762E+02  0.30167898530E+02 -0.37377377781E+03  0.39578273043E+03  0.12509000000E+03 0.  0.
         25    1    3    3    0    0 -0.72662966048E+01 -0.11631857610E+03 -0.40868406855E+03  0.44300449907E+03  0.12509000000E+03 0.  0.
<mgrwt>
<rscale>  2 0.45866539E+03</rscale>
<asrwt>0</asrwt>
<pdfrwt beam="1">  1       21 0.67482794E-02 0.45866539E+03</pdfrwt>
<pdfrwt beam="2">  1       21 0.16854702E+00 0.45866539E+03</pdfrwt>
<totfact> 0.31501087E+04</totfact>
</mgrwt>
</event>
<event>
 6    0  0.4759581E-002  0.4263807E+03  0.7546771E-02  0.1035009E+00
         21   -1    0    0  502  501  0.00000000000E+00  0.00000000000E+00  0.61106357933E+03  0.61106357933E+03  0.00000000000E+00 0. -1.
         21   -1    0    0  501  502 -0.00000000000E+00 -0.00000000000E+00 -0.74378718266E+02  0.74378718266E+02  0.00000000000E+00 0. -1.
      99926    2    1    2    0    0  0.00000000000E+00  0.44408920985E-15  0.53668486107E+03  0.68544229760E+03  0.42638070223E+03 0.  0.
         25    1    3    3    0    0  0.42533748326E+02 -0.18977317797E+02  0.11276512999E+03  0.17473620397E+03  0.12509000000E+03 0.  0.
         25    1    3    3    0    0  0.30186790722E+02  0.19889807397E+02  0.13490129458E+03  0.18749057083E+03  0.12509000000E+03 0.  0.
         25    1    3    3    0    0 -0.72720539048E+02 -0.91248959999E+00  0.28901843650E+03  0.32321552279E+03  0.12509000000E+03 0.  0.
<mgrwt>
<rscale>  2 0.42638070E+03</rscale>
<asrwt>0</asrwt>
<pdfrwt beam="1">  1       21 0.89862289E-01 0.42638070E+03</pdfrwt>
<pdfrwt beam="2">  1       21 0.10938047E-01 0.42638070E+03</pdfrwt>
<totfact> 0.67716224E+04</totfact>
</mgrwt>
</event>
<event>
 7    0  0.4759581E-002  0.4503712E+03  0.7546771E-02  0.1027611E+00
         21   -1    0    0  502  501  0.00000000000E+00  0.00000000000E+00  0.96520493192E+02  0.96520493192E+02  0.00000000000E+00 0. -1.
         21   -1    0    0  501  502 -0.00000000000E+00 -0.00000000000E+00 -0.52536559515E+03  0.52536559515E+03  0.00000000000E+00 0. -1.
      99926    2    1    2    0    0  0.14210854715E-13  0.00000000000E+00 -0.42884510196E+03  0.62188608835E+03  0.45037116404E+03 0.  0.
      99925    2    3    3    0    0 -0.99062596536E+02 -0.66789782982E+01 -0.33227104623E+03  0.43525258888E+03  0.26302616063E+03 0.  0.
         25    1    4    4    0    0 -0.72666803510E+01  0.29799849836E+01 -0.13760667594E+03  0.18613111056E+03  0.12509000000E+03 0.  0.
         25    1    3    3    0    0  0.99062596536E+02  0.66789782982E+01 -0.96574055731E+02  0.18663349947E+03  0.12509000000E+03 0.  0.
         25    1    4    4    0    0 -0.91795916185E+02 -0.96589632817E+01 -0.19466437029E+03  0.24912147832E+03  0.12509000000E+03 0.  0.
<mgrwt>
<rscale>  2 0.45037116E+03</rscale>
<asrwt>0</asrwt>
<pdfrwt beam="1">  1       21 0.14194190E-01 0.45037116E+03</pdfrwt>
<pdfrwt beam="2">  1       21 0.77259646E-01 0.45037116E+03</pdfrwt>
<totfact> 0.59495793E+04</totfact>
</mgrwt>
</event>
<event>
 7    0  0.4759581E-002  0.4561199E+03  0.7546771E-02  0.1025913E+00
         21   -1    0    0  502  501  0.00000000000E+00  0.00000000000E+00  0.69019969276E+03  0.69019969276E+03  0.00000000000E+00 0. -1.
         21   -1    0    0  501  502 -0.00000000000E+00 -0.00000000000E+00 -0.75356942354E+02  0.75356942354E+02  0.00000000000E+00 0. -1.
      99926    2    1    2    0    0  0.00000000000E+00  0.00000000000E+00  0.61484275041E+03  0.76555663512E+03  0.45611988977E+03 0.  0.
      99925    2    3    3    0    0 -0.97230362916E+02  0.82465482376E+01  0.28632306052E+03  0.40073552310E+03  0.26284275804E+03 0.  0.
         25    1    4    4    0    0 -0.46707396387E+02  0.21943307262E+02  0.91429519767E+02  0.16330938367E+03  0.12509000000E+03 0.  0.
         25    1    4    4    0    0 -0.50522966529E+02 -0.13696759024E+02  0.19489354075E+03  0.23742613942E+03  0.12509000000E+03 0.  0.
         25    1    3    3    0    0  0.97230362916E+02 -0.82465482376E+01  0.32851968989E+03  0.36482111202E+03  0.12509000000E+03 0.  0.
<mgrwt>
<rscale>  2 0.45611989E+03</rscale>
<asrwt>0</asrwt>
<pdfrwt beam="1">  1       21 0.10149995E+00 0.45611989E+03</pdfrwt>
<pdfrwt beam="2">  1       21 0.11081904E-01 0.45611989E+03</pdfrwt>
<totfact> 0.49043134E+04</totfact>
</mgrwt>
</event>
<event>
 7    0  0.4759581E-002  0.4616622E+03  0.7546771E-02  0.1024300E+00
         21   -1    0    0  502  501  0.00000000000E+00  0.00000000000E+00  0.19942184934E+03  0.19942184934E+03  0.00000000000E+00 0. -1.
         21   -1    0    0  501  502 -0.00000000000E+00 -0.00000000000E+00 -0.26718740232E+03  0.26718740232E+03  0.00000000000E+00 0. -1.
      99926    2    1    2    0    0  0.00000000000E+00  0.00000000000E+00 -0.67765552982E+02  0.46660925167E+03  0.46166223971E+03 0.  0.
      99925    2    3    3    0    0 -0.34826643341E+02  0.64911974222E+02  0.52499223813E+02  0.27809510333E+03  0.26297197287E+03 0.  0.
         25    1    3    3    0    0  0.34826643341E+02 -0.64911974222E+02 -0.12026477679E+03  0.18851414833E+03  0.12509000000E+03 0.  0.
         25    1    4    4    0    0 -0.23302230884E+02  0.48215926424E+02 -0.10690095615E+02  0.13649013067E+03  0.12509000000E+03 0.  0.
         25    1    4    4    0    0 -0.11524412457E+02  0.16696047797E+02  0.63189319428E+02  0.14160497267E+03  0.12509000000E+03 0.  0.
<mgrwt>
<rscale>  2 0.46166224E+03</rscale>
<asrwt>0</asrwt>
<pdfrwt beam="1">  1       21 0.29326743E-01 0.46166224E+03</pdfrwt>
<pdfrwt beam="2">  1       21 0.39292265E-01 0.46166224E+03</pdfrwt>
<totfact> 0.64221111E+04</totfact>
</mgrwt>
</event>
<event>
 7    0  0.4759581E-002  0.4588072E+03  0.7546771E-02  0.1025128E+00
         21   -1    0    0  502  501  0.00000000000E+00  0.00000000000E+00  0.36976678592E+03  0.36976678592E+03  0.00000000000E+00 0. -1.
         21   -1    0    0  501  502 -0.00000000000E+00 -0.00000000000E+00 -0.14232214873E+03  0.14232214873E+03  0.00000000000E+00 0. -1.
      99926    2    1    2    0    0  0.14210854715E-13  0.17763568394E-14  0.22744463719E+03  0.51208893465E+03  0.45880716429E+03 0.  0.
      99925    2    3    3    0    0 -0.88719589090E+02 -0.14918462027E+02  0.22561210729E+03  0.35799613059E+03  0.26299559039E+03 0.  0.
         25    1    4    4    0    0 -0.35202426158E+02 -0.18149640552E+02  0.61829556105E+02  0.14504834493E+03  0.12509000000E+03 0.  0.
         25    1    3    3    0    0  0.88719589090E+02  0.14918462027E+02  0.18325298997E+01  0.15409280406E+03  0.12509000000E+03 0.  0.
         25    1    4    4    0    0 -0.53517162932E+02  0.32311785255E+01  0.16378255119E+03  0.21294778566E+03  0.12509000000E+03 0.  0.
<mgrwt>
<rscale>  2 0.45880716E+03</rscale>
<asrwt>0</asrwt>
<pdfrwt beam="1">  1       21 0.54377469E-01 0.45880716E+03</pdfrwt>
<pdfrwt beam="2">  1       21 0.20929728E-01 0.45880716E+03</pdfrwt>
<totfact> 0.62518987E+04</totfact>
</mgrwt>
</event>
<event>
 7    0  0.4759581E-002  0.4585256E+03  0.7546771E-02  0.1025210E+00
         21   -1    0    0  502  501  0.00000000000E+00  0.00000000000E+00  0.79126842022E+03  0.79126842022E+03  0.00000000000E+00 0.  1.
         21   -1    0    0  501  502 -0.00000000000E+00 -0.00000000000E+00 -0.66426803172E+02  0.66426803172E+02  0.00000000000E+00 0.  1.
      99926    2    1    2    0    0  0.00000000000E+00  0.00000000000E+00  0.72484161705E+03  0.85769522339E+03  0.45852560062E+03 0.  0.
      99925    2    3    3    0    0 -0.76634439734E+02  0.87164144107E+02  0.47567734558E+03  0.55570057502E+03  0.26279986036E+03 0.  0.
         25    1    4    4    0    0 -0.95340015651E+01  0.64855057958E+02  0.20020268180E+03  0.24500142373E+03  0.12509000000E+03 0.  0.
         25    1    4    4    0    0 -0.67100438169E+02  0.22309086150E+02  0.27547466378E+03  0.31069915129E+03  0.12509000000E+03 0.  0.
         25    1    3    3    0    0  0.76634439734E+02 -0.87164144107E+02  0.24916427147E+03  0.30199464837E+03  0.12509000000E+03 0.  0.
<mgrwt>
<rscale>  2 0.45852560E+03</rscale>
<asrwt>0</asrwt>
<pdfrwt beam="1">  1       21 0.11636300E+00 0.45852560E+03</pdfrwt>
<pdfrwt beam="2">  1       21 0.97686480E-02 0.45852560E+03</pdfrwt>
<totfact> 0.43871192E+04</totfact>
</mgrwt>
</event>
<event>
 7    0  0.4759581E-002  0.4141122E+03  0.7546771E-02  0.1039000E+00
         21   -1    0    0  502  501  0.00000000000E+00  0.00000000000E+00  0.41322030135E+02  0.41322030135E+02  0.00000000000E+00 0.  1.
         21   -1    0    0  501  502 -0.00000000000E+00 -0.00000000000E+00 -0.10375152711E+04  0.10375152711E+04  0.00000000000E+00 0.  1.
      99926    2    1    2    0    0  0.00000000000E+00  0.14210854715E-13 -0.99619324094E+03  0.10788373012E+04  0.41411224226E+03 0.  0.
      99925    2    3    3    0    0 -0.18487422858E+02 -0.63539378078E+02 -0.60486327614E+03  0.66270548697E+03  0.26256416791E+03 0.  0.
         25    1    3    3    0    0  0.18487422858E+02  0.63539378078E+02 -0.39132996480E+03  0.41613181424E+03  0.12509000000E+03 0.  0.
         25    1    4    4    0    0 -0.25217209378E+02 -0.67316264228E+02 -0.35423801102E+03  0.38249112882E+03  0.12509000000E+03 0.  0.
         25    1    4    4    0    0  0.67297865201E+01  0.37768861499E+01 -0.25062526512E+03  0.28021435815E+03  0.12509000000E+03 0.  0.
<mgrwt>
<rscale>  2 0.41411224E+03</rscale>
<asrwt>0</asrwt>
<pdfrwt beam="1">  1       21 0.60767688E-02 0.41411224E+03</pdfrwt>
<pdfrwt beam="2">  1       21 0.15257578E+00 0.41411224E+03</pdfrwt>
<totfact> 0.50534243E+04</totfact>
</mgrwt>
</event>
<event>
 7    0  0.4759581E-002  0.4518888E+03  0.7546771E-02  0.1027160E+00
         21   -1    0    0  502  501  0.00000000000E+00  0.00000000000E+00  0.10119820163E+04  0.10119820163E+04  0.00000000000E+00 0. -1.
         21   -1    0    0  501  502 -0.00000000000E+00 -0.00000000000E+00 -0.50446429092E+02  0.50446429092E+02  0.00000000000E+00 0. -1.
      99926    2    1    2    0    0  0.00000000000E+00  0.00000000000E+00  0.96153558716E+03  0.10624284453E+04  0.45188883158E+03 0.  0.
      99925    2    3    3    0    0  0.95637714343E+02  0.54694803192E+02  0.61839421342E+03  0.68094239793E+03  0.26293164930E+03 0.  0.
         25    1    3    3    0    0 -0.95637714343E+02 -0.54694803192E+02  0.34314137375E+03  0.38148604742E+03  0.12509000000E+03 0.  0.
         25    1    4    4    0    0  0.51215550506E+01  0.19528597270E+02  0.27821638256E+03  0.30571139996E+03  0.12509000000E+03 0.  0.
         25    1    4    4    0    0  0.90516159293E+02  0.35166205922E+02  0.34017783085E+03  0.37523099797E+03  0.12509000000E+03 0.  0.
<mgrwt>
<rscale>  2 0.45188883E+03</rscale>
<asrwt>0</asrwt>
<pdfrwt beam="1">  1       21 0.14882087E+00 0.45188883E+03</pdfrwt>
<pdfrwt beam="2">  1       21 0.74185931E-02 0.45188883E+03</pdfrwt>
<totfact> 0.37732495E+04</totfact>
</mgrwt>
</event>
<event>
 7    0  0.4759581E-002  0.4318232E+03  0.7546771E-02  0.1033286E+00
         21   -1    0    0  502  501  0.00000000000E+00  0.00000000000E+00  0.27416667766E+04  0.27416667766E+04  0.00000000000E+00 0.  1.
         21   -1    0    0  501  502 -0.00000000000E+00 -0.00000000000E+00 -0.17003458047E+02  0.17003458047E+02  0.00000000000E+00 0.  1.
      99926    2    1    2    0    0  0.00000000000E+00  0.71054273576E-14  0.27246633185E+04  0.27586702346E+04  0.43182318611E+03 0.  0.
      99925    2    3    3    0    0  0.44435250686E+02 -0.32903852185E+02  0.22050499652E+04  0.22213596167E+04  0.26293733671E+03 0.  0.
         25    1    4    4    0    0  0.12321699105E+02 -0.45730392546E+02  0.13349211237E+04  0.13416053845E+04  0.12509000000E+03 0.  0.
         25    1    4    4    0    0  0.32113551581E+02  0.12826540361E+02  0.87012884144E+03  0.87975423224E+03  0.12509000000E+03 0.  0.
         25    1    3    3    0    0 -0.44435250686E+02  0.32903852185E+02  0.51961335336E+03  0.53731061788E+03  0.12509000000E+03 0.  0.
<mgrwt>
<rscale>  2 0.43182319E+03</rscale>
<asrwt>0</asrwt>
<pdfrwt beam="1">  1       21 0.40318599E+00 0.43182319E+03</pdfrwt>
<pdfrwt beam="2">  1       21 0.25005104E-02 0.43182319E+03</pdfrwt>
<totfact> 0.58095426E+03</totfact>
</mgrwt>
</event>
<event>
 7    0  0.4759581E-002  0.4585684E+03  0.7546771E-02  0.1025197E+00
         21   -1    0    0  502  501  0.00000000000E+00  0.00000000000E+00  0.13095565397E+03  0.13095565397E+03  0.00000000000E+00 0.  1.
         21   -1    0    0  501  502 -0.00000000000E+00 -0.00000000000E+00 -0.40144303151E+03  0.40144303151E+03  0.00000000000E+00 0.  1.
      99926    2    1    2    0    0  0.00000000000E+00  0.00000000000E+00 -0.27048737755E+03  0.53239868548E+03  0.45856835792E+03 0.  0.
      99925    2    3    3    0    0  0.41089274911E+02 -0.96929432194E+02 -0.22509394967E+03  0.36271747045E+03  0.26422156206E+03 0.  0.
         25    1    4    4    0    0  0.43084989567E+02 -0.50380875175E+02 -0.69496131768E+02  0.15770786074E+03  0.12509000000E+03 0.  0.
         25    1    4    4    0    0 -0.19957146557E+01 -0.46548557019E+02 -0.15559781790E+03  0.20500960971E+03  0.12509000000E+03 0.  0.
         25    1    3    3    0    0 -0.41089274911E+02  0.96929432194E+02 -0.45393427873E+02  0.16968121502E+03  0.12509000000E+03 0.  0.
<mgrwt>
<rscale>  2 0.45856836E+03</rscale>
<asrwt>0</asrwt>
<pdfrwt beam="1">  1       21 0.19258185E-01 0.45856836E+03</pdfrwt>
<pdfrwt beam="2">  1       21 0.59035738E-01 0.45856836E+03</pdfrwt>
<totfact> 0.61292498E+04</totfact>
</mgrwt>
</event>
<event>
 7    0  0.4759581E-002  0.4583005E+03  0.7546771E-02  0.1025275E+00
         21   -1    0    0  502  501  0.00000000000E+00  0.00000000000E+00  0.71330391313E+02  0.71330391313E+02  0.00000000000E+00 0. -1.
         21   -1    0    0  501  502 -0.00000000000E+00 -0.00000000000E+00 -0.73614951177E+03  0.73614951177E+03  0.00000000000E+00 0. -1.
      99926    2    1    2    0    0  0.00000000000E+00  0.00000000000E+00 -0.66481912046E+03  0.80747990308E+03  0.45830048108E+03 0.  0.
      99925    2    3    3    0    0 -0.69096670642E+02  0.91204558923E+02 -0.38217345131E+03  0.47789121419E+03  0.26311754834E+03 0.  0.
         25    1    4    4    0    0 -0.12017702898E+02  0.80134934229E+01 -0.17867738261E+03  0.21859038500E+03  0.12509000000E+03 0.  0.
         25    1    3    3    0    0  0.69096670642E+02 -0.91204558923E+02 -0.28264566915E+03  0.32958868890E+03  0.12509000000E+03 0.  0.
         25    1    4    4    0    0 -0.57078967744E+02  0.83191065500E+02 -0.20349606870E+03  0.25930082918E+03  0.12509000000E+03 0.  0.
<mgrwt>
<rscale>  2 0.45830048E+03</rscale>
<asrwt>0</asrwt>
<pdfrwt beam="1">  1       21 0.10489764E-01 0.45830048E+03</pdfrwt>
<pdfrwt beam="2">  1       21 0.10825728E+00 0.45830048E+03</pdfrwt>
<totfact> 0.46196966E+04</totfact>
</mgrwt>
</event>
<event>
 7    0  0.4759581E-002  0.4575068E+03  0.7546771E-02  0.1025507E+00
         21   -1    0    0  502  501  0.00000000000E+00  0.00000000000E+00  0.12232575396E+03  0.12232575396E+03  0.00000000000E+00 0.  1.
         21   -1    0    0  501  502 -0.00000000000E+00 -0.00000000000E+00 -0.42777673897E+03  0.42777673897E+03  0.00000000000E+00 0.  1.
      99926    2    1    2    0    0 -0.35527136788E-14  0.14210854715E-13 -0.30545098501E+03  0.55010249293E+03  0.45750677426E+03 0.  0.
      99925    2    3    3    0    0  0.28084737475E+02 -0.94967067328E+02 -0.12031904229E+03  0.30570764710E+03  0.26300759913E+03 0.  0.
         25    1    4    4    0    0  0.45673496920E+02 -0.21485132707E+02 -0.58800314646E+02  0.14714844325E+03  0.12509000000E+03 0.  0.
         25    1    4    4    0    0 -0.17588759445E+02 -0.73481934620E+02 -0.61518727640E+02  0.15855920385E+03  0.12509000000E+03 0.  0.
         25    1    3    3    0    0 -0.28084737475E+02  0.94967067328E+02 -0.18513194272E+03  0.24439484583E+03  0.12509000000E+03 0.  0.
<mgrwt>
<rscale>  2 0.45750677E+03</rscale>
<asrwt>0</asrwt>
<pdfrwt beam="1">  1       21 0.17989082E-01 0.45750677E+03</pdfrwt>
<pdfrwt beam="2">  1       21 0.62908343E-01 0.45750677E+03</pdfrwt>
<totfact> 0.60647904E+04</totfact>
</mgrwt>
</event>
<event>
 7    0  0.4759581E-002  0.4482715E+03  0.7546771E-02  0.1028239E+00
         21   -1    0    0  502  501  0.00000000000E+00  0.00000000000E+00  0.11715717828E+04  0.11715717828E+04  0.00000000000E+00 0. -1.
         21   -1    0    0  501  502 -0.00000000000E+00 -0.00000000000E+00 -0.42879860955E+02  0.42879860955E+02  0.00000000000E+00 0. -1.
      99926    2    1    2    0    0  0.00000000000E+00  0.00000000000E+00  0.11286919219E+04  0.12144516438E+04  0.44827150321E+03 0.  0.
      99925    2    3    3    0    0  0.73483254106E+02 -0.41976921213E+02  0.89127969805E+03  0.93307303289E+03  0.26283822781E+03 0.  0.
         25    1    4    4    0    0  0.48990430858E+02 -0.60422322135E+02  0.46870469514E+03  0.49130694954E+03  0.12509000000E+03 0.  0.
         25    1    3    3    0    0 -0.73483254106E+02  0.41976921213E+02  0.23741222382E+03  0.28137861090E+03  0.12509000000E+03 0.  0.
         25    1    4    4    0    0  0.24492823248E+02  0.18445400922E+02  0.42257500291E+03  0.44176608335E+03  0.12509000000E+03 0.  0.
<mgrwt>
<rscale>  2 0.44827150E+03</rscale>
<asrwt>0</asrwt>
<pdfrwt beam="1">  1       21 0.17228995E+00 0.44827150E+03</pdfrwt>
<pdfrwt beam="2">  1       21 0.63058627E-02 0.44827150E+03</pdfrwt>
<totfact> 0.33418552E+04</totfact>
</mgrwt>
</event>
<event>
 7    0  0.4759581E-002  0.4606479E+03  0.7546771E-02  0.1024593E+00
         21   -1    0    0  502  501  0.00000000000E+00  0.00000000000E+00  0.97496697583E+02  0.97496697583E+02  0.00000000000E+00 0.  1.
         21   -1    0    0  501  502 -0.00000000000E+00 -0.00000000000E+00 -0.54411202368E+03  0.54411202368E+03  0.00000000000E+00 0.  1.
      99926    2    1    2    0    0  0.00000000000E+00  0.00000000000E+00 -0.44661532610E+03  0.64160872126E+03  0.46064791511E+03 0.  0.
      99925    2    3    3    0    0  0.52048692088E+02 -0.97166271306E+02 -0.21930315343E+03  0.35970681887E+03  0.26295393477E+03 0.  0.
         25    1    3    3    0    0 -0.52048692088E+02  0.97166271306E+02 -0.22731217267E+03  0.28190190239E+03  0.12509000000E+03 0.  0.
         25    1    4    4    0    0  0.64185562174E+02 -0.46913783623E+02 -0.95836597961E+02  0.17650170281E+03  0.12509000000E+03 0.  0.
         25    1    4    4    0    0 -0.12136870086E+02 -0.50252487683E+02 -0.12346655547E+03  0.18320511606E+03  0.12509000000E+03 0.  0.
<mgrwt>
<rscale>  2 0.46064792E+03</rscale>
<asrwt>0</asrwt>
<pdfrwt beam="1">  1       21 0.14337750E-01 0.46064792E+03</pdfrwt>
<pdfrwt beam="2">  1       21 0.80016473E-01 0.46064792E+03</pdfrwt>
<totfact> 0.53751430E+04</totfact>
</mgrwt>
</event>
<event>
 7    0  0.4759581E-002  0.4583713E+03  0.7546771E-02  0.1025255E+00
         21   -1    0    0  502  501  0.00000000000E+00  0.00000000000E+00  0.73738748003E+02  0.73738748003E+02  0.00000000000E+00 0. -1.
         21   -1    0    0  501  502 -0.00000000000E+00 -0.00000000000E+00 -0.71232658878E+03  0.71232658878E+03  0.00000000000E+00 0. -1.
      99926    2    1    2    0    0  0.00000000000E+00  0.00000000000E+00 -0.63858784078E+03  0.78606533679E+03  0.45837133779E+03 0.  0.
      99925    2    3    3    0    0  0.56992269252E+02 -0.89371374557E+02 -0.48539865634E+03  0.56167773536E+03  0.26198217778E+03 0.  0.
         25    1    4    4    0    0  0.12596611949E+02 -0.80581985066E+02 -0.24473741840E+03  0.28669852287E+03  0.12509000000E+03 0.  0.
         25    1    3    3    0    0 -0.56992269252E+02  0.89371374557E+02 -0.15318918444E+03  0.22438760143E+03  0.12509000000E+03 0.  0.
         25    1    4    4    0    0  0.44395657302E+02 -0.87893894910E+01 -0.24066123794E+03  0.27497921249E+03  0.12509000000E+03 0.  0.
<mgrwt>
<rscale>  2 0.45837134E+03</rscale>
<asrwt>0</asrwt>
<pdfrwt beam="1">  1       21 0.10843934E-01 0.45837134E+03</pdfrwt>
<pdfrwt beam="2">  1       21 0.10475390E+00 0.45837134E+03</pdfrwt>
<totfact> 0.47185239E+04</totfact>
</mgrwt>
</event>
<event>
 7    0  0.4759581E-002  0.4544839E+03  0.7546771E-02  0.1026393E+00
         21   -1    0    0  502  501  0.00000000000E+00  0.00000000000E+00  0.27804400574E+03  0.27804400574E+03  0.00000000000E+00 0.  1.
         21   -1    0    0  501  502 -0.00000000000E+00 -0.00000000000E+00 -0.18572204711E+03  0.18572204711E+03  0.00000000000E+00 0.  1.
      99926    2    1    2    0    0  0.00000000000E+00  0.00000000000E+00  0.92321958621E+02  0.46376605285E+03  0.45448389161E+03 0.  0.
      99925    2    3    3    0    0  0.10680098550E+03 -0.44846212911E+01  0.95023965174E+02  0.29920186698E+03  0.26280342637E+03 0.  0.
         25    1    4    4    0    0  0.46430576492E+02  0.35692821206E+02  0.33881366286E+02  0.14221543869E+03  0.12509000000E+03 0.  0.
         25    1    4    4    0    0  0.60370409008E+02 -0.40177442497E+02  0.61142598888E+02  0.15698642829E+03  0.12509000000E+03 0.  0.
         25    1    3    3    0    0 -0.10680098550E+03  0.44846212911E+01 -0.27020065527E+01  0.16456418587E+03  0.12509000000E+03 0.  0.
<mgrwt>
<rscale>  2 0.45448389E+03</rscale>
<asrwt>0</asrwt>
<pdfrwt beam="1">  1       21 0.40888825E-01 0.45448389E+03</pdfrwt>
<pdfrwt beam="2">  1       21 0.27312066E-01 0.45448389E+03</pdfrwt>
<totfact> 0.68181247E+04</totfact>
</mgrwt>
</event>
<event>
 7    0  0.4759581E-002  0.4608659E+03  0.7546771E-02  0.1024530E+00
         21   -1    0    0  502  501  0.00000000000E+00  0.00000000000E+00  0.90359438952E+02  0.90359438952E+02  0.00000000000E+00 0.  1.
         21   -1    0    0  501  502 -0.00000000000E+00 -0.00000000000E+00 -0.58764580559E+03  0.58764580559E+03  0.00000000000E+00 0.  1.
      99926    2    1    2    0    0 -0.14210854715E-13  0.00000000000E+00 -0.49728636664E+03  0.67800524454E+03  0.46086590369E+03 0.  0.
      99925    2    3    3    0    0 -0.93921211088E+02  0.65712269636E+02 -0.35621871460E+03  0.45735419237E+03  0.26294826178E+03 0.  0.
         25    1    3    3    0    0  0.93921211088E+02 -0.65712269636E+02 -0.14106765204E+03  0.22065105217E+03  0.12509000000E+03 0.  0.
         25    1    4    4    0    0 -0.51714149365E+02 -0.80359892330E+01 -0.17167413018E+03  0.21876573187E+03  0.12509000000E+03 0.  0.
         25    1    4    4    0    0 -0.42207061723E+02  0.73748258869E+02 -0.18454458441E+03  0.23858846050E+03  0.12509000000E+03 0.  0.
<mgrwt>
<rscale>  2 0.46086590E+03</rscale>
<asrwt>0</asrwt>
<pdfrwt beam="1">  1       21 0.13288153E-01 0.46086590E+03</pdfrwt>
<pdfrwt beam="2">  1       21 0.86418501E-01 0.46086590E+03</pdfrwt>
<totfact> 0.51682956E+04</totfact>
</mgrwt>
</event>
<event>
 7    0  0.4759581E-002  0.4594724E+03  0.7546771E-02  0.1024934E+00
         21   -1    0    0  502  501  0.00000000000E+00  0.00000000000E+00  0.31779128477E+02  0.31779128477E+02  0.00000000000E+00 0.  1.
         21   -1    0    0  501  502 -0.00000000000E+00 -0.00000000000E+00 -0.16607982230E+04  0.16607982230E+04  0.00000000000E+00 0.  1.
      99926    2    1    2    0    0  0.00000000000E+00  0.00000000000E+00 -0.16290190946E+04  0.16925773515E+04  0.45947239353E+03 0.  0.
      99925    2    3    3    0    0  0.83975064619E+02 -0.73543645787E+02 -0.11538822154E+04  0.11887291190E+04  0.26300622076E+03 0.  0.
         25    1    3    3    0    0 -0.83975064619E+02  0.73543645787E+02 -0.47513687916E+03  0.50384823246E+03  0.12509000000E+03 0.  0.
         25    1    4    4    0    0  0.36703403254E+02 -0.76311558406E+02 -0.65895911254E+03  0.67605119174E+03  0.12509000000E+03 0.  0.
         25    1    4    4    0    0  0.47271661365E+02  0.27679126185E+01 -0.49492310285E+03  0.51267792731E+03  0.12509000000E+03 0.  0.
<mgrwt>
<rscale>  2 0.45947239E+03</rscale>
<asrwt>0</asrwt>
<pdfrwt beam="1">  1       21 0.46733995E-02 0.45947239E+03</pdfrwt>
<pdfrwt beam="2">  1       21 0.24423513E+00 0.45947239E+03</pdfrwt>
<totfact> 0.18756639E+04</totfact>
</mgrwt>
</event>
<event>
 7    0  0.4759581E-002  0.4563715E+03  0.7546771E-02  0.1025839E+00
         21   -1    0    0  502  501  0.00000000000E+00  0.00000000000E+00  0.47993155107E+03  0.47993155107E+03  0.00000000000E+00 0. -1.
         21   -1    0    0  501  502 -0.00000000000E+00 -0.00000000000E+00 -0.10849200059E+03  0.10849200059E+03  0.00000000000E+00 0. -1.
      99926    2    1    2    0    0  0.00000000000E+00  0.00000000000E+00  0.37143955047E+03  0.58842355166E+03  0.45637148957E+03 0.  0.
      99925    2    3    3    0    0  0.10723477770E+03 -0.35033320633E+02  0.20376688817E+03  0.35075095987E+03  0.26225685889E+03 0.  0.
         25    1    4    4    0    0  0.15921504137E+02 -0.27633304798E+02  0.10962951730E+03  0.16936124997E+03  0.12509000000E+03 0.  0.
         25    1    3    3    0    0 -0.10723477770E+03  0.35033320633E+02  0.16767266230E+03  0.23767259179E+03  0.12509000000E+03 0.  0.
         25    1    4    4    0    0  0.91313273564E+02 -0.74000158349E+01  0.94137370869E+02  0.18138970990E+03  0.12509000000E+03 0.  0.
<mgrwt>
<rscale>  2 0.45637149E+03</rscale>
<asrwt>0</asrwt>
<pdfrwt beam="1">  1       21 0.70578168E-01 0.45637149E+03</pdfrwt>
<pdfrwt beam="2">  1       21 0.15954706E-01 0.45637149E+03</pdfrwt>
<totfact> 0.58757016E+04</totfact>
</mgrwt>
</event>
<event>
 7    0  0.4759581E-002  0.4527024E+03  0.7546771E-02  0.1026919E+00
         21   -1    0    0  502  501  0.00000000000E+00  0.00000000000E+00  0.62627351152E+03  0.62627351152E+03  0.00000000000E+00 0.  1.
         21   -1    0    0  501  502 -0.00000000000E+00 -0.00000000000E+00 -0.81809084756E+02  0.81809084756E+02  0.00000000000E+00 0.  1.
      99926    2    1    2    0    0 -0.35527136788E-14  0.00000000000E+00  0.54446442676E+03  0.70808259627E+03  0.45270238693E+03 0.  0.
      99925    2    3    3    0    0 -0.25968482565E+02  0.43421392974E+02  0.18881933176E+03  0.32770026078E+03  0.26301129522E+03 0.  0.
         25    1    3    3    0    0  0.25968482565E+02 -0.43421392974E+02  0.35564509501E+03  0.38038233549E+03  0.12509000000E+03 0.  0.
         25    1    4    4    0    0  0.12463061973E+02 -0.18877266318E+01  0.63128562093E+02  0.14068267440E+03  0.12509000000E+03 0.  0.
         25    1    4    4    0    0 -0.38431544538E+02  0.45309119605E+02  0.12569076966E+03  0.18701758637E+03  0.12509000000E+03 0.  0.
<mgrwt>
<rscale>  2 0.45270239E+03</rscale>
<asrwt>0</asrwt>
<pdfrwt beam="1">  1       21 0.92099043E-01 0.45270239E+03</pdfrwt>
<pdfrwt beam="2">  1       21 0.12030748E-01 0.45270239E+03</pdfrwt>
<totfact> 0.53425607E+04</totfact>
</mgrwt>
</event>
<event>
 7    0  0.4759581E-002  0.4287077E+03  0.7546771E-02  0.1034269E+00
         21   -1    0    0  502  501  0.00000000000E+00  0.00000000000E+00  0.26217968246E+02  0.26217968246E+02  0.00000000000E+00 0.  1.
         21   -1    0    0  501  502 -0.00000000000E+00 -0.00000000000E+00 -0.17525219896E+04  0.17525219896E+04  0.00000000000E+00 0.  1.
      99926    2    1    2    0    0  0.14210854715E-13  0.35527136788E-14 -0.17263040214E+04  0.17787399579E+04  0.42870766672E+03 0.  0.
      99925    2    3    3    0    0  0.79677255091E+02 -0.30984141460E+02 -0.10684936459E+04  0.11037062697E+04  0.26302162727E+03 0.  0.
         25    1    4    4    0    0  0.51947756536E+01  0.75574700792E+01 -0.52002568996E+03  0.53493768550E+03  0.12509000000E+03 0.  0.
         25    1    4    4    0    0  0.74482479437E+02 -0.38541611540E+02 -0.54846795594E+03  0.56876858419E+03  0.12509000000E+03 0.  0.
         25    1    3    3    0    0 -0.79677255091E+02  0.30984141460E+02 -0.65781037550E+03  0.67503368820E+03  0.12509000000E+03 0.  0.
<mgrwt>
<rscale>  2 0.42870767E+03</rscale>
<asrwt>0</asrwt>
<pdfrwt beam="1">  1       21 0.38555853E-02 0.42870767E+03</pdfrwt>
<pdfrwt beam="2">  1       21 0.25772371E+00 0.42870767E+03</pdfrwt>
<totfact> 0.21790517E+04</totfact>
</mgrwt>
</event>
<event>
 7    0  0.4759581E-002  0.4488234E+03  0.7546771E-02  0.1028073E+00
         21   -1    0    0  502  501  0.00000000000E+00  0.00000000000E+00  0.55548795204E+02  0.55548795204E+02  0.00000000000E+00 0.  1.
         21   -1    0    0  501  502 -0.00000000000E+00 -0.00000000000E+00 -0.90660128869E+03  0.90660128869E+03  0.00000000000E+00 0.  1.
      99926    2    1    2    0    0 -0.35527136788E-14  0.00000000000E+00 -0.85105249349E+03  0.96215008390E+03  0.44882339207E+03 0.  0.
      99925    2    3    3    0    0 -0.31967276765E+02 -0.10085966861E+03 -0.50077459309E+03  0.57545033584E+03  0.26300820596E+03 0.  0.
         25    1    3    3    0    0  0.31967276765E+02  0.10085966861E+03 -0.35027790040E+03  0.38669974805E+03  0.12509000000E+03 0.  0.
         25    1    4    4    0    0 -0.53524173089E+02 -0.47021715715E+02 -0.28677654970E+03  0.32088031478E+03  0.12509000000E+03 0.  0.
         25    1    4    4    0    0  0.21556896324E+02 -0.53837952897E+02 -0.21399804338E+03  0.25457002106E+03  0.12509000000E+03 0.  0.
<mgrwt>
<rscale>  2 0.44882339E+03</rscale>
<asrwt>0</asrwt>
<pdfrwt beam="1">  1       21 0.81689412E-02 0.44882339E+03</pdfrwt>
<pdfrwt beam="2">  1       21 0.13332371E+00 0.44882339E+03</pdfrwt>
<totfact> 0.42676715E+04</totfact>
</mgrwt>
</event>
<event>
 7    0  0.4759581E-002  0.4680715E+03  0.7546771E-02  0.1022466E+00
         21   -1    0    0  502  501  0.00000000000E+00  0.00000000000E+00  0.94715957376E+02  0.94715957376E+02  0.00000000000E+00 0. -1.
         21   -1    0    0  501  502 -0.00000000000E+00 -0.00000000000E+00 -0.57828398984E+03  0.57828398984E+03  0.00000000000E+00 0. -1.
      99926    2    1    2    0    0  0.00000000000E+00 -0.31086244690E-14 -0.48356803247E+03  0.67299994722E+03  0.46807145494E+03 0.  0.
      99925    2    3    3    0    0  0.11495674817E+03  0.27553897671E+01 -0.23026728698E+03  0.36798941972E+03  0.26300293430E+03 0.  0.
         25    1    3    3    0    0 -0.11495674817E+03 -0.27553897671E+01 -0.25330074549E+03  0.30501052750E+03  0.12509000000E+03 0.  0.
         25    1    4    4    0    0  0.49702238091E+02 -0.37209996417E+02 -0.12564839979E+03  0.18785612786E+03  0.12509000000E+03 0.  0.
         25    1    4    4    0    0  0.65254510079E+02  0.39965386185E+02 -0.10461888719E+03  0.18013329185E+03  0.12509000000E+03 0.  0.
<mgrwt>
<rscale>  2 0.46807145E+03</rscale>
<asrwt>0</asrwt>
<pdfrwt beam="1">  1       21 0.13928817E-01 0.46807145E+03</pdfrwt>
<pdfrwt beam="2">  1       21 0.85041762E-01 0.46807145E+03</pdfrwt>
<totfact> 0.49131883E+04</totfact>
</mgrwt>
</event>
<event>
 7    0  0.4759581E-002  0.4543973E+03  0.7546771E-02  0.1026419E+00
         21   -1    0    0  502  501  0.00000000000E+00  0.00000000000E+00  0.69872986205E+02  0.69872986205E+02  0.00000000000E+00 0. -1.
         21   -1    0    0  501  502 -0.00000000000E+00 -0.00000000000E+00 -0.73875807380E+03  0.73875807380E+03  0.00000000000E+00 0. -1.
      99926    2    1    2    0    0  0.14210854715E-13  0.17763568394E-14 -0.66888508760E+03  0.80863106000E+03  0.45439732701E+03 0.  0.
      99925    2    3    3    0    0  0.10505419890E+03  0.49418203331E+01 -0.34978967499E+03  0.45011997686E+03  0.26304822854E+03 0.  0.
         25    1    4    4    0    0  0.85804399983E+02  0.20402621515E+02 -0.15945293364E+03  0.22102354663E+03  0.12509000000E+03 0.  0.
         25    1    4    4    0    0  0.19249798919E+02 -0.15460801181E+02 -0.19033674136E+03  0.22909643023E+03  0.12509000000E+03 0.  0.
         25    1    3    3    0    0 -0.10505419890E+03 -0.49418203331E+01 -0.31909541260E+03  0.35851108315E+03  0.12509000000E+03 0.  0.
<mgrwt>
<rscale>  2 0.45439733E+03</rscale>
<asrwt>0</asrwt>
<pdfrwt beam="1">  1       21 0.10275439E-01 0.45439733E+03</pdfrwt>
<pdfrwt beam="2">  1       21 0.10864089E+00 0.45439733E+03</pdfrwt>
<totfact> 0.47574765E+04</totfact>
</mgrwt>
</event>
<event>
 7    0  0.4759581E-002  0.4479987E+03  0.7546771E-02  0.1028321E+00
         21   -1    0    0  502  501  0.00000000000E+00  0.00000000000E+00  0.34576217660E+02  0.34576217660E+02  0.00000000000E+00 0. -1.
         21   -1    0    0  501  502 -0.00000000000E+00 -0.00000000000E+00 -0.14511621881E+04  0.14511621881E+04  0.00000000000E+00 0. -1.
      99926    2    1    2    0    0  0.00000000000E+00  0.00000000000E+00 -0.14165859704E+04  0.14857384058E+04  0.44799865926E+03 0.  0.
      99925    2    3    3    0    0 -0.10455240871E+03  0.20059940346E+02 -0.90588220588E+03  0.94926897456E+03  0.26297415797E+03 0.  0.
         25    1    4    4    0    0 -0.41466199842E+02  0.48864460311E+02 -0.46314566762E+03  0.48400268465E+03  0.12509000000E+03 0.  0.
         25    1    3    3    0    0  0.10455240871E+03 -0.20059940346E+02 -0.51070376456E+03  0.53646943120E+03  0.12509000000E+03 0.  0.
         25    1    4    4    0    0 -0.63086208871E+02 -0.28804519964E+02 -0.44273653825E+03  0.46526628991E+03  0.12509000000E+03 0.  0.
<mgrwt>
<rscale>  2 0.44799866E+03</rscale>
<asrwt>0</asrwt>
<pdfrwt beam="1">  1       21 0.50847387E-02 0.44799866E+03</pdfrwt>
<pdfrwt beam="2">  1       21 0.21340617E+00 0.44799866E+03</pdfrwt>
<totfact> 0.25489133E+04</totfact>
</mgrwt>
</event>
<event>
 7    0  0.4759581E-002  0.4110847E+03  0.7546771E-02  0.1040008E+00
         21   -1    0    0  502  501  0.00000000000E+00  0.00000000000E+00  0.14920425862E+03  0.14920425862E+03  0.00000000000E+00 0. -1.
         21   -1    0    0  501  502 -0.00000000000E+00 -0.00000000000E+00 -0.28315312174E+03  0.28315312174E+03  0.00000000000E+00 0. -1.
      99926    2    1    2    0    0  0.00000000000E+00 -0.71054273576E-14 -0.13394886312E+03  0.43235738036E+03  0.41108467062E+03 0.  0.
      99925    2    3    3    0    0 -0.22560670903E+02 -0.55582308344E+02 -0.11080215110E+03  0.29171010790E+03  0.26309559763E+03 0.  0.
         25    1    3    3    0    0  0.22560670903E+02  0.55582308344E+02 -0.23146712022E+02  0.14064727246E+03  0.12509000000E+03 0.  0.
         25    1    4    4    0    0 -0.34201927961E+02 -0.57347198465E+02 -0.39276751642E+02  0.14713478300E+03  0.12509000000E+03 0.  0.
         25    1    4    4    0    0  0.11641257058E+02  0.17648901213E+01 -0.71525399456E+02  0.14457532490E+03  0.12509000000E+03 0.  0.
<mgrwt>
<rscale>  2 0.41108467E+03</rscale>
<asrwt>0</asrwt>
<pdfrwt beam="1">  1       21 0.21941803E-01 0.41108467E+03</pdfrwt>
<pdfrwt beam="2">  1       21 0.41640165E-01 0.41108467E+03</pdfrwt>
<totfact> 0.10129072E+05</totfact>
</mgrwt>
</event>
<event>
 7    0  0.4759581E-002  0.4543080E+03  0.7546771E-02  0.1026445E+00
         21   -1    0    0  502  501  0.00000000000E+00  0.00000000000E+00  0.13861876507E+04  0.13861876507E+04  0.00000000000E+00 0. -1.
         21   -1    0    0  501  502 -0.00000000000E+00 -0.00000000000E+00 -0.37223640338E+02  0.37223640338E+02  0.00000000000E+00 0. -1.
      99926    2    1    2    0    0  0.00000000000E+00  0.00000000000E+00  0.13489640103E+04  0.14234112910E+04  0.45430804769E+03 0.  0.
      99925    2    3    3    0    0  0.18358007633E+02  0.71927989645E+02  0.58466726435E+03  0.64539607512E+03  0.26303922072E+03 0.  0.
         25    1    4    4    0    0  0.26055134466E+02  0.38275059574E+02  0.20888705008E+03  0.24784099339E+03  0.12509000000E+03 0.  0.
         25    1    4    4    0    0 -0.76971268325E+01  0.33652930071E+02  0.37578021427E+03  0.39755508172E+03  0.12509000000E+03 0.  0.
         25    1    3    3    0    0 -0.18358007633E+02 -0.71927989645E+02  0.76429674598E+03  0.77801521589E+03  0.12509000000E+03 0.  0.
<mgrwt>
<rscale>  2 0.45430805E+03</rscale>
<asrwt>0</asrwt>
<pdfrwt beam="1">  1       21 0.20385109E+00 0.45430805E+03</pdfrwt>
<pdfrwt beam="2">  1       21 0.54740657E-02 0.45430805E+03</pdfrwt>
<totfact> 0.25853509E+04</totfact>
</mgrwt>
</event>
<event>
 7    0  0.4759581E-002  0.4528513E+03  0.7546771E-02  0.1026875E+00
         21   -1    0    0  502  501  0.00000000000E+00  0.00000000000E+00  0.43281053818E+03  0.43281053818E+03  0.00000000000E+00 0. -1.
         21   -1    0    0  501  502 -0.00000000000E+00 -0.00000000000E+00 -0.11845498861E+03  0.11845498861E+03  0.00000000000E+00 0. -1.
      99926    2    1    2    0    0  0.00000000000E+00 -0.14210854715E-13  0.31435554957E+03  0.55126552679E+03  0.45285126640E+03 0.  0.
      99925    2    3    3    0    0 -0.63382464446E+02 -0.81969726757E+02  0.14626467896E+03  0.31751689730E+03  0.26208252681E+03 0.  0.
         25    1    3    3    0    0  0.63382464446E+02  0.81969726757E+02  0.16809087061E+03  0.23374862948E+03  0.12509000000E+03 0.  0.
         25    1    4    4    0    0 -0.54121020437E+02 -0.27823713391E+02  0.40926449463E+02  0.14500250427E+03  0.12509000000E+03 0.  0.
         25    1    4    4    0    0 -0.92614440090E+01 -0.54146013366E+02  0.10533822950E+03  0.17251439303E+03  0.12509000000E+03 0.  0.
<mgrwt>
<rscale>  2 0.45285127E+03</rscale>
<asrwt>0</asrwt>
<pdfrwt beam="1">  1       21 0.63648608E-01 0.45285127E+03</pdfrwt>
<pdfrwt beam="2">  1       21 0.17419851E-01 0.45285127E+03</pdfrwt>
<totfact> 0.62844522E+04</totfact>
</mgrwt>
</event>
<event>
 7    0  0.4759581E-002  0.4291387E+03  0.7546771E-02  0.1034132E+00
         21   -1    0    0  502  501  0.00000000000E+00  0.00000000000E+00  0.98487395564E+03  0.98487395564E+03  0.00000000000E+00 0. -1.
         21   -1    0    0  501  502 -0.00000000000E+00 -0.00000000000E+00 -0.46747095753E+02  0.46747095753E+02  0.00000000000E+00 0. -1.
      99926    2    1    2    0    0  0.00000000000E+00  0.17763568394E-14  0.93812685989E+03  0.10316210514E+04  0.42913865875E+03 0.  0.
      99925    2    3    3    0    0 -0.12425342225E+02  0.10429355508E+02  0.39840113223E+03  0.47735168567E+03  0.26244620223E+03 0.  0.
         25    1    3    3    0    0  0.12425342225E+02 -0.10429355508E+02  0.53972572766E+03  0.55426936573E+03  0.12509000000E+03 0.  0.
         25    1    4    4    0    0 -0.31769813751E+01  0.42761590473E+02  0.17865136940E+03  0.22226665679E+03  0.12509000000E+03 0.  0.
         25    1    4    4    0    0 -0.92483608499E+01 -0.32332234965E+02  0.21974976282E+03  0.25508502888E+03  0.12509000000E+03 0.  0.
<mgrwt>
<rscale>  2 0.42913866E+03</rscale>
<asrwt>0</asrwt>
<pdfrwt beam="1">  1       21 0.14483439E+00 0.42913866E+03</pdfrwt>
<pdfrwt beam="2">  1       21 0.68745735E-02 0.42913866E+03</pdfrwt>
<totfact> 0.46698521E+04</totfact>
</mgrwt>
</event>
<event>
 7    0  0.4759581E-002  0.4540480E+03  0.7546771E-02  0.1026522E+00
         21   -1    0    0  502  501  0.00000000000E+00  0.00000000000E+00  0.92627234391E+02  0.92627234391E+02  0.00000000000E+00 0.  1.
         21   -1    0    0  501  502 -0.00000000000E+00 -0.00000000000E+00 -0.55642275464E+03  0.55642275464E+03  0.00000000000E+00 0.  1.
      99926    2    1    2    0    0  0.00000000000E+00  0.00000000000E+00 -0.46379552025E+03  0.64904998903E+03  0.45404801911E+03 0.  0.
      99925    2    3    3    0    0  0.99953043890E+02 -0.41244021403E+02 -0.33534107435E+03  0.43967058924E+03  0.26299222539E+03 0.  0.
         25    1    4    4    0    0  0.18678261200E+02 -0.19156102834E+02 -0.19784279579E+03  0.23559523268E+03  0.12509000000E+03 0.  0.
         25    1    3    3    0    0 -0.99953043890E+02  0.41244021403E+02 -0.12845444590E+03  0.20937939979E+03  0.12509000000E+03 0.  0.
         25    1    4    4    0    0  0.81274782690E+02 -0.22087918569E+02 -0.13749827856E+03  0.20407535656E+03  0.12509000000E+03 0.  0.
<mgrwt>
<rscale>  2 0.45404802E+03</rscale>
<asrwt>0</asrwt>
<pdfrwt beam="1">  1       21 0.13621652E-01 0.45404802E+03</pdfrwt>
<pdfrwt beam="2">  1       21 0.81826877E-01 0.45404802E+03</pdfrwt>
<totfact> 0.56176972E+04</totfact>
</mgrwt>
</event>
<event>
 7    0  0.4759581E-002  0.4608582E+03  0.7546771E-02  0.1024533E+00
         21   -1    0    0  502  501  0.00000000000E+00  0.00000000000E+00  0.88916575181E+02  0.88916575181E+02  0.00000000000E+00 0. -1.
         21   -1    0    0  501  502 -0.00000000000E+00 -0.00000000000E+00 -0.59716160893E+03  0.59716160893E+03  0.00000000000E+00 0. -1.
      99926    2    1    2    0    0  0.17763568394E-14  0.00000000000E+00 -0.50824503375E+03  0.68607818411E+03  0.46085817816E+03 0.  0.
      99925    2    3    3    0    0  0.73299002099E+01  0.21339426947E+02 -0.14479623427E+03  0.30104359277E+03  0.26296805265E+03 0.  0.
         25    1    4    4    0    0  0.33027571105E+02 -0.17174191028E+02 -0.69020510118E+02  0.14763845098E+03  0.12509000000E+03 0.  0.
         25    1    4    4    0    0 -0.25697670895E+02  0.38513617975E+02 -0.75775724147E+02  0.15340514179E+03  0.12509000000E+03 0.  0.
         25    1    3    3    0    0 -0.73299002099E+01 -0.21339426947E+02 -0.36344879948E+03  0.38503459134E+03  0.12509000000E+03 0.  0.
<mgrwt>
<rscale>  2 0.46085818E+03</rscale>
<asrwt>0</asrwt>
<pdfrwt beam="1">  1       21 0.13075967E-01 0.46085818E+03</pdfrwt>
<pdfrwt beam="2">  1       21 0.87817885E-01 0.46085818E+03</pdfrwt>
<totfact> 0.51259338E+04</totfact>
</mgrwt>
</event>
<event>
 7    0  0.4759581E-002  0.4557200E+03  0.7546771E-02  0.1026030E+00
         21   -1    0    0  502  501  0.00000000000E+00  0.00000000000E+00  0.10335729252E+03  0.10335729252E+03  0.00000000000E+00 0.  1.
         21   -1    0    0  501  502 -0.00000000000E+00 -0.00000000000E+00 -0.50233679807E+03  0.50233679807E+03  0.00000000000E+00 0.  1.
      99926    2    1    2    0    0  0.00000000000E+00  0.00000000000E+00 -0.39897950556E+03  0.60569409059E+03  0.45571996393E+03 0.  0.
      99925    2    3    3    0    0  0.89487841833E+02  0.46981855283E+02 -0.18142988654E+03  0.33515626811E+03  0.26305427531E+03 0.  0.
         25    1    4    4    0    0  0.68539291304E+02  0.71578375708E+01 -0.12834287460E+03  0.19201112117E+03  0.12509000000E+03 0.  0.
         25    1    4    4    0    0  0.20948550529E+02  0.39824017713E+02 -0.53087011941E+02  0.14314514694E+03  0.12509000000E+03 0.  0.
         25    1    3    3    0    0 -0.89487841833E+02 -0.46981855283E+02 -0.21754961902E+03  0.27053782249E+03  0.12509000000E+03 0.  0.
<mgrwt>
<rscale>  2 0.45571996E+03</rscale>
<asrwt>0</asrwt>
<pdfrwt beam="1">  1       21 0.15199602E-01 0.45571996E+03</pdfrwt>
<pdfrwt beam="2">  1       21 0.73873059E-01 0.45571996E+03</pdfrwt>
<totfact> 0.57998562E+04</totfact>
</mgrwt>
</event>
<event>
 7    0  0.4759581E-002  0.4344715E+03  0.7546771E-02  0.1032457E+00
         21   -1    0    0  502  501  0.00000000000E+00  0.00000000000E+00  0.40715670375E+02  0.40715670375E+02  0.00000000000E+00 0.  1.
         21   -1    0    0  501  502 -0.00000000000E+00 -0.00000000000E+00 -0.11590467936E+04  0.11590467936E+04  0.00000000000E+00 0.  1.
      99926    2    1    2    0    0  0.00000000000E+00  0.00000000000E+00 -0.11183311232E+04  0.11997624640E+04  0.43447148214E+03 0.  0.
      99925    2    3    3    0    0 -0.55944719218E+02 -0.73053872306E+02 -0.68667977842E+03  0.74102825832E+03  0.26292029528E+03 0.  0.
         25    1    4    4    0    0 -0.60929110827E+02 -0.63117072460E+02 -0.36332576781E+03  0.39414368324E+03  0.12509000000E+03 0.  0.
         25    1    3    3    0    0  0.55944719218E+02  0.73053872306E+02 -0.43165134480E+03  0.45873420565E+03  0.12509000000E+03 0.  0.
         25    1    4    4    0    0  0.49843916090E+01 -0.99367998461E+01 -0.32335401061E+03  0.34688457508E+03  0.12509000000E+03 0.  0.
<mgrwt>
<rscale>  2 0.43447148E+03</rscale>
<asrwt>0</asrwt>
<pdfrwt beam="1">  1       21 0.59875989E-02 0.43447148E+03</pdfrwt>
<pdfrwt beam="2">  1       21 0.17044805E+00 0.43447148E+03</pdfrwt>
<totfact> 0.37865156E+04</totfact>
</mgrwt>
</event>
<event>
 7    0  0.4759581E-002  0.4607548E+03  0.7546771E-02  0.1024563E+00
         21   -1    0    0  502  501  0.00000000000E+00  0.00000000000E+00  0.18876671975E+03  0.18876671975E+03  0.00000000000E+00 0. -1.
         21   -1    0    0  501  502 -0.00000000000E+00 -0.00000000000E+00 -0.28116048966E+03  0.28116048966E+03  0.00000000000E+00 0. -1.
      99926    2    1    2    0    0  0.00000000000E+00  0.00000000000E+00 -0.92393769912E+02  0.46992720941E+03  0.46075478666E+03 0.  0.
      99925    2    3    3    0    0  0.21308700651E+02  0.11649570624E+03 -0.62671339725E+02  0.29512377337E+03  0.26295443425E+03 0.  0.
         25    1    4    4    0    0  0.17961263125E+02  0.40961808506E+02  0.73575738678E+01  0.13304930936E+03  0.12509000000E+03 0.  0.
         25    1    3    3    0    0 -0.21308700651E+02 -0.11649570624E+03 -0.29722430188E+02  0.17480343604E+03  0.12509000000E+03 0.  0.
         25    1    4    4    0    0  0.33474375262E+01  0.75533897729E+02 -0.70028913593E+02  0.16207446401E+03  0.12509000000E+03 0.  0.
<mgrwt>
<rscale>  2 0.46075479E+03</rscale>
<asrwt>0</asrwt>
<pdfrwt beam="1">  1       21 0.27759812E-01 0.46075479E+03</pdfrwt>
<pdfrwt beam="2">  1       21 0.41347130E-01 0.46075479E+03</pdfrwt>
<totfact> 0.64447022E+04</totfact>
</mgrwt>
</event>
<event>
 7    0  0.4759581E-002  0.4536495E+03  0.7546771E-02  0.1026639E+00
         21   -1    0    0  502  501  0.00000000000E+00  0.00000000000E+00  0.30883067443E+02  0.30883067443E+02  0.00000000000E+00 0.  1.
         21   -1    0    0  501  502 -0.00000000000E+00 -0.00000000000E+00 -0.16659441350E+04  0.16659441350E+04  0.00000000000E+00 0.  1.
      99926    2    1    2    0    0  0.71054273576E-14  0.00000000000E+00 -0.16350610675E+04  0.16968272024E+04  0.45364949058E+03 0.  0.
      99925    2    3    3    0    0  0.39236822985E+02  0.10385664250E+03 -0.97046168958E+03  0.10115056927E+04  0.26272065937E+03 0.  0.
         25    1    4    4    0    0 -0.18326724877E+02  0.60054988218E+02 -0.51426811261E+03  0.53297436167E+03  0.12509000000E+03 0.  0.
         25    1    3    3    0    0 -0.39236822985E+02 -0.10385664250E+03 -0.66459937794E+03  0.68532150975E+03  0.12509000000E+03 0.  0.
         25    1    4    4    0    0  0.57563547863E+02  0.43801654285E+02 -0.45619357697E+03  0.47853133098E+03  0.12509000000E+03 0.  0.
<mgrwt>
<rscale>  2 0.45364949E+03</rscale>
<asrwt>0</asrwt>
<pdfrwt beam="1">  1       21 0.45416290E-02 0.45364949E+03</pdfrwt>
<pdfrwt beam="2">  1       21 0.24499171E+00 0.45364949E+03</pdfrwt>
<totfact> 0.19531716E+04</totfact>
</mgrwt>
</event>
<event>
 7    0  0.4759581E-002  0.4182593E+03  0.7546771E-02  0.1037634E+00
         21   -1    0    0  502  501  0.00000000000E+00  0.00000000000E+00  0.31326551733E+03  0.31326551733E+03  0.00000000000E+00 0. -1.
         21   -1    0    0  501  502 -0.00000000000E+00 -0.00000000000E+00 -0.13961068478E+03  0.13961068478E+03  0.00000000000E+00 0. -1.
      99926    2    1    2    0    0  0.00000000000E+00  0.00000000000E+00  0.17365483255E+03  0.45287620210E+03  0.41825931378E+03 0.  0.
      99925    2    3    3    0    0 -0.50889021592E+02  0.35196951363E+02  0.15666379165E+03  0.31228914198E+03  0.26296852792E+03 0.  0.
         25    1    4    4    0    0 -0.16218878509E+02  0.45756771615E+02  0.11145231870E+03  0.17443010524E+03  0.12509000000E+03 0.  0.
         25    1    3    3    0    0  0.50889021592E+02 -0.35196951363E+02  0.16991040895E+02  0.14058706013E+03  0.12509000000E+03 0.  0.
         25    1    4    4    0    0 -0.34670143084E+02 -0.10559820252E+02  0.45211472951E+02  0.13785903674E+03  0.12509000000E+03 0.  0.
<mgrwt>
<rscale>  2 0.41825931E+03</rscale>
<asrwt>0</asrwt>
<pdfrwt beam="1">  1       21 0.46068458E-01 0.41825931E+03</pdfrwt>
<pdfrwt beam="2">  1       21 0.20530983E-01 0.41825931E+03</pdfrwt>
<totfact> 0.93040141E+04</totfact>
</mgrwt>
</event>
<event>
 7    0  0.4759581E-002  0.4288016E+03  0.7546771E-02  0.1034239E+00
         21   -1    0    0  502  501  0.00000000000E+00  0.00000000000E+00  0.62397278694E+02  0.62397278694E+02  0.00000000000E+00 0. -1.
         21   -1    0    0  501  502 -0.00000000000E+00 -0.00000000000E+00 -0.73669387126E+03  0.73669387126E+03  0.00000000000E+00 0. -1.
      99926    2    1    2    0    0  0.00000000000E+00  0.00000000000E+00 -0.67429659256E+03  0.79909114995E+03  0.42880155222E+03 0.  0.
      99925    2    3    3    0    0  0.67123103738E+02  0.36484342437E+02 -0.36083901407E+03  0.45305678762E+03  0.26309511671E+03 0.  0.
         25    1    4    4    0    0  0.49418464328E+01  0.13070448406E+02 -0.12147893673E+03  0.17492826712E+03  0.12509000000E+03 0.  0.
         25    1    4    4    0    0  0.62181257305E+02  0.23413894031E+02 -0.23936007734E+03  0.27812852050E+03  0.12509000000E+03 0.  0.
         25    1    3    3    0    0 -0.67123103738E+02 -0.36484342437E+02 -0.31345757849E+03  0.34603436233E+03  0.12509000000E+03 0.  0.
<mgrwt>
<rscale>  2 0.42880155E+03</rscale>
<asrwt>0</asrwt>
<pdfrwt beam="1">  1       21 0.91760714E-02 0.42880155E+03</pdfrwt>
<pdfrwt beam="2">  1       21 0.10833732E+00 0.42880155E+03</pdfrwt>
<totfact> 0.59044691E+04</totfact>
</mgrwt>
</event>
<event>
 7    0  0.4759581E-002  0.4610185E+03  0.7546771E-02  0.1024486E+00
         21   -1    0    0  502  501  0.00000000000E+00  0.00000000000E+00  0.20820786923E+04  0.20820786923E+04  0.00000000000E+00 0. -1.
         21   -1    0    0  501  502 -0.00000000000E+00 -0.00000000000E+00 -0.25519936721E+02  0.25519936721E+02  0.00000000000E+00 0. -1.
      99926    2    1    2    0    0  0.00000000000E+00  0.00000000000E+00  0.20565587556E+04  0.21075986290E+04  0.46101850928E+03 0.  0.
      99925    2    3    3    0    0 -0.43547374606E+02  0.10273952550E+03  0.14739528061E+04  0.15013569409E+04  0.26283836378E+03 0.  0.
         25    1    3    3    0    0  0.43547374606E+02 -0.10273952550E+03  0.58260594950E+03  0.60624168813E+03  0.12509000000E+03 0.  0.
         25    1    4    4    0    0  0.38273704928E+01  0.18052218221E+02  0.59965382668E+03  0.61283990675E+03  0.12509000000E+03 0.  0.
         25    1    4    4    0    0 -0.47374745099E+02  0.84687307276E+02  0.87429897939E+03  0.88851703413E+03  0.12509000000E+03 0.  0.
<mgrwt>
<rscale>  2 0.46101851E+03</rscale>
<asrwt>0</asrwt>
<pdfrwt beam="1">  1       21 0.30618793E+00 0.46101851E+03</pdfrwt>
<pdfrwt beam="2">  1       21 0.37529333E-02 0.46101851E+03</pdfrwt>
<totfact> 0.11485276E+04</totfact>
</mgrwt>
</event>
<event>
 7    0  0.4759581E-002  0.4415976E+03  0.7546771E-02  0.1030258E+00
         21   -1    0    0  502  501  0.00000000000E+00  0.00000000000E+00  0.12101553722E+03  0.12101553722E+03  0.00000000000E+00 0.  1.
         21   -1    0    0  501  502 -0.00000000000E+00 -0.00000000000E+00 -0.40285821276E+03  0.40285821276E+03  0.00000000000E+00 0.  1.
      99926    2    1    2    0    0  0.00000000000E+00  0.00000000000E+00 -0.28184267554E+03  0.52387374998E+03  0.44159756811E+03 0.  0.
      99925    2    3    3    0    0 -0.37472784930E+02  0.90225807947E+02 -0.19752852131E+03  0.34414815154E+03  0.26433979543E+03 0.  0.
         25    1    4    4    0    0  0.22603658207E+02  0.30407315004E+02 -0.90985461468E+02  0.15925260585E+03  0.12509000000E+03 0.  0.
         25    1    4    4    0    0 -0.60076443137E+02  0.59818492943E+02 -0.10654305984E+03  0.18489554570E+03  0.12509000000E+03 0.  0.
         25    1    3    3    0    0  0.37472784930E+02 -0.90225807947E+02 -0.84314154235E+02  0.17972559844E+03  0.12509000000E+03 0.  0.
<mgrwt>
<rscale>  2 0.44159757E+03</rscale>
<asrwt>0</asrwt>
<pdfrwt beam="1">  1       21 0.17796403E-01 0.44159757E+03</pdfrwt>
<pdfrwt beam="2">  1       21 0.59243855E-01 0.44159757E+03</pdfrwt>
<totfact> 0.70850449E+04</totfact>
</mgrwt>
</event>
<event>
 7    0  0.4759581E-002  0.4497169E+03  0.7546771E-02  0.1027807E+00
         21   -1    0    0  502  501  0.00000000000E+00  0.00000000000E+00  0.82562189579E+03  0.82562189579E+03  0.00000000000E+00 0.  1.
         21   -1    0    0  501  502 -0.00000000000E+00 -0.00000000000E+00 -0.61240281312E+02  0.61240281312E+02  0.00000000000E+00 0.  1.
      99926    2    1    2    0    0 -0.17763568394E-14  0.35527136788E-14  0.76438161448E+03  0.88686217710E+03  0.44971687607E+03 0.  0.
      99925    2    3    3    0    0 -0.15010236176E+02 -0.29902505575E+02  0.28060650559E+03  0.38605749351E+03  0.26302264216E+03 0.  0.
         25    1    4    4    0    0 -0.24813719915E+02 -0.96515404992E+00  0.18910938476E+03  0.22809322595E+03  0.12509000000E+03 0.  0.
         25    1    4    4    0    0  0.98034837389E+01 -0.28937351525E+02  0.91497120831E+02  0.15796426756E+03  0.12509000000E+03 0.  0.
         25    1    3    3    0    0  0.15010236176E+02  0.29902505575E+02  0.48377510888E+03  0.50080468359E+03  0.12509000000E+03 0.  0.
<mgrwt>
<rscale>  2 0.44971688E+03</rscale>
<asrwt>0</asrwt>
<pdfrwt beam="1">  1       21 0.12141498E+00 0.44971688E+03</pdfrwt>
<pdfrwt beam="2">  1       21 0.90059242E-02 0.44971688E+03</pdfrwt>
<totfact> 0.45666827E+04</totfact>
</mgrwt>
</event>
<event>
 7    0  0.4759581E-002  0.4612578E+03  0.7546771E-02  0.1024417E+00
         21   -1    0    0  502  501  0.00000000000E+00  0.00000000000E+00  0.86915255139E+02  0.86915255139E+02  0.00000000000E+00 0. -1.
         21   -1    0    0  501  502 -0.00000000000E+00 -0.00000000000E+00 -0.61197190718E+03  0.61197190718E+03  0.00000000000E+00 0. -1.
      99926    2    1    2    0    0  0.00000000000E+00  0.00000000000E+00 -0.52505665204E+03  0.69888716232E+03  0.46125782140E+03 0.  0.
      99925    2    3    3    0    0 -0.78540910725E+02 -0.68443711861E+02 -0.41782668159E+03  0.50395386344E+03  0.26179599743E+03 0.  0.
         25    1    3    3    0    0  0.78540910725E+02  0.68443711861E+02 -0.10722997045E+03  0.19493329888E+03  0.12509000000E+03 0.  0.
         25    1    4    4    0    0 -0.23531957879E+02 -0.60514239333E+01 -0.23502249704E+03  0.26734519818E+03  0.12509000000E+03 0.  0.
         25    1    4    4    0    0 -0.55008952846E+02 -0.62392287928E+02 -0.18280418455E+03  0.23660866526E+03  0.12509000000E+03 0.  0.
<mgrwt>
<rscale>  2 0.46125782E+03</rscale>
<asrwt>0</asrwt>
<pdfrwt beam="1">  1       21 0.12781655E-01 0.46125782E+03</pdfrwt>
<pdfrwt beam="2">  1       21 0.89995870E-01 0.46125782E+03</pdfrwt>
<totfact> 0.50433285E+04</totfact>
</mgrwt>
</event>
<event>
 7    0  0.4759581E-002  0.4585862E+03  0.7546771E-02  0.1025192E+00
         21   -1    0    0  502  501  0.00000000000E+00  0.00000000000E+00  0.10441633496E+03  0.10441633496E+03  0.00000000000E+00 0. -1.
         21   -1    0    0  501  502 -0.00000000000E+00 -0.00000000000E+00 -0.50351626614E+03  0.50351626614E+03  0.00000000000E+00 0. -1.
      99926    2    1    2    0    0  0.00000000000E+00  0.00000000000E+00 -0.39909993118E+03  0.60793260109E+03  0.45858618864E+03 0.  0.
      99925    2    3    3    0    0 -0.52706092392E+02  0.94913489093E+02 -0.30582351272E+03  0.41784183086E+03  0.26320576001E+03 0.  0.
         25    1    4    4    0    0 -0.58726041191E+02  0.70261381367E+02 -0.19244470390E+03  0.24711916515E+03  0.12509000000E+03 0.  0.
         25    1    3    3    0    0  0.52706092392E+02 -0.94913489093E+02 -0.93276418458E+02  0.19009077023E+03  0.12509000000E+03 0.  0.
         25    1    4    4    0    0  0.60199487989E+01  0.24652107727E+02 -0.11337880882E+03  0.17072266571E+03  0.12509000000E+03 0.  0.
<mgrwt>
<rscale>  2 0.45858619E+03</rscale>
<asrwt>0</asrwt>
<pdfrwt beam="1">  1       21 0.15355343E-01 0.45858619E+03</pdfrwt>
<pdfrwt beam="2">  1       21 0.74046512E-01 0.45858619E+03</pdfrwt>
<totfact> 0.56572847E+04</totfact>
</mgrwt>
</event>
<event>
 7    0  0.4759581E-002  0.4344370E+03  0.7546771E-02  0.1032467E+00
         21   -1    0    0  502  501  0.00000000000E+00  0.00000000000E+00  0.25879201212E+02  0.25879201212E+02  0.00000000000E+00 0. -1.
         21   -1    0    0  501  502 -0.00000000000E+00 -0.00000000000E+00 -0.18232353438E+04  0.18232353438E+04  0.00000000000E+00 0. -1.
      99926    2    1    2    0    0  0.00000000000E+00  0.00000000000E+00 -0.17973561426E+04  0.18491145450E+04  0.43443698884E+03 0.  0.
      99925    2    3    3    0    0 -0.89001556144E+02  0.25200101165E+02 -0.11399903040E+04  0.11735898038E+04  0.26301865402E+03 0.  0.
         25    1    4    4    0    0 -0.61117634384E+02  0.46943313935E+02 -0.67255013709E+03  0.68841138497E+03  0.12509000000E+03 0.  0.
         25    1    3    3    0    0  0.89001556144E+02 -0.25200101165E+02 -0.65736583860E+03  0.67552474119E+03  0.12509000000E+03 0.  0.
         25    1    4    4    0    0 -0.27883921760E+02 -0.21743212770E+02 -0.46744016687E+03  0.48517841883E+03  0.12509000000E+03 0.  0.
<mgrwt>
<rscale>  2 0.43443699E+03</rscale>
<asrwt>0</asrwt>
<pdfrwt beam="1">  1       21 0.38057647E-02 0.43443699E+03</pdfrwt>
<pdfrwt beam="2">  1       21 0.26812286E+00 0.43443699E+03</pdfrwt>
<totfact> 0.19223295E+04</totfact>
</mgrwt>
</event>
<event>
 7    0  0.4759581E-002  0.4094989E+03  0.7546771E-02  0.1040539E+00
         21   -1    0    0  502  501  0.00000000000E+00  0.00000000000E+00  0.81827567065E+02  0.81827567065E+02  0.00000000000E+00 0. -1.
         21   -1    0    0  501  502 -0.00000000000E+00 -0.00000000000E+00 -0.51232526200E+03  0.51232526200E+03  0.00000000000E+00 0. -1.
      99926    2    1    2    0    0 -0.35527136788E-14  0.00000000000E+00 -0.43049769493E+03  0.59415282907E+03  0.40949886318E+03 0.  0.
      99925    2    3    3    0    0  0.28770342933E+02 -0.53862298987E+02 -0.29444196105E+03  0.39950558221E+03  0.26302045910E+03 0.  0.
         25    1    4    4    0    0  0.43228011216E+02 -0.30290047638E+02 -0.10897978477E+03  0.17409839037E+03  0.12509000000E+03 0.  0.
         25    1    3    3    0    0 -0.28770342933E+02  0.53862298987E+02 -0.13605573389E+03  0.19464724686E+03  0.12509000000E+03 0.  0.
         25    1    4    4    0    0 -0.14457668282E+02 -0.23572251349E+02 -0.18546217627E+03  0.22540719184E+03  0.12509000000E+03 0.  0.
<mgrwt>
<rscale>  2 0.40949886E+03</rscale>
<asrwt>0</asrwt>
<pdfrwt beam="1">  1       21 0.12033466E-01 0.40949886E+03</pdfrwt>
<pdfrwt beam="2">  1       21 0.75341949E-01 0.40949886E+03</pdfrwt>
<totfact> 0.86040209E+04</totfact>
</mgrwt>
</event>
<event>
 7    0  0.4759581E-002  0.4562209E+03  0.7546771E-02  0.1025883E+00
         21   -1    0    0  502  501  0.00000000000E+00  0.00000000000E+00  0.37476523744E+03  0.37476523744E+03  0.00000000000E+00 0.  1.
         21   -1    0    0  501  502 -0.00000000000E+00 -0.00000000000E+00 -0.13884527677E+03  0.13884527677E+03  0.00000000000E+00 0.  1.
      99926    2    1    2    0    0  0.00000000000E+00  0.00000000000E+00  0.23591996068E+03  0.51361051421E+03  0.45622092506E+03 0.  0.
      99925    2    3    3    0    0  0.67305180008E+02 -0.71172701260E+02  0.21463140851E+03  0.35331001136E+03  0.26299388196E+03 0.  0.
         25    1    3    3    0    0 -0.67305180008E+02  0.71172701260E+02  0.21288552164E+02  0.16030050285E+03  0.12509000000E+03 0.  0.
         25    1    4    4    0    0  0.44678336815E+02  0.38364686240E+01  0.10763505198E+03  0.17100785007E+03  0.12509000000E+03 0.  0.
         25    1    4    4    0    0  0.22626843193E+02 -0.75009169884E+02  0.10699635653E+03  0.18230216129E+03  0.12509000000E+03 0.  0.
<mgrwt>
<rscale>  2 0.45622093E+03</rscale>
<asrwt>0</asrwt>
<pdfrwt beam="1">  1       21 0.55112535E-01 0.45622093E+03</pdfrwt>
<pdfrwt beam="2">  1       21 0.20418423E-01 0.45622093E+03</pdfrwt>
<totfact> 0.63705207E+04</totfact>
</mgrwt>
</event>
<event>
 7    0  0.4759581E-002  0.4629286E+03  0.7546771E-02  0.1023935E+00
         21   -1    0    0  502  501  0.00000000000E+00  0.00000000000E+00  0.67519147591E+02  0.67519147591E+02  0.00000000000E+00 0.  1.
         21   -1    0    0  501  502 -0.00000000000E+00 -0.00000000000E+00 -0.79348922460E+03  0.79348922460E+03  0.00000000000E+00 0.  1.
      99926    2    1    2    0    0  0.00000000000E+00  0.14210854715E-13 -0.72597007701E+03  0.86100837219E+03  0.46292857362E+03 0.  0.
      99925    2    3    3    0    0 -0.49649455527E+02  0.80013102279E+02 -0.59325184233E+03  0.65575535057E+03  0.26305924503E+03 0.  0.
         25    1    3    3    0    0  0.49649455527E+02 -0.80013102279E+02 -0.13271823467E+03  0.20525302162E+03  0.12509000000E+03 0.  0.
         25    1    4    4    0    0 -0.29750502310E+02  0.80783619264E+02 -0.34931481233E+03  0.38089294000E+03  0.12509000000E+03 0.  0.
         25    1    4    4    0    0 -0.19898953217E+02 -0.77051698475E+00 -0.24393703001E+03  0.27486241057E+03  0.12509000000E+03 0.  0.
<mgrwt>
<rscale>  2 0.46292857E+03</rscale>
<asrwt>0</asrwt>
<pdfrwt beam="1">  1       21 0.99292866E-02 0.46292857E+03</pdfrwt>
<pdfrwt beam="2">  1       21 0.11668959E+00 0.46292857E+03</pdfrwt>
<totfact> 0.42260745E+04</totfact>
</mgrwt>
</event>
<event>
 7    0  0.4759581E-002  0.4533516E+03  0.7546771E-02  0.1026727E+00
         21   -1    0    0  502  501  0.00000000000E+00  0.00000000000E+00  0.64182771358E+02  0.64182771358E+02  0.00000000000E+00 0. -1.
         21   -1    0    0  501  502 -0.00000000000E+00 -0.00000000000E+00 -0.80055614935E+03  0.80055614935E+03  0.00000000000E+00 0. -1.
      99926    2    1    2    0    0  0.00000000000E+00  0.00000000000E+00 -0.73637337799E+03  0.86473892071E+03  0.45335157348E+03 0.  0.
      99925    2    3    3    0    0 -0.66416255071E+02  0.82268168155E+02 -0.53196401519E+03  0.60280406978E+03  0.26307387301E+03 0.  0.
         25    1    4    4    0    0 -0.18125971854E+02  0.66555223844E+02 -0.33315938799E+03  0.36249253038E+03  0.12509000000E+03 0.  0.
         25    1    4    4    0    0 -0.48290283217E+02  0.15712944310E+02 -0.19880462720E+03  0.24031153940E+03  0.12509000000E+03 0.  0.
         25    1    3    3    0    0  0.66416255071E+02 -0.82268168155E+02 -0.20440936280E+03  0.26193485093E+03  0.12509000000E+03 0.  0.
<mgrwt>
<rscale>  2 0.45335157E+03</rscale>
<asrwt>0</asrwt>
<pdfrwt beam="1">  1       21 0.94386437E-02 0.45335157E+03</pdfrwt>
<pdfrwt beam="2">  1       21 0.11772883E+00 0.45335157E+03</pdfrwt>
<totfact> 0.45370743E+04</totfact>
</mgrwt>
</event>
<event>
 7    0  0.4759581E-002  0.4531163E+03  0.7546771E-02  0.1026797E+00
         21   -1    0    0  502  501  0.00000000000E+00  0.00000000000E+00  0.15378620851E+03  0.15378620851E+03  0.00000000000E+00 0. -1.
         21   -1    0    0  501  502 -0.00000000000E+00 -0.00000000000E+00 -0.33376595838E+03  0.33376595838E+03  0.00000000000E+00 0. -1.
      99926    2    1    2    0    0 -0.88817841970E-15  0.00000000000E+00 -0.17997974987E+03  0.48755216689E+03  0.45311632620E+03 0.  0.
      99925    2    3    3    0    0  0.52057120708E+01  0.83042426165E+02 -0.19276984543E+03  0.33677339309E+03  0.26331152844E+03 0.  0.
         25    1    4    4    0    0  0.24047225684E+02  0.62327072046E+02 -0.13632511798E+03  0.19671039338E+03  0.12509000000E+03 0.  0.
         25    1    3    3    0    0 -0.52057120708E+01 -0.83042426165E+02  0.12790095558E+02  0.15077877379E+03  0.12509000000E+03 0.  0.
         25    1    4    4    0    0 -0.18841513613E+02  0.20715354119E+02 -0.56444727447E+02  0.14006299971E+03  0.12509000000E+03 0.  0.
<mgrwt>
<rscale>  2 0.45311633E+03</rscale>
<asrwt>0</asrwt>
<pdfrwt beam="1">  1       21 0.22615619E-01 0.45311633E+03</pdfrwt>
<pdfrwt beam="2">  1       21 0.49083228E-01 0.45311633E+03</pdfrwt>
<totfact> 0.67152921E+04</totfact>
</mgrwt>
</event>
<event>
 7    0  0.4759581E-002  0.4512902E+03  0.7546771E-02  0.1027338E+00
         21   -1    0    0  502  501  0.00000000000E+00  0.00000000000E+00  0.11829310673E+03  0.11829310673E+03  0.00000000000E+00 0.  1.
         21   -1    0    0  501  502 -0.00000000000E+00 -0.00000000000E+00 -0.43041992846E+03  0.43041992846E+03  0.00000000000E+00 0.  1.
      99926    2    1    2    0    0  0.00000000000E+00  0.00000000000E+00 -0.31212682174E+03  0.54871303519E+03  0.45129019726E+03 0.  0.
      99925    2    3    3    0    0  0.39099167360E+02 -0.64937201784E+02 -0.10064430709E+03  0.29157893173E+03  0.26295134876E+03 0.  0.
         25    1    4    4    0    0  0.44263979267E+02 -0.86141742865E+01 -0.72466605012E+02  0.15143454296E+03  0.12509000000E+03 0.  0.
         25    1    4    4    0    0 -0.51648119063E+01 -0.56323027497E+02 -0.28177702077E+02  0.14014438877E+03  0.12509000000E+03 0.  0.
         25    1    3    3    0    0 -0.39099167360E+02  0.64937201784E+02 -0.21148251465E+03  0.25713410347E+03  0.12509000000E+03 0.  0.
<mgrwt>
<rscale>  2 0.45129020E+03</rscale>
<asrwt>0</asrwt>
<pdfrwt beam="1">  1       21 0.17396045E-01 0.45129020E+03</pdfrwt>
<pdfrwt beam="2">  1       21 0.63297049E-01 0.45129020E+03</pdfrwt>
<totfact> 0.63803908E+04</totfact>
</mgrwt>
</event>
<event>
 7    0  0.4759581E-002  0.4516285E+03  0.7546771E-02  0.1027238E+00
         21   -1    0    0  502  501  0.00000000000E+00  0.00000000000E+00  0.22110328340E+03  0.22110328340E+03  0.00000000000E+00 0.  1.
         21   -1    0    0  501  502 -0.00000000000E+00 -0.00000000000E+00 -0.23062563944E+03  0.23062563944E+03  0.00000000000E+00 0.  1.
      99926    2    1    2    0    0  0.00000000000E+00  0.00000000000E+00 -0.95223560426E+01  0.45172892285E+03  0.45162854701E+03 0.  0.
      99925    2    3    3    0    0  0.67902870801E+02 -0.64738539588E+02 -0.63367117190E+02  0.28635466616E+03  0.26302419075E+03 0.  0.
         25    1    4    4    0    0  0.38578151123E+02 -0.65052471940E+02 -0.59478540990E+02  0.15781414001E+03  0.12509000000E+03 0.  0.
         25    1    4    4    0    0  0.29324719678E+02  0.31393235209E+00 -0.38885762006E+01  0.12854052615E+03  0.12509000000E+03 0.  0.
         25    1    3    3    0    0 -0.67902870801E+02  0.64738539588E+02  0.53844761148E+02  0.16537425668E+03  0.12509000000E+03 0.  0.
<mgrwt>
<rscale>  2 0.45162855E+03</rscale>
<asrwt>0</asrwt>
<pdfrwt beam="1">  1       21 0.32515189E-01 0.45162855E+03</pdfrwt>
<pdfrwt beam="2">  1       21 0.33915535E-01 0.45162855E+03</pdfrwt>
<totfact> 0.70668069E+04</totfact>
</mgrwt>
</event>
<event>
 7    0  0.4759581E-002  0.4518667E+03  0.7546771E-02  0.1027167E+00
         21   -1    0    0  502  501  0.00000000000E+00  0.00000000000E+00  0.72073152092E+02  0.72073152092E+02  0.00000000000E+00 0.  1.
         21   -1    0    0  501  502 -0.00000000000E+00 -0.00000000000E+00 -0.70825079685E+03  0.70825079685E+03  0.00000000000E+00 0.  1.
      99926    2    1    2    0    0 -0.17763568394E-14  0.00000000000E+00 -0.63617764476E+03  0.78032394894E+03  0.45186665024E+03 0.  0.
      99925    2    3    3    0    0 -0.10395609965E+02 -0.88967841273E+02 -0.51231543074E+03  0.58280761633E+03  0.26301002184E+03 0.  0.
         25    1    4    4    0    0  0.25705621972E+02 -0.55967950825E+02 -0.21092421492E+03  0.25284327766E+03  0.12509000000E+03 0.  0.
         25    1    3    3    0    0  0.10395609965E+02  0.88967841273E+02 -0.12386221402E+03  0.19751633261E+03  0.12509000000E+03 0.  0.
         25    1    4    4    0    0 -0.36101231938E+02 -0.32999890448E+02 -0.30139121582E+03  0.32996433867E+03  0.12509000000E+03 0.  0.
<mgrwt>
<rscale>  2 0.45186665E+03</rscale>
<asrwt>0</asrwt>
<pdfrwt beam="1">  1       21 0.10598992E-01 0.45186665E+03</pdfrwt>
<pdfrwt beam="2">  1       21 0.10415453E+00 0.45186665E+03</pdfrwt>
<totfact> 0.49948443E+04</totfact>
</mgrwt>
</event>
<event>
 7    0  0.4759581E-002  0.4552754E+03  0.7546771E-02  0.1026160E+00
         21   -1    0    0  502  501  0.00000000000E+00  0.00000000000E+00  0.25866665132E+03  0.25866665132E+03  0.00000000000E+00 0.  1.
         21   -1    0    0  501  502 -0.00000000000E+00 -0.00000000000E+00 -0.20033089188E+03  0.20033089188E+03  0.00000000000E+00 0.  1.
      99926    2    1    2    0    0  0.00000000000E+00 -0.71054273576E-14  0.58335759433E+02  0.45899754320E+03  0.45527539340E+03 0.  0.
      99925    2    3    3    0    0  0.45903764788E+02 -0.56043095730E+02 -0.51278169198E+02  0.27758446305E+03  0.26301273598E+03 0.  0.
         25    1    4    4    0    0  0.63340004995E+02 -0.21345348029E+02 -0.26392091879E+02  0.14426236768E+03  0.12509000000E+03 0.  0.
         25    1    4    4    0    0 -0.17436240207E+02 -0.34697747701E+02 -0.24886077318E+02  0.13332209536E+03  0.12509000000E+03 0.  0.
         25    1    3    3    0    0 -0.45903764788E+02  0.56043095730E+02  0.10961392863E+03  0.18141308015E+03  0.12509000000E+03 0.  0.
<mgrwt>
<rscale>  2 0.45527539E+03</rscale>
<asrwt>0</asrwt>
<pdfrwt beam="1">  1       21 0.38039213E-01 0.45527539E+03</pdfrwt>
<pdfrwt beam="2">  1       21 0.29460425E-01 0.45527539E+03</pdfrwt>
<totfact> 0.68103972E+04</totfact>
</mgrwt>
</event>
<event>
 7    0  0.4759581E-002  0.4544045E+03  0.7546771E-02  0.1026417E+00
         21   -1    0    0  502  501  0.00000000000E+00  0.00000000000E+00  0.29924438738E+03  0.29924438738E+03  0.00000000000E+00 0. -1.
         21   -1    0    0  501  502 -0.00000000000E+00 -0.00000000000E+00 -0.17250403930E+03  0.17250403930E+03  0.00000000000E+00 0. -1.
      99926    2    1    2    0    0  0.00000000000E+00  0.00000000000E+00  0.12674034808E+03  0.47174842668E+03  0.45440451389E+03 0.  0.
      99925    2    3    3    0    0 -0.49753975785E+02  0.10057122739E+03  0.90402899168E+02  0.29982417539E+03  0.26292931006E+03 0.  0.
         25    1    4    4    0    0 -0.27440761493E+02  0.82971239651E+02  0.21166416778E+02  0.15405436475E+03  0.12509000000E+03 0.  0.
         25    1    4    4    0    0 -0.22313214292E+02  0.17599987738E+02  0.69236482390E+02  0.14576981064E+03  0.12509000000E+03 0.  0.
         25    1    3    3    0    0  0.49753975785E+02 -0.10057122739E+03  0.36337448917E+02  0.17192425128E+03  0.12509000000E+03 0.  0.
<mgrwt>
<rscale>  2 0.45440451E+03</rscale>
<asrwt>0</asrwt>
<pdfrwt beam="1">  1       21 0.44006528E-01 0.45440451E+03</pdfrwt>
<pdfrwt beam="2">  1       21 0.25368241E-01 0.45440451E+03</pdfrwt>
<totfact> 0.67624858E+04</totfact>
</mgrwt>
</event>
<event>
 7    0  0.4759581E-002  0.4246379E+03  0.7546771E-02  0.1035567E+00
         21   -1    0    0  502  501  0.00000000000E+00  0.00000000000E+00  0.60443127698E+02  0.60443127698E+02  0.00000000000E+00 0.  1.
         21   -1    0    0  501  502 -0.00000000000E+00 -0.00000000000E+00 -0.74581402598E+03  0.74581402598E+03  0.00000000000E+00 0.  1.
      99926    2    1    2    0    0  0.35527136788E-14  0.71054273576E-14 -0.68537089828E+03  0.80625715367E+03  0.42463788060E+03 0.  0.
      99925    2    3    3    0    0  0.30450066510E+02  0.53996085077E+02 -0.34358107447E+03  0.43705453246E+03  0.26291809723E+03 0.  0.
         25    1    4    4    0    0  0.28830698426E+01  0.58587115010E+01 -0.21748024828E+03  0.25097370995E+03  0.12509000000E+03 0.  0.
         25    1    3    3    0    0 -0.30450066510E+02 -0.53996085077E+02 -0.34178982381E+03  0.36920262122E+03  0.12509000000E+03 0.  0.
         25    1    4    4    0    0  0.27566996668E+02  0.48137373576E+02 -0.12610082618E+03  0.18608082251E+03  0.12509000000E+03 0.  0.
<mgrwt>
<rscale>  2 0.42463788E+03</rscale>
<asrwt>0</asrwt>
<pdfrwt beam="1">  1       21 0.88886959E-02 0.42463788E+03</pdfrwt>
<pdfrwt beam="2">  1       21 0.10967853E+00 0.42463788E+03</pdfrwt>
<totfact> 0.60681013E+04</totfact>
</mgrwt>
</event>
<event>
 7    0  0.4759581E-002  0.4544811E+03  0.7546771E-02  0.1026394E+00
         21   -1    0    0  502  501  0.00000000000E+00  0.00000000000E+00  0.70871987370E+03  0.70871987370E+03  0.00000000000E+00 0.  1.
         21   -1    0    0  501  502 -0.00000000000E+00 -0.00000000000E+00 -0.72861318646E+02  0.72861318646E+02  0.00000000000E+00 0.  1.
      99926    2    1    2    0    0  0.14210854715E-13  0.00000000000E+00  0.63585855505E+03  0.78158119234E+03  0.45448108673E+03 0.  0.
      99925    2    3    3    0    0 -0.66122461378E+02  0.64985173866E+02  0.28987867409E+03  0.40218056128E+03  0.26291501566E+03 0.  0.
         25    1    4    4    0    0 -0.61939348249E+02  0.41738020401E+02  0.11362038522E+03  0.18475834283E+03  0.12509000000E+03 0.  0.
         25    1    4    4    0    0 -0.41831131284E+01  0.23247153465E+02  0.17625828886E+03  0.21742221844E+03  0.12509000000E+03 0.  0.
         25    1    3    3    0    0  0.66122461378E+02 -0.64985173866E+02  0.34597988096E+03  0.37940063106E+03  0.12509000000E+03 0.  0.
<mgrwt>
<rscale>  2 0.45448109E+03</rscale>
<asrwt>0</asrwt>
<pdfrwt beam="1">  1       21 0.10422351E+00 0.45448109E+03</pdfrwt>
<pdfrwt beam="2">  1       21 0.10714900E-01 0.45448109E+03</pdfrwt>
<totfact> 0.48867381E+04</totfact>
</mgrwt>
</event>
<event>
 7    0  0.4759581E-002  0.4468971E+03  0.7546771E-02  0.1028651E+00
         21   -1    0    0  502  501  0.00000000000E+00  0.00000000000E+00  0.13103694349E+03  0.13103694349E+03  0.00000000000E+00 0.  1.
         21   -1    0    0  501  502 -0.00000000000E+00 -0.00000000000E+00 -0.38103193752E+03  0.38103193752E+03  0.00000000000E+00 0.  1.
      99926    2    1    2    0    0  0.00000000000E+00  0.00000000000E+00 -0.24999499403E+03  0.51206888101E+03  0.44689712671E+03 0.  0.
      99925    2    3    3    0    0  0.84578839578E+02 -0.64885878744E+01 -0.86707593204E+02  0.28956952092E+03  0.26293843167E+03 0.  0.
         25    1    4    4    0    0  0.30065684479E+02 -0.20025306984E+02 -0.78863762331E+02  0.15222338655E+03  0.12509000000E+03 0.  0.
         25    1    3    3    0    0 -0.84578839578E+02  0.64885878744E+01 -0.16328740082E+03  0.22249936010E+03  0.12509000000E+03 0.  0.
         25    1    4    4    0    0  0.54513155099E+02  0.13536719109E+02 -0.78438308736E+01  0.13734613437E+03  0.12509000000E+03 0.  0.
<mgrwt>
<rscale>  2 0.44689713E+03</rscale>
<asrwt>0</asrwt>
<pdfrwt beam="1">  1       21 0.19270139E-01 0.44689713E+03</pdfrwt>
<pdfrwt beam="2">  1       21 0.56034107E-01 0.44689713E+03</pdfrwt>
<totfact> 0.68745504E+04</totfact>
</mgrwt>
</event>
<event>
 7    0  0.4759581E-002  0.4538366E+03  0.7546771E-02  0.1026584E+00
         21   -1    0    0  502  501  0.00000000000E+00  0.00000000000E+00  0.86293071346E+03  0.86293071346E+03  0.00000000000E+00 0.  1.
         21   -1    0    0  501  502 -0.00000000000E+00 -0.00000000000E+00 -0.59670983715E+02  0.59670983715E+02  0.00000000000E+00 0.  1.
      99926    2    1    2    0    0  0.00000000000E+00  0.00000000000E+00  0.80325972975E+03  0.92260169718E+03  0.45383664264E+03 0.  0.
      99925    2    3    3    0    0 -0.92934830652E+02  0.49559839766E+02  0.58383714666E+03  0.64894710004E+03  0.26300848725E+03 0.  0.
         25    1    4    4    0    0 -0.24443596972E+02  0.11223988709E+02  0.34703973283E+03  0.36987504865E+03  0.12509000000E+03 0.  0.
         25    1    3    3    0    0  0.92934830652E+02 -0.49559839766E+02  0.21942258308E+03  0.27365459714E+03  0.12509000000E+03 0.  0.
         25    1    4    4    0    0 -0.68491233680E+02  0.38335851057E+02  0.23679741383E+03  0.27907205139E+03  0.12509000000E+03 0.  0.
<mgrwt>
<rscale>  2 0.45383664E+03</rscale>
<asrwt>0</asrwt>
<pdfrwt beam="1">  1       21 0.12690157E+00 0.45383664E+03</pdfrwt>
<pdfrwt beam="2">  1       21 0.87751452E-02 0.45383664E+03</pdfrwt>
<totfact> 0.42657549E+04</totfact>
</mgrwt>
</event>
<event>
 7    0  0.4759581E-002  0.4587353E+03  0.7546771E-02  0.1025149E+00
         21   -1    0    0  502  501  0.00000000000E+00  0.00000000000E+00  0.84170347087E+02  0.84170347087E+02  0.00000000000E+00 0.  1.
         21   -1    0    0  501  502 -0.00000000000E+00 -0.00000000000E+00 -0.62503625505E+03  0.62503625505E+03  0.00000000000E+00 0.  1.
      99926    2    1    2    0    0 -0.71054273576E-14  0.00000000000E+00 -0.54086590797E+03  0.70920660214E+03  0.45873529853E+03 0.  0.
      99925    2    3    3    0    0 -0.34111328183E+02  0.42061157140E+02 -0.17952979387E+03  0.32301491515E+03  0.26301133982E+03 0.  0.
         25    1    4    4    0    0 -0.48158759896E+02  0.31004737798E+02 -0.63747595285E+02  0.15163055077E+03  0.12509000000E+03 0.  0.
         25    1    3    3    0    0  0.34111328183E+02 -0.42061157140E+02 -0.36133611410E+03  0.38619168699E+03  0.12509000000E+03 0.  0.
         25    1    4    4    0    0  0.14047431713E+02  0.11056419341E+02 -0.11578219859E+03  0.17138436438E+03  0.12509000000E+03 0.  0.
<mgrwt>
<rscale>  2 0.45873530E+03</rscale>
<asrwt>0</asrwt>
<pdfrwt beam="1">  1       21 0.12377992E-01 0.45873530E+03</pdfrwt>
<pdfrwt beam="2">  1       21 0.91917098E-01 0.45873530E+03</pdfrwt>
<totfact> 0.50893666E+04</totfact>
</mgrwt>
</event>
<event>
 7    0  0.4759581E-002  0.4559883E+03  0.7546771E-02  0.1025951E+00
         21   -1    0    0  502  501  0.00000000000E+00  0.00000000000E+00  0.91731478691E+02  0.91731478691E+02  0.00000000000E+00 0. -1.
         21   -1    0    0  501  502 -0.00000000000E+00 -0.00000000000E+00 -0.56666831436E+03  0.56666831436E+03  0.00000000000E+00 0. -1.
      99926    2    1    2    0    0 -0.17763568394E-14  0.00000000000E+00 -0.47493683567E+03  0.65839979305E+03  0.45598825600E+03 0.  0.
      99925    2    3    3    0    0  0.82564399128E+01  0.11383201541E+03 -0.29510925994E+03  0.41139501248E+03  0.26292676634E+03 0.  0.
         25    1    4    4    0    0  0.24621034776E+02  0.33713974729E+02 -0.17801366142E+03  0.22153825674E+03  0.12509000000E+03 0.  0.
         25    1    4    4    0    0 -0.16364594864E+02  0.80118040683E+02 -0.11709559852E+03  0.18985675574E+03  0.12509000000E+03 0.  0.
         25    1    3    3    0    0 -0.82564399128E+01 -0.11383201541E+03 -0.17982757573E+03  0.24700478057E+03  0.12509000000E+03 0.  0.
<mgrwt>
<rscale>  2 0.45598826E+03</rscale>
<asrwt>0</asrwt>
<pdfrwt beam="1">  1       21 0.13489923E-01 0.45598826E+03</pdfrwt>
<pdfrwt beam="2">  1       21 0.83333575E-01 0.45598826E+03</pdfrwt>
<totfact> 0.54791650E+04</totfact>
</mgrwt>
</event>
<event>
 7    0  0.4759581E-002  0.4609822E+03  0.7546771E-02  0.1024497E+00
         21   -1    0    0  502  501  0.00000000000E+00  0.00000000000E+00  0.50259840137E+03  0.50259840137E+03  0.00000000000E+00 0. -1.
         21   -1    0    0  501  502 -0.00000000000E+00 -0.00000000000E+00 -0.10570298058E+03  0.10570298058E+03  0.00000000000E+00 0. -1.
      99926    2    1    2    0    0  0.28421709430E-13  0.88817841970E-15  0.39689542079E+03  0.60830138195E+03  0.46098220816E+03 0.  0.
      99925    2    3    3    0    0  0.11902609701E+03 -0.24160688693E+01  0.24813412125E+03  0.38037489929E+03  0.26256708232E+03 0.  0.
         25    1    4    4    0    0  0.34074813139E+02  0.80695218904E+01  0.15598137330E+03  0.20298745525E+03  0.12509000000E+03 0.  0.
         25    1    3    3    0    0 -0.11902609701E+03  0.24160688693E+01  0.14876129953E+03  0.22792648266E+03  0.12509000000E+03 0.  0.
         25    1    4    4    0    0  0.84951283874E+02 -0.10485590760E+02  0.92152747956E+02  0.17738744403E+03  0.12509000000E+03 0.  0.
<mgrwt>
<rscale>  2 0.46098221E+03</rscale>
<asrwt>0</asrwt>
<pdfrwt beam="1">  1       21 0.73911528E-01 0.46098221E+03</pdfrwt>
<pdfrwt beam="2">  1       21 0.15544556E-01 0.46098221E+03</pdfrwt>
<totfact> 0.55500527E+04</totfact>
</mgrwt>
</event>
<event>
 7    0  0.4759581E-002  0.4562267E+03  0.7546771E-02  0.1025881E+00
         21   -1    0    0  502  501  0.00000000000E+00  0.00000000000E+00  0.42011320624E+03  0.42011320624E+03  0.00000000000E+00 0. -1.
         21   -1    0    0  501  502 -0.00000000000E+00 -0.00000000000E+00 -0.12386111859E+03  0.12386111859E+03  0.00000000000E+00 0. -1.
      99926    2    1    2    0    0  0.71054273576E-14  0.00000000000E+00  0.29625208765E+03  0.54397432482E+03  0.45622666147E+03 0.  0.
      99925    2    3    3    0    0  0.56199805182E+02  0.29932403635E+02  0.72989308097E+02  0.28025450433E+03  0.26298437446E+03 0.  0.
         25    1    4    4    0    0  0.59899845357E+02  0.57701322407E+01  0.13098691038E+02  0.13942872626E+03  0.12509000000E+03 0.  0.
         25    1    4    4    0    0 -0.37000401752E+01  0.24162271395E+02  0.59890617059E+02  0.14082577807E+03  0.12509000000E+03 0.  0.
         25    1    3    3    0    0 -0.56199805182E+02 -0.29932403635E+02  0.22326277955E+03  0.26371982050E+03  0.12509000000E+03 0.  0.
<mgrwt>
<rscale>  2 0.45622666E+03</rscale>
<asrwt>0</asrwt>
<pdfrwt beam="1">  1       21 0.61781353E-01 0.45622666E+03</pdfrwt>
<pdfrwt beam="2">  1       21 0.18214870E-01 0.45622666E+03</pdfrwt>
<totfact> 0.61665702E+04</totfact>
</mgrwt>
</event>
<event>
 7    0  0.4759581E-002  0.4537890E+03  0.7546771E-02  0.1026598E+00
         21   -1    0    0  502  501  0.00000000000E+00  0.00000000000E+00  0.20464116055E+03  0.20464116055E+03  0.00000000000E+00 0. -1.
         21   -1    0    0  501  502 -0.00000000000E+00 -0.00000000000E+00 -0.25156769390E+03  0.25156769390E+03  0.00000000000E+00 0. -1.
      99926    2    1    2    0    0  0.14210854715E-13 -0.14210854715E-13 -0.46926533352E+02  0.45620885445E+03  0.45378895904E+03 0.  0.
      99925    2    3    3    0    0  0.89744817851E+02 -0.66605522573E+02 -0.24112607037E+02  0.28692090065E+03  0.26315728651E+03 0.  0.
         25    1    4    4    0    0  0.70411833796E+02 -0.67931333007E+02 -0.21970849200E+02  0.16032067445E+03  0.12509000000E+03 0.  0.
         25    1    3    3    0    0 -0.89744817851E+02  0.66605522573E+02 -0.22813926315E+02  0.16928795380E+03  0.12509000000E+03 0.  0.
         25    1    4    4    0    0  0.19332984055E+02  0.13258104342E+01 -0.21417578374E+01  0.12660022619E+03  0.12509000000E+03 0.  0.
<mgrwt>
<rscale>  2 0.45378896E+03</rscale>
<asrwt>0</asrwt>
<pdfrwt beam="1">  1       21 0.30094288E-01 0.45378896E+03</pdfrwt>
<pdfrwt beam="2">  1       21 0.36995249E-01 0.45378896E+03</pdfrwt>
<totfact> 0.69122778E+04</totfact>
</mgrwt>
</event>
<event>
 7    0  0.4759581E-002  0.4565683E+03  0.7546771E-02  0.1025781E+00
         21   -1    0    0  502  501  0.00000000000E+00  0.00000000000E+00  0.65065509031E+03  0.65065509031E+03  0.00000000000E+00 0.  1.
         21   -1    0    0  501  502 -0.00000000000E+00 -0.00000000000E+00 -0.80094116701E+02  0.80094116701E+02  0.00000000000E+00 0.  1.
      99926    2    1    2    0    0  0.00000000000E+00 -0.14210854715E-13  0.57056097361E+03  0.73074920701E+03  0.45656826318E+03 0.  0.
      99925    2    3    3    0    0  0.66326570489E+02 -0.91662865920E+02  0.38749966660E+03  0.48183105748E+03  0.26306630609E+03 0.  0.
         25    1    3    3    0    0 -0.66326570489E+02  0.91662865920E+02  0.18306130702E+03  0.24891814953E+03  0.12509000000E+03 0.  0.
         25    1    4    4    0    0 -0.72735452460E+01 -0.34035064121E+02  0.18808554039E+03  0.22854970718E+03  0.12509000000E+03 0.  0.
         25    1    4    4    0    0  0.73600115735E+02 -0.57627801799E+02  0.19941412621E+03  0.25328135030E+03  0.12509000000E+03 0.  0.
<mgrwt>
<rscale>  2 0.45656826E+03</rscale>
<asrwt>0</asrwt>
<pdfrwt beam="1">  1       21 0.95684569E-01 0.45656826E+03</pdfrwt>
<pdfrwt beam="2">  1       21 0.11778547E-01 0.45656826E+03</pdfrwt>
<totfact> 0.50637751E+04</totfact>
</mgrwt>
</event>
<event>
 7    0  0.4759581E-002  0.4717580E+03  0.7546771E-02  0.1021425E+00
         21   -1    0    0  502  501  0.00000000000E+00  0.00000000000E+00  0.12628138381E+04  0.12628138381E+04  0.00000000000E+00 0.  1.
         21   -1    0    0  501  502 -0.00000000000E+00 -0.00000000000E+00 -0.44059471235E+02  0.44059471235E+02  0.00000000000E+00 0.  1.
      99926    2    1    2    0    0  0.00000000000E+00 -0.71054273576E-14  0.12187543669E+04  0.13068733093E+04  0.47175803109E+03 0.  0.
      99925    2    3    3    0    0 -0.10989992901E+03 -0.50795804706E+02  0.63851107577E+03  0.70107797003E+03  0.26297474783E+03 0.  0.
         25    1    4    4    0    0 -0.88154304879E+02 -0.34801543762E+02  0.28878110987E+03  0.32867060476E+03  0.12509000000E+03 0.  0.
         25    1    3    3    0    0  0.10989992901E+03  0.50795804706E+02  0.58024329109E+03  0.60579533931E+03  0.12509000000E+03 0.  0.
         25    1    4    4    0    0 -0.21745624131E+02 -0.15994260944E+02  0.34972996590E+03  0.37240736526E+03  0.12509000000E+03 0.  0.
<mgrwt>
<rscale>  2 0.47175803E+03</rscale>
<asrwt>0</asrwt>
<pdfrwt beam="1">  1       21 0.18570789E+00 0.47175803E+03</pdfrwt>
<pdfrwt beam="2">  1       21 0.64793348E-02 0.47175803E+03</pdfrwt>
<totfact> 0.25434418E+04</totfact>
</mgrwt>
</event>
<event>
 7    0  0.4759581E-002  0.4570860E+03  0.7546771E-02  0.1025630E+00
         21   -1    0    0  502  501  0.00000000000E+00  0.00000000000E+00  0.90044426285E+03  0.90044426285E+03  0.00000000000E+00 0.  1.
         21   -1    0    0  501  502 -0.00000000000E+00 -0.00000000000E+00 -0.58006819449E+02  0.58006819449E+02  0.00000000000E+00 0.  1.
      99926    2    1    2    0    0  0.00000000000E+00  0.00000000000E+00  0.84243744340E+03  0.95845108230E+03  0.45708602157E+03 0.  0.
      99925    2    3    3    0    0  0.99190897586E+02  0.44151685678E+02  0.60923274602E+03  0.67240887477E+03  0.26302271864E+03 0.  0.
         25    1    4    4    0    0  0.56049688054E+02 -0.17398806908E+02  0.27758712608E+03  0.31007484045E+03  0.12509000000E+03 0.  0.
         25    1    3    3    0    0 -0.99190897586E+02 -0.44151685678E+02  0.23320469737E+03  0.28604220753E+03  0.12509000000E+03 0.  0.
         25    1    4    4    0    0  0.43141209532E+02  0.61550492586E+02  0.33164561994E+03  0.36233403432E+03  0.12509000000E+03 0.  0.
<mgrwt>
<rscale>  2 0.45708602E+03</rscale>
<asrwt>0</asrwt>
<pdfrwt beam="1">  1       21 0.13241827E+00 0.45708602E+03</pdfrwt>
<pdfrwt beam="2">  1       21 0.85304152E-02 0.45708602E+03</pdfrwt>
<totfact> 0.40141752E+04</totfact>
</mgrwt>
</event>
<event>
 7    0  0.4759581E-002  0.3946298E+03  0.7546771E-02  0.1045655E+00
         21   -1    0    0  502  501  0.00000000000E+00  0.00000000000E+00  0.13466950020E+03  0.13466950020E+03  0.00000000000E+00 0.  1.
         21   -1    0    0  501  502 -0.00000000000E+00 -0.00000000000E+00 -0.28910157699E+03  0.28910157699E+03  0.00000000000E+00 0.  1.
      99926    2    1    2    0    0  0.35527136788E-14  0.11102230246E-14 -0.15443207678E+03  0.42377107719E+03  0.39462977526E+03 0.  0.
      99925    2    3    3    0    0  0.24879290353E+02  0.16077181219E+01 -0.12786904192E+03  0.29348421382E+03  0.26298465361E+03 0.  0.
         25    1    3    3    0    0 -0.24879290353E+02 -0.16077181219E+01 -0.26563034865E+02  0.13028686337E+03  0.12509000000E+03 0.  0.
         25    1    4    4    0    0  0.46204910731E+02 -0.21817167573E+02 -0.65873288847E+02  0.15032525024E+03  0.12509000000E+03 0.  0.
         25    1    4    4    0    0 -0.21325620379E+02  0.23424885694E+02 -0.61995753072E+02  0.14315896358E+03  0.12509000000E+03 0.  0.
<mgrwt>
<rscale>  2 0.39462978E+03</rscale>
<asrwt>0</asrwt>
<pdfrwt beam="1">  1       21 0.19804339E-01 0.39462978E+03</pdfrwt>
<pdfrwt beam="2">  1       21 0.42514937E-01 0.39462978E+03</pdfrwt>
<totfact> 0.11835440E+05</totfact>
</mgrwt>
</event>
<event>
 7    0  0.4759581E-002  0.4586439E+03  0.7546771E-02  0.1025175E+00
         21   -1    0    0  502  501  0.00000000000E+00  0.00000000000E+00  0.25643596138E+03  0.25643596138E+03  0.00000000000E+00 0.  1.
         21   -1    0    0  501  502 -0.00000000000E+00 -0.00000000000E+00 -0.20507483421E+03  0.20507483421E+03  0.00000000000E+00 0.  1.
      99926    2    1    2    0    0  0.00000000000E+00 -0.14210854715E-13  0.51361127172E+02  0.46151079559E+03  0.45864392405E+03 0.  0.
      99925    2    3    3    0    0 -0.49076128737E+02  0.10291363117E+03  0.76512415292E+01  0.28670306094E+03  0.26294566314E+03 0.  0.
         25    1    4    4    0    0 -0.61954680242E+02  0.69968393975E+02 -0.39113761906E+01  0.15619463987E+03  0.12509000000E+03 0.  0.
         25    1    3    3    0    0  0.49076128737E+02 -0.10291363117E+03  0.43709885643E+02  0.17480773465E+03  0.12509000000E+03 0.  0.
         25    1    4    4    0    0  0.12878551505E+02  0.32945237192E+02  0.11562617720E+02  0.13050842107E+03  0.12509000000E+03 0.  0.
<mgrwt>
<rscale>  2 0.45864392E+03</rscale>
<asrwt>0</asrwt>
<pdfrwt beam="1">  1       21 0.37711171E-01 0.45864392E+03</pdfrwt>
<pdfrwt beam="2">  1       21 0.30158064E-01 0.45864392E+03</pdfrwt>
<totfact> 0.66127816E+04</totfact>
</mgrwt>
</event>
<event>
 7    0  0.4759581E-002  0.4527939E+03  0.7546771E-02  0.1026892E+00
         21   -1    0    0  502  501  0.00000000000E+00  0.00000000000E+00  0.96765265169E+02  0.96765265169E+02  0.00000000000E+00 0.  1.
         21   -1    0    0  501  502 -0.00000000000E+00 -0.00000000000E+00 -0.52968989283E+03  0.52968989283E+03  0.00000000000E+00 0.  1.
      99926    2    1    2    0    0  0.00000000000E+00 -0.14210854715E-13 -0.43292462766E+03  0.62645515799E+03  0.45279391752E+03 0.  0.
      99925    2    3    3    0    0  0.38666182382E+02 -0.68243553099E+02 -0.38181149949E+03  0.47021074635E+03  0.26299404677E+03 0.  0.
         25    1    4    4    0    0  0.53495888539E+01 -0.67853246618E+02 -0.16769849107E+03  0.22000675713E+03  0.12509000000E+03 0.  0.
         25    1    3    3    0    0 -0.38666182382E+02  0.68243553099E+02 -0.51113128162E+02  0.15624441164E+03  0.12509000000E+03 0.  0.
         25    1    4    4    0    0  0.33316593528E+02 -0.39030648039E+00 -0.21411300842E+03  0.25020398922E+03  0.12509000000E+03 0.  0.
<mgrwt>
<rscale>  2 0.45279392E+03</rscale>
<asrwt>0</asrwt>
<pdfrwt beam="1">  1       21 0.14230186E-01 0.45279392E+03</pdfrwt>
<pdfrwt beam="2">  1       21 0.77895573E-01 0.45279392E+03</pdfrwt>
<totfact> 0.58083761E+04</totfact>
</mgrwt>
</event>
<event>
 7    0  0.4759581E-002  0.4592573E+03  0.7546771E-02  0.1024997E+00
         21   -1    0    0  502  501  0.00000000000E+00  0.00000000000E+00  0.16302193102E+03  0.16302193102E+03  0.00000000000E+00 0. -1.
         21   -1    0    0  501  502 -0.00000000000E+00 -0.00000000000E+00 -0.32344916062E+03  0.32344916062E+03  0.00000000000E+00 0. -1.
      99926    2    1    2    0    0  0.00000000000E+00  0.00000000000E+00 -0.16042722960E+03  0.48647109164E+03  0.45925725580E+03 0.  0.
      99925    2    3    3    0    0 -0.90745480633E+02 -0.71767245728E+02 -0.81085567298E+02  0.29851394948E+03  0.26296469153E+03 0.  0.
         25    1    4    4    0    0 -0.67986749817E+02 -0.11745865526E+02 -0.16548277733E+02  0.14381069885E+03  0.12509000000E+03 0.  0.
         25    1    4    4    0    0 -0.22758730816E+02 -0.60021380203E+02 -0.64537289565E+02  0.15470325063E+03  0.12509000000E+03 0.  0.
         25    1    3    3    0    0  0.90745480633E+02  0.71767245728E+02 -0.79341662300E+02  0.18795714217E+03  0.12509000000E+03 0.  0.
<mgrwt>
<rscale>  2 0.45925726E+03</rscale>
<asrwt>0</asrwt>
<pdfrwt beam="1">  1       21 0.23973814E-01 0.45925726E+03</pdfrwt>
<pdfrwt beam="2">  1       21 0.47566053E-01 0.45925726E+03</pdfrwt>
<totfact> 0.64040229E+04</totfact>
</mgrwt>
</event>
<event>
 7    0  0.4759581E-002  0.4508891E+03  0.7546771E-02  0.1027457E+00
         21   -1    0    0  502  501  0.00000000000E+00  0.00000000000E+00  0.14595081652E+04  0.14595081652E+04  0.00000000000E+00 0. -1.
         21   -1    0    0  501  502 -0.00000000000E+00 -0.00000000000E+00 -0.34823540065E+02  0.34823540065E+02  0.00000000000E+00 0. -1.
      99926    2    1    2    0    0 -0.88817841970E-15  0.00000000000E+00  0.14246846252E+04  0.14943317053E+04  0.45088908201E+03 0.  0.
      99925    2    3    3    0    0  0.71016773358E+01 -0.91688483357E+02  0.10955576074E+04  0.11304233188E+04  0.26296995432E+03 0.  0.
         25    1    4    4    0    0  0.17770908359E+02 -0.28605911978E+02  0.66566598987E+03  0.67815398071E+03  0.12509000000E+03 0.  0.
         25    1    4    4    0    0 -0.10669231023E+02 -0.63082571379E+02  0.42989161750E+03  0.45226933812E+03  0.12509000000E+03 0.  0.
         25    1    3    3    0    0 -0.71016773358E+01  0.91688483357E+02  0.32912701780E+03  0.36390838648E+03  0.12509000000E+03 0.  0.
<mgrwt>
<rscale>  2 0.45088908E+03</rscale>
<asrwt>0</asrwt>
<pdfrwt beam="1">  1       21 0.21463351E+00 0.45088908E+03</pdfrwt>
<pdfrwt beam="2">  1       21 0.51211098E-02 0.45088908E+03</pdfrwt>
<totfact> 0.24697666E+04</totfact>
</mgrwt>
</event>
<event>
 7    0  0.4759581E-002  0.4579858E+03  0.7546771E-02  0.1025367E+00
         21   -1    0    0  502  501  0.00000000000E+00  0.00000000000E+00  0.27072590725E+03  0.27072590725E+03  0.00000000000E+00 0.  1.
         21   -1    0    0  501  502 -0.00000000000E+00 -0.00000000000E+00 -0.19369316475E+03  0.19369316475E+03  0.00000000000E+00 0.  1.
      99926    2    1    2    0    0 -0.35527136788E-14  0.00000000000E+00  0.77032742509E+02  0.46441907200E+03  0.45798584151E+03 0.  0.
      99925    2    3    3    0    0 -0.29277345567E+02  0.10060000618E+03 -0.20452038572E+01  0.28309517973E+03  0.26298512072E+03 0.  0.
         25    1    4    4    0    0  0.26965769713E+01  0.17540989305E+02 -0.22129916715E+02  0.12826612626E+03  0.12509000000E+03 0.  0.
         25    1    4    4    0    0 -0.31973922539E+02  0.83059016873E+02  0.20084712857E+02  0.15482905347E+03  0.12509000000E+03 0.  0.
         25    1    3    3    0    0  0.29277345567E+02 -0.10060000618E+03  0.79077946366E+02  0.18132389227E+03  0.12509000000E+03 0.  0.
<mgrwt>
<rscale>  2 0.45798584E+03</rscale>
<asrwt>0</asrwt>
<pdfrwt beam="1">  1       21 0.39812634E-01 0.45798584E+03</pdfrwt>
<pdfrwt beam="2">  1       21 0.28484289E-01 0.45798584E+03</pdfrwt>
<totfact> 0.66266346E+04</totfact>
</mgrwt>
</event>
<event>
 7    0  0.4759581E-002  0.4592503E+03  0.7546771E-02  0.1024999E+00
         21   -1    0    0  502  501  0.00000000000E+00  0.00000000000E+00  0.95978515023E+02  0.95978515023E+02  0.00000000000E+00 0.  1.
         21   -1    0    0  501  502 -0.00000000000E+00 -0.00000000000E+00 -0.54936992221E+03  0.54936992221E+03  0.00000000000E+00 0.  1.
      99926    2    1    2    0    0  0.17763568394E-14  0.00000000000E+00 -0.45339140719E+03  0.64534843723E+03  0.45925029921E+03 0.  0.
      99925    2    3    3    0    0  0.99827358504E+01  0.26052560639E+02 -0.12469825589E+03  0.29255233926E+03  0.26317071504E+03 0.  0.
         25    1    4    4    0    0 -0.35729463542E+02  0.13126701244E+02 -0.65351162330E+02  0.14617519409E+03  0.12509000000E+03 0.  0.
         25    1    4    4    0    0  0.45712199392E+02  0.12925859395E+02 -0.59347093559E+02  0.14637714517E+03  0.12509000000E+03 0.  0.
         25    1    3    3    0    0 -0.99827358504E+01 -0.26052560639E+02 -0.32869315130E+03  0.35279609797E+03  0.12509000000E+03 0.  0.
<mgrwt>
<rscale>  2 0.45925030E+03</rscale>
<asrwt>0</asrwt>
<pdfrwt beam="1">  1       21 0.14114488E-01 0.45925030E+03</pdfrwt>
<pdfrwt beam="2">  1       21 0.80789694E-01 0.45925030E+03</pdfrwt>
<totfact> 0.54131885E+04</totfact>
</mgrwt>
</event>
<event>
 7    0  0.4759581E-002  0.4516352E+03  0.7546771E-02  0.1027236E+00
         21   -1    0    0  502  501  0.00000000000E+00  0.00000000000E+00  0.13424517044E+03  0.13424517044E+03  0.00000000000E+00 0. -1.
         21   -1    0    0  501  502 -0.00000000000E+00 -0.00000000000E+00 -0.37985425854E+03  0.37985425854E+03  0.00000000000E+00 0. -1.
      99926    2    1    2    0    0  0.71054273576E-14  0.00000000000E+00 -0.24560908811E+03  0.51409942898E+03  0.45163524964E+03 0.  0.
      99925    2    3    3    0    0 -0.50425946740E+02 -0.83162494866E+02 -0.21393841130E+03  0.35251565341E+03  0.26275247937E+03 0.  0.
         25    1    4    4    0    0 -0.25903770709E+02 -0.45435885658E+02 -0.15824197103E+03  0.20838295165E+03  0.12509000000E+03 0.  0.
         25    1    4    4    0    0 -0.24522176030E+02 -0.37726609208E+02 -0.55696440267E+02  0.14413270176E+03  0.12509000000E+03 0.  0.
         25    1    3    3    0    0  0.50425946740E+02  0.83162494866E+02 -0.31670676810E+02  0.16158377557E+03  0.12509000000E+03 0.  0.
<mgrwt>
<rscale>  2 0.45163525E+03</rscale>
<asrwt>0</asrwt>
<pdfrwt beam="1">  1       21 0.19741937E-01 0.45163525E+03</pdfrwt>
<pdfrwt beam="2">  1       21 0.55860921E-01 0.45163525E+03</pdfrwt>
<totfact> 0.66036614E+04</totfact>
</mgrwt>
</event>
<event>
 7    0  0.4759581E-002  0.4552945E+03  0.7546771E-02  0.1026155E+00
         21   -1    0    0  502  501  0.00000000000E+00  0.00000000000E+00  0.73951562236E+03  0.73951562236E+03  0.00000000000E+00 0. -1.
         21   -1    0    0  501  502 -0.00000000000E+00 -0.00000000000E+00 -0.70077320756E+02  0.70077320756E+02  0.00000000000E+00 0. -1.
      99926    2    1    2    0    0  0.00000000000E+00  0.00000000000E+00  0.66943830160E+03  0.80959294311E+03  0.45529451335E+03 0.  0.
      99925    2    3    3    0    0  0.95399886578E+02  0.51805002112E+02  0.48004003217E+03  0.55798986450E+03  0.26292462760E+03 0.  0.
         25    1    3    3    0    0 -0.95399886578E+02 -0.51805002112E+02  0.18939826943E+03  0.25160307861E+03  0.12509000000E+03 0.  0.
         25    1    4    4    0    0  0.36848022021E+02  0.30076708249E+02  0.31133465515E+03  0.33887927158E+03  0.12509000000E+03 0.  0.
         25    1    4    4    0    0  0.58551864557E+02  0.21728293862E+02  0.16870537702E+03  0.21911059293E+03  0.12509000000E+03 0.  0.
<mgrwt>
<rscale>  2 0.45529451E+03</rscale>
<asrwt>0</asrwt>
<pdfrwt beam="1">  1       21 0.10875229E+00 0.45529451E+03</pdfrwt>
<pdfrwt beam="2">  1       21 0.10305489E-01 0.45529451E+03</pdfrwt>
<totfact> 0.47195140E+04</totfact>
</mgrwt>
</event>
<event>
 7    0  0.4759581E-002  0.4487388E+03  0.7546771E-02  0.1028099E+00
         21   -1    0    0  502  501  0.00000000000E+00  0.00000000000E+00  0.20115796202E+03  0.20115796202E+03  0.00000000000E+00 0. -1.
         21   -1    0    0  501  502 -0.00000000000E+00 -0.00000000000E+00 -0.25025920525E+03  0.25025920525E+03  0.00000000000E+00 0. -1.
      99926    2    1    2    0    0  0.00000000000E+00  0.00000000000E+00 -0.49101243231E+02  0.45141716728E+03  0.44873881805E+03 0.  0.
      99925    2    3    3    0    0  0.64056158815E+02  0.79419197037E+02 -0.64164642971E+02  0.28929062888E+03  0.26298548669E+03 0.  0.
         25    1    4    4    0    0  0.54168354519E+02  0.87972164478E+01 -0.46128171913E+02  0.14417669018E+03  0.12509000000E+03 0.  0.
         25    1    3    3    0    0 -0.64056158815E+02 -0.79419197037E+02  0.15063399740E+02  0.16212653839E+03  0.12509000000E+03 0.  0.
         25    1    4    4    0    0  0.98878042967E+01  0.70621980589E+02 -0.18036471058E+02  0.14511393870E+03  0.12509000000E+03 0.  0.
<mgrwt>
<rscale>  2 0.44873882E+03</rscale>
<asrwt>0</asrwt>
<pdfrwt beam="1">  1       21 0.29582054E-01 0.44873882E+03</pdfrwt>
<pdfrwt beam="2">  1       21 0.36802824E-01 0.44873882E+03</pdfrwt>
<totfact> 0.72356573E+04</totfact>
</mgrwt>
</event>
<event>
 7    0  0.4759581E-002  0.4523688E+03  0.7546771E-02  0.1027018E+00
         21   -1    0    0  502  501  0.00000000000E+00  0.00000000000E+00  0.26776270038E+02  0.26776270038E+02  0.00000000000E+00 0. -1.
         21   -1    0    0  501  502 -0.00000000000E+00 -0.00000000000E+00 -0.19106238312E+04  0.19106238312E+04  0.00000000000E+00 0. -1.
      99926    2    1    2    0    0 -0.26645352591E-14  0.00000000000E+00 -0.18838475611E+04  0.19374001012E+04  0.45236878603E+03 0.  0.
      99925    2    3    3    0    0 -0.17987404970E+01 -0.72360288715E+02 -0.82898472776E+03  0.87268307205E+03  0.26290838429E+03 0.  0.
         25    1    4    4    0    0  0.23804959731E+02 -0.22561352317E+02 -0.49637896465E+03  0.51294763414E+03  0.12509000000E+03 0.  0.
         25    1    4    4    0    0 -0.25603700228E+02 -0.49798936398E+02 -0.33260576312E+03  0.35973543791E+03  0.12509000000E+03 0.  0.
         25    1    3    3    0    0  0.17987404970E+01  0.72360288715E+02 -0.10548628334E+04  0.10647170292E+04  0.12509000000E+03 0.  0.
<mgrwt>
<rscale>  2 0.45236879E+03</rscale>
<asrwt>0</asrwt>
<pdfrwt beam="1">  1       21 0.39376851E-02 0.45236879E+03</pdfrwt>
<pdfrwt beam="2">  1       21 0.28097421E+00 0.45236879E+03</pdfrwt>
<totfact> 0.15064228E+04</totfact>
</mgrwt>
</event>
<event>
 7    0  0.4759581E-002  0.4147884E+03  0.7546771E-02  0.1038776E+00
         21   -1    0    0  502  501  0.00000000000E+00  0.00000000000E+00  0.45245193986E+03  0.45245193986E+03  0.00000000000E+00 0. -1.
         21   -1    0    0  501  502 -0.00000000000E+00 -0.00000000000E+00 -0.95065020958E+02  0.95065020958E+02  0.00000000000E+00 0. -1.
      99926    2    1    2    0    0  0.00000000000E+00 -0.71054273576E-14  0.35738691890E+03  0.54751696082E+03  0.41478839494E+03 0.  0.
      99925    2    3    3    0    0 -0.49873932228E+02 -0.47256242105E+02  0.23024082128E+03  0.35637774513E+03  0.26319897398E+03 0.  0.
         25    1    4    4    0    0 -0.78580272456E+01 -0.59924457136E+02  0.12891440970E+03  0.18952340827E+03  0.12509000000E+03 0.  0.
         25    1    3    3    0    0  0.49873932228E+02  0.47256242105E+02  0.12714609762E+03  0.19113921569E+03  0.12509000000E+03 0.  0.
         25    1    4    4    0    0 -0.42015904983E+02  0.12668215030E+02  0.10132641158E+03  0.16685433686E+03  0.12509000000E+03 0.  0.
<mgrwt>
<rscale>  2 0.41478839E+03</rscale>
<asrwt>0</asrwt>
<pdfrwt beam="1">  1       21 0.66537049E-01 0.41478839E+03</pdfrwt>
<pdfrwt beam="2">  1       21 0.13980150E-01 0.41478839E+03</pdfrwt>
<totfact> 0.86414438E+04</totfact>
</mgrwt>
</event>
<event>
 7    0  0.4759581E-002  0.4190249E+03  0.7546771E-02  0.1037384E+00
         21   -1    0    0  502  501  0.00000000000E+00  0.00000000000E+00  0.24540680915E+03  0.24540680915E+03  0.00000000000E+00 0. -1.
         21   -1    0    0  501  502 -0.00000000000E+00 -0.00000000000E+00 -0.17886817480E+03  0.17886817480E+03  0.00000000000E+00 0. -1.
      99926    2    1    2    0    0  0.00000000000E+00  0.17763568394E-14  0.66538634357E+02  0.42427498395E+03  0.41902490635E+03 0.  0.
      99925    2    3    3    0    0 -0.72595774453E+02 -0.14076176954E+02  0.44711838655E+02  0.27733212996E+03  0.26352547613E+03 0.  0.
         25    1    4    4    0    0 -0.49139885062E+02  0.30959279913E+02  0.33089108446E+02  0.14182948394E+03  0.12509000000E+03 0.  0.
         25    1    4    4    0    0 -0.23455889391E+02 -0.45035456867E+02  0.11622730209E+02  0.13550264603E+03  0.12509000000E+03 0.  0.
         25    1    3    3    0    0  0.72595774453E+02  0.14076176954E+02  0.21826795702E+02  0.14694285398E+03  0.12509000000E+03 0.  0.
<mgrwt>
<rscale>  2 0.41902491E+03</rscale>
<asrwt>0</asrwt>
<pdfrwt beam="1">  1       21 0.36089237E-01 0.41902491E+03</pdfrwt>
<pdfrwt beam="2">  1       21 0.26304143E-01 0.41902491E+03</pdfrwt>
<totfact> 0.95442733E+04</totfact>
</mgrwt>
</event>
<event>
 7    0  0.4759581E-002  0.4502059E+03  0.7546771E-02  0.1027661E+00
         21   -1    0    0  502  501  0.00000000000E+00  0.00000000000E+00  0.29856214819E+03  0.29856214819E+03  0.00000000000E+00 0. -1.
         21   -1    0    0  501  502 -0.00000000000E+00 -0.00000000000E+00 -0.16971791441E+03  0.16971791441E+03  0.00000000000E+00 0. -1.
      99926    2    1    2    0    0  0.00000000000E+00  0.00000000000E+00  0.12884423378E+03  0.46828006260E+03  0.45020593116E+03 0.  0.
      99925    2    3    3    0    0 -0.34797050384E+02  0.10271071546E+03  0.73237000656E+02  0.29363757561E+03  0.26286696589E+03 0.  0.
         25    1    4    4    0    0 -0.34019097435E+02  0.32735529728E+02  0.68491897758E+02  0.15022503804E+03  0.12509000000E+03 0.  0.
         25    1    3    3    0    0  0.34797050384E+02 -0.10271071546E+03  0.55607233120E+02  0.17464248699E+03  0.12509000000E+03 0.  0.
         25    1    4    4    0    0 -0.77795294908E+00  0.69975185735E+02  0.47451028983E+01  0.14341253757E+03  0.12509000000E+03 0.  0.
<mgrwt>
<rscale>  2 0.45020593E+03</rscale>
<asrwt>0</asrwt>
<pdfrwt beam="1">  1       21 0.43906199E-01 0.45020593E+03</pdfrwt>
<pdfrwt beam="2">  1       21 0.24958516E-01 0.45020593E+03</pdfrwt>
<totfact> 0.70195973E+04</totfact>
</mgrwt>
</event>
<event>
 7    0  0.4759581E-002  0.4553096E+03  0.7546771E-02  0.1026150E+00
         21   -1    0    0  502  501  0.00000000000E+00  0.00000000000E+00  0.73432200606E+03  0.73432200606E+03  0.00000000000E+00 0.  1.
         21   -1    0    0  501  502 -0.00000000000E+00 -0.00000000000E+00 -0.70577641920E+02  0.70577641920E+02  0.00000000000E+00 0.  1.
      99926    2    1    2    0    0  0.00000000000E+00 -0.71054273576E-14  0.66374436414E+03  0.80489964798E+03  0.45530963353E+03 0.  0.
      99925    2    3    3    0    0 -0.77163667920E+02 -0.60408279158E+02  0.51854648399E+03  0.58964787833E+03  0.26304138937E+03 0.  0.
         25    1    4    4    0    0 -0.59365332127E+02 -0.29299812679E+02  0.19526343108E+03  0.24115977546E+03  0.12509000000E+03 0.  0.
         25    1    3    3    0    0  0.77163667920E+02  0.60408279158E+02  0.14519788015E+03  0.21525176965E+03  0.12509000000E+03 0.  0.
         25    1    4    4    0    0 -0.17798335793E+02 -0.31108466480E+02  0.32328305290E+03  0.34848810287E+03  0.12509000000E+03 0.  0.
<mgrwt>
<rscale>  2 0.45530963E+03</rscale>
<asrwt>0</asrwt>
<pdfrwt beam="1">  1       21 0.10798853E+00 0.45530963E+03</pdfrwt>
<pdfrwt beam="2">  1       21 0.10379065E-01 0.45530963E+03</pdfrwt>
<totfact> 0.47413417E+04</totfact>
</mgrwt>
</event>
<event>
 7    0  0.4759581E-002  0.4533708E+03  0.7546771E-02  0.1026722E+00
         21   -1    0    0  502  501  0.00000000000E+00  0.00000000000E+00  0.34727975945E+02  0.34727975945E+02  0.00000000000E+00 0. -1.
         21   -1    0    0  501  502 -0.00000000000E+00 -0.00000000000E+00 -0.14796790862E+04  0.14796790862E+04  0.00000000000E+00 0. -1.
      99926    2    1    2    0    0  0.00000000000E+00  0.00000000000E+00 -0.14449511103E+04  0.15144070622E+04  0.45337075209E+03 0.  0.
      99925    2    3    3    0    0 -0.16265372807E+02  0.57189778463E+01 -0.12790204455E+04  0.13058938427E+04  0.26299840204E+03 0.  0.
         25    1    3    3    0    0  0.16265372807E+02 -0.57189778463E+01 -0.16593066482E+03  0.20851321945E+03  0.12509000000E+03 0.  0.
         25    1    4    4    0    0 -0.30013862145E+02 -0.27934539437E+02 -0.71596675430E+03  0.72796776837E+03  0.12509000000E+03 0.  0.
         25    1    4    4    0    0  0.13748489338E+02  0.33653517283E+02 -0.56305369117E+03  0.57792607436E+03  0.12509000000E+03 0.  0.
<mgrwt>
<rscale>  2 0.45337075E+03</rscale>
<asrwt>0</asrwt>
<pdfrwt beam="1">  1       21 0.51070545E-02 0.45337075E+03</pdfrwt>
<pdfrwt beam="2">  1       21 0.21759990E+00 0.45337075E+03</pdfrwt>
<totfact> 0.23727050E+04</totfact>
</mgrwt>
</event>
<event>
 7    0  0.4759581E-002  0.4573510E+03  0.7546771E-02  0.1025552E+00
         21   -1    0    0  502  501  0.00000000000E+00  0.00000000000E+00  0.62451450944E+03  0.62451450944E+03  0.00000000000E+00 0. -1.
         21   -1    0    0  501  502 -0.00000000000E+00 -0.00000000000E+00 -0.83733006626E+02  0.83733006626E+02  0.00000000000E+00 0. -1.
      99926    2    1    2    0    0  0.00000000000E+00  0.00000000000E+00  0.54078150281E+03  0.70824751606E+03  0.45735097051E+03 0.  0.
      99925    2    3    3    0    0 -0.52868448103E+02  0.74969650056E+02  0.44788938004E+03  0.52743829117E+03  0.26300329466E+03 0.  0.
         25    1    4    4    0    0 -0.14995242700E+02 -0.32455245106E+01  0.19283181395E+03  0.23036277326E+03  0.12509000000E+03 0.  0.
         25    1    3    3    0    0  0.52868448103E+02 -0.74969650056E+02  0.92892122771E+02  0.18080922490E+03  0.12509000000E+03 0.  0.
         25    1    4    4    0    0 -0.37873205404E+02  0.78215174566E+02  0.25505756609E+03  0.29707551791E+03  0.12509000000E+03 0.  0.
<mgrwt>
<rscale>  2 0.45735097E+03</rscale>
<asrwt>0</asrwt>
<pdfrwt beam="1">  1       21 0.91840367E-01 0.45735097E+03</pdfrwt>
<pdfrwt beam="2">  1       21 0.12313678E-01 0.45735097E+03</pdfrwt>
<totfact> 0.51498235E+04</totfact>
</mgrwt>
</event>
<event>
 7    0  0.4759581E-002  0.4273803E+03  0.7546771E-02  0.1034691E+00
         21   -1    0    0  502  501  0.00000000000E+00  0.00000000000E+00  0.30724640831E+03  0.30724640831E+03  0.00000000000E+00 0. -1.
         21   -1    0    0  501  502 -0.00000000000E+00 -0.00000000000E+00 -0.14862165640E+03  0.14862165640E+03  0.00000000000E+00 0. -1.
      99926    2    1    2    0    0  0.00000000000E+00  0.00000000000E+00  0.15862475191E+03  0.45586806472E+03  0.42738025283E+03 0.  0.
      99925    2    3    3    0    0 -0.27382390431E+02  0.79497224494E+02  0.11446546705E+03  0.29881025833E+03  0.26289850385E+03 0.  0.
         25    1    3    3    0    0  0.27382390431E+02 -0.79497224494E+02  0.44159284863E+02  0.15705780639E+03  0.12509000000E+03 0.  0.
         25    1    4    4    0    0 -0.50184124730E+02  0.57406254759E+02  0.52205156983E+02  0.15552109495E+03  0.12509000000E+03 0.  0.
         25    1    4    4    0    0  0.22801734300E+02  0.22090969735E+02  0.62260310065E+02  0.14328916337E+03  0.12509000000E+03 0.  0.
<mgrwt>
<rscale>  2 0.42738025E+03</rscale>
<asrwt>0</asrwt>
<pdfrwt beam="1">  1       21 0.45183296E-01 0.42738025E+03</pdfrwt>
<pdfrwt beam="2">  1       21 0.21856126E-01 0.42738025E+03</pdfrwt>
<totfact> 0.85824160E+04</totfact>
</mgrwt>
</event>
<event>
 7    0  0.4759581E-002  0.4560891E+03  0.7546771E-02  0.1025922E+00
         21   -1    0    0  502  501  0.00000000000E+00  0.00000000000E+00  0.90867373585E+03  0.90867373585E+03  0.00000000000E+00 0.  1.
         21   -1    0    0  501  502 -0.00000000000E+00 -0.00000000000E+00 -0.57231014338E+02  0.57231014338E+02  0.00000000000E+00 0.  1.
      99926    2    1    2    0    0  0.17763568394E-14  0.00000000000E+00  0.85144272151E+03  0.96590475019E+03  0.45608911237E+03 0.  0.
      99925    2    3    3    0    0  0.14889263550E+02 -0.97196311020E+02  0.65921314557E+03  0.71636811758E+03  0.26258807199E+03 0.  0.
         25    1    4    4    0    0 -0.13704394831E+02 -0.79763117966E+02  0.39401578924E+03  0.42124329751E+03  0.12509000000E+03 0.  0.
         25    1    4    4    0    0  0.28593658381E+02 -0.17433193055E+02  0.26519735633E+03  0.29512482007E+03  0.12509000000E+03 0.  0.
         25    1    3    3    0    0 -0.14889263550E+02  0.97196311020E+02  0.19222957594E+03  0.24953663260E+03  0.12509000000E+03 0.  0.
<mgrwt>
<rscale>  2 0.45608911E+03</rscale>
<asrwt>0</asrwt>
<pdfrwt beam="1">  1       21 0.13362848E+00 0.45608911E+03</pdfrwt>
<pdfrwt beam="2">  1       21 0.84163262E-02 0.45608911E+03</pdfrwt>
<totfact> 0.40160370E+04</totfact>
</mgrwt>
</event>
<event>
 7    0  0.4759581E-002  0.4547268E+03  0.7546771E-02  0.1026322E+00
         21   -1    0    0  502  501  0.00000000000E+00  0.00000000000E+00  0.84755763237E+03  0.84755763237E+03  0.00000000000E+00 0.  1.
         21   -1    0    0  501  502 -0.00000000000E+00 -0.00000000000E+00 -0.60991847316E+02  0.60991847316E+02  0.00000000000E+00 0.  1.
      99926    2    1    2    0    0  0.00000000000E+00  0.71054273576E-14  0.78656578505E+03  0.90854947969E+03  0.45472675622E+03 0.  0.
      99925    2    3    3    0    0 -0.73698608975E+02  0.42836406945E+02  0.34707571461E+03  0.44372104592E+03  0.26298359681E+03 0.  0.
         25    1    4    4    0    0 -0.21501904272E+02  0.40965551207E+02  0.22361726390E+03  0.26037030762E+03  0.12509000000E+03 0.  0.
         25    1    4    4    0    0 -0.52196704703E+02  0.18708557381E+01  0.12345845071E+03  0.18335073830E+03  0.12509000000E+03 0.  0.
         25    1    3    3    0    0  0.73698608975E+02 -0.42836406945E+02  0.43949007044E+03  0.46482843377E+03  0.12509000000E+03 0.  0.
<mgrwt>
<rscale>  2 0.45472676E+03</rscale>
<asrwt>0</asrwt>
<pdfrwt beam="1">  1       21 0.12464082E+00 0.45472676E+03</pdfrwt>
<pdfrwt beam="2">  1       21 0.89693898E-02 0.45472676E+03</pdfrwt>
<totfact> 0.42957963E+04</totfact>
</mgrwt>
</event>
<event>
 7    0  0.4759581E-002  0.4339787E+03  0.7546771E-02  0.1032610E+00
         21   -1    0    0  502  501  0.00000000000E+00  0.00000000000E+00  0.22771455799E+03  0.22771455799E+03  0.00000000000E+00 0. -1.
         21   -1    0    0  501  502 -0.00000000000E+00 -0.00000000000E+00 -0.20676926068E+03  0.20676926068E+03  0.00000000000E+00 0. -1.
      99926    2    1    2    0    0 -0.35527136788E-14 -0.14210854715E-13  0.20945297314E+02  0.43448381867E+03  0.43397866677E+03 0.  0.
      99925    2    3    3    0    0  0.19198453991E+02  0.72001165335E+02 -0.40680720361E+02  0.27637618888E+03  0.26301355160E+03 0.  0.
         25    1    4    4    0    0  0.14206076465E+02  0.42758870254E+02 -0.60891836169E+02  0.14623767437E+03  0.12509000000E+03 0.  0.
         25    1    4    4    0    0  0.49923775260E+01  0.29242295081E+02  0.20211115808E+02  0.13013851450E+03  0.12509000000E+03 0.  0.
         25    1    3    3    0    0 -0.19198453991E+02 -0.72001165335E+02  0.61626017675E+02  0.15810762980E+03  0.12509000000E+03 0.  0.
<mgrwt>
<rscale>  2 0.43397867E+03</rscale>
<asrwt>0</asrwt>
<pdfrwt beam="1">  1       21 0.33487435E-01 0.43397867E+03</pdfrwt>
<pdfrwt beam="2">  1       21 0.30407244E-01 0.43397867E+03</pdfrwt>
<totfact> 0.83175208E+04</totfact>
</mgrwt>
</event>
<event>
 7    0  0.4759581E-002  0.4224700E+03  0.7546771E-02  0.1036265E+00
         21   -1    0    0  502  501  0.00000000000E+00  0.00000000000E+00  0.13869148115E+04  0.13869148115E+04  0.00000000000E+00 0. -1.
         21   -1    0    0  501  502 -0.00000000000E+00 -0.00000000000E+00 -0.32172294699E+02  0.32172294699E+02  0.00000000000E+00 0. -1.
      99926    2    1    2    0    0  0.00000000000E+00  0.00000000000E+00  0.13547425168E+04  0.14190871062E+04  0.42247003226E+03 0.  0.
      99925    2    3    3    0    0  0.43519919659E+02 -0.14142154138E+02  0.66461584542E+03  0.71622416466E+03  0.26299971128E+03 0.  0.
         25    1    4    4    0    0  0.35324984568E+02 -0.34537574978E+02  0.41341467759E+03  0.43474119009E+03  0.12509000000E+03 0.  0.
         25    1    4    4    0    0  0.81949350905E+01  0.20395420840E+02  0.25120116783E+03  0.28148297457E+03  0.12509000000E+03 0.  0.
         25    1    3    3    0    0 -0.43519919659E+02  0.14142154138E+02  0.69012667141E+03  0.70286294156E+03  0.12509000000E+03 0.  0.
<mgrwt>
<rscale>  2 0.42247003E+03</rscale>
<asrwt>0</asrwt>
<pdfrwt beam="1">  1       21 0.20395802E+00 0.42247003E+03</pdfrwt>
<pdfrwt beam="2">  1       21 0.47312207E-02 0.42247003E+03</pdfrwt>
<totfact> 0.33538186E+04</totfact>
</mgrwt>
</event>
<event>
 7    0  0.4759581E-002  0.4582435E+03  0.7546771E-02  0.1025292E+00
         21   -1    0    0  502  501  0.00000000000E+00  0.00000000000E+00  0.67590223056E+03  0.67590223056E+03  0.00000000000E+00 0.  1.
         21   -1    0    0  501  502 -0.00000000000E+00 -0.00000000000E+00 -0.77669200332E+02  0.77669200332E+02  0.00000000000E+00 0.  1.
      99926    2    1    2    0    0  0.71054273576E-14  0.00000000000E+00  0.59823303023E+03  0.75357143089E+03  0.45824354115E+03 0.  0.
      99925    2    3    3    0    0  0.50366452446E+02 -0.85919349578E+02  0.47401265246E+03  0.55109396421E+03  0.26286431581E+03 0.  0.
         25    1    3    3    0    0 -0.50366452446E+02  0.85919349578E+02  0.12422037777E+03  0.20247746669E+03  0.12509000000E+03 0.  0.
         25    1    4    4    0    0  0.12600562041E+02 -0.82122524805E+02  0.24278716091E+03  0.28547503717E+03  0.12509000000E+03 0.  0.
         25    1    4    4    0    0  0.37765890405E+02 -0.37968247729E+01  0.23122549155E+03  0.26561892704E+03  0.12509000000E+03 0.  0.
<mgrwt>
<rscale>  2 0.45824354E+03</rscale>
<asrwt>0</asrwt>
<pdfrwt beam="1">  1       21 0.99397384E-01 0.45824354E+03</pdfrwt>
<pdfrwt beam="2">  1       21 0.11421942E-01 0.45824354E+03</pdfrwt>
<totfact> 0.48832329E+04</totfact>
</mgrwt>
</event>
<event>
 7    0  0.4759581E-002  0.4622286E+03  0.7546771E-02  0.1024137E+00
         21   -1    0    0  502  501  0.00000000000E+00  0.00000000000E+00  0.31157462126E+02  0.31157462126E+02  0.00000000000E+00 0.  1.
         21   -1    0    0  501  502 -0.00000000000E+00 -0.00000000000E+00 -0.17143187826E+04  0.17143187826E+04  0.00000000000E+00 0.  1.
      99926    2    1    2    0    0  0.00000000000E+00  0.71054273576E-14 -0.16831613204E+04  0.17454762447E+04  0.46222861244E+03 0.  0.
      99925    2    3    3    0    0  0.38202761790E+02 -0.59355115756E+02 -0.14183245689E+04  0.14441981442E+04  0.26283305760E+03 0.  0.
         25    1    3    3    0    0 -0.38202761790E+02  0.59355115756E+02 -0.26483675154E+03  0.30127810050E+03  0.12509000000E+03 0.  0.
         25    1    4    4    0    0  0.84815579186E+01 -0.21445766653E+02 -0.89432170130E+03  0.90332201968E+03  0.12509000000E+03 0.  0.
         25    1    4    4    0    0  0.29721203871E+02 -0.37909349103E+02 -0.52400286761E+03  0.54087612451E+03  0.12509000000E+03 0.  0.
<mgrwt>
<rscale>  2 0.46222861E+03</rscale>
<asrwt>0</asrwt>
<pdfrwt beam="1">  1       21 0.45819786E-02 0.46222861E+03</pdfrwt>
<pdfrwt beam="2">  1       21 0.25210577E+00 0.46222861E+03</pdfrwt>
<totfact> 0.17337482E+04</totfact>
</mgrwt>
</event>
<event>
 7    0  0.4759581E-002  0.4537613E+03  0.7546771E-02  0.1026606E+00
         21   -1    0    0  502  501  0.00000000000E+00  0.00000000000E+00  0.23810199581E+03  0.23810199581E+03  0.00000000000E+00 0. -1.
         21   -1    0    0  501  502 -0.00000000000E+00 -0.00000000000E+00 -0.21618816380E+03  0.21618816380E+03  0.00000000000E+00 0. -1.
      99926    2    1    2    0    0  0.00000000000E+00  0.00000000000E+00  0.21913832012E+02  0.45429015961E+03  0.45376131731E+03 0.  0.
      99925    2    3    3    0    0  0.11069717122E+03 -0.13617137140E+02  0.24270883135E+02  0.28668242134E+03  0.26297993230E+03 0.  0.
         25    1    3    3    0    0 -0.11069717122E+03  0.13617137140E+02 -0.23570511230E+01  0.16760773828E+03  0.12509000000E+03 0.  0.
         25    1    4    4    0    0  0.41859536912E+02  0.31855772356E+02  0.15448576868E+02  0.13657663669E+03  0.12509000000E+03 0.  0.
         25    1    4    4    0    0  0.68837634311E+02 -0.45472909496E+02  0.88223062668E+01  0.15010578464E+03  0.12509000000E+03 0.  0.
<mgrwt>
<rscale>  2 0.45376132E+03</rscale>
<asrwt>0</asrwt>
<pdfrwt beam="1">  1       21 0.35015000E-01 0.45376132E+03</pdfrwt>
<pdfrwt beam="2">  1       21 0.31792377E-01 0.45376132E+03</pdfrwt>
<totfact> 0.69280038E+04</totfact>
</mgrwt>
</event>
<event>
 7    0  0.4759581E-002  0.4565674E+03  0.7546771E-02  0.1025781E+00
         21   -1    0    0  502  501  0.00000000000E+00  0.00000000000E+00  0.27303376775E+03  0.27303376775E+03  0.00000000000E+00 0.  1.
         21   -1    0    0  501  502 -0.00000000000E+00 -0.00000000000E+00 -0.19086815732E+03  0.19086815732E+03  0.00000000000E+00 0.  1.
      99926    2    1    2    0    0  0.00000000000E+00 -0.35527136788E-14  0.82165610434E+02  0.46390192507E+03  0.45656741949E+03 0.  0.
      99925    2    3    3    0    0  0.87374512027E+02 -0.24610598601E+02 -0.18404667046E+02  0.27950594971E+03  0.26371358941E+03 0.  0.
         25    1    4    4    0    0  0.22202696516E+02  0.20515699792E+02 -0.25709219012E+02  0.13123385887E+03  0.12509000000E+03 0.  0.
         25    1    4    4    0    0  0.65171815511E+02 -0.45126298393E+02  0.73045519656E+01  0.14827209084E+03  0.12509000000E+03 0.  0.
         25    1    3    3    0    0 -0.87374512027E+02  0.24610598601E+02  0.10057027748E+03  0.18439597536E+03  0.12509000000E+03 0.  0.
<mgrwt>
<rscale>  2 0.45656742E+03</rscale>
<asrwt>0</asrwt>
<pdfrwt beam="1">  1       21 0.40152025E-01 0.45656742E+03</pdfrwt>
<pdfrwt beam="2">  1       21 0.28068847E-01 0.45656742E+03</pdfrwt>
<totfact> 0.67052344E+04</totfact>
</mgrwt>
</event>
<event>
 6    0  0.4759581E-002  0.4459361E+03  0.7546771E-02  0.1028941E+00
         21   -1    0    0  502  501  0.00000000000E+00  0.00000000000E+00  0.33296839610E+03  0.33296839610E+03  0.00000000000E+00 0.  1.
         21   -1    0    0  501  502 -0.00000000000E+00 -0.00000000000E+00 -0.14930771564E+03  0.14930771564E+03  0.00000000000E+00 0.  1.
      99926    2    1    2    0    0  0.00000000000E+00 -0.35527136788E-14  0.18366068046E+03  0.48227611174E+03  0.44593609677E+03 0.  0.
         25    1    3    3    0    0  0.43535349077E+02 -0.41178103953E+01  0.67049322205E+02  0.14851061474E+03  0.12509000000E+03 0.  0.
         25    1    3    3    0    0 -0.97535857338E+02  0.26109915447E+02  0.11153741034E+03  0.19566060706E+03  0.12509000000E+03 0.  0.
         25    1    3    3    0    0  0.54000508260E+02 -0.21992105052E+02  0.50739479163E+01  0.13810488994E+03  0.12509000000E+03 0.  0.
<mgrwt>
<rscale>  2 0.44593610E+03</rscale>
<asrwt>0</asrwt>
<pdfrwt beam="1">  1       21 0.48965941E-01 0.44593610E+03</pdfrwt>
<pdfrwt beam="2">  1       21 0.21957017E-01 0.44593610E+03</pdfrwt>
<totfact> 0.71545879E+04</totfact>
</mgrwt>
</event>
<event>
 7    0  0.4759581E-002  0.4598739E+03  0.7546771E-02  0.1024818E+00
         21   -1    0    0  502  501  0.00000000000E+00  0.00000000000E+00  0.15223967104E+03  0.15223967104E+03  0.00000000000E+00 0.  1.
         21   -1    0    0  501  502 -0.00000000000E+00 -0.00000000000E+00 -0.34728787970E+03  0.34728787970E+03  0.00000000000E+00 0.  1.
      99926    2    1    2    0    0  0.14210854715E-13  0.00000000000E+00 -0.19504820865E+03  0.49952755074E+03  0.45987386341E+03 0.  0.
      99925    2    3    3    0    0  0.85557765740E+02  0.14833464407E+02 -0.35950043948E+02  0.27930062900E+03  0.26301382617E+03 0.  0.
         25    1    3    3    0    0 -0.85557765740E+02 -0.14833464407E+02 -0.15909816471E+03  0.22022692174E+03  0.12509000000E+03 0.  0.
         25    1    4    4    0    0  0.47922884362E+02  0.82476796006E+00  0.21924011292E+02  0.13574038993E+03  0.12509000000E+03 0.  0.
         25    1    4    4    0    0  0.37634881378E+02  0.14008696447E+02 -0.57874055241E+02  0.14356023907E+03  0.12509000000E+03 0.  0.
<mgrwt>
<rscale>  2 0.45987386E+03</rscale>
<asrwt>0</asrwt>
<pdfrwt beam="1">  1       21 0.22388187E-01 0.45987386E+03</pdfrwt>
<pdfrwt beam="2">  1       21 0.51071746E-01 0.45987386E+03</pdfrwt>
<totfact> 0.62837233E+04</totfact>
</mgrwt>
</event>
<event>
 7    0  0.4759581E-002  0.4545509E+03  0.7546771E-02  0.1026374E+00
         21   -1    0    0  502  501  0.00000000000E+00  0.00000000000E+00  0.20149588363E+03  0.20149588363E+03  0.00000000000E+00 0.  1.
         21   -1    0    0  501  502 -0.00000000000E+00 -0.00000000000E+00 -0.25635324098E+03  0.25635324098E+03  0.00000000000E+00 0.  1.
      99926    2    1    2    0    0  0.00000000000E+00  0.00000000000E+00 -0.54857357358E+02  0.45784912461E+03  0.45455086762E+03 0.  0.
      99925    2    3    3    0    0 -0.10700682837E+03  0.18142248567E+02 -0.63427530529E+02  0.29201620125E+03  0.26357315429E+03 0.  0.
         25    1    4    4    0    0 -0.60229805801E+02  0.30279027235E+02  0.35016373856E+01  0.14214154411E+03  0.12509000000E+03 0.  0.
         25    1    3    3    0    0  0.10700682837E+03 -0.18142248567E+02  0.85701731708E+01  0.16583292336E+03  0.12509000000E+03 0.  0.
         25    1    4    4    0    0 -0.46777022570E+02 -0.12136778668E+02 -0.66929167914E+02  0.14987465715E+03  0.12509000000E+03 0.  0.
<mgrwt>
<rscale>  2 0.45455087E+03</rscale>
<asrwt>0</asrwt>
<pdfrwt beam="1">  1       21 0.29631748E-01 0.45455087E+03</pdfrwt>
<pdfrwt beam="2">  1       21 0.37699006E-01 0.45455087E+03</pdfrwt>
<totfact> 0.68582873E+04</totfact>
</mgrwt>
</event>
<event>
 7    0  0.4759581E-002  0.4527173E+03  0.7546771E-02  0.1026915E+00
         21   -1    0    0  502  501  0.00000000000E+00  0.00000000000E+00  0.11775585596E+03  0.11775585596E+03  0.00000000000E+00 0. -1.
         21   -1    0    0  501  502 -0.00000000000E+00 -0.00000000000E+00 -0.43512260873E+03  0.43512260873E+03  0.00000000000E+00 0. -1.
      99926    2    1    2    0    0  0.35527136788E-14 -0.14210854715E-13 -0.31736675278E+03  0.55287846469E+03  0.45271728590E+03 0.  0.
      99925    2    3    3    0    0  0.29416206437E+02 -0.72744957087E+02 -0.10433824229E+03  0.29367623406E+03  0.26306295761E+03 0.  0.
         25    1    3    3    0    0 -0.29416206437E+02  0.72744957087E+02 -0.21302851049E+03  0.25920223063E+03  0.12509000000E+03 0.  0.
         25    1    4    4    0    0  0.10110908860E+02 -0.14713436401E+02 -0.12716743522E+02  0.12699582416E+03  0.12509000000E+03 0.  0.
         25    1    4    4    0    0  0.19305297577E+02 -0.58031520686E+02 -0.91621498765E+02  0.16668040990E+03  0.12509000000E+03 0.  0.
<mgrwt>
<rscale>  2 0.45271729E+03</rscale>
<asrwt>0</asrwt>
<pdfrwt beam="1">  1       21 0.17317037E-01 0.45271729E+03</pdfrwt>
<pdfrwt beam="2">  1       21 0.63988620E-01 0.45271729E+03</pdfrwt>
<totfact> 0.62803215E+04</totfact>
</mgrwt>
</event>
<event>
 7    0  0.4759581E-002  0.4425579E+03  0.7546771E-02  0.1029965E+00
         21   -1    0    0  502  501  0.00000000000E+00  0.00000000000E+00  0.19654111601E+03  0.19654111601E+03  0.00000000000E+00 0.  1.
         21   -1    0    0  501  502 -0.00000000000E+00 -0.00000000000E+00 -0.24913040035E+03  0.24913040035E+03  0.00000000000E+00 0.  1.
      99926    2    1    2    0    0  0.00000000000E+00  0.00000000000E+00 -0.52589284343E+02  0.44567151635E+03  0.44255786928E+03 0.  0.
      99925    2    3    3    0    0  0.94003430568E+02  0.32157957933E+02 -0.28873489946E+02  0.28417623401E+03  0.26467276841E+03 0.  0.
         25    1    4    4    0    0  0.91189692642E+02  0.29265061009E+02 -0.15001220741E+02  0.15825469523E+03  0.12509000000E+03 0.  0.
         25    1    3    3    0    0 -0.94003430568E+02 -0.32157957933E+02 -0.23715794398E+02  0.16149528235E+03  0.12509000000E+03 0.  0.
         25    1    4    4    0    0  0.28137379261E+01  0.28928969232E+01 -0.13872269205E+02  0.12592153877E+03  0.12509000000E+03 0.  0.
<mgrwt>
<rscale>  2 0.44255787E+03</rscale>
<asrwt>0</asrwt>
<pdfrwt beam="1">  1       21 0.28903105E-01 0.44255787E+03</pdfrwt>
<pdfrwt beam="2">  1       21 0.36636823E-01 0.44255787E+03</pdfrwt>
<totfact> 0.76556566E+04</totfact>
</mgrwt>
</event>
<event>
 7    0  0.4759581E-002  0.4511680E+03  0.7546771E-02  0.1027374E+00
         21   -1    0    0  502  501  0.00000000000E+00  0.00000000000E+00  0.71354096871E+03  0.71354096871E+03  0.00000000000E+00 0. -1.
         21   -1    0    0  501  502 -0.00000000000E+00 -0.00000000000E+00 -0.71317758451E+02  0.71317758451E+02  0.00000000000E+00 0. -1.
      99926    2    1    2    0    0  0.00000000000E+00  0.00000000000E+00  0.64222321025E+03  0.78485872716E+03  0.45116800618E+03 0.  0.
      99925    2    3    3    0    0 -0.19856065898E+02 -0.10064139833E+03  0.47269806247E+03  0.55053152378E+03  0.26290406236E+03 0.  0.
         25    1    4    4    0    0  0.14279120837E+02 -0.14992294346E+02  0.20925070951E+03  0.24466718151E+03  0.12509000000E+03 0.  0.
         25    1    4    4    0    0 -0.34135186735E+02 -0.85649103982E+02  0.26344735296E+03  0.30586434226E+03  0.12509000000E+03 0.  0.
         25    1    3    3    0    0  0.19856065898E+02  0.10064139833E+03  0.16952514779E+03  0.23432720338E+03  0.12509000000E+03 0.  0.
<mgrwt>
<rscale>  2 0.45116801E+03</rscale>
<asrwt>0</asrwt>
<pdfrwt beam="1">  1       21 0.10493249E+00 0.45116801E+03</pdfrwt>
<pdfrwt beam="2">  1       21 0.10487906E-01 0.45116801E+03</pdfrwt>
<totfact> 0.49992675E+04</totfact>
</mgrwt>
</event>
<event>
 7    0  0.4759581E-002  0.4535516E+03  0.7546771E-02  0.1026668E+00
         21   -1    0    0  502  501  0.00000000000E+00  0.00000000000E+00  0.30106674515E+03  0.30106674515E+03  0.00000000000E+00 0. -1.
         21   -1    0    0  501  502 -0.00000000000E+00 -0.00000000000E+00 -0.17081680939E+03  0.17081680939E+03  0.00000000000E+00 0. -1.
      99926    2    1    2    0    0  0.00000000000E+00 -0.14210854715E-13  0.13024993577E+03  0.47188355454E+03  0.45355158834E+03 0.  0.
      99925    2    3    3    0    0  0.52378431978E+02 -0.82603116552E+02  0.13874769732E+03  0.31286627544E+03  0.26280716847E+03 0.  0.
         25    1    4    4    0    0  0.53188782890E+02 -0.11342793486E+02  0.70494721395E+02  0.15354061168E+03  0.12509000000E+03 0.  0.
         25    1    3    3    0    0 -0.52378431978E+02  0.82603116552E+02 -0.84977615593E+01  0.15901727910E+03  0.12509000000E+03 0.  0.
         25    1    4    4    0    0 -0.81035091204E+00 -0.71260323066E+02  0.68252975930E+02  0.15932566377E+03  0.12509000000E+03 0.  0.
<mgrwt>
<rscale>  2 0.45355159E+03</rscale>
<asrwt>0</asrwt>
<pdfrwt beam="1">  1       21 0.44274521E-01 0.45355159E+03</pdfrwt>
<pdfrwt beam="2">  1       21 0.25120119E-01 0.45355159E+03</pdfrwt>
<totfact> 0.68074899E+04</totfact>
</mgrwt>
</event>
<event>
 7    0  0.4759581E-002  0.4154028E+03  0.7546771E-02  0.1038573E+00
         21   -1    0    0  502  501  0.00000000000E+00  0.00000000000E+00  0.11683249543E+03  0.11683249543E+03  0.00000000000E+00 0. -1.
         21   -1    0    0  501  502 -0.00000000000E+00 -0.00000000000E+00 -0.36924542344E+03  0.36924542344E+03  0.00000000000E+00 0. -1.
      99926    2    1    2    0    0  0.00000000000E+00  0.00000000000E+00 -0.25241292801E+03  0.48607791887E+03  0.41540276478E+03 0.  0.
      99925    2    3    3    0    0 -0.26105886993E+02  0.58465396728E+02 -0.13255405762E+03  0.30137984941E+03  0.26298196799E+03 0.  0.
         25    1    4    4    0    0 -0.21050202245E+02 -0.94364754105E+01 -0.49361572981E+02  0.13644130998E+03  0.12509000000E+03 0.  0.
         25    1    4    4    0    0 -0.50556847476E+01  0.67901872138E+02 -0.83192484643E+02  0.16493853943E+03  0.12509000000E+03 0.  0.
         25    1    3    3    0    0  0.26105886993E+02 -0.58465396728E+02 -0.11985887038E+03  0.18469806945E+03  0.12509000000E+03 0.  0.
<mgrwt>
<rscale>  2 0.41540276E+03</rscale>
<asrwt>0</asrwt>
<pdfrwt beam="1">  1       21 0.17181250E-01 0.41540276E+03</pdfrwt>
<pdfrwt beam="2">  1       21 0.54300797E-01 0.41540276E+03</pdfrwt>
<totfact> 0.91914481E+04</totfact>
</mgrwt>
</event>
<event>
 7    0  0.4759581E-002  0.4538470E+03  0.7546771E-02  0.1026581E+00
         21   -1    0    0  502  501  0.00000000000E+00  0.00000000000E+00  0.14648920844E+02  0.14648920844E+02  0.00000000000E+00 0. -1.
         21   -1    0    0  501  502 -0.00000000000E+00 -0.00000000000E+00 -0.35152263510E+04  0.35152263510E+04  0.00000000000E+00 0. -1.
      99926    2    1    2    0    0  0.17763568394E-14  0.00000000000E+00 -0.35005774301E+04  0.35298752718E+04  0.45384698991E+03 0.  0.
      99925    2    3    3    0    0 -0.22606286040E+01 -0.10647794900E+03 -0.19838986615E+04  0.20043246632E+04  0.26480330898E+03 0.  0.
         25    1    4    4    0    0 -0.20632450957E+02 -0.16417094700E+02 -0.10252995230E+04  0.10332385199E+04  0.12509000000E+03 0.  0.
         25    1    3    3    0    0  0.22606286040E+01  0.10647794900E+03 -0.15166787686E+04  0.15255506086E+04  0.12509000000E+03 0.  0.
         25    1    4    4    0    0  0.18371822353E+02 -0.90060854301E+02 -0.95859913851E+03  0.97108614334E+03  0.12509000000E+03 0.  0.
<mgrwt>
<rscale>  2 0.45384699E+03</rscale>
<asrwt>0</asrwt>
<pdfrwt beam="1">  1       21 0.21542524E-02 0.45384699E+03</pdfrwt>
<pdfrwt beam="2">  1       21 0.51694521E+00 0.45384699E+03</pdfrwt>
<totfact> 0.12249594E+03</totfact>
</mgrwt>
</event>
<event>
 7    0  0.4759581E-002  0.4457399E+03  0.7546771E-02  0.1029000E+00
         21   -1    0    0  502  501  0.00000000000E+00  0.00000000000E+00  0.16538378420E+03  0.16538378420E+03  0.00000000000E+00 0. -1.
         21   -1    0    0  501  502 -0.00000000000E+00 -0.00000000000E+00 -0.30033794239E+03  0.30033794239E+03  0.00000000000E+00 0. -1.
      99926    2    1    2    0    0  0.00000000000E+00 -0.35527136788E-14 -0.13495415820E+03  0.46572172659E+03  0.44573994863E+03 0.  0.
      99925    2    3    3    0    0  0.56673750072E+02  0.31445688885E+02 -0.17094631656E+03  0.32031303063E+03  0.26301530212E+03 0.  0.
         25    1    3    3    0    0 -0.56673750072E+02 -0.31445688885E+02  0.35992158362E+02  0.14540869596E+03  0.12509000000E+03 0.  0.
         25    1    4    4    0    0  0.77448295259E-01  0.73229077557E+00 -0.49763241225E+02  0.13462700519E+03  0.12509000000E+03 0.  0.
         25    1    4    4    0    0  0.56596301777E+02  0.30713398110E+02 -0.12118307533E+03  0.18568602545E+03  0.12509000000E+03 0.  0.
<mgrwt>
<rscale>  2 0.44573995E+03</rscale>
<asrwt>0</asrwt>
<pdfrwt beam="1">  1       21 0.24321145E-01 0.44573995E+03</pdfrwt>
<pdfrwt beam="2">  1       21 0.44167344E-01 0.44573995E+03</pdfrwt>
<totfact> 0.72970742E+04</totfact>
</mgrwt>
</event>
<event>
 7    0  0.4759581E-002  0.4545225E+03  0.7546771E-02  0.1026382E+00
         21   -1    0    0  502  501  0.00000000000E+00  0.00000000000E+00  0.24438402317E+03  0.24438402317E+03  0.00000000000E+00 0.  1.
         21   -1    0    0  501  502 -0.00000000000E+00 -0.00000000000E+00 -0.21133819729E+03  0.21133819729E+03  0.00000000000E+00 0.  1.
      99926    2    1    2    0    0  0.00000000000E+00 -0.17763568394E-14  0.33045825880E+02  0.45572222046E+03  0.45452251387E+03 0.  0.
      99925    2    3    3    0    0 -0.69285423773E+02  0.74552031501E+01 -0.68072261766E+02  0.28042696739E+03  0.26296273731E+03 0.  0.
         25    1    3    3    0    0  0.69285423773E+02 -0.74552031501E+01  0.10111808765E+03  0.17529525308E+03  0.12509000000E+03 0.  0.
         25    1    4    4    0    0 -0.34177875621E+02 -0.27493576621E+02 -0.71934872711E+01  0.13275269600E+03  0.12509000000E+03 0.  0.
         25    1    4    4    0    0 -0.35107548153E+02  0.34948779771E+02 -0.60878774495E+02  0.14767427138E+03  0.12509000000E+03 0.  0.
<mgrwt>
<rscale>  2 0.45452251E+03</rscale>
<asrwt>0</asrwt>
<pdfrwt beam="1">  1       21 0.35938827E-01 0.45452251E+03</pdfrwt>
<pdfrwt beam="2">  1       21 0.31079146E-01 0.45452251E+03</pdfrwt>
<totfact> 0.68754516E+04</totfact>
</mgrwt>
</event>
<event>
 7    0  0.4759581E-002  0.4504419E+03  0.7546771E-02  0.1027590E+00
         21   -1    0    0  502  501  0.00000000000E+00  0.00000000000E+00  0.21646011186E+03  0.21646011186E+03  0.00000000000E+00 0. -1.
         21   -1    0    0  501  502 -0.00000000000E+00 -0.00000000000E+00 -0.23433635604E+03  0.23433635604E+03  0.00000000000E+00 0. -1.
      99926    2    1    2    0    0  0.00000000000E+00  0.00000000000E+00 -0.17876244181E+02  0.45079646790E+03  0.45044188900E+03 0.  0.
      99925    2    3    3    0    0  0.13351288941E+02  0.10005497879E+03 -0.51898665768E+02  0.28649707969E+03  0.26305484118E+03 0.  0.
         25    1    4    4    0    0  0.16200266274E+02  0.41101682288E+02 -0.64684744705E+02  0.14759207706E+03  0.12509000000E+03 0.  0.
         25    1    3    3    0    0 -0.13351288941E+02 -0.10005497879E+03  0.34022421587E+02  0.16429938821E+03  0.12509000000E+03 0.  0.
         25    1    4    4    0    0 -0.28489773335E+01  0.58953296499E+02  0.12786078938E+02  0.13890500263E+03  0.12509000000E+03 0.  0.
<mgrwt>
<rscale>  2 0.45044189E+03</rscale>
<asrwt>0</asrwt>
<pdfrwt beam="1">  1       21 0.31832370E-01 0.45044189E+03</pdfrwt>
<pdfrwt beam="2">  1       21 0.34461229E-01 0.45044189E+03</pdfrwt>
<totfact> 0.71417080E+04</totfact>
</mgrwt>
</event>
<event>
 7    0  0.4759581E-002  0.4580180E+03  0.7546771E-02  0.1025358E+00
         21   -1    0    0  502  501  0.00000000000E+00  0.00000000000E+00  0.84884375985E+02  0.84884375985E+02  0.00000000000E+00 0. -1.
         21   -1    0    0  501  502 -0.00000000000E+00 -0.00000000000E+00 -0.61784188178E+03  0.61784188178E+03  0.00000000000E+00 0. -1.
      99926    2    1    2    0    0 -0.44408920985E-15  0.71054273576E-14 -0.53295750579E+03  0.70272625776E+03  0.45801800223E+03 0.  0.
      99925    2    3    3    0    0  0.38906763370E+01  0.57785590511E+02 -0.18038105931E+03  0.32416058242E+03  0.26303696471E+03 0.  0.
         25    1    4    4    0    0  0.22295514480E+02  0.19392074626E+02 -0.48239021441E+02  0.13728675761E+03  0.12509000000E+03 0.  0.
         25    1    3    3    0    0 -0.38906763370E+01 -0.57785590511E+02 -0.35257644648E+03  0.37856567534E+03  0.12509000000E+03 0.  0.
         25    1    4    4    0    0 -0.18404838143E+02  0.38393515885E+02 -0.13214203787E+03  0.18687382482E+03  0.12509000000E+03 0.  0.
<mgrwt>
<rscale>  2 0.45801800E+03</rscale>
<asrwt>0</asrwt>
<pdfrwt beam="1">  1       21 0.12482996E-01 0.45801800E+03</pdfrwt>
<pdfrwt beam="2">  1       21 0.90859105E-01 0.45801800E+03</pdfrwt>
<totfact> 0.51520646E+04</totfact>
</mgrwt>
</event>
<event>
 7    0  0.4759581E-002  0.4546838E+03  0.7546771E-02  0.1026334E+00
         21   -1    0    0  502  501  0.00000000000E+00  0.00000000000E+00  0.58380964849E+02  0.58380964849E+02  0.00000000000E+00 0. -1.
         21   -1    0    0  501  502 -0.00000000000E+00 -0.00000000000E+00 -0.88529429626E+03  0.88529429626E+03  0.00000000000E+00 0. -1.
      99926    2    1    2    0    0 -0.14210854715E-13 -0.14210854715E-13 -0.82691333141E+03  0.94367526111E+03  0.45468378107E+03 0.  0.
      99925    2    3    3    0    0 -0.77545185608E+02 -0.75685317975E+02 -0.45384158805E+03  0.53554347239E+03  0.26285566497E+03 0.  0.
         25    1    3    3    0    0  0.77545185608E+02  0.75685317975E+02 -0.37307174336E+03  0.40813178871E+03  0.12509000000E+03 0.  0.
         25    1    4    4    0    0 -0.47771308941E+02  0.22679648573E+01 -0.21024565254E+03  0.24927491678E+03  0.12509000000E+03 0.  0.
         25    1    4    4    0    0 -0.29773876667E+02 -0.77953282832E+02 -0.24359593551E+03  0.28626855561E+03  0.12509000000E+03 0.  0.
<mgrwt>
<rscale>  2 0.45468378E+03</rscale>
<asrwt>0</asrwt>
<pdfrwt beam="1">  1       21 0.85854354E-02 0.45468378E+03</pdfrwt>
<pdfrwt beam="2">  1       21 0.13019035E+00 0.45468378E+03</pdfrwt>
<totfact> 0.41500502E+04</totfact>
</mgrwt>
</event>
<event>
 7    0  0.4759581E-002  0.4571805E+03  0.7546771E-02  0.1025602E+00
         21   -1    0    0  502  501  0.00000000000E+00  0.00000000000E+00  0.13487142171E+04  0.13487142171E+04  0.00000000000E+00 0. -1.
         21   -1    0    0  501  502 -0.00000000000E+00 -0.00000000000E+00 -0.38743192232E+02  0.38743192232E+02  0.00000000000E+00 0. -1.
      99926    2    1    2    0    0 -0.17763568394E-14  0.00000000000E+00  0.13099710249E+04  0.13874574093E+04  0.45718046406E+03 0.  0.
      99925    2    3    3    0    0 -0.13597198554E+02 -0.53169595477E+02  0.51526650337E+03  0.58109851016E+03  0.26299053085E+03 0.  0.
         25    1    4    4    0    0  0.11315297431E+02 -0.22857690503E+02  0.33257449379E+03  0.35623561303E+03  0.12509000000E+03 0.  0.
         25    1    3    3    0    0  0.13597198554E+02  0.53169595477E+02  0.79470452149E+03  0.80635889917E+03  0.12509000000E+03 0.  0.
         25    1    4    4    0    0 -0.24912495984E+02 -0.30311904974E+02  0.18269200958E+03  0.22486289712E+03  0.12509000000E+03 0.  0.
<mgrwt>
<rscale>  2 0.45718046E+03</rscale>
<asrwt>0</asrwt>
<pdfrwt beam="1">  1       21 0.19834029E+00 0.45718046E+03</pdfrwt>
<pdfrwt beam="2">  1       21 0.56975292E-02 0.45718046E+03</pdfrwt>
<totfact> 0.26221011E+04</totfact>
</mgrwt>
</event>
<event>
 7    0  0.4759581E-002  0.4794354E+03  0.7546771E-02  0.1019290E+00
         21   -1    0    0  502  501  0.00000000000E+00  0.00000000000E+00  0.32282084088E+03  0.32282084088E+03  0.00000000000E+00 0. -1.
         21   -1    0    0  501  502 -0.00000000000E+00 -0.00000000000E+00 -0.17800761421E+03  0.17800761421E+03  0.00000000000E+00 0. -1.
      99926    2    1    2    0    0 -0.71054273576E-14 -0.71054273576E-14  0.14481322666E+03  0.50082845509E+03  0.47943536667E+03 0.  0.
      99925    2    3    3    0    0  0.49391328148E+02 -0.42116014132E+02  0.21258813488E+03  0.34445004154E+03  0.26313276892E+03 0.  0.
         25    1    3    3    0    0 -0.49391328148E+02  0.42116014132E+02 -0.67774908214E+02  0.15637841356E+03  0.12509000000E+03 0.  0.
         25    1    4    4    0    0  0.34303340936E+02  0.10263291695E+02  0.72754847940E+02  0.14907323822E+03  0.12509000000E+03 0.  0.
         25    1    4    4    0    0  0.15087987211E+02 -0.52379305827E+02  0.13983328694E+03  0.19537680331E+03  0.12509000000E+03 0.  0.
<mgrwt>
<rscale>  2 0.47943537E+03</rscale>
<asrwt>0</asrwt>
<pdfrwt beam="1">  1       21 0.47473653E-01 0.47943537E+03</pdfrwt>
<pdfrwt beam="2">  1       21 0.26177590E-01 0.47943537E+03</pdfrwt>
<totfact> 0.53961156E+04</totfact>
</mgrwt>
</event>
<event>
 7    0  0.4759581E-002  0.4070200E+03  0.7546771E-02  0.1041376E+00
         21   -1    0    0  502  501  0.00000000000E+00  0.00000000000E+00  0.33190063387E+02  0.33190063387E+02  0.00000000000E+00 0.  1.
         21   -1    0    0  501  502 -0.00000000000E+00 -0.00000000000E+00 -0.12478532018E+04  0.12478532018E+04  0.00000000000E+00 0.  1.
      99926    2    1    2    0    0  0.00000000000E+00  0.00000000000E+00 -0.12146631384E+04  0.12810432652E+04  0.40702003325E+03 0.  0.
      99925    2    3    3    0    0  0.29570210111E+02 -0.26744441214E+02 -0.93551975853E+03  0.97256604221E+03  0.26286465226E+03 0.  0.
         25    1    4    4    0    0 -0.25594666911E+02 -0.11121281179E+02 -0.43766541041E+03  0.45604527126E+03  0.12509000000E+03 0.  0.
         25    1    4    4    0    0  0.55164877022E+02 -0.15623160035E+02 -0.49785434812E+03  0.51652077095E+03  0.12509000000E+03 0.  0.
         25    1    3    3    0    0 -0.29570210111E+02  0.26744441214E+02 -0.27914337992E+03  0.30847722301E+03  0.12509000000E+03 0.  0.
<mgrwt>
<rscale>  2 0.40702003E+03</rscale>
<asrwt>0</asrwt>
<pdfrwt beam="1">  1       21 0.48808914E-02 0.40702003E+03</pdfrwt>
<pdfrwt beam="2">  1       21 0.18350784E+00 0.40702003E+03</pdfrwt>
<totfact> 0.43912752E+04</totfact>
</mgrwt>
</event>
<event>
 7    0  0.4759581E-002  0.4500455E+03  0.7546771E-02  0.1027708E+00
         21   -1    0    0  502  501  0.00000000000E+00  0.00000000000E+00  0.14202715362E+04  0.14202715362E+04  0.00000000000E+00 0. -1.
         21   -1    0    0  501  502 -0.00000000000E+00 -0.00000000000E+00 -0.35651804419E+02  0.35651804419E+02  0.00000000000E+00 0. -1.
      99926    2    1    2    0    0  0.00000000000E+00  0.00000000000E+00  0.13846197318E+04  0.14559233406E+04  0.45004552228E+03 0.  0.
      99925    2    3    3    0    0 -0.43526397179E+02  0.98216475286E+02  0.86118866848E+03  0.90713503043E+03  0.26402086556E+03 0.  0.
         25    1    4    4    0    0 -0.17144965853E+02  0.93293139639E+02  0.48736246209E+03  0.51202269218E+03  0.12509000000E+03 0.  0.
         25    1    3    3    0    0  0.43526397179E+02 -0.98216475286E+02  0.52343106332E+03  0.54878831020E+03  0.12509000000E+03 0.  0.
         25    1    4    4    0    0 -0.26381431326E+02  0.49233356471E+01  0.37382620639E+03  0.39511233825E+03  0.12509000000E+03 0.  0.
<mgrwt>
<rscale>  2 0.45004552E+03</rscale>
<asrwt>0</asrwt>
<pdfrwt beam="1">  1       21 0.20886342E+00 0.45004552E+03</pdfrwt>
<pdfrwt beam="2">  1       21 0.52429134E-02 0.45004552E+03</pdfrwt>
<totfact> 0.25860261E+04</totfact>
</mgrwt>
</event>
<event>
 7    0  0.4759581E-002  0.4496046E+03  0.7546771E-02  0.1027840E+00
         21   -1    0    0  502  501  0.00000000000E+00  0.00000000000E+00  0.33856428741E+03  0.33856428741E+03  0.00000000000E+00 0.  1.
         21   -1    0    0  501  502 -0.00000000000E+00 -0.00000000000E+00 -0.14926584555E+03  0.14926584555E+03  0.00000000000E+00 0.  1.
      99926    2    1    2    0    0  0.00000000000E+00  0.71054273576E-14  0.18929844186E+03  0.48783013295E+03  0.44960464692E+03 0.  0.
      99925    2    3    3    0    0 -0.10034519539E+03 -0.34250194892E+02  0.97061549512E+02  0.29968820116E+03  0.26296357055E+03 0.  0.
         25    1    4    4    0    0 -0.61436737456E+02  0.98460398628E+01  0.19144223607E+02  0.14101569632E+03  0.12509000000E+03 0.  0.
         25    1    4    4    0    0 -0.38908457933E+02 -0.44096234755E+02  0.77917325905E+02  0.15867250485E+03  0.12509000000E+03 0.  0.
         25    1    3    3    0    0  0.10034519539E+03  0.34250194892E+02  0.92236892348E+02  0.18814193179E+03  0.12509000000E+03 0.  0.
<mgrwt>
<rscale>  2 0.44960465E+03</rscale>
<asrwt>0</asrwt>
<pdfrwt beam="1">  1       21 0.49788866E-01 0.44960465E+03</pdfrwt>
<pdfrwt beam="2">  1       21 0.21950860E-01 0.44960465E+03</pdfrwt>
<totfact> 0.69044655E+04</totfact>
</mgrwt>
</event>
<event>
 7    0  0.4759581E-002  0.4551204E+03  0.7546771E-02  0.1026206E+00
         21   -1    0    0  502  501  0.00000000000E+00  0.00000000000E+00  0.31615436634E+03  0.31615436634E+03  0.00000000000E+00 0. -1.
         21   -1    0    0  501  502 -0.00000000000E+00 -0.00000000000E+00 -0.16379226923E+03  0.16379226923E+03  0.00000000000E+00 0. -1.
      99926    2    1    2    0    0  0.00000000000E+00  0.00000000000E+00  0.15236209711E+03  0.47994663557E+03  0.45512038447E+03 0.  0.
      99925    2    3    3    0    0 -0.60823867329E+01  0.11167274114E+03  0.77094993276E+02  0.29604328714E+03  0.26304028842E+03 0.  0.
         25    1    3    3    0    0  0.60823867329E+01 -0.11167274114E+03  0.75267103836E+02  0.18390334843E+03  0.12509000000E+03 0.  0.
         25    1    4    4    0    0 -0.62215696080E+01  0.73627923217E+02  0.78813963260E+02  0.16528438496E+03  0.12509000000E+03 0.  0.
         25    1    4    4    0    0  0.13918287510E+00  0.38044817927E+02 -0.17189699841E+01  0.13075890219E+03  0.12509000000E+03 0.  0.
<mgrwt>
<rscale>  2 0.45512038E+03</rscale>
<asrwt>0</asrwt>
<pdfrwt beam="1">  1       21 0.46493289E-01 0.45512038E+03</pdfrwt>
<pdfrwt beam="2">  1       21 0.24087098E-01 0.45512038E+03</pdfrwt>
<totfact> 0.66640281E+04</totfact>
</mgrwt>
</event>
<event>
 7    0  0.4759581E-002  0.4567260E+03  0.7546771E-02  0.1025735E+00
         21   -1    0    0  502  501  0.00000000000E+00  0.00000000000E+00  0.69514867911E+03  0.69514867911E+03  0.00000000000E+00 0.  1.
         21   -1    0    0  501  502 -0.00000000000E+00 -0.00000000000E+00 -0.75019421294E+02  0.75019421294E+02  0.00000000000E+00 0.  1.
      99926    2    1    2    0    0  0.14210854715E-13 -0.44408920985E-15  0.62012925781E+03  0.77016810040E+03  0.45672596432E+03 0.  0.
      99925    2    3    3    0    0 -0.11138422443E+03  0.32962982579E+01  0.34583525247E+03  0.44876178357E+03  0.26337768604E+03 0.  0.
         25    1    4    4    0    0 -0.16700504839E+02 -0.16924987563E+02  0.16707235656E+03  0.21006199678E+03  0.12509000000E+03 0.  0.
         25    1    4    4    0    0 -0.94683719593E+02  0.20221285820E+02  0.17876289591E+03  0.23869978678E+03  0.12509000000E+03 0.  0.
         25    1    3    3    0    0  0.11138422443E+03 -0.32962982579E+01  0.27429400534E+03  0.32140631683E+03  0.12509000000E+03 0.  0.
<mgrwt>
<rscale>  2 0.45672596E+03</rscale>
<asrwt>0</asrwt>
<pdfrwt beam="1">  1       21 0.10222774E+00 0.45672596E+03</pdfrwt>
<pdfrwt beam="2">  1       21 0.11032268E-01 0.45672596E+03</pdfrwt>
<totfact> 0.48579980E+04</totfact>
</mgrwt>
</event>
<event>
 7    0  0.4759581E-002  0.4397938E+03  0.7546771E-02  0.1030810E+00
         21   -1    0    0  502  501  0.00000000000E+00  0.00000000000E+00  0.26223713584E+03  0.26223713584E+03  0.00000000000E+00 0. -1.
         21   -1    0    0  501  502 -0.00000000000E+00 -0.00000000000E+00 -0.18439285742E+03  0.18439285742E+03  0.00000000000E+00 0. -1.
      99926    2    1    2    0    0  0.26645352591E-14  0.14210854715E-13  0.77844278426E+02  0.44662999326E+03  0.43979383715E+03 0.  0.
      99925    2    3    3    0    0  0.43757611626E+01  0.91763179857E+02  0.84531626336E+02  0.29128567510E+03  0.26317697507E+03 0.  0.
         25    1    4    4    0    0 -0.19589561009E+02  0.98503656728E+01  0.31599630928E+02  0.13086949751E+03  0.12509000000E+03 0.  0.
         25    1    4    4    0    0  0.23965322172E+02  0.81912814184E+02  0.52931995408E+02  0.16041617759E+03  0.12509000000E+03 0.  0.
         25    1    3    3    0    0 -0.43757611626E+01 -0.91763179857E+02 -0.66873479107E+01  0.15534431816E+03  0.12509000000E+03 0.  0.
<mgrwt>
<rscale>  2 0.43979384E+03</rscale>
<asrwt>0</asrwt>
<pdfrwt beam="1">  1       21 0.38564285E-01 0.43979384E+03</pdfrwt>
<pdfrwt beam="2">  1       21 0.27116596E-01 0.43979384E+03</pdfrwt>
<totfact> 0.78229940E+04</totfact>
</mgrwt>
</event>
<event>
 7    0  0.4759581E-002  0.4563931E+03  0.7546771E-02  0.1025833E+00
         21   -1    0    0  502  501  0.00000000000E+00  0.00000000000E+00  0.90462403242E+02  0.90462403242E+02  0.00000000000E+00 0.  1.
         21   -1    0    0  501  502 -0.00000000000E+00 -0.00000000000E+00 -0.57563877450E+03  0.57563877450E+03  0.00000000000E+00 0.  1.
      99926    2    1    2    0    0 -0.14210854715E-13  0.71054273576E-14 -0.48517637126E+03  0.66610117774E+03  0.45639310661E+03 0.  0.
      99925    2    3    3    0    0 -0.96688041584E+02  0.56792239634E+02 -0.33799677806E+03  0.44275553390E+03  0.26309067820E+03 0.  0.
         25    1    3    3    0    0  0.96688041584E+02 -0.56792239634E+02 -0.14717959320E+03  0.22334564384E+03  0.12509000000E+03 0.  0.
         25    1    4    4    0    0 -0.51174599280E+02 -0.12409457822E+02 -0.15144228243E+03  0.20335955169E+03  0.12509000000E+03 0.  0.
         25    1    4    4    0    0 -0.45513442304E+02  0.69201697456E+02 -0.18655449563E+03  0.23939598222E+03  0.12509000000E+03 0.  0.
<mgrwt>
<rscale>  2 0.45639311E+03</rscale>
<asrwt>0</asrwt>
<pdfrwt beam="1">  1       21 0.13303295E-01 0.45639311E+03</pdfrwt>
<pdfrwt beam="2">  1       21 0.84652760E-01 0.45639311E+03</pdfrwt>
<totfact> 0.54184649E+04</totfact>
</mgrwt>
</event>
<event>
 7    0  0.4759581E-002  0.4555955E+03  0.7546771E-02  0.1026066E+00
         21   -1    0    0  502  501  0.00000000000E+00  0.00000000000E+00  0.27376917788E+03  0.27376917788E+03  0.00000000000E+00 0.  1.
         21   -1    0    0  501  502 -0.00000000000E+00 -0.00000000000E+00 -0.18954584195E+03  0.18954584195E+03  0.00000000000E+00 0.  1.
      99926    2    1    2    0    0  0.00000000000E+00  0.00000000000E+00  0.84223335929E+02  0.46331501983E+03  0.45559547549E+03 0.  0.
      99925    2    3    3    0    0  0.69092880532E+02  0.24822780037E+02  0.14161610997E+03  0.30732965141E+03  0.26269068404E+03 0.  0.
         25    1    4    4    0    0  0.11968552702E+02 -0.12316925173E+02  0.93007177111E+02  0.15682090420E+03  0.12509000000E+03 0.  0.
         25    1    3    3    0    0 -0.69092880532E+02 -0.24822780037E+02 -0.57392774044E+02  0.15598536842E+03  0.12509000000E+03 0.  0.
         25    1    4    4    0    0  0.57124327829E+02  0.37139705210E+02  0.48608932862E+02  0.15050874721E+03  0.12509000000E+03 0.  0.
<mgrwt>
<rscale>  2 0.45559548E+03</rscale>
<asrwt>0</asrwt>
<pdfrwt beam="1">  1       21 0.40260173E-01 0.45559548E+03</pdfrwt>
<pdfrwt beam="2">  1       21 0.27874389E-01 0.45559548E+03</pdfrwt>
<totfact> 0.67614778E+04</totfact>
</mgrwt>
</event>
<event>
 7    0  0.4759581E-002  0.4560325E+03  0.7546771E-02  0.1025938E+00
         21   -1    0    0  502  501  0.00000000000E+00  0.00000000000E+00  0.50014092278E+03  0.50014092278E+03  0.00000000000E+00 0. -1.
         21   -1    0    0  501  502 -0.00000000000E+00 -0.00000000000E+00 -0.10395351908E+03  0.10395351908E+03  0.00000000000E+00 0. -1.
      99926    2    1    2    0    0  0.00000000000E+00  0.00000000000E+00  0.39618740369E+03  0.60409444186E+03  0.45603249428E+03 0.  0.
      99925    2    3    3    0    0  0.48703054824E+02 -0.10192953402E+03  0.27580374771E+03  0.39696803074E+03  0.26221039782E+03 0.  0.
         25    1    4    4    0    0  0.54070815996E+02 -0.80569324994E+02  0.14592374815E+03  0.21530517329E+03  0.12509000000E+03 0.  0.
         25    1    3    3    0    0 -0.48703054824E+02  0.10192953402E+03  0.12038365598E+03  0.20712641112E+03  0.12509000000E+03 0.  0.
         25    1    4    4    0    0 -0.53677611720E+01 -0.21360209030E+02  0.12987999956E+03  0.18166285745E+03  0.12509000000E+03 0.  0.
<mgrwt>
<rscale>  2 0.45603249E+03</rscale>
<asrwt>0</asrwt>
<pdfrwt beam="1">  1       21 0.73550134E-01 0.45603249E+03</pdfrwt>
<pdfrwt beam="2">  1       21 0.15287282E-01 0.45603249E+03</pdfrwt>
<totfact> 0.57952777E+04</totfact>
</mgrwt>
</event>
<event>
 7    0  0.4759581E-002  0.4502238E+03  0.7546771E-02  0.1027655E+00
         21   -1    0    0  502  501  0.00000000000E+00  0.00000000000E+00  0.32720059031E+02  0.32720059031E+02  0.00000000000E+00 0. -1.
         21   -1    0    0  501  502 -0.00000000000E+00 -0.00000000000E+00 -0.15487550728E+04  0.15487550728E+04  0.00000000000E+00 0. -1.
      99926    2    1    2    0    0  0.00000000000E+00  0.00000000000E+00 -0.15160350138E+04  0.15814751319E+04  0.45022375508E+03 0.  0.
      99925    2    3    3    0    0 -0.56982672158E+02  0.92093398402E+02 -0.92902957059E+03  0.97159717898E+03  0.26301504941E+03 0.  0.
         25    1    3    3    0    0  0.56982672158E+02 -0.92093398402E+02 -0.58700544323E+03  0.60987795290E+03  0.12509000000E+03 0.  0.
         25    1    4    4    0    0  0.80109017380E+00  0.22031840720E+02 -0.48810740376E+03  0.50436335063E+03  0.12509000000E+03 0.  0.
         25    1    4    4    0    0 -0.57783762332E+02  0.70061557682E+02 -0.44092216683E+03  0.46723382835E+03  0.12509000000E+03 0.  0.
<mgrwt>
<rscale>  2 0.45022376E+03</rscale>
<asrwt>0</asrwt>
<pdfrwt beam="1">  1       21 0.48117709E-02 0.45022376E+03</pdfrwt>
<pdfrwt beam="2">  1       21 0.22775822E+00 0.45022376E+03</pdfrwt>
<totfact> 0.22680687E+04</totfact>
</mgrwt>
</event>
<event>
 7    0  0.4759581E-002  0.4528368E+03  0.7546771E-02  0.1026879E+00
         21   -1    0    0  502  501  0.00000000000E+00  0.00000000000E+00  0.43400282078E+03  0.43400282078E+03  0.00000000000E+00 0.  1.
         21   -1    0    0  501  502 -0.00000000000E+00 -0.00000000000E+00 -0.11812203637E+03  0.11812203637E+03  0.00000000000E+00 0.  1.
      99926    2    1    2    0    0  0.00000000000E+00  0.26645352591E-14  0.31588078441E+03  0.55212485715E+03  0.45283682262E+03 0.  0.
      99925    2    3    3    0    0 -0.89334037365E+02  0.73366598717E+01  0.11900837224E+03  0.30224358217E+03  0.26297108870E+03 0.  0.
         25    1    4    4    0    0 -0.19705224152E+02 -0.21631484444E+02  0.78943390084E+02  0.15078389807E+03  0.12509000000E+03 0.  0.
         25    1    4    4    0    0 -0.69628813213E+02  0.28968144316E+02  0.40064982159E+02  0.15145968411E+03  0.12509000000E+03 0.  0.
         25    1    3    3    0    0  0.89334037365E+02 -0.73366598717E+01  0.19687241217E+03  0.24988127498E+03  0.12509000000E+03 0.  0.
<mgrwt>
<rscale>  2 0.45283682E+03</rscale>
<asrwt>0</asrwt>
<pdfrwt beam="1">  1       21 0.63823944E-01 0.45283682E+03</pdfrwt>
<pdfrwt beam="2">  1       21 0.17370888E-01 0.45283682E+03</pdfrwt>
<totfact> 0.62794086E+04</totfact>
</mgrwt>
</event>
<event>
 7    0  0.4759581E-002  0.4517816E+03  0.7546771E-02  0.1027192E+00
         21   -1    0    0  502  501  0.00000000000E+00  0.00000000000E+00  0.53588007259E+03  0.53588007259E+03  0.00000000000E+00 0.  1.
         21   -1    0    0  501  502 -0.00000000000E+00 -0.00000000000E+00 -0.95220279355E+02  0.95220279355E+02  0.00000000000E+00 0.  1.
      99926    2    1    2    0    0  0.00000000000E+00  0.71054273576E-14  0.44065979324E+03  0.63110035195E+03  0.45178158534E+03 0.  0.
      99925    2    3    3    0    0 -0.25158714401E+02 -0.46654866519E+02  0.14365495372E+03  0.30449811638E+03  0.26319711182E+03 0.  0.
         25    1    4    4    0    0 -0.11412739044E+02  0.17721685930E+02  0.74826272399E+02  0.14727792742E+03  0.12509000000E+03 0.  0.
         25    1    3    3    0    0  0.25158714401E+02  0.46654866519E+02  0.29700483952E+03  0.32660223557E+03  0.12509000000E+03 0.  0.
         25    1    4    4    0    0 -0.13745975357E+02 -0.64376552448E+02  0.68828681320E+02  0.15722018896E+03  0.12509000000E+03 0.  0.
<mgrwt>
<rscale>  2 0.45178159E+03</rscale>
<asrwt>0</asrwt>
<pdfrwt beam="1">  1       21 0.78805891E-01 0.45178159E+03</pdfrwt>
<pdfrwt beam="2">  1       21 0.14002983E-01 0.45178159E+03</pdfrwt>
<totfact> 0.58269946E+04</totfact>
</mgrwt>
</event>
<event>
 7    0  0.4759581E-002  0.4483638E+03  0.7546771E-02  0.1028211E+00
         21   -1    0    0  502  501  0.00000000000E+00  0.00000000000E+00  0.36348906770E+02  0.36348906770E+02  0.00000000000E+00 0.  1.
         21   -1    0    0  501  502 -0.00000000000E+00 -0.00000000000E+00 -0.13826417595E+04  0.13826417595E+04  0.00000000000E+00 0.  1.
      99926    2    1    2    0    0  0.00000000000E+00  0.00000000000E+00 -0.13462928527E+04  0.14189906662E+04  0.44836376486E+03 0.  0.
      99925    2    3    3    0    0  0.65472154983E+01  0.75007988557E+02 -0.10923843078E+04  0.11260979868E+04  0.26291469272E+03 0.  0.
         25    1    3    3    0    0 -0.65472154983E+01 -0.75007988557E+02 -0.25390854495E+03  0.29289267945E+03  0.12509000000E+03 0.  0.
         25    1    4    4    0    0  0.23571606030E+01  0.42606850152E+02 -0.38655123201E+03  0.40852204708E+03  0.12509000000E+03 0.  0.
         25    1    4    4    0    0  0.41900548953E+01  0.32401138405E+02 -0.70583307574E+03  0.71757593970E+03  0.12509000000E+03 0.  0.
<mgrwt>
<rscale>  2 0.44836376E+03</rscale>
<asrwt>0</asrwt>
<pdfrwt beam="1">  1       21 0.53454280E-02 0.44836376E+03</pdfrwt>
<pdfrwt beam="2">  1       21 0.20332965E+00 0.44836376E+03</pdfrwt>
<totfact> 0.27206478E+04</totfact>
</mgrwt>
</event>
<event>
 7    0  0.4759581E-002  0.4597519E+03  0.7546771E-02  0.1024853E+00
         21   -1    0    0  502  501  0.00000000000E+00  0.00000000000E+00  0.20151919050E+03  0.20151919050E+03  0.00000000000E+00 0.  1.
         21   -1    0    0  501  502 -0.00000000000E+00 -0.00000000000E+00 -0.26222298397E+03  0.26222298397E+03  0.00000000000E+00 0.  1.
      99926    2    1    2    0    0 -0.71054273576E-14  0.00000000000E+00 -0.60703793470E+02  0.46374217446E+03  0.45975194816E+03 0.  0.
      99925    2    3    3    0    0  0.57830479653E+02  0.54349335378E+01 -0.14141433890E+03  0.30394354142E+03  0.26269708458E+03 0.  0.
         25    1    3    3    0    0 -0.57830479653E+02 -0.54349335378E+01  0.80710545428E+02  0.15979863304E+03  0.12509000000E+03 0.  0.
         25    1    4    4    0    0  0.23272340309E+02 -0.35377736904E+02 -0.56995326470E+02  0.14383727414E+03  0.12509000000E+03 0.  0.
         25    1    4    4    0    0  0.34558139344E+02  0.40812670442E+02 -0.84419012429E+02  0.16010626728E+03  0.12509000000E+03 0.  0.
<mgrwt>
<rscale>  2 0.45975195E+03</rscale>
<asrwt>0</asrwt>
<pdfrwt beam="1">  1       21 0.29635175E-01 0.45975195E+03</pdfrwt>
<pdfrwt beam="2">  1       21 0.38562203E-01 0.45975195E+03</pdfrwt>
<totfact> 0.65395122E+04</totfact>
</mgrwt>
</event>
<event>
 7    0  0.4759581E-002  0.4377853E+03  0.7546771E-02  0.1031428E+00
         21   -1    0    0  502  501  0.00000000000E+00  0.00000000000E+00  0.99410056985E+02  0.99410056985E+02  0.00000000000E+00 0. -1.
         21   -1    0    0  501  502 -0.00000000000E+00 -0.00000000000E+00 -0.48198339998E+03  0.48198339998E+03  0.00000000000E+00 0. -1.
      99926    2    1    2    0    0  0.00000000000E+00 -0.14210854715E-13 -0.38257334300E+03  0.58139345697E+03  0.43778532300E+03 0.  0.
      99925    2    3    3    0    0 -0.60309613469E+02  0.74325684037E+02 -0.25572672984E+03  0.37915812832E+03  0.26306495230E+03 0.  0.
         25    1    4    4    0    0  0.45163831433E+01  0.23380718986E+02 -0.14427639598E+03  0.19243243561E+03  0.12509000000E+03 0.  0.
         25    1    4    4    0    0 -0.64825996612E+02  0.50944965051E+02 -0.11145033386E+03  0.18672569271E+03  0.12509000000E+03 0.  0.
         25    1    3    3    0    0  0.60309613469E+02 -0.74325684037E+02 -0.12684661316E+03  0.20223532865E+03  0.12509000000E+03 0.  0.
<mgrwt>
<rscale>  2 0.43778532E+03</rscale>
<asrwt>0</asrwt>
<pdfrwt beam="1">  1       21 0.14619126E-01 0.43778532E+03</pdfrwt>
<pdfrwt beam="2">  1       21 0.70879913E-01 0.43778532E+03</pdfrwt>
<totfact> 0.68723775E+04</totfact>
</mgrwt>
</event>
<event>
 7    0  0.4759581E-002  0.4927764E+03  0.7546771E-02  0.1015682E+00
         21   -1    0    0  502  501  0.00000000000E+00  0.00000000000E+00  0.27993796604E+03  0.27993796604E+03  0.00000000000E+00 0.  1.
         21   -1    0    0  501  502 -0.00000000000E+00 -0.00000000000E+00 -0.21685925546E+03  0.21685925546E+03  0.00000000000E+00 0.  1.
      99926    2    1    2    0    0  0.00000000000E+00  0.00000000000E+00  0.63078710576E+02  0.49679722150E+03  0.49277637480E+03 0.  0.
      99925    2    3    3    0    0  0.13244213395E+03  0.44045860530E+02 -0.38598518898E+01  0.29777652931E+03  0.26301141852E+03 0.  0.
         25    1    4    4    0    0  0.73283284229E+02  0.63024501238E+02 -0.20097894608E+01  0.15809514495E+03  0.12509000000E+03 0.  0.
         25    1    4    4    0    0  0.59158849726E+02 -0.18978640708E+02 -0.18500624290E+01  0.13968138435E+03  0.12509000000E+03 0.  0.
         25    1    3    3    0    0 -0.13244213395E+03 -0.44045860530E+02  0.66938562466E+02  0.19902069219E+03  0.12509000000E+03 0.  0.
<mgrwt>
<rscale>  2 0.49277637E+03</rscale>
<asrwt>0</asrwt>
<pdfrwt beam="1">  1       21 0.41167348E-01 0.49277637E+03</pdfrwt>
<pdfrwt beam="2">  1       21 0.31891067E-01 0.49277637E+03</pdfrwt>
<totfact> 0.49045421E+04</totfact>
</mgrwt>
</event>
<event>
 7    0  0.4759581E-002  0.4060035E+03  0.7546771E-02  0.1041720E+00
         21   -1    0    0  502  501  0.00000000000E+00  0.00000000000E+00  0.20966153919E+03  0.20966153919E+03  0.00000000000E+00 0.  1.
         21   -1    0    0  501  502 -0.00000000000E+00 -0.00000000000E+00 -0.19655351671E+03  0.19655351671E+03  0.00000000000E+00 0.  1.
      99926    2    1    2    0    0  0.00000000000E+00  0.00000000000E+00  0.13108022483E+02  0.40621505590E+03  0.40600351155E+03 0.  0.
      99925    2    3    3    0    0 -0.48553253020E+02 -0.27132315731E+02  0.14997125120E+01  0.26882567532E+03  0.26300458863E+03 0.  0.
         25    1    4    4    0    0 -0.27219629812E+02 -0.24401448030E+02 -0.38253498984E+02  0.13582038580E+03  0.12509000000E+03 0.  0.
         25    1    4    4    0    0 -0.21333623208E+02 -0.27308677004E+01  0.39753211496E+02  0.13300528953E+03  0.12509000000E+03 0.  0.
         25    1    3    3    0    0  0.48553253020E+02  0.27132315731E+02  0.11608309971E+02  0.13738938058E+03  0.12509000000E+03 0.  0.
<mgrwt>
<rscale>  2 0.40600351E+03</rscale>
<asrwt>0</asrwt>
<pdfrwt beam="1">  1       21 0.30832579E-01 0.40600351E+03</pdfrwt>
<pdfrwt beam="2">  1       21 0.28904929E-01 0.40600351E+03</pdfrwt>
<totfact> 0.10908265E+05</totfact>
</mgrwt>
</event>
<event>
 7    0  0.4759581E-002  0.4584542E+03  0.7546771E-02  0.1025230E+00
         21   -1    0    0  502  501  0.00000000000E+00  0.00000000000E+00  0.89741165192E+03  0.89741165192E+03  0.00000000000E+00 0. -1.
         21   -1    0    0  501  502 -0.00000000000E+00 -0.00000000000E+00 -0.58551792948E+02  0.58551792948E+02  0.00000000000E+00 0. -1.
      99926    2    1    2    0    0 -0.71054273576E-14  0.00000000000E+00  0.83885985897E+03  0.95596344486E+03  0.45845419065E+03 0.  0.
      99925    2    3    3    0    0  0.35271547987E+02  0.63308366120E+02  0.71612259241E+03  0.76632174054E+03  0.26299317736E+03 0.  0.
         25    1    4    4    0    0  0.16266166067E+02  0.61236158388E+02  0.29558951876E+03  0.32716223338E+03  0.12509000000E+03 0.  0.
         25    1    3    3    0    0 -0.35271547987E+02 -0.63308366120E+02  0.12273726656E+03  0.18964170433E+03  0.12509000000E+03 0.  0.
         25    1    4    4    0    0  0.19005381920E+02  0.20722077315E+01  0.42053307365E+03  0.43915950715E+03  0.12509000000E+03 0.  0.
<mgrwt>
<rscale>  2 0.45845419E+03</rscale>
<asrwt>0</asrwt>
<pdfrwt beam="1">  1       21 0.13197229E+00 0.45845419E+03</pdfrwt>
<pdfrwt beam="2">  1       21 0.86105583E-02 0.45845419E+03</pdfrwt>
<totfact> 0.39814007E+04</totfact>
</mgrwt>
</event>
<event>
 7    0  0.4759581E-002  0.4574224E+03  0.7546771E-02  0.1025531E+00
         21   -1    0    0  502  501  0.00000000000E+00  0.00000000000E+00  0.18605293980E+04  0.18605293980E+04  0.00000000000E+00 0.  1.
         21   -1    0    0  501  502 -0.00000000000E+00 -0.00000000000E+00 -0.28115015930E+02  0.28115015930E+02  0.00000000000E+00 0.  1.
      99926    2    1    2    0    0  0.00000000000E+00  0.71054273576E-14  0.18324143821E+04  0.18886444139E+04  0.45742240288E+03 0.  0.
      99925    2    3    3    0    0 -0.62182530859E+02 -0.49464808142E+02  0.14960930276E+04  0.15211216310E+04  0.26306507700E+03 0.  0.
         25    1    4    4    0    0 -0.55826611621E+02 -0.45478008955E+01  0.61893436912E+03  0.63392787795E+03  0.12509000000E+03 0.  0.
         25    1    3    3    0    0  0.62182530859E+02  0.49464808142E+02  0.33632135452E+03  0.36752278296E+03  0.12509000000E+03 0.  0.
         25    1    4    4    0    0 -0.63559192388E+01 -0.44917007246E+02  0.87715865844E+03  0.88719375304E+03  0.12509000000E+03 0.  0.
<mgrwt>
<rscale>  2 0.45742240E+03</rscale>
<asrwt>0</asrwt>
<pdfrwt beam="1">  1       21 0.27360718E+00 0.45742240E+03</pdfrwt>
<pdfrwt beam="2">  1       21 0.41345624E-02 0.45742240E+03</pdfrwt>
<totfact> 0.15324129E+04</totfact>
</mgrwt>
</event>
<event>
 6    0  0.5170390E-002  0.4390068E+03  0.7546771E-02  0.1031052E+00
         21   -1    0    0  502  501  0.00000000000E+00  0.00000000000E+00  0.13940361546E+03  0.13940361546E+03  0.00000000000E+00 0. -1.
         21   -1    0    0  501  502 -0.00000000000E+00 -0.00000000000E+00 -0.34562765488E+03  0.34562765488E+03  0.00000000000E+00 0. -1.
      99926    2    1    2    0    0 -0.71054273576E-14 -0.35527136788E-14 -0.20622403942E+03  0.48503127034E+03  0.43900680948E+03 0.  0.
         25    1    3    3    0    0  0.32932081640E+02 -0.18472214211E+02  0.16893859121E+02  0.13175224960E+03  0.12509000000E+03 0.  0.
         25    1    3    3    0    0 -0.59582736291E+02  0.39198724470E+02 -0.10855981980E+03  0.18033132018E+03  0.12509000000E+03 0.  0.
         25    1    3    3    0    0  0.26650654651E+02 -0.20726510259E+02 -0.11455807874E+03  0.17294770055E+03  0.12509000000E+03 0.  0.
<mgrwt>
<rscale>  2 0.43900681E+03</rscale>
<asrwt>0</asrwt>
<pdfrwt beam="1">  1       21 0.20500532E-01 0.43900681E+03</pdfrwt>
<pdfrwt beam="2">  1       21 0.50827597E-01 0.43900681E+03</pdfrwt>
<totfact> 0.75472104E+04</totfact>
</mgrwt>
</event>
<event>
 7    0  0.4759581E-002  0.4636036E+03  0.7546771E-02  0.1023741E+00
         21   -1    0    0  502  501  0.00000000000E+00  0.00000000000E+00  0.17321073422E+03  0.17321073422E+03  0.00000000000E+00 0. -1.
         21   -1    0    0  501  502 -0.00000000000E+00 -0.00000000000E+00 -0.31021217741E+03  0.31021217741E+03  0.00000000000E+00 0. -1.
      99926    2    1    2    0    0  0.00000000000E+00  0.00000000000E+00 -0.13700144319E+03  0.48342291164E+03  0.46360361955E+03 0.  0.
      99925    2    3    3    0    0  0.47255390117E+02 -0.10580533031E+03 -0.12321305304E+03  0.31235138385E+03  0.26259110940E+03 0.  0.
         25    1    3    3    0    0 -0.47255390117E+02  0.10580533031E+03 -0.13788390144E+02  0.17107152779E+03  0.12509000000E+03 0.  0.
         25    1    4    4    0    0  0.55951492431E+02 -0.46318056738E+02 -0.87454237209E+02  0.16903160530E+03  0.12509000000E+03 0.  0.
         25    1    4    4    0    0 -0.86961023139E+01 -0.59487273570E+02 -0.35758815836E+02  0.14331977855E+03  0.12509000000E+03 0.  0.
<mgrwt>
<rscale>  2 0.46360362E+03</rscale>
<asrwt>0</asrwt>
<pdfrwt beam="1">  1       21 0.25472167E-01 0.46360362E+03</pdfrwt>
<pdfrwt beam="2">  1       21 0.45619437E-01 0.46360362E+03</pdfrwt>
<totfact> 0.62101491E+04</totfact>
</mgrwt>
</event>
<event>
 7    0  0.4759581E-002  0.4534006E+03  0.7546771E-02  0.1026713E+00
         21   -1    0    0  502  501  0.00000000000E+00  0.00000000000E+00  0.66981284512E+02  0.66981284512E+02  0.00000000000E+00 0.  1.
         21   -1    0    0  501  502 -0.00000000000E+00 -0.00000000000E+00 -0.76727452185E+03  0.76727452185E+03  0.00000000000E+00 0.  1.
      99926    2    1    2    0    0  0.35527136788E-14  0.00000000000E+00 -0.70029323734E+03  0.83425580636E+03  0.45340063100E+03 0.  0.
      99925    2    3    3    0    0  0.28780389073E+02 -0.10515393317E+03 -0.48542608824E+03  0.56277641429E+03  0.26304589881E+03 0.  0.
         25    1    4    4    0    0  0.38572731430E+02 -0.33434662635E+02 -0.28789667279E+03  0.31802159451E+03  0.12509000000E+03 0.  0.
         25    1    4    4    0    0 -0.97923423570E+01 -0.71719270539E+02 -0.19752941545E+03  0.24475481978E+03  0.12509000000E+03 0.  0.
         25    1    3    3    0    0 -0.28780389073E+02  0.10515393317E+03 -0.21486714910E+03  0.27147939207E+03  0.12509000000E+03 0.  0.
<mgrwt>
<rscale>  2 0.45340063E+03</rscale>
<asrwt>0</asrwt>
<pdfrwt beam="1">  1       21 0.98501893E-02 0.45340063E+03</pdfrwt>
<pdfrwt beam="2">  1       21 0.11283448E+00 0.45340063E+03</pdfrwt>
<totfact> 0.46735794E+04</totfact>
</mgrwt>
</event>
<event>
 7    0  0.4759581E-002  0.4548395E+03  0.7546771E-02  0.1026289E+00
         21   -1    0    0  502  501  0.00000000000E+00  0.00000000000E+00  0.16597971949E+03  0.16597971949E+03  0.00000000000E+00 0. -1.
         21   -1    0    0  501  502 -0.00000000000E+00 -0.00000000000E+00 -0.31160274830E+03  0.31160274830E+03  0.00000000000E+00 0. -1.
      99926    2    1    2    0    0 -0.71054273576E-14  0.14210854715E-13 -0.14562302881E+03  0.47758246779E+03  0.45483947390E+03 0.  0.
      99925    2    3    3    0    0 -0.49644974790E+02  0.10135660014E+03 -0.95301791926E+02  0.30174868578E+03  0.26311984705E+03 0.  0.
         25    1    3    3    0    0  0.49644974790E+02 -0.10135660014E+03 -0.50321236882E+02  0.17583378201E+03  0.12509000000E+03 0.  0.
         25    1    4    4    0    0 -0.49202411048E+01  0.28380926909E+02 -0.75421491210E+02  0.14888114461E+03  0.12509000000E+03 0.  0.
         25    1    4    4    0    0 -0.44724733686E+02  0.72975673229E+02 -0.19880300716E+02  0.15286754117E+03  0.12509000000E+03 0.  0.
<mgrwt>
<rscale>  2 0.45483947E+03</rscale>
<asrwt>0</asrwt>
<pdfrwt beam="1">  1       21 0.24408782E-01 0.45483947E+03</pdfrwt>
<pdfrwt beam="2">  1       21 0.45823933E-01 0.45483947E+03</pdfrwt>
<totfact> 0.66961771E+04</totfact>
</mgrwt>
</event>
<event>
 7    0  0.4759581E-002  0.4356425E+03  0.7546771E-02  0.1032092E+00
         21   -1    0    0  502  501  0.00000000000E+00  0.00000000000E+00  0.15395128156E+03  0.15395128156E+03  0.00000000000E+00 0. -1.
         21   -1    0    0  501  502 -0.00000000000E+00 -0.00000000000E+00 -0.30818908068E+03  0.30818908068E+03  0.00000000000E+00 0. -1.
      99926    2    1    2    0    0  0.00000000000E+00  0.00000000000E+00 -0.15423779912E+03  0.46214036224E+03  0.43564253206E+03 0.  0.
      99925    2    3    3    0    0  0.54949396431E+02 -0.75953693805E+02 -0.99786081012E+02  0.29660819777E+03  0.26311739062E+03 0.  0.
         25    1    3    3    0    0 -0.54949396431E+02  0.75953693805E+02 -0.54451718109E+02  0.16553216447E+03  0.12509000000E+03 0.  0.
         25    1    4    4    0    0  0.27518869693E+01 -0.25317657134E+01 -0.42897870074E+02  0.13229405911E+03  0.12509000000E+03 0.  0.
         25    1    4    4    0    0  0.52197509461E+02 -0.73421928091E+02 -0.56888210938E+02  0.16431413866E+03  0.12509000000E+03 0.  0.
<mgrwt>
<rscale>  2 0.43564253E+03</rscale>
<asrwt>0</asrwt>
<pdfrwt beam="1">  1       21 0.22639895E-01 0.43564253E+03</pdfrwt>
<pdfrwt beam="2">  1       21 0.45321923E-01 0.43564253E+03</pdfrwt>
<totfact> 0.79561172E+04</totfact>
</mgrwt>
</event>
<event>
 7    0  0.4759581E-002  0.4761038E+03  0.7546771E-02  0.1020211E+00
         21   -1    0    0  502  501  0.00000000000E+00  0.00000000000E+00  0.10708977198E+03  0.10708977198E+03  0.00000000000E+00 0. -1.
         21   -1    0    0  501  502 -0.00000000000E+00 -0.00000000000E+00 -0.52917003452E+03  0.52917003452E+03  0.00000000000E+00 0. -1.
      99926    2    1    2    0    0  0.00000000000E+00  0.00000000000E+00 -0.42208026254E+03  0.63625980651E+03  0.47610376322E+03 0.  0.
      99925    2    3    3    0    0 -0.34049166326E+02 -0.18271917287E+02 -0.92331607210E+02  0.28147128854E+03  0.26307366249E+03 0.  0.
         25    1    3    3    0    0  0.34049166326E+02  0.18271917287E+02 -0.32974865533E+03  0.35478851796E+03  0.12509000000E+03 0.  0.
         25    1    4    4    0    0 -0.29496331281E+02  0.27600346608E+02 -0.32870754577E+02  0.13549836640E+03  0.12509000000E+03 0.  0.
         25    1    4    4    0    0 -0.45528350448E+01 -0.45872263895E+02 -0.59460852634E+02  0.14597292214E+03  0.12509000000E+03 0.  0.
<mgrwt>
<rscale>  2 0.47610376E+03</rscale>
<asrwt>0</asrwt>
<pdfrwt beam="1">  1       21 0.15748496E-01 0.47610376E+03</pdfrwt>
<pdfrwt beam="2">  1       21 0.77819124E-01 0.47610376E+03</pdfrwt>
<totfact> 0.47991493E+04</totfact>
</mgrwt>
</event>
<event>
 7    0  0.4759581E-002  0.4540597E+03  0.7546771E-02  0.1026518E+00
         21   -1    0    0  502  501  0.00000000000E+00  0.00000000000E+00  0.88072408885E+02  0.88072408885E+02  0.00000000000E+00 0. -1.
         21   -1    0    0  501  502 -0.00000000000E+00 -0.00000000000E+00 -0.58522918222E+03  0.58522918222E+03  0.00000000000E+00 0. -1.
      99926    2    1    2    0    0  0.00000000000E+00  0.00000000000E+00 -0.49715677334E+03  0.67330159111E+03  0.45405966052E+03 0.  0.
      99925    2    3    3    0    0 -0.10920395342E+03  0.20089064904E+02 -0.31871839699E+03  0.42872678409E+03  0.26437882829E+03 0.  0.
         25    1    4    4    0    0 -0.69099185111E+02  0.40505340326E+02 -0.12700111126E+03  0.19542817182E+03  0.12509000000E+03 0.  0.
         25    1    3    3    0    0  0.10920395342E+03 -0.20089064904E+02 -0.17843837635E+03  0.24457480701E+03  0.12509000000E+03 0.  0.
         25    1    4    4    0    0 -0.40104768313E+02 -0.20416275422E+02 -0.19171728572E+03  0.23329861227E+03  0.12509000000E+03 0.  0.
<mgrwt>
<rscale>  2 0.45405966E+03</rscale>
<asrwt>0</asrwt>
<pdfrwt beam="1">  1       21 0.12951825E-01 0.45405966E+03</pdfrwt>
<pdfrwt beam="2">  1       21 0.86063113E-01 0.45405966E+03</pdfrwt>
<totfact> 0.54781809E+04</totfact>
</mgrwt>
</event>
<event>
 7    0  0.4759581E-002  0.4519314E+03  0.7546771E-02  0.1027148E+00
         21   -1    0    0  502  501  0.00000000000E+00  0.00000000000E+00  0.89084055275E+02  0.89084055275E+02  0.00000000000E+00 0. -1.
         21   -1    0    0  501  502 -0.00000000000E+00 -0.00000000000E+00 -0.57317221175E+03  0.57317221175E+03  0.00000000000E+00 0. -1.
      99926    2    1    2    0    0  0.00000000000E+00  0.00000000000E+00 -0.48408815648E+03  0.66225626703E+03  0.45193143283E+03 0.  0.
      99925    2    3    3    0    0 -0.57022564227E+02 -0.92851434865E+02 -0.32949397071E+03  0.43549685232E+03  0.26309365225E+03 0.  0.
         25    1    4    4    0    0 -0.62132027301E+02 -0.33720494215E+02 -0.13824742214E+03  0.19939237291E+03  0.12509000000E+03 0.  0.
         25    1    3    3    0    0  0.57022564227E+02  0.92851434865E+02 -0.15459418577E+03  0.22675941471E+03  0.12509000000E+03 0.  0.
         25    1    4    4    0    0  0.51094630747E+01 -0.59130940651E+02 -0.19124654857E+03  0.23610447940E+03  0.12509000000E+03 0.  0.
<mgrwt>
<rscale>  2 0.45193143E+03</rscale>
<asrwt>0</asrwt>
<pdfrwt beam="1">  1       21 0.13100596E-01 0.45193143E+03</pdfrwt>
<pdfrwt beam="2">  1       21 0.84290031E-01 0.45193143E+03</pdfrwt>
<totfact> 0.56351294E+04</totfact>
</mgrwt>
</event>
<event>
 7    0  0.4759581E-002  0.4378866E+03  0.7546771E-02  0.1031397E+00
         21   -1    0    0  502  501  0.00000000000E+00  0.00000000000E+00  0.15273691443E+02  0.15273691443E+02  0.00000000000E+00 0.  1.
         21   -1    0    0  501  502 -0.00000000000E+00 -0.00000000000E+00 -0.31384792516E+04  0.31384792516E+04  0.00000000000E+00 0.  1.
      99926    2    1    2    0    0  0.00000000000E+00 -0.14210854715E-13 -0.31232055601E+04  0.31537529430E+04  0.43788657750E+03 0.  0.
      99925    2    3    3    0    0  0.55866870683E+02 -0.76776487416E+02 -0.18905508396E+04  0.19111343755E+04  0.26312808238E+03 0.  0.
         25    1    4    4    0    0  0.46288728790E+02 -0.32650936427E+02 -0.12053694579E+04  0.12131660101E+04  0.12509000000E+03 0.  0.
         25    1    4    4    0    0  0.95781418935E+01 -0.44125550989E+02 -0.68518138172E+03  0.69796836534E+03  0.12509000000E+03 0.  0.
         25    1    3    3    0    0 -0.55866870683E+02  0.76776487416E+02 -0.12326547206E+04  0.12426185676E+04  0.12509000000E+03 0.  0.
<mgrwt>
<rscale>  2 0.43788658E+03</rscale>
<asrwt>0</asrwt>
<pdfrwt beam="1">  1       21 0.22461324E-02 0.43788658E+03</pdfrwt>
<pdfrwt beam="2">  1       21 0.46154080E+00 0.43788658E+03</pdfrwt>
<totfact> 0.28380723E+03</totfact>
</mgrwt>
</event>
<event>
 7    0  0.4759581E-002  0.4499754E+03  0.7546771E-02  0.1027729E+00
         21   -1    0    0  502  501  0.00000000000E+00  0.00000000000E+00  0.23730665304E+03  0.23730665304E+03  0.00000000000E+00 0. -1.
         21   -1    0    0  501  502 -0.00000000000E+00 -0.00000000000E+00 -0.21330828186E+03  0.21330828186E+03  0.00000000000E+00 0. -1.
      99926    2    1    2    0    0 -0.17763568394E-14  0.00000000000E+00  0.23998371181E+02  0.45061493490E+03  0.44997544126E+03 0.  0.
      99925    2    3    3    0    0  0.12627500727E+02  0.10080282706E+03  0.53105299873E+02  0.28686089643E+03  0.26296071438E+03 0.  0.
         25    1    4    4    0    0 -0.25919554388E+01  0.52914699228E+02  0.66763538340E+02  0.15136565588E+03  0.12509000000E+03 0.  0.
         25    1    3    3    0    0 -0.12627500727E+02 -0.10080282706E+03 -0.29106928693E+02  0.16375403847E+03  0.12509000000E+03 0.  0.
         25    1    4    4    0    0  0.15219456166E+02  0.47888127834E+02 -0.13658238467E+02  0.13549524055E+03  0.12509000000E+03 0.  0.
<mgrwt>
<rscale>  2 0.44997544E+03</rscale>
<asrwt>0</asrwt>
<pdfrwt beam="1">  1       21 0.34898037E-01 0.44997544E+03</pdfrwt>
<pdfrwt beam="2">  1       21 0.31368865E-01 0.44997544E+03</pdfrwt>
<totfact> 0.71699904E+04</totfact>
</mgrwt>
</event>
<event>
 7    0  0.4759581E-002  0.4543028E+03  0.7546771E-02  0.1026447E+00
         21   -1    0    0  502  501  0.00000000000E+00  0.00000000000E+00  0.33545019816E+03  0.33545019816E+03  0.00000000000E+00 0.  1.
         21   -1    0    0  501  502 -0.00000000000E+00 -0.00000000000E+00 -0.15381642579E+03  0.15381642579E+03  0.00000000000E+00 0.  1.
      99926    2    1    2    0    0  0.00000000000E+00  0.00000000000E+00  0.18163377238E+03  0.48926662395E+03  0.45430276473E+03 0.  0.
      99925    2    3    3    0    0 -0.73424657735E+02 -0.84085127980E+02  0.99116899965E+02  0.30240295320E+03  0.26298649611E+03 0.  0.
         25    1    4    4    0    0 -0.50789560357E+01 -0.23902803198E+02  0.68426914427E+02  0.14466129584E+03  0.12509000000E+03 0.  0.
         25    1    4    4    0    0 -0.68345701699E+02 -0.60182324782E+02  0.30689985537E+02  0.15774165737E+03  0.12509000000E+03 0.  0.
         25    1    3    3    0    0  0.73424657735E+02  0.84085127980E+02  0.82516872413E+02  0.18686367074E+03  0.12509000000E+03 0.  0.
<mgrwt>
<rscale>  2 0.45430276E+03</rscale>
<asrwt>0</asrwt>
<pdfrwt beam="1">  1       21 0.49330912E-01 0.45430276E+03</pdfrwt>
<pdfrwt beam="2">  1       21 0.22620062E-01 0.45430276E+03</pdfrwt>
<totfact> 0.66398254E+04</totfact>
</mgrwt>
</event>
<event>
 7    0  0.4759581E-002  0.4428791E+03  0.7546771E-02  0.1029867E+00
         21   -1    0    0  502  501  0.00000000000E+00  0.00000000000E+00  0.15082446283E+03  0.15082446283E+03  0.00000000000E+00 0.  1.
         21   -1    0    0  501  502 -0.00000000000E+00 -0.00000000000E+00 -0.32511612626E+03  0.32511612626E+03  0.00000000000E+00 0.  1.
      99926    2    1    2    0    0  0.00000000000E+00  0.88817841970E-15 -0.17429166343E+03  0.47594058909E+03  0.44287905844E+03 0.  0.
      99925    2    3    3    0    0  0.71595849851E+02 -0.40028225750E+01 -0.33754276173E+02  0.27459448503E+03  0.26290833335E+03 0.  0.
         25    1    4    4    0    0  0.48702083469E+02 -0.27013816724E+02  0.12115609426E+02  0.13746248696E+03  0.12509000000E+03 0.  0.
         25    1    4    4    0    0  0.22893766381E+02  0.23010994149E+02 -0.45869885599E+02  0.13713199807E+03  0.12509000000E+03 0.  0.
         25    1    3    3    0    0 -0.71595849851E+02  0.40028225750E+01 -0.14053738726E+03  0.20134610407E+03  0.12509000000E+03 0.  0.
<mgrwt>
<rscale>  2 0.44287906E+03</rscale>
<asrwt>0</asrwt>
<pdfrwt beam="1">  1       21 0.22180069E-01 0.44287906E+03</pdfrwt>
<pdfrwt beam="2">  1       21 0.47811194E-01 0.44287906E+03</pdfrwt>
<totfact> 0.73850663E+04</totfact>
</mgrwt>
</event>
<event>
 7    0  0.4759581E-002  0.4586664E+03  0.7546771E-02  0.1025169E+00
         21   -1    0    0  502  501  0.00000000000E+00  0.00000000000E+00  0.12583281184E+03  0.12583281184E+03  0.00000000000E+00 0.  1.
         21   -1    0    0  501  502 -0.00000000000E+00 -0.00000000000E+00 -0.41796508535E+03  0.41796508535E+03  0.00000000000E+00 0.  1.
      99926    2    1    2    0    0 -0.71054273576E-14 -0.71054273576E-14 -0.29213227351E+03  0.54379789719E+03  0.45866642319E+03 0.  0.
      99925    2    3    3    0    0  0.56839124584E+02  0.46695207610E+02 -0.75875095007E+02  0.28336402103E+03  0.26292015875E+03 0.  0.
         25    1    3    3    0    0 -0.56839124584E+02 -0.46695207610E+02 -0.21625717851E+03  0.26043387616E+03  0.12509000000E+03 0.  0.
         25    1    4    4    0    0 -0.38323369247E+01  0.39390094492E+02 -0.17348479643E+02  0.13234328164E+03  0.12509000000E+03 0.  0.
         25    1    4    4    0    0  0.60671461509E+02  0.73051131174E+01 -0.58526615364E+02  0.15102073939E+03  0.12509000000E+03 0.  0.
<mgrwt>
<rscale>  2 0.45866642E+03</rscale>
<asrwt>0</asrwt>
<pdfrwt beam="1">  1       21 0.18504825E-01 0.45866642E+03</pdfrwt>
<pdfrwt beam="2">  1       21 0.61465454E-01 0.45866642E+03</pdfrwt>
<totfact> 0.60503614E+04</totfact>
</mgrwt>
</event>
<event>
 7    0  0.4759581E-002  0.4552276E+03  0.7546771E-02  0.1026174E+00
         21   -1    0    0  502  501  0.00000000000E+00  0.00000000000E+00  0.48906034030E+03  0.48906034030E+03  0.00000000000E+00 0.  1.
         21   -1    0    0  501  502 -0.00000000000E+00 -0.00000000000E+00 -0.10593383930E+03  0.10593383930E+03  0.00000000000E+00 0.  1.
      99926    2    1    2    0    0 -0.14210854715E-13  0.14210854715E-13  0.38312650100E+03  0.59499417960E+03  0.45522758922E+03 0.  0.
      99925    2    3    3    0    0  0.68622203365E+02 -0.84012243304E+02  0.19745314910E+03  0.34621884818E+03  0.26289290771E+03 0.  0.
         25    1    4    4    0    0  0.47409592856E+02 -0.81536279800E+01  0.11707241290E+03  0.17795395221E+03  0.12509000000E+03 0.  0.
         25    1    4    4    0    0  0.21212610509E+02 -0.75858615324E+02  0.80380736198E+02  0.16826489597E+03  0.12509000000E+03 0.  0.
         25    1    3    3    0    0 -0.68622203365E+02  0.84012243304E+02  0.18567335190E+03  0.24877533142E+03  0.12509000000E+03 0.  0.
<mgrwt>
<rscale>  2 0.45522759E+03</rscale>
<asrwt>0</asrwt>
<pdfrwt beam="1">  1       21 0.71920637E-01 0.45522759E+03</pdfrwt>
<pdfrwt beam="2">  1       21 0.15578506E-01 0.45522759E+03</pdfrwt>
<totfact> 0.58881480E+04</totfact>
</mgrwt>
</event>
<event>
 7    0  0.4759581E-002  0.4498460E+03  0.7546771E-02  0.1027768E+00
         21   -1    0    0  502  501  0.00000000000E+00  0.00000000000E+00  0.25816885711E+03  0.25816885711E+03  0.00000000000E+00 0. -1.
         21   -1    0    0  501  502 -0.00000000000E+00 -0.00000000000E+00 -0.19595837676E+03  0.19595837676E+03  0.00000000000E+00 0. -1.
      99926    2    1    2    0    0  0.00000000000E+00  0.35527136788E-14  0.62210480347E+02  0.45412723387E+03  0.44984597439E+03 0.  0.
      99925    2    3    3    0    0 -0.10172495918E+03 -0.27497957337E+02  0.14398639569E+02  0.28372305201E+03  0.26303487305E+03 0.  0.
         25    1    4    4    0    0 -0.67574434410E+02 -0.49913141248E+02 -0.46871328673E+01  0.15075510993E+03  0.12509000000E+03 0.  0.
         25    1    4    4    0    0 -0.34150524767E+02  0.22415183911E+02  0.19085772436E+02  0.13296794208E+03  0.12509000000E+03 0.  0.
         25    1    3    3    0    0  0.10172495918E+03  0.27497957337E+02  0.47811840779E+02  0.17040418186E+03  0.12509000000E+03 0.  0.
<mgrwt>
<rscale>  2 0.44984597E+03</rscale>
<asrwt>0</asrwt>
<pdfrwt beam="1">  1       21 0.37966008E-01 0.44984597E+03</pdfrwt>
<pdfrwt beam="2">  1       21 0.28817408E-01 0.44984597E+03</pdfrwt>
<totfact> 0.71504811E+04</totfact>
</mgrwt>
</event>
<event>
 7    0  0.4759581E-002  0.4468571E+03  0.7546771E-02  0.1028663E+00
         21   -1    0    0  502  501  0.00000000000E+00  0.00000000000E+00  0.22601341947E+03  0.22601341947E+03  0.00000000000E+00 0.  1.
         21   -1    0    0  501  502 -0.00000000000E+00 -0.00000000000E+00 -0.22087324083E+03  0.22087324083E+03  0.00000000000E+00 0.  1.
      99926    2    1    2    0    0  0.00000000000E+00  0.00000000000E+00  0.51401786443E+01  0.44688666030E+03  0.44685709765E+03 0.  0.
      99925    2    3    3    0    0 -0.79661201369E+02 -0.53401577889E+02 -0.41033113346E+02  0.28263954003E+03  0.26268566324E+03 0.  0.
         25    1    3    3    0    0  0.79661201369E+02  0.53401577889E+02  0.46173291991E+02  0.16424712027E+03  0.12509000000E+03 0.  0.
         25    1    4    4    0    0 -0.16790931716E+02 -0.10057379601E+02 -0.49247914766E+02  0.13585268301E+03  0.12509000000E+03 0.  0.
         25    1    4    4    0    0 -0.62870269653E+02 -0.43344198288E+02  0.82148014194E+01  0.14678685702E+03  0.12509000000E+03 0.  0.
<mgrwt>
<rscale>  2 0.44685710E+03</rscale>
<asrwt>0</asrwt>
<pdfrwt beam="1">  1       21 0.33237268E-01 0.44685710E+03</pdfrwt>
<pdfrwt beam="2">  1       21 0.32481359E-01 0.44685710E+03</pdfrwt>
<totfact> 0.73825549E+04</totfact>
</mgrwt>
</event>
<event>
 7    0  0.4759581E-002  0.4563295E+03  0.7546771E-02  0.1025851E+00
         21   -1    0    0  502  501  0.00000000000E+00  0.00000000000E+00  0.78915201160E+02  0.78915201160E+02  0.00000000000E+00 0.  1.
         21   -1    0    0  501  502 -0.00000000000E+00 -0.00000000000E+00 -0.65968484788E+03  0.65968484788E+03  0.00000000000E+00 0.  1.
      99926    2    1    2    0    0  0.00000000000E+00  0.00000000000E+00 -0.58076964672E+03  0.73860004904E+03  0.45632954089E+03 0.  0.
      99925    2    3    3    0    0  0.55147897758E+02 -0.49938427955E+02 -0.22420378647E+03  0.35347427996E+03  0.26294788745E+03 0.  0.
         25    1    3    3    0    0 -0.55147897758E+02  0.49938427955E+02 -0.35656586025E+03  0.38512576908E+03  0.12509000000E+03 0.  0.
         25    1    4    4    0    0  0.10805419451E+02 -0.41258075428E+01 -0.14656906289E+03  0.19303828033E+03  0.12509000000E+03 0.  0.
         25    1    4    4    0    0  0.44342478307E+02 -0.45812620412E+02 -0.77634723586E+02  0.16043599963E+03  0.12509000000E+03 0.  0.
<mgrwt>
<rscale>  2 0.45632954E+03</rscale>
<asrwt>0</asrwt>
<pdfrwt beam="1">  1       21 0.11605176E-01 0.45632954E+03</pdfrwt>
<pdfrwt beam="2">  1       21 0.97012479E-01 0.45632954E+03</pdfrwt>
<totfact> 0.50328701E+04</totfact>
</mgrwt>
</event>
<event>
 7    0  0.4759581E-002  0.4522523E+03  0.7546771E-02  0.1027053E+00
         21   -1    0    0  502  501  0.00000000000E+00  0.00000000000E+00  0.10583266165E+03  0.10583266165E+03  0.00000000000E+00 0. -1.
         21   -1    0    0  501  502 -0.00000000000E+00 -0.00000000000E+00 -0.48314982752E+03  0.48314982752E+03  0.00000000000E+00 0. -1.
      99926    2    1    2    0    0  0.00000000000E+00  0.00000000000E+00 -0.37731716587E+03  0.58898248917E+03  0.45225228456E+03 0.  0.
      99925    2    3    3    0    0 -0.81803800813E+02  0.54571828055E+02 -0.30384344149E+03  0.41372313131E+03  0.26301339547E+03 0.  0.
         25    1    3    3    0    0  0.81803800813E+02 -0.54571828055E+02 -0.73473724377E+02  0.17525935786E+03  0.12509000000E+03 0.  0.
         25    1    4    4    0    0 -0.12581881550E+02 -0.48133188619E+01 -0.12901857580E+03  0.18020758248E+03  0.12509000000E+03 0.  0.
         25    1    4    4    0    0 -0.69221919263E+02  0.59385146917E+02 -0.17482486569E+03  0.23351554883E+03  0.12509000000E+03 0.  0.
<mgrwt>
<rscale>  2 0.45225228E+03</rscale>
<asrwt>0</asrwt>
<pdfrwt beam="1">  1       21 0.15563627E-01 0.45225228E+03</pdfrwt>
<pdfrwt beam="2">  1       21 0.71051443E-01 0.45225228E+03</pdfrwt>
<totfact> 0.60668440E+04</totfact>
</mgrwt>
</event>
<event>
 7    0  0.4759581E-002  0.4406200E+03  0.7546771E-02  0.1030557E+00
         21   -1    0    0  502  501  0.00000000000E+00  0.00000000000E+00  0.81973609539E+03  0.81973609539E+03  0.00000000000E+00 0. -1.
         21   -1    0    0  501  502 -0.00000000000E+00 -0.00000000000E+00 -0.59209901069E+02  0.59209901069E+02  0.00000000000E+00 0. -1.
      99926    2    1    2    0    0  0.35527136788E-14  0.35527136788E-14  0.76052619432E+03  0.87894599646E+03  0.44061998643E+03 0.  0.
      99925    2    3    3    0    0 -0.20061503016E+02 -0.17976837985E+02  0.67520075752E+03  0.72514882850E+03  0.26309528674E+03 0.  0.
         25    1    3    3    0    0  0.20061503016E+02  0.17976837985E+02  0.85325436798E+02  0.15379716796E+03  0.12509000000E+03 0.  0.
         25    1    4    4    0    0  0.41793082290E+01 -0.24498910189E+02  0.24197544021E+03  0.27352748488E+03  0.12509000000E+03 0.  0.
         25    1    4    4    0    0 -0.24240811245E+02  0.65220722041E+01  0.43322531731E+03  0.45162134362E+03  0.12509000000E+03 0.  0.
<mgrwt>
<rscale>  2 0.44061999E+03</rscale>
<asrwt>0</asrwt>
<pdfrwt beam="1">  1       21 0.12054942E+00 0.44061999E+03</pdfrwt>
<pdfrwt beam="2">  1       21 0.87073389E-02 0.44061999E+03</pdfrwt>
<totfact> 0.49499267E+04</totfact>
</mgrwt>
</event>
<event>
 7    0  0.4759581E-002  0.4607259E+03  0.7546771E-02  0.1024571E+00
         21   -1    0    0  502  501  0.00000000000E+00  0.00000000000E+00  0.12229122938E+03  0.12229122938E+03  0.00000000000E+00 0.  1.
         21   -1    0    0  501  502 -0.00000000000E+00 -0.00000000000E+00 -0.43394021927E+03  0.43394021927E+03  0.00000000000E+00 0.  1.
      99926    2    1    2    0    0  0.00000000000E+00  0.00000000000E+00 -0.31164898990E+03  0.55623144865E+03  0.46072587464E+03 0.  0.
      99925    2    3    3    0    0  0.64529340758E+02 -0.78087223258E+02 -0.26919867898E+03  0.38976467343E+03  0.26303406935E+03 0.  0.
         25    1    4    4    0    0  0.36163610615E+02 -0.80482935840E+02 -0.15797629322E+03  0.21997574187E+03  0.12509000000E+03 0.  0.
         25    1    4    4    0    0  0.28365730143E+02  0.23957125821E+01 -0.11122238576E+03  0.16978893156E+03  0.12509000000E+03 0.  0.
         25    1    3    3    0    0 -0.64529340758E+02  0.78087223258E+02 -0.42450310922E+02  0.16646677522E+03  0.12509000000E+03 0.  0.
<mgrwt>
<rscale>  2 0.46072587E+03</rscale>
<asrwt>0</asrwt>
<pdfrwt beam="1">  1       21 0.17984004E-01 0.46072587E+03</pdfrwt>
<pdfrwt beam="2">  1       21 0.63814739E-01 0.46072587E+03</pdfrwt>
<totfact> 0.58749896E+04</totfact>
</mgrwt>
</event>
<event>
 7    0  0.4759581E-002  0.4673415E+03  0.7546771E-02  0.1022673E+00
         21   -1    0    0  502  501  0.00000000000E+00  0.00000000000E+00  0.16605167673E+03  0.16605167673E+03  0.00000000000E+00 0.  1.
         21   -1    0    0  501  502 -0.00000000000E+00 -0.00000000000E+00 -0.32882549485E+03  0.32882549485E+03  0.00000000000E+00 0.  1.
      99926    2    1    2    0    0 -0.14210854715E-13  0.00000000000E+00 -0.16277381812E+03  0.49487717157E+03  0.46734152295E+03 0.  0.
      99925    2    3    3    0    0  0.83185578627E+02 -0.35057076451E+02 -0.10769345562E+02  0.27830915251E+03  0.26304213820E+03 0.  0.
         25    1    4    4    0    0  0.72157280159E+02 -0.41298087717E+02  0.11434054470E+02  0.15063349837E+03  0.12509000000E+03 0.  0.
         25    1    3    3    0    0 -0.83185578627E+02  0.35057076451E+02 -0.15200447256E+03  0.21656801906E+03  0.12509000000E+03 0.  0.
         25    1    4    4    0    0  0.11028298468E+02  0.62410112665E+01 -0.22203400031E+02  0.12767565415E+03  0.12509000000E+03 0.  0.
<mgrwt>
<rscale>  2 0.46734152E+03</rscale>
<asrwt>0</asrwt>
<pdfrwt beam="1">  1       21 0.24419364E-01 0.46734152E+03</pdfrwt>
<pdfrwt beam="2">  1       21 0.48356690E-01 0.46734152E+03</pdfrwt>
<totfact> 0.59577614E+04</totfact>
</mgrwt>
</event>
<event>
 7    0  0.4759581E-002  0.4478939E+03  0.7546771E-02  0.1028352E+00
         21   -1    0    0  502  501  0.00000000000E+00  0.00000000000E+00  0.18099183675E+04  0.18099183675E+04  0.00000000000E+00 0.  1.
         21   -1    0    0  501  502 -0.00000000000E+00 -0.00000000000E+00 -0.27709667291E+02  0.27709667291E+02  0.00000000000E+00 0.  1.
      99926    2    1    2    0    0  0.00000000000E+00  0.14210854715E-13  0.17822087002E+04  0.18376280348E+04  0.44789389720E+03 0.  0.
      99925    2    3    3    0    0 -0.51893094061E+02 -0.90542746323E+02  0.10454776425E+04  0.10831010031E+04  0.26304638324E+03 0.  0.
         25    1    4    4    0    0 -0.65126781442E+02 -0.34541073994E+02  0.55126494443E+03  0.57006590015E+03  0.12509000000E+03 0.  0.
         25    1    4    4    0    0  0.13233687381E+02 -0.56001672329E+02  0.49421269811E+03  0.51303510295E+03  0.12509000000E+03 0.  0.
         25    1    3    3    0    0  0.51893094061E+02  0.90542746323E+02  0.73673105763E+03  0.75452703166E+03  0.12509000000E+03 0.  0.
<mgrwt>
<rscale>  2 0.44789390E+03</rscale>
<asrwt>0</asrwt>
<pdfrwt beam="1">  1       21 0.26616439E+00 0.44789390E+03</pdfrwt>
<pdfrwt beam="2">  1       21 0.40749523E-02 0.44789390E+03</pdfrwt>
<totfact> 0.17492199E+04</totfact>
</mgrwt>
</event>
<event>
 7    0  0.4759581E-002  0.4554064E+03  0.7546771E-02  0.1026122E+00
         21   -1    0    0  502  501  0.00000000000E+00  0.00000000000E+00  0.22125273240E+03  0.22125273240E+03  0.00000000000E+00 0. -1.
         21   -1    0    0  501  502 -0.00000000000E+00 -0.00000000000E+00 -0.23434171496E+03  0.23434171496E+03  0.00000000000E+00 0. -1.
      99926    2    1    2    0    0  0.00000000000E+00  0.00000000000E+00 -0.13088982563E+02  0.45559444735E+03  0.45540638884E+03 0.  0.
      99925    2    3    3    0    0  0.92890742925E+02 -0.64705280547E+02 -0.17309882560E+02  0.28683192916E+03  0.26297806011E+03 0.  0.
         25    1    3    3    0    0 -0.92890742925E+02  0.64705280547E+02  0.42208999976E+01  0.16876251820E+03  0.12509000000E+03 0.  0.
         25    1    4    4    0    0  0.84078806363E+02 -0.54649552851E+02 -0.45939107415E+01  0.16038837683E+03  0.12509000000E+03 0.  0.
         25    1    4    4    0    0  0.88119365623E+01 -0.10055727697E+02 -0.12715971819E+02  0.12644355233E+03  0.12509000000E+03 0.  0.
<mgrwt>
<rscale>  2 0.45540639E+03</rscale>
<asrwt>0</asrwt>
<pdfrwt beam="1">  1       21 0.32537167E-01 0.45540639E+03</pdfrwt>
<pdfrwt beam="2">  1       21 0.34462017E-01 0.45540639E+03</pdfrwt>
<totfact> 0.68280603E+04</totfact>
</mgrwt>
</event>
<event>
 7    0  0.4759581E-002  0.4549410E+03  0.7546771E-02  0.1026259E+00
         21   -1    0    0  502  501  0.00000000000E+00  0.00000000000E+00  0.72531124820E+02  0.72531124820E+02  0.00000000000E+00 0. -1.
         21   -1    0    0  501  502 -0.00000000000E+00 -0.00000000000E+00 -0.71338783151E+03  0.71338783151E+03  0.00000000000E+00 0. -1.
      99926    2    1    2    0    0  0.00000000000E+00  0.17763568394E-14 -0.64085670669E+03  0.78591895633E+03  0.45494097135E+03 0.  0.
      99925    2    3    3    0    0  0.31533303903E+02 -0.12169554764E+02 -0.21676834307E+03  0.34247685687E+03  0.26298181613E+03 0.  0.
         25    1    3    3    0    0 -0.31533303903E+02  0.12169554764E+02 -0.42408836362E+03  0.44344209947E+03  0.12509000000E+03 0.  0.
         25    1    4    4    0    0  0.40542966756E+02 -0.31435901912E+00 -0.15147102815E+03  0.20058616962E+03  0.12509000000E+03 0.  0.
         25    1    4    4    0    0 -0.90096628529E+01 -0.11855195745E+02 -0.65297314918E+02  0.14189068724E+03  0.12509000000E+03 0.  0.
<mgrwt>
<rscale>  2 0.45494097E+03</rscale>
<asrwt>0</asrwt>
<pdfrwt beam="1">  1       21 0.10666342E-01 0.45494097E+03</pdfrwt>
<pdfrwt beam="2">  1       21 0.10490997E+00 0.45494097E+03</pdfrwt>
<totfact> 0.48475923E+04</totfact>
</mgrwt>
</event>
<event>
 7    0  0.4759581E-002  0.4523385E+03  0.7546771E-02  0.1027027E+00
         21   -1    0    0  502  501  0.00000000000E+00  0.00000000000E+00  0.11341969639E+03  0.11341969639E+03  0.00000000000E+00 0. -1.
         21   -1    0    0  501  502 -0.00000000000E+00 -0.00000000000E+00 -0.45100209002E+03  0.45100209002E+03  0.00000000000E+00 0. -1.
      99926    2    1    2    0    0  0.14210854715E-13  0.00000000000E+00 -0.33758239363E+03  0.56442178642E+03  0.45233845790E+03 0.  0.
      99925    2    3    3    0    0 -0.85849908220E+02  0.55656396809E+02 -0.26556117165E+03  0.38749692733E+03  0.26298914722E+03 0.  0.
         25    1    4    4    0    0 -0.26336481568E+02  0.94438457408E-01 -0.86305190755E+02  0.15423914299E+03  0.12509000000E+03 0.  0.
         25    1    4    4    0    0 -0.59513426652E+02  0.55561958352E+02 -0.17925598090E+03  0.23325778434E+03  0.12509000000E+03 0.  0.
         25    1    3    3    0    0  0.85849908220E+02 -0.55656396809E+02 -0.72021221976E+02  0.17692485908E+03  0.12509000000E+03 0.  0.
<mgrwt>
<rscale>  2 0.45233846E+03</rscale>
<asrwt>0</asrwt>
<pdfrwt beam="1">  1       21 0.16679367E-01 0.45233846E+03</pdfrwt>
<pdfrwt beam="2">  1       21 0.66323837E-01 0.45233846E+03</pdfrwt>
<totfact> 0.62222931E+04</totfact>
</mgrwt>
</event>
<event>
 7    0  0.4759581E-002  0.4701465E+03  0.7546771E-02  0.1021879E+00
         21   -1    0    0  502  501  0.00000000000E+00  0.00000000000E+00  0.30810936561E+02  0.30810936561E+02  0.00000000000E+00 0. -1.
         21   -1    0    0  501  502 -0.00000000000E+00 -0.00000000000E+00 -0.17935003364E+04  0.17935003364E+04  0.00000000000E+00 0. -1.
      99926    2    1    2    0    0  0.14210854715E-13  0.00000000000E+00 -0.17626893999E+04  0.18243112730E+04  0.47014646692E+03 0.  0.
      99925    2    3    3    0    0  0.79324494251E+02 -0.81470339125E+02 -0.13133884444E+04  0.13442606004E+04  0.26290219557E+03 0.  0.
         25    1    4    4    0    0  0.69805282324E+02 -0.54025943989E+02 -0.83591015154E+03  0.84981460897E+03  0.12509000000E+03 0.  0.
         25    1    4    4    0    0  0.95192119267E+01 -0.27444395136E+02 -0.47747829283E+03  0.49444599144E+03  0.12509000000E+03 0.  0.
         25    1    3    3    0    0 -0.79324494251E+02  0.81470339125E+02 -0.44930095551E+03  0.48005067261E+03  0.12509000000E+03 0.  0.
<mgrwt>
<rscale>  2 0.47014647E+03</rscale>
<asrwt>0</asrwt>
<pdfrwt beam="1">  1       21 0.45310198E-02 0.47014647E+03</pdfrwt>
<pdfrwt beam="2">  1       21 0.26375007E+00 0.47014647E+03</pdfrwt>
<totfact> 0.14959117E+04</totfact>
</mgrwt>
</event>
<event>
 7    0  0.4759581E-002  0.4619182E+03  0.7546771E-02  0.1024226E+00
         21   -1    0    0  502  501  0.00000000000E+00  0.00000000000E+00  0.54055700328E+02  0.54055700328E+02  0.00000000000E+00 0.  1.
         21   -1    0    0  501  502 -0.00000000000E+00 -0.00000000000E+00 -0.98679876339E+03  0.98679876339E+03  0.00000000000E+00 0.  1.
      99926    2    1    2    0    0 -0.14210854715E-13  0.00000000000E+00 -0.93274306307E+03  0.10408544637E+04  0.46191816694E+03 0.  0.
      99925    2    3    3    0    0  0.11654708423E+03  0.13853575648E+02 -0.63507245282E+03  0.69729887185E+03  0.26293259964E+03 0.  0.
         25    1    3    3    0    0 -0.11654708423E+03 -0.13853575648E+02 -0.29767061025E+03  0.34355559187E+03  0.12509000000E+03 0.  0.
         25    1    4    4    0    0  0.26317935460E+02 -0.20680272557E+02 -0.26795722916E+03  0.29760526232E+03  0.12509000000E+03 0.  0.
         25    1    4    4    0    0  0.90229148771E+02  0.34533848205E+02 -0.36711522365E+03  0.39969360953E+03  0.12509000000E+03 0.  0.
<mgrwt>
<rscale>  2 0.46191817E+03</rscale>
<asrwt>0</asrwt>
<pdfrwt beam="1">  1       21 0.79493678E-02 0.46191817E+03</pdfrwt>
<pdfrwt beam="2">  1       21 0.14511746E+00 0.46191817E+03</pdfrwt>
<totfact> 0.35650256E+04</totfact>
</mgrwt>
</event>
<event>
 7    0  0.4759581E-002  0.4539031E+03  0.7546771E-02  0.1026564E+00
         21   -1    0    0  502  501  0.00000000000E+00  0.00000000000E+00  0.13728088427E+03  0.13728088427E+03  0.00000000000E+00 0.  1.
         21   -1    0    0  501  502 -0.00000000000E+00 -0.00000000000E+00 -0.37519435302E+03  0.37519435302E+03  0.00000000000E+00 0.  1.
      99926    2    1    2    0    0  0.00000000000E+00 -0.14210854715E-13 -0.23791346875E+03  0.51247523730E+03  0.45390312869E+03 0.  0.
      99925    2    3    3    0    0 -0.41618780072E+02  0.76418695745E+02 -0.22984688672E+03  0.35988258427E+03  0.26289530845E+03 0.  0.
         25    1    3    3    0    0  0.41618780072E+02 -0.76418695745E+02 -0.80665820259E+01  0.15259265303E+03  0.12509000000E+03 0.  0.
         25    1    4    4    0    0 -0.48819532262E+02  0.25871322927E+02 -0.81335038394E+02  0.15910866931E+03  0.12509000000E+03 0.  0.
         25    1    4    4    0    0  0.72007521897E+01  0.50547372818E+02 -0.14851184833E+03  0.20077391495E+03  0.12509000000E+03 0.  0.
<mgrwt>
<rscale>  2 0.45390313E+03</rscale>
<asrwt>0</asrwt>
<pdfrwt beam="1">  1       21 0.20188366E-01 0.45390313E+03</pdfrwt>
<pdfrwt beam="2">  1       21 0.55175639E-01 0.45390313E+03</pdfrwt>
<totfact> 0.64966475E+04</totfact>
</mgrwt>
</event>
<event>
 7    0  0.4759581E-002  0.4493578E+03  0.7546771E-02  0.1027914E+00
         21   -1    0    0  502  501  0.00000000000E+00  0.00000000000E+00  0.68400302089E+02  0.68400302089E+02  0.00000000000E+00 0.  1.
         21   -1    0    0  501  502 -0.00000000000E+00 -0.00000000000E+00 -0.73801746757E+03  0.73801746757E+03  0.00000000000E+00 0.  1.
      99926    2    1    2    0    0  0.00000000000E+00 -0.88817841970E-15 -0.66961716548E+03  0.80641776966E+03  0.44935784283E+03 0.  0.
      99925    2    3    3    0    0  0.38570121668E+02 -0.73180488340E+01 -0.60366504581E+03  0.65965810792E+03  0.26305156090E+03 0.  0.
         25    1    4    4    0    0  0.20708418053E+02 -0.28514320506E+02 -0.38354998565E+03  0.40496914036E+03  0.12509000000E+03 0.  0.
         25    1    4    4    0    0  0.17861703615E+02  0.21196271672E+02 -0.22011506015E+03  0.25468896756E+03  0.12509000000E+03 0.  0.
         25    1    3    3    0    0 -0.38570121668E+02  0.73180488340E+01 -0.65952119676E+02  0.14675966174E+03  0.12509000000E+03 0.  0.
<mgrwt>
<rscale>  2 0.44935784E+03</rscale>
<asrwt>0</asrwt>
<pdfrwt beam="1">  1       21 0.10058869E-01 0.44935784E+03</pdfrwt>
<pdfrwt beam="2">  1       21 0.10853197E+00 0.44935784E+03</pdfrwt>
<totfact> 0.49616603E+04</totfact>
</mgrwt>
</event>
<event>
 7    0  0.4759581E-002  0.4544015E+03  0.7546771E-02  0.1026418E+00
         21   -1    0    0  502  501  0.00000000000E+00  0.00000000000E+00  0.11837380899E+04  0.11837380899E+04  0.00000000000E+00 0. -1.
         21   -1    0    0  501  502 -0.00000000000E+00 -0.00000000000E+00 -0.43607769790E+02  0.43607769790E+02  0.00000000000E+00 0. -1.
      99926    2    1    2    0    0  0.00000000000E+00  0.00000000000E+00  0.11401303201E+04  0.12273458597E+04  0.45440148818E+03 0.  0.
      99925    2    3    3    0    0  0.27684930826E+02  0.43076916113E+02  0.44692656075E+03  0.52108738279E+03  0.26299550130E+03 0.  0.
         25    1    4    4    0    0  0.47246683531E+02  0.45636657726E+02  0.23786177224E+03  0.27665987137E+03  0.12509000000E+03 0.  0.
         25    1    3    3    0    0 -0.27684930826E+02 -0.43076916113E+02  0.69320375935E+03  0.70625847689E+03  0.12509000000E+03 0.  0.
         25    1    4    4    0    0 -0.19561752705E+02 -0.25597416124E+01  0.20906478851E+03  0.24442751142E+03  0.12509000000E+03 0.  0.
<mgrwt>
<rscale>  2 0.45440149E+03</rscale>
<asrwt>0</asrwt>
<pdfrwt beam="1">  1       21 0.17407911E+00 0.45440149E+03</pdfrwt>
<pdfrwt beam="2">  1       21 0.64129081E-02 0.45440149E+03</pdfrwt>
<totfact> 0.31446148E+04</totfact>
</mgrwt>
</event>
<event>
 7    0  0.4759581E-002  0.4554526E+03  0.7546771E-02  0.1026108E+00
         21   -1    0    0  502  501  0.00000000000E+00  0.00000000000E+00  0.19730035732E+03  0.19730035732E+03  0.00000000000E+00 0.  1.
         21   -1    0    0  501  502 -0.00000000000E+00 -0.00000000000E+00 -0.26284423459E+03  0.26284423459E+03  0.00000000000E+00 0.  1.
      99926    2    1    2    0    0  0.35527136788E-14  0.00000000000E+00 -0.65543877272E+02  0.46014459191E+03  0.45545257230E+03 0.  0.
      99925    2    3    3    0    0  0.20675175448E+02 -0.10344409817E+03 -0.83685639757E+02  0.29550931023E+03  0.26304813591E+03 0.  0.
         25    1    3    3    0    0 -0.20675175448E+02  0.10344409817E+03  0.18141762485E+02  0.16463528167E+03  0.12509000000E+03 0.  0.
         25    1    4    4    0    0  0.28931040328E+02 -0.77728142867E+02 -0.73538894614E+02  0.16713511423E+03  0.12509000000E+03 0.  0.
         25    1    4    4    0    0 -0.82558648797E+01 -0.25715955302E+02 -0.10146745142E+02  0.12837419600E+03  0.12509000000E+03 0.  0.
<mgrwt>
<rscale>  2 0.45545257E+03</rscale>
<asrwt>0</asrwt>
<pdfrwt beam="1">  1       21 0.29014758E-01 0.45545257E+03</pdfrwt>
<pdfrwt beam="2">  1       21 0.38653564E-01 0.45545257E+03</pdfrwt>
<totfact> 0.67924559E+04</totfact>
</mgrwt>
</event>
<event>
 7    0  0.4759581E-002  0.4807530E+03  0.7546771E-02  0.1018928E+00
         21   -1    0    0  502  501  0.00000000000E+00  0.00000000000E+00  0.49189766363E+03  0.49189766363E+03  0.00000000000E+00 0. -1.
         21   -1    0    0  501  502 -0.00000000000E+00 -0.00000000000E+00 -0.11746520842E+03  0.11746520842E+03  0.00000000000E+00 0. -1.
      99926    2    1    2    0    0  0.71054273576E-14  0.00000000000E+00  0.37443245521E+03  0.60936287206E+03  0.48075299929E+03 0.  0.
      99925    2    3    3    0    0 -0.53197330856E+02  0.11354737699E+03  0.16382618887E+03  0.33418025932E+03  0.26289629652E+03 0.  0.
         25    1    4    4    0    0 -0.11268607923E+02  0.96162204482E+02  0.90705588884E+02  0.18234353032E+03  0.12509000000E+03 0.  0.
         25    1    3    3    0    0  0.53197330856E+02 -0.11354737699E+03  0.21060626634E+03  0.27518261274E+03  0.12509000000E+03 0.  0.
         25    1    4    4    0    0 -0.41928722933E+02  0.17385172509E+02  0.73120599982E+02  0.15183672899E+03  0.12509000000E+03 0.  0.
<mgrwt>
<rscale>  2 0.48075300E+03</rscale>
<asrwt>0</asrwt>
<pdfrwt beam="1">  1       21 0.72337891E-01 0.48075300E+03</pdfrwt>
<pdfrwt beam="2">  1       21 0.17274296E-01 0.48075300E+03</pdfrwt>
<totfact> 0.47646216E+04</totfact>
</mgrwt>
</event>
<event>
 7    0  0.4759581E-002  0.4031736E+03  0.7546771E-02  0.1042686E+00
         21   -1    0    0  502  501  0.00000000000E+00  0.00000000000E+00  0.86013148679E+02  0.86013148679E+02  0.00000000000E+00 0.  1.
         21   -1    0    0  501  502 -0.00000000000E+00 -0.00000000000E+00 -0.47245377460E+03  0.47245377460E+03  0.00000000000E+00 0.  1.
      99926    2    1    2    0    0  0.00000000000E+00  0.00000000000E+00 -0.38644062592E+03  0.55846692328E+03  0.40317359417E+03 0.  0.
      99925    2    3    3    0    0 -0.35363329539E+02  0.60547293714E+01 -0.20582038499E+03  0.33584975333E+03  0.26295589194E+03 0.  0.
         25    1    4    4    0    0  0.26787291150E+01 -0.31235888763E+02 -0.11021558516E+03  0.16964032436E+03  0.12509000000E+03 0.  0.
         25    1    4    4    0    0 -0.38042058654E+02  0.37290618134E+02 -0.95604799836E+02  0.16620942897E+03  0.12509000000E+03 0.  0.
         25    1    3    3    0    0  0.35363329539E+02 -0.60547293714E+01 -0.18062024093E+03  0.22261716995E+03  0.12509000000E+03 0.  0.
<mgrwt>
<rscale>  2 0.40317359E+03</rscale>
<asrwt>0</asrwt>
<pdfrwt beam="1">  1       21 0.12648992E-01 0.40317359E+03</pdfrwt>
<pdfrwt beam="2">  1       21 0.69478497E-01 0.40317359E+03</pdfrwt>
<totfact> 0.94482694E+04</totfact>
</mgrwt>
</event>
<event>
 7    0  0.4759581E-002  0.4506358E+03  0.7546771E-02  0.1027533E+00
         21   -1    0    0  502  501  0.00000000000E+00  0.00000000000E+00  0.13281598462E+03  0.13281598462E+03  0.00000000000E+00 0. -1.
         21   -1    0    0  501  502 -0.00000000000E+00 -0.00000000000E+00 -0.38224434973E+03  0.38224434973E+03  0.00000000000E+00 0. -1.
      99926    2    1    2    0    0 -0.71054273576E-14  0.00000000000E+00 -0.24942836511E+03  0.51506033435E+03  0.45063581604E+03 0.  0.
      99925    2    3    3    0    0 -0.43730574919E+02  0.89112674917E+02 -0.10405840292E+03  0.29911273418E+03  0.26227246237E+03 0.  0.
         25    1    4    4    0    0 -0.20985692989E+02  0.31013656328E+02 -0.90072883252E+02  0.15862811411E+03  0.12509000000E+03 0.  0.
         25    1    4    4    0    0 -0.22744881931E+02  0.58099018589E+02 -0.13985519670E+02  0.14048462007E+03  0.12509000000E+03 0.  0.
         25    1    3    3    0    0  0.43730574919E+02 -0.89112674917E+02 -0.14536996219E+03  0.21594760017E+03  0.12509000000E+03 0.  0.
<mgrwt>
<rscale>  2 0.45063582E+03</rscale>
<asrwt>0</asrwt>
<pdfrwt beam="1">  1       21 0.19531763E-01 0.45063582E+03</pdfrwt>
<pdfrwt beam="2">  1       21 0.56212402E-01 0.45063582E+03</pdfrwt>
<totfact> 0.66498040E+04</totfact>
</mgrwt>
</event>
<event>
 7    0  0.4759581E-002  0.4524101E+03  0.7546771E-02  0.1027006E+00
         21   -1    0    0  502  501  0.00000000000E+00  0.00000000000E+00  0.16358108898E+04  0.16358108898E+04  0.00000000000E+00 0.  1.
         21   -1    0    0  501  502 -0.00000000000E+00 -0.00000000000E+00 -0.31280340047E+02  0.31280340047E+02  0.00000000000E+00 0.  1.
      99926    2    1    2    0    0  0.00000000000E+00  0.00000000000E+00  0.16045305497E+04  0.16670912298E+04  0.45241008338E+03 0.  0.
      99925    2    3    3    0    0  0.65333900430E+02  0.36440980174E+02  0.71194252349E+03  0.76268128059E+03  0.26310476133E+03 0.  0.
         25    1    4    4    0    0 -0.33043825527E+01  0.67817641397E+01  0.38075714890E+03  0.40084962992E+03  0.12509000000E+03 0.  0.
         25    1    4    4    0    0  0.68638282983E+02  0.29659216035E+02  0.33118537459E+03  0.36183165068E+03  0.12509000000E+03 0.  0.
         25    1    3    3    0    0 -0.65333900430E+02 -0.36440980174E+02  0.89258802623E+03  0.90440994922E+03  0.12509000000E+03 0.  0.
<mgrwt>
<rscale>  2 0.45241008E+03</rscale>
<asrwt>0</asrwt>
<pdfrwt beam="1">  1       21 0.24056037E+00 0.45241008E+03</pdfrwt>
<pdfrwt beam="2">  1       21 0.46000511E-02 0.45241008E+03</pdfrwt>
<totfact> 0.20361704E+04</totfact>
</mgrwt>
</event>
<event>
 7    0  0.4759581E-002  0.4525304E+03  0.7546771E-02  0.1026970E+00
         21   -1    0    0  502  501  0.00000000000E+00  0.00000000000E+00  0.86131568371E+03  0.86131568371E+03  0.00000000000E+00 0. -1.
         21   -1    0    0  501  502 -0.00000000000E+00 -0.00000000000E+00 -0.59439229651E+02  0.59439229651E+02  0.00000000000E+00 0. -1.
      99926    2    1    2    0    0  0.00000000000E+00 -0.17763568394E-14  0.80187645406E+03  0.92075491336E+03  0.45253039998E+03 0.  0.
      99925    2    3    3    0    0 -0.82247593227E+02  0.15364604597E+02  0.35827760640E+03  0.45232329252E+03  0.26312122688E+03 0.  0.
         25    1    3    3    0    0  0.82247593227E+02 -0.15364604597E+02  0.44359884766E+03  0.46843162084E+03  0.12509000000E+03 0.  0.
         25    1    4    4    0    0 -0.38705220793E+02 -0.22531132701E+02  0.13122455144E+03  0.18674350606E+03  0.12509000000E+03 0.  0.
         25    1    4    4    0    0 -0.43542372434E+02  0.37895737298E+02  0.22705305497E+03  0.26557978645E+03  0.12509000000E+03 0.  0.
<mgrwt>
<rscale>  2 0.45253040E+03</rscale>
<asrwt>0</asrwt>
<pdfrwt beam="1">  1       21 0.12666406E+00 0.45253040E+03</pdfrwt>
<pdfrwt beam="2">  1       21 0.87410637E-02 0.45253040E+03</pdfrwt>
<totfact> 0.43176418E+04</totfact>
</mgrwt>
</event>
<event>
 7    0  0.4759581E-002  0.4545512E+03  0.7546771E-02  0.1026373E+00
         21   -1    0    0  502  501  0.00000000000E+00  0.00000000000E+00  0.44407687537E+03  0.44407687537E+03  0.00000000000E+00 0.  1.
         21   -1    0    0  501  502 -0.00000000000E+00 -0.00000000000E+00 -0.11631816374E+03  0.11631816374E+03  0.00000000000E+00 0.  1.
      99926    2    1    2    0    0 -0.71054273576E-14  0.00000000000E+00  0.32775871164E+03  0.56039503911E+03  0.45455123672E+03 0.  0.
      99925    2    3    3    0    0  0.43000488070E+02 -0.87425164678E+02  0.27625956226E+03  0.39368609550E+03  0.26301557873E+03 0.  0.
         25    1    3    3    0    0 -0.43000488070E+02  0.87425164678E+02  0.51499149376E+02  0.16670894361E+03  0.12509000000E+03 0.  0.
         25    1    4    4    0    0 -0.38896801425E+01 -0.18661498937E+02  0.15834947908E+03  0.20269545328E+03  0.12509000000E+03 0.  0.
         25    1    4    4    0    0  0.46890168213E+02 -0.68763665741E+02  0.11791008318E+03  0.19099064222E+03  0.12509000000E+03 0.  0.
<mgrwt>
<rscale>  2 0.45455124E+03</rscale>
<asrwt>0</asrwt>
<pdfrwt beam="1">  1       21 0.65305422E-01 0.45455124E+03</pdfrwt>
<pdfrwt beam="2">  1       21 0.17105613E-01 0.45455124E+03</pdfrwt>
<totfact> 0.61402447E+04</totfact>
</mgrwt>
</event>
<event>
 7    0  0.4759581E-002  0.4455316E+03  0.7546771E-02  0.1029063E+00
         21   -1    0    0  502  501  0.00000000000E+00  0.00000000000E+00  0.16055477312E+03  0.16055477312E+03  0.00000000000E+00 0.  1.
         21   -1    0    0  501  502 -0.00000000000E+00 -0.00000000000E+00 -0.30908211043E+03  0.30908211043E+03  0.00000000000E+00 0.  1.
      99926    2    1    2    0    0  0.00000000000E+00  0.00000000000E+00 -0.14852733730E+03  0.46963688355E+03  0.44553162902E+03 0.  0.
      99925    2    3    3    0    0 -0.94294591052E+02  0.26261256938E+02 -0.57044355890E+02  0.28633994548E+03  0.26297410960E+03 0.  0.
         25    1    4    4    0    0 -0.60267548779E+02  0.23145882510E+02 -0.67756530226E+02  0.15622536542E+03  0.12509000000E+03 0.  0.
         25    1    4    4    0    0 -0.34027042273E+02  0.31153744280E+01  0.10712174337E+02  0.13011458005E+03  0.12509000000E+03 0.  0.
         25    1    3    3    0    0  0.94294591052E+02 -0.26261256938E+02 -0.91482981415E+02  0.18329693807E+03  0.12509000000E+03 0.  0.
<mgrwt>
<rscale>  2 0.44553163E+03</rscale>
<asrwt>0</asrwt>
<pdfrwt beam="1">  1       21 0.23610996E-01 0.44553163E+03</pdfrwt>
<pdfrwt beam="2">  1       21 0.45453251E-01 0.44553163E+03</pdfrwt>
<totfact> 0.72779343E+04</totfact>
</mgrwt>
</event>
<event>
 7    0  0.4759581E-002  0.4523109E+03  0.7546771E-02  0.1027035E+00
         21   -1    0    0  502  501  0.00000000000E+00  0.00000000000E+00  0.20021025304E+03  0.20021025304E+03  0.00000000000E+00 0.  1.
         21   -1    0    0  501  502 -0.00000000000E+00 -0.00000000000E+00 -0.25546291546E+03  0.25546291546E+03  0.00000000000E+00 0.  1.
      99926    2    1    2    0    0  0.00000000000E+00  0.00000000000E+00 -0.55252662418E+02  0.45567316849E+03  0.45231093264E+03 0.  0.
      99925    2    3    3    0    0 -0.83325678002E+02  0.62725445246E+02 -0.71207553877E+02  0.29202807460E+03  0.26331014133E+03 0.  0.
         25    1    4    4    0    0 -0.54045036749E+02 -0.54933890048E+01 -0.20094908853E+02  0.13784903620E+03  0.12509000000E+03 0.  0.
         25    1    3    3    0    0  0.83325678002E+02 -0.62725445246E+02  0.15954891459E+02  0.16364509390E+03  0.12509000000E+03 0.  0.
         25    1    4    4    0    0 -0.29280641253E+02  0.68218834251E+02 -0.51112645024E+02  0.15417903839E+03  0.12509000000E+03 0.  0.
<mgrwt>
<rscale>  2 0.45231093E+03</rscale>
<asrwt>0</asrwt>
<pdfrwt beam="1">  1       21 0.29442685E-01 0.45231093E+03</pdfrwt>
<pdfrwt beam="2">  1       21 0.37568075E-01 0.45231093E+03</pdfrwt>
<totfact> 0.69985861E+04</totfact>
</mgrwt>
</event>
<event>
 7    0  0.4759581E-002  0.4530642E+03  0.7546771E-02  0.1026812E+00
         21   -1    0    0  502  501  0.00000000000E+00  0.00000000000E+00  0.39525397125E+03  0.39525397125E+03  0.00000000000E+00 0. -1.
         21   -1    0    0  501  502 -0.00000000000E+00 -0.00000000000E+00 -0.12983244839E+03  0.12983244839E+03  0.00000000000E+00 0. -1.
      99926    2    1    2    0    0 -0.88817841970E-15  0.00000000000E+00  0.26542152287E+03  0.52508641964E+03  0.45306419334E+03 0.  0.
      99925    2    3    3    0    0 -0.30293392458E+01  0.10285307186E+03  0.11812823385E+03  0.30615548903E+03  0.26303796788E+03 0.  0.
         25    1    4    4    0    0 -0.22904108061E+02  0.14758190326E+02  0.48742498346E+02  0.13698810749E+03  0.12509000000E+03 0.  0.
         25    1    4    4    0    0  0.19874768816E+02  0.88094881532E+02  0.69385735505E+02  0.16916738155E+03  0.12509000000E+03 0.  0.
         25    1    3    3    0    0  0.30293392458E+01 -0.10285307186E+03  0.14729328902E+03  0.21893093061E+03  0.12509000000E+03 0.  0.
<mgrwt>
<rscale>  2 0.45306419E+03</rscale>
<asrwt>0</asrwt>
<pdfrwt beam="1">  1       21 0.58125584E-01 0.45306419E+03</pdfrwt>
<pdfrwt beam="2">  1       21 0.19093007E-01 0.45306419E+03</pdfrwt>
<totfact> 0.64524840E+04</totfact>
</mgrwt>
</event>
<event>
 7    0  0.4759581E-002  0.4452391E+03  0.7546771E-02  0.1029151E+00
         21   -1    0    0  502  501  0.00000000000E+00  0.00000000000E+00  0.27981902273E+02  0.27981902273E+02  0.00000000000E+00 0.  1.
         21   -1    0    0  501  502 -0.00000000000E+00 -0.00000000000E+00 -0.17711253379E+04  0.17711253379E+04  0.00000000000E+00 0.  1.
      99926    2    1    2    0    0  0.00000000000E+00 -0.71054273576E-14 -0.17431434357E+04  0.17991072402E+04  0.44523906441E+03 0.  0.
      99925    2    3    3    0    0 -0.35412013465E+02 -0.47725934179E+02 -0.76336289983E+03  0.80958756785E+03  0.26301585064E+03 0.  0.
         25    1    4    4    0    0 -0.35703449143E+02 -0.59689960155E+02 -0.37411073269E+03  0.40055458559E+03  0.12509000000E+03 0.  0.
         25    1    3    3    0    0  0.35412013465E+02  0.47725934179E+02 -0.97978053583E+03  0.98951967236E+03  0.12509000000E+03 0.  0.
         25    1    4    4    0    0  0.29143567807E+00  0.11964025976E+02 -0.38925216715E+03  0.40903298226E+03  0.12509000000E+03 0.  0.
<mgrwt>
<rscale>  2 0.44523906E+03</rscale>
<asrwt>0</asrwt>
<pdfrwt beam="1">  1       21 0.41149846E-02 0.44523906E+03</pdfrwt>
<pdfrwt beam="2">  1       21 0.26045967E+00 0.44523906E+03</pdfrwt>
<totfact> 0.18650008E+04</totfact>
</mgrwt>
</event>
<event>
 7    0  0.4759581E-002  0.4587733E+03  0.7546771E-02  0.1025138E+00
         21   -1    0    0  502  501  0.00000000000E+00  0.00000000000E+00  0.50917340603E+03  0.50917340603E+03  0.00000000000E+00 0. -1.
         21   -1    0    0  501  502 -0.00000000000E+00 -0.00000000000E+00 -0.10334051491E+03  0.10334051491E+03  0.00000000000E+00 0. -1.
      99926    2    1    2    0    0  0.00000000000E+00  0.00000000000E+00  0.40583289112E+03  0.61251392094E+03  0.45877332947E+03 0.  0.
      99925    2    3    3    0    0 -0.45678510692E+02  0.10661916991E+03  0.27165277625E+03  0.39547478839E+03  0.26296559409E+03 0.  0.
         25    1    4    4    0    0 -0.27926545669E+02  0.54462585663E+02  0.81705781738E+02  0.16146023678E+03  0.12509000000E+03 0.  0.
         25    1    3    3    0    0  0.45678510692E+02 -0.10661916991E+03  0.13418011487E+03  0.21703913255E+03  0.12509000000E+03 0.  0.
         25    1    4    4    0    0 -0.17751965023E+02  0.52156584251E+02  0.18994699451E+03  0.23401455161E+03  0.12509000000E+03 0.  0.
<mgrwt>
<rscale>  2 0.45877333E+03</rscale>
<asrwt>0</asrwt>
<pdfrwt beam="1">  1       21 0.74878441E-01 0.45877333E+03</pdfrwt>
<pdfrwt beam="2">  1       21 0.15197135E-01 0.45877333E+03</pdfrwt>
<totfact> 0.56220147E+04</totfact>
</mgrwt>
</event>
<event>
 7    0  0.4759581E-002  0.4512852E+03  0.7546771E-02  0.1027339E+00
         21   -1    0    0  502  501  0.00000000000E+00  0.00000000000E+00  0.50738228721E+03  0.50738228721E+03  0.00000000000E+00 0.  1.
         21   -1    0    0  501  502 -0.00000000000E+00 -0.00000000000E+00 -0.10034757058E+03  0.10034757058E+03  0.00000000000E+00 0.  1.
      99926    2    1    2    0    0  0.00000000000E+00  0.00000000000E+00  0.40703471663E+03  0.60772985779E+03  0.45128518644E+03 0.  0.
      99925    2    3    3    0    0 -0.33433723434E+02 -0.94624754411E+02  0.31647022347E+03  0.42355305813E+03  0.26300595563E+03 0.  0.
         25    1    3    3    0    0  0.33433723434E+02  0.94624754411E+02  0.90564493162E+02  0.18417679966E+03  0.12509000000E+03 0.  0.
         25    1    4    4    0    0 -0.50104265532E+02 -0.61625049078E+02  0.13789758706E+03  0.20241377600E+03  0.12509000000E+03 0.  0.
         25    1    4    4    0    0  0.16670542098E+02 -0.32999705333E+02  0.17857263642E+03  0.22113928213E+03  0.12509000000E+03 0.  0.
<mgrwt>
<rscale>  2 0.45128519E+03</rscale>
<asrwt>0</asrwt>
<pdfrwt beam="1">  1       21 0.74615041E-01 0.45128519E+03</pdfrwt>
<pdfrwt beam="2">  1       21 0.14756996E-01 0.45128519E+03</pdfrwt>
<totfact> 0.59944756E+04</totfact>
</mgrwt>
</event>
<event>
 7    0  0.4759581E-002  0.4580300E+03  0.7546771E-02  0.1025354E+00
         21   -1    0    0  502  501  0.00000000000E+00  0.00000000000E+00  0.58581756922E+03  0.58581756922E+03  0.00000000000E+00 0.  1.
         21   -1    0    0  501  502 -0.00000000000E+00 -0.00000000000E+00 -0.89529355405E+02  0.89529355405E+02  0.00000000000E+00 0.  1.
      99926    2    1    2    0    0  0.00000000000E+00  0.00000000000E+00  0.49628821381E+03  0.67534692462E+03  0.45802999621E+03 0.  0.
      99925    2    3    3    0    0  0.92115695357E+02 -0.45872634845E+02  0.23249866171E+03  0.36579557855E+03  0.26298512815E+03 0.  0.
         25    1    3    3    0    0 -0.92115695357E+02  0.45872634845E+02  0.26378955211E+03  0.30955134608E+03  0.12509000000E+03 0.  0.
         25    1    4    4    0    0  0.54048091607E+02 -0.58251540467E+02  0.97167209550E+02  0.17721008122E+03  0.12509000000E+03 0.  0.
         25    1    4    4    0    0  0.38067603750E+02  0.12378905621E+02  0.13533145216E+03  0.18858549733E+03  0.12509000000E+03 0.  0.
<mgrwt>
<rscale>  2 0.45803000E+03</rscale>
<asrwt>0</asrwt>
<pdfrwt beam="1">  1       21 0.86149641E-01 0.45803000E+03</pdfrwt>
<pdfrwt beam="2">  1       21 0.13166082E-01 0.45803000E+03</pdfrwt>
<totfact> 0.52985648E+04</totfact>
</mgrwt>
</event>
<event>
 7    0  0.4759581E-002  0.4307748E+03  0.7546771E-02  0.1033615E+00
         21   -1    0    0  502  501  0.00000000000E+00  0.00000000000E+00  0.17408474390E+03  0.17408474390E+03  0.00000000000E+00 0. -1.
         21   -1    0    0  501  502 -0.00000000000E+00 -0.00000000000E+00 -0.26648940809E+03  0.26648940809E+03  0.00000000000E+00 0. -1.
      99926    2    1    2    0    0  0.00000000000E+00  0.00000000000E+00 -0.92404664187E+02  0.44057415199E+03  0.43077483844E+03 0.  0.
      99925    2    3    3    0    0  0.23361306201E+02  0.23594436088E+02  0.24398938144E+02  0.26623816127E+03  0.26303042085E+03 0.  0.
         25    1    3    3    0    0 -0.23361306201E+02 -0.23594436088E+02 -0.11680360233E+03  0.17433599072E+03  0.12509000000E+03 0.  0.
         25    1    4    4    0    0  0.46850539135E+01 -0.31042266267E+01  0.49346629265E+02  0.13458894410E+03  0.12509000000E+03 0.  0.
         25    1    4    4    0    0  0.18676252287E+02  0.26698662715E+02 -0.24947691121E+02  0.13164921717E+03  0.12509000000E+03 0.  0.
<mgrwt>
<rscale>  2 0.43077484E+03</rscale>
<asrwt>0</asrwt>
<pdfrwt beam="1">  1       21 0.25600698E-01 0.43077484E+03</pdfrwt>
<pdfrwt beam="2">  1       21 0.39189618E-01 0.43077484E+03</pdfrwt>
<totfact> 0.84856736E+04</totfact>
</mgrwt>
</event>
<event>
 7    0  0.4759581E-002  0.4618398E+03  0.7546771E-02  0.1024249E+00
         21   -1    0    0  502  501  0.00000000000E+00  0.00000000000E+00  0.25767615815E+03  0.25767615815E+03  0.00000000000E+00 0.  1.
         21   -1    0    0  501  502 -0.00000000000E+00 -0.00000000000E+00 -0.20694188175E+03  0.20694188175E+03  0.00000000000E+00 0.  1.
      99926    2    1    2    0    0  0.00000000000E+00  0.00000000000E+00  0.50734276391E+02  0.46461803990E+03  0.46183975165E+03 0.  0.
      99925    2    3    3    0    0  0.96727587358E+02  0.69730807118E+02  0.39717466841E+02  0.29144907672E+03  0.26295717433E+03 0.  0.
         25    1    4    4    0    0  0.90572674836E+02  0.46050002201E+02  0.18129583620E+02  0.16217337029E+03  0.12509000000E+03 0.  0.
         25    1    4    4    0    0  0.61549125224E+01  0.23680804917E+02  0.21587883221E+02  0.12927570642E+03  0.12509000000E+03 0.  0.
         25    1    3    3    0    0 -0.96727587358E+02 -0.69730807118E+02  0.11016809550E+02  0.17316896318E+03  0.12509000000E+03 0.  0.
<mgrwt>
<rscale>  2 0.46183975E+03</rscale>
<asrwt>0</asrwt>
<pdfrwt beam="1">  1       21 0.37893553E-01 0.46183975E+03</pdfrwt>
<pdfrwt beam="2">  1       21 0.30432630E-01 0.46183975E+03</pdfrwt>
<totfact> 0.64267405E+04</totfact>
</mgrwt>
</event>
<event>
 7    0  0.4759581E-002  0.4352753E+03  0.7546771E-02  0.1032206E+00
         21   -1    0    0  502  501  0.00000000000E+00  0.00000000000E+00  0.76887584597E+02  0.76887584597E+02  0.00000000000E+00 0.  1.
         21   -1    0    0  501  502 -0.00000000000E+00 -0.00000000000E+00 -0.61604422632E+03  0.61604422632E+03  0.00000000000E+00 0.  1.
      99926    2    1    2    0    0  0.00000000000E+00  0.00000000000E+00 -0.53915664172E+03  0.69293181091E+03  0.43527532697E+03 0.  0.
      99925    2    3    3    0    0  0.77957829625E+02  0.49056719083E+02 -0.32024039026E+03  0.42449966280E+03  0.26298682719E+03 0.  0.
         25    1    4    4    0    0  0.55222687377E+02  0.53584251643E+02 -0.20940502059E+03  0.25577096781E+03  0.12509000000E+03 0.  0.
         25    1    3    3    0    0 -0.77957829625E+02 -0.49056719083E+02 -0.21891625146E+03  0.26843214811E+03  0.12509000000E+03 0.  0.
         25    1    4    4    0    0  0.22735142248E+02 -0.45275325597E+01 -0.11083536967E+03  0.16872869499E+03  0.12509000000E+03 0.  0.
<mgrwt>
<rscale>  2 0.43527533E+03</rscale>
<asrwt>0</asrwt>
<pdfrwt beam="1">  1       21 0.11306998E-01 0.43527533E+03</pdfrwt>
<pdfrwt beam="2">  1       21 0.90594738E-01 0.43527533E+03</pdfrwt>
<totfact> 0.62431123E+04</totfact>
</mgrwt>
</event>
<event>
 7    0  0.4759581E-002  0.4474934E+03  0.7546771E-02  0.1028472E+00
         21   -1    0    0  502  501  0.00000000000E+00  0.00000000000E+00  0.61230724118E+03  0.61230724118E+03  0.00000000000E+00 0.  1.
         21   -1    0    0  501  502 -0.00000000000E+00 -0.00000000000E+00 -0.81760547492E+02  0.81760547492E+02  0.00000000000E+00 0.  1.
      99926    2    1    2    0    0  0.00000000000E+00  0.00000000000E+00  0.53054669369E+03  0.69406778867E+03  0.44749335312E+03 0.  0.
      99925    2    3    3    0    0 -0.95448671170E+02 -0.10804873077E+02  0.26762391386E+03  0.38746855455E+03  0.26321498321E+03 0.  0.
         25    1    4    4    0    0 -0.55941913071E+02  0.11353189814E+02  0.18628827197E+03  0.23153665137E+03  0.12509000000E+03 0.  0.
         25    1    3    3    0    0  0.95448671170E+02  0.10804873077E+02  0.26292277982E+03  0.30659923412E+03  0.12509000000E+03 0.  0.
         25    1    4    4    0    0 -0.39506758099E+02 -0.22158062892E+02  0.81335641896E+02  0.15593190318E+03  0.12509000000E+03 0.  0.
<mgrwt>
<rscale>  2 0.44749335E+03</rscale>
<asrwt>0</asrwt>
<pdfrwt beam="1">  1       21 0.90045180E-01 0.44749335E+03</pdfrwt>
<pdfrwt beam="2">  1       21 0.12023610E-01 0.44749335E+03</pdfrwt>
<totfact> 0.56490716E+04</totfact>
</mgrwt>
</event>
<event>
 7    0  0.4759581E-002  0.4531786E+03  0.7546771E-02  0.1026778E+00
         21   -1    0    0  502  501  0.00000000000E+00  0.00000000000E+00  0.16997739862E+03  0.16997739862E+03  0.00000000000E+00 0. -1.
         21   -1    0    0  501  502 -0.00000000000E+00 -0.00000000000E+00 -0.30205606319E+03  0.30205606319E+03  0.00000000000E+00 0. -1.
      99926    2    1    2    0    0  0.00000000000E+00  0.00000000000E+00 -0.13207866456E+03  0.47203346181E+03  0.45317856904E+03 0.  0.
      99925    2    3    3    0    0  0.10009511029E+03  0.28574302989E+02 -0.41751922637E+02  0.28590998048E+03  0.26299386305E+03 0.  0.
         25    1    3    3    0    0 -0.10009511029E+03 -0.28574302989E+02 -0.90326741928E+02  0.18612348133E+03  0.12509000000E+03 0.  0.
         25    1    4    4    0    0  0.90990906064E+01  0.75307291811E+01 -0.31088269645E+02  0.12943528862E+03  0.12509000000E+03 0.  0.
         25    1    4    4    0    0  0.90996019679E+02  0.21043573808E+02 -0.10663652992E+02  0.15647469185E+03  0.12509000000E+03 0.  0.
<mgrwt>
<rscale>  2 0.45317857E+03</rscale>
<asrwt>0</asrwt>
<pdfrwt beam="1">  1       21 0.24996676E-01 0.45317857E+03</pdfrwt>
<pdfrwt beam="2">  1       21 0.44420009E-01 0.45317857E+03</pdfrwt>
<totfact> 0.68266107E+04</totfact>
</mgrwt>
</event>
<event>
 7    0  0.4759581E-002  0.4556484E+03  0.7546771E-02  0.1026051E+00
         21   -1    0    0  502  501  0.00000000000E+00  0.00000000000E+00  0.11572095319E+03  0.11572095319E+03  0.00000000000E+00 0. -1.
         21   -1    0    0  501  502 -0.00000000000E+00 -0.00000000000E+00 -0.44852606496E+03  0.44852606496E+03  0.00000000000E+00 0. -1.
      99926    2    1    2    0    0  0.00000000000E+00  0.00000000000E+00 -0.33280511177E+03  0.56424701814E+03  0.45564838973E+03 0.  0.
      99925    2    3    3    0    0 -0.25808110400E+02  0.11090588760E+03 -0.19625330523E+03  0.34685318558E+03  0.26234633229E+03 0.  0.
         25    1    4    4    0    0 -0.18001668705E+02  0.16519559227E+02 -0.69633922494E+02  0.14523548869E+03  0.12509000000E+03 0.  0.
         25    1    4    4    0    0 -0.78064416953E+01  0.94386328371E+02 -0.12661938274E+03  0.20161769689E+03  0.12509000000E+03 0.  0.
         25    1    3    3    0    0  0.25808110400E+02 -0.11090588760E+03 -0.13655180654E+03  0.21739383256E+03  0.12509000000E+03 0.  0.
<mgrwt>
<rscale>  2 0.45564839E+03</rscale>
<asrwt>0</asrwt>
<pdfrwt beam="1">  1       21 0.17017787E-01 0.45564839E+03</pdfrwt>
<pdfrwt beam="2">  1       21 0.65959715E-01 0.45564839E+03</pdfrwt>
<totfact> 0.60623277E+04</totfact>
</mgrwt>
</event>
<event>
 7    0  0.4759581E-002  0.4562786E+03  0.7546771E-02  0.1025866E+00
         21   -1    0    0  502  501  0.00000000000E+00  0.00000000000E+00  0.25947907178E+03  0.25947907178E+03  0.00000000000E+00 0.  1.
         21   -1    0    0  501  502 -0.00000000000E+00 -0.00000000000E+00 -0.20058477168E+03  0.20058477168E+03  0.00000000000E+00 0.  1.
      99926    2    1    2    0    0  0.00000000000E+00  0.35527136788E-14  0.58894300104E+02  0.46006384347E+03  0.45627864456E+03 0.  0.
      99925    2    3    3    0    0  0.94344022264E+02 -0.30576162965E+02 -0.20405859482E+02  0.28181761016E+03  0.26300013311E+03 0.  0.
         25    1    3    3    0    0 -0.94344022264E+02  0.30576162965E+02  0.79300159586E+02  0.17824623331E+03  0.12509000000E+03 0.  0.
         25    1    4    4    0    0  0.56428734042E+02 -0.55359763490E+02 -0.13765426504E+02  0.14861325818E+03  0.12509000000E+03 0.  0.
         25    1    4    4    0    0  0.37915288222E+02  0.24783600525E+02 -0.66404329782E+01  0.13320435198E+03  0.12509000000E+03 0.  0.
<mgrwt>
<rscale>  2 0.45627864E+03</rscale>
<asrwt>0</asrwt>
<pdfrwt beam="1">  1       21 0.38158687E-01 0.45627864E+03</pdfrwt>
<pdfrwt beam="2">  1       21 0.29497761E-01 0.45627864E+03</pdfrwt>
<totfact> 0.67485123E+04</totfact>
</mgrwt>
</event>
<event>
 7    0  0.4759581E-002  0.4516855E+03  0.7546771E-02  0.1027221E+00
         21   -1    0    0  502  501  0.00000000000E+00  0.00000000000E+00  0.16078665321E+03  0.16078665321E+03  0.00000000000E+00 0. -1.
         21   -1    0    0  501  502 -0.00000000000E+00 -0.00000000000E+00 -0.31722128036E+03  0.31722128036E+03  0.00000000000E+00 0. -1.
      99926    2    1    2    0    0 -0.14210854715E-13  0.88817841970E-15 -0.15643462716E+03  0.47800793357E+03  0.45168550119E+03 0.  0.
      99925    2    3    3    0    0 -0.83041105032E+02 -0.60630426321E+01 -0.22855195916E+02  0.27695182657E+03  0.26314894765E+03 0.  0.
         25    1    4    4    0    0 -0.74806383022E+02 -0.24674774281E+02  0.18230734332E+01  0.14783663661E+03  0.12509000000E+03 0.  0.
         25    1    3    3    0    0  0.83041105032E+02  0.60630426321E+01 -0.13357943124E+03  0.20105610700E+03  0.12509000000E+03 0.  0.
         25    1    4    4    0    0 -0.82347220102E+01  0.18611731649E+02 -0.24678269349E+02  0.12911518996E+03  0.12509000000E+03 0.  0.
<mgrwt>
<rscale>  2 0.45168550E+03</rscale>
<asrwt>0</asrwt>
<pdfrwt beam="1">  1       21 0.23645096E-01 0.45168550E+03</pdfrwt>
<pdfrwt beam="2">  1       21 0.46650188E-01 0.45168550E+03</pdfrwt>
<totfact> 0.68633341E+04</totfact>
</mgrwt>
</event>
<event>
 7    0  0.4759581E-002  0.4454501E+03  0.7546771E-02  0.1029088E+00
         21   -1    0    0  502  501  0.00000000000E+00  0.00000000000E+00  0.64770420462E+03  0.64770420462E+03  0.00000000000E+00 0.  1.
         21   -1    0    0  501  502 -0.00000000000E+00 -0.00000000000E+00 -0.76588123839E+02  0.76588123839E+02  0.00000000000E+00 0.  1.
      99926    2    1    2    0    0 -0.71054273576E-14  0.00000000000E+00  0.57111608078E+03  0.72429232846E+03  0.44545010870E+03 0.  0.
      99925    2    3    3    0    0 -0.63050485287E+02  0.74243503910E+02  0.30360712625E+03  0.41333250722E+03  0.26301903515E+03 0.  0.
         25    1    3    3    0    0  0.63050485287E+02 -0.74243503910E+02  0.26750895453E+03  0.31095982124E+03  0.12509000000E+03 0.  0.
         25    1    4    4    0    0 -0.16482215692E+01  0.72947108879E+01  0.12293336887E+03  0.17554501053E+03  0.12509000000E+03 0.  0.
         25    1    4    4    0    0 -0.61402263718E+02  0.66948793022E+02  0.18067375737E+03  0.23778749669E+03  0.12509000000E+03 0.  0.
<mgrwt>
<rscale>  2 0.44545011E+03</rscale>
<asrwt>0</asrwt>
<pdfrwt beam="1">  1       21 0.95250615E-01 0.44545011E+03</pdfrwt>
<pdfrwt beam="2">  1       21 0.11262960E-01 0.44545011E+03</pdfrwt>
<totfact> 0.55668556E+04</totfact>
</mgrwt>
</event>
<event>
 7    0  0.4759581E-002  0.4526041E+03  0.7546771E-02  0.1026948E+00
         21   -1    0    0  502  501  0.00000000000E+00  0.00000000000E+00  0.91878187496E+02  0.91878187496E+02  0.00000000000E+00 0.  1.
         21   -1    0    0  501  502 -0.00000000000E+00 -0.00000000000E+00 -0.55739692632E+03  0.55739692632E+03  0.00000000000E+00 0.  1.
      99926    2    1    2    0    0  0.00000000000E+00  0.00000000000E+00 -0.46551873883E+03  0.64927511382E+03  0.45260410651E+03 0.  0.
      99925    2    3    3    0    0 -0.25076437603E+02  0.62795444959E+02 -0.16893035050E+03  0.32036133208E+03  0.26366991512E+03 0.  0.
         25    1    4    4    0    0 -0.29533863376E+01 -0.97511037509E+01 -0.86794584810E+02  0.15259297024E+03  0.12509000000E+03 0.  0.
         25    1    4    4    0    0 -0.22123051265E+02  0.72546548710E+02 -0.82135765694E+02  0.16776836184E+03  0.12509000000E+03 0.  0.
         25    1    3    3    0    0  0.25076437603E+02 -0.62795444959E+02 -0.29658838832E+03  0.32891378174E+03  0.12509000000E+03 0.  0.
<mgrwt>
<rscale>  2 0.45260411E+03</rscale>
<asrwt>0</asrwt>
<pdfrwt beam="1">  1       21 0.13511498E-01 0.45260411E+03</pdfrwt>
<pdfrwt beam="2">  1       21 0.81970135E-01 0.45260411E+03</pdfrwt>
<totfact> 0.56809444E+04</totfact>
</mgrwt>
</event>
<event>
 7    0  0.4759581E-002  0.4670419E+03  0.7546771E-02  0.1022758E+00
         21   -1    0    0  502  501  0.00000000000E+00  0.00000000000E+00  0.54292328333E+03  0.54292328333E+03  0.00000000000E+00 0.  1.
         21   -1    0    0  501  502 -0.00000000000E+00 -0.00000000000E+00 -0.10044149238E+03  0.10044149238E+03  0.00000000000E+00 0.  1.
      99926    2    1    2    0    0  0.00000000000E+00  0.00000000000E+00  0.44248179095E+03  0.64336477571E+03  0.46704186034E+03 0.  0.
      99925    2    3    3    0    0 -0.11235222460E+03 -0.33319952572E+02  0.21947131466E+03  0.36209191487E+03  0.26307727998E+03 0.  0.
         25    1    3    3    0    0  0.11235222460E+03  0.33319952572E+02  0.22301047628E+03  0.28127286084E+03  0.12509000000E+03 0.  0.
         25    1    4    4    0    0 -0.47682379044E+02  0.21114452083E+01  0.15019285150E+03  0.20120504023E+03  0.12509000000E+03 0.  0.
         25    1    4    4    0    0 -0.64669845560E+02 -0.35431397781E+02  0.69278463160E+02  0.16088687464E+03  0.12509000000E+03 0.  0.
<mgrwt>
<rscale>  2 0.46704186E+03</rscale>
<asrwt>0</asrwt>
<pdfrwt beam="1">  1       21 0.79841658E-01 0.46704186E+03</pdfrwt>
<pdfrwt beam="2">  1       21 0.14770808E-01 0.46704186E+03</pdfrwt>
<totfact> 0.51057717E+04</totfact>
</mgrwt>
</event>
<event>
 7    0  0.4759581E-002  0.4404339E+03  0.7546771E-02  0.1030614E+00
         21   -1    0    0  502  501  0.00000000000E+00  0.00000000000E+00  0.14225388226E+03  0.14225388226E+03  0.00000000000E+00 0. -1.
         21   -1    0    0  501  502 -0.00000000000E+00 -0.00000000000E+00 -0.34090807672E+03  0.34090807672E+03  0.00000000000E+00 0. -1.
      99926    2    1    2    0    0  0.00000000000E+00  0.00000000000E+00 -0.19865419447E+03  0.48316195898E+03  0.44043386522E+03 0.  0.
      99925    2    3    3    0    0  0.42958194838E+02  0.73276282563E+02 -0.71100379058E+02  0.28534309230E+03  0.26296500971E+03 0.  0.
         25    1    3    3    0    0 -0.42958194838E+02 -0.73276282563E+02 -0.12755381541E+03  0.19781886668E+03  0.12509000000E+03 0.  0.
         25    1    4    4    0    0  0.45349113361E+02  0.12375751300E+02 -0.57685827517E+02  0.14555021161E+03  0.12509000000E+03 0.  0.
         25    1    4    4    0    0 -0.23909185229E+01  0.60900531263E+02 -0.13414551541E+02  0.13979288069E+03  0.12509000000E+03 0.  0.
<mgrwt>
<rscale>  2 0.44043387E+03</rscale>
<asrwt>0</asrwt>
<pdfrwt beam="1">  1       21 0.20919689E-01 0.44043387E+03</pdfrwt>
<pdfrwt beam="2">  1       21 0.50133539E-01 0.44043387E+03</pdfrwt>
<totfact> 0.74747215E+04</totfact>
</mgrwt>
</event>
<event>
 7    0  0.4759581E-002  0.4565168E+03  0.7546771E-02  0.1025796E+00
         21   -1    0    0  502  501  0.00000000000E+00  0.00000000000E+00  0.22702483251E+02  0.22702483251E+02  0.00000000000E+00 0. -1.
         21   -1    0    0  501  502 -0.00000000000E+00 -0.00000000000E+00 -0.22949867031E+04  0.22949867031E+04  0.00000000000E+00 0. -1.
      99926    2    1    2    0    0  0.00000000000E+00  0.88817841970E-15 -0.22722842198E+04  0.23176891863E+04  0.45651680008E+03 0.  0.
      99925    2    3    3    0    0  0.92146648280E+02  0.12745976757E+01 -0.17733296282E+04  0.17951034785E+04  0.26307014083E+03 0.  0.
         25    1    4    4    0    0  0.12952543063E+02 -0.82975259161E+01 -0.65927592680E+03  0.67121447621E+03  0.12509000000E+03 0.  0.
         25    1    3    3    0    0 -0.92146648280E+02 -0.12745976757E+01 -0.49895459163E+03  0.52258570780E+03  0.12509000000E+03 0.  0.
         25    1    4    4    0    0  0.79194105217E+02  0.95721235918E+01 -0.11140537014E+04  0.11238890023E+04  0.12509000000E+03 0.  0.
<mgrwt>
<rscale>  2 0.45651680E+03</rscale>
<asrwt>0</asrwt>
<pdfrwt beam="1">  1       21 0.33386025E-02 0.45651680E+03</pdfrwt>
<pdfrwt beam="2">  1       21 0.33749784E+00 0.45651680E+03</pdfrwt>
<totfact> 0.90745074E+03</totfact>
</mgrwt>
</event>
<event>
 7    0  0.4759581E-002  0.4527122E+03  0.7546771E-02  0.1026916E+00
         21   -1    0    0  502  501  0.00000000000E+00  0.00000000000E+00  0.37141642059E+02  0.37141642059E+02  0.00000000000E+00 0.  1.
         21   -1    0    0  501  502 -0.00000000000E+00 -0.00000000000E+00 -0.13795048684E+04  0.13795048684E+04  0.00000000000E+00 0.  1.
      99926    2    1    2    0    0 -0.71054273576E-14  0.81185058676E-15 -0.13423632264E+04  0.14166465105E+04  0.45271216481E+03 0.  0.
      99925    2    3    3    0    0  0.37817593312E+02  0.32475970648E-01 -0.52002981249E+03  0.58399416821E+03  0.26303614049E+03 0.  0.
         25    1    3    3    0    0 -0.37817593312E+02 -0.32475970648E-01 -0.82233341389E+03  0.83265234228E+03  0.12509000000E+03 0.  0.
         25    1    4    4    0    0 -0.70100592847E+01 -0.12699475807E+02 -0.18949524424E+03  0.22752224794E+03  0.12509000000E+03 0.  0.
         25    1    4    4    0    0  0.44827652597E+02  0.12731951778E+02 -0.33053456825E+03  0.35647192027E+03  0.12509000000E+03 0.  0.
<mgrwt>
<rscale>  2 0.45271216E+03</rscale>
<asrwt>0</asrwt>
<pdfrwt beam="1">  1       21 0.54620053E-02 0.45271216E+03</pdfrwt>
<pdfrwt beam="2">  1       21 0.20286840E+00 0.45271216E+03</pdfrwt>
<totfact> 0.26357236E+04</totfact>
</mgrwt>
</event>
<event>
 7    0  0.4759581E-002  0.4574032E+03  0.7546771E-02  0.1025537E+00
         21   -1    0    0  502  501  0.00000000000E+00  0.00000000000E+00  0.67636720942E+03  0.67636720942E+03  0.00000000000E+00 0. -1.
         21   -1    0    0  501  502 -0.00000000000E+00 -0.00000000000E+00 -0.77331405549E+02  0.77331405549E+02  0.00000000000E+00 0. -1.
      99926    2    1    2    0    0  0.00000000000E+00 -0.22204460493E-15  0.59903580387E+03  0.75369861497E+03  0.45740322243E+03 0.  0.
      99925    2    3    3    0    0 -0.36577898731E+02 -0.10103879259E+01  0.19588260819E+03  0.33000182380E+03  0.26304418633E+03 0.  0.
         25    1    3    3    0    0  0.36577898731E+02  0.10103879259E+01  0.40315319568E+03  0.42369679117E+03  0.12509000000E+03 0.  0.
         25    1    4    4    0    0  0.21547061229E+02  0.37303296140E+01  0.83051086391E+02  0.15173391927E+03  0.12509000000E+03 0.  0.
         25    1    4    4    0    0 -0.58124959960E+02 -0.47407175399E+01  0.11283152180E+03  0.17826790453E+03  0.12509000000E+03 0.  0.
<mgrwt>
<rscale>  2 0.45740322E+03</rscale>
<asrwt>0</asrwt>
<pdfrwt beam="1">  1       21 0.99465763E-01 0.45740322E+03</pdfrwt>
<pdfrwt beam="2">  1       21 0.11372266E-01 0.45740322E+03</pdfrwt>
<totfact> 0.49147754E+04</totfact>
</mgrwt>
</event>
<event>
 7    0  0.4759581E-002  0.4276166E+03  0.7546771E-02  0.1034616E+00
         21   -1    0    0  502  501  0.00000000000E+00  0.00000000000E+00  0.76170286981E+03  0.76170286981E+03  0.00000000000E+00 0. -1.
         21   -1    0    0  501  502 -0.00000000000E+00 -0.00000000000E+00 -0.60015526063E+02  0.60015526063E+02  0.00000000000E+00 0. -1.
      99926    2    1    2    0    0  0.00000000000E+00  0.00000000000E+00  0.70168734374E+03  0.82171839587E+03  0.42761664343E+03 0.  0.
      99925    2    3    3    0    0 -0.34833779578E+02 -0.16686156375E+02  0.30740337171E+03  0.40626782273E+03  0.26280199930E+03 0.  0.
         25    1    3    3    0    0  0.34833779578E+02  0.16686156375E+02  0.39428397204E+03  0.41545057314E+03  0.12509000000E+03 0.  0.
         25    1    4    4    0    0  0.19180442360E+02 -0.12572519187E+02  0.17413999406E+03  0.21563442035E+03  0.12509000000E+03 0.  0.
         25    1    4    4    0    0 -0.54014221939E+02 -0.41136371881E+01  0.13326337765E+03  0.19063340238E+03  0.12509000000E+03 0.  0.
<mgrwt>
<rscale>  2 0.42761664E+03</rscale>
<asrwt>0</asrwt>
<pdfrwt beam="1">  1       21 0.11201512E+00 0.42761664E+03</pdfrwt>
<pdfrwt beam="2">  1       21 0.88258131E-02 0.42761664E+03</pdfrwt>
<totfact> 0.58281096E+04</totfact>
</mgrwt>
</event>
<event>
 7    0  0.4759581E-002  0.4482193E+03  0.7546771E-02  0.1028254E+00
         21   -1    0    0  502  501  0.00000000000E+00  0.00000000000E+00  0.89823291372E+03  0.89823291372E+03  0.00000000000E+00 0.  1.
         21   -1    0    0  501  502 -0.00000000000E+00 -0.00000000000E+00 -0.55915486061E+02  0.55915486061E+02  0.00000000000E+00 0.  1.
      99926    2    1    2    0    0 -0.13322676296E-14  0.14210854715E-13  0.84231742766E+03  0.95414839978E+03  0.44821927655E+03 0.  0.
      99925    2    3    3    0    0  0.21516950100E+01 -0.98322091508E+02  0.62156659253E+03  0.68202654696E+03  0.26295117103E+03 0.  0.
         25    1    4    4    0    0 -0.15742445789E+02 -0.81780457288E+02  0.28606159136E+03  0.32313249596E+03  0.12509000000E+03 0.  0.
         25    1    4    4    0    0  0.17894140799E+02 -0.16541634220E+02  0.33550500117E+03  0.35889405100E+03  0.12509000000E+03 0.  0.
         25    1    3    3    0    0 -0.21516950100E+01  0.98322091508E+02  0.22075083513E+03  0.27212185282E+03  0.12509000000E+03 0.  0.
<mgrwt>
<rscale>  2 0.44821928E+03</rscale>
<asrwt>0</asrwt>
<pdfrwt beam="1">  1       21 0.13209307E+00 0.44821928E+03</pdfrwt>
<pdfrwt beam="2">  1       21 0.82228661E-02 0.44821928E+03</pdfrwt>
<totfact> 0.43219735E+04</totfact>
</mgrwt>
</event>
<event>
 7    0  0.4759581E-002  0.4539481E+03  0.7546771E-02  0.1026551E+00
         21   -1    0    0  502  501  0.00000000000E+00  0.00000000000E+00  0.11259497693E+03  0.11259497693E+03  0.00000000000E+00 0.  1.
         21   -1    0    0  501  502 -0.00000000000E+00 -0.00000000000E+00 -0.45754459804E+03  0.45754459804E+03  0.00000000000E+00 0.  1.
      99926    2    1    2    0    0  0.14210854715E-13  0.35527136788E-14 -0.34494962111E+03  0.57013957498E+03  0.45394811802E+03 0.  0.
      99925    2    3    3    0    0 -0.11166665087E+03 -0.11072950460E+02 -0.22022291719E+03  0.36086389574E+03  0.26293072633E+03 0.  0.
         25    1    3    3    0    0  0.11166665087E+03  0.11072950460E+02 -0.12472670392E+03  0.20927567924E+03  0.12509000000E+03 0.  0.
         25    1    4    4    0    0 -0.86140534330E+02 -0.28307137011E+02 -0.95946163590E+02  0.18186440022E+03  0.12509000000E+03 0.  0.
         25    1    4    4    0    0 -0.25526116538E+02  0.17234186550E+02 -0.12427675360E+03  0.17899949552E+03  0.12509000000E+03 0.  0.
<mgrwt>
<rscale>  2 0.45394812E+03</rscale>
<asrwt>0</asrwt>
<pdfrwt beam="1">  1       21 0.16558085E-01 0.45394812E+03</pdfrwt>
<pdfrwt beam="2">  1       21 0.67285969E-01 0.45394812E+03</pdfrwt>
<totfact> 0.61061290E+04</totfact>
</mgrwt>
</event>
<event>
 7    0  0.4759581E-002  0.4510510E+03  0.7546771E-02  0.1027409E+00
         21   -1    0    0  502  501  0.00000000000E+00  0.00000000000E+00  0.75399141057E+02  0.75399141057E+02  0.00000000000E+00 0. -1.
         21   -1    0    0  501  502 -0.00000000000E+00 -0.00000000000E+00 -0.67456681941E+03  0.67456681941E+03  0.00000000000E+00 0. -1.
      99926    2    1    2    0    0  0.22204460493E-14  0.00000000000E+00 -0.59916767836E+03  0.74996596047E+03  0.45105103378E+03 0.  0.
      99925    2    3    3    0    0  0.13983219639E+01  0.10142027404E+03 -0.44663822319E+03  0.52815349444E+03  0.26300643336E+03 0.  0.
         25    1    4    4    0    0  0.32879179299E+02  0.36896521057E+02 -0.17629043355E+03  0.22173907811E+03  0.12509000000E+03 0.  0.
         25    1    4    4    0    0 -0.31480857335E+02  0.64523752985E+02 -0.27034778964E+03  0.30641441634E+03  0.12509000000E+03 0.  0.
         25    1    3    3    0    0 -0.13983219639E+01 -0.10142027404E+03 -0.15252945517E+03  0.22181246603E+03  0.12509000000E+03 0.  0.
<mgrwt>
<rscale>  2 0.45105103E+03</rscale>
<asrwt>0</asrwt>
<pdfrwt beam="1">  1       21 0.11088108E-01 0.45105103E+03</pdfrwt>
<pdfrwt beam="2">  1       21 0.99201007E-01 0.45105103E+03</pdfrwt>
<totfact> 0.51863694E+04</totfact>
</mgrwt>
</event>
<event>
 7    0  0.4759581E-002  0.4538464E+03  0.7546771E-02  0.1026581E+00
         21   -1    0    0  502  501  0.00000000000E+00  0.00000000000E+00  0.17727598893E+03  0.17727598893E+03  0.00000000000E+00 0.  1.
         21   -1    0    0  501  502 -0.00000000000E+00 -0.00000000000E+00 -0.29047434848E+03  0.29047434848E+03  0.00000000000E+00 0.  1.
      99926    2    1    2    0    0 -0.71054273576E-14  0.35527136788E-14 -0.11319835955E+03  0.46775033741E+03  0.45384635014E+03 0.  0.
      99925    2    3    3    0    0  0.57392687421E+02 -0.12987053251E+02 -0.16936980565E+03  0.31853464259E+03  0.26327856606E+03 0.  0.
         25    1    4    4    0    0  0.60581561792E+02 -0.23410454236E+02 -0.64792646289E+02  0.15512501446E+03  0.12509000000E+03 0.  0.
         25    1    4    4    0    0 -0.31888743707E+01  0.10423400985E+02 -0.10457715936E+03  0.16340962814E+03  0.12509000000E+03 0.  0.
         25    1    3    3    0    0 -0.57392687421E+02  0.12987053251E+02  0.56171446101E+02  0.14921569481E+03  0.12509000000E+03 0.  0.
<mgrwt>
<rscale>  2 0.45384635E+03</rscale>
<asrwt>0</asrwt>
<pdfrwt beam="1">  1       21 0.26069998E-01 0.45384635E+03</pdfrwt>
<pdfrwt beam="2">  1       21 0.42716816E-01 0.45384635E+03</pdfrwt>
<totfact> 0.68225686E+04</totfact>
</mgrwt>
</event>
<event>
 7    0  0.4759581E-002  0.3895568E+03  0.7546771E-02  0.1047457E+00
         21   -1    0    0  502  501  0.00000000000E+00  0.00000000000E+00  0.35569708865E+03  0.35569708865E+03  0.00000000000E+00 0.  1.
         21   -1    0    0  501  502 -0.00000000000E+00 -0.00000000000E+00 -0.10665992978E+03  0.10665992978E+03  0.00000000000E+00 0.  1.
      99926    2    1    2    0    0 -0.11102230246E-15 -0.17763568394E-14  0.24903715887E+03  0.46235701843E+03  0.38955680714E+03 0.  0.
      99925    2    3    3    0    0  0.85518682249E+00  0.80179507260E+01  0.18423903948E+03  0.32124953013E+03  0.26304413709E+03 0.  0.
         25    1    3    3    0    0 -0.85518682249E+00 -0.80179507260E+01  0.64798119389E+02  0.14110748830E+03  0.12509000000E+03 0.  0.
         25    1    4    4    0    0  0.17606471908E+02 -0.25169534177E+02  0.11896109412E+03  0.17533608675E+03  0.12509000000E+03 0.  0.
         25    1    4    4    0    0 -0.16751285086E+02  0.33187484903E+02  0.65277945361E+02  0.14591344337E+03  0.12509000000E+03 0.  0.
<mgrwt>
<rscale>  2 0.38955681E+03</rscale>
<asrwt>0</asrwt>
<pdfrwt beam="1">  1       21 0.52308395E-01 0.38955681E+03</pdfrwt>
<pdfrwt beam="2">  1       21 0.15685284E-01 0.38955681E+03</pdfrwt>
<totfact> 0.11864417E+05</totfact>
</mgrwt>
</event>
<event>
 7    0  0.4759581E-002  0.4597454E+03  0.7546771E-02  0.1024855E+00
         21   -1    0    0  502  501  0.00000000000E+00  0.00000000000E+00  0.45393156177E+02  0.45393156177E+02  0.00000000000E+00 0. -1.
         21   -1    0    0  501  502 -0.00000000000E+00 -0.00000000000E+00 -0.11640843626E+04  0.11640843626E+04  0.00000000000E+00 0. -1.
      99926    2    1    2    0    0  0.00000000000E+00 -0.71054273576E-14 -0.11186912064E+04  0.12094775188E+04  0.45974542205E+03 0.  0.
      99925    2    3    3    0    0  0.10148194675E+03  0.46977940102E+02 -0.61539677751E+03  0.67895107962E+03  0.26411335137E+03 0.  0.
         25    1    4    4    0    0  0.35196993483E+02  0.60085751916E+02 -0.34312587727E+03  0.37179564506E+03  0.12509000000E+03 0.  0.
         25    1    4    4    0    0  0.66284953267E+02 -0.13107811814E+02 -0.27227090024E+03  0.30715543456E+03  0.12509000000E+03 0.  0.
         25    1    3    3    0    0 -0.10148194675E+03 -0.46977940102E+02 -0.50329442892E+03  0.53052643917E+03  0.12509000000E+03 0.  0.
<mgrwt>
<rscale>  2 0.45974542E+03</rscale>
<asrwt>0</asrwt>
<pdfrwt beam="1">  1       21 0.66754659E-02 0.45974542E+03</pdfrwt>
<pdfrwt beam="2">  1       21 0.17118883E+00 0.45974542E+03</pdfrwt>
<totfact> 0.30706209E+04</totfact>
</mgrwt>
</event>
<event>
 7    0  0.4759581E-002  0.4511308E+03  0.7546771E-02  0.1027385E+00
         21   -1    0    0  502  501  0.00000000000E+00  0.00000000000E+00  0.19499531154E+03  0.19499531154E+03  0.00000000000E+00 0.  1.
         21   -1    0    0  501  502 -0.00000000000E+00 -0.00000000000E+00 -0.26092804209E+03  0.26092804209E+03  0.00000000000E+00 0.  1.
      99926    2    1    2    0    0  0.00000000000E+00  0.00000000000E+00 -0.65932730555E+02  0.45592335363E+03  0.45113077863E+03 0.  0.
      99925    2    3    3    0    0  0.67979892181E+02  0.35397767598E+02  0.37402959202E+02  0.27647965614E+03  0.26299762587E+03 0.  0.
         25    1    3    3    0    0 -0.67979892181E+02 -0.35397767598E+02 -0.10333568976E+03  0.17944369749E+03  0.12509000000E+03 0.  0.
         25    1    4    4    0    0 -0.19952422773E+01 -0.20595803126E+01  0.75076964296E+01  0.12534790173E+03  0.12509000000E+03 0.  0.
         25    1    4    4    0    0  0.69975134458E+02  0.37457347911E+02  0.29895262772E+02  0.15113175441E+03  0.12509000000E+03 0.  0.
<mgrwt>
<rscale>  2 0.45113078E+03</rscale>
<asrwt>0</asrwt>
<pdfrwt beam="1">  1       21 0.28675781E-01 0.45113078E+03</pdfrwt>
<pdfrwt beam="2">  1       21 0.38371771E-01 0.45113078E+03</pdfrwt>
<totfact> 0.70633106E+04</totfact>
</mgrwt>
</event>
<event>
 7    0  0.4759581E-002  0.4515231E+03  0.7546771E-02  0.1027269E+00
         21   -1    0    0  502  501  0.00000000000E+00  0.00000000000E+00  0.72863572465E+02  0.72863572465E+02  0.00000000000E+00 0.  1.
         21   -1    0    0  501  502 -0.00000000000E+00 -0.00000000000E+00 -0.69950276801E+03  0.69950276801E+03  0.00000000000E+00 0.  1.
      99926    2    1    2    0    0  0.00000000000E+00 -0.71054273576E-14 -0.62663919555E+03  0.77236634048E+03  0.45152306974E+03 0.  0.
      99925    2    3    3    0    0  0.84606539965E+02  0.40801594374E+02 -0.29814078573E+03  0.40852331106E+03  0.26302154066E+03 0.  0.
         25    1    3    3    0    0 -0.84606539965E+02 -0.40801594374E+02 -0.32849840982E+03  0.36384302942E+03  0.12509000000E+03 0.  0.
         25    1    4    4    0    0  0.73369820352E+02  0.38384128040E+02 -0.19475790118E+03  0.24583453784E+03  0.12509000000E+03 0.  0.
         25    1    4    4    0    0  0.11236719613E+02  0.24174663339E+01 -0.10338288455E+03  0.16268877321E+03  0.12509000000E+03 0.  0.
<mgrwt>
<rscale>  2 0.45152307E+03</rscale>
<asrwt>0</asrwt>
<pdfrwt beam="1">  1       21 0.10715231E-01 0.45152307E+03</pdfrwt>
<pdfrwt beam="2">  1       21 0.10286806E+00 0.45152307E+03</pdfrwt>
<totfact> 0.50494588E+04</totfact>
</mgrwt>
</event>
<event>
 7    0  0.4759581E-002  0.4561513E+03  0.7546771E-02  0.1025903E+00
         21   -1    0    0  502  501  0.00000000000E+00  0.00000000000E+00  0.49587865668E+02  0.49587865668E+02  0.00000000000E+00 0. -1.
         21   -1    0    0  501  502 -0.00000000000E+00 -0.00000000000E+00 -0.10490167437E+04  0.10490167437E+04  0.00000000000E+00 0. -1.
      99926    2    1    2    0    0  0.00000000000E+00 -0.17763568394E-14 -0.99942887803E+03  0.10986046094E+04  0.45615129670E+03 0.  0.
      99925    2    3    3    0    0 -0.53882343829E+02  0.96376563187E+01 -0.38663029409E+03  0.47077835635E+03  0.26296974180E+03 0.  0.
         25    1    4    4    0    0 -0.48892460306E+02 -0.26709612685E+02 -0.22124840302E+03  0.26019654114E+03  0.12509000000E+03 0.  0.
         25    1    3    3    0    0  0.53882343829E+02 -0.96376563187E+01 -0.61279858395E+03  0.62782625302E+03  0.12509000000E+03 0.  0.
         25    1    4    4    0    0 -0.49898835229E+01  0.36347269004E+02 -0.16538189107E+03  0.21058181521E+03  0.12509000000E+03 0.  0.
<mgrwt>
<rscale>  2 0.45615130E+03</rscale>
<asrwt>0</asrwt>
<pdfrwt beam="1">  1       21 0.72923330E-02 0.45615130E+03</pdfrwt>
<pdfrwt beam="2">  1       21 0.15426717E+00 0.45615130E+03</pdfrwt>
<totfact> 0.35225230E+04</totfact>
</mgrwt>
</event>
<event>
 7    0  0.4759581E-002  0.4339489E+03  0.7546771E-02  0.1032620E+00
         21   -1    0    0  502  501  0.00000000000E+00  0.00000000000E+00  0.42807316281E+02  0.42807316281E+02  0.00000000000E+00 0.  1.
         21   -1    0    0  501  502 -0.00000000000E+00 -0.00000000000E+00 -0.10997632606E+04  0.10997632606E+04  0.00000000000E+00 0.  1.
      99926    2    1    2    0    0  0.00000000000E+00  0.00000000000E+00 -0.10569559443E+04  0.11425705769E+04  0.43394890819E+03 0.  0.
      99925    2    3    3    0    0 -0.98234752913E+01 -0.71487976879E+02 -0.82931018951E+03  0.87298361635E+03  0.26294100571E+03 0.  0.
         25    1    4    4    0    0 -0.10298222292E+02 -0.13256926320E+02 -0.28945777874E+03  0.31577699925E+03  0.12509000000E+03 0.  0.
         25    1    4    4    0    0  0.47474700112E+00 -0.58231050559E+02 -0.53985241077E+03  0.55720661711E+03  0.12509000000E+03 0.  0.
         25    1    3    3    0    0  0.98234752913E+01  0.71487976879E+02 -0.22764575481E+03  0.26958696053E+03  0.12509000000E+03 0.  0.
<mgrwt>
<rscale>  2 0.43394891E+03</rscale>
<asrwt>0</asrwt>
<pdfrwt beam="1">  1       21 0.62951934E-02 0.43394891E+03</pdfrwt>
<pdfrwt beam="2">  1       21 0.16172990E+00 0.43394891E+03</pdfrwt>
<totfact> 0.40239349E+04</totfact>
</mgrwt>
</event>
<event>
 7    0  0.4759581E-002  0.4390213E+03  0.7546771E-02  0.1031048E+00
         21   -1    0    0  502  501  0.00000000000E+00  0.00000000000E+00  0.20702680387E+03  0.20702680387E+03  0.00000000000E+00 0. -1.
         21   -1    0    0  501  502 -0.00000000000E+00 -0.00000000000E+00 -0.23274732467E+03  0.23274732467E+03  0.00000000000E+00 0. -1.
      99926    2    1    2    0    0  0.00000000000E+00  0.00000000000E+00 -0.25720520799E+02  0.43977412854E+03  0.43902134224E+03 0.  0.
      99925    2    3    3    0    0  0.80164350667E+02 -0.31682790693E+02 -0.61959455223E+02  0.28359829554E+03  0.26298079169E+03 0.  0.
         25    1    4    4    0    0  0.74366667472E+02 -0.18851891195E+01 -0.13909390989E+02  0.14620169092E+03  0.12509000000E+03 0.  0.
         25    1    4    4    0    0  0.57976831951E+01 -0.29797601574E+02 -0.48050064234E+02  0.13739660463E+03  0.12509000000E+03 0.  0.
         25    1    3    3    0    0 -0.80164350667E+02  0.31682790693E+02  0.36238934423E+02  0.15617583300E+03  0.12509000000E+03 0.  0.
<mgrwt>
<rscale>  2 0.43902134E+03</rscale>
<asrwt>0</asrwt>
<pdfrwt beam="1">  1       21 0.30445118E-01 0.43902134E+03</pdfrwt>
<pdfrwt beam="2">  1       21 0.34227548E-01 0.43902134E+03</pdfrwt>
<totfact> 0.79315856E+04</totfact>
</mgrwt>
</event>
<event>
 7    0  0.4759581E-002  0.4606267E+03  0.7546771E-02  0.1024600E+00
         21   -1    0    0  502  501  0.00000000000E+00  0.00000000000E+00  0.33074788891E+02  0.33074788891E+02  0.00000000000E+00 0.  1.
         21   -1    0    0  501  502 -0.00000000000E+00 -0.00000000000E+00 -0.16037665163E+04  0.16037665163E+04  0.00000000000E+00 0.  1.
      99926    2    1    2    0    0  0.44408920985E-15  0.14210854715E-13 -0.15706917274E+04  0.16368413052E+04  0.46062669900E+03 0.  0.
      99925    2    3    3    0    0  0.36614657746E+01  0.11525103623E+03 -0.88968178105E+03  0.93490237421E+03  0.26308281984E+03 0.  0.
         25    1    4    4    0    0 -0.12074299400E+02  0.88910177413E+02 -0.56529698794E+03  0.58588309501E+03  0.12509000000E+03 0.  0.
         25    1    3    3    0    0 -0.36614657746E+01 -0.11525103623E+03 -0.68100994636E+03  0.70193893098E+03  0.12509000000E+03 0.  0.
         25    1    4    4    0    0  0.15735765175E+02  0.26340858813E+02 -0.32438479311E+03  0.34901927920E+03  0.12509000000E+03 0.  0.
<mgrwt>
<rscale>  2 0.46062670E+03</rscale>
<asrwt>0</asrwt>
<pdfrwt beam="1">  1       21 0.48639402E-02 0.46062670E+03</pdfrwt>
<pdfrwt beam="2">  1       21 0.23584798E+00 0.46062670E+03</pdfrwt>
<totfact> 0.19733608E+04</totfact>
</mgrwt>
</event>
<event>
 7    0  0.4759581E-002  0.4549138E+03  0.7546771E-02  0.1026267E+00
         21   -1    0    0  502  501  0.00000000000E+00  0.00000000000E+00  0.32051723433E+03  0.32051723433E+03  0.00000000000E+00 0. -1.
         21   -1    0    0  501  502 -0.00000000000E+00 -0.00000000000E+00 -0.16141609160E+03  0.16141609160E+03  0.00000000000E+00 0. -1.
      99926    2    1    2    0    0  0.00000000000E+00  0.00000000000E+00  0.15910114273E+03  0.48193332593E+03  0.45491379075E+03 0.  0.
      99925    2    3    3    0    0  0.91688272214E+02  0.26612952301E+02  0.16430328682E+03  0.32448632248E+03  0.26302246087E+03 0.  0.
         25    1    4    4    0    0  0.76842161846E+02  0.41973566968E+02  0.96174435063E+02  0.18045367334E+03  0.12509000000E+03 0.  0.
         25    1    3    3    0    0 -0.91688272214E+02 -0.26612952301E+02 -0.52021440920E+01  0.15744700345E+03  0.12509000000E+03 0.  0.
         25    1    4    4    0    0  0.14846110368E+02 -0.15360614667E+02  0.68128851762E+02  0.14403264914E+03  0.12509000000E+03 0.  0.
<mgrwt>
<rscale>  2 0.45491379E+03</rscale>
<asrwt>0</asrwt>
<pdfrwt beam="1">  1       21 0.47134888E-01 0.45491379E+03</pdfrwt>
<pdfrwt beam="2">  1       21 0.23737660E-01 0.45491379E+03</pdfrwt>
<totfact> 0.66605204E+04</totfact>
</mgrwt>
</event>
<event>
 7    0  0.4759581E-002  0.4127683E+03  0.7546771E-02  0.1039446E+00
         21   -1    0    0  502  501  0.00000000000E+00  0.00000000000E+00  0.39676301871E+03  0.39676301871E+03  0.00000000000E+00 0.  1.
         21   -1    0    0  501  502 -0.00000000000E+00 -0.00000000000E+00 -0.10735481491E+03  0.10735481491E+03  0.00000000000E+00 0.  1.
      99926    2    1    2    0    0 -0.35527136788E-14  0.00000000000E+00  0.28940820381E+03  0.50411783362E+03  0.41276831485E+03 0.  0.
      99925    2    3    3    0    0 -0.13535185704E+02  0.64076602531E+02  0.20020453797E+03  0.33710342004E+03  0.26318785408E+03 0.  0.
         25    1    4    4    0    0 -0.46583079887E+02  0.42201256138E+02  0.10285937104E+03  0.17371956615E+03  0.12509000000E+03 0.  0.
         25    1    3    3    0    0  0.13535185704E+02 -0.64076602531E+02  0.89203665840E+02  0.16701441358E+03  0.12509000000E+03 0.  0.
         25    1    4    4    0    0  0.33047894184E+02  0.21875346393E+02  0.97345166928E+02  0.16338385390E+03  0.12509000000E+03 0.  0.
<mgrwt>
<rscale>  2 0.41276831E+03</rscale>
<asrwt>0</asrwt>
<pdfrwt beam="1">  1       21 0.58347502E-01 0.41276831E+03</pdfrwt>
<pdfrwt beam="2">  1       21 0.15787473E-01 0.41276831E+03</pdfrwt>
<totfact> 0.92185091E+04</totfact>
</mgrwt>
</event>
<event>
 7    0  0.4759581E-002  0.4598372E+03  0.7546771E-02  0.1024828E+00
         21   -1    0    0  502  501  0.00000000000E+00  0.00000000000E+00  0.37700142393E+03  0.37700142393E+03  0.00000000000E+00 0. -1.
         21   -1    0    0  501  502 -0.00000000000E+00 -0.00000000000E+00 -0.14021848924E+03  0.14021848924E+03  0.00000000000E+00 0. -1.
      99926    2    1    2    0    0  0.14210854715E-13  0.00000000000E+00  0.23678293468E+03  0.51721991317E+03  0.45983723253E+03 0.  0.
      99925    2    3    3    0    0 -0.64061879167E+02 -0.97711963901E+02  0.13400413088E+03  0.31756385175E+03  0.26313141316E+03 0.  0.
         25    1    3    3    0    0  0.64061879167E+02  0.97711963901E+02  0.10277880380E+03  0.19965606142E+03  0.12509000000E+03 0.  0.
         25    1    4    4    0    0 -0.68934397036E+02 -0.42915618925E+02  0.50677494563E+02  0.15751005681E+03  0.12509000000E+03 0.  0.
         25    1    4    4    0    0  0.48725178691E+01 -0.54796344976E+02  0.83326636317E+02  0.16005379493E+03  0.12509000000E+03 0.  0.
<mgrwt>
<rscale>  2 0.45983723E+03</rscale>
<asrwt>0</asrwt>
<pdfrwt beam="1">  1       21 0.55441386E-01 0.45983723E+03</pdfrwt>
<pdfrwt beam="2">  1       21 0.20620366E-01 0.45983723E+03</pdfrwt>
<totfact> 0.61675473E+04</totfact>
</mgrwt>
</event>
<event>
 7    0  0.4759581E-002  0.4509161E+03  0.7546771E-02  0.1027449E+00
         21   -1    0    0  502  501  0.00000000000E+00  0.00000000000E+00  0.43098000066E+02  0.43098000066E+02  0.00000000000E+00 0. -1.
         21   -1    0    0  501  502 -0.00000000000E+00 -0.00000000000E+00 -0.11794362483E+04  0.11794362483E+04  0.00000000000E+00 0. -1.
      99926    2    1    2    0    0  0.00000000000E+00  0.00000000000E+00 -0.11363382482E+04  0.12225342484E+04  0.45091614966E+03 0.  0.
      99925    2    3    3    0    0  0.13377327269E+02 -0.64094661013E+02 -0.48064019640E+03  0.55180738762E+03  0.26303862107E+03 0.  0.
         25    1    3    3    0    0 -0.13377327269E+02  0.64094661013E+02 -0.65569805182E+03  0.67072686074E+03  0.12509000000E+03 0.  0.
         25    1    4    4    0    0 -0.30432203662E+01 -0.28515613012E+02 -0.31798757848E+03  0.34290816488E+03  0.12509000000E+03 0.  0.
         25    1    4    4    0    0  0.16420547635E+02 -0.35579048001E+02 -0.16265261792E+03  0.20889922273E+03  0.12509000000E+03 0.  0.
<mgrwt>
<rscale>  2 0.45091615E+03</rscale>
<asrwt>0</asrwt>
<pdfrwt beam="1">  1       21 0.63379410E-02 0.45091615E+03</pdfrwt>
<pdfrwt beam="2">  1       21 0.17344651E+00 0.45091615E+03</pdfrwt>
<totfact> 0.32470263E+04</totfact>
</mgrwt>
</event>
<event>
 7    0  0.4759581E-002  0.4504828E+03  0.7546771E-02  0.1027578E+00
         21   -1    0    0  502  501  0.00000000000E+00  0.00000000000E+00  0.20036712513E+03  0.20036712513E+03  0.00000000000E+00 0.  1.
         21   -1    0    0  501  502 -0.00000000000E+00 -0.00000000000E+00 -0.25320369245E+03  0.25320369245E+03  0.00000000000E+00 0.  1.
      99926    2    1    2    0    0  0.00000000000E+00  0.00000000000E+00 -0.52836567324E+02  0.45357081758E+03  0.45048283399E+03 0.  0.
      99925    2    3    3    0    0 -0.81536619009E+02 -0.59933738675E+02 -0.74011947066E+02  0.29128656672E+03  0.26292550727E+03 0.  0.
         25    1    4    4    0    0 -0.54881777585E+02  0.70259401080E+01 -0.45352326196E+02  0.14410313993E+03  0.12509000000E+03 0.  0.
         25    1    3    3    0    0  0.81536619009E+02  0.59933738675E+02  0.21175379742E+02  0.16228425086E+03  0.12509000000E+03 0.  0.
         25    1    4    4    0    0 -0.26654841423E+02 -0.66959678783E+02 -0.28659620870E+02  0.14718342679E+03  0.12509000000E+03 0.  0.
<mgrwt>
<rscale>  2 0.45048283E+03</rscale>
<asrwt>0</asrwt>
<pdfrwt beam="1">  1       21 0.29465754E-01 0.45048283E+03</pdfrwt>
<pdfrwt beam="2">  1       21 0.37235837E-01 0.45048283E+03</pdfrwt>
<totfact> 0.71181504E+04</totfact>
</mgrwt>
</event>
<event>
 7    0  0.4759581E-002  0.4528579E+03  0.7546771E-02  0.1026873E+00
         21   -1    0    0  502  501  0.00000000000E+00  0.00000000000E+00  0.14443298093E+03  0.14443298093E+03  0.00000000000E+00 0. -1.
         21   -1    0    0  501  502 -0.00000000000E+00 -0.00000000000E+00 -0.35497479350E+03  0.35497479350E+03  0.00000000000E+00 0. -1.
      99926    2    1    2    0    0  0.00000000000E+00  0.00000000000E+00 -0.21054181257E+03  0.49940777442E+03  0.45285789197E+03 0.  0.
      99925    2    3    3    0    0 -0.18953015142E+02  0.36991143665E+01 -0.12057029308E+02  0.26400043062E+03  0.26301702451E+03 0.  0.
         25    1    4    4    0    0  0.80612847886E+00  0.11200829369E+02 -0.44174155483E+02  0.13313516641E+03  0.12509000000E+03 0.  0.
         25    1    3    3    0    0  0.18953015142E+02 -0.36991143665E+01 -0.19848478326E+03  0.23540734380E+03  0.12509000000E+03 0.  0.
         25    1    4    4    0    0 -0.19759143621E+02 -0.75017150021E+01  0.32117126175E+02  0.13086526422E+03  0.12509000000E+03 0.  0.
<mgrwt>
<rscale>  2 0.45285789E+03</rscale>
<asrwt>0</asrwt>
<pdfrwt beam="1">  1       21 0.21240144E-01 0.45285789E+03</pdfrwt>
<pdfrwt beam="2">  1       21 0.52202175E-01 0.45285789E+03</pdfrwt>
<totfact> 0.66434776E+04</totfact>
</mgrwt>
</event>
<event>
 7    0  0.4759581E-002  0.4511801E+03  0.7546771E-02  0.1027371E+00
         21   -1    0    0  502  501  0.00000000000E+00  0.00000000000E+00  0.90770609144E+03  0.90770609144E+03  0.00000000000E+00 0. -1.
         21   -1    0    0  501  502 -0.00000000000E+00 -0.00000000000E+00 -0.56065373995E+02  0.56065373995E+02  0.00000000000E+00 0. -1.
      99926    2    1    2    0    0  0.00000000000E+00 -0.71054273576E-14  0.85164071745E+03  0.96377146544E+03  0.45118014803E+03 0.  0.
      99925    2    3    3    0    0 -0.17142382336E+02  0.49871978975E+02  0.74284884167E+03  0.78980521614E+03  0.26303384254E+03 0.  0.
         25    1    4    4    0    0 -0.33371167971E+01  0.45648918280E+02  0.27895667503E+03  0.30912666454E+03  0.12509000000E+03 0.  0.
         25    1    4    4    0    0 -0.13805265539E+02  0.42230606948E+01  0.46389216664E+03  0.48067855160E+03  0.12509000000E+03 0.  0.
         25    1    3    3    0    0  0.17142382336E+02 -0.49871978975E+02  0.10879187578E+03  0.17396624930E+03  0.12509000000E+03 0.  0.
<mgrwt>
<rscale>  2 0.45118015E+03</rscale>
<asrwt>0</asrwt>
<pdfrwt beam="1">  1       21 0.13348618E+00 0.45118015E+03</pdfrwt>
<pdfrwt beam="2">  1       21 0.82449085E-02 0.45118015E+03</pdfrwt>
<totfact> 0.41823339E+04</totfact>
</mgrwt>
</event>
<event>
 7    0  0.4759581E-002  0.4603045E+03  0.7546771E-02  0.1024693E+00
         21   -1    0    0  502  501  0.00000000000E+00  0.00000000000E+00  0.62728560303E+03  0.62728560303E+03  0.00000000000E+00 0. -1.
         21   -1    0    0  501  502 -0.00000000000E+00 -0.00000000000E+00 -0.84443276802E+02  0.84443276802E+02  0.00000000000E+00 0. -1.
      99926    2    1    2    0    0  0.00000000000E+00  0.00000000000E+00  0.54284232623E+03  0.71172887984E+03  0.46030447233E+03 0.  0.
      99925    2    3    3    0    0 -0.20552804688E+02 -0.28693838235E+02  0.16582063818E+03  0.31293242111E+03  0.26302939380E+03 0.  0.
         25    1    4    4    0    0 -0.43209929639E+02  0.92452275861E+01  0.79702325880E+02  0.15476608512E+03  0.12509000000E+03 0.  0.
         25    1    3    3    0    0  0.20552804688E+02  0.28693838235E+02  0.37702168805E+03  0.39879645873E+03  0.12509000000E+03 0.  0.
         25    1    4    4    0    0  0.22657124950E+02 -0.37939065821E+02  0.86118312298E+02  0.15816633599E+03  0.12509000000E+03 0.  0.
<mgrwt>
<rscale>  2 0.46030447E+03</rscale>
<asrwt>0</asrwt>
<pdfrwt beam="1">  1       21 0.92247880E-01 0.46030447E+03</pdfrwt>
<pdfrwt beam="2">  1       21 0.12418129E-01 0.46030447E+03</pdfrwt>
<totfact> 0.50145116E+04</totfact>
</mgrwt>
</event>
<event>
 6    0  0.4759581E-002  0.4719809E+03  0.7546771E-02  0.1021363E+00
         21   -1    0    0  502  501  0.00000000000E+00  0.00000000000E+00  0.10211349217E+03  0.10211349217E+03  0.00000000000E+00 0. -1.
         21   -1    0    0  501  502 -0.00000000000E+00 -0.00000000000E+00 -0.54538809302E+03  0.54538809302E+03  0.00000000000E+00 0. -1.
      99926    2    1    2    0    0  0.00000000000E+00  0.00000000000E+00 -0.44327460085E+03  0.64750158519E+03  0.47198085880E+03 0.  0.
         25    1    3    3    0    0  0.65398712046E+02  0.13714757253E+02 -0.17894245260E+03  0.22832651083E+03  0.12509000000E+03 0.  0.
         25    1    3    3    0    0 -0.72312008335E+02 -0.37100835072E+02 -0.29608451231E+02  0.15208440747E+03  0.12509000000E+03 0.  0.
         25    1    3    3    0    0  0.69132962891E+01  0.23386077819E+02 -0.23472369701E+03  0.26709066689E+03  0.12509000000E+03 0.  0.
<mgrwt>
<rscale>  2 0.47198086E+03</rscale>
<asrwt>0</asrwt>
<pdfrwt beam="1">  1       21 0.15016690E-01 0.47198086E+03</pdfrwt>
<pdfrwt beam="2">  1       21 0.80204132E-01 0.47198086E+03</pdfrwt>
<totfact> 0.48949631E+04</totfact>
</mgrwt>
</event>
<event>
 7    0  0.4759581E-002  0.4563243E+03  0.7546771E-02  0.1025853E+00
         21   -1    0    0  502  501  0.00000000000E+00  0.00000000000E+00  0.12451820282E+04  0.12451820282E+04  0.00000000000E+00 0.  1.
         21   -1    0    0  501  502 -0.00000000000E+00 -0.00000000000E+00 -0.41807508539E+02  0.41807508539E+02  0.00000000000E+00 0.  1.
      99926    2    1    2    0    0  0.00000000000E+00 -0.71054273576E-14  0.12033745197E+04  0.12869895368E+04  0.45632426313E+03 0.  0.
      99925    2    3    3    0    0  0.21877518467E+02 -0.42568109678E+02  0.46344762818E+03  0.53503875204E+03  0.26304389813E+03 0.  0.
         25    1    3    3    0    0 -0.21877518467E+02  0.42568109678E+02  0.73992689153E+03  0.75195078475E+03  0.12509000000E+03 0.  0.
         25    1    4    4    0    0  0.48327009488E+01 -0.41009480076E+02  0.16608603932E+03  0.21198399235E+03  0.12509000000E+03 0.  0.
         25    1    4    4    0    0  0.17044817518E+02 -0.15586296014E+01  0.29736158886E+03  0.32305475969E+03  0.12509000000E+03 0.  0.
<mgrwt>
<rscale>  2 0.45632426E+03</rscale>
<asrwt>0</asrwt>
<pdfrwt beam="1">  1       21 0.18311498E+00 0.45632426E+03</pdfrwt>
<pdfrwt beam="2">  1       21 0.61481638E-02 0.45632426E+03</pdfrwt>
<totfact> 0.29193070E+04</totfact>
</mgrwt>
</event>
<event>
 7    0  0.4759581E-002  0.4525173E+03  0.7546771E-02  0.1026974E+00
         21   -1    0    0  502  501  0.00000000000E+00  0.00000000000E+00  0.55702657140E+03  0.55702657140E+03  0.00000000000E+00 0. -1.
         21   -1    0    0  501  502 -0.00000000000E+00 -0.00000000000E+00 -0.91904005103E+02  0.91904005103E+02  0.00000000000E+00 0. -1.
      99926    2    1    2    0    0  0.00000000000E+00  0.35527136788E-14  0.46512256630E+03  0.64893057651E+03  0.45251728303E+03 0.  0.
      99925    2    3    3    0    0 -0.43432900596E+02  0.12106557409E+02  0.14815749718E+03  0.30520488831E+03  0.26299504613E+03 0.  0.
         25    1    4    4    0    0 -0.26142710628E+02 -0.31270004701E+02  0.56100873188E+02  0.14302472019E+03  0.12509000000E+03 0.  0.
         25    1    3    3    0    0  0.43432900596E+02 -0.12106557409E+02  0.31696506912E+03  0.34372568820E+03  0.12509000000E+03 0.  0.
         25    1    4    4    0    0 -0.17290189968E+02  0.43376562110E+02  0.92056623996E+02  0.16218016812E+03  0.12509000000E+03 0.  0.
<mgrwt>
<rscale>  2 0.45251728E+03</rscale>
<asrwt>0</asrwt>
<pdfrwt beam="1">  1       21 0.81915671E-01 0.45251728E+03</pdfrwt>
<pdfrwt beam="2">  1       21 0.13515295E-01 0.45251728E+03</pdfrwt>
<totfact> 0.56868835E+04</totfact>
</mgrwt>
</event>
<event>
 7    0  0.4759581E-002  0.5134682E+03  0.7546771E-02  0.1010322E+00
         21   -1    0    0  502  501  0.00000000000E+00  0.00000000000E+00  0.22925689150E+04  0.22925689150E+04  0.00000000000E+00 0. -1.
         21   -1    0    0  501  502 -0.00000000000E+00 -0.00000000000E+00 -0.28750452971E+02  0.28750452971E+02  0.00000000000E+00 0. -1.
      99926    2    1    2    0    0  0.71054273576E-14 -0.14210854715E-13  0.22638184621E+04  0.23213193680E+04  0.51346818704E+03 0.  0.
      99925    2    3    3    0    0 -0.54379208752E+02  0.11385192357E+03  0.90285440717E+03  0.94880706363E+03  0.26300076922E+03 0.  0.
         25    1    4    4    0    0 -0.63510910476E+02  0.76055010865E+02  0.45404461029E+03  0.48127125061E+03  0.12509000000E+03 0.  0.
         25    1    3    3    0    0  0.54379208752E+02 -0.11385192357E+03  0.13609640549E+04  0.13725123044E+04  0.12509000000E+03 0.  0.
         25    1    4    4    0    0  0.91317017240E+01  0.37796912701E+02  0.44880979688E+03  0.46753581302E+03  0.12509000000E+03 0.  0.
<mgrwt>
<rscale>  2 0.51346819E+03</rscale>
<asrwt>0</asrwt>
<pdfrwt beam="1">  1       21 0.33714236E+00 0.51346819E+03</pdfrwt>
<pdfrwt beam="2">  1       21 0.42280094E-02 0.51346819E+03</pdfrwt>
<totfact> 0.59470563E+03</totfact>
</mgrwt>
</event>
<event>
 7    0  0.4759581E-002  0.4569130E+03  0.7546771E-02  0.1025680E+00
         21   -1    0    0  502  501  0.00000000000E+00  0.00000000000E+00  0.79551410100E+02  0.79551410100E+02  0.00000000000E+00 0. -1.
         21   -1    0    0  501  502 -0.00000000000E+00 -0.00000000000E+00 -0.65608345703E+03  0.65608345703E+03  0.00000000000E+00 0. -1.
      99926    2    1    2    0    0  0.00000000000E+00 -0.14210854715E-13 -0.57653204693E+03  0.73563486713E+03  0.45691296392E+03 0.  0.
      99925    2    3    3    0    0 -0.78757134038E+02 -0.83220527596E+02 -0.37686383994E+03  0.47363631110E+03  0.26301456038E+03 0.  0.
         25    1    4    4    0    0 -0.41023798882E+02 -0.29300220097E+01 -0.20109800535E+03  0.24037356960E+03  0.12509000000E+03 0.  0.
         25    1    4    4    0    0 -0.37733335156E+02 -0.80290505586E+02 -0.17576583458E+03  0.23326274151E+03  0.12509000000E+03 0.  0.
         25    1    3    3    0    0  0.78757134038E+02  0.83220527596E+02 -0.19966820700E+03  0.26199855603E+03  0.12509000000E+03 0.  0.
<mgrwt>
<rscale>  2 0.45691296E+03</rscale>
<asrwt>0</asrwt>
<pdfrwt beam="1">  1       21 0.11698737E-01 0.45691296E+03</pdfrwt>
<pdfrwt beam="2">  1       21 0.96482863E-01 0.45691296E+03</pdfrwt>
<totfact> 0.50250502E+04</totfact>
</mgrwt>
</event>
<event>
 7    0  0.4759581E-002  0.4322351E+03  0.7546771E-02  0.1033156E+00
         21   -1    0    0  502  501  0.00000000000E+00  0.00000000000E+00  0.13436243660E+03  0.13436243660E+03  0.00000000000E+00 0.  1.
         21   -1    0    0  501  502 -0.00000000000E+00 -0.00000000000E+00 -0.34761800591E+03  0.34761800591E+03  0.00000000000E+00 0.  1.
      99926    2    1    2    0    0  0.00000000000E+00  0.71054273576E-14 -0.21325556930E+03  0.48198044251E+03  0.43223513175E+03 0.  0.
      99925    2    3    3    0    0 -0.53411098057E+02 -0.51487503096E+02 -0.19439112857E+03  0.33532750665E+03  0.26296942309E+03 0.  0.
         25    1    4    4    0    0 -0.19299846740E+02  0.10301576112E+02 -0.11444051737E+03  0.17094661936E+03  0.12509000000E+03 0.  0.
         25    1    4    4    0    0 -0.34111251317E+02 -0.61789079208E+02 -0.79950611196E+02  0.16438088729E+03  0.12509000000E+03 0.  0.
         25    1    3    3    0    0  0.53411098057E+02  0.51487503096E+02 -0.18864440732E+02  0.14665293585E+03  0.12509000000E+03 0.  0.
<mgrwt>
<rscale>  2 0.43223513E+03</rscale>
<asrwt>0</asrwt>
<pdfrwt beam="1">  1       21 0.19759182E-01 0.43223513E+03</pdfrwt>
<pdfrwt beam="2">  1       21 0.51120294E-01 0.43223513E+03</pdfrwt>
<totfact> 0.80078187E+04</totfact>
</mgrwt>
</event>
<event>
 7    0  0.4759581E-002  0.4549357E+03  0.7546771E-02  0.1026260E+00
         21   -1    0    0  502  501  0.00000000000E+00  0.00000000000E+00  0.15781878260E+03  0.15781878260E+03  0.00000000000E+00 0. -1.
         21   -1    0    0  501  502 -0.00000000000E+00 -0.00000000000E+00 -0.32785459952E+03  0.32785459952E+03  0.00000000000E+00 0. -1.
      99926    2    1    2    0    0  0.00000000000E+00  0.00000000000E+00 -0.17003581692E+03  0.48567338212E+03  0.45493566036E+03 0.  0.
      99925    2    3    3    0    0  0.73942251434E+02 -0.75867178424E+02 -0.64701885899E+02  0.29082464481E+03  0.26300067430E+03 0.  0.
         25    1    3    3    0    0 -0.73942251434E+02  0.75867178424E+02 -0.10533393102E+03  0.19484873731E+03  0.12509000000E+03 0.  0.
         25    1    4    4    0    0  0.69679763518E+02 -0.16256289779E+02 -0.22093551998E+02  0.14579152767E+03  0.12509000000E+03 0.  0.
         25    1    4    4    0    0  0.42624879161E+01 -0.59610888645E+02 -0.42608333900E+02  0.14503311714E+03  0.12509000000E+03 0.  0.
<mgrwt>
<rscale>  2 0.45493566E+03</rscale>
<asrwt>0</asrwt>
<pdfrwt beam="1">  1       21 0.23208645E-01 0.45493566E+03</pdfrwt>
<pdfrwt beam="2">  1       21 0.48213911E-01 0.45493566E+03</pdfrwt>
<totfact> 0.66323254E+04</totfact>
</mgrwt>
</event>
<event>
 7    0  0.4759581E-002  0.4527655E+03  0.7546771E-02  0.1026901E+00
         21   -1    0    0  502  501  0.00000000000E+00  0.00000000000E+00  0.15723769381E+03  0.15723769381E+03  0.00000000000E+00 0. -1.
         21   -1    0    0  501  502 -0.00000000000E+00 -0.00000000000E+00 -0.32593431736E+03  0.32593431736E+03  0.00000000000E+00 0. -1.
      99926    2    1    2    0    0  0.00000000000E+00  0.00000000000E+00 -0.16869662356E+03  0.48317201117E+03  0.45276554813E+03 0.  0.
      99925    2    3    3    0    0 -0.11430972670E+02  0.92119107172E+02 -0.40967477493E+02  0.28173010913E+03  0.26282489063E+03 0.  0.
         25    1    4    4    0    0 -0.35228581217E+02  0.49798624683E+02  0.67020991587E+01  0.13933191375E+03  0.12509000000E+03 0.  0.
         25    1    3    3    0    0  0.11430972670E+02 -0.92119107172E+02 -0.12772914606E+03  0.20144190204E+03  0.12509000000E+03 0.  0.
         25    1    4    4    0    0  0.23797608548E+02  0.42320482489E+02 -0.47669576652E+02  0.14239819538E+03  0.12509000000E+03 0.  0.
<mgrwt>
<rscale>  2 0.45276555E+03</rscale>
<asrwt>0</asrwt>
<pdfrwt beam="1">  1       21 0.23123190E-01 0.45276555E+03</pdfrwt>
<pdfrwt beam="2">  1       21 0.47931517E-01 0.45276555E+03</pdfrwt>
<totfact> 0.67662151E+04</totfact>
</mgrwt>
</event>
<event>
 7    0  0.4759581E-002  0.4235182E+03  0.7546771E-02  0.1035927E+00
         21   -1    0    0  502  501  0.00000000000E+00  0.00000000000E+00  0.58089535899E+03  0.58089535899E+03  0.00000000000E+00 0.  1.
         21   -1    0    0  501  502 -0.00000000000E+00 -0.00000000000E+00 -0.77194477420E+02  0.77194477420E+02  0.00000000000E+00 0.  1.
      99926    2    1    2    0    0 -0.14210854715E-13  0.00000000000E+00  0.50370088157E+03  0.65808983641E+03  0.42351818696E+03 0.  0.
      99925    2    3    3    0    0 -0.73100945812E+02 -0.27303875623E+02  0.29913476915E+03  0.40593105240E+03  0.26307633737E+03 0.  0.
         25    1    3    3    0    0  0.73100945812E+02  0.27303875623E+02  0.20456611241E+03  0.25215878400E+03  0.12509000000E+03 0.  0.
         25    1    4    4    0    0 -0.15218789007E+02  0.63580552718E+01  0.97864921969E+02  0.15967807444E+03  0.12509000000E+03 0.  0.
         25    1    4    4    0    0 -0.57882156805E+02 -0.33661930895E+02  0.20126984719E+03  0.24625297796E+03  0.12509000000E+03 0.  0.
<mgrwt>
<rscale>  2 0.42351819E+03</rscale>
<asrwt>0</asrwt>
<pdfrwt beam="1">  1       21 0.85425786E-01 0.42351819E+03</pdfrwt>
<pdfrwt beam="2">  1       21 0.11352129E-01 0.42351819E+03</pdfrwt>
<totfact> 0.71360490E+04</totfact>
</mgrwt>
</event>
<event>
 7    0  0.4759581E-002  0.4527693E+03  0.7546771E-02  0.1026899E+00
         21   -1    0    0  502  501  0.00000000000E+00  0.00000000000E+00  0.13990712623E+03  0.13990712623E+03  0.00000000000E+00 0.  1.
         21   -1    0    0  501  502 -0.00000000000E+00 -0.00000000000E+00 -0.36631450832E+03  0.36631450832E+03  0.00000000000E+00 0.  1.
      99926    2    1    2    0    0 -0.14210854715E-13 -0.17763568394E-14 -0.22640738209E+03  0.50622163455E+03  0.45276930176E+03 0.  0.
      99925    2    3    3    0    0  0.10999307138E+03 -0.82212291461E+01 -0.15669073124E+03  0.32546217043E+03  0.26307332583E+03 0.  0.
         25    1    4    4    0    0  0.25876997888E+02 -0.34298438278E+02 -0.74432171609E+02  0.15176843598E+03  0.12509000000E+03 0.  0.
         25    1    4    4    0    0  0.84116073495E+02  0.26077209132E+02 -0.82258559634E+02  0.17369373446E+03  0.12509000000E+03 0.  0.
         25    1    3    3    0    0 -0.10999307138E+03  0.82212291461E+01 -0.69716650851E+02  0.18075946411E+03  0.12509000000E+03 0.  0.
<mgrwt>
<rscale>  2 0.45276930E+03</rscale>
<asrwt>0</asrwt>
<pdfrwt beam="1">  1       21 0.20574577E-01 0.45276930E+03</pdfrwt>
<pdfrwt beam="2">  1       21 0.53869780E-01 0.45276930E+03</pdfrwt>
<totfact> 0.65996473E+04</totfact>
</mgrwt>
</event>
<event>
 7    0  0.4759581E-002  0.4545657E+03  0.7546771E-02  0.1026369E+00
         21   -1    0    0  502  501  0.00000000000E+00  0.00000000000E+00  0.75805506997E+03  0.75805506997E+03  0.00000000000E+00 0. -1.
         21   -1    0    0  501  502 -0.00000000000E+00 -0.00000000000E+00 -0.68144778646E+02  0.68144778646E+02  0.00000000000E+00 0. -1.
      99926    2    1    2    0    0  0.00000000000E+00  0.00000000000E+00  0.68991029132E+03  0.82619984862E+03  0.45456570458E+03 0.  0.
      99925    2    3    3    0    0 -0.59479095386E+02 -0.66432506943E+02  0.55974665805E+03  0.62485159237E+03  0.26300598952E+03 0.  0.
         25    1    3    3    0    0  0.59479095386E+02  0.66432506943E+02  0.13016363328E+03  0.20134825625E+03  0.12509000000E+03 0.  0.
         25    1    4    4    0    0 -0.36008374629E+02 -0.14936313110E+01  0.32415736604E+03  0.34931982485E+03  0.12509000000E+03 0.  0.
         25    1    4    4    0    0 -0.23470720756E+02 -0.64938875632E+02  0.23558929201E+03  0.27553176751E+03  0.12509000000E+03 0.  0.
<mgrwt>
<rscale>  2 0.45456570E+03</rscale>
<asrwt>0</asrwt>
<pdfrwt beam="1">  1       21 0.11147868E+00 0.45456570E+03</pdfrwt>
<pdfrwt beam="2">  1       21 0.10021291E-01 0.45456570E+03</pdfrwt>
<totfact> 0.46682399E+04</totfact>
</mgrwt>
</event>
<event>
 7    0  0.4759581E-002  0.4493717E+03  0.7546771E-02  0.1027910E+00
         21   -1    0    0  502  501  0.00000000000E+00  0.00000000000E+00  0.14990792480E+03  0.14990792480E+03  0.00000000000E+00 0.  1.
         21   -1    0    0  501  502 -0.00000000000E+00 -0.00000000000E+00 -0.33676488104E+03  0.33676488104E+03  0.00000000000E+00 0.  1.
      99926    2    1    2    0    0  0.71054273576E-14  0.00000000000E+00 -0.18685695623E+03  0.48667280584E+03  0.44937167006E+03 0.  0.
      99925    2    3    3    0    0 -0.49748789078E+02  0.73899429460E+02 -0.18397558137E+03  0.33307632766E+03  0.26297672486E+03 0.  0.
         25    1    3    3    0    0  0.49748789078E+02 -0.73899429460E+02 -0.28813748647E+01  0.15359647818E+03  0.12509000000E+03 0.  0.
         25    1    4    4    0    0 -0.47589171202E+02  0.60363194624E+02 -0.67447984218E+02  0.16157098488E+03  0.12509000000E+03 0.  0.
         25    1    4    4    0    0 -0.21596178758E+01  0.13536234836E+02 -0.11652759715E+03  0.17150534278E+03  0.12509000000E+03 0.  0.
<mgrwt>
<rscale>  2 0.44937167E+03</rscale>
<asrwt>0</asrwt>
<pdfrwt beam="1">  1       21 0.22045283E-01 0.44937167E+03</pdfrwt>
<pdfrwt beam="2">  1       21 0.49524246E-01 0.44937167E+03</pdfrwt>
<totfact> 0.69260809E+04</totfact>
</mgrwt>
</event>
<event>
 7    0  0.4759581E-002  0.4554706E+03  0.7546771E-02  0.1026103E+00
         21   -1    0    0  502  501  0.00000000000E+00  0.00000000000E+00  0.36295138016E+02  0.36295138016E+02  0.00000000000E+00 0. -1.
         21   -1    0    0  501  502 -0.00000000000E+00 -0.00000000000E+00 -0.14289344752E+04  0.14289344752E+04  0.00000000000E+00 0. -1.
      99926    2    1    2    0    0 -0.14210854715E-13  0.00000000000E+00 -0.13926393372E+04  0.14652296132E+04  0.45547063130E+03 0.  0.
      99925    2    3    3    0    0  0.95504844323E+02 -0.57510498584E+02 -0.94387054559E+03  0.98619979249E+03  0.26319154838E+03 0.  0.
         25    1    3    3    0    0 -0.95504844323E+02  0.57510498584E+02 -0.44876879162E+03  0.47902982075E+03  0.12509000000E+03 0.  0.
         25    1    4    4    0    0  0.81163928697E+02 -0.51747807245E+02 -0.46693559987E+03  0.49289124703E+03  0.12509000000E+03 0.  0.
         25    1    4    4    0    0  0.14340915627E+02 -0.57626913396E+01 -0.47693494572E+03  0.49330854546E+03  0.12509000000E+03 0.  0.
<mgrwt>
<rscale>  2 0.45547063E+03</rscale>
<asrwt>0</asrwt>
<pdfrwt beam="1">  1       21 0.53375201E-02 0.45547063E+03</pdfrwt>
<pdfrwt beam="2">  1       21 0.21013743E+00 0.45547063E+03</pdfrwt>
<totfact> 0.24554313E+04</totfact>
</mgrwt>
</event>
<event>
 7    0  0.4759581E-002  0.4595336E+03  0.7546771E-02  0.1024917E+00
         21   -1    0    0  502  501  0.00000000000E+00  0.00000000000E+00  0.11258822816E+03  0.11258822816E+03  0.00000000000E+00 0. -1.
         21   -1    0    0  501  502 -0.00000000000E+00 -0.00000000000E+00 -0.46890137950E+03  0.46890137950E+03  0.00000000000E+00 0. -1.
      99926    2    1    2    0    0  0.00000000000E+00  0.00000000000E+00 -0.35631315134E+03  0.58148960766E+03  0.45953357004E+03 0.  0.
      99925    2    3    3    0    0 -0.59973334287E+02  0.98219027791E+02 -0.19401307936E+03  0.34647343861E+03  0.26298096976E+03 0.  0.
         25    1    4    4    0    0 -0.39494418513E+02  0.29114577942E+02 -0.52341280054E+02  0.14420327819E+03  0.12509000000E+03 0.  0.
         25    1    4    4    0    0 -0.20478915774E+02  0.69104449849E+02 -0.14167179930E+03  0.20227016042E+03  0.12509000000E+03 0.  0.
         25    1    3    3    0    0  0.59973334287E+02 -0.98219027791E+02 -0.16230007199E+03  0.23501616904E+03  0.12509000000E+03 0.  0.
<mgrwt>
<rscale>  2 0.45953357E+03</rscale>
<asrwt>0</asrwt>
<pdfrwt beam="1">  1       21 0.16557092E-01 0.45953357E+03</pdfrwt>
<pdfrwt beam="2">  1       21 0.68956086E-01 0.45953357E+03</pdfrwt>
<totfact> 0.57735116E+04</totfact>
</mgrwt>
</event>
<event>
 7    0  0.4759581E-002  0.4569617E+03  0.7546771E-02  0.1025666E+00
         21   -1    0    0  502  501  0.00000000000E+00  0.00000000000E+00  0.11449774681E+03  0.11449774681E+03  0.00000000000E+00 0.  1.
         21   -1    0    0  501  502 -0.00000000000E+00 -0.00000000000E+00 -0.45593470606E+03  0.45593470606E+03  0.00000000000E+00 0.  1.
      99926    2    1    2    0    0  0.00000000000E+00  0.71054273576E-14 -0.34143695926E+03  0.57043245287E+03  0.45696169002E+03 0.  0.
      99925    2    3    3    0    0 -0.10843856759E+03 -0.31882318077E+02 -0.18822763139E+03  0.34262549206E+03  0.26303456321E+03 0.  0.
         25    1    3    3    0    0  0.10843856759E+03  0.31882318077E+02 -0.15320932787E+03  0.22780696081E+03  0.12509000000E+03 0.  0.
         25    1    4    4    0    0 -0.53468258770E+02 -0.33354230576E+02 -0.51258054667E+02  0.14915178732E+03  0.12509000000E+03 0.  0.
         25    1    4    4    0    0 -0.54970308821E+02  0.14719124984E+01 -0.13696957672E+03  0.19347370474E+03  0.12509000000E+03 0.  0.
<mgrwt>
<rscale>  2 0.45696169E+03</rscale>
<asrwt>0</asrwt>
<pdfrwt beam="1">  1       21 0.16837903E-01 0.45696169E+03</pdfrwt>
<pdfrwt beam="2">  1       21 0.67049223E-01 0.45696169E+03</pdfrwt>
<totfact> 0.59606126E+04</totfact>
</mgrwt>
</event>
<event>
 7    0  0.4759581E-002  0.4502233E+03  0.7546771E-02  0.1027655E+00
         21   -1    0    0  502  501  0.00000000000E+00  0.00000000000E+00  0.35308584326E+03  0.35308584326E+03  0.00000000000E+00 0.  1.
         21   -1    0    0  501  502 -0.00000000000E+00 -0.00000000000E+00 -0.14352105714E+03  0.14352105714E+03  0.00000000000E+00 0.  1.
      99926    2    1    2    0    0  0.00000000000E+00  0.00000000000E+00  0.20956478612E+03  0.49660690040E+03  0.45022329343E+03 0.  0.
      99925    2    3    3    0    0 -0.90229893841E+02 -0.54740377110E+02  0.10413969558E+03  0.30192793276E+03  0.26301607889E+03 0.  0.
         25    1    3    3    0    0  0.90229893841E+02  0.54740377110E+02  0.10542509054E+03  0.19467896765E+03  0.12509000000E+03 0.  0.
         25    1    4    4    0    0 -0.31466561878E+02  0.47734605680E+01  0.23462971451E+02  0.13119050869E+03  0.12509000000E+03 0.  0.
         25    1    4    4    0    0 -0.58763331963E+02 -0.59513837678E+02  0.80676724131E+02  0.17073742406E+03  0.12509000000E+03 0.  0.
<mgrwt>
<rscale>  2 0.45022329E+03</rscale>
<asrwt>0</asrwt>
<pdfrwt beam="1">  1       21 0.51924389E-01 0.45022329E+03</pdfrwt>
<pdfrwt beam="2">  1       21 0.21106038E-01 0.45022329E+03</pdfrwt>
<totfact> 0.68053791E+04</totfact>
</mgrwt>
</event>
<event>
 7    0  0.4759581E-002  0.4576120E+03  0.7546771E-02  0.1025476E+00
         21   -1    0    0  502  501  0.00000000000E+00  0.00000000000E+00  0.86999776694E+02  0.86999776694E+02  0.00000000000E+00 0. -1.
         21   -1    0    0  501  502 -0.00000000000E+00 -0.00000000000E+00 -0.60175072433E+03  0.60175072433E+03  0.00000000000E+00 0. -1.
      99926    2    1    2    0    0  0.00000000000E+00  0.35527136788E-14 -0.51475094764E+03  0.68875050103E+03  0.45761196943E+03 0.  0.
      99925    2    3    3    0    0  0.54702835398E+02  0.25682212441E+02 -0.47150089605E+03  0.54325118385E+03  0.26297676235E+03 0.  0.
         25    1    4    4    0    0  0.56650608123E+02 -0.14228999171E+02 -0.25745018569E+03  0.29212987185E+03  0.12509000000E+03 0.  0.
         25    1    3    3    0    0 -0.54702835398E+02 -0.25682212441E+02 -0.43250051583E+02  0.14549931718E+03  0.12509000000E+03 0.  0.
         25    1    4    4    0    0 -0.19477727246E+01  0.39911211612E+02 -0.21405071037E+03  0.25112131200E+03  0.12509000000E+03 0.  0.
<mgrwt>
<rscale>  2 0.45761197E+03</rscale>
<asrwt>0</asrwt>
<pdfrwt beam="1">  1       21 0.12794084E-01 0.45761197E+03</pdfrwt>
<pdfrwt beam="2">  1       21 0.88492757E-01 0.45761197E+03</pdfrwt>
<totfact> 0.52431668E+04</totfact>
</mgrwt>
</event>
<event>
 7    0  0.4759581E-002  0.4540163E+03  0.7546771E-02  0.1026531E+00
         21   -1    0    0  502  501  0.00000000000E+00  0.00000000000E+00  0.96603685607E+02  0.96603685607E+02  0.00000000000E+00 0. -1.
         21   -1    0    0  501  502 -0.00000000000E+00 -0.00000000000E+00 -0.53344452206E+03  0.53344452206E+03  0.00000000000E+00 0. -1.
      99926    2    1    2    0    0  0.35527136788E-14 -0.17763568394E-14 -0.43684083645E+03  0.63004820767E+03  0.45401632965E+03 0.  0.
      99925    2    3    3    0    0  0.19708012631E+02  0.12443588413E+02 -0.12264830387E+03  0.29106781843E+03  0.26293463034E+03 0.  0.
         25    1    3    3    0    0 -0.19708012631E+02 -0.12443588413E+02 -0.31419253258E+03  0.33898038924E+03  0.12509000000E+03 0.  0.
         25    1    4    4    0    0  0.31399827419E+02  0.31492041186E+02 -0.36973338551E+02  0.13781231325E+03  0.12509000000E+03 0.  0.
         25    1    4    4    0    0 -0.11691814788E+02 -0.19048452772E+02 -0.85674965317E+02  0.15325550518E+03  0.12509000000E+03 0.  0.
<mgrwt>
<rscale>  2 0.45401633E+03</rscale>
<asrwt>0</asrwt>
<pdfrwt beam="1">  1       21 0.14206424E-01 0.45401633E+03</pdfrwt>
<pdfrwt beam="2">  1       21 0.78447724E-01 0.45401633E+03</pdfrwt>
<totfact> 0.57309531E+04</totfact>
</mgrwt>
</event>
<event>
 7    0  0.4759581E-002  0.4564805E+03  0.7546771E-02  0.1025807E+00
         21   -1    0    0  502  501  0.00000000000E+00  0.00000000000E+00  0.12333484421E+04  0.12333484421E+04  0.00000000000E+00 0.  1.
         21   -1    0    0  501  502 -0.00000000000E+00 -0.00000000000E+00 -0.42237545638E+02  0.42237545638E+02  0.00000000000E+00 0.  1.
      99926    2    1    2    0    0  0.14210854715E-13  0.00000000000E+00  0.11911108965E+04  0.12755859877E+04  0.45648049733E+03 0.  0.
      99925    2    3    3    0    0  0.69612282771E+02  0.88539037434E+02  0.80600420654E+03  0.85530072534E+03  0.26308082171E+03 0.  0.
         25    1    4    4    0    0 -0.61807459256E+01  0.50397170833E+02  0.38551669332E+03  0.40847118059E+03  0.12509000000E+03 0.  0.
         25    1    4    4    0    0  0.75793028696E+02  0.38141866601E+02  0.42048751322E+03  0.44682954475E+03  0.12509000000E+03 0.  0.
         25    1    3    3    0    0 -0.69612282771E+02 -0.88539037434E+02  0.38510668992E+03  0.42028526239E+03  0.12509000000E+03 0.  0.
<mgrwt>
<rscale>  2 0.45648050E+03</rscale>
<asrwt>0</asrwt>
<pdfrwt beam="1">  1       21 0.18137475E+00 0.45648050E+03</pdfrwt>
<pdfrwt beam="2">  1       21 0.62114045E-02 0.45648050E+03</pdfrwt>
<totfact> 0.29490845E+04</totfact>
</mgrwt>
</event>
<event>
 7    0  0.4759581E-002  0.4505466E+03  0.7546771E-02  0.1027559E+00
         21   -1    0    0  502  501  0.00000000000E+00  0.00000000000E+00  0.14574267405E+03  0.14574267405E+03  0.00000000000E+00 0. -1.
         21   -1    0    0  501  502 -0.00000000000E+00 -0.00000000000E+00 -0.34820318232E+03  0.34820318232E+03  0.00000000000E+00 0. -1.
      99926    2    1    2    0    0  0.00000000000E+00  0.00000000000E+00 -0.20246050826E+03  0.49394585637E+03  0.45054661426E+03 0.  0.
      99925    2    3    3    0    0 -0.74773282446E+02  0.77390846115E+02 -0.10812893340E+03  0.30387655073E+03  0.26280925595E+03 0.  0.
         25    1    3    3    0    0  0.74773282446E+02 -0.77390846115E+02 -0.94331574864E+02  0.19006930564E+03  0.12509000000E+03 0.  0.
         25    1    4    4    0    0 -0.32906281759E+02  0.34508545604E+02 -0.95814028981E+02  0.16462533022E+03  0.12509000000E+03 0.  0.
         25    1    4    4    0    0 -0.41867000686E+02  0.42882300511E+02 -0.12314904419E+02  0.13925122051E+03  0.12509000000E+03 0.  0.
<mgrwt>
<rscale>  2 0.45054661E+03</rscale>
<asrwt>0</asrwt>
<pdfrwt beam="1">  1       21 0.21432746E-01 0.45054661E+03</pdfrwt>
<pdfrwt beam="2">  1       21 0.51206350E-01 0.45054661E+03</pdfrwt>
<totfact> 0.68073038E+04</totfact>
</mgrwt>
</event>
<event>
 7    0  0.4759581E-002  0.4522704E+03  0.7546771E-02  0.1027047E+00
         21   -1    0    0  502  501  0.00000000000E+00  0.00000000000E+00  0.10377130175E+03  0.10377130175E+03  0.00000000000E+00 0.  1.
         21   -1    0    0  501  502 -0.00000000000E+00 -0.00000000000E+00 -0.49278675516E+03  0.49278675516E+03  0.00000000000E+00 0.  1.
      99926    2    1    2    0    0  0.00000000000E+00  0.00000000000E+00 -0.38901545341E+03  0.59655805691E+03  0.45227037520E+03 0.  0.
      99925    2    3    3    0    0 -0.94377539870E+02 -0.55892811849E+02 -0.22672473086E+03  0.36414266764E+03  0.26299173440E+03 0.  0.
         25    1    4    4    0    0 -0.78969569905E+02 -0.56246303557E+01 -0.13507046863E+03  0.20039802652E+03  0.12509000000E+03 0.  0.
         25    1    3    3    0    0  0.94377539870E+02  0.55892811849E+02 -0.16229072255E+03  0.23241538928E+03  0.12509000000E+03 0.  0.
         25    1    4    4    0    0 -0.15407969965E+02 -0.50268181494E+02 -0.91654262235E+02  0.16374464112E+03  0.12509000000E+03 0.  0.
<mgrwt>
<rscale>  2 0.45227038E+03</rscale>
<asrwt>0</asrwt>
<pdfrwt beam="1">  1       21 0.15260486E-01 0.45227038E+03</pdfrwt>
<pdfrwt beam="2">  1       21 0.72468640E-01 0.45227038E+03</pdfrwt>
<totfact> 0.60178167E+04</totfact>
</mgrwt>
</event>
<event>
 7    0  0.4759581E-002  0.4525581E+03  0.7546771E-02  0.1026962E+00
         21   -1    0    0  502  501  0.00000000000E+00  0.00000000000E+00  0.11970558099E+04  0.11970558099E+04  0.00000000000E+00 0. -1.
         21   -1    0    0  501  502 -0.00000000000E+00 -0.00000000000E+00 -0.42773458575E+02  0.42773458575E+02  0.00000000000E+00 0. -1.
      99926    2    1    2    0    0  0.00000000000E+00  0.00000000000E+00  0.11542823514E+04  0.12398292685E+04  0.45255813814E+03 0.  0.
      99925    2    3    3    0    0 -0.75181778577E+02 -0.70701019089E+02  0.83916670426E+03  0.88543356724E+03  0.26294659255E+03 0.  0.
         25    1    4    4    0    0 -0.76193481844E+02 -0.22421514475E+02  0.42334161674E+03  0.44852402784E+03  0.12509000000E+03 0.  0.
         25    1    4    4    0    0  0.10117032669E+01 -0.48279504614E+02  0.41582508752E+03  0.43690953940E+03  0.12509000000E+03 0.  0.
         25    1    3    3    0    0  0.75181778577E+02  0.70701019089E+02  0.31511564711E+03  0.35439570127E+03  0.12509000000E+03 0.  0.
<mgrwt>
<rscale>  2 0.45255814E+03</rscale>
<asrwt>0</asrwt>
<pdfrwt beam="1">  1       21 0.17603760E+00 0.45255814E+03</pdfrwt>
<pdfrwt beam="2">  1       21 0.62902153E-02 0.45255814E+03</pdfrwt>
<totfact> 0.31508197E+04</totfact>
</mgrwt>
</event>
<event>
 7    0  0.4759581E-002  0.4553923E+03  0.7546771E-02  0.1026126E+00
         21   -1    0    0  502  501  0.00000000000E+00  0.00000000000E+00  0.24418988026E+03  0.24418988026E+03  0.00000000000E+00 0.  1.
         21   -1    0    0  501  502 -0.00000000000E+00 -0.00000000000E+00 -0.21231647831E+03  0.21231647831E+03  0.00000000000E+00 0.  1.
      99926    2    1    2    0    0  0.00000000000E+00  0.14210854715E-13  0.31873401948E+02  0.45650635857E+03  0.45539229425E+03 0.  0.
      99925    2    3    3    0    0  0.61058117012E+02  0.76036561821E+02 -0.38118639752E+02  0.28313956132E+03  0.26306905577E+03 0.  0.
         25    1    4    4    0    0  0.40810402160E+01  0.14667271956E+02  0.63592664498E+01  0.12617342084E+03  0.12509000000E+03 0.  0.
         25    1    3    3    0    0 -0.61058117012E+02 -0.76036561821E+02  0.69992041700E+02  0.17336679725E+03  0.12509000000E+03 0.  0.
         25    1    4    4    0    0  0.56977076796E+02  0.61369289865E+02 -0.44477906202E+02  0.15696614049E+03  0.12509000000E+03 0.  0.
<mgrwt>
<rscale>  2 0.45539229E+03</rscale>
<asrwt>0</asrwt>
<pdfrwt beam="1">  1       21 0.35910277E-01 0.45539229E+03</pdfrwt>
<pdfrwt beam="2">  1       21 0.31223011E-01 0.45539229E+03</pdfrwt>
<totfact> 0.68221829E+04</totfact>
</mgrwt>
</event>
<event>
 7    0  0.4759581E-002  0.4499065E+03  0.7546771E-02  0.1027750E+00
         21   -1    0    0  502  501  0.00000000000E+00  0.00000000000E+00  0.38926489625E+02  0.38926489625E+02  0.00000000000E+00 0. -1.
         21   -1    0    0  501  502 -0.00000000000E+00 -0.00000000000E+00 -0.12999876083E+04  0.12999876083E+04  0.00000000000E+00 0. -1.
      99926    2    1    2    0    0  0.35527136788E-14  0.00000000000E+00 -0.12610611187E+04  0.13389140979E+04  0.44990645315E+03 0.  0.
      99925    2    3    3    0    0  0.31354400035E+02  0.74000278205E+02 -0.10132766971E+04  0.10499439139E+04  0.26304641776E+03 0.  0.
         25    1    4    4    0    0 -0.63392685601E+01  0.62713979616E+02 -0.61028965468E+03  0.62615828691E+03  0.12509000000E+03 0.  0.
         25    1    3    3    0    0 -0.31354400035E+02 -0.74000278205E+02 -0.24778442161E+03  0.28897018405E+03  0.12509000000E+03 0.  0.
         25    1    4    4    0    0  0.37693668595E+02  0.11286298589E+02 -0.40298704238E+03  0.42378562695E+03  0.12509000000E+03 0.  0.
<mgrwt>
<rscale>  2 0.44990645E+03</rscale>
<asrwt>0</asrwt>
<pdfrwt beam="1">  1       21 0.57244834E-02 0.44990645E+03</pdfrwt>
<pdfrwt beam="2">  1       21 0.19117466E+00 0.44990645E+03</pdfrwt>
<totfact> 0.29142348E+04</totfact>
</mgrwt>
</event>
<event>
 7    0  0.4759581E-002  0.4534222E+03  0.7546771E-02  0.1026706E+00
         21   -1    0    0  502  501  0.00000000000E+00  0.00000000000E+00  0.33652025755E+03  0.33652025755E+03  0.00000000000E+00 0.  1.
         21   -1    0    0  501  502 -0.00000000000E+00 -0.00000000000E+00 -0.15273350140E+03  0.15273350140E+03  0.00000000000E+00 0.  1.
      99926    2    1    2    0    0  0.00000000000E+00  0.00000000000E+00  0.18378675615E+03  0.48925375895E+03  0.45342217514E+03 0.  0.
      99925    2    3    3    0    0  0.76201378910E+02 -0.80287019215E+02  0.99861578240E+02  0.30232168789E+03  0.26300838876E+03 0.  0.
         25    1    4    4    0    0  0.61674662112E+02 -0.72788296979E+02  0.72564755533E+02  0.17324852660E+03  0.12509000000E+03 0.  0.
         25    1    4    4    0    0  0.14526716798E+02 -0.74987222365E+01  0.27296822707E+02  0.12907316129E+03  0.12509000000E+03 0.  0.
         25    1    3    3    0    0 -0.76201378910E+02  0.80287019215E+02  0.83925177906E+02  0.18693207105E+03  0.12509000000E+03 0.  0.
<mgrwt>
<rscale>  2 0.45342218E+03</rscale>
<asrwt>0</asrwt>
<pdfrwt beam="1">  1       21 0.49488273E-01 0.45342218E+03</pdfrwt>
<pdfrwt beam="2">  1       21 0.22460809E-01 0.45342218E+03</pdfrwt>
<totfact> 0.66866050E+04</totfact>
</mgrwt>
</event>
<event>
 7    0  0.4759581E-002  0.4397878E+03  0.7546771E-02  0.1030812E+00
         21   -1    0    0  502  501  0.00000000000E+00  0.00000000000E+00  0.12857116237E+04  0.12857116237E+04  0.00000000000E+00 0. -1.
         21   -1    0    0  501  502 -0.00000000000E+00 -0.00000000000E+00 -0.37608215066E+02  0.37608215066E+02  0.00000000000E+00 0. -1.
      99926    2    1    2    0    0  0.00000000000E+00  0.00000000000E+00  0.12481034087E+04  0.13233198388E+04  0.43978776363E+03 0.  0.
      99925    2    3    3    0    0  0.49022024558E+02  0.76831039380E+02  0.90674007282E+03  0.94850975000E+03  0.26303425383E+03 0.  0.
         25    1    4    4    0    0  0.20876160001E+02  0.58696351681E+02  0.58994969891E+03  0.60627488081E+03  0.12509000000E+03 0.  0.
         25    1    4    4    0    0  0.28145864557E+02  0.18134687699E+02  0.31679037391E+03  0.34223486919E+03  0.12509000000E+03 0.  0.
         25    1    3    3    0    0 -0.49022024558E+02 -0.76831039380E+02  0.34136333586E+03  0.37481008881E+03  0.12509000000E+03 0.  0.
<mgrwt>
<rscale>  2 0.43978776E+03</rscale>
<asrwt>0</asrwt>
<pdfrwt beam="1">  1       21 0.18907521E+00 0.43978776E+03</pdfrwt>
<pdfrwt beam="2">  1       21 0.55306207E-02 0.43978776E+03</pdfrwt>
<totfact> 0.32074476E+04</totfact>
</mgrwt>
</event>
<event>
 7    0  0.4759581E-002  0.4522531E+03  0.7546771E-02  0.1027052E+00
         21   -1    0    0  502  501  0.00000000000E+00  0.00000000000E+00  0.40652665598E+02  0.40652665598E+02  0.00000000000E+00 0.  1.
         21   -1    0    0  501  502 -0.00000000000E+00 -0.00000000000E+00 -0.12578074303E+04  0.12578074303E+04  0.00000000000E+00 0.  1.
      99926    2    1    2    0    0  0.71054273576E-14  0.00000000000E+00 -0.12171547647E+04  0.12984600959E+04  0.45225313642E+03 0.  0.
      99925    2    3    3    0    0  0.46992918978E+02 -0.49751499599E+02 -0.10170666846E+04  0.10527645647E+04  0.26306851133E+03 0.  0.
         25    1    4    4    0    0  0.31827232340E+01 -0.59234756496E+02 -0.55092467096E+03  0.56805315533E+03  0.12509000000E+03 0.  0.
         25    1    3    3    0    0 -0.46992918978E+02  0.49751499599E+02 -0.20008808014E+03  0.24569553121E+03  0.12509000000E+03 0.  0.
         25    1    4    4    0    0  0.43810195744E+02  0.94832568968E+01 -0.46614201361E+03  0.48471140936E+03  0.12509000000E+03 0.  0.
<mgrwt>
<rscale>  2 0.45225314E+03</rscale>
<asrwt>0</asrwt>
<pdfrwt beam="1">  1       21 0.59783340E-02 0.45225314E+03</pdfrwt>
<pdfrwt beam="2">  1       21 0.18497166E+00 0.45225314E+03</pdfrwt>
<totfact> 0.29790799E+04</totfact>
</mgrwt>
</event>
<event>
 7    0  0.4759581E-002  0.4272544E+03  0.7546771E-02  0.1034731E+00
         21   -1    0    0  502  501  0.00000000000E+00  0.00000000000E+00  0.49682569034E+02  0.49682569034E+02  0.00000000000E+00 0. -1.
         21   -1    0    0  501  502 -0.00000000000E+00 -0.00000000000E+00 -0.91856331855E+03  0.91856331855E+03  0.00000000000E+00 0. -1.
      99926    2    1    2    0    0  0.00000000000E+00 -0.14210854715E-13 -0.86888074952E+03  0.96824588759E+03  0.42725442297E+03 0.  0.
      99925    2    3    3    0    0  0.44491894566E+02 -0.68826726157E+02 -0.61687921002E+03  0.67521187774E+03  0.26201998621E+03 0.  0.
         25    1    4    4    0    0  0.19099987859E+02  0.17472468535E+01 -0.32882941699E+03  0.35234096552E+03  0.12509000000E+03 0.  0.
         25    1    4    4    0    0  0.25391906707E+02 -0.70573973010E+02 -0.28804979303E+03  0.32287091222E+03  0.12509000000E+03 0.  0.
         25    1    3    3    0    0 -0.44491894566E+02  0.68826726157E+02 -0.25200153950E+03  0.29303400984E+03  0.12509000000E+03 0.  0.
<mgrwt>
<rscale>  2 0.42725442E+03</rscale>
<asrwt>0</asrwt>
<pdfrwt beam="1">  1       21 0.73062602E-02 0.42725442E+03</pdfrwt>
<pdfrwt beam="2">  1       21 0.13508284E+00 0.42725442E+03</pdfrwt>
<totfact> 0.50508625E+04</totfact>
</mgrwt>
</event>
<event>
 7    0  0.4759581E-002  0.4760481E+03  0.7546771E-02  0.1020227E+00
         21   -1    0    0  502  501  0.00000000000E+00  0.00000000000E+00  0.13739534820E+03  0.13739534820E+03  0.00000000000E+00 0.  1.
         21   -1    0    0  501  502 -0.00000000000E+00 -0.00000000000E+00 -0.41235338811E+03  0.41235338811E+03  0.00000000000E+00 0.  1.
      99926    2    1    2    0    0 -0.14210854715E-13  0.00000000000E+00 -0.27495803991E+03  0.54974873631E+03  0.47604805362E+03 0.  0.
      99925    2    3    3    0    0  0.11973080631E+03  0.44937012984E+02 -0.20723724908E+03  0.35846775260E+03  0.26305332374E+03 0.  0.
         25    1    4    4    0    0  0.15955440174E+02  0.22831859037E+02 -0.82737036489E+02  0.15254112614E+03  0.12509000000E+03 0.  0.
         25    1    4    4    0    0  0.10377536614E+03  0.22105153947E+02 -0.12450021259E+03  0.20592662646E+03  0.12509000000E+03 0.  0.
         25    1    3    3    0    0 -0.11973080631E+03 -0.44937012984E+02 -0.67720790827E+02  0.19128098370E+03  0.12509000000E+03 0.  0.
<mgrwt>
<rscale>  2 0.47604805E+03</rscale>
<asrwt>0</asrwt>
<pdfrwt beam="1">  1       21 0.20205198E-01 0.47604805E+03</pdfrwt>
<pdfrwt beam="2">  1       21 0.60640204E-01 0.47604805E+03</pdfrwt>
<totfact> 0.52559774E+04</totfact>
</mgrwt>
</event>
<event>
 7    0  0.4759581E-002  0.4547794E+03  0.7546771E-02  0.1026306E+00
         21   -1    0    0  502  501  0.00000000000E+00  0.00000000000E+00  0.94451238888E+03  0.94451238888E+03  0.00000000000E+00 0. -1.
         21   -1    0    0  501  502 -0.00000000000E+00 -0.00000000000E+00 -0.54743671936E+02  0.54743671936E+02  0.00000000000E+00 0. -1.
      99926    2    1    2    0    0  0.14210854715E-13  0.00000000000E+00  0.88976871694E+03  0.99925606081E+03  0.45477940303E+03 0.  0.
      99925    2    3    3    0    0 -0.80121290164E+02  0.23849028403E+02  0.39301871712E+03  0.48022208532E+03  0.26298544053E+03 0.  0.
         25    1    4    4    0    0 -0.75754883413E+02  0.15146298560E+02  0.24945863650E+03  0.28956058459E+03  0.12509000000E+03 0.  0.
         25    1    4    4    0    0 -0.43664067508E+01  0.87027298429E+01  0.14356008062E+03  0.19066150073E+03  0.12509000000E+03 0.  0.
         25    1    3    3    0    0  0.80121290164E+02 -0.23849028403E+02  0.49674999982E+03  0.51903397549E+03  0.12509000000E+03 0.  0.
<mgrwt>
<rscale>  2 0.45477940E+03</rscale>
<asrwt>0</asrwt>
<pdfrwt beam="1">  1       21 0.13889887E+00 0.45477940E+03</pdfrwt>
<pdfrwt beam="2">  1       21 0.80505405E-02 0.45477940E+03</pdfrwt>
<totfact> 0.39263348E+04</totfact>
</mgrwt>
</event>
<event>
 6    0  0.6633595E-002  0.4158880E+03  0.7546771E-02  0.1038413E+00
         21   -1    0    0  502  501  0.00000000000E+00  0.00000000000E+00  0.62954964041E+02  0.62954964041E+02  0.00000000000E+00 0.  1.
         21   -1    0    0  501  502 -0.00000000000E+00 -0.00000000000E+00 -0.68685137655E+03  0.68685137655E+03  0.00000000000E+00 0.  1.
      99926    2    1    2    0    0  0.00000000000E+00  0.00000000000E+00 -0.62389641251E+03  0.74980634059E+03  0.41588798353E+03 0.  0.
         25    1    3    3    0    0 -0.34115370636E+02 -0.50156233465E+02 -0.16566846589E+03  0.21627079082E+03  0.12509000000E+03 0.  0.
         25    1    3    3    0    0 -0.68897297847E+01  0.49248261409E+02 -0.17140222320E+03  0.21794285913E+03  0.12509000000E+03 0.  0.
         25    1    3    3    0    0  0.41005100420E+02  0.90797205580E+00 -0.28682572342E+03  0.31559269065E+03  0.12509000000E+03 0.  0.
<mgrwt>
<rscale>  2 0.41588798E+03</rscale>
<asrwt>0</asrwt>
<pdfrwt beam="1">  1       21 0.92580839E-02 0.41588798E+03</pdfrwt>
<pdfrwt beam="2">  1       21 0.10100755E+00 0.41588798E+03</pdfrwt>
<totfact> 0.69225067E+04</totfact>
</mgrwt>
</event>
<event>
 7    0  0.4759581E-002  0.4532101E+03  0.7546771E-02  0.1026769E+00
         21   -1    0    0  502  501  0.00000000000E+00  0.00000000000E+00  0.30092775932E+03  0.30092775932E+03  0.00000000000E+00 0.  1.
         21   -1    0    0  501  502 -0.00000000000E+00 -0.00000000000E+00 -0.17063844146E+03  0.17063844146E+03  0.00000000000E+00 0.  1.
      99926    2    1    2    0    0  0.00000000000E+00  0.00000000000E+00  0.13028931786E+03  0.47156620079E+03  0.45321007864E+03 0.  0.
      99925    2    3    3    0    0 -0.47256416432E+02  0.75950491222E+02  0.15124100460E+03  0.31636269797E+03  0.26307768659E+03 0.  0.
         25    1    3    3    0    0  0.47256416432E+02 -0.75950491222E+02 -0.20951686743E+02  0.15520350282E+03  0.12509000000E+03 0.  0.
         25    1    4    4    0    0 -0.18531205429E+01  0.70573265819E+02  0.92177699301E+02  0.17067002154E+03  0.12509000000E+03 0.  0.
         25    1    4    4    0    0 -0.45403295890E+02  0.53772254029E+01  0.59063305302E+02  0.14569267642E+03  0.12509000000E+03 0.  0.
<mgrwt>
<rscale>  2 0.45321008E+03</rscale>
<asrwt>0</asrwt>
<pdfrwt beam="1">  1       21 0.44254083E-01 0.45321008E+03</pdfrwt>
<pdfrwt beam="2">  1       21 0.25093888E-01 0.45321008E+03</pdfrwt>
<totfact> 0.68284054E+04</totfact>
</mgrwt>
</event>
<event>
 7    0  0.4759581E-002  0.4520096E+03  0.7546771E-02  0.1027124E+00
         21   -1    0    0  502  501  0.00000000000E+00  0.00000000000E+00  0.17877493666E+03  0.17877493666E+03  0.00000000000E+00 0. -1.
         21   -1    0    0  501  502 -0.00000000000E+00 -0.00000000000E+00 -0.28571217953E+03  0.28571217953E+03  0.00000000000E+00 0. -1.
      99926    2    1    2    0    0  0.14210854715E-13 -0.17763568394E-14 -0.10693724288E+03  0.46448711619E+03  0.45200963175E+03 0.  0.
      99925    2    3    3    0    0  0.68384296416E+02 -0.21671466751E+01  0.21510970184E+02  0.27258203533E+03  0.26297744319E+03 0.  0.
         25    1    4    4    0    0  0.77707205642E+01 -0.17865003676E+02 -0.16386086629E+02  0.12765404181E+03  0.12509000000E+03 0.  0.
         25    1    4    4    0    0  0.60613575851E+02  0.15697857001E+02  0.37897056814E+02  0.14492799352E+03  0.12509000000E+03 0.  0.
         25    1    3    3    0    0 -0.68384296416E+02  0.21671466751E+01 -0.12844821306E+03  0.19190508086E+03  0.12509000000E+03 0.  0.
<mgrwt>
<rscale>  2 0.45200963E+03</rscale>
<asrwt>0</asrwt>
<pdfrwt beam="1">  1       21 0.26290432E-01 0.45200963E+03</pdfrwt>
<pdfrwt beam="2">  1       21 0.42016496E-01 0.45200963E+03</pdfrwt>
<totfact> 0.69481707E+04</totfact>
</mgrwt>
</event>
<event>
 7    0  0.4759581E-002  0.4639372E+03  0.7546771E-02  0.1023645E+00
         21   -1    0    0  502  501  0.00000000000E+00  0.00000000000E+00  0.55310240085E+03  0.55310240085E+03  0.00000000000E+00 0.  1.
         21   -1    0    0  501  502 -0.00000000000E+00 -0.00000000000E+00 -0.97286572500E+02  0.97286572500E+02  0.00000000000E+00 0.  1.
      99926    2    1    2    0    0  0.14210854715E-13 -0.17763568394E-14  0.45581582835E+03  0.65038897335E+03  0.46393722343E+03 0.  0.
      99925    2    3    3    0    0  0.95120967374E+02 -0.14518663635E+02  0.38837431117E+03  0.47876538416E+03  0.26291233798E+03 0.  0.
         25    1    4    4    0    0  0.88960166004E+02 -0.35791229468E+01  0.19648390213E+03  0.24935948579E+03  0.12509000000E+03 0.  0.
         25    1    3    3    0    0 -0.95120967374E+02  0.14518663635E+02  0.67441517177E+02  0.17162358919E+03  0.12509000000E+03 0.  0.
         25    1    4    4    0    0  0.61608013696E+01 -0.10939540688E+02  0.19189040905E+03  0.22940589837E+03  0.12509000000E+03 0.  0.
<mgrwt>
<rscale>  2 0.46393722E+03</rscale>
<asrwt>0</asrwt>
<pdfrwt beam="1">  1       21 0.81338586E-01 0.46393722E+03</pdfrwt>
<pdfrwt beam="2">  1       21 0.14306849E-01 0.46393722E+03</pdfrwt>
<totfact> 0.51920204E+04</totfact>
</mgrwt>
</event>
<event>
 7    0  0.4759581E-002  0.4504660E+03  0.7546771E-02  0.1027583E+00
         21   -1    0    0  502  501  0.00000000000E+00  0.00000000000E+00  0.99602579566E+03  0.99602579566E+03  0.00000000000E+00 0. -1.
         21   -1    0    0  501  502 -0.00000000000E+00 -0.00000000000E+00 -0.50932328446E+02  0.50932328446E+02  0.00000000000E+00 0. -1.
      99926    2    1    2    0    0  0.14210854715E-13  0.00000000000E+00  0.94509346721E+03  0.10469581241E+04  0.45046603852E+03 0.  0.
      99925    2    3    3    0    0  0.86767777195E+02  0.50688425019E+02  0.69432795283E+03  0.74925220395E+03  0.26303915195E+03 0.  0.
         25    1    4    4    0    0  0.23253077353E+02  0.19134463907E+02  0.42355137756E+03  0.44266252478E+03  0.12509000000E+03 0.  0.
         25    1    4    4    0    0  0.63514699842E+02  0.31553961112E+02  0.27077657527E+03  0.30658967917E+03  0.12509000000E+03 0.  0.
         25    1    3    3    0    0 -0.86767777195E+02 -0.50688425019E+02  0.25076551438E+03  0.29770592015E+03  0.12509000000E+03 0.  0.
<mgrwt>
<rscale>  2 0.45046604E+03</rscale>
<asrwt>0</asrwt>
<pdfrwt beam="1">  1       21 0.14647437E+00 0.45046604E+03</pdfrwt>
<pdfrwt beam="2">  1       21 0.74900489E-02 0.45046604E+03</pdfrwt>
<totfact> 0.38742223E+04</totfact>
</mgrwt>
</event>
<event>
 7    0  0.4759581E-002  0.4459243E+03  0.7546771E-02  0.1028944E+00
         21   -1    0    0  502  501  0.00000000000E+00  0.00000000000E+00  0.36794805208E+02  0.36794805208E+02  0.00000000000E+00 0.  1.
         21   -1    0    0  501  502 -0.00000000000E+00 -0.00000000000E+00 -0.13510633456E+04  0.13510633456E+04  0.00000000000E+00 0.  1.
      99926    2    1    2    0    0  0.71054273576E-14  0.00000000000E+00 -0.13142685404E+04  0.13878581509E+04  0.44592426544E+03 0.  0.
      99925    2    3    3    0    0  0.41751037495E+02  0.11850384340E+01 -0.11318742789E+04  0.11627809903E+04  0.26301272741E+03 0.  0.
         25    1    4    4    0    0 -0.38329250156E-01 -0.32601745217E+02 -0.59898591371E+03  0.61277606692E+03  0.12509000000E+03 0.  0.
         25    1    3    3    0    0 -0.41751037495E+02 -0.11850384340E+01 -0.18239426152E+03  0.22507716051E+03  0.12509000000E+03 0.  0.
         25    1    4    4    0    0  0.41789366745E+02  0.33786783651E+02 -0.53288836520E+03  0.55000492343E+03  0.12509000000E+03 0.  0.
<mgrwt>
<rscale>  2 0.44592427E+03</rscale>
<asrwt>0</asrwt>
<pdfrwt beam="1">  1       21 0.54110002E-02 0.44592427E+03</pdfrwt>
<pdfrwt beam="2">  1       21 0.19868581E+00 0.44592427E+03</pdfrwt>
<totfact> 0.28623701E+04</totfact>
</mgrwt>
</event>
<event>
 7    0  0.4759581E-002  0.4556250E+03  0.7546771E-02  0.1026058E+00
         21   -1    0    0  502  501  0.00000000000E+00  0.00000000000E+00  0.61720109742E+03  0.61720109742E+03  0.00000000000E+00 0.  1.
         21   -1    0    0  501  502 -0.00000000000E+00 -0.00000000000E+00 -0.84086927318E+02  0.84086927318E+02  0.00000000000E+00 0.  1.
      99926    2    1    2    0    0 -0.71054273576E-14  0.00000000000E+00  0.53311417010E+03  0.70128802473E+03  0.45562503802E+03 0.  0.
      99925    2    3    3    0    0  0.37800360022E+02 -0.87318382166E+02  0.23964815282E+03  0.36838687052E+03  0.26310507813E+03 0.  0.
         25    1    4    4    0    0  0.52675750177E+02 -0.50288764238E+02  0.95543073967E+02  0.17343494904E+03  0.12509000000E+03 0.  0.
         25    1    4    4    0    0 -0.14875390156E+02 -0.37029617929E+02  0.14410507885E+03  0.19495192148E+03  0.12509000000E+03 0.  0.
         25    1    3    3    0    0 -0.37800360022E+02  0.87318382166E+02  0.29346601728E+03  0.33290115422E+03  0.12509000000E+03 0.  0.
<mgrwt>
<rscale>  2 0.45562504E+03</rscale>
<asrwt>0</asrwt>
<pdfrwt beam="1">  1       21 0.90764865E-01 0.45562504E+03</pdfrwt>
<pdfrwt beam="2">  1       21 0.12365725E-01 0.45562504E+03</pdfrwt>
<totfact> 0.52574002E+04</totfact>
</mgrwt>
</event>
<event>
 7    0  0.4759581E-002  0.4546705E+03  0.7546771E-02  0.1026338E+00
         21   -1    0    0  502  501  0.00000000000E+00  0.00000000000E+00  0.13517451270E+04  0.13517451270E+04  0.00000000000E+00 0.  1.
         21   -1    0    0  501  502 -0.00000000000E+00 -0.00000000000E+00 -0.38233025845E+02  0.38233025845E+02  0.00000000000E+00 0.  1.
      99926    2    1    2    0    0  0.00000000000E+00  0.00000000000E+00  0.13135121012E+04  0.13899781529E+04  0.45467045814E+03 0.  0.
      99925    2    3    3    0    0 -0.73623083664E+02 -0.68202203756E+02  0.66941845653E+03  0.72621913770E+03  0.26306133689E+03 0.  0.
         25    1    4    4    0    0 -0.73524581373E+02 -0.24608950310E+02  0.39430500418E+03  0.42087457624E+03  0.12509000000E+03 0.  0.
         25    1    4    4    0    0 -0.98502290941E-01 -0.43593253447E+02  0.27511345235E+03  0.30534456146E+03  0.12509000000E+03 0.  0.
         25    1    3    3    0    0  0.73623083664E+02  0.68202203756E+02  0.64409364464E+03  0.66375901516E+03  0.12509000000E+03 0.  0.
<mgrwt>
<rscale>  2 0.45467046E+03</rscale>
<asrwt>0</asrwt>
<pdfrwt beam="1">  1       21 0.19878602E+00 0.45467046E+03</pdfrwt>
<pdfrwt beam="2">  1       21 0.56225047E-02 0.45467046E+03</pdfrwt>
<totfact> 0.26668531E+04</totfact>
</mgrwt>
</event>
<event>
 7    0  0.4759581E-002  0.4534853E+03  0.7546771E-02  0.1026688E+00
         21   -1    0    0  502  501  0.00000000000E+00  0.00000000000E+00  0.41014483687E+03  0.41014483687E+03  0.00000000000E+00 0.  1.
         21   -1    0    0  501  502 -0.00000000000E+00 -0.00000000000E+00 -0.12535141799E+03  0.12535141799E+03  0.00000000000E+00 0.  1.
      99926    2    1    2    0    0 -0.11102230246E-14  0.00000000000E+00  0.28479341888E+03  0.53549625486E+03  0.45348533332E+03 0.  0.
      99925    2    3    3    0    0 -0.17421899382E+01 -0.88851138295E+02  0.99209028102E+02  0.29469211411E+03  0.26287535232E+03 0.  0.
         25    1    4    4    0    0 -0.17043550972E+02 -0.76599475131E+02  0.75597383213E+02  0.16589284092E+03  0.12509000000E+03 0.  0.
         25    1    4    4    0    0  0.15301361034E+02 -0.12251663165E+02  0.23611644889E+02  0.12879927319E+03  0.12509000000E+03 0.  0.
         25    1    3    3    0    0  0.17421899382E+01  0.88851138295E+02  0.18558439078E+03  0.24080414075E+03  0.12509000000E+03 0.  0.
<mgrwt>
<rscale>  2 0.45348533E+03</rscale>
<asrwt>0</asrwt>
<pdfrwt beam="1">  1       21 0.60315417E-01 0.45348533E+03</pdfrwt>
<pdfrwt beam="2">  1       21 0.18434032E-01 0.45348533E+03</pdfrwt>
<totfact> 0.63594190E+04</totfact>
</mgrwt>
</event>
<event>
 7    0  0.4759581E-002  0.4549463E+03  0.7546771E-02  0.1026257E+00
         21   -1    0    0  502  501  0.00000000000E+00  0.00000000000E+00  0.11327211848E+03  0.11327211848E+03  0.00000000000E+00 0.  1.
         21   -1    0    0  501  502 -0.00000000000E+00 -0.00000000000E+00 -0.45681168867E+03  0.45681168867E+03  0.00000000000E+00 0.  1.
      99926    2    1    2    0    0  0.00000000000E+00  0.00000000000E+00 -0.34353957019E+03  0.57008380714E+03  0.45494627252E+03 0.  0.
      99925    2    3    3    0    0 -0.89763043137E+02 -0.47849747981E+02 -0.27819731821E+03  0.39611794759E+03  0.26299938831E+03 0.  0.
         25    1    4    4    0    0 -0.20632218077E+02 -0.45462145826E+02 -0.16976348016E+03  0.21670173608E+03  0.12509000000E+03 0.  0.
         25    1    3    3    0    0  0.89763043137E+02  0.47849747981E+02 -0.65342251977E+02  0.17396585955E+03  0.12509000000E+03 0.  0.
         25    1    4    4    0    0 -0.69130825060E+02 -0.23876021546E+01 -0.10843383806E+03  0.17941621151E+03  0.12509000000E+03 0.  0.
<mgrwt>
<rscale>  2 0.45494627E+03</rscale>
<asrwt>0</asrwt>
<pdfrwt beam="1">  1       21 0.16657664E-01 0.45494627E+03</pdfrwt>
<pdfrwt beam="2">  1       21 0.67178190E-01 0.45494627E+03</pdfrwt>
<totfact> 0.60584277E+04</totfact>
</mgrwt>
</event>
<event>
 7    0  0.4759581E-002  0.4522680E+03  0.7546771E-02  0.1027048E+00
         21   -1    0    0  502  501  0.00000000000E+00  0.00000000000E+00  0.27404275374E+03  0.27404275374E+03  0.00000000000E+00 0. -1.
         21   -1    0    0  501  502 -0.00000000000E+00 -0.00000000000E+00 -0.18660072882E+03  0.18660072882E+03  0.00000000000E+00 0. -1.
      99926    2    1    2    0    0  0.00000000000E+00  0.14210854715E-13  0.87442024922E+02  0.46064348257E+03  0.45226796295E+03 0.  0.
      99925    2    3    3    0    0 -0.60031962188E+02  0.92594202207E+02  0.47945330473E+02  0.28922288947E+03  0.26300874949E+03 0.  0.
         25    1    4    4    0    0  0.85594721574E+01  0.58871188965E+02  0.27352374325E+02  0.14119044562E+03  0.12509000000E+03 0.  0.
         25    1    4    4    0    0 -0.68591434345E+02  0.33723013242E+02  0.20592956148E+02  0.14803244384E+03  0.12509000000E+03 0.  0.
         25    1    3    3    0    0  0.60031962188E+02 -0.92594202207E+02  0.39496694450E+02  0.17142059310E+03  0.12509000000E+03 0.  0.
<mgrwt>
<rscale>  2 0.45226796E+03</rscale>
<asrwt>0</asrwt>
<pdfrwt beam="1">  1       21 0.40300405E-01 0.45226796E+03</pdfrwt>
<pdfrwt beam="2">  1       21 0.27441284E-01 0.45226796E+03</pdfrwt>
<totfact> 0.69634877E+04</totfact>
</mgrwt>
</event>
<event>
 7    0  0.4759581E-002  0.4554944E+03  0.7546771E-02  0.1026096E+00
         21   -1    0    0  502  501  0.00000000000E+00  0.00000000000E+00  0.41399367637E+03  0.41399367637E+03  0.00000000000E+00 0.  1.
         21   -1    0    0  501  502 -0.00000000000E+00 -0.00000000000E+00 -0.12528882142E+03  0.12528882142E+03  0.00000000000E+00 0.  1.
      99926    2    1    2    0    0  0.35527136788E-14  0.00000000000E+00  0.28870485494E+03  0.53928249779E+03  0.45549436786E+03 0.  0.
      99925    2    3    3    0    0  0.27244618388E+02  0.98901138133E+02  0.12363834173E+03  0.30815879446E+03  0.26296710574E+03 0.  0.
         25    1    4    4    0    0 -0.13724683912E+02  0.39563786409E+02  0.90636990772E+02  0.16005071802E+03  0.12509000000E+03 0.  0.
         25    1    4    4    0    0  0.40969302300E+02  0.59337351724E+02  0.33001350958E+02  0.14810807644E+03  0.12509000000E+03 0.  0.
         25    1    3    3    0    0 -0.27244618388E+02 -0.98901138133E+02  0.16506651321E+03  0.23112370333E+03  0.12509000000E+03 0.  0.
<mgrwt>
<rscale>  2 0.45549437E+03</rscale>
<asrwt>0</asrwt>
<pdfrwt beam="1">  1       21 0.60881423E-01 0.45549437E+03</pdfrwt>
<pdfrwt beam="2">  1       21 0.18424827E-01 0.45549437E+03</pdfrwt>
<totfact> 0.62336092E+04</totfact>
</mgrwt>
</event>
<event>
 7    0  0.4759581E-002  0.4530008E+03  0.7546771E-02  0.1026831E+00
         21   -1    0    0  502  501  0.00000000000E+00  0.00000000000E+00  0.97628961604E+03  0.97628961604E+03  0.00000000000E+00 0.  1.
         21   -1    0    0  501  502 -0.00000000000E+00 -0.00000000000E+00 -0.52548374185E+02  0.52548374185E+02  0.00000000000E+00 0.  1.
      99926    2    1    2    0    0  0.00000000000E+00  0.00000000000E+00  0.92374124185E+03  0.10288379902E+04  0.45300080378E+03 0.  0.
      99925    2    3    3    0    0  0.48892242830E+02  0.80925299464E+02  0.71607930290E+03  0.76862587580E+03  0.26282468188E+03 0.  0.
         25    1    4    4    0    0  0.19107646047E+01  0.27822773018E+02  0.42607710691E+03  0.44493478944E+03  0.12509000000E+03 0.  0.
         25    1    3    3    0    0 -0.48892242830E+02 -0.80925299464E+02  0.20766193895E+03  0.26021211442E+03  0.12509000000E+03 0.  0.
         25    1    4    4    0    0  0.46981478225E+02  0.53102526446E+02  0.29000219599E+03  0.32369108636E+03  0.12509000000E+03 0.  0.
<mgrwt>
<rscale>  2 0.45300080E+03</rscale>
<asrwt>0</asrwt>
<pdfrwt beam="1">  1       21 0.14357199E+00 0.45300080E+03</pdfrwt>
<pdfrwt beam="2">  1       21 0.77277027E-02 0.45300080E+03</pdfrwt>
<totfact> 0.38663540E+04</totfact>
</mgrwt>
</event>
<event>
 7    0  0.4759581E-002  0.4622270E+03  0.7546771E-02  0.1024137E+00
         21   -1    0    0  502  501  0.00000000000E+00  0.00000000000E+00  0.64876346423E+02  0.64876346423E+02  0.00000000000E+00 0. -1.
         21   -1    0    0  501  502 -0.00000000000E+00 -0.00000000000E+00 -0.82331163342E+03  0.82331163342E+03  0.00000000000E+00 0. -1.
      99926    2    1    2    0    0  0.00000000000E+00  0.00000000000E+00 -0.75843528700E+03  0.88818797985E+03  0.46222700373E+03 0.  0.
      99925    2    3    3    0    0 -0.50377665177E+02 -0.36829689533E+02 -0.67078098319E+03  0.72318761543E+03  0.26298073033E+03 0.  0.
         25    1    4    4    0    0 -0.62039932799E+02 -0.15753491590E+02 -0.39935928835E+03  0.42335856558E+03  0.12509000000E+03 0.  0.
         25    1    4    4    0    0  0.11662267622E+02 -0.21076197942E+02 -0.27142169484E+03  0.29982904985E+03  0.12509000000E+03 0.  0.
         25    1    3    3    0    0  0.50377665177E+02  0.36829689533E+02 -0.87654303810E+02  0.16500036441E+03  0.12509000000E+03 0.  0.
<mgrwt>
<rscale>  2 0.46222700E+03</rscale>
<asrwt>0</asrwt>
<pdfrwt beam="1">  1       21 0.95406395E-02 0.46222700E+03</pdfrwt>
<pdfrwt beam="2">  1       21 0.12107524E+00 0.46222700E+03</pdfrwt>
<totfact> 0.41357598E+04</totfact>
</mgrwt>
</event>
<event>
 7    0  0.4759581E-002  0.4561309E+03  0.7546771E-02  0.1025909E+00
         21   -1    0    0  502  501  0.00000000000E+00  0.00000000000E+00  0.10428102813E+04  0.10428102813E+04  0.00000000000E+00 0.  1.
         21   -1    0    0  501  502 -0.00000000000E+00 -0.00000000000E+00 -0.49878529363E+02  0.49878529363E+02  0.00000000000E+00 0.  1.
      99926    2    1    2    0    0 -0.11102230246E-14 -0.71054273576E-14  0.99293175190E+03  0.10926888106E+04  0.45613087260E+03 0.  0.
      99925    2    3    3    0    0  0.17731666115E+01  0.47009237584E+02  0.87347759905E+03  0.91344089496E+03  0.26305539341E+03 0.  0.
         25    1    4    4    0    0  0.18484654392E+02 -0.13634044305E+02  0.42279187753E+03  0.44150656781E+03  0.12509000000E+03 0.  0.
         25    1    3    3    0    0 -0.17731666115E+01 -0.47009237584E+02  0.11945415285E+03  0.17924791567E+03  0.12509000000E+03 0.  0.
         25    1    4    4    0    0 -0.16711487781E+02  0.60643281889E+02  0.45068572152E+03  0.47193432715E+03  0.12509000000E+03 0.  0.
<mgrwt>
<rscale>  2 0.45613087E+03</rscale>
<asrwt>0</asrwt>
<pdfrwt beam="1">  1       21 0.15335444E+00 0.45613087E+03</pdfrwt>
<pdfrwt beam="2">  1       21 0.73350785E-02 0.45613087E+03</pdfrwt>
<totfact> 0.35435150E+04</totfact>
</mgrwt>
</event>
<event>
 7    0  0.4759581E-002  0.4555995E+03  0.7546771E-02  0.1026065E+00
         21   -1    0    0  502  501  0.00000000000E+00  0.00000000000E+00  0.16050359405E+03  0.16050359405E+03  0.00000000000E+00 0. -1.
         21   -1    0    0  501  502 -0.00000000000E+00 -0.00000000000E+00 -0.32331198257E+03  0.32331198257E+03  0.00000000000E+00 0. -1.
      99926    2    1    2    0    0  0.14210854715E-13 -0.17763568394E-14 -0.16280838852E+03  0.48381557662E+03  0.45559953996E+03 0.  0.
      99925    2    3    3    0    0  0.86959820128E+02  0.13057598884E+02 -0.17885237392E+03  0.33007088965E+03  0.26310855047E+03 0.  0.
         25    1    4    4    0    0  0.82715729632E+02 -0.93709126930E+01 -0.97388289033E+02  0.17905779199E+03  0.12509000000E+03 0.  0.
         25    1    3    3    0    0 -0.86959820128E+02 -0.13057598884E+02  0.16043985401E+02  0.15374468697E+03  0.12509000000E+03 0.  0.
         25    1    4    4    0    0  0.42440904960E+01  0.22428511577E+02 -0.81464084890E+02  0.15101309765E+03  0.12509000000E+03 0.  0.
<mgrwt>
<rscale>  2 0.45559954E+03</rscale>
<asrwt>0</asrwt>
<pdfrwt beam="1">  1       21 0.23603470E-01 0.45559954E+03</pdfrwt>
<pdfrwt beam="2">  1       21 0.47545880E-01 0.45559954E+03</pdfrwt>
<totfact> 0.66108204E+04</totfact>
</mgrwt>
</event>
<event>
 7    0  0.4759581E-002  0.4361941E+03  0.7546771E-02  0.1031921E+00
         21   -1    0    0  502  501  0.00000000000E+00  0.00000000000E+00  0.31938560130E+03  0.31938560130E+03  0.00000000000E+00 0. -1.
         21   -1    0    0  501  502 -0.00000000000E+00 -0.00000000000E+00 -0.14893073866E+03  0.14893073866E+03  0.00000000000E+00 0. -1.
      99926    2    1    2    0    0  0.00000000000E+00  0.00000000000E+00  0.17045486264E+03  0.46831633996E+03  0.43619414723E+03 0.  0.
      99925    2    3    3    0    0  0.84775168436E+02  0.41492204270E+02  0.10855177301E+03  0.29982915111E+03  0.26306957300E+03 0.  0.
         25    1    4    4    0    0  0.53340593079E+02  0.18863382685E+02  0.13363844581E+02  0.13793892314E+03  0.12509000000E+03 0.  0.
         25    1    3    3    0    0 -0.84775168436E+02 -0.41492204270E+02  0.61903089631E+02  0.16848718884E+03  0.12509000000E+03 0.  0.
         25    1    4    4    0    0  0.31434575357E+02  0.22628821585E+02  0.95187928426E+02  0.16189022797E+03  0.12509000000E+03 0.  0.
<mgrwt>
<rscale>  2 0.43619415E+03</rscale>
<asrwt>0</asrwt>
<pdfrwt beam="1">  1       21 0.46968471E-01 0.43619415E+03</pdfrwt>
<pdfrwt beam="2">  1       21 0.21901579E-01 0.43619415E+03</pdfrwt>
<totfact> 0.78662695E+04</totfact>
</mgrwt>
</event>
<event>
 7    0  0.4759581E-002  0.4543622E+03  0.7546771E-02  0.1026429E+00
         21   -1    0    0  502  501  0.00000000000E+00  0.00000000000E+00  0.45041999984E+03  0.45041999984E+03  0.00000000000E+00 0.  1.
         21   -1    0    0  501  502 -0.00000000000E+00 -0.00000000000E+00 -0.11458470340E+03  0.11458470340E+03  0.00000000000E+00 0.  1.
      99926    2    1    2    0    0  0.00000000000E+00  0.71054273576E-14  0.33583529644E+03  0.56500470325E+03  0.45436215551E+03 0.  0.
      99925    2    3    3    0    0  0.38017041316E+02 -0.39826023410E+02  0.33375355969E+03  0.42831802029E+03  0.26274223171E+03 0.  0.
         25    1    4    4    0    0  0.27476589292E+02  0.11738753818E+02  0.12512672086E+03  0.17943512943E+03  0.12509000000E+03 0.  0.
         25    1    3    3    0    0 -0.38017041316E+02  0.39826023410E+02  0.20817367472E+01  0.13668668296E+03  0.12509000000E+03 0.  0.
         25    1    4    4    0    0  0.10540452025E+02 -0.51564777229E+02  0.20862683884E+03  0.24888289086E+03  0.12509000000E+03 0.  0.
<mgrwt>
<rscale>  2 0.45436216E+03</rscale>
<asrwt>0</asrwt>
<pdfrwt beam="1">  1       21 0.66238235E-01 0.45436216E+03</pdfrwt>
<pdfrwt beam="2">  1       21 0.16850692E-01 0.45436216E+03</pdfrwt>
<totfact> 0.61193860E+04</totfact>
</mgrwt>
</event>
<event>
 7    0  0.4759581E-002  0.4546237E+03  0.7546771E-02  0.1026352E+00
         21   -1    0    0  502  501  0.00000000000E+00  0.00000000000E+00  0.49003014483E+03  0.49003014483E+03  0.00000000000E+00 0.  1.
         21   -1    0    0  501  502 -0.00000000000E+00 -0.00000000000E+00 -0.10544387703E+03  0.10544387703E+03  0.00000000000E+00 0.  1.
      99926    2    1    2    0    0  0.00000000000E+00  0.00000000000E+00  0.38458626780E+03  0.59547402186E+03  0.45462370520E+03 0.  0.
      99925    2    3    3    0    0 -0.16889503480E+02 -0.10667175867E+03  0.19983065051E+03  0.34759044910E+03  0.26310209424E+03 0.  0.
         25    1    4    4    0    0 -0.35339672626E+02 -0.79474095443E+02  0.13180036867E+03  0.20145438588E+03  0.12509000000E+03 0.  0.
         25    1    3    3    0    0  0.16889503480E+02  0.10667175867E+03  0.18475561729E+03  0.24788357276E+03  0.12509000000E+03 0.  0.
         25    1    4    4    0    0  0.18450169146E+02 -0.27197663232E+02  0.68030281843E+02  0.14613606322E+03  0.12509000000E+03 0.  0.
<mgrwt>
<rscale>  2 0.45462371E+03</rscale>
<asrwt>0</asrwt>
<pdfrwt beam="1">  1       21 0.72063255E-01 0.45462371E+03</pdfrwt>
<pdfrwt beam="2">  1       21 0.15506453E-01 0.45462371E+03</pdfrwt>
<totfact> 0.59133363E+04</totfact>
</mgrwt>
</event>
<event>
 7    0  0.4759581E-002  0.4603721E+03  0.7546771E-02  0.1024673E+00
         21   -1    0    0  502  501  0.00000000000E+00  0.00000000000E+00  0.23273049201E+04  0.23273049201E+04  0.00000000000E+00 0. -1.
         21   -1    0    0  501  502 -0.00000000000E+00 -0.00000000000E+00 -0.22766943135E+02  0.22766943135E+02  0.00000000000E+00 0. -1.
      99926    2    1    2    0    0  0.00000000000E+00  0.00000000000E+00  0.23045379770E+04  0.23500718633E+04  0.46037210504E+03 0.  0.
      99925    2    3    3    0    0  0.99311927525E+02  0.61298122469E+02  0.15369748044E+04  0.15636743488E+04  0.26299353775E+03 0.  0.
         25    1    4    4    0    0  0.72854963428E+02  0.47345860248E+01  0.89580866366E+03  0.90744197169E+03  0.12509000000E+03 0.  0.
         25    1    3    3    0    0 -0.99311927525E+02 -0.61298122469E+02  0.76756317258E+03  0.78639751447E+03  0.12509000000E+03 0.  0.
         25    1    4    4    0    0  0.26456964097E+02  0.56563536444E+02  0.64116614077E+03  0.65623237712E+03  0.12509000000E+03 0.  0.
<mgrwt>
<rscale>  2 0.46037211E+03</rscale>
<asrwt>0</asrwt>
<pdfrwt beam="1">  1       21 0.34225056E+00 0.46037211E+03</pdfrwt>
<pdfrwt beam="2">  1       21 0.33480815E-02 0.46037211E+03</pdfrwt>
<totfact> 0.84325655E+03</totfact>
</mgrwt>
</event>
<event>
 7    0  0.4759581E-002  0.4361203E+03  0.7546771E-02  0.1031944E+00
         21   -1    0    0  502  501  0.00000000000E+00  0.00000000000E+00  0.45549782084E+03  0.45549782084E+03  0.00000000000E+00 0. -1.
         21   -1    0    0  501  502 -0.00000000000E+00 -0.00000000000E+00 -0.10439178111E+03  0.10439178111E+03  0.00000000000E+00 0. -1.
      99926    2    1    2    0    0 -0.14210854715E-13  0.00000000000E+00  0.35110603973E+03  0.55988960195E+03  0.43612029904E+03 0.  0.
      99925    2    3    3    0    0 -0.64810107784E+02  0.65654904677E+02  0.20217479598E+03  0.34462478819E+03  0.26340212589E+03 0.  0.
         25    1    3    3    0    0  0.64810107784E+02 -0.65654904677E+02  0.14893124375E+03  0.21526481376E+03  0.12509000000E+03 0.  0.
         25    1    4    4    0    0 -0.62375788376E+02  0.21530710147E+02  0.71760806496E+02  0.15859202976E+03  0.12509000000E+03 0.  0.
         25    1    4    4    0    0 -0.24343194086E+01  0.44124194530E+02  0.13041398949E+03  0.18603275843E+03  0.12509000000E+03 0.  0.
<mgrwt>
<rscale>  2 0.43612030E+03</rscale>
<asrwt>0</asrwt>
<pdfrwt beam="1">  1       21 0.66984973E-01 0.43612030E+03</pdfrwt>
<pdfrwt beam="2">  1       21 0.15351733E-01 0.43612030E+03</pdfrwt>
<totfact> 0.71280598E+04</totfact>
</mgrwt>
</event>
<event>
 7    0  0.4759581E-002  0.4314303E+03  0.7546771E-02  0.1033409E+00
         21   -1    0    0  502  501  0.00000000000E+00  0.00000000000E+00  0.46701558127E+03  0.46701558127E+03  0.00000000000E+00 0.  1.
         21   -1    0    0  501  502 -0.00000000000E+00 -0.00000000000E+00 -0.99639140408E+02  0.99639140408E+02  0.00000000000E+00 0.  1.
      99926    2    1    2    0    0  0.00000000000E+00  0.00000000000E+00  0.36737644086E+03  0.56665472168E+03  0.43143032380E+03 0.  0.
      99925    2    3    3    0    0  0.50481764001E+02  0.68662351651E+02  0.20119160347E+03  0.34187074692E+03  0.26293462925E+03 0.  0.
         25    1    4    4    0    0 -0.10330846533E+01  0.44955172040E+01  0.74009518375E+02  0.14541730932E+03  0.12509000000E+03 0.  0.
         25    1    3    3    0    0 -0.50481764001E+02 -0.68662351651E+02  0.16618483739E+03  0.22478397476E+03  0.12509000000E+03 0.  0.
         25    1    4    4    0    0  0.51514848655E+02  0.64166834447E+02  0.12718208510E+03  0.19645343760E+03  0.12509000000E+03 0.  0.
<mgrwt>
<rscale>  2 0.43143032E+03</rscale>
<asrwt>0</asrwt>
<pdfrwt beam="1">  1       21 0.68678761E-01 0.43143032E+03</pdfrwt>
<pdfrwt beam="2">  1       21 0.14652815E-01 0.43143032E+03</pdfrwt>
<totfact> 0.73561208E+04</totfact>
</mgrwt>
</event>
<event>
 7    0  0.4759581E-002  0.4399338E+03  0.7546771E-02  0.1030767E+00
         21   -1    0    0  502  501  0.00000000000E+00  0.00000000000E+00  0.50867041348E+03  0.50867041348E+03  0.00000000000E+00 0. -1.
         21   -1    0    0  501  502 -0.00000000000E+00 -0.00000000000E+00 -0.95121394580E+02  0.95121394580E+02  0.00000000000E+00 0. -1.
      99926    2    1    2    0    0  0.00000000000E+00 -0.71054273576E-14  0.41354901890E+03  0.60379180806E+03  0.43993380917E+03 0.  0.
      99925    2    3    3    0    0  0.79223935897E+02 -0.36186126305E+02  0.20116237917E+03  0.34236981091E+03  0.26299223729E+03 0.  0.
         25    1    4    4    0    0  0.60306953143E+02  0.13435863671E+02  0.12040905399E+03  0.18429134384E+03  0.12509000000E+03 0.  0.
         25    1    4    4    0    0  0.18916982754E+02 -0.49621989977E+02  0.80753325176E+02  0.15807846707E+03  0.12509000000E+03 0.  0.
         25    1    3    3    0    0 -0.79223935897E+02  0.36186126305E+02  0.21238663973E+03  0.26142199715E+03  0.12509000000E+03 0.  0.
<mgrwt>
<rscale>  2 0.43993381E+03</rscale>
<asrwt>0</asrwt>
<pdfrwt beam="1">  1       21 0.74804471E-01 0.43993381E+03</pdfrwt>
<pdfrwt beam="2">  1       21 0.13988441E-01 0.43993381E+03</pdfrwt>
<totfact> 0.65951405E+04</totfact>
</mgrwt>
</event>
<event>
 7    0  0.4759581E-002  0.4530930E+03  0.7546771E-02  0.1026804E+00
         21   -1    0    0  502  501  0.00000000000E+00  0.00000000000E+00  0.45908289687E+02  0.45908289687E+02  0.00000000000E+00 0.  1.
         21   -1    0    0  501  502 -0.00000000000E+00 -0.00000000000E+00 -0.11179530197E+04  0.11179530197E+04  0.00000000000E+00 0.  1.
      99926    2    1    2    0    0  0.00000000000E+00  0.00000000000E+00 -0.10720447300E+04  0.11638613094E+04  0.45309297538E+03 0.  0.
      99925    2    3    3    0    0 -0.21473178556E+02 -0.10521923247E+03 -0.75172288013E+03  0.80360337416E+03  0.26298081712E+03 0.  0.
         25    1    3    3    0    0  0.21473178556E+02  0.10521923247E+03 -0.32032184989E+03  0.36025793523E+03  0.12509000000E+03 0.  0.
         25    1    4    4    0    0  0.23880961401E+02 -0.29764368016E+02 -0.36545307778E+03  0.38814904107E+03  0.12509000000E+03 0.  0.
         25    1    4    4    0    0 -0.45354139957E+02 -0.75454864459E+02 -0.38626980235E+03  0.41545433309E+03  0.12509000000E+03 0.  0.
<mgrwt>
<rscale>  2 0.45309298E+03</rscale>
<asrwt>0</asrwt>
<pdfrwt beam="1">  1       21 0.67512186E-02 0.45309298E+03</pdfrwt>
<pdfrwt beam="2">  1       21 0.16440487E+00 0.45309298E+03</pdfrwt>
<totfact> 0.33822762E+04</totfact>
</mgrwt>
</event>
<event>
 7    0  0.4759581E-002  0.4547510E+03  0.7546771E-02  0.1026315E+00
         21   -1    0    0  502  501  0.00000000000E+00  0.00000000000E+00  0.62288574180E+02  0.62288574180E+02  0.00000000000E+00 0.  1.
         21   -1    0    0  501  502 -0.00000000000E+00 -0.00000000000E+00 -0.83000175447E+03  0.83000175447E+03  0.00000000000E+00 0.  1.
      99926    2    1    2    0    0 -0.88817841970E-15 -0.14210854715E-13 -0.76771318029E+03  0.89229032865E+03  0.45475103454E+03 0.  0.
      99925    2    3    3    0    0  0.43705749751E+01  0.73296814424E+02 -0.31350681644E+03  0.41548590963E+03  0.26258425737E+03 0.  0.
         25    1    3    3    0    0 -0.43705749751E+01 -0.73296814424E+02 -0.45420636386E+03  0.47680441902E+03  0.12509000000E+03 0.  0.
         25    1    4    4    0    0  0.13200730693E+02  0.12157109980E+01 -0.17242844501E+03  0.21343573738E+03  0.12509000000E+03 0.  0.
         25    1    4    4    0    0 -0.88301557181E+01  0.72081103426E+02 -0.14107837143E+03  0.20205017225E+03  0.12509000000E+03 0.  0.
<mgrwt>
<rscale>  2 0.45475103E+03</rscale>
<asrwt>0</asrwt>
<pdfrwt beam="1">  1       21 0.91600847E-02 0.45475103E+03</pdfrwt>
<pdfrwt beam="2">  1       21 0.12205908E+00 0.45475103E+03</pdfrwt>
<totfact> 0.43653745E+04</totfact>
</mgrwt>
</event>
<event>
 7    0  0.4759581E-002  0.4535372E+03  0.7546771E-02  0.1026672E+00
         21   -1    0    0  502  501  0.00000000000E+00  0.00000000000E+00  0.29288632380E+03  0.29288632380E+03  0.00000000000E+00 0. -1.
         21   -1    0    0  501  502 -0.00000000000E+00 -0.00000000000E+00 -0.17557667382E+03  0.17557667382E+03  0.00000000000E+00 0. -1.
      99926    2    1    2    0    0  0.00000000000E+00  0.14210854715E-13  0.11730964998E+03  0.46846299762E+03  0.45353723789E+03 0.  0.
      99925    2    3    3    0    0 -0.80692840886E+02  0.77189919847E+02  0.79362994293E+02  0.29654128557E+03  0.26299929826E+03 0.  0.
         25    1    4    4    0    0 -0.28829788563E+02 -0.28909131054E+01  0.35856037942E+02  0.13331420646E+03  0.12509000000E+03 0.  0.
         25    1    4    4    0    0 -0.51863052323E+02  0.80080832952E+02  0.43506956352E+02  0.16322707911E+03  0.12509000000E+03 0.  0.
         25    1    3    3    0    0  0.80692840886E+02 -0.77189919847E+02  0.37946655690E+02  0.17192171205E+03  0.12509000000E+03 0.  0.
<mgrwt>
<rscale>  2 0.45353724E+03</rscale>
<asrwt>0</asrwt>
<pdfrwt beam="1">  1       21 0.43071518E-01 0.45353724E+03</pdfrwt>
<pdfrwt beam="2">  1       21 0.25820099E-01 0.45353724E+03</pdfrwt>
<totfact> 0.68339782E+04</totfact>
</mgrwt>
</event>
<event>
 7    0  0.4759581E-002  0.4437486E+03  0.7546771E-02  0.1029603E+00
         21   -1    0    0  502  501  0.00000000000E+00  0.00000000000E+00  0.19571501692E+03  0.19571501692E+03  0.00000000000E+00 0.  1.
         21   -1    0    0  501  502 -0.00000000000E+00 -0.00000000000E+00 -0.25153001610E+03  0.25153001610E+03  0.00000000000E+00 0.  1.
      99926    2    1    2    0    0 -0.88817841970E-15  0.14210854715E-13 -0.55814999184E+02  0.44724503303E+03  0.44374858358E+03 0.  0.
      99925    2    3    3    0    0 -0.51611877947E+01  0.97907513190E+02 -0.64847385732E+02  0.28805454617E+03  0.26297855261E+03 0.  0.
         25    1    3    3    0    0  0.51611877947E+01 -0.97907513190E+02  0.90323865479E+01  0.15919048686E+03  0.12509000000E+03 0.  0.
         25    1    4    4    0    0  0.32970381845E+02  0.62356333083E+02 -0.48387905264E+02  0.15153961802E+03  0.12509000000E+03 0.  0.
         25    1    4    4    0    0 -0.38131569640E+02  0.35551180107E+02 -0.16459480468E+02  0.13651492815E+03  0.12509000000E+03 0.  0.
<mgrwt>
<rscale>  2 0.44374858E+03</rscale>
<asrwt>0</asrwt>
<pdfrwt beam="1">  1       21 0.28781620E-01 0.44374858E+03</pdfrwt>
<pdfrwt beam="2">  1       21 0.36989708E-01 0.44374858E+03</pdfrwt>
<totfact> 0.75686945E+04</totfact>
</mgrwt>
</event>
<event>
 7    0  0.4759581E-002  0.4545550E+03  0.7546771E-02  0.1026372E+00
         21   -1    0    0  502  501  0.00000000000E+00  0.00000000000E+00  0.81287834016E+03  0.81287834016E+03  0.00000000000E+00 0.  1.
         21   -1    0    0  501  502 -0.00000000000E+00 -0.00000000000E+00 -0.63545869606E+02  0.63545869606E+02  0.00000000000E+00 0.  1.
      99926    2    1    2    0    0 -0.35527136788E-14  0.00000000000E+00  0.74933247055E+03  0.87642420976E+03  0.45455499561E+03 0.  0.
      99925    2    3    3    0    0 -0.20107616435E+02 -0.17894041992E+02  0.68273911097E+03  0.73217894427E+03  0.26311366327E+03 0.  0.
         25    1    3    3    0    0  0.20107616435E+02  0.17894041992E+02  0.66593359578E+02  0.14424526549E+03  0.12509000000E+03 0.  0.
         25    1    4    4    0    0 -0.20687803247E+02 -0.27444868727E+02  0.44293004323E+03  0.46153627952E+03  0.12509000000E+03 0.  0.
         25    1    4    4    0    0  0.58018681216E+00  0.95508267351E+01  0.23980906775E+03  0.27064266475E+03  0.12509000000E+03 0.  0.
<mgrwt>
<rscale>  2 0.45455500E+03</rscale>
<asrwt>0</asrwt>
<pdfrwt beam="1">  1       21 0.11954093E+00 0.45455500E+03</pdfrwt>
<pdfrwt beam="2">  1       21 0.93449813E-02 0.45455500E+03</pdfrwt>
<totfact> 0.44423389E+04</totfact>
</mgrwt>
</event>
<event>
 7    0  0.4759581E-002  0.4551941E+03  0.7546771E-02  0.1026184E+00
         21   -1    0    0  502  501  0.00000000000E+00  0.00000000000E+00  0.47613194428E+03  0.47613194428E+03  0.00000000000E+00 0. -1.
         21   -1    0    0  501  502 -0.00000000000E+00 -0.00000000000E+00 -0.10879426068E+03  0.10879426068E+03  0.00000000000E+00 0. -1.
      99926    2    1    2    0    0  0.71054273576E-14 -0.14210854715E-13  0.36733768360E+03  0.58492620496E+03  0.45519412503E+03 0.  0.
      99925    2    3    3    0    0  0.53575880351E+02 -0.91090328922E+02  0.17601988656E+03  0.33309723415E+03  0.26230315277E+03 0.  0.
         25    1    4    4    0    0  0.12507040542E+02 -0.67670672120E+01  0.88851769603E+02  0.15409206444E+03  0.12509000000E+03 0.  0.
         25    1    4    4    0    0  0.41068839809E+02 -0.84323261710E+02  0.87168116953E+02  0.17900516971E+03  0.12509000000E+03 0.  0.
         25    1    3    3    0    0 -0.53575880351E+02  0.91090328922E+02  0.19131779704E+03  0.25182897082E+03  0.12509000000E+03 0.  0.
<mgrwt>
<rscale>  2 0.45519413E+03</rscale>
<asrwt>0</asrwt>
<pdfrwt beam="1">  1       21 0.70019403E-01 0.45519413E+03</pdfrwt>
<pdfrwt beam="2">  1       21 0.15999156E-01 0.45519413E+03</pdfrwt>
<totfact> 0.59524432E+04</totfact>
</mgrwt>
</event>
<event>
 7    0  0.4759581E-002  0.4623777E+03  0.7546771E-02  0.1024094E+00
         21   -1    0    0  502  501  0.00000000000E+00  0.00000000000E+00  0.90250069403E+03  0.90250069403E+03  0.00000000000E+00 0. -1.
         21   -1    0    0  501  502 -0.00000000000E+00 -0.00000000000E+00 -0.59222425540E+02  0.59222425540E+02  0.00000000000E+00 0. -1.
      99926    2    1    2    0    0  0.00000000000E+00  0.00000000000E+00  0.84327826849E+03  0.96172311957E+03  0.46237768178E+03 0.  0.
      99925    2    3    3    0    0 -0.57018296898E+02 -0.10426500131E+03  0.49832904478E+03  0.57602926207E+03  0.26335450861E+03 0.  0.
         25    1    4    4    0    0 -0.51065507529E+02 -0.89781647758E+02  0.29924313678E+03  0.34038565384E+03  0.12509000000E+03 0.  0.
         25    1    3    3    0    0  0.57018296898E+02  0.10426500131E+03  0.34494922371E+03  0.38569385750E+03  0.12509000000E+03 0.  0.
         25    1    4    4    0    0 -0.59527893688E+01 -0.14483353549E+02  0.19908590801E+03  0.23564360823E+03  0.12509000000E+03 0.  0.
<mgrwt>
<rscale>  2 0.46237768E+03</rscale>
<asrwt>0</asrwt>
<pdfrwt beam="1">  1       21 0.13272068E+00 0.46237768E+03</pdfrwt>
<pdfrwt beam="2">  1       21 0.87091807E-02 0.46237768E+03</pdfrwt>
<totfact> 0.38405962E+04</totfact>
</mgrwt>
</event>
<event>
 7    0  0.4759581E-002  0.4545372E+03  0.7546771E-02  0.1026378E+00
         21   -1    0    0  502  501  0.00000000000E+00  0.00000000000E+00  0.20314438572E+03  0.20314438572E+03  0.00000000000E+00 0.  1.
         21   -1    0    0  501  502 -0.00000000000E+00 -0.00000000000E+00 -0.25425764634E+03  0.25425764634E+03  0.00000000000E+00 0.  1.
      99926    2    1    2    0    0 -0.14210854715E-13  0.00000000000E+00 -0.51113260617E+02  0.45740203205E+03  0.45453718606E+03 0.  0.
      99925    2    3    3    0    0  0.73332818406E+02 -0.82754714426E+02 -0.51930456997E+02  0.29044628664E+03  0.26350754837E+03 0.  0.
         25    1    4    4    0    0 -0.16964920205E+01 -0.20599821951E+02 -0.15228365152E+02  0.12769746260E+03  0.12509000000E+03 0.  0.
         25    1    3    3    0    0 -0.73332818406E+02  0.82754714426E+02  0.81719638016E+00  0.16695574541E+03  0.12509000000E+03 0.  0.
         25    1    4    4    0    0  0.75029310426E+02 -0.62154892475E+02 -0.36702091845E+02  0.16274882404E+03  0.12509000000E+03 0.  0.
<mgrwt>
<rscale>  2 0.45453719E+03</rscale>
<asrwt>0</asrwt>
<pdfrwt beam="1">  1       21 0.29874175E-01 0.45453719E+03</pdfrwt>
<pdfrwt beam="2">  1       21 0.37390830E-01 0.45453719E+03</pdfrwt>
<totfact> 0.68623155E+04</totfact>
</mgrwt>
</event>
<event>
 7    0  0.4759581E-002  0.4552596E+03  0.7546771E-02  0.1026165E+00
         21   -1    0    0  502  501  0.00000000000E+00  0.00000000000E+00  0.58381628753E+02  0.58381628753E+02  0.00000000000E+00 0. -1.
         21   -1    0    0  501  502 -0.00000000000E+00 -0.00000000000E+00 -0.88752797612E+03  0.88752797612E+03  0.00000000000E+00 0. -1.
      99926    2    1    2    0    0  0.00000000000E+00  0.00000000000E+00 -0.82914634737E+03  0.94590960487E+03  0.45525961301E+03 0.  0.
      99925    2    3    3    0    0 -0.29446338282E+02  0.10917544362E+03 -0.50297888431E+03  0.57873241824E+03  0.26297735555E+03 0.  0.
         25    1    3    3    0    0  0.29446338282E+02 -0.10917544362E+03 -0.32616746306E+03  0.36717718664E+03  0.12509000000E+03 0.  0.
         25    1    4    4    0    0 -0.38100027243E+02  0.73249223295E+02 -0.20970556022E+03  0.25776149999E+03  0.12509000000E+03 0.  0.
         25    1    4    4    0    0  0.86536889616E+01  0.35926220323E+02 -0.29327332409E+03  0.32097091825E+03  0.12509000000E+03 0.  0.
<mgrwt>
<rscale>  2 0.45525961E+03</rscale>
<asrwt>0</asrwt>
<pdfrwt beam="1">  1       21 0.85855340E-02 0.45525961E+03</pdfrwt>
<pdfrwt beam="2">  1       21 0.13051881E+00 0.45525961E+03</pdfrwt>
<totfact> 0.41223123E+04</totfact>
</mgrwt>
</event>
<event>
 7    0  0.4759581E-002  0.4616475E+03  0.7546771E-02  0.1024304E+00
         21   -1    0    0  502  501  0.00000000000E+00  0.00000000000E+00  0.13435519966E+03  0.13435519966E+03  0.00000000000E+00 0. -1.
         21   -1    0    0  501  502 -0.00000000000E+00 -0.00000000000E+00 -0.39655783252E+03  0.39655783252E+03  0.00000000000E+00 0. -1.
      99926    2    1    2    0    0  0.00000000000E+00  0.00000000000E+00 -0.26220263286E+03  0.53091303218E+03  0.46164751387E+03 0.  0.
      99925    2    3    3    0    0 -0.82046684026E+02 -0.52570746204E+02 -0.24310378055E+03  0.37120199319E+03  0.26305157273E+03 0.  0.
         25    1    4    4    0    0 -0.21930286907E+02 -0.61493179826E+02 -0.13163807162E+03  0.19297263705E+03  0.12509000000E+03 0.  0.
         25    1    4    4    0    0 -0.60116397119E+02  0.89224336226E+01 -0.11146570893E+03  0.17822935614E+03  0.12509000000E+03 0.  0.
         25    1    3    3    0    0  0.82046684026E+02  0.52570746204E+02 -0.19098852305E+02  0.15971103899E+03  0.12509000000E+03 0.  0.
<mgrwt>
<rscale>  2 0.46164751E+03</rscale>
<asrwt>0</asrwt>
<pdfrwt beam="1">  1       21 0.19758118E-01 0.46164751E+03</pdfrwt>
<pdfrwt beam="2">  1       21 0.58317328E-01 0.46164751E+03</pdfrwt>
<totfact> 0.59924364E+04</totfact>
</mgrwt>
</event>
<event>
 7    0  0.4759581E-002  0.4554988E+03  0.7546771E-02  0.1026095E+00
         21   -1    0    0  502  501  0.00000000000E+00  0.00000000000E+00  0.10436212620E+03  0.10436212620E+03  0.00000000000E+00 0.  1.
         21   -1    0    0  501  502 -0.00000000000E+00 -0.00000000000E+00 -0.49701732639E+03  0.49701732639E+03  0.00000000000E+00 0.  1.
      99926    2    1    2    0    0  0.00000000000E+00  0.17763568394E-14 -0.39265520019E+03  0.60137945259E+03  0.45549878130E+03 0.  0.
      99925    2    3    3    0    0  0.75271884051E+02  0.65393516164E+01 -0.13490553446E+03  0.30508396169E+03  0.26299829049E+03 0.  0.
         25    1    3    3    0    0 -0.75271884051E+02 -0.65393516164E+01 -0.25774966572E+03  0.29629549090E+03  0.12509000000E+03 0.  0.
         25    1    4    4    0    0  0.74797400563E+02 -0.13243088054E+02 -0.61871368673E+02  0.15888865559E+03  0.12509000000E+03 0.  0.
         25    1    4    4    0    0  0.47448348807E+00  0.19782439671E+02 -0.73034165791E+02  0.14619530610E+03  0.12509000000E+03 0.  0.
<mgrwt>
<rscale>  2 0.45549878E+03</rscale>
<asrwt>0</asrwt>
<pdfrwt beam="1">  1       21 0.15347372E-01 0.45549878E+03</pdfrwt>
<pdfrwt beam="2">  1       21 0.73090783E-01 0.45549878E+03</pdfrwt>
<totfact> 0.58363099E+04</totfact>
</mgrwt>
</event>
<event>
 7    0  0.4759581E-002  0.4700334E+03  0.7546771E-02  0.1021911E+00
         21   -1    0    0  502  501  0.00000000000E+00  0.00000000000E+00  0.74604444760E+02  0.74604444760E+02  0.00000000000E+00 0.  1.
         21   -1    0    0  501  502 -0.00000000000E+00 -0.00000000000E+00 -0.74034251988E+03  0.74034251988E+03  0.00000000000E+00 0.  1.
      99926    2    1    2    0    0 -0.14210854715E-13  0.00000000000E+00 -0.66573807512E+03  0.81494696464E+03  0.47003337170E+03 0.  0.
      99925    2    3    3    0    0  0.66369897810E+02 -0.25109187309E+02 -0.23137312815E+03  0.35739276034E+03  0.26298407953E+03 0.  0.
         25    1    4    4    0    0  0.42769920826E+02  0.12698507918E+02 -0.15533947635E+03  0.20437313729E+03  0.12509000000E+03 0.  0.
         25    1    3    3    0    0 -0.66369897810E+02  0.25109187309E+02 -0.43436494697E+03  0.45755420430E+03  0.12509000000E+03 0.  0.
         25    1    4    4    0    0  0.23599976984E+02 -0.37807695227E+02 -0.76033651799E+02  0.15301962305E+03  0.12509000000E+03 0.  0.
<mgrwt>
<rscale>  2 0.47003337E+03</rscale>
<asrwt>0</asrwt>
<pdfrwt beam="1">  1       21 0.10971242E-01 0.47003337E+03</pdfrwt>
<pdfrwt beam="2">  1       21 0.10887390E+00 0.47003337E+03</pdfrwt>
<totfact> 0.41886201E+04</totfact>
</mgrwt>
</event>
<event>
 7    0  0.4759581E-002  0.4545860E+03  0.7546771E-02  0.1026363E+00
         21   -1    0    0  502  501  0.00000000000E+00  0.00000000000E+00  0.46913859436E+03  0.46913859436E+03  0.00000000000E+00 0.  1.
         21   -1    0    0  501  502 -0.00000000000E+00 -0.00000000000E+00 -0.11012119815E+03  0.11012119815E+03  0.00000000000E+00 0.  1.
      99926    2    1    2    0    0  0.00000000000E+00  0.00000000000E+00  0.35901739621E+03  0.57925979251E+03  0.45458598354E+03 0.  0.
      99925    2    3    3    0    0 -0.89847904072E+02  0.29404714306E+02  0.14787796586E+03  0.31626806215E+03  0.26309753183E+03 0.  0.
         25    1    4    4    0    0 -0.73499387942E+02  0.46278673990E+02  0.81194603899E+02  0.17258026392E+03  0.12509000000E+03 0.  0.
         25    1    3    3    0    0  0.89847904072E+02 -0.29404714306E+02  0.21113943035E+03  0.26299173036E+03  0.12509000000E+03 0.  0.
         25    1    4    4    0    0 -0.16348516131E+02 -0.16873959684E+02  0.66683361965E+02  0.14368779822E+03  0.12509000000E+03 0.  0.
<mgrwt>
<rscale>  2 0.45458598E+03</rscale>
<asrwt>0</asrwt>
<pdfrwt beam="1">  1       21 0.68990969E-01 0.45458598E+03</pdfrwt>
<pdfrwt beam="2">  1       21 0.16194294E-01 0.45458598E+03</pdfrwt>
<totfact> 0.60170098E+04</totfact>
</mgrwt>
</event>
<event>
 7    0  0.4759581E-002  0.4601872E+03  0.7546771E-02  0.1024727E+00
         21   -1    0    0  502  501  0.00000000000E+00  0.00000000000E+00  0.28399783955E+02  0.28399783955E+02  0.00000000000E+00 0. -1.
         21   -1    0    0  501  502 -0.00000000000E+00 -0.00000000000E+00 -0.18642067934E+04  0.18642067934E+04  0.00000000000E+00 0. -1.
      99926    2    1    2    0    0 -0.26645352591E-14 -0.35527136788E-14 -0.18358070094E+04  0.18926065773E+04  0.46018722354E+03 0.  0.
      99925    2    3    3    0    0 -0.44436279879E+01 -0.21857294953E+02 -0.16263145028E+04  0.16475920765E+04  0.26298916601E+03 0.  0.
         25    1    4    4    0    0 -0.28899208390E+02  0.19224613581E+01 -0.98223480480E+03  0.99059153033E+03  0.12509000000E+03 0.  0.
         25    1    4    4    0    0  0.24455580402E+02 -0.23779756311E+02 -0.64407969801E+03  0.65700054620E+03  0.12509000000E+03 0.  0.
         25    1    3    3    0    0  0.44436279879E+01  0.21857294953E+02 -0.20949250659E+03  0.24501450077E+03  0.12509000000E+03 0.  0.
<mgrwt>
<rscale>  2 0.46018722E+03</rscale>
<asrwt>0</asrwt>
<pdfrwt beam="1">  1       21 0.41764396E-02 0.46018722E+03</pdfrwt>
<pdfrwt beam="2">  1       21 0.27414801E+00 0.46018722E+03</pdfrwt>
<totfact> 0.14933177E+04</totfact>
</mgrwt>
</event>
<event>
 7    0  0.4759581E-002  0.4147230E+03  0.7546771E-02  0.1038798E+00
         21   -1    0    0  502  501  0.00000000000E+00  0.00000000000E+00  0.20849216359E+03  0.20849216359E+03  0.00000000000E+00 0.  1.
         21   -1    0    0  501  502 -0.00000000000E+00 -0.00000000000E+00 -0.20623699467E+03  0.20623699467E+03  0.00000000000E+00 0.  1.
      99926    2    1    2    0    0  0.71054273576E-14  0.35527136788E-14  0.22551689265E+01  0.41472915826E+03  0.41472302676E+03 0.  0.
      99925    2    3    3    0    0 -0.38362910150E+02 -0.22831603317E+02 -0.51002993907E+02  0.27163151679E+03  0.26303874342E+03 0.  0.
         25    1    4    4    0    0 -0.70255547879E+01 -0.49194962726E+02 -0.34719931936E+02  0.13900534001E+03  0.12509000000E+03 0.  0.
         25    1    3    3    0    0  0.38362910150E+02  0.22831603317E+02  0.53258162833E+02  0.14309764147E+03  0.12509000000E+03 0.  0.
         25    1    4    4    0    0 -0.31337355363E+02  0.26363359409E+02 -0.16283061970E+02  0.13262617678E+03  0.12509000000E+03 0.  0.
<mgrwt>
<rscale>  2 0.41472303E+03</rscale>
<asrwt>0</asrwt>
<pdfrwt beam="1">  1       21 0.30660612E-01 0.41472303E+03</pdfrwt>
<pdfrwt beam="2">  1       21 0.30328970E-01 0.41472303E+03</pdfrwt>
<totfact> 0.10010995E+05</totfact>
</mgrwt>
</event>
<event>
 7    0  0.4759581E-002  0.4580336E+03  0.7546771E-02  0.1025353E+00
         21   -1    0    0  502  501  0.00000000000E+00  0.00000000000E+00  0.15379605793E+03  0.15379605793E+03  0.00000000000E+00 0.  1.
         21   -1    0    0  501  502 -0.00000000000E+00 -0.00000000000E+00 -0.34102763614E+03  0.34102763614E+03  0.00000000000E+00 0.  1.
      99926    2    1    2    0    0  0.00000000000E+00  0.71054273576E-14 -0.18723157820E+03  0.49482369407E+03  0.45803364978E+03 0.  0.
      99925    2    3    3    0    0  0.50498254695E+02 -0.43361161532E+02 -0.22012826839E+03  0.34935904413E+03  0.26299243927E+03 0.  0.
         25    1    3    3    0    0 -0.50498254695E+02  0.43361161532E+02  0.32896690185E+02  0.14546464994E+03  0.12509000000E+03 0.  0.
         25    1    4    4    0    0  0.41561864894E+02  0.15376587841E+02 -0.10312522403E+03  0.16806590374E+03  0.12509000000E+03 0.  0.
         25    1    4    4    0    0  0.89363898013E+01 -0.58737749373E+02 -0.11700304436E+03  0.18129314039E+03  0.12509000000E+03 0.  0.
<mgrwt>
<rscale>  2 0.45803365E+03</rscale>
<asrwt>0</asrwt>
<pdfrwt beam="1">  1       21 0.22617067E-01 0.45803365E+03</pdfrwt>
<pdfrwt beam="2">  1       21 0.50151123E-01 0.45803365E+03</pdfrwt>
<totfact> 0.64078691E+04</totfact>
</mgrwt>
</event>
<event>
 7    0  0.4759581E-002  0.4526624E+03  0.7546771E-02  0.1026931E+00
         21   -1    0    0  502  501  0.00000000000E+00  0.00000000000E+00  0.20386457092E+03  0.20386457092E+03  0.00000000000E+00 0. -1.
         21   -1    0    0  501  502 -0.00000000000E+00 -0.00000000000E+00 -0.25127372256E+03  0.25127372256E+03  0.00000000000E+00 0. -1.
      99926    2    1    2    0    0  0.00000000000E+00  0.00000000000E+00 -0.47409151639E+02  0.45513829348E+03  0.45266238913E+03 0.  0.
      99925    2    3    3    0    0 -0.10176282375E+03 -0.29736687143E+02 -0.62855957654E+02  0.29043840041E+03  0.26298982900E+03 0.  0.
         25    1    4    4    0    0 -0.61547119670E+02  0.21304962647E+02 -0.46667323049E+02  0.14855065302E+03  0.12509000000E+03 0.  0.
         25    1    4    4    0    0 -0.40215704080E+02 -0.51041649790E+02 -0.16188634604E+02  0.14188774739E+03  0.12509000000E+03 0.  0.
         25    1    3    3    0    0  0.10176282375E+03  0.29736687143E+02  0.15446806015E+02  0.16469989307E+03  0.12509000000E+03 0.  0.
<mgrwt>
<rscale>  2 0.45266239E+03</rscale>
<asrwt>0</asrwt>
<pdfrwt beam="1">  1       21 0.29980084E-01 0.45266239E+03</pdfrwt>
<pdfrwt beam="2">  1       21 0.36952018E-01 0.45266239E+03</pdfrwt>
<totfact> 0.69828932E+04</totfact>
</mgrwt>
</event>
<event>
 7    0  0.4759581E-002  0.4551973E+03  0.7546771E-02  0.1026183E+00
         21   -1    0    0  502  501  0.00000000000E+00  0.00000000000E+00  0.17819369153E+03  0.17819369153E+03  0.00000000000E+00 0.  1.
         21   -1    0    0  501  502 -0.00000000000E+00 -0.00000000000E+00 -0.29070135712E+03  0.29070135712E+03  0.00000000000E+00 0.  1.
      99926    2    1    2    0    0  0.00000000000E+00  0.14210854715E-13 -0.11250766559E+03  0.46889504865E+03  0.45519731088E+03 0.  0.
      99925    2    3    3    0    0  0.64416888740E+02  0.66660939618E+02 -0.13799937706E+03  0.31112765063E+03  0.26298929729E+03 0.  0.
         25    1    4    4    0    0 -0.36327869531E+01  0.51172163868E+02 -0.58623911380E+02  0.14736369492E+03  0.12509000000E+03 0.  0.
         25    1    4    4    0    0  0.68049675693E+02  0.15488775750E+02 -0.79375465679E+02  0.16376395570E+03  0.12509000000E+03 0.  0.
         25    1    3    3    0    0 -0.64416888740E+02 -0.66660939618E+02  0.25491711473E+02  0.15776739802E+03  0.12509000000E+03 0.  0.
<mgrwt>
<rscale>  2 0.45519731E+03</rscale>
<asrwt>0</asrwt>
<pdfrwt beam="1">  1       21 0.26204955E-01 0.45519731E+03</pdfrwt>
<pdfrwt beam="2">  1       21 0.42750199E-01 0.45519731E+03</pdfrwt>
<totfact> 0.67412465E+04</totfact>
</mgrwt>
</event>
<event>
 7    0  0.4759581E-002  0.4744785E+03  0.7546771E-02  0.1020664E+00
         21   -1    0    0  502  501  0.00000000000E+00  0.00000000000E+00  0.60649482365E+03  0.60649482365E+03  0.00000000000E+00 0.  1.
         21   -1    0    0  501  502 -0.00000000000E+00 -0.00000000000E+00 -0.92799593830E+02  0.92799593830E+02  0.00000000000E+00 0.  1.
      99926    2    1    2    0    0  0.00000000000E+00  0.00000000000E+00  0.51369522982E+03  0.69929441748E+03  0.47447854870E+03 0.  0.
      99925    2    3    3    0    0 -0.58314309655E+02 -0.11058878123E+03  0.26230344229E+03  0.39192529707E+03  0.26300552352E+03 0.  0.
         25    1    3    3    0    0  0.58314309655E+02  0.11058878123E+03  0.25139178753E+03  0.30736912042E+03  0.12509000000E+03 0.  0.
         25    1    4    4    0    0 -0.67868393977E+02 -0.44818108577E+02  0.14419908825E+03  0.20749859496E+03  0.12509000000E+03 0.  0.
         25    1    4    4    0    0  0.95540843211E+01 -0.65770672655E+02  0.11810435404E+03  0.18442670211E+03  0.12509000000E+03 0.  0.
<mgrwt>
<rscale>  2 0.47447855E+03</rscale>
<asrwt>0</asrwt>
<pdfrwt beam="1">  1       21 0.89190413E-01 0.47447855E+03</pdfrwt>
<pdfrwt beam="2">  1       21 0.13646999E-01 0.47447855E+03</pdfrwt>
<totfact> 0.45543259E+04</totfact>
</mgrwt>
</event>
<event>
 7    0  0.4759581E-002  0.4645190E+03  0.7546771E-02  0.1023479E+00
         21   -1    0    0  502  501  0.00000000000E+00  0.00000000000E+00  0.51377038699E+03  0.51377038699E+03  0.00000000000E+00 0. -1.
         21   -1    0    0  501  502 -0.00000000000E+00 -0.00000000000E+00 -0.10499726378E+03  0.10499726378E+03  0.00000000000E+00 0. -1.
      99926    2    1    2    0    0  0.00000000000E+00  0.00000000000E+00  0.40877312321E+03  0.61876765077E+03  0.46451904093E+03 0.  0.
      99925    2    3    3    0    0  0.90034846983E+02  0.19204901423E+02  0.36158879622E+03  0.45644399038E+03  0.26290598489E+03 0.  0.
         25    1    3    3    0    0 -0.90034846983E+02 -0.19204901423E+02  0.47184326985E+02  0.16232366039E+03  0.12509000000E+03 0.  0.
         25    1    4    4    0    0  0.41691933033E+02 -0.29063746349E+02  0.15653402979E+03  0.20672041315E+03  0.12509000000E+03 0.  0.
         25    1    4    4    0    0  0.48342913950E+02  0.48268647771E+02  0.20505476643E+03  0.24972357723E+03  0.12509000000E+03 0.  0.
<mgrwt>
<rscale>  2 0.46451904E+03</rscale>
<asrwt>0</asrwt>
<pdfrwt beam="1">  1       21 0.75554468E-01 0.46451904E+03</pdfrwt>
<pdfrwt beam="2">  1       21 0.15440774E-01 0.46451904E+03</pdfrwt>
<totfact> 0.53408081E+04</totfact>
</mgrwt>
</event>
<event>
 7    0  0.4759581E-002  0.4475048E+03  0.7546771E-02  0.1028469E+00
         21   -1    0    0  502  501  0.00000000000E+00  0.00000000000E+00  0.63503497582E+02  0.63503497582E+02  0.00000000000E+00 0.  1.
         21   -1    0    0  501  502 -0.00000000000E+00 -0.00000000000E+00 -0.78838378183E+03  0.78838378183E+03  0.00000000000E+00 0.  1.
      99926    2    1    2    0    0  0.00000000000E+00  0.00000000000E+00 -0.72488028425E+03  0.85188727941E+03  0.44750476012E+03 0.  0.
      99925    2    3    3    0    0 -0.94736745785E+01  0.34298746092E+02 -0.26926412380E+03  0.37807323545E+03  0.26300199335E+03 0.  0.
         25    1    4    4    0    0 -0.14770546543E+02  0.23521277864E+02 -0.80564142440E+02  0.15135887389E+03  0.12509000000E+03 0.  0.
         25    1    3    3    0    0  0.94736745785E+01 -0.34298746092E+02 -0.45561616044E+03  0.47381404396E+03  0.12509000000E+03 0.  0.
         25    1    4    4    0    0  0.52968719641E+01  0.10777468228E+02 -0.18869998136E+03  0.22671436157E+03  0.12509000000E+03 0.  0.
<mgrwt>
<rscale>  2 0.44750476E+03</rscale>
<asrwt>0</asrwt>
<pdfrwt beam="1">  1       21 0.93387495E-02 0.44750476E+03</pdfrwt>
<pdfrwt beam="2">  1       21 0.11593879E+00 0.44750476E+03</pdfrwt>
<totfact> 0.48122622E+04</totfact>
</mgrwt>
</event>
<event>
 7    0  0.4759581E-002  0.4588215E+03  0.7546771E-02  0.1025124E+00
         21   -1    0    0  502  501  0.00000000000E+00  0.00000000000E+00  0.11730950510E+03  0.11730950510E+03  0.00000000000E+00 0. -1.
         21   -1    0    0  501  502 -0.00000000000E+00 -0.00000000000E+00 -0.44863631034E+03  0.44863631034E+03  0.00000000000E+00 0. -1.
      99926    2    1    2    0    0  0.00000000000E+00  0.00000000000E+00 -0.33132680525E+03  0.56594581544E+03  0.45882154934E+03 0.  0.
      99925    2    3    3    0    0  0.69679698938E+02 -0.93658688371E+02 -0.21389726532E+03  0.35842614095E+03  0.26284985839E+03 0.  0.
         25    1    4    4    0    0  0.22368158295E+02 -0.64136893637E+02 -0.66142491870E+02  0.15695927167E+03  0.12509000000E+03 0.  0.
         25    1    4    4    0    0  0.47311540643E+02 -0.29521794734E+02 -0.14775477345E+03  0.20146686929E+03  0.12509000000E+03 0.  0.
         25    1    3    3    0    0 -0.69679698938E+02  0.93658688371E+02 -0.11742953993E+03  0.20751967449E+03  0.12509000000E+03 0.  0.
<mgrwt>
<rscale>  2 0.45882155E+03</rscale>
<asrwt>0</asrwt>
<pdfrwt beam="1">  1       21 0.17251398E-01 0.45882155E+03</pdfrwt>
<pdfrwt beam="2">  1       21 0.65975927E-01 0.45882155E+03</pdfrwt>
<totfact> 0.59020783E+04</totfact>
</mgrwt>
</event>
<event>
 7    0  0.4759581E-002  0.4576869E+03  0.7546771E-02  0.1025454E+00
         21   -1    0    0  502  501  0.00000000000E+00  0.00000000000E+00  0.95394388150E+02  0.95394388150E+02  0.00000000000E+00 0.  1.
         21   -1    0    0  501  502 -0.00000000000E+00 -0.00000000000E+00 -0.54897699748E+03  0.54897699748E+03  0.00000000000E+00 0.  1.
      99926    2    1    2    0    0  0.00000000000E+00 -0.35527136788E-14 -0.45358260933E+03  0.64437138563E+03  0.45768690077E+03 0.  0.
      99925    2    3    3    0    0  0.44126880283E+02 -0.11519371686E+02 -0.43432482387E+03  0.50984165699E+03  0.26309805223E+03 0.  0.
         25    1    4    4    0    0  0.27786142005E+02  0.34540663138E+02 -0.21361412173E+03  0.25148285866E+03  0.12509000000E+03 0.  0.
         25    1    3    3    0    0 -0.44126880283E+02  0.11519371686E+02 -0.19257785462E+02  0.13452972864E+03  0.12509000000E+03 0.  0.
         25    1    4    4    0    0  0.16340738278E+02 -0.46060034824E+02 -0.22071070213E+03  0.25835879832E+03  0.12509000000E+03 0.  0.
<mgrwt>
<rscale>  2 0.45768690E+03</rscale>
<asrwt>0</asrwt>
<pdfrwt beam="1">  1       21 0.14028586E-01 0.45768690E+03</pdfrwt>
<pdfrwt beam="2">  1       21 0.80731913E-01 0.45768690E+03</pdfrwt>
<totfact> 0.54854651E+04</totfact>
</mgrwt>
</event>
<event>
 7    0  0.4759581E-002  0.4687328E+03  0.7546771E-02  0.1022278E+00
         21   -1    0    0  502  501  0.00000000000E+00  0.00000000000E+00  0.46872234603E+03  0.46872234603E+03  0.00000000000E+00 0. -1.
         21   -1    0    0  501  502 -0.00000000000E+00 -0.00000000000E+00 -0.11718579666E+03  0.11718579666E+03  0.00000000000E+00 0. -1.
      99926    2    1    2    0    0 -0.71054273576E-14  0.00000000000E+00  0.35153654937E+03  0.58590814269E+03  0.46873276622E+03 0.  0.
      99925    2    3    3    0    0 -0.40005353794E+02 -0.38733135731E+02  0.35945770970E+03  0.44875517328E+03  0.26281300643E+03 0.  0.
         25    1    4    4    0    0  0.18100041892E+02 -0.66232833486E+01  0.15648605973E+03  0.20126319681E+03  0.12509000000E+03 0.  0.
         25    1    4    4    0    0 -0.58105395686E+02 -0.32109852382E+02  0.20297164997E+03  0.24749197647E+03  0.12509000000E+03 0.  0.
         25    1    3    3    0    0  0.40005353794E+02  0.38733135731E+02 -0.79211603317E+01  0.13715296941E+03  0.12509000000E+03 0.  0.
<mgrwt>
<rscale>  2 0.46873277E+03</rscale>
<asrwt>0</asrwt>
<pdfrwt beam="1">  1       21 0.68929756E-01 0.46873277E+03</pdfrwt>
<pdfrwt beam="2">  1       21 0.17233206E-01 0.46873277E+03</pdfrwt>
<totfact> 0.53504990E+04</totfact>
</mgrwt>
</event>
<event>
 7    0  0.4759581E-002  0.4549587E+03  0.7546771E-02  0.1026254E+00
         21   -1    0    0  502  501  0.00000000000E+00  0.00000000000E+00  0.25102572634E+02  0.25102572634E+02  0.00000000000E+00 0. -1.
         21   -1    0    0  501  502 -0.00000000000E+00 -0.00000000000E+00 -0.20614160008E+04  0.20614160008E+04  0.00000000000E+00 0. -1.
      99926    2    1    2    0    0 -0.14210854715E-13  0.71054273576E-14 -0.20363134282E+04  0.20865185734E+04  0.45495865697E+03 0.  0.
      99925    2    3    3    0    0  0.77425227512E+02 -0.60847840313E+02 -0.10260306670E+04  0.10637693905E+04  0.26300049633E+03 0.  0.
         25    1    4    4    0    0  0.47003428434E+02 -0.26584764091E+02 -0.36855121194E+03  0.39292947953E+03  0.12509000000E+03 0.  0.
         25    1    4    4    0    0  0.30421799077E+02 -0.34263076222E+02 -0.65747945501E+03  0.67083991094E+03  0.12509000000E+03 0.  0.
         25    1    3    3    0    0 -0.77425227512E+02  0.60847840313E+02 -0.10102827612E+04  0.10227491829E+04  0.12509000000E+03 0.  0.
<mgrwt>
<rscale>  2 0.45495866E+03</rscale>
<asrwt>0</asrwt>
<pdfrwt beam="1">  1       21 0.36915547E-02 0.45495866E+03</pdfrwt>
<pdfrwt beam="2">  1       21 0.30314942E+00 0.45495866E+03</pdfrwt>
<totfact> 0.12352225E+04</totfact>
</mgrwt>
</event>
<event>
 7    0  0.4759581E-002  0.4653484E+03  0.7546771E-02  0.1023241E+00
         21   -1    0    0  502  501  0.00000000000E+00  0.00000000000E+00  0.37957899459E+02  0.37957899459E+02  0.00000000000E+00 0.  1.
         21   -1    0    0  501  502 -0.00000000000E+00 -0.00000000000E+00 -0.14262455382E+04  0.14262455382E+04  0.00000000000E+00 0.  1.
      99926    2    1    2    0    0  0.00000000000E+00  0.00000000000E+00 -0.13882876388E+04  0.14642034377E+04  0.46534840602E+03 0.  0.
      99925    2    3    3    0    0  0.75635295605E+02 -0.15389974655E+02 -0.56733870014E+03  0.63019971036E+03  0.26328867237E+03 0.  0.
         25    1    4    4    0    0  0.13126967986E+02  0.82422330439E+01 -0.19967144866E+03  0.23612803138E+03  0.12509000000E+03 0.  0.
         25    1    4    4    0    0  0.62508327619E+02 -0.23632207699E+02 -0.36766725148E+03  0.39407167898E+03  0.12509000000E+03 0.  0.
         25    1    3    3    0    0 -0.75635295605E+02  0.15389974655E+02 -0.82094893865E+03  0.83400372735E+03  0.12509000000E+03 0.  0.
<mgrwt>
<rscale>  2 0.46534841E+03</rscale>
<asrwt>0</asrwt>
<pdfrwt beam="1">  1       21 0.55820433E-02 0.46534841E+03</pdfrwt>
<pdfrwt beam="2">  1       21 0.20974202E+00 0.46534841E+03</pdfrwt>
<totfact> 0.22782574E+04</totfact>
</mgrwt>
</event>
<event>
 7    0  0.4759581E-002  0.4551928E+03  0.7546771E-02  0.1026185E+00
         21   -1    0    0  502  501  0.00000000000E+00  0.00000000000E+00  0.39339995551E+03  0.39339995551E+03  0.00000000000E+00 0.  1.
         21   -1    0    0  501  502 -0.00000000000E+00 -0.00000000000E+00 -0.13167290592E+03  0.13167290592E+03  0.00000000000E+00 0.  1.
      99926    2    1    2    0    0  0.14210854715E-13  0.00000000000E+00  0.26172704959E+03  0.52507286143E+03  0.45519277381E+03 0.  0.
      99925    2    3    3    0    0 -0.10956500081E+03  0.26513482899E+02  0.17899900269E+03  0.33745918384E+03  0.26292699293E+03 0.  0.
         25    1    4    4    0    0 -0.97934846132E+02  0.92452260380E+01  0.94614212542E+02  0.18513796371E+03  0.12509000000E+03 0.  0.
         25    1    3    3    0    0  0.10956500081E+03 -0.26513482899E+02  0.82728046895E+02  0.18761367760E+03  0.12509000000E+03 0.  0.
         25    1    4    4    0    0 -0.11630154679E+02  0.17268256861E+02  0.84384790147E+02  0.15232122013E+03  0.12509000000E+03 0.  0.
<mgrwt>
<rscale>  2 0.45519277E+03</rscale>
<asrwt>0</asrwt>
<pdfrwt beam="1">  1       21 0.57852934E-01 0.45519277E+03</pdfrwt>
<pdfrwt beam="2">  1       21 0.19363663E-01 0.45519277E+03</pdfrwt>
<totfact> 0.63444278E+04</totfact>
</mgrwt>
</event>
<event>
 7    0  0.4759581E-002  0.4491716E+03  0.7546771E-02  0.1027969E+00
         21   -1    0    0  502  501  0.00000000000E+00  0.00000000000E+00  0.78357409116E+02  0.78357409116E+02  0.00000000000E+00 0.  1.
         21   -1    0    0  501  502 -0.00000000000E+00 -0.00000000000E+00 -0.64370148046E+03  0.64370148046E+03  0.00000000000E+00 0.  1.
      99926    2    1    2    0    0 -0.17763568394E-14  0.00000000000E+00 -0.56534407134E+03  0.72205888957E+03  0.44917159417E+03 0.  0.
      99925    2    3    3    0    0  0.12137535961E+02  0.10112970280E+03 -0.30197387709E+03  0.41321280511E+03  0.26302483399E+03 0.  0.
         25    1    4    4    0    0  0.36366475001E+02  0.66974213657E+02 -0.19184509787E+03  0.24137132281E+03  0.12509000000E+03 0.  0.
         25    1    4    4    0    0 -0.24228939041E+02  0.34155489147E+02 -0.11012877922E+03  0.17184148230E+03  0.12509000000E+03 0.  0.
         25    1    3    3    0    0 -0.12137535961E+02 -0.10112970280E+03 -0.26337019425E+03  0.30884608446E+03  0.12509000000E+03 0.  0.
<mgrwt>
<rscale>  2 0.44917159E+03</rscale>
<asrwt>0</asrwt>
<pdfrwt beam="1">  1       21 0.11523148E-01 0.44917159E+03</pdfrwt>
<pdfrwt beam="2">  1       21 0.94661986E-01 0.44917159E+03</pdfrwt>
<totfact> 0.54162118E+04</totfact>
</mgrwt>
</event>
<event>
 7    0  0.4759581E-002  0.4542990E+03  0.7546771E-02  0.1026448E+00
         21   -1    0    0  502  501  0.00000000000E+00  0.00000000000E+00  0.28529113693E+02  0.28529113693E+02  0.00000000000E+00 0.  1.
         21   -1    0    0  501  502 -0.00000000000E+00 -0.00000000000E+00 -0.18085696323E+04  0.18085696323E+04  0.00000000000E+00 0.  1.
      99926    2    1    2    0    0  0.71054273576E-14  0.00000000000E+00 -0.17800405186E+04  0.18370987460E+04  0.45429897056E+03 0.  0.
      99925    2    3    3    0    0  0.40157089151E+02  0.54895499038E+02 -0.14833864323E+04  0.15080436402E+04  0.26293384267E+03 0.  0.
         25    1    4    4    0    0  0.82818468148E+01  0.18021353154E+02 -0.51241959108E+03  0.52783965707E+03  0.12509000000E+03 0.  0.
         25    1    4    4    0    0  0.31875242337E+02  0.36874145883E+02 -0.97096684118E+03  0.98020398309E+03  0.12509000000E+03 0.  0.
         25    1    3    3    0    0 -0.40157089151E+02 -0.54895499038E+02 -0.29665408638E+03  0.32905510586E+03  0.12509000000E+03 0.  0.
<mgrwt>
<rscale>  2 0.45429897E+03</rscale>
<asrwt>0</asrwt>
<pdfrwt beam="1">  1       21 0.41954589E-02 0.45429897E+03</pdfrwt>
<pdfrwt beam="2">  1       21 0.26596606E+00 0.45429897E+03</pdfrwt>
<totfact> 0.16647583E+04</totfact>
</mgrwt>
</event>
<event>
 7    0  0.4759581E-002  0.4522985E+03  0.7546771E-02  0.1027039E+00
         21   -1    0    0  502  501  0.00000000000E+00  0.00000000000E+00  0.27035663212E+02  0.27035663212E+02  0.00000000000E+00 0. -1.
         21   -1    0    0  501  502 -0.00000000000E+00 -0.00000000000E+00 -0.18917046368E+04  0.18917046368E+04  0.00000000000E+00 0. -1.
      99926    2    1    2    0    0  0.14210854715E-13  0.00000000000E+00 -0.18646689736E+04  0.19187403001E+04  0.45229852734E+03 0.  0.
      99925    2    3    3    0    0  0.97589438214E+02  0.42189276756E+02 -0.10463027750E+04  0.10840700798E+04  0.26297301627E+03 0.  0.
         25    1    4    4    0    0  0.32797612094E+02 -0.14544956893E+02 -0.54148952821E+03  0.55690722422E+03  0.12509000000E+03 0.  0.
         25    1    3    3    0    0 -0.97589438214E+02 -0.42189276756E+02 -0.81836619858E+03  0.83467022027E+03  0.12509000000E+03 0.  0.
         25    1    4    4    0    0  0.64791826120E+02  0.56734233649E+02 -0.50481324684E+03  0.52716285556E+03  0.12509000000E+03 0.  0.
<mgrwt>
<rscale>  2 0.45229853E+03</rscale>
<asrwt>0</asrwt>
<pdfrwt beam="1">  1       21 0.39758327E-02 0.45229853E+03</pdfrwt>
<pdfrwt beam="2">  1       21 0.27819187E+00 0.45229853E+03</pdfrwt>
<totfact> 0.15402542E+04</totfact>
</mgrwt>
</event>
<event>
 7    0  0.4759581E-002  0.4949364E+03  0.7546771E-02  0.1015109E+00
         21   -1    0    0  502  501  0.00000000000E+00  0.00000000000E+00  0.23981349793E+03  0.23981349793E+03  0.00000000000E+00 0.  1.
         21   -1    0    0  501  502 -0.00000000000E+00 -0.00000000000E+00 -0.25536726455E+03  0.25536726455E+03  0.00000000000E+00 0.  1.
      99926    2    1    2    0    0  0.00000000000E+00  0.00000000000E+00 -0.15553766623E+02  0.49518076247E+03  0.49493642811E+03 0.  0.
      99925    2    3    3    0    0  0.70668108706E+02  0.59891613911E+02  0.10529674594E+03  0.29811899172E+03  0.26307136202E+03 0.  0.
         25    1    4    4    0    0  0.27035594327E+02  0.48648870335E+02  0.15744552138E+02  0.13781522038E+03  0.12509000000E+03 0.  0.
         25    1    4    4    0    0  0.43632514380E+02  0.11242743576E+02  0.89552193798E+02  0.16030377135E+03  0.12509000000E+03 0.  0.
         25    1    3    3    0    0 -0.70668108706E+02 -0.59891613911E+02 -0.12085051256E+03  0.19706177075E+03  0.12509000000E+03 0.  0.
<mgrwt>
<rscale>  2 0.49493643E+03</rscale>
<asrwt>0</asrwt>
<pdfrwt beam="1">  1       21 0.35266691E-01 0.49493643E+03</pdfrwt>
<pdfrwt beam="2">  1       21 0.37554009E-01 0.49493643E+03</pdfrwt>
<totfact> 0.48353030E+04</totfact>
</mgrwt>
</event>
<event>
 7    0  0.4759581E-002  0.4549257E+03  0.7546771E-02  0.1026263E+00
         21   -1    0    0  502  501  0.00000000000E+00  0.00000000000E+00  0.43431390249E+03  0.43431390249E+03  0.00000000000E+00 0. -1.
         21   -1    0    0  501  502 -0.00000000000E+00 -0.00000000000E+00 -0.11912894969E+03  0.11912894969E+03  0.00000000000E+00 0. -1.
      99926    2    1    2    0    0 -0.71054273576E-14  0.71054273576E-14  0.31518495280E+03  0.55344285218E+03  0.45492574796E+03 0.  0.
      99925    2    3    3    0    0  0.52120305661E+02 -0.61691143725E+02  0.10194515241E+03  0.29336393330E+03  0.26295866554E+03 0.  0.
         25    1    3    3    0    0 -0.52120305661E+02  0.61691143725E+02  0.21323980039E+03  0.26007891888E+03  0.12509000000E+03 0.  0.
         25    1    4    4    0    0  0.52317625994E+02 -0.29299988010E+02  0.85883618343E+02  0.16315369223E+03  0.12509000000E+03 0.  0.
         25    1    4    4    0    0 -0.19732033326E+00 -0.32391155714E+02  0.16061534067E+02  0.13021024107E+03  0.12509000000E+03 0.  0.
<mgrwt>
<rscale>  2 0.45492575E+03</rscale>
<asrwt>0</asrwt>
<pdfrwt beam="1">  1       21 0.63869691E-01 0.45492575E+03</pdfrwt>
<pdfrwt beam="2">  1       21 0.17518963E-01 0.45492575E+03</pdfrwt>
<totfact> 0.61675799E+04</totfact>
</mgrwt>
</event>
<event>
 7    0  0.4759581E-002  0.4590394E+03  0.7546771E-02  0.1025060E+00
         21   -1    0    0  502  501  0.00000000000E+00  0.00000000000E+00  0.85109760126E+02  0.85109760126E+02  0.00000000000E+00 0.  1.
         21   -1    0    0  501  502 -0.00000000000E+00 -0.00000000000E+00 -0.61895717852E+03  0.61895717852E+03  0.00000000000E+00 0.  1.
      99926    2    1    2    0    0  0.17763568394E-14  0.00000000000E+00 -0.53384741839E+03  0.70406693865E+03  0.45903941875E+03 0.  0.
      99925    2    3    3    0    0  0.12959730870E+02  0.11610818884E+03 -0.34347024867E+03  0.44805904620E+03  0.26293731386E+03 0.  0.
         25    1    3    3    0    0 -0.12959730870E+02 -0.11610818884E+03 -0.19037716973E+03  0.25600789244E+03  0.12509000000E+03 0.  0.
         25    1    4    4    0    0  0.16744250569E+02  0.52224803487E+02 -0.22980580700E+03  0.26733128709E+03  0.12509000000E+03 0.  0.
         25    1    4    4    0    0 -0.37845196989E+01  0.63883385358E+02 -0.11366444167E+03  0.18072775912E+03  0.12509000000E+03 0.  0.
<mgrwt>
<rscale>  2 0.45903942E+03</rscale>
<asrwt>0</asrwt>
<pdfrwt beam="1">  1       21 0.12516141E-01 0.45903942E+03</pdfrwt>
<pdfrwt beam="2">  1       21 0.91023118E-01 0.45903942E+03</pdfrwt>
<totfact> 0.51040849E+04</totfact>
</mgrwt>
</event>
<event>
 7    0  0.4759581E-002  0.4589866E+03  0.7546771E-02  0.1025076E+00
         21   -1    0    0  502  501  0.00000000000E+00  0.00000000000E+00  0.24063669115E+03  0.24063669115E+03  0.00000000000E+00 0. -1.
         21   -1    0    0  501  502 -0.00000000000E+00 -0.00000000000E+00 -0.21886597233E+03  0.21886597233E+03  0.00000000000E+00 0. -1.
      99926    2    1    2    0    0  0.14210854715E-13  0.14210854715E-13  0.21770718820E+02  0.45950266348E+03  0.45898663765E+03 0.  0.
      99925    2    3    3    0    0 -0.61311908824E+02 -0.95672872117E+02  0.41084475999E+02  0.28940569719E+03  0.26297390512E+03 0.  0.
         25    1    4    4    0    0 -0.71567845014E+02 -0.55965900936E+02  0.16381910594E+02  0.15546708205E+03  0.12509000000E+03 0.  0.
         25    1    4    4    0    0  0.10255936190E+02 -0.39706971181E+02  0.24702565405E+02  0.13393861514E+03  0.12509000000E+03 0.  0.
         25    1    3    3    0    0  0.61311908824E+02  0.95672872117E+02 -0.19313757180E+02  0.17009696628E+03  0.12509000000E+03 0.  0.
<mgrwt>
<rscale>  2 0.45898664E+03</rscale>
<asrwt>0</asrwt>
<pdfrwt beam="1">  1       21 0.35387749E-01 0.45898664E+03</pdfrwt>
<pdfrwt beam="2">  1       21 0.32186172E-01 0.45898664E+03</pdfrwt>
<totfact> 0.66089814E+04</totfact>
</mgrwt>
</event>
<event>
 7    0  0.4759581E-002  0.4640540E+03  0.7546771E-02  0.1023612E+00
         21   -1    0    0  502  501  0.00000000000E+00  0.00000000000E+00  0.65409472964E+02  0.65409472964E+02  0.00000000000E+00 0.  1.
         21   -1    0    0  501  502 -0.00000000000E+00 -0.00000000000E+00 -0.82306938354E+03  0.82306938354E+03  0.00000000000E+00 0.  1.
      99926    2    1    2    0    0  0.00000000000E+00  0.00000000000E+00 -0.75765991058E+03  0.88847885650E+03  0.46405402526E+03 0.  0.
      99925    2    3    3    0    0 -0.56473960811E+02 -0.93121426909E+02 -0.57584327884E+03  0.64237785269E+03  0.26304546271E+03 0.  0.
         25    1    4    4    0    0 -0.69740719695E+02 -0.51490098095E+02 -0.30583098894E+03  0.34160664526E+03  0.12509000000E+03 0.  0.
         25    1    4    4    0    0  0.13266758884E+02 -0.41631328814E+02 -0.27001228989E+03  0.30077120744E+03  0.12509000000E+03 0.  0.
         25    1    3    3    0    0  0.56473960811E+02  0.93121426909E+02 -0.18181663174E+03  0.24610100381E+03  0.12509000000E+03 0.  0.
<mgrwt>
<rscale>  2 0.46405403E+03</rscale>
<asrwt>0</asrwt>
<pdfrwt beam="1">  1       21 0.96190404E-02 0.46405403E+03</pdfrwt>
<pdfrwt beam="2">  1       21 0.12103961E+00 0.46405403E+03</pdfrwt>
<totfact> 0.40767345E+04</totfact>
</mgrwt>
</event>
<event>
 7    0  0.4759581E-002  0.4571869E+03  0.7546771E-02  0.1025600E+00
         21   -1    0    0  502  501  0.00000000000E+00  0.00000000000E+00  0.69570697081E+03  0.69570697081E+03  0.00000000000E+00 0.  1.
         21   -1    0    0  501  502 -0.00000000000E+00 -0.00000000000E+00 -0.75110594328E+02  0.75110594328E+02  0.00000000000E+00 0.  1.
      99926    2    1    2    0    0  0.00000000000E+00  0.35527136788E-14  0.62059637649E+03  0.77081756514E+03  0.45718689420E+03 0.  0.
      99925    2    3    3    0    0  0.82705251474E+02  0.26137797967E+02  0.51782974360E+03  0.58715528802E+03  0.26283140182E+03 0.  0.
         25    1    3    3    0    0 -0.82705251474E+02 -0.26137797967E+02  0.10276663288E+03  0.18366227712E+03  0.12509000000E+03 0.  0.
         25    1    4    4    0    0  0.29803472878E+02  0.49649648502E+02  0.28499374096E+03  0.31657901869E+03  0.12509000000E+03 0.  0.
         25    1    4    4    0    0  0.52901778597E+02 -0.23511850536E+02  0.23283600265E+03  0.27057626933E+03  0.12509000000E+03 0.  0.
<mgrwt>
<rscale>  2 0.45718689E+03</rscale>
<asrwt>0</asrwt>
<pdfrwt beam="1">  1       21 0.10230985E+00 0.45718689E+03</pdfrwt>
<pdfrwt beam="2">  1       21 0.11045676E-01 0.45718689E+03</pdfrwt>
<totfact> 0.48372895E+04</totfact>
</mgrwt>
</event>
<event>
 7    0  0.4759581E-002  0.4395667E+03  0.7546771E-02  0.1030880E+00
         21   -1    0    0  502  501  0.00000000000E+00  0.00000000000E+00  0.15719506991E+04  0.15719506991E+04  0.00000000000E+00 0. -1.
         21   -1    0    0  501  502 -0.00000000000E+00 -0.00000000000E+00 -0.30729161052E+02  0.30729161052E+02  0.00000000000E+00 0. -1.
      99926    2    1    2    0    0  0.00000000000E+00  0.00000000000E+00  0.15412215380E+04  0.16026798601E+04  0.43956672394E+03 0.  0.
      99925    2    3    3    0    0 -0.86755373549E+02 -0.45358761226E+02  0.10012541899E+04  0.10398333827E+04  0.26298212647E+03 0.  0.
         25    1    4    4    0    0 -0.76527253706E+02 -0.20016869643E+01  0.57267003162E+03  0.59115048890E+03  0.12509000000E+03 0.  0.
         25    1    3    3    0    0  0.86755373549E+02  0.45358761226E+02  0.53996734813E+03  0.56284647747E+03  0.12509000000E+03 0.  0.
         25    1    4    4    0    0 -0.10228119843E+02 -0.43357074262E+02  0.42858415828E+03  0.44868289376E+03  0.12509000000E+03 0.  0.
<mgrwt>
<rscale>  2 0.43956672E+03</rscale>
<asrwt>0</asrwt>
<pdfrwt beam="1">  1       21 0.23116917E+00 0.43956672E+03</pdfrwt>
<pdfrwt beam="2">  1       21 0.45189953E-02 0.43956672E+03</pdfrwt>
<totfact> 0.24134664E+04</totfact>
</mgrwt>
</event>
<event>
 7    0  0.4759581E-002  0.4269427E+03  0.7546771E-02  0.1034830E+00
         21   -1    0    0  502  501  0.00000000000E+00  0.00000000000E+00  0.26972978804E+03  0.26972978804E+03  0.00000000000E+00 0.  1.
         21   -1    0    0  501  502 -0.00000000000E+00 -0.00000000000E+00 -0.16894690908E+03  0.16894690908E+03  0.00000000000E+00 0.  1.
      99926    2    1    2    0    0  0.71054273576E-14  0.00000000000E+00  0.10078287897E+03  0.43867669712E+03  0.42694268456E+03 0.  0.
      99925    2    3    3    0    0  0.46174059405E+02 -0.16384161984E+02  0.13571323836E+03  0.29986703379E+03  0.26287196573E+03 0.  0.
         25    1    4    4    0    0  0.94361446398E+01 -0.15117860268E+02  0.24955852426E+02  0.12879399518E+03  0.12509000000E+03 0.  0.
         25    1    3    3    0    0 -0.46174059405E+02  0.16384161984E+02 -0.34930359389E+02  0.13880966333E+03  0.12509000000E+03 0.  0.
         25    1    4    4    0    0  0.36737914765E+02 -0.12663017163E+01  0.11075738593E+03  0.17107303861E+03  0.12509000000E+03 0.  0.
<mgrwt>
<rscale>  2 0.42694268E+03</rscale>
<asrwt>0</asrwt>
<pdfrwt beam="1">  1       21 0.39666145E-01 0.42694268E+03</pdfrwt>
<pdfrwt beam="2">  1       21 0.24845134E-01 0.42694268E+03</pdfrwt>
<totfact> 0.87811807E+04</totfact>
</mgrwt>
</event>
<event>
 7    0  0.4759581E-002  0.4556202E+03  0.7546771E-02  0.1026059E+00
         21   -1    0    0  502  501  0.00000000000E+00  0.00000000000E+00  0.22871781944E+02  0.22871781944E+02  0.00000000000E+00 0.  1.
         21   -1    0    0  501  502 -0.00000000000E+00 -0.00000000000E+00 -0.22690602965E+04  0.22690602965E+04  0.00000000000E+00 0.  1.
      99926    2    1    2    0    0  0.00000000000E+00  0.00000000000E+00 -0.22461885146E+04  0.22919320785E+04  0.45562024679E+03 0.  0.
      99925    2    3    3    0    0 -0.37239172273E+02 -0.87233672809E+02 -0.17283191803E+04  0.17507919625E+04  0.26303771087E+03 0.  0.
         25    1    4    4    0    0  0.88212169153E+01 -0.14502069937E+02 -0.69441458396E+03  0.70579547067E+03  0.12509000000E+03 0.  0.
         25    1    3    3    0    0  0.37239172273E+02  0.87233672809E+02 -0.51786933433E+03  0.54114011601E+03  0.12509000000E+03 0.  0.
         25    1    4    4    0    0 -0.46060389188E+02 -0.72731602872E+02 -0.10339045963E+04  0.10449964918E+04  0.12509000000E+03 0.  0.
<mgrwt>
<rscale>  2 0.45562025E+03</rscale>
<asrwt>0</asrwt>
<pdfrwt beam="1">  1       21 0.33634948E-02 0.45562025E+03</pdfrwt>
<pdfrwt beam="2">  1       21 0.33368559E+00 0.45562025E+03</pdfrwt>
<totfact> 0.94564685E+03</totfact>
</mgrwt>
</event>
<event>
 7    0  0.4759581E-002  0.4612379E+03  0.7546771E-02  0.1024423E+00
         21   -1    0    0  502  501  0.00000000000E+00  0.00000000000E+00  0.95294923836E+02  0.95294923836E+02  0.00000000000E+00 0.  1.
         21   -1    0    0  501  502 -0.00000000000E+00 -0.00000000000E+00 -0.55811040631E+03  0.55811040631E+03  0.00000000000E+00 0.  1.
      99926    2    1    2    0    0  0.00000000000E+00  0.00000000000E+00 -0.46281548248E+03  0.65340533015E+03  0.46123785041E+03 0.  0.
      99925    2    3    3    0    0 -0.44126179656E+02  0.94097790650E+01 -0.44545598393E+03  0.51929893969E+03  0.26306784575E+03 0.  0.
         25    1    4    4    0    0 -0.34480909771E+02  0.12535547960E+02 -0.15269311969E+03  0.20077044106E+03  0.12509000000E+03 0.  0.
         25    1    4    4    0    0 -0.96452698847E+01 -0.31257688945E+01 -0.29276286424E+03  0.31852849863E+03  0.12509000000E+03 0.  0.
         25    1    3    3    0    0  0.44126179656E+02 -0.94097790650E+01 -0.17359498548E+02  0.13410639046E+03  0.12509000000E+03 0.  0.
<mgrwt>
<rscale>  2 0.46123785E+03</rscale>
<asrwt>0</asrwt>
<pdfrwt beam="1">  1       21 0.14013959E-01 0.46123785E+03</pdfrwt>
<pdfrwt beam="2">  1       21 0.82075062E-01 0.46123785E+03</pdfrwt>
<totfact> 0.52856401E+04</totfact>
</mgrwt>
</event>
<event>
 7    0  0.4759581E-002  0.4807737E+03  0.7546771E-02  0.1018923E+00
         21   -1    0    0  502  501  0.00000000000E+00  0.00000000000E+00  0.64539403754E+03  0.64539403754E+03  0.00000000000E+00 0. -1.
         21   -1    0    0  501  502 -0.00000000000E+00 -0.00000000000E+00 -0.89535758249E+02  0.89535758249E+02  0.00000000000E+00 0. -1.
      99926    2    1    2    0    0  0.00000000000E+00  0.35527136788E-14  0.55585827929E+03  0.73492979579E+03  0.48077372857E+03 0.  0.
      99925    2    3    3    0    0  0.83015344356E+02  0.25228454896E+02  0.50223690717E+03  0.57352724939E+03  0.26298968143E+03 0.  0.
         25    1    4    4    0    0  0.23468988448E+02 -0.30556233608E+01  0.30800584418E+03  0.33327951993E+03  0.12509000000E+03 0.  0.
         25    1    4    4    0    0  0.59546355908E+02  0.28284078256E+02  0.19423106299E+03  0.24024772947E+03  0.12509000000E+03 0.  0.
         25    1    3    3    0    0 -0.83015344356E+02 -0.25228454896E+02  0.53621372123E+02  0.16140254640E+03  0.12509000000E+03 0.  0.
<mgrwt>
<rscale>  2 0.48077373E+03</rscale>
<asrwt>0</asrwt>
<pdfrwt beam="1">  1       21 0.94910885E-01 0.48077373E+03</pdfrwt>
<pdfrwt beam="2">  1       21 0.13167024E-01 0.48077373E+03</pdfrwt>
<totfact> 0.41888794E+04</totfact>
</mgrwt>
</event>
<event>
 7    0  0.4759581E-002  0.4545154E+03  0.7546771E-02  0.1026384E+00
         21   -1    0    0  502  501  0.00000000000E+00  0.00000000000E+00  0.32987222343E+02  0.32987222343E+02  0.00000000000E+00 0.  1.
         21   -1    0    0  501  502 -0.00000000000E+00 -0.00000000000E+00 -0.15656383839E+04  0.15656383839E+04  0.00000000000E+00 0.  1.
      99926    2    1    2    0    0  0.00000000000E+00  0.14210854715E-13 -0.15326511616E+04  0.15986256063E+04  0.45451539679E+03 0.  0.
      99925    2    3    3    0    0  0.58001299685E+02  0.94158327818E+02 -0.88805952891E+03  0.93276088842E+03  0.26298898573E+03 0.  0.
         25    1    3    3    0    0 -0.58001299685E+02 -0.94158327818E+02 -0.64459163269E+03  0.66586471787E+03  0.12509000000E+03 0.  0.
         25    1    4    4    0    0  0.63497567077E+02  0.62883417634E+02 -0.54352798058E+03  0.56485081128E+03  0.12509000000E+03 0.  0.
         25    1    4    4    0    0 -0.54962673919E+01  0.31274910184E+02 -0.34453154833E+03  0.36791007714E+03  0.12509000000E+03 0.  0.
<mgrwt>
<rscale>  2 0.45451540E+03</rscale>
<asrwt>0</asrwt>
<pdfrwt beam="1">  1       21 0.48510629E-02 0.45451540E+03</pdfrwt>
<pdfrwt beam="2">  1       21 0.23024090E+00 0.45451540E+03</pdfrwt>
<totfact> 0.21541811E+04</totfact>
</mgrwt>
</event>
<event>
 7    0  0.4759581E-002  0.4457288E+03  0.7546771E-02  0.1029003E+00
         21   -1    0    0  502  501  0.00000000000E+00  0.00000000000E+00  0.45911074538E+02  0.45911074538E+02  0.00000000000E+00 0.  1.
         21   -1    0    0  501  502 -0.00000000000E+00 -0.00000000000E+00 -0.10818420918E+04  0.10818420918E+04  0.00000000000E+00 0.  1.
      99926    2    1    2    0    0  0.00000000000E+00  0.00000000000E+00 -0.10359310173E+04  0.11277531663E+04  0.44572876467E+03 0.  0.
      99925    2    3    3    0    0 -0.86183363163E+02 -0.40431454834E+02 -0.54811433943E+03  0.61523497749E+03  0.26272128542E+03 0.  0.
         25    1    3    3    0    0  0.86183363163E+02  0.40431454834E+02 -0.48781667782E+03  0.51251818884E+03  0.12509000000E+03 0.  0.
         25    1    4    4    0    0 -0.60623193766E+02 -0.25522918670E+02 -0.36587930888E+03  0.39222667906E+03  0.12509000000E+03 0.  0.
         25    1    4    4    0    0 -0.25560169396E+02 -0.14908536163E+02 -0.18223503055E+03  0.22300829843E+03  0.12509000000E+03 0.  0.
<mgrwt>
<rscale>  2 0.44572876E+03</rscale>
<asrwt>0</asrwt>
<pdfrwt beam="1">  1       21 0.67516289E-02 0.44572876E+03</pdfrwt>
<pdfrwt beam="2">  1       21 0.15909442E+00 0.44572876E+03</pdfrwt>
<totfact> 0.37146883E+04</totfact>
</mgrwt>
</event>
<event>
 7    0  0.4759581E-002  0.4519242E+03  0.7546771E-02  0.1027150E+00
         21   -1    0    0  502  501  0.00000000000E+00  0.00000000000E+00  0.24132358854E+02  0.24132358854E+02  0.00000000000E+00 0. -1.
         21   -1    0    0  501  502 -0.00000000000E+00 -0.00000000000E+00 -0.21157847742E+04  0.21157847742E+04  0.00000000000E+00 0. -1.
      99926    2    1    2    0    0  0.00000000000E+00  0.00000000000E+00 -0.20916524154E+04  0.21399171331E+04  0.45192423006E+03 0.  0.
      99925    2    3    3    0    0 -0.22097203895E+02  0.10797248731E+03 -0.13177734558E+04  0.13482843290E+04  0.26305399900E+03 0.  0.
         25    1    3    3    0    0  0.22097203895E+02 -0.10797248731E+03 -0.77387895952E+03  0.79163280410E+03  0.12509000000E+03 0.  0.
         25    1    4    4    0    0  0.20398590918E+02  0.25967831875E+02 -0.56586206441E+03  0.58046344833E+03  0.12509000000E+03 0.  0.
         25    1    4    4    0    0 -0.42495794814E+02  0.82004655436E+02 -0.75191139142E+03  0.76782088063E+03  0.12509000000E+03 0.  0.
<mgrwt>
<rscale>  2 0.45192423E+03</rscale>
<asrwt>0</asrwt>
<pdfrwt beam="1">  1       21 0.35488776E-02 0.45192423E+03</pdfrwt>
<pdfrwt beam="2">  1       21 0.31114471E+00 0.45192423E+03</pdfrwt>
<totfact> 0.11837192E+04</totfact>
</mgrwt>
</event>
<event>
 7    0  0.4759581E-002  0.4542709E+03  0.7546771E-02  0.1026456E+00
         21   -1    0    0  502  501  0.00000000000E+00  0.00000000000E+00  0.85738461017E+02  0.85738461017E+02  0.00000000000E+00 0. -1.
         21   -1    0    0  501  502 -0.00000000000E+00 -0.00000000000E+00 -0.60171964052E+03  0.60171964052E+03  0.00000000000E+00 0. -1.
      99926    2    1    2    0    0 -0.14210854715E-13 -0.17763568394E-14 -0.51598117950E+03  0.68745810153E+03  0.45427091451E+03 0.  0.
      99925    2    3    3    0    0 -0.83099466104E+02 -0.15644147960E+02 -0.43722064769E+03  0.51716133086E+03  0.26295187152E+03 0.  0.
         25    1    4    4    0    0 -0.47866149443E+02 -0.22003517051E+02 -0.29306348514E+03  0.32296909673E+03  0.12509000000E+03 0.  0.
         25    1    3    3    0    0  0.83099466104E+02  0.15644147960E+02 -0.78760531811E+02  0.17029677068E+03  0.12509000000E+03 0.  0.
         25    1    4    4    0    0 -0.35233316661E+02  0.63593690918E+01 -0.14415716255E+03  0.19419223412E+03  0.12509000000E+03 0.  0.
<mgrwt>
<rscale>  2 0.45427091E+03</rscale>
<asrwt>0</asrwt>
<pdfrwt beam="1">  1       21 0.12608597E-01 0.45427091E+03</pdfrwt>
<pdfrwt beam="2">  1       21 0.88488184E-01 0.45427091E+03</pdfrwt>
<totfact> 0.53898061E+04</totfact>
</mgrwt>
</event>
<event>
 7    0  0.4759581E-002  0.4556498E+03  0.7546771E-02  0.1026050E+00
         21   -1    0    0  502  501  0.00000000000E+00  0.00000000000E+00  0.17980842474E+03  0.17980842474E+03  0.00000000000E+00 0.  1.
         21   -1    0    0  501  502 -0.00000000000E+00 -0.00000000000E+00 -0.28866378012E+03  0.28866378012E+03  0.00000000000E+00 0.  1.
      99926    2    1    2    0    0  0.00000000000E+00  0.00000000000E+00 -0.10885535538E+03  0.46847220486E+03  0.45564977596E+03 0.  0.
      99925    2    3    3    0    0 -0.34264103611E+02  0.74876466502E+02 -0.14921740422E+03  0.31336863585E+03  0.26297063369E+03 0.  0.
         25    1    4    4    0    0 -0.37796632681E+02  0.16616619657E+02 -0.40976154363E+02  0.13795379958E+03  0.12509000000E+03 0.  0.
         25    1    4    4    0    0  0.35325290693E+01  0.58259846845E+02 -0.10824124986E+03  0.17541483628E+03  0.12509000000E+03 0.  0.
         25    1    3    3    0    0  0.34264103611E+02 -0.74876466502E+02  0.40362048835E+02  0.15510356901E+03  0.12509000000E+03 0.  0.
<mgrwt>
<rscale>  2 0.45564978E+03</rscale>
<asrwt>0</asrwt>
<pdfrwt beam="1">  1       21 0.26442416E-01 0.45564978E+03</pdfrwt>
<pdfrwt beam="2">  1       21 0.42450555E-01 0.45564978E+03</pdfrwt>
<totfact> 0.67202593E+04</totfact>
</mgrwt>
</event>
<event>
 7    0  0.4759581E-002  0.4511075E+03  0.7546771E-02  0.1027392E+00
         21   -1    0    0  502  501  0.00000000000E+00  0.00000000000E+00  0.68734753093E+02  0.68734753093E+02  0.00000000000E+00 0. -1.
         21   -1    0    0  501  502 -0.00000000000E+00 -0.00000000000E+00 -0.74015678479E+03  0.74015678479E+03  0.00000000000E+00 0. -1.
      99926    2    1    2    0    0  0.17763568394E-14  0.00000000000E+00 -0.67142203170E+03  0.80889153788E+03  0.45110749873E+03 0.  0.
      99925    2    3    3    0    0  0.11899663035E+02 -0.57181181466E+02 -0.25793623987E+03  0.37296803813E+03  0.26298814447E+03 0.  0.
         25    1    4    4    0    0  0.39653908232E+02 -0.46446172194E+02 -0.11366265688E+03  0.17971195569E+03  0.12509000000E+03 0.  0.
         25    1    3    3    0    0 -0.11899663035E+02  0.57181181466E+02 -0.41348579183E+03  0.43592349975E+03  0.12509000000E+03 0.  0.
         25    1    4    4    0    0 -0.27754245196E+02 -0.10735009273E+02 -0.14427358299E+03  0.19325608244E+03  0.12509000000E+03 0.  0.
<mgrwt>
<rscale>  2 0.45110750E+03</rscale>
<asrwt>0</asrwt>
<pdfrwt beam="1">  1       21 0.10108052E-01 0.45110750E+03</pdfrwt>
<pdfrwt beam="2">  1       21 0.10884658E+00 0.45110750E+03</pdfrwt>
<totfact> 0.48811735E+04</totfact>
</mgrwt>
</event>
<event>
 7    0  0.4759581E-002  0.4579308E+03  0.7546771E-02  0.1025383E+00
         21   -1    0    0  502  501  0.00000000000E+00  0.00000000000E+00  0.38186730819E+03  0.38186730819E+03  0.00000000000E+00 0. -1.
         21   -1    0    0  501  502 -0.00000000000E+00 -0.00000000000E+00 -0.13728630775E+03  0.13728630775E+03  0.00000000000E+00 0. -1.
      99926    2    1    2    0    0 -0.14210854715E-13  0.00000000000E+00  0.24458100045E+03  0.51915361594E+03  0.45793079299E+03 0.  0.
      99925    2    3    3    0    0  0.10677633465E+03  0.32629746031E+02  0.11850736268E+03  0.30937288230E+03  0.26306215868E+03 0.  0.
         25    1    3    3    0    0 -0.10677633465E+03 -0.32629746031E+02  0.12607363777E+03  0.20978073364E+03  0.12509000000E+03 0.  0.
         25    1    4    4    0    0  0.26725468803E+02 -0.15735041557E+02  0.64450654603E+02  0.14409454256E+03  0.12509000000E+03 0.  0.
         25    1    4    4    0    0  0.80050865847E+02  0.48364787588E+02  0.54056708073E+02  0.16527833975E+03  0.12509000000E+03 0.  0.
<mgrwt>
<rscale>  2 0.45793079E+03</rscale>
<asrwt>0</asrwt>
<pdfrwt beam="1">  1       21 0.56156957E-01 0.45793079E+03</pdfrwt>
<pdfrwt beam="2">  1       21 0.20189163E-01 0.45793079E+03</pdfrwt>
<totfact> 0.62479373E+04</totfact>
</mgrwt>
</event>
<event>
 7    0  0.4759581E-002  0.4552971E+03  0.7546771E-02  0.1026154E+00
         21   -1    0    0  502  501  0.00000000000E+00  0.00000000000E+00  0.46990438675E+02  0.46990438675E+02  0.00000000000E+00 0. -1.
         21   -1    0    0  501  502 -0.00000000000E+00 -0.00000000000E+00 -0.11028598205E+04  0.11028598205E+04  0.00000000000E+00 0. -1.
      99926    2    1    2    0    0  0.00000000000E+00  0.00000000000E+00 -0.10558693818E+04  0.11498502592E+04  0.45529711953E+03 0.  0.
      99925    2    3    3    0    0 -0.92306097836E+02 -0.64448626444E+02 -0.70294317101E+03  0.75885350787E+03  0.26278413878E+03 0.  0.
         25    1    4    4    0    0 -0.44457225644E+01 -0.33816321617E+02 -0.30121164690E+03  0.32793181057E+03  0.12509000000E+03 0.  0.
         25    1    4    4    0    0 -0.87860375271E+02 -0.30632304827E+02 -0.40173152411E+03  0.43092169730E+03  0.12509000000E+03 0.  0.
         25    1    3    3    0    0  0.92306097836E+02  0.64448626444E+02 -0.35292621082E+03  0.39099675130E+03  0.12509000000E+03 0.  0.
<mgrwt>
<rscale>  2 0.45529712E+03</rscale>
<asrwt>0</asrwt>
<pdfrwt beam="1">  1       21 0.69103586E-02 0.45529712E+03</pdfrwt>
<pdfrwt beam="2">  1       21 0.16218527E+00 0.45529712E+03</pdfrwt>
<totfact> 0.33709238E+04</totfact>
</mgrwt>
</event>
<event>
 7    0  0.4759581E-002  0.4542082E+03  0.7546771E-02  0.1026474E+00
         21   -1    0    0  502  501  0.00000000000E+00  0.00000000000E+00  0.23343354264E+03  0.23343354264E+03  0.00000000000E+00 0.  1.
         21   -1    0    0  501  502 -0.00000000000E+00 -0.00000000000E+00 -0.22094629834E+03  0.22094629834E+03  0.00000000000E+00 0.  1.
      99926    2    1    2    0    0  0.00000000000E+00 -0.17763568394E-14  0.12487244299E+02  0.45437984097E+03  0.45420822165E+03 0.  0.
      99925    2    3    3    0    0 -0.11222265836E+03 -0.50795082949E+01  0.10922816443E+02  0.28624393764E+03  0.26305238540E+03 0.  0.
         25    1    3    3    0    0  0.11222265836E+03  0.50795082949E+01  0.15644278561E+01  0.16813590333E+03  0.12509000000E+03 0.  0.
         25    1    4    4    0    0 -0.87074202833E+02  0.26115401721E+02  0.32055091350E+01  0.15466646176E+03  0.12509000000E+03 0.  0.
         25    1    4    4    0    0 -0.25148455528E+02 -0.31194910015E+02  0.77173073078E+01  0.13157747588E+03  0.12509000000E+03 0.  0.
<mgrwt>
<rscale>  2 0.45420822E+03</rscale>
<asrwt>0</asrwt>
<pdfrwt beam="1">  1       21 0.34328462E-01 0.45420822E+03</pdfrwt>
<pdfrwt beam="2">  1       21 0.32492103E-01 0.45420822E+03</pdfrwt>
<totfact> 0.69026304E+04</totfact>
</mgrwt>
</event>
<event>
 7    0  0.4759581E-002  0.4583504E+03  0.7546771E-02  0.1025261E+00
         21   -1    0    0  502  501  0.00000000000E+00  0.00000000000E+00  0.79577148576E+02  0.79577148576E+02  0.00000000000E+00 0. -1.
         21   -1    0    0  501  502 -0.00000000000E+00 -0.00000000000E+00 -0.66000434480E+03  0.66000434480E+03  0.00000000000E+00 0. -1.
      99926    2    1    2    0    0  0.88817841970E-15 -0.14210854715E-13 -0.58042719622E+03  0.73958149337E+03  0.45835036296E+03 0.  0.
      99925    2    3    3    0    0 -0.42915491849E+01  0.11142485766E+03 -0.31104466022E+03  0.42233021268E+03  0.26302112385E+03 0.  0.
         25    1    4    4    0    0 -0.99134876054E+01  0.98172367212E+02 -0.18536490049E+03  0.24442533697E+03  0.12509000000E+03 0.  0.
         25    1    4    4    0    0  0.56219384205E+01  0.13252490449E+02 -0.12567975973E+03  0.17790487571E+03  0.12509000000E+03 0.  0.
         25    1    3    3    0    0  0.42915491849E+01 -0.11142485766E+03 -0.26938253600E+03  0.31725128069E+03  0.12509000000E+03 0.  0.
<mgrwt>
<rscale>  2 0.45835036E+03</rscale>
<asrwt>0</asrwt>
<pdfrwt beam="1">  1       21 0.11702522E-01 0.45835036E+03</pdfrwt>
<pdfrwt beam="2">  1       21 0.97059461E-01 0.45835036E+03</pdfrwt>
<totfact> 0.49489612E+04</totfact>
</mgrwt>
</event>
<event>
 7    0  0.4759581E-002  0.4672681E+03  0.7546771E-02  0.1022694E+00
         21   -1    0    0  502  501  0.00000000000E+00  0.00000000000E+00  0.11171785992E+04  0.11171785992E+04  0.00000000000E+00 0. -1.
         21   -1    0    0  501  502 -0.00000000000E+00 -0.00000000000E+00 -0.48859568564E+02  0.48859568564E+02  0.00000000000E+00 0. -1.
      99926    2    1    2    0    0  0.00000000000E+00 -0.71054273576E-14  0.10683190306E+04  0.11660381678E+04  0.46726807880E+03 0.  0.
      99925    2    3    3    0    0  0.11154416409E+03 -0.52604501308E+02  0.62568622537E+03  0.68982325567E+03  0.26298961452E+03 0.  0.
         25    1    4    4    0    0  0.56188580369E+02 -0.32138284117E+01  0.38388173816E+03  0.40765203575E+03  0.12509000000E+03 0.  0.
         25    1    4    4    0    0  0.55355583722E+02 -0.49390672896E+02  0.24180448721E+03  0.28217121992E+03  0.12509000000E+03 0.  0.
         25    1    3    3    0    0 -0.11154416409E+03  0.52604501308E+02  0.44263280526E+03  0.47621491208E+03  0.12509000000E+03 0.  0.
<mgrwt>
<rscale>  2 0.46726808E+03</rscale>
<asrwt>0</asrwt>
<pdfrwt beam="1">  1       21 0.16429096E+00 0.46726808E+03</pdfrwt>
<pdfrwt beam="2">  1       21 0.71852313E-02 0.46726808E+03</pdfrwt>
<totfact> 0.30253978E+04</totfact>
</mgrwt>
</event>
<event>
 7    0  0.4759581E-002  0.4557266E+03  0.7546771E-02  0.1026028E+00
         21   -1    0    0  502  501  0.00000000000E+00  0.00000000000E+00  0.35244219344E+03  0.35244219344E+03  0.00000000000E+00 0. -1.
         21   -1    0    0  501  502 -0.00000000000E+00 -0.00000000000E+00 -0.14731971510E+03  0.14731971510E+03  0.00000000000E+00 0. -1.
      99926    2    1    2    0    0  0.71054273576E-14  0.00000000000E+00  0.20512247834E+03  0.49976190854E+03  0.45572660017E+03 0.  0.
      99925    2    3    3    0    0 -0.52712177325E+02 -0.99120743946E+02  0.10838847818E+03  0.30583287408E+03  0.26302507323E+03 0.  0.
         25    1    4    4    0    0 -0.65134135751E+02 -0.60597662365E+02  0.45569738619E+02  0.16012070916E+03  0.12509000000E+03 0.  0.
         25    1    3    3    0    0  0.52712177325E+02  0.99120743946E+02  0.96734000156E+02  0.19392903446E+03  0.12509000000E+03 0.  0.
         25    1    4    4    0    0  0.12421958426E+02 -0.38523081580E+02  0.62818739565E+02  0.14571216492E+03  0.12509000000E+03 0.  0.
<mgrwt>
<rscale>  2 0.45572660E+03</rscale>
<asrwt>0</asrwt>
<pdfrwt beam="1">  1       21 0.51829734E-01 0.45572660E+03</pdfrwt>
<pdfrwt beam="2">  1       21 0.21664664E-01 0.45572660E+03</pdfrwt>
<totfact> 0.64912178E+04</totfact>
</mgrwt>
</event>
<event>
 7    0  0.4759581E-002  0.4550353E+03  0.7546771E-02  0.1026231E+00
         21   -1    0    0  502  501  0.00000000000E+00  0.00000000000E+00  0.50233946092E+02  0.50233946092E+02  0.00000000000E+00 0. -1.
         21   -1    0    0  501  502 -0.00000000000E+00 -0.00000000000E+00 -0.10304641253E+04  0.10304641253E+04  0.00000000000E+00 0. -1.
      99926    2    1    2    0    0  0.00000000000E+00 -0.71054273576E-14 -0.98023017920E+03  0.10806980714E+04  0.45503529234E+03 0.  0.
      99925    2    3    3    0    0 -0.90460502837E+02  0.57487483858E+02 -0.53373756340E+03  0.60478728411E+03  0.26344631155E+03 0.  0.
         25    1    4    4    0    0 -0.12523783242E+02  0.24740794254E+02 -0.30380838286E+03  0.32972108462E+03  0.12509000000E+03 0.  0.
         25    1    4    4    0    0 -0.77936719595E+02  0.32746689603E+02 -0.22992918053E+03  0.27506619949E+03  0.12509000000E+03 0.  0.
         25    1    3    3    0    0  0.90460502837E+02 -0.57487483858E+02 -0.44649261581E+03  0.47591078727E+03  0.12509000000E+03 0.  0.
<mgrwt>
<rscale>  2 0.45503529E+03</rscale>
<asrwt>0</asrwt>
<pdfrwt beam="1">  1       21 0.73873457E-02 0.45503529E+03</pdfrwt>
<pdfrwt beam="2">  1       21 0.15153883E+00 0.45503529E+03</pdfrwt>
<totfact> 0.36160789E+04</totfact>
</mgrwt>
</event>
<event>
 7    0  0.4759581E-002  0.4584022E+03  0.7546771E-02  0.1025246E+00
         21   -1    0    0  502  501  0.00000000000E+00  0.00000000000E+00  0.27415719580E+04  0.27415719580E+04  0.00000000000E+00 0. -1.
         21   -1    0    0  501  502 -0.00000000000E+00 -0.00000000000E+00 -0.19161683793E+02  0.19161683793E+02  0.00000000000E+00 0. -1.
      99926    2    1    2    0    0  0.00000000000E+00  0.00000000000E+00  0.27224102742E+04  0.27607336418E+04  0.45840215948E+03 0.  0.
      99925    2    3    3    0    0  0.23793425996E+02  0.45717609655E+02  0.23359625594E+04  0.23512881982E+04  0.26301879174E+03 0.  0.
         25    1    4    4    0    0  0.51947557329E+02  0.29257485032E+02  0.11656894015E+04  0.11738968600E+04  0.12509000000E+03 0.  0.
         25    1    4    4    0    0 -0.28154131333E+02  0.16460124623E+02  0.11702731579E+04  0.11773913381E+04  0.12509000000E+03 0.  0.
         25    1    3    3    0    0 -0.23793425996E+02 -0.45717609655E+02  0.38644771478E+03  0.40944544363E+03  0.12509000000E+03 0.  0.
<mgrwt>
<rscale>  2 0.45840216E+03</rscale>
<asrwt>0</asrwt>
<pdfrwt beam="1">  1       21 0.40317208E+00 0.45840216E+03</pdfrwt>
<pdfrwt beam="2">  1       21 0.28178966E-02 0.45840216E+03</pdfrwt>
<totfact> 0.46899101E+03</totfact>
</mgrwt>
</event>
<event>
 7    0  0.4759581E-002  0.4546854E+03  0.7546771E-02  0.1026334E+00
         21   -1    0    0  502  501  0.00000000000E+00  0.00000000000E+00  0.14860028622E+03  0.14860028622E+03  0.00000000000E+00 0.  1.
         21   -1    0    0  501  502 -0.00000000000E+00 -0.00000000000E+00 -0.34781020064E+03  0.34781020064E+03  0.00000000000E+00 0.  1.
      99926    2    1    2    0    0  0.00000000000E+00  0.00000000000E+00 -0.19920991442E+03  0.49641048686E+03  0.45468536535E+03 0.  0.
      99925    2    3    3    0    0  0.21854198869E+02  0.98644926373E+02 -0.70590337139E+02  0.29050047917E+03  0.26305722798E+03 0.  0.
         25    1    4    4    0    0  0.29726761650E+02  0.54104675716E+02 -0.73045510531E+02  0.15746158580E+03  0.12509000000E+03 0.  0.
         25    1    4    4    0    0 -0.78725627810E+01  0.44540250658E+02  0.24551733913E+01  0.13303889337E+03  0.12509000000E+03 0.  0.
         25    1    3    3    0    0 -0.21854198869E+02 -0.98644926373E+02 -0.12861957728E+03  0.20591000769E+03  0.12509000000E+03 0.  0.
<mgrwt>
<rscale>  2 0.45468537E+03</rscale>
<asrwt>0</asrwt>
<pdfrwt beam="1">  1       21 0.21852984E-01 0.45468537E+03</pdfrwt>
<pdfrwt beam="2">  1       21 0.51148558E-01 0.45468537E+03</pdfrwt>
<totfact> 0.65687489E+04</totfact>
</mgrwt>
</event>
<event>
 7    0  0.4759581E-002  0.4554735E+03  0.7546771E-02  0.1026102E+00
         21   -1    0    0  502  501  0.00000000000E+00  0.00000000000E+00  0.15207909011E+03  0.15207909011E+03  0.00000000000E+00 0. -1.
         21   -1    0    0  501  502 -0.00000000000E+00 -0.00000000000E+00 -0.34103321998E+03  0.34103321998E+03  0.00000000000E+00 0. -1.
      99926    2    1    2    0    0  0.35527136788E-14  0.00000000000E+00 -0.18895412987E+03  0.49311231008E+03  0.45547347580E+03 0.  0.
      99925    2    3    3    0    0  0.29533826111E+02 -0.80539893116E+02 -0.38341886784E+02  0.27935900102E+03  0.26308255339E+03 0.  0.
         25    1    4    4    0    0 -0.71738769484E+01 -0.10955252291E+02 -0.38673955957E+02  0.13158520066E+03  0.12509000000E+03 0.  0.
         25    1    3    3    0    0 -0.29533826111E+02  0.80539893116E+02 -0.15061224309E+03  0.21375330907E+03  0.12509000000E+03 0.  0.
         25    1    4    4    0    0  0.36707703059E+02 -0.69584640825E+02  0.33206917318E+00  0.14777380036E+03  0.12509000000E+03 0.  0.
<mgrwt>
<rscale>  2 0.45547348E+03</rscale>
<asrwt>0</asrwt>
<pdfrwt beam="1">  1       21 0.22364572E-01 0.45547348E+03</pdfrwt>
<pdfrwt beam="2">  1       21 0.50151944E-01 0.45547348E+03</pdfrwt>
<totfact> 0.65510711E+04</totfact>
</mgrwt>
</event>
<event>
 7    0  0.4759581E-002  0.5537494E+03  0.7546771E-02  0.1000630E+00
         21   -1    0    0  502  501  0.00000000000E+00  0.00000000000E+00  0.47267866464E+03  0.47267866464E+03  0.00000000000E+00 0.  1.
         21   -1    0    0  501  502 -0.00000000000E+00 -0.00000000000E+00 -0.16218122566E+03  0.16218122566E+03  0.00000000000E+00 0.  1.
      99926    2    1    2    0    0  0.00000000000E+00 -0.28421709430E-13  0.31049743898E+03  0.63485989029E+03  0.55374942049E+03 0.  0.
      99925    2    3    3    0    0  0.55174117658E+02 -0.18009209794E+03  0.14432702992E+03  0.35425793031E+03  0.26304190279E+03 0.  0.
         25    1    3    3    0    0 -0.55174117658E+02  0.18009209794E+03  0.16617040905E+03  0.28060195998E+03  0.12509000000E+03 0.  0.
         25    1    4    4    0    0  0.29422878216E+02 -0.44771121842E+02  0.77173638035E+02  0.15643988501E+03  0.12509000000E+03 0.  0.
         25    1    4    4    0    0  0.25751239442E+02 -0.13532097610E+03  0.67153391889E+02  0.19781804530E+03  0.12509000000E+03 0.  0.
<mgrwt>
<rscale>  2 0.55374942E+03</rscale>
<asrwt>0</asrwt>
<pdfrwt beam="1">  1       21 0.69511568E-01 0.55374942E+03</pdfrwt>
<pdfrwt beam="2">  1       21 0.23850180E-01 0.55374942E+03</pdfrwt>
<totfact> 0.27732521E+04</totfact>
</mgrwt>
</event>
<event>
 7    0  0.4759581E-002  0.4548584E+03  0.7546771E-02  0.1026283E+00
         21   -1    0    0  502  501  0.00000000000E+00  0.00000000000E+00  0.28715710802E+03  0.28715710802E+03  0.00000000000E+00 0. -1.
         21   -1    0    0  501  502 -0.00000000000E+00 -0.00000000000E+00 -0.18012451787E+03  0.18012451787E+03  0.00000000000E+00 0. -1.
      99926    2    1    2    0    0  0.00000000000E+00 -0.14210854715E-13  0.10703259016E+03  0.46728162589E+03  0.45485837635E+03 0.  0.
      99925    2    3    3    0    0 -0.31891587617E+02  0.68204148250E+02 -0.19166642143E+02  0.27429812004E+03  0.26306504763E+03 0.  0.
         25    1    3    3    0    0  0.31891587617E+02 -0.68204148250E+02  0.12619923230E+03  0.19298350585E+03  0.12509000000E+03 0.  0.
         25    1    4    4    0    0 -0.14726682453E+02 -0.64864080609E+01 -0.19361053078E+02  0.12759822547E+03  0.12509000000E+03 0.  0.
         25    1    4    4    0    0 -0.17164905164E+02  0.74690556311E+02  0.19441093451E+00  0.14669989457E+03  0.12509000000E+03 0.  0.
<mgrwt>
<rscale>  2 0.45485838E+03</rscale>
<asrwt>0</asrwt>
<pdfrwt beam="1">  1       21 0.42228986E-01 0.45485838E+03</pdfrwt>
<pdfrwt beam="2">  1       21 0.26488900E-01 0.45485838E+03</pdfrwt>
<totfact> 0.67714661E+04</totfact>
</mgrwt>
</event>
<event>
 7    0  0.4759581E-002  0.4577214E+03  0.7546771E-02  0.1025444E+00
         21   -1    0    0  502  501  0.00000000000E+00  0.00000000000E+00  0.37715599422E+03  0.37715599422E+03  0.00000000000E+00 0.  1.
         21   -1    0    0  501  502 -0.00000000000E+00 -0.00000000000E+00 -0.13887418519E+03  0.13887418519E+03  0.00000000000E+00 0.  1.
      99926    2    1    2    0    0  0.00000000000E+00  0.00000000000E+00  0.23828180903E+03  0.51603017941E+03  0.45772144973E+03 0.  0.
      99925    2    3    3    0    0  0.11212902216E+03  0.25067187546E+02  0.13364048507E+03  0.31653432410E+03  0.26293139331E+03 0.  0.
         25    1    4    4    0    0  0.47344583888E+02  0.23797457311E+02  0.23849423651E+02  0.13792799464E+03  0.12509000000E+03 0.  0.
         25    1    4    4    0    0  0.64784438272E+02  0.12697302354E+01  0.10979106141E+03  0.17860632946E+03  0.12509000000E+03 0.  0.
         25    1    3    3    0    0 -0.11212902216E+03 -0.25067187546E+02  0.10464132397E+03  0.19949585530E+03  0.12509000000E+03 0.  0.
<mgrwt>
<rscale>  2 0.45772145E+03</rscale>
<asrwt>0</asrwt>
<pdfrwt beam="1">  1       21 0.55464117E-01 0.45772145E+03</pdfrwt>
<pdfrwt beam="2">  1       21 0.20422674E-01 0.45772145E+03</pdfrwt>
<totfact> 0.62791545E+04</totfact>
</mgrwt>
</event>
<event>
 7    0  0.4759581E-002  0.4563839E+03  0.7546771E-02  0.1025835E+00
         21   -1    0    0  502  501  0.00000000000E+00  0.00000000000E+00  0.79017219860E+02  0.79017219860E+02  0.00000000000E+00 0. -1.
         21   -1    0    0  501  502 -0.00000000000E+00 -0.00000000000E+00 -0.65899009402E+03  0.65899009402E+03  0.00000000000E+00 0. -1.
      99926    2    1    2    0    0  0.00000000000E+00  0.00000000000E+00 -0.57997287416E+03  0.73800731388E+03  0.45638389606E+03 0.  0.
      99925    2    3    3    0    0 -0.43294069532E+02  0.66224536338E+02 -0.49821181269E+03  0.56891430710E+03  0.26303690396E+03 0.  0.
         25    1    4    4    0    0 -0.27215249230E+02  0.24153843813E+02 -0.32805940267E+03  0.35297954295E+03  0.12509000000E+03 0.  0.
         25    1    4    4    0    0 -0.16078820303E+02  0.42070692525E+02 -0.17015241002E+03  0.21593476415E+03  0.12509000000E+03 0.  0.
         25    1    3    3    0    0  0.43294069532E+02 -0.66224536338E+02 -0.81761061471E+02  0.16909300678E+03  0.12509000000E+03 0.  0.
<mgrwt>
<rscale>  2 0.45638390E+03</rscale>
<asrwt>0</asrwt>
<pdfrwt beam="1">  1       21 0.11620179E-01 0.45638390E+03</pdfrwt>
<pdfrwt beam="2">  1       21 0.96910307E-01 0.45638390E+03</pdfrwt>
<totfact> 0.50337604E+04</totfact>
</mgrwt>
</event>
<event>
 7    0  0.4759581E-002  0.4626443E+03  0.7546771E-02  0.1024017E+00
         21   -1    0    0  502  501  0.00000000000E+00  0.00000000000E+00  0.41032595250E+03  0.41032595250E+03  0.00000000000E+00 0. -1.
         21   -1    0    0  501  502 -0.00000000000E+00 -0.00000000000E+00 -0.13040837844E+03  0.13040837844E+03  0.00000000000E+00 0. -1.
      99926    2    1    2    0    0  0.00000000000E+00  0.00000000000E+00  0.27991757406E+03  0.54073433094E+03  0.46264432169E+03 0.  0.
      99925    2    3    3    0    0 -0.11324867620E+02 -0.10034073469E+03  0.25121976044E+03  0.37743219295E+03  0.26295850733E+03 0.  0.
         25    1    4    4    0    0 -0.15381132659E+02 -0.70136673709E+02  0.17876617078E+03  0.22969672213E+03  0.12509000000E+03 0.  0.
         25    1    3    3    0    0  0.11324867620E+02  0.10034073469E+03  0.28697813628E+02  0.16330213799E+03  0.12509000000E+03 0.  0.
         25    1    4    4    0    0  0.40562650384E+01 -0.30204060981E+02  0.72453589651E+02  0.14773547082E+03  0.12509000000E+03 0.  0.
<mgrwt>
<rscale>  2 0.46264432E+03</rscale>
<asrwt>0</asrwt>
<pdfrwt beam="1">  1       21 0.60342052E-01 0.46264432E+03</pdfrwt>
<pdfrwt beam="2">  1       21 0.19177703E-01 0.46264432E+03</pdfrwt>
<totfact> 0.58839536E+04</totfact>
</mgrwt>
</event>
<event>
 7    0  0.4759581E-002  0.4568328E+03  0.7546771E-02  0.1025704E+00
         21   -1    0    0  502  501  0.00000000000E+00  0.00000000000E+00  0.46560205091E+03  0.46560205091E+03  0.00000000000E+00 0.  1.
         21   -1    0    0  501  502 -0.00000000000E+00 -0.00000000000E+00 -0.11205717106E+03  0.11205717106E+03  0.00000000000E+00 0.  1.
      99926    2    1    2    0    0  0.00000000000E+00  0.00000000000E+00  0.35354487986E+03  0.57765922197E+03  0.45683278631E+03 0.  0.
      99925    2    3    3    0    0  0.63481074222E+02  0.91156228465E+02  0.18465122874E+03  0.33993695069E+03  0.26291015461E+03 0.  0.
         25    1    4    4    0    0  0.13131082012E+02  0.14290292992E+02  0.11001148443E+03  0.16771008495E+03  0.12509000000E+03 0.  0.
         25    1    4    4    0    0  0.50349992210E+02  0.76865935473E+02  0.74639744310E+02  0.17222686574E+03  0.12509000000E+03 0.  0.
         25    1    3    3    0    0 -0.63481074222E+02 -0.91156228465E+02  0.16889365112E+03  0.23772227128E+03  0.12509000000E+03 0.  0.
<mgrwt>
<rscale>  2 0.45683279E+03</rscale>
<asrwt>0</asrwt>
<pdfrwt beam="1">  1       21 0.68470889E-01 0.45683279E+03</pdfrwt>
<pdfrwt beam="2">  1       21 0.16478996E-01 0.45683279E+03</pdfrwt>
<totfact> 0.59212224E+04</totfact>
</mgrwt>
</event>
<event>
 7    0  0.4759581E-002  0.4307682E+03  0.7546771E-02  0.1033618E+00
         21   -1    0    0  502  501  0.00000000000E+00  0.00000000000E+00  0.16346738853E+03  0.16346738853E+03  0.00000000000E+00 0.  1.
         21   -1    0    0  501  502 -0.00000000000E+00 -0.00000000000E+00 -0.28378934634E+03  0.28378934634E+03  0.00000000000E+00 0.  1.
      99926    2    1    2    0    0  0.00000000000E+00  0.00000000000E+00 -0.12032195781E+03  0.44725673486E+03  0.43076816659E+03 0.  0.
      99925    2    3    3    0    0 -0.26797978257E+02 -0.23485241638E+02 -0.16157284864E+03  0.31080589277E+03  0.26310611804E+03 0.  0.
         25    1    4    4    0    0  0.16890928969E+02  0.28525530624E-01 -0.49157233661E+02  0.13545938881E+03  0.12509000000E+03 0.  0.
         25    1    4    4    0    0 -0.43688907226E+02 -0.23513767169E+02 -0.11241561498E+03  0.17534650396E+03  0.12509000000E+03 0.  0.
         25    1    3    3    0    0  0.26797978257E+02  0.23485241638E+02  0.41250890826E+02  0.13645084209E+03  0.12509000000E+03 0.  0.
<mgrwt>
<rscale>  2 0.43076817E+03</rscale>
<asrwt>0</asrwt>
<pdfrwt beam="1">  1       21 0.24039322E-01 0.43076817E+03</pdfrwt>
<pdfrwt beam="2">  1       21 0.41733727E-01 0.43076817E+03</pdfrwt>
<totfact> 0.84227624E+04</totfact>
</mgrwt>
</event>
<event>
 7    0  0.4759581E-002  0.4431415E+03  0.7546771E-02  0.1029787E+00
         21   -1    0    0  502  501  0.00000000000E+00  0.00000000000E+00  0.35304291190E+02  0.35304291190E+02  0.00000000000E+00 0.  1.
         21   -1    0    0  501  502 -0.00000000000E+00 -0.00000000000E+00 -0.13905846197E+04  0.13905846197E+04  0.00000000000E+00 0.  1.
      99926    2    1    2    0    0  0.00000000000E+00  0.00000000000E+00 -0.13552803285E+04  0.14258889109E+04  0.44314153197E+03 0.  0.
      99925    2    3    3    0    0 -0.30847398991E+02  0.23915826884E+02 -0.11639916565E+04  0.11940217227E+04  0.26322570008E+03 0.  0.
         25    1    4    4    0    0 -0.99696938635E+01 -0.27812450898E+02 -0.52328655190E+03  0.53884065430E+03  0.12509000000E+03 0.  0.
         25    1    4    4    0    0 -0.20877705128E+02  0.51728277782E+02 -0.64070510459E+03  0.65518106844E+03  0.12509000000E+03 0.  0.
         25    1    3    3    0    0  0.30847398991E+02 -0.23915826884E+02 -0.19128867201E+03  0.23186718815E+03  0.12509000000E+03 0.  0.
<mgrwt>
<rscale>  2 0.44314153E+03</rscale>
<asrwt>0</asrwt>
<pdfrwt beam="1">  1       21 0.51918073E-02 0.44314153E+03</pdfrwt>
<pdfrwt beam="2">  1       21 0.20449775E+00 0.44314153E+03</pdfrwt>
<totfact> 0.28156748E+04</totfact>
</mgrwt>
</event>
<event>
 7    0  0.4759581E-002  0.4548854E+03  0.7546771E-02  0.1026275E+00
         21   -1    0    0  502  501  0.00000000000E+00  0.00000000000E+00  0.63147507663E+03  0.63147507663E+03  0.00000000000E+00 0. -1.
         21   -1    0    0  501  502 -0.00000000000E+00 -0.00000000000E+00 -0.81919594557E+02  0.81919594557E+02  0.00000000000E+00 0. -1.
      99926    2    1    2    0    0 -0.44408920985E-15  0.00000000000E+00  0.54955548208E+03  0.71339467119E+03  0.45488540205E+03 0.  0.
      99925    2    3    3    0    0  0.33464397972E+01 -0.18222092994E+02  0.52043506892E+03  0.58363046235E+03  0.26349309724E+03 0.  0.
         25    1    3    3    0    0 -0.33464397972E+01  0.18222092994E+02  0.29120413154E+02  0.12976420884E+03  0.12509000000E+03 0.  0.
         25    1    4    4    0    0 -0.16087472557E+02  0.28071191771E+02  0.26446941821E+03  0.29434398218E+03  0.12509000000E+03 0.  0.
         25    1    4    4    0    0  0.19433912354E+02 -0.46293284766E+02  0.25596565072E+03  0.28928648017E+03  0.12509000000E+03 0.  0.
<mgrwt>
<rscale>  2 0.45488540E+03</rscale>
<asrwt>0</asrwt>
<pdfrwt beam="1">  1       21 0.92863979E-01 0.45488540E+03</pdfrwt>
<pdfrwt beam="2">  1       21 0.12047000E-01 0.45488540E+03</pdfrwt>
<totfact> 0.52228834E+04</totfact>
</mgrwt>
</event>
<event>
 7    0  0.4759581E-002  0.4559119E+03  0.7546771E-02  0.1025974E+00
         21   -1    0    0  502  501  0.00000000000E+00  0.00000000000E+00  0.21481841407E+03  0.21481841407E+03  0.00000000000E+00 0.  1.
         21   -1    0    0  501  502 -0.00000000000E+00 -0.00000000000E+00 -0.24189689022E+03  0.24189689022E+03  0.00000000000E+00 0.  1.
      99926    2    1    2    0    0  0.00000000000E+00  0.00000000000E+00 -0.27078476148E+02  0.45671530429E+03  0.45591186133E+03 0.  0.
      99925    2    3    3    0    0  0.32737821219E+02 -0.26922349193E+02  0.88990803162E+02  0.28088537645E+03  0.26302215465E+03 0.  0.
         25    1    4    4    0    0  0.45851394329E+02 -0.40370143587E+01  0.73217221698E+02  0.15207536783E+03  0.12509000000E+03 0.  0.
         25    1    3    3    0    0 -0.32737821219E+02  0.26922349193E+02 -0.11606927931E+03  0.17582992784E+03  0.12509000000E+03 0.  0.
         25    1    4    4    0    0 -0.13113573110E+02 -0.22885334834E+02  0.15773581465E+02  0.12881000863E+03  0.12509000000E+03 0.  0.
<mgrwt>
<rscale>  2 0.45591186E+03</rscale>
<asrwt>0</asrwt>
<pdfrwt beam="1">  1       21 0.31590943E-01 0.45591186E+03</pdfrwt>
<pdfrwt beam="2">  1       21 0.35573072E-01 0.45591186E+03</pdfrwt>
<totfact> 0.67924808E+04</totfact>
</mgrwt>
</event>
<event>
 7    0  0.4759581E-002  0.4287921E+03  0.7546771E-02  0.1034242E+00
         21   -1    0    0  502  501  0.00000000000E+00  0.00000000000E+00  0.25181671995E+03  0.25181671995E+03  0.00000000000E+00 0.  1.
         21   -1    0    0  501  502 -0.00000000000E+00 -0.00000000000E+00 -0.18253616062E+03  0.18253616062E+03  0.00000000000E+00 0.  1.
      99926    2    1    2    0    0  0.71054273576E-14  0.35527136788E-14  0.69280559330E+02  0.43435288058E+03  0.42879205795E+03 0.  0.
      99925    2    3    3    0    0  0.56137685262E+02  0.21236739184E+02  0.10758884154E+03  0.29041723043E+03  0.26299119777E+03 0.  0.
         25    1    4    4    0    0 -0.81521448835E+01  0.25607481355E+02  0.64328323923E+02  0.14320559321E+03  0.12509000000E+03 0.  0.
         25    1    4    4    0    0  0.64289830146E+02 -0.43707421707E+01  0.43260517622E+02  0.14721163722E+03  0.12509000000E+03 0.  0.
         25    1    3    3    0    0 -0.56137685262E+02 -0.21236739184E+02 -0.38308282215E+02  0.14393565015E+03  0.12509000000E+03 0.  0.
<mgrwt>
<rscale>  2 0.42879206E+03</rscale>
<asrwt>0</asrwt>
<pdfrwt beam="1">  1       21 0.37031871E-01 0.42879206E+03</pdfrwt>
<pdfrwt beam="2">  1       21 0.26843553E-01 0.42879206E+03</pdfrwt>
<totfact> 0.86875597E+04</totfact>
</mgrwt>
</event>
<event>
 7    0  0.4759581E-002  0.4664853E+03  0.7546771E-02  0.1022917E+00
         21   -1    0    0  502  501  0.00000000000E+00  0.00000000000E+00  0.27002673459E+03  0.27002673459E+03  0.00000000000E+00 0.  1.
         21   -1    0    0  501  502 -0.00000000000E+00 -0.00000000000E+00 -0.20146945902E+03  0.20146945902E+03  0.00000000000E+00 0.  1.
      99926    2    1    2    0    0  0.00000000000E+00  0.00000000000E+00  0.68557275567E+02  0.47149619362E+03  0.46648532727E+03 0.  0.
      99925    2    3    3    0    0 -0.38364531462E+02 -0.66115846316E+02 -0.55475597873E+02  0.27946805973E+03  0.26302416627E+03 0.  0.
         25    1    3    3    0    0  0.38364531462E+02  0.66115846316E+02  0.12403287344E+03  0.19202813388E+03  0.12509000000E+03 0.  0.
         25    1    4    4    0    0 -0.25959621295E+02 -0.41966629475E+02 -0.68304073854E+02  0.15082458199E+03  0.12509000000E+03 0.  0.
         25    1    4    4    0    0 -0.12404910167E+02 -0.24149216842E+02  0.12828475981E+02  0.12864347774E+03  0.12509000000E+03 0.  0.
<mgrwt>
<rscale>  2 0.46648533E+03</rscale>
<asrwt>0</asrwt>
<pdfrwt beam="1">  1       21 0.39709814E-01 0.46648533E+03</pdfrwt>
<pdfrwt beam="2">  1       21 0.29627862E-01 0.46648533E+03</pdfrwt>
<totfact> 0.61519069E+04</totfact>
</mgrwt>
</event>
<event>
 7    0  0.4759581E-002  0.4655487E+03  0.7546771E-02  0.1023184E+00
         21   -1    0    0  502  501  0.00000000000E+00  0.00000000000E+00  0.10360345576E+04  0.10360345576E+04  0.00000000000E+00 0. -1.
         21   -1    0    0  501  502 -0.00000000000E+00 -0.00000000000E+00 -0.52299304504E+02  0.52299304504E+02  0.00000000000E+00 0. -1.
      99926    2    1    2    0    0  0.00000000000E+00  0.14210854715E-13  0.98373525313E+03  0.10883338621E+04  0.46554865183E+03 0.  0.
      99925    2    3    3    0    0 -0.74875704582E+02  0.83390516460E+02  0.73017427585E+03  0.78419404779E+03  0.26314536307E+03 0.  0.
         25    1    3    3    0    0  0.74875704582E+02 -0.83390516460E+02  0.25356097728E+03  0.30413981435E+03  0.12509000000E+03 0.  0.
         25    1    4    4    0    0 -0.23336709717E+01  0.15405828603E+02  0.30848583053E+03  0.33324735755E+03  0.12509000000E+03 0.  0.
         25    1    4    4    0    0 -0.72542033611E+02  0.67984687857E+02  0.42168844531E+03  0.45094669024E+03  0.12509000000E+03 0.  0.
<mgrwt>
<rscale>  2 0.46554865E+03</rscale>
<asrwt>0</asrwt>
<pdfrwt beam="1">  1       21 0.15235801E+00 0.46554865E+03</pdfrwt>
<pdfrwt beam="2">  1       21 0.76910749E-02 0.46554865E+03</pdfrwt>
<totfact> 0.33092744E+04</totfact>
</mgrwt>
</event>
<event>
 7    0  0.4759581E-002  0.4553514E+03  0.7546771E-02  0.1026138E+00
         21   -1    0    0  502  501  0.00000000000E+00  0.00000000000E+00  0.97731013320E+02  0.97731013320E+02  0.00000000000E+00 0. -1.
         21   -1    0    0  501  502 -0.00000000000E+00 -0.00000000000E+00 -0.53039687031E+03  0.53039687031E+03  0.00000000000E+00 0. -1.
      99926    2    1    2    0    0  0.00000000000E+00  0.00000000000E+00 -0.43266585699E+03  0.62812788363E+03  0.45535139660E+03 0.  0.
      99925    2    3    3    0    0 -0.38680983046E+02 -0.72807345628E+02 -0.37974825982E+03  0.46924142034E+03  0.26302403255E+03 0.  0.
         25    1    4    4    0    0 -0.29746803727E+01 -0.55479950837E+02 -0.13918512928E+03  0.19520984089E+03  0.12509000000E+03 0.  0.
         25    1    3    3    0    0  0.38680983046E+02  0.72807345628E+02 -0.52917597174E+02  0.15888646329E+03  0.12509000000E+03 0.  0.
         25    1    4    4    0    0 -0.35706302673E+02 -0.17327394791E+02 -0.24056313054E+03  0.27403157945E+03  0.12509000000E+03 0.  0.
<mgrwt>
<rscale>  2 0.45535140E+03</rscale>
<asrwt>0</asrwt>
<pdfrwt beam="1">  1       21 0.14372208E-01 0.45535140E+03</pdfrwt>
<pdfrwt beam="2">  1       21 0.77999539E-01 0.45535140E+03</pdfrwt>
<totfact> 0.56821687E+04</totfact>
</mgrwt>
</event>
<event>
 7    0  0.4759581E-002  0.4579174E+03  0.7546771E-02  0.1025387E+00
         21   -1    0    0  502  501  0.00000000000E+00  0.00000000000E+00  0.26973670565E+03  0.26973670565E+03  0.00000000000E+00 0.  1.
         21   -1    0    0  501  502 -0.00000000000E+00 -0.00000000000E+00 -0.19434535499E+03  0.19434535499E+03  0.00000000000E+00 0.  1.
      99926    2    1    2    0    0  0.11102230246E-14 -0.35527136788E-14  0.75391350659E+02  0.46408206064E+03  0.45791735417E+03 0.  0.
      99925    2    3    3    0    0  0.99957551998E+00 -0.13310768016E+02 -0.69371698248E+02  0.27229565829E+03  0.26297208466E+03 0.  0.
         25    1    3    3    0    0 -0.99957551998E+00  0.13310768016E+02  0.14476304891E+03  0.19178640235E+03  0.12509000000E+03 0.  0.
         25    1    4    4    0    0 -0.19622200153E+02 -0.41533104692E+02 -0.40042758206E+02  0.13914366715E+03  0.12509000000E+03 0.  0.
         25    1    4    4    0    0  0.20621775673E+02  0.28222336676E+02 -0.29328940042E+02  0.13315199114E+03  0.12509000000E+03 0.  0.
<mgrwt>
<rscale>  2 0.45791735E+03</rscale>
<asrwt>0</asrwt>
<pdfrwt beam="1">  1       21 0.39667163E-01 0.45791735E+03</pdfrwt>
<pdfrwt beam="2">  1       21 0.28580199E-01 0.45791735E+03</pdfrwt>
<totfact> 0.66326689E+04</totfact>
</mgrwt>
</event>
<event>
 7    0  0.4759581E-002  0.4461282E+03  0.7546771E-02  0.1028883E+00
         21   -1    0    0  502  501  0.00000000000E+00  0.00000000000E+00  0.13336994340E+03  0.13336994340E+03  0.00000000000E+00 0. -1.
         21   -1    0    0  501  502 -0.00000000000E+00 -0.00000000000E+00 -0.37307946536E+03  0.37307946536E+03  0.00000000000E+00 0. -1.
      99926    2    1    2    0    0  0.00000000000E+00  0.00000000000E+00 -0.23970952195E+03  0.50644940876E+03  0.44612817521E+03 0.  0.
      99925    2    3    3    0    0 -0.84384969401E+02 -0.56443066004E+02 -0.12331211284E+03  0.30769703089E+03  0.26299228674E+03 0.  0.
         25    1    3    3    0    0  0.84384969401E+02  0.56443066004E+02 -0.11639740912E+03  0.19875237787E+03  0.12509000000E+03 0.  0.
         25    1    4    4    0    0 -0.46807172364E+02  0.94290526961E+01 -0.75969503024E+02  0.15394379464E+03  0.12509000000E+03 0.  0.
         25    1    4    4    0    0 -0.37577797037E+02 -0.65872118700E+02 -0.47342609814E+02  0.15375323625E+03  0.12509000000E+03 0.  0.
<mgrwt>
<rscale>  2 0.44612818E+03</rscale>
<asrwt>0</asrwt>
<pdfrwt beam="1">  1       21 0.19613227E-01 0.44612818E+03</pdfrwt>
<pdfrwt beam="2">  1       21 0.54864627E-01 0.44612818E+03</pdfrwt>
<totfact> 0.69592034E+04</totfact>
</mgrwt>
</event>
<event>
 7    0  0.4759581E-002  0.4549474E+03  0.7546771E-02  0.1026257E+00
         21   -1    0    0  502  501  0.00000000000E+00  0.00000000000E+00  0.17291915077E+03  0.17291915077E+03  0.00000000000E+00 0. -1.
         21   -1    0    0  501  502 -0.00000000000E+00 -0.00000000000E+00 -0.29923977168E+03  0.29923977168E+03  0.00000000000E+00 0. -1.
      99926    2    1    2    0    0  0.00000000000E+00 -0.14210854715E-13 -0.12632062090E+03  0.47215892245E+03  0.45494741321E+03 0.  0.
      99925    2    3    3    0    0 -0.16265698552E+02 -0.11171158149E+03 -0.74151745839E+02  0.29576972206E+03  0.26312961956E+03 0.  0.
         25    1    4    4    0    0  0.12620532057E+02 -0.92140085534E+02 -0.31028222307E+02  0.15893184662E+03  0.12509000000E+03 0.  0.
         25    1    3    3    0    0  0.16265698552E+02  0.11171158149E+03 -0.52168875064E+02  0.17638920039E+03  0.12509000000E+03 0.  0.
         25    1    4    4    0    0 -0.28886230609E+02 -0.19571495955E+02 -0.43123523532E+02  0.13683787544E+03  0.12509000000E+03 0.  0.
<mgrwt>
<rscale>  2 0.45494741E+03</rscale>
<asrwt>0</asrwt>
<pdfrwt beam="1">  1       21 0.25429287E-01 0.45494741E+03</pdfrwt>
<pdfrwt beam="2">  1       21 0.44005848E-01 0.45494741E+03</pdfrwt>
<totfact> 0.67303595E+04</totfact>
</mgrwt>
</event>
<event>
 7    0  0.4759581E-002  0.4544139E+03  0.7546771E-02  0.1026414E+00
         21   -1    0    0  502  501  0.00000000000E+00  0.00000000000E+00  0.72914959337E+02  0.72914959337E+02  0.00000000000E+00 0. -1.
         21   -1    0    0  501  502 -0.00000000000E+00 -0.00000000000E+00 -0.70798911740E+03  0.70798911740E+03  0.00000000000E+00 0. -1.
      99926    2    1    2    0    0 -0.17763568394E-14  0.00000000000E+00 -0.63507415806E+03  0.78090407674E+03  0.45441389814E+03 0.  0.
      99925    2    3    3    0    0 -0.11869511591E+02 -0.96573652784E+02 -0.49705137515E+03  0.57074900918E+03  0.26311025488E+03 0.  0.
         25    1    4    4    0    0 -0.30580709233E+02 -0.23484457727E+02 -0.19007654729E+03  0.23078843442E+03  0.12509000000E+03 0.  0.
         25    1    4    4    0    0  0.18711197642E+02 -0.73089195057E+02 -0.30697482786E+03  0.33996057476E+03  0.12509000000E+03 0.  0.
         25    1    3    3    0    0  0.11869511591E+02  0.96573652784E+02 -0.13802278292E+03  0.21015506756E+03  0.12509000000E+03 0.  0.
<mgrwt>
<rscale>  2 0.45441390E+03</rscale>
<asrwt>0</asrwt>
<pdfrwt beam="1">  1       21 0.10722788E-01 0.45441390E+03</pdfrwt>
<pdfrwt beam="2">  1       21 0.10411605E+00 0.45441390E+03</pdfrwt>
<totfact> 0.48927060E+04</totfact>
</mgrwt>
</event>
<event>
 7    0  0.4759581E-002  0.4603769E+03  0.7546771E-02  0.1024672E+00
         21   -1    0    0  502  501  0.00000000000E+00  0.00000000000E+00  0.43047423297E+02  0.43047423297E+02  0.00000000000E+00 0.  1.
         21   -1    0    0  501  502 -0.00000000000E+00 -0.00000000000E+00 -0.12308918131E+04  0.12308918131E+04  0.00000000000E+00 0.  1.
      99926    2    1    2    0    0  0.00000000000E+00  0.00000000000E+00 -0.11878443898E+04  0.12739392364E+04  0.46037689304E+03 0.  0.
      99925    2    3    3    0    0 -0.89641186954E+02 -0.42747731856E+02 -0.56863205326E+03  0.63445949723E+03  0.26331261013E+03 0.  0.
         25    1    4    4    0    0 -0.55315353904E+02 -0.47947386198E+02 -0.23069447145E+03  0.27244483383E+03  0.12509000000E+03 0.  0.
         25    1    4    4    0    0 -0.34325833051E+02  0.51996543420E+01 -0.33793758181E+03  0.36201466341E+03  0.12509000000E+03 0.  0.
         25    1    3    3    0    0  0.89641186954E+02  0.42747731856E+02 -0.61921233653E+03  0.63947973916E+03  0.12509000000E+03 0.  0.
<mgrwt>
<rscale>  2 0.46037689E+03</rscale>
<asrwt>0</asrwt>
<pdfrwt beam="1">  1       21 0.63305030E-02 0.46037689E+03</pdfrwt>
<pdfrwt beam="2">  1       21 0.18101351E+00 0.46037689E+03</pdfrwt>
<totfact> 0.28662716E+04</totfact>
</mgrwt>
</event>
<event>
 7    0  0.4759581E-002  0.4491751E+03  0.7546771E-02  0.1027968E+00
         21   -1    0    0  502  501  0.00000000000E+00  0.00000000000E+00  0.43230850252E+03  0.43230850252E+03  0.00000000000E+00 0. -1.
         21   -1    0    0  501  502 -0.00000000000E+00 -0.00000000000E+00 -0.11667493242E+03  0.11667493242E+03  0.00000000000E+00 0. -1.
      99926    2    1    2    0    0  0.00000000000E+00  0.00000000000E+00  0.31563357011E+03  0.54898343494E+03  0.44917508976E+03 0.  0.
      99925    2    3    3    0    0 -0.44147429779E+02 -0.90125183120E+02  0.24680439097E+03  0.37446550409E+03  0.26313582454E+03 0.  0.
         25    1    4    4    0    0 -0.61045410535E+02 -0.41529234259E+02  0.14437876592E+03  0.20480223532E+03  0.12509000000E+03 0.  0.
         25    1    3    3    0    0  0.44147429779E+02  0.90125183120E+02  0.68829179133E+02  0.17451793085E+03  0.12509000000E+03 0.  0.
         25    1    4    4    0    0  0.16897980756E+02 -0.48595948862E+02  0.10242562505E+03  0.16966326876E+03  0.12509000000E+03 0.  0.
<mgrwt>
<rscale>  2 0.44917509E+03</rscale>
<asrwt>0</asrwt>
<pdfrwt beam="1">  1       21 0.63574779E-01 0.44917509E+03</pdfrwt>
<pdfrwt beam="2">  1       21 0.17158078E-01 0.44917509E+03</pdfrwt>
<totfact> 0.64872196E+04</totfact>
</mgrwt>
</event>
<event>
 7    0  0.4759581E-002  0.4499715E+03  0.7546771E-02  0.1027731E+00
         21   -1    0    0  502  501  0.00000000000E+00  0.00000000000E+00  0.31054314399E+03  0.31054314399E+03  0.00000000000E+00 0. -1.
         21   -1    0    0  501  502 -0.00000000000E+00 -0.00000000000E+00 -0.16300016266E+03  0.16300016266E+03  0.00000000000E+00 0. -1.
      99926    2    1    2    0    0 -0.71054273576E-14  0.00000000000E+00  0.14754298132E+03  0.47354330665E+03  0.44997147903E+03 0.  0.
      99925    2    3    3    0    0  0.63534558197E+02 -0.85604039736E+02  0.76346308279E+02  0.29443114610E+03  0.26362141283E+03 0.  0.
         25    1    3    3    0    0 -0.63534558197E+02  0.85604039736E+02  0.71196673045E+02  0.17911216055E+03  0.12509000000E+03 0.  0.
         25    1    4    4    0    0  0.17779304558E+01 -0.10237376558E+02  0.27266707742E+02  0.12844822446E+03  0.12509000000E+03 0.  0.
         25    1    4    4    0    0  0.61756627741E+02 -0.75366663178E+02  0.49079600537E+02  0.16598292164E+03  0.12509000000E+03 0.  0.
<mgrwt>
<rscale>  2 0.44997148E+03</rscale>
<asrwt>0</asrwt>
<pdfrwt beam="1">  1       21 0.45668109E-01 0.44997148E+03</pdfrwt>
<pdfrwt beam="2">  1       21 0.23970612E-01 0.44997148E+03</pdfrwt>
<totfact> 0.69922268E+04</totfact>
</mgrwt>
</event>
<event>
 7    0  0.4759581E-002  0.4574887E+03  0.7546771E-02  0.1025512E+00
         21   -1    0    0  502  501  0.00000000000E+00  0.00000000000E+00  0.39301380380E+03  0.39301380380E+03  0.00000000000E+00 0. -1.
         21   -1    0    0  501  502 -0.00000000000E+00 -0.00000000000E+00 -0.13313519290E+03  0.13313519290E+03  0.00000000000E+00 0. -1.
      99926    2    1    2    0    0  0.00000000000E+00  0.00000000000E+00  0.25987861090E+03  0.52614899669E+03  0.45748866032E+03 0.  0.
      99925    2    3    3    0    0  0.25374171775E+02 -0.88505300388E+02  0.24326970910E+03  0.36994272118E+03  0.26305974379E+03 0.  0.
         25    1    3    3    0    0 -0.25374171775E+02  0.88505300388E+02  0.16608901801E+02  0.15620627551E+03  0.12509000000E+03 0.  0.
         25    1    4    4    0    0  0.24158705172E+02 -0.14660680249E+02  0.14983903127E+03  0.19722530764E+03  0.12509000000E+03 0.  0.
         25    1    4    4    0    0  0.12154666031E+01 -0.73844620139E+02  0.93430677828E+02  0.17271741355E+03  0.12509000000E+03 0.  0.
<mgrwt>
<rscale>  2 0.45748866E+03</rscale>
<asrwt>0</asrwt>
<pdfrwt beam="1">  1       21 0.57796148E-01 0.45748866E+03</pdfrwt>
<pdfrwt beam="2">  1       21 0.19578705E-01 0.45748866E+03</pdfrwt>
<totfact> 0.62231144E+04</totfact>
</mgrwt>
</event>
<event>
 7    0  0.4759581E-002  0.4500675E+03  0.7546771E-02  0.1027702E+00
         21   -1    0    0  502  501  0.00000000000E+00  0.00000000000E+00  0.37259270671E+02  0.37259270671E+02  0.00000000000E+00 0.  1.
         21   -1    0    0  501  502 -0.00000000000E+00 -0.00000000000E+00 -0.13591300827E+04  0.13591300827E+04  0.00000000000E+00 0.  1.
      99926    2    1    2    0    0  0.14210854715E-13  0.00000000000E+00 -0.13218708120E+04  0.13963893534E+04  0.45006753106E+03 0.  0.
      99925    2    3    3    0    0 -0.83550265139E+02 -0.56291564963E+02 -0.71258809790E+03  0.76629228074E+03  0.26319702729E+03 0.  0.
         25    1    4    4    0    0 -0.76501623377E+02 -0.24418182357E+02 -0.44374927698E+03  0.46798469519E+03  0.12509000000E+03 0.  0.
         25    1    4    4    0    0 -0.70486417617E+01 -0.31873382606E+02 -0.26883882092E+03  0.29830758556E+03  0.12509000000E+03 0.  0.
         25    1    3    3    0    0  0.83550265139E+02  0.56291564963E+02 -0.60928271413E+03  0.63009707262E+03  0.12509000000E+03 0.  0.
<mgrwt>
<rscale>  2 0.45006753E+03</rscale>
<asrwt>0</asrwt>
<pdfrwt beam="1">  1       21 0.54793047E-02 0.45006753E+03</pdfrwt>
<pdfrwt beam="2">  1       21 0.19987206E+00 0.45006753E+03</pdfrwt>
<totfact> 0.27466222E+04</totfact>
</mgrwt>
</event>
<event>
 7    0  0.4759581E-002  0.4544679E+03  0.7546771E-02  0.1026398E+00
         21   -1    0    0  502  501  0.00000000000E+00  0.00000000000E+00  0.12830142561E+03  0.12830142561E+03  0.00000000000E+00 0.  1.
         21   -1    0    0  501  502 -0.00000000000E+00 -0.00000000000E+00 -0.40245278865E+03  0.40245278865E+03  0.00000000000E+00 0.  1.
      99926    2    1    2    0    0  0.00000000000E+00  0.00000000000E+00 -0.27415136304E+03  0.53075421426E+03  0.45446789336E+03 0.  0.
      99925    2    3    3    0    0  0.67573813700E+02 -0.74960542455E+02 -0.11414925910E+03  0.30396469821E+03  0.26301935515E+03 0.  0.
         25    1    3    3    0    0 -0.67573813700E+02  0.74960542455E+02 -0.16000210395E+03  0.22678951605E+03  0.12509000000E+03 0.  0.
         25    1    4    4    0    0  0.25287465717E+02  0.11064435839E+01 -0.35458484708E+02  0.13245939898E+03  0.12509000000E+03 0.  0.
         25    1    4    4    0    0  0.42286347983E+02 -0.76066986039E+02 -0.78690774387E+02  0.17150529923E+03  0.12509000000E+03 0.  0.
<mgrwt>
<rscale>  2 0.45446789E+03</rscale>
<asrwt>0</asrwt>
<pdfrwt beam="1">  1       21 0.18867857E-01 0.45446789E+03</pdfrwt>
<pdfrwt beam="2">  1       21 0.59184234E-01 0.45446789E+03</pdfrwt>
<totfact> 0.63422541E+04</totfact>
</mgrwt>
</event>
<event>
 7    0  0.4759581E-002  0.4479841E+03  0.7546771E-02  0.1028325E+00
         21   -1    0    0  502  501  0.00000000000E+00  0.00000000000E+00  0.91296610734E+02  0.91296610734E+02  0.00000000000E+00 0. -1.
         21   -1    0    0  501  502 -0.00000000000E+00 -0.00000000000E+00 -0.54955421618E+03  0.54955421618E+03  0.00000000000E+00 0. -1.
      99926    2    1    2    0    0  0.00000000000E+00  0.35527136788E-14 -0.45825760545E+03  0.64085082691E+03  0.44798409504E+03 0.  0.
      99925    2    3    3    0    0 -0.52321521524E+02 -0.22990441197E+02 -0.41846173770E+03  0.49768197139E+03  0.26326985534E+03 0.  0.
         25    1    4    4    0    0 -0.59554065003E+02  0.10107077536E+02 -0.19620253159E+03  0.24039921210E+03  0.12509000000E+03 0.  0.
         25    1    4    4    0    0  0.72325434790E+01 -0.33097518733E+02 -0.22225920611E+03  0.25728275930E+03  0.12509000000E+03 0.  0.
         25    1    3    3    0    0  0.52321521524E+02  0.22990441197E+02 -0.39795867747E+02  0.14316885552E+03  0.12509000000E+03 0.  0.
<mgrwt>
<rscale>  2 0.44798410E+03</rscale>
<asrwt>0</asrwt>
<pdfrwt beam="1">  1       21 0.13425972E-01 0.44798410E+03</pdfrwt>
<pdfrwt beam="2">  1       21 0.80816797E-01 0.44798410E+03</pdfrwt>
<totfact> 0.59455488E+04</totfact>
</mgrwt>
</event>
<event>
 7    0  0.4759581E-002  0.4015336E+03  0.7546771E-02  0.1043250E+00
         21   -1    0    0  502  501  0.00000000000E+00  0.00000000000E+00  0.41788916870E+03  0.41788916870E+03  0.00000000000E+00 0.  1.
         21   -1    0    0  501  502 -0.00000000000E+00 -0.00000000000E+00 -0.96454555297E+02  0.96454555297E+02  0.00000000000E+00 0.  1.
      99926    2    1    2    0    0  0.35527136788E-14 -0.35527136788E-14  0.32143461340E+03  0.51434372399E+03  0.40153362963E+03 0.  0.
      99925    2    3    3    0    0  0.23851628046E+02 -0.28225481485E+02  0.25427477235E+03  0.36763472524E+03  0.26293355317E+03 0.  0.
         25    1    3    3    0    0 -0.23851628046E+02  0.28225481485E+02  0.67159841049E+02  0.14670899875E+03  0.12509000000E+03 0.  0.
         25    1    4    4    0    0  0.38751008522E+02 -0.19642405796E+02  0.88589781806E+02  0.15932081568E+03  0.12509000000E+03 0.  0.
         25    1    4    4    0    0 -0.14899380476E+02 -0.85830756889E+01  0.16568499055E+03  0.20831390957E+03  0.12509000000E+03 0.  0.
<mgrwt>
<rscale>  2 0.40153363E+03</rscale>
<asrwt>0</asrwt>
<pdfrwt beam="1">  1       21 0.61454289E-01 0.40153363E+03</pdfrwt>
<pdfrwt beam="2">  1       21 0.14184494E-01 0.40153363E+03</pdfrwt>
<totfact> 0.10057551E+05</totfact>
</mgrwt>
</event>
<event>
 7    0  0.4759581E-002  0.4504148E+03  0.7546771E-02  0.1027598E+00
         21   -1    0    0  502  501  0.00000000000E+00  0.00000000000E+00  0.18265414466E+03  0.18265414466E+03  0.00000000000E+00 0.  1.
         21   -1    0    0  501  502 -0.00000000000E+00 -0.00000000000E+00 -0.27767430354E+03  0.27767430354E+03  0.00000000000E+00 0.  1.
      99926    2    1    2    0    0  0.00000000000E+00  0.00000000000E+00 -0.95020158879E+02  0.46032844820E+03  0.45041475290E+03 0.  0.
      99925    2    3    3    0    0  0.43794301372E+02 -0.98378356225E+02 -0.44944510176E+02  0.28784273720E+03  0.26312960791E+03 0.  0.
         25    1    3    3    0    0 -0.43794301372E+02  0.98378356225E+02 -0.50075648703E+02  0.17248571100E+03  0.12509000000E+03 0.  0.
         25    1    4    4    0    0  0.24258201564E+02 -0.60882609322E+01 -0.23410920093E+02  0.12969620867E+03  0.12509000000E+03 0.  0.
         25    1    4    4    0    0  0.19536099808E+02 -0.92290095292E+02 -0.21533590083E+02  0.15814652853E+03  0.12509000000E+03 0.  0.
<mgrwt>
<rscale>  2 0.45041475E+03</rscale>
<asrwt>0</asrwt>
<pdfrwt beam="1">  1       21 0.26860904E-01 0.45041475E+03</pdfrwt>
<pdfrwt beam="2">  1       21 0.40834456E-01 0.45041475E+03</pdfrwt>
<totfact> 0.70699047E+04</totfact>
</mgrwt>
</event>
<event>
 7    0  0.4759581E-002  0.4546284E+03  0.7546771E-02  0.1026351E+00
         21   -1    0    0  502  501  0.00000000000E+00  0.00000000000E+00  0.49797167845E+03  0.49797167845E+03  0.00000000000E+00 0. -1.
         21   -1    0    0  501  502 -0.00000000000E+00 -0.00000000000E+00 -0.10376444504E+03  0.10376444504E+03  0.00000000000E+00 0. -1.
      99926    2    1    2    0    0  0.00000000000E+00  0.00000000000E+00  0.39420723341E+03  0.60173612349E+03  0.45462844108E+03 0.  0.
      99925    2    3    3    0    0 -0.10821949479E+03  0.31684686707E+02  0.25214689465E+03  0.38140903398E+03  0.26301980210E+03 0.  0.
         25    1    3    3    0    0  0.10821949479E+03 -0.31684686707E+02  0.14206033875E+03  0.22032708951E+03  0.12509000000E+03 0.  0.
         25    1    4    4    0    0 -0.20276692723E+02 -0.10890926862E+02  0.10417359873E+03  0.16440621438E+03  0.12509000000E+03 0.  0.
         25    1    4    4    0    0 -0.87942802069E+02  0.42575613569E+02  0.14797329593E+03  0.21700281960E+03  0.12509000000E+03 0.  0.
<mgrwt>
<rscale>  2 0.45462844E+03</rscale>
<asrwt>0</asrwt>
<pdfrwt beam="1">  1       21 0.73231129E-01 0.45462844E+03</pdfrwt>
<pdfrwt beam="2">  1       21 0.15259477E-01 0.45462844E+03</pdfrwt>
<totfact> 0.58743792E+04</totfact>
</mgrwt>
</event>
<event>
 7    0  0.4759581E-002  0.4642913E+03  0.7546771E-02  0.1023544E+00
         21   -1    0    0  502  501  0.00000000000E+00  0.00000000000E+00  0.30490949814E+03  0.30490949814E+03  0.00000000000E+00 0. -1.
         21   -1    0    0  501  502 -0.00000000000E+00 -0.00000000000E+00 -0.17674618929E+03  0.17674618929E+03  0.00000000000E+00 0. -1.
      99926    2    1    2    0    0  0.00000000000E+00  0.00000000000E+00  0.12816330884E+03  0.48165568743E+03  0.46429125288E+03 0.  0.
      99925    2    3    3    0    0  0.94962019187E+02  0.45445253622E+02  0.16811017899E+02  0.28384290482E+03  0.26306107301E+03 0.  0.
         25    1    3    3    0    0 -0.94962019187E+02 -0.45445253622E+02  0.11135229094E+03  0.19781278261E+03  0.12509000000E+03 0.  0.
         25    1    4    4    0    0  0.47618597325E+02 -0.12967808196E+02 -0.12244866044E+02  0.13503014369E+03  0.12509000000E+03 0.  0.
         25    1    4    4    0    0  0.47343421862E+02  0.58413061818E+02  0.29055883943E+02  0.14881276113E+03  0.12509000000E+03 0.  0.
<mgrwt>
<rscale>  2 0.46429125E+03</rscale>
<asrwt>0</asrwt>
<pdfrwt beam="1">  1       21 0.44839632E-01 0.46429125E+03</pdfrwt>
<pdfrwt beam="2">  1       21 0.25992087E-01 0.46429125E+03</pdfrwt>
<totfact> 0.61888809E+04</totfact>
</mgrwt>
</event>
<event>
 7    0  0.4759581E-002  0.4462319E+03  0.7546771E-02  0.1028852E+00
         21   -1    0    0  502  501  0.00000000000E+00  0.00000000000E+00  0.42534386539E+03  0.42534386539E+03  0.00000000000E+00 0.  1.
         21   -1    0    0  501  502 -0.00000000000E+00 -0.00000000000E+00 -0.11703640556E+03  0.11703640556E+03  0.00000000000E+00 0.  1.
      99926    2    1    2    0    0  0.00000000000E+00  0.00000000000E+00  0.30830745983E+03  0.54238027095E+03  0.44623185513E+03 0.  0.
      99925    2    3    3    0    0 -0.80890087782E+02 -0.65982048228E+02  0.20602254032E+03  0.35000940557E+03  0.26299136844E+03 0.  0.
         25    1    4    4    0    0 -0.78187033095E+02 -0.41782942456E+02  0.90696429493E+02  0.17813583819E+03  0.12509000000E+03 0.  0.
         25    1    4    4    0    0 -0.27030546869E+01 -0.24199105771E+02  0.11532611083E+03  0.17187356738E+03  0.12509000000E+03 0.  0.
         25    1    3    3    0    0  0.80890087782E+02  0.65982048228E+02  0.10228491951E+03  0.19237086538E+03  0.12509000000E+03 0.  0.
<mgrwt>
<rscale>  2 0.44623186E+03</rscale>
<asrwt>0</asrwt>
<pdfrwt beam="1">  1       21 0.62550568E-01 0.44623186E+03</pdfrwt>
<pdfrwt beam="2">  1       21 0.17211236E-01 0.44623186E+03</pdfrwt>
<totfact> 0.66894950E+04</totfact>
</mgrwt>
</event>
<event>
 7    0  0.4759581E-002  0.4556624E+03  0.7546771E-02  0.1026047E+00
         21   -1    0    0  502  501  0.00000000000E+00  0.00000000000E+00  0.21213375458E+03  0.21213375458E+03  0.00000000000E+00 0.  1.
         21   -1    0    0  501  502 -0.00000000000E+00 -0.00000000000E+00 -0.24469020749E+03  0.24469020749E+03  0.00000000000E+00 0.  1.
      99926    2    1    2    0    0  0.00000000000E+00  0.71054273576E-14 -0.32556452916E+02  0.45682396207E+03  0.45566238565E+03 0.  0.
      99925    2    3    3    0    0  0.82523116949E+02  0.41213275166E+02 -0.87115220496E+02  0.29210369586E+03  0.26311006938E+03 0.  0.
         25    1    3    3    0    0 -0.82523116949E+02 -0.41213275166E+02  0.54558767579E+02  0.16472026621E+03  0.12509000000E+03 0.  0.
         25    1    4    4    0    0  0.35952934991E+02 -0.18666560489E+02 -0.28721465020E+02  0.13458634651E+03  0.12509000000E+03 0.  0.
         25    1    4    4    0    0  0.46570181958E+02  0.59879835655E+02 -0.58393755476E+02  0.15751734934E+03  0.12509000000E+03 0.  0.
<mgrwt>
<rscale>  2 0.45566239E+03</rscale>
<asrwt>0</asrwt>
<pdfrwt beam="1">  1       21 0.31196141E-01 0.45566239E+03</pdfrwt>
<pdfrwt beam="2">  1       21 0.35983854E-01 0.45566239E+03</pdfrwt>
<totfact> 0.68052045E+04</totfact>
</mgrwt>
</event>
<event>
 7    0  0.4759581E-002  0.4532887E+03  0.7546771E-02  0.1026746E+00
         21   -1    0    0  502  501  0.00000000000E+00  0.00000000000E+00  0.46613738521E+03  0.46613738521E+03  0.00000000000E+00 0.  1.
         21   -1    0    0  501  502 -0.00000000000E+00 -0.00000000000E+00 -0.11019854986E+03  0.11019854986E+03  0.00000000000E+00 0.  1.
      99926    2    1    2    0    0  0.00000000000E+00  0.71054273576E-14  0.35593883535E+03  0.57633593507E+03  0.45328871102E+03 0.  0.
      99925    2    3    3    0    0 -0.73730195900E+02 -0.37347968734E+02  0.12919886090E+03  0.30450963636E+03  0.26306417548E+03 0.  0.
         25    1    3    3    0    0  0.73730195900E+02  0.37347968734E+02  0.22673997444E+03  0.27182629870E+03  0.12509000000E+03 0.  0.
         25    1    4    4    0    0 -0.47165130071E+02 -0.66158964906E+00  0.26130906459E+02  0.13621791207E+03  0.12509000000E+03 0.  0.
         25    1    4    4    0    0 -0.26565065829E+02 -0.36686379085E+02  0.10306795445E+03  0.16829172430E+03  0.12509000000E+03 0.  0.
<mgrwt>
<rscale>  2 0.45328871E+03</rscale>
<asrwt>0</asrwt>
<pdfrwt beam="1">  1       21 0.68549615E-01 0.45328871E+03</pdfrwt>
<pdfrwt beam="2">  1       21 0.16205669E-01 0.45328871E+03</pdfrwt>
<totfact> 0.60979912E+04</totfact>
</mgrwt>
</event>
<event>
 7    0  0.4759581E-002  0.4488564E+03  0.7546771E-02  0.1028064E+00
         21   -1    0    0  502  501  0.00000000000E+00  0.00000000000E+00  0.65419670240E+02  0.65419670240E+02  0.00000000000E+00 0.  1.
         21   -1    0    0  501  502 -0.00000000000E+00 -0.00000000000E+00 -0.76992155132E+03  0.76992155132E+03  0.00000000000E+00 0.  1.
      99926    2    1    2    0    0  0.00000000000E+00 -0.71054273576E-14 -0.70450188108E+03  0.83534122156E+03  0.44885638683E+03 0.  0.
      99925    2    3    3    0    0 -0.66249436328E+02 -0.37240281416E+02 -0.58681336883E+03  0.64752769598E+03  0.26299498257E+03 0.  0.
         25    1    4    4    0    0 -0.38947315528E+02 -0.36632849176E+02 -0.21637553913E+03  0.25558705182E+03  0.12509000000E+03 0.  0.
         25    1    3    3    0    0  0.66249436328E+02  0.37240281416E+02 -0.11768851225E+03  0.18781352558E+03  0.12509000000E+03 0.  0.
         25    1    4    4    0    0 -0.27302120800E+02 -0.60743224086E+00 -0.37043782970E+03  0.39194064416E+03  0.12509000000E+03 0.  0.
<mgrwt>
<rscale>  2 0.44885639E+03</rscale>
<asrwt>0</asrwt>
<pdfrwt beam="1">  1       21 0.96205410E-02 0.44885639E+03</pdfrwt>
<pdfrwt beam="2">  1       21 0.11322374E+00 0.44885639E+03</pdfrwt>
<totfact> 0.48393160E+04</totfact>
</mgrwt>
</event>
<event>
 7    0  0.4759581E-002  0.4589894E+03  0.7546771E-02  0.1025075E+00
         21   -1    0    0  502  501  0.00000000000E+00  0.00000000000E+00  0.52705280934E+02  0.52705280934E+02  0.00000000000E+00 0.  1.
         21   -1    0    0  501  502 -0.00000000000E+00 -0.00000000000E+00 -0.99928906840E+03  0.99928906840E+03  0.00000000000E+00 0.  1.
      99926    2    1    2    0    0 -0.14210854715E-13  0.22204460493E-15 -0.94658378747E+03  0.10519943493E+04  0.45898937279E+03 0.  0.
      99925    2    3    3    0    0  0.80643710164E+02  0.19385599558E+01 -0.39928746658E+03  0.48481894704E+03  0.26289116464E+03 0.  0.
         25    1    3    3    0    0 -0.80643710164E+02 -0.19385599558E+01 -0.54729632089E+03  0.56717540229E+03  0.12509000000E+03 0.  0.
         25    1    4    4    0    0  0.21718559221E+01 -0.52872176588E+01 -0.21187349698E+03  0.24611086618E+03  0.12509000000E+03 0.  0.
         25    1    4    4    0    0  0.78471854242E+02  0.72257776146E+01 -0.18741396960E+03  0.23870808087E+03  0.12509000000E+03 0.  0.
<mgrwt>
<rscale>  2 0.45898937E+03</rscale>
<asrwt>0</asrwt>
<pdfrwt beam="1">  1       21 0.77507769E-02 0.45898937E+03</pdfrwt>
<pdfrwt beam="2">  1       21 0.14695427E+00 0.45898937E+03</pdfrwt>
<totfact> 0.36068066E+04</totfact>
</mgrwt>
</event>
<event>
 7    0  0.4759581E-002  0.4612370E+03  0.7546771E-02  0.1024423E+00
         21   -1    0    0  502  501  0.00000000000E+00  0.00000000000E+00  0.26152781533E+03  0.26152781533E+03  0.00000000000E+00 0.  1.
         21   -1    0    0  501  502 -0.00000000000E+00 -0.00000000000E+00 -0.20336225749E+03  0.20336225749E+03  0.00000000000E+00 0.  1.
      99926    2    1    2    0    0  0.00000000000E+00 -0.71054273576E-14  0.58165557842E+02  0.46489007282E+03  0.46123697563E+03 0.  0.
      99925    2    3    3    0    0 -0.10609105554E+03 -0.45961577355E+02  0.12511347951E+02  0.28853930407E+03  0.26406555532E+03 0.  0.
         25    1    3    3    0    0  0.10609105554E+03  0.45961577355E+02  0.45654209891E+02  0.17635076875E+03  0.12509000000E+03 0.  0.
         25    1    4    4    0    0 -0.78675305447E+02  0.96945586758E+01  0.15302450326E+02  0.14888069466E+03  0.12509000000E+03 0.  0.
         25    1    4    4    0    0 -0.27415750097E+02 -0.55656136031E+02 -0.27911023758E+01  0.13965860942E+03  0.12509000000E+03 0.  0.
<mgrwt>
<rscale>  2 0.46123698E+03</rscale>
<asrwt>0</asrwt>
<pdfrwt beam="1">  1       21 0.38459973E-01 0.46123698E+03</pdfrwt>
<pdfrwt beam="2">  1       21 0.29906214E-01 0.46123698E+03</pdfrwt>
<totfact> 0.64554485E+04</totfact>
</mgrwt>
</event>
<event>
 7    0  0.4759581E-002  0.4581033E+03  0.7546771E-02  0.1025333E+00
         21   -1    0    0  502  501  0.00000000000E+00  0.00000000000E+00  0.18710404183E+03  0.18710404183E+03  0.00000000000E+00 0. -1.
         21   -1    0    0  501  502 -0.00000000000E+00 -0.00000000000E+00 -0.28040371455E+03  0.28040371455E+03  0.00000000000E+00 0. -1.
      99926    2    1    2    0    0  0.00000000000E+00  0.00000000000E+00 -0.93299672717E+02  0.46750775639E+03  0.45810334353E+03 0.  0.
      99925    2    3    3    0    0 -0.12680992136E+02 -0.73783582482E+02  0.31908300609E+02  0.27533759926E+03  0.26303579474E+03 0.  0.
         25    1    4    4    0    0  0.14043836664E+01 -0.51800869733E+02  0.53790093667E+02  0.14569208858E+03  0.12509000000E+03 0.  0.
         25    1    3    3    0    0  0.12680992136E+02  0.73783582482E+02 -0.12520797333E+03  0.19217015713E+03  0.12509000000E+03 0.  0.
         25    1    4    4    0    0 -0.14085375802E+02 -0.21982712750E+02 -0.21881793058E+02  0.12964551068E+03  0.12509000000E+03 0.  0.
<mgrwt>
<rscale>  2 0.45810334E+03</rscale>
<asrwt>0</asrwt>
<pdfrwt beam="1">  1       21 0.27515301E-01 0.45810334E+03</pdfrwt>
<pdfrwt beam="2">  1       21 0.41235839E-01 0.45810334E+03</pdfrwt>
<totfact> 0.65981726E+04</totfact>
</mgrwt>
</event>
<event>
 6    0  0.4759581E-002  0.4555563E+03  0.7546771E-02  0.1026078E+00
         21   -1    0    0  502  501  0.00000000000E+00  0.00000000000E+00  0.86875969777E+02  0.86875969777E+02  0.00000000000E+00 0. -1.
         21   -1    0    0  501  502 -0.00000000000E+00 -0.00000000000E+00 -0.59720652885E+03  0.59720652885E+03  0.00000000000E+00 0. -1.
      99926    2    1    2    0    0  0.00000000000E+00  0.00000000000E+00 -0.51033055907E+03  0.68408249862E+03  0.45555634712E+03 0.  0.
         25    1    3    3    0    0  0.36804957261E+02 -0.15079191802E+01 -0.23534789076E+03  0.26905950362E+03  0.12509000000E+03 0.  0.
         25    1    3    3    0    0  0.43744516273E+02  0.58406429190E+02 -0.17417129562E+03  0.22651278549E+03  0.12509000000E+03 0.  0.
         25    1    3    3    0    0 -0.80549473534E+02 -0.56898510010E+02 -0.10081137269E+03  0.18851020951E+03  0.12509000000E+03 0.  0.
<mgrwt>
<rscale>  2 0.45555635E+03</rscale>
<asrwt>0</asrwt>
<pdfrwt beam="1">  1       21 0.12775878E-01 0.45555635E+03</pdfrwt>
<pdfrwt beam="2">  1       21 0.87824486E-01 0.45555635E+03</pdfrwt>
<totfact> 0.53541076E+04</totfact>
</mgrwt>
</event>
<event>
 7    0  0.4759581E-002  0.4519433E+03  0.7546771E-02  0.1027144E+00
         21   -1    0    0  502  501  0.00000000000E+00  0.00000000000E+00  0.30696830459E+02  0.30696830459E+02  0.00000000000E+00 0.  1.
         21   -1    0    0  501  502 -0.00000000000E+00 -0.00000000000E+00 -0.16634678305E+04  0.16634678305E+04  0.00000000000E+00 0.  1.
      99926    2    1    2    0    0  0.00000000000E+00  0.00000000000E+00 -0.16327710001E+04  0.16941646610E+04  0.45194331489E+03 0.  0.
      99925    2    3    3    0    0  0.82588108336E+02  0.68145001864E+02 -0.93369071661E+03  0.97595488124E+03  0.26314452112E+03 0.  0.
         25    1    3    3    0    0 -0.82588108336E+02 -0.68145001864E+02 -0.69908028346E+03  0.71820977976E+03  0.12509000000E+03 0.  0.
         25    1    4    4    0    0  0.83256059119E+02  0.33660628180E+02 -0.48252116607E+03  0.50649658743E+03  0.12509000000E+03 0.  0.
         25    1    4    4    0    0 -0.66795078289E+00  0.34484373685E+02 -0.45116955055E+03  0.46945829381E+03  0.12509000000E+03 0.  0.
<mgrwt>
<rscale>  2 0.45194331E+03</rscale>
<asrwt>0</asrwt>
<pdfrwt beam="1">  1       21 0.45142384E-02 0.45194331E+03</pdfrwt>
<pdfrwt beam="2">  1       21 0.24462770E+00 0.45194331E+03</pdfrwt>
<totfact> 0.19850200E+04</totfact>
</mgrwt>
</event>
<event>
 7    0  0.4759581E-002  0.4568067E+03  0.7546771E-02  0.1025711E+00
         21   -1    0    0  502  501  0.00000000000E+00  0.00000000000E+00  0.19799597779E+03  0.19799597779E+03  0.00000000000E+00 0.  1.
         21   -1    0    0  501  502 -0.00000000000E+00 -0.00000000000E+00 -0.26348052258E+03  0.26348052258E+03  0.00000000000E+00 0.  1.
      99926    2    1    2    0    0  0.00000000000E+00  0.71054273576E-14 -0.65484544795E+02  0.46147650037E+03  0.45680667113E+03 0.  0.
      99925    2    3    3    0    0  0.91725323060E+02  0.53267510167E+02  0.34760930226E+01  0.28356067702E+03  0.26295172903E+03 0.  0.
         25    1    4    4    0    0  0.71118172280E+02  0.61077483130E+02  0.72604757135E+01  0.15648794197E+03  0.12509000000E+03 0.  0.
         25    1    3    3    0    0 -0.91725323060E+02 -0.53267510167E+02 -0.68960637817E+02  0.17791582335E+03  0.12509000000E+03 0.  0.
         25    1    4    4    0    0  0.20607150780E+02 -0.78099729631E+01 -0.37843826909E+01  0.12707273505E+03  0.12509000000E+03 0.  0.
<mgrwt>
<rscale>  2 0.45680667E+03</rscale>
<asrwt>0</asrwt>
<pdfrwt beam="1">  1       21 0.29117056E-01 0.45680667E+03</pdfrwt>
<pdfrwt beam="2">  1       21 0.38747136E-01 0.45680667E+03</pdfrwt>
<totfact> 0.67101109E+04</totfact>
</mgrwt>
</event>
<event>
 7    0  0.4759581E-002  0.4488158E+03  0.7546771E-02  0.1028076E+00
         21   -1    0    0  502  501  0.00000000000E+00  0.00000000000E+00  0.29293464553E+04  0.29293464553E+04  0.00000000000E+00 0.  1.
         21   -1    0    0  501  502 -0.00000000000E+00 -0.00000000000E+00 -0.17191175918E+02  0.17191175918E+02  0.00000000000E+00 0.  1.
      99926    2    1    2    0    0 -0.71054273576E-14  0.00000000000E+00  0.29121552794E+04  0.29465376313E+04  0.44881582075E+03 0.  0.
      99925    2    3    3    0    0 -0.62601189722E+02 -0.42170939521E+02  0.23430170109E+04  0.23589466392E+04  0.26306508008E+03 0.  0.
         25    1    4    4    0    0 -0.56538419041E+01 -0.10003555586E+02  0.13695360776E+04  0.13752849207E+04  0.12509000000E+03 0.  0.
         25    1    3    3    0    0  0.62601189722E+02  0.42170939521E+02  0.56913826854E+03  0.58759099203E+03  0.12509000000E+03 0.  0.
         25    1    4    4    0    0 -0.56947347818E+02 -0.32167383935E+02  0.97348093326E+03  0.98366171854E+03  0.12509000000E+03 0.  0.
<mgrwt>
<rscale>  2 0.44881582E+03</rscale>
<asrwt>0</asrwt>
<pdfrwt beam="1">  1       21 0.43078590E+00 0.44881582E+03</pdfrwt>
<pdfrwt beam="2">  1       21 0.25281161E-02 0.44881582E+03</pdfrwt>
<totfact> 0.37324792E+03</totfact>
</mgrwt>
</event>
<event>
 7    0  0.4759581E-002  0.4508614E+03  0.7546771E-02  0.1027465E+00
         21   -1    0    0  502  501  0.00000000000E+00  0.00000000000E+00  0.34817430257E+03  0.34817430257E+03  0.00000000000E+00 0.  1.
         21   -1    0    0  501  502 -0.00000000000E+00 -0.00000000000E+00 -0.14595851200E+03  0.14595851200E+03  0.00000000000E+00 0.  1.
      99926    2    1    2    0    0  0.35527136788E-14  0.00000000000E+00  0.20221579057E+03  0.49413281457E+03  0.45086141161E+03 0.  0.
      99925    2    3    3    0    0  0.30360096743E+02  0.95842082534E+02  0.80435501583E+02  0.29267466223E+03  0.26283292742E+03 0.  0.
         25    1    4    4    0    0  0.13777268308E+02  0.21751909385E+02  0.70813201083E+02  0.14603073728E+03  0.12509000000E+03 0.  0.
         25    1    4    4    0    0  0.16582828436E+02  0.74090173149E+02  0.96223004991E+01  0.14664392494E+03  0.12509000000E+03 0.  0.
         25    1    3    3    0    0 -0.30360096743E+02 -0.95842082534E+02  0.12178028898E+03  0.20145815234E+03  0.12509000000E+03 0.  0.
<mgrwt>
<rscale>  2 0.45086141E+03</rscale>
<asrwt>0</asrwt>
<pdfrwt beam="1">  1       21 0.51202103E-01 0.45086141E+03</pdfrwt>
<pdfrwt beam="2">  1       21 0.21464487E-01 0.45086141E+03</pdfrwt>
<totfact> 0.67887957E+04</totfact>
</mgrwt>
</event>
<event>
 7    0  0.4759581E-002  0.4420741E+03  0.7546771E-02  0.1030112E+00
         21   -1    0    0  502  501  0.00000000000E+00  0.00000000000E+00  0.12691274274E+03  0.12691274274E+03  0.00000000000E+00 0. -1.
         21   -1    0    0  501  502 -0.00000000000E+00 -0.00000000000E+00 -0.38496820462E+03  0.38496820462E+03  0.00000000000E+00 0. -1.
      99926    2    1    2    0    0  0.22204460493E-15  0.35527136788E-14 -0.25805546188E+03  0.51188094736E+03  0.44207406943E+03 0.  0.
      99925    2    3    3    0    0 -0.15435140892E+01 -0.27488008408E+02 -0.52328244976E+02  0.26953992954E+03  0.26297443859E+03 0.  0.
         25    1    4    4    0    0  0.39371655465E+02 -0.17608208408E+02 -0.30143124534E+02  0.13570664064E+03  0.12509000000E+03 0.  0.
         25    1    4    4    0    0 -0.40915169554E+02 -0.98798000002E+01 -0.22185120442E+02  0.13383328890E+03  0.12509000000E+03 0.  0.
         25    1    3    3    0    0  0.15435140892E+01  0.27488008408E+02 -0.20572721691E+03  0.24234101782E+03  0.12509000000E+03 0.  0.
<mgrwt>
<rscale>  2 0.44207407E+03</rscale>
<asrwt>0</asrwt>
<pdfrwt beam="1">  1       21 0.18663639E-01 0.44207407E+03</pdfrwt>
<pdfrwt beam="2">  1       21 0.56612970E-01 0.44207407E+03</pdfrwt>
<totfact> 0.71499246E+04</totfact>
</mgrwt>
</event>
<event>
 7    0  0.4759581E-002  0.4555948E+03  0.7546771E-02  0.1026067E+00
         21   -1    0    0  502  501  0.00000000000E+00  0.00000000000E+00  0.90951692862E+03  0.90951692862E+03  0.00000000000E+00 0. -1.
         21   -1    0    0  501  502 -0.00000000000E+00 -0.00000000000E+00 -0.57054080316E+02  0.57054080316E+02  0.00000000000E+00 0. -1.
      99926    2    1    2    0    0  0.00000000000E+00  0.00000000000E+00  0.85246284831E+03  0.96657100894E+03  0.45559478440E+03 0.  0.
      99925    2    3    3    0    0  0.15377241313E+02 -0.48781711448E+02  0.32090251647E+03  0.41810039951E+03  0.26308440485E+03 0.  0.
         25    1    4    4    0    0 -0.41767672344E+01  0.69498408133E+01  0.11544398413E+03  0.17041293156E+03  0.12509000000E+03 0.  0.
         25    1    4    4    0    0  0.19554008548E+02 -0.55731552261E+02  0.20545853234E+03  0.24768746795E+03  0.12509000000E+03 0.  0.
         25    1    3    3    0    0 -0.15377241313E+02  0.48781711448E+02  0.53156033184E+03  0.54847060943E+03  0.12509000000E+03 0.  0.
<mgrwt>
<rscale>  2 0.45559478E+03</rscale>
<asrwt>0</asrwt>
<pdfrwt beam="1">  1       21 0.13375248E+00 0.45559478E+03</pdfrwt>
<pdfrwt beam="2">  1       21 0.83903065E-02 0.45559478E+03</pdfrwt>
<totfact> 0.40289333E+04</totfact>
</mgrwt>
</event>
<event>
 7    0  0.4759581E-002  0.4575104E+03  0.7546771E-02  0.1025506E+00
         21   -1    0    0  502  501  0.00000000000E+00  0.00000000000E+00  0.39098028810E+03  0.39098028810E+03  0.00000000000E+00 0.  1.
         21   -1    0    0  501  502 -0.00000000000E+00 -0.00000000000E+00 -0.13384035750E+03  0.13384035750E+03  0.00000000000E+00 0.  1.
      99926    2    1    2    0    0  0.00000000000E+00  0.00000000000E+00  0.25713993060E+03  0.52482064560E+03  0.45751040003E+03 0.  0.
      99925    2    3    3    0    0 -0.47456460583E+02 -0.42929036164E+02  0.27179823617E+03  0.38355001235E+03  0.26294735783E+03 0.  0.
         25    1    3    3    0    0  0.47456460583E+02  0.42929036164E+02 -0.14658305567E+02  0.14127063325E+03  0.12509000000E+03 0.  0.
         25    1    4    4    0    0 -0.32459002124E+02 -0.46392592389E+02  0.18555584397E+03  0.23083400698E+03  0.12509000000E+03 0.  0.
         25    1    4    4    0    0 -0.14997458459E+02  0.34635562247E+01  0.86242392194E+02  0.15271600536E+03  0.12509000000E+03 0.  0.
<mgrwt>
<rscale>  2 0.45751040E+03</rscale>
<asrwt>0</asrwt>
<pdfrwt beam="1">  1       21 0.57497101E-01 0.45751040E+03</pdfrwt>
<pdfrwt beam="2">  1       21 0.19682406E-01 0.45751040E+03</pdfrwt>
<totfact> 0.62309149E+04</totfact>
</mgrwt>
</event>
<event>
 7    0  0.4759581E-002  0.4966069E+03  0.7546771E-02  0.1014668E+00
         21   -1    0    0  502  501  0.00000000000E+00  0.00000000000E+00  0.11500544370E+03  0.11500544370E+03  0.00000000000E+00 0.  1.
         21   -1    0    0  501  502 -0.00000000000E+00 -0.00000000000E+00 -0.53610152430E+03  0.53610152430E+03  0.00000000000E+00 0.  1.
      99926    2    1    2    0    0  0.00000000000E+00 -0.88817841970E-15 -0.42109608059E+03  0.65110696800E+03  0.49660686129E+03 0.  0.
      99925    2    3    3    0    0 -0.38643241742E+02  0.51709929960E+01 -0.67781965509E+02  0.27428020234E+03  0.26289768969E+03 0.  0.
         25    1    4    4    0    0 -0.21871644275E+02  0.15280120575E+02 -0.73535769559E+02  0.14753599023E+03  0.12509000000E+03 0.  0.
         25    1    4    4    0    0 -0.16771597467E+02 -0.10109127579E+02  0.57538040501E+01  0.12674421211E+03  0.12509000000E+03 0.  0.
         25    1    3    3    0    0  0.38643241742E+02 -0.51709929960E+01 -0.35331411508E+03  0.37682676566E+03  0.12509000000E+03 0.  0.
<mgrwt>
<rscale>  2 0.49660686E+03</rscale>
<asrwt>0</asrwt>
<pdfrwt beam="1">  1       21 0.16912566E-01 0.49660686E+03</pdfrwt>
<pdfrwt beam="2">  1       21 0.78838457E-01 0.49660686E+03</pdfrwt>
<totfact> 0.40580350E+04</totfact>
</mgrwt>
</event>
<event>
 7    0  0.4759581E-002  0.4553669E+03  0.7546771E-02  0.1026134E+00
         21   -1    0    0  502  501  0.00000000000E+00  0.00000000000E+00  0.45754602899E+03  0.45754602899E+03  0.00000000000E+00 0.  1.
         21   -1    0    0  501  502 -0.00000000000E+00 -0.00000000000E+00 -0.11329952065E+03  0.11329952065E+03  0.00000000000E+00 0.  1.
      99926    2    1    2    0    0 -0.71054273576E-14  0.00000000000E+00  0.34424650834E+03  0.57084554964E+03  0.45536686642E+03 0.  0.
      99925    2    3    3    0    0  0.60082070078E+02  0.64843842882E+02  0.30576996332E+03  0.41291350184E+03  0.26303556875E+03 0.  0.
         25    1    4    4    0    0  0.68885349653E+02  0.20700863409E+02  0.15029086407E+03  0.20834723196E+03  0.12509000000E+03 0.  0.
         25    1    3    3    0    0 -0.60082070078E+02 -0.64843842882E+02  0.38476545017E+02  0.15793204780E+03  0.12509000000E+03 0.  0.
         25    1    4    4    0    0 -0.88032795748E+01  0.44142979473E+02  0.15547909925E+03  0.20456626988E+03  0.12509000000E+03 0.  0.
<mgrwt>
<rscale>  2 0.45536687E+03</rscale>
<asrwt>0</asrwt>
<pdfrwt beam="1">  1       21 0.67286180E-01 0.45536687E+03</pdfrwt>
<pdfrwt beam="2">  1       21 0.16661694E-01 0.45536687E+03</pdfrwt>
<totfact> 0.60334450E+04</totfact>
</mgrwt>
</event>
<event>
 7    0  0.4759581E-002  0.4604303E+03  0.7546771E-02  0.1024656E+00
         21   -1    0    0  502  501  0.00000000000E+00  0.00000000000E+00  0.49740557507E+03  0.49740557507E+03  0.00000000000E+00 0.  1.
         21   -1    0    0  501  502 -0.00000000000E+00 -0.00000000000E+00 -0.10655090515E+03  0.10655090515E+03  0.00000000000E+00 0.  1.
      99926    2    1    2    0    0  0.00000000000E+00  0.00000000000E+00  0.39085466992E+03  0.60395648022E+03  0.46043029548E+03 0.  0.
      99925    2    3    3    0    0 -0.84359594757E+02  0.82316556740E+02  0.23379614923E+03  0.37113155938E+03  0.26303124954E+03 0.  0.
         25    1    4    4    0    0 -0.24173082272E+01  0.39003931142E+02  0.12576407673E+03  0.18163496667E+03  0.12509000000E+03 0.  0.
         25    1    4    4    0    0 -0.81942286530E+02  0.43312625598E+02  0.10803207250E+03  0.18949659271E+03  0.12509000000E+03 0.  0.
         25    1    3    3    0    0  0.84359594757E+02 -0.82316556740E+02  0.15705852069E+03  0.23282492084E+03  0.12509000000E+03 0.  0.
<mgrwt>
<rscale>  2 0.46043030E+03</rscale>
<asrwt>0</asrwt>
<pdfrwt beam="1">  1       21 0.73147877E-01 0.46043030E+03</pdfrwt>
<pdfrwt beam="2">  1       21 0.15669251E-01 0.46043030E+03</pdfrwt>
<totfact> 0.55994165E+04</totfact>
</mgrwt>
</event>
<event>
 7    0  0.4759581E-002  0.4513530E+03  0.7546771E-02  0.1027319E+00
         21   -1    0    0  502  501  0.00000000000E+00  0.00000000000E+00  0.99003389604E+02  0.99003389604E+02  0.00000000000E+00 0.  1.
         21   -1    0    0  501  502 -0.00000000000E+00 -0.00000000000E+00 -0.51442567532E+03  0.51442567532E+03  0.00000000000E+00 0.  1.
      99926    2    1    2    0    0 -0.88817841970E-15  0.00000000000E+00 -0.41542228572E+03  0.61342906493E+03  0.45135301287E+03 0.  0.
      99925    2    3    3    0    0 -0.69827039485E+01  0.65912841027E+02 -0.38092715564E+03  0.46772153984E+03  0.26318183859E+03 0.  0.
         25    1    4    4    0    0  0.30622415809E+02  0.45492854975E+02 -0.22585871056E+03  0.26394506519E+03  0.12509000000E+03 0.  0.
         25    1    4    4    0    0 -0.37605119757E+02  0.20419986052E+02 -0.15506844508E+03  0.20377647465E+03  0.12509000000E+03 0.  0.
         25    1    3    3    0    0  0.69827039485E+01 -0.65912841027E+02 -0.34495130081E+02  0.14570752508E+03  0.12509000000E+03 0.  0.
<mgrwt>
<rscale>  2 0.45135301E+03</rscale>
<asrwt>0</asrwt>
<pdfrwt beam="1">  1       21 0.14559322E-01 0.45135301E+03</pdfrwt>
<pdfrwt beam="2">  1       21 0.75650836E-01 0.45135301E+03</pdfrwt>
<totfact> 0.59556186E+04</totfact>
</mgrwt>
</event>
<event>
 7    0  0.4759581E-002  0.4532319E+03  0.7546771E-02  0.1026763E+00
         21   -1    0    0  502  501  0.00000000000E+00  0.00000000000E+00  0.36238261016E+02  0.36238261016E+02  0.00000000000E+00 0. -1.
         21   -1    0    0  501  502 -0.00000000000E+00 -0.00000000000E+00 -0.14171429835E+04  0.14171429835E+04  0.00000000000E+00 0. -1.
      99926    2    1    2    0    0  0.00000000000E+00  0.00000000000E+00 -0.13809047225E+04  0.14533812445E+04  0.45323193768E+03 0.  0.
      99925    2    3    3    0    0  0.25793008270E+02 -0.75456804739E+02 -0.62055405479E+03  0.67869443385E+03  0.26302051435E+03 0.  0.
         25    1    4    4    0    0  0.10424292633E+02 -0.64043030280E+02 -0.40406664144E+03  0.42793403046E+03  0.12509000000E+03 0.  0.
         25    1    4    4    0    0  0.15368715638E+02 -0.11413774459E+02 -0.21648741335E+03  0.25076040339E+03  0.12509000000E+03 0.  0.
         25    1    3    3    0    0 -0.25793008270E+02  0.75456804739E+02 -0.76035066773E+03  0.77468681070E+03  0.12509000000E+03 0.  0.
<mgrwt>
<rscale>  2 0.45323194E+03</rscale>
<asrwt>0</asrwt>
<pdfrwt beam="1">  1       21 0.53291569E-02 0.45323194E+03</pdfrwt>
<pdfrwt beam="2">  1       21 0.20840334E+00 0.45323194E+03</pdfrwt>
<totfact> 0.25289132E+04</totfact>
</mgrwt>
</event>
<event>
 7    0  0.4759581E-002  0.4563363E+03  0.7546771E-02  0.1025849E+00
         21   -1    0    0  502  501  0.00000000000E+00  0.00000000000E+00  0.50610764659E+03  0.50610764659E+03  0.00000000000E+00 0. -1.
         21   -1    0    0  501  502 -0.00000000000E+00 -0.00000000000E+00 -0.10286487089E+03  0.10286487089E+03  0.00000000000E+00 0. -1.
      99926    2    1    2    0    0  0.00000000000E+00  0.00000000000E+00  0.40324277570E+03  0.60897251748E+03  0.45633626953E+03 0.  0.
      99925    2    3    3    0    0 -0.84535788133E+01 -0.63013646585E+02  0.38038195853E+03  0.46680252165E+03  0.26300566001E+03 0.  0.
         25    1    4    4    0    0 -0.40097538078E+02 -0.49398618808E+02  0.21170462335E+03  0.25399683413E+03  0.12509000000E+03 0.  0.
         25    1    4    4    0    0  0.31643959265E+02 -0.13615027777E+02  0.16867733518E+03  0.21280568752E+03  0.12509000000E+03 0.  0.
         25    1    3    3    0    0  0.84535788133E+01  0.63013646585E+02  0.22860817164E+02  0.14216999582E+03  0.12509000000E+03 0.  0.
<mgrwt>
<rscale>  2 0.45633627E+03</rscale>
<asrwt>0</asrwt>
<pdfrwt beam="1">  1       21 0.74427594E-01 0.45633627E+03</pdfrwt>
<pdfrwt beam="2">  1       21 0.15127187E-01 0.45633627E+03</pdfrwt>
<totfact> 0.57519801E+04</totfact>
</mgrwt>
</event>
<event>
 7    0  0.4759581E-002  0.4566957E+03  0.7546771E-02  0.1025744E+00
         21   -1    0    0  502  501  0.00000000000E+00  0.00000000000E+00  0.80995218292E+03  0.80995218292E+03  0.00000000000E+00 0. -1.
         21   -1    0    0  501  502 -0.00000000000E+00 -0.00000000000E+00 -0.64377549858E+02  0.64377549858E+02  0.00000000000E+00 0. -1.
      99926    2    1    2    0    0  0.00000000000E+00  0.14210854715E-13  0.74557463306E+03  0.87432973277E+03  0.45669568440E+03 0.  0.
      99925    2    3    3    0    0 -0.82110286318E+02 -0.75243485339E+02  0.41495021599E+03  0.50370364833E+03  0.26292584960E+03 0.  0.
         25    1    4    4    0    0 -0.27981132702E+02 -0.75889733166E+02  0.20556189971E+03  0.25386098184E+03  0.12509000000E+03 0.  0.
         25    1    3    3    0    0  0.82110286318E+02  0.75243485339E+02  0.33062441707E+03  0.37062608444E+03  0.12509000000E+03 0.  0.
         25    1    4    4    0    0 -0.54129153616E+02  0.64624782759E+00  0.20938831627E+03  0.24984266649E+03  0.12509000000E+03 0.  0.
<mgrwt>
<rscale>  2 0.45669568E+03</rscale>
<asrwt>0</asrwt>
<pdfrwt beam="1">  1       21 0.11911061E+00 0.45669568E+03</pdfrwt>
<pdfrwt beam="2">  1       21 0.94672872E-02 0.45669568E+03</pdfrwt>
<totfact> 0.43777875E+04</totfact>
</mgrwt>
</event>
<event>
 7    0  0.4759581E-002  0.4423427E+03  0.7546771E-02  0.1030030E+00
         21   -1    0    0  502  501  0.00000000000E+00  0.00000000000E+00  0.86774606428E+02  0.86774606428E+02  0.00000000000E+00 0. -1.
         21   -1    0    0  501  502 -0.00000000000E+00 -0.00000000000E+00 -0.56372211783E+03  0.56372211783E+03  0.00000000000E+00 0. -1.
      99926    2    1    2    0    0  0.00000000000E+00  0.00000000000E+00 -0.47694751141E+03  0.65049672426E+03  0.44234269480E+03 0.  0.
      99925    2    3    3    0    0  0.34344833526E+02 -0.27441837190E+02 -0.43716207573E+03  0.51206619652E+03  0.26299902499E+03 0.  0.
         25    1    4    4    0    0 -0.42496639160E+01 -0.69684780904E+00 -0.27357828930E+03  0.30085068342E+03  0.12509000000E+03 0.  0.
         25    1    4    4    0    0  0.38594497442E+02 -0.26744989381E+02 -0.16358378643E+03  0.21121551310E+03  0.12509000000E+03 0.  0.
         25    1    3    3    0    0 -0.34344833526E+02  0.27441837190E+02 -0.39785435672E+02  0.13843052774E+03  0.12509000000E+03 0.  0.
<mgrwt>
<rscale>  2 0.44234269E+03</rscale>
<asrwt>0</asrwt>
<pdfrwt beam="1">  1       21 0.12760972E-01 0.44234269E+03</pdfrwt>
<pdfrwt beam="2">  1       21 0.82900309E-01 0.44234269E+03</pdfrwt>
<totfact> 0.61595226E+04</totfact>
</mgrwt>
</event>
<event>
 7    0  0.4759581E-002  0.4534260E+03  0.7546771E-02  0.1026705E+00
         21   -1    0    0  502  501  0.00000000000E+00  0.00000000000E+00  0.58554713860E+02  0.58554713860E+02  0.00000000000E+00 0.  1.
         21   -1    0    0  501  502 -0.00000000000E+00 -0.00000000000E+00 -0.87779083712E+03  0.87779083712E+03  0.00000000000E+00 0.  1.
      99926    2    1    2    0    0  0.00000000000E+00  0.00000000000E+00 -0.81923612326E+03  0.93634555098E+03  0.45342603056E+03 0.  0.
      99925    2    3    3    0    0 -0.68799143000E+02  0.74747926106E+02 -0.61260696168E+03  0.67430797152E+03  0.26283716712E+03 0.  0.
         25    1    3    3    0    0  0.68799143000E+02 -0.74747926106E+02 -0.20662916158E+03  0.26203757946E+03  0.12509000000E+03 0.  0.
         25    1    4    4    0    0 -0.31368561366E+01  0.56671421496E+02 -0.26080272519E+03  0.29476610974E+03  0.12509000000E+03 0.  0.
         25    1    4    4    0    0 -0.65662286863E+02  0.18076504610E+02 -0.35180423649E+03  0.37954186179E+03  0.12509000000E+03 0.  0.
<mgrwt>
<rscale>  2 0.45342603E+03</rscale>
<asrwt>0</asrwt>
<pdfrwt beam="1">  1       21 0.86109872E-02 0.45342603E+03</pdfrwt>
<pdfrwt beam="2">  1       21 0.12908689E+00 0.45342603E+03</pdfrwt>
<totfact> 0.42216002E+04</totfact>
</mgrwt>
</event>
<event>
 7    0  0.4759581E-002  0.4407349E+03  0.7546771E-02  0.1030522E+00
         21   -1    0    0  502  501  0.00000000000E+00  0.00000000000E+00  0.19400795102E+04  0.19400795102E+04  0.00000000000E+00 0. -1.
         21   -1    0    0  501  502 -0.00000000000E+00 -0.00000000000E+00 -0.25030840986E+02  0.25030840986E+02  0.00000000000E+00 0. -1.
      99926    2    1    2    0    0  0.00000000000E+00  0.71054273576E-14  0.19150486692E+04  0.19651103512E+04  0.44073493948E+03 0.  0.
      99925    2    3    3    0    0 -0.45823294714E+02  0.57115423454E+02  0.92230201761E+03  0.96183802111E+03  0.26292474441E+03 0.  0.
         25    1    3    3    0    0  0.45823294714E+02 -0.57115423454E+02  0.99274665160E+03  0.10032723301E+04  0.12509000000E+03 0.  0.
         25    1    4    4    0    0 -0.37013891607E+01  0.37952404696E+02  0.57790843227E+03  0.59251983046E+03  0.12509000000E+03 0.  0.
         25    1    4    4    0    0 -0.42121905554E+02  0.19163018758E+02  0.34439358534E+03  0.36931819064E+03  0.12509000000E+03 0.  0.
<mgrwt>
<rscale>  2 0.44073494E+03</rscale>
<asrwt>0</asrwt>
<pdfrwt beam="1">  1       21 0.28530571E+00 0.44073494E+03</pdfrwt>
<pdfrwt beam="2">  1       21 0.36810073E-02 0.44073494E+03</pdfrwt>
<totfact> 0.15986105E+04</totfact>
</mgrwt>
</event>
<event>
 7    0  0.4759581E-002  0.4567353E+03  0.7546771E-02  0.1025732E+00
         21   -1    0    0  502  501  0.00000000000E+00  0.00000000000E+00  0.16612153005E+03  0.16612153005E+03  0.00000000000E+00 0.  1.
         21   -1    0    0  501  502 -0.00000000000E+00 -0.00000000000E+00 -0.31393754136E+03  0.31393754136E+03  0.00000000000E+00 0.  1.
      99926    2    1    2    0    0  0.35527136788E-14  0.00000000000E+00 -0.14781601131E+03  0.48005907141E+03  0.45673530502E+03 0.  0.
      99925    2    3    3    0    0 -0.30553601628E+02 -0.52139588538E+02  0.96435464833E+01  0.27007554895E+03  0.26305084088E+03 0.  0.
         25    1    4    4    0    0  0.24867999071E+02 -0.18187409057E+02  0.79443388064E+00  0.12883065804E+03  0.12509000000E+03 0.  0.
         25    1    4    4    0    0 -0.55421600699E+02 -0.33952179481E+02  0.88491126026E+01  0.14124489091E+03  0.12509000000E+03 0.  0.
         25    1    3    3    0    0  0.30553601628E+02  0.52139588538E+02 -0.15745955779E+03  0.20998352246E+03  0.12509000000E+03 0.  0.
<mgrwt>
<rscale>  2 0.45673531E+03</rscale>
<asrwt>0</asrwt>
<pdfrwt beam="1">  1       21 0.24429637E-01 0.45673531E+03</pdfrwt>
<pdfrwt beam="2">  1       21 0.46167285E-01 0.45673531E+03</pdfrwt>
<totfact> 0.65785029E+04</totfact>
</mgrwt>
</event>
<event>
 7    0  0.4759581E-002  0.4554739E+03  0.7546771E-02  0.1026102E+00
         21   -1    0    0  502  501  0.00000000000E+00  0.00000000000E+00  0.33101365177E+03  0.33101365177E+03  0.00000000000E+00 0.  1.
         21   -1    0    0  501  502 -0.00000000000E+00 -0.00000000000E+00 -0.15668268331E+03  0.15668268331E+03  0.00000000000E+00 0.  1.
      99926    2    1    2    0    0 -0.35527136788E-14  0.00000000000E+00  0.17433096845E+03  0.48769633508E+03  0.45547385071E+03 0.  0.
      99925    2    3    3    0    0  0.30712501442E+02  0.25236009764E+02  0.22361341550E+03  0.34749511675E+03  0.26300148790E+03 0.  0.
         25    1    3    3    0    0 -0.30712501442E+02 -0.25236009764E+02 -0.49282447047E+02  0.14020121833E+03  0.12509000000E+03 0.  0.
         25    1    4    4    0    0  0.40642937287E+02 -0.79778036860E+01  0.81094164116E+02  0.15472318914E+03  0.12509000000E+03 0.  0.
         25    1    4    4    0    0 -0.99304358447E+01  0.33213813450E+02  0.14251925139E+03  0.19277192761E+03  0.12509000000E+03 0.  0.
<mgrwt>
<rscale>  2 0.45547385E+03</rscale>
<asrwt>0</asrwt>
<pdfrwt beam="1">  1       21 0.48678478E-01 0.45547385E+03</pdfrwt>
<pdfrwt beam="2">  1       21 0.23041571E-01 0.45547385E+03</pdfrwt>
<totfact> 0.65895760E+04</totfact>
</mgrwt>
</event>
<event>
 7    0  0.4759581E-002  0.4596528E+03  0.7546771E-02  0.1024882E+00
         21   -1    0    0  502  501  0.00000000000E+00  0.00000000000E+00  0.15072965182E+03  0.15072965182E+03  0.00000000000E+00 0.  1.
         21   -1    0    0  501  502 -0.00000000000E+00 -0.00000000000E+00 -0.35042980877E+03  0.35042980877E+03  0.00000000000E+00 0.  1.
      99926    2    1    2    0    0  0.14210854715E-13  0.14210854715E-13 -0.19970015695E+03  0.50115946059E+03  0.45965275182E+03 0.  0.
      99925    2    3    3    0    0  0.86320351498E+02  0.71709492113E+02 -0.16307287324E+03  0.32916376194E+03  0.26298776748E+03 0.  0.
         25    1    3    3    0    0 -0.86320351498E+02 -0.71709492113E+02 -0.36627283707E+02  0.17199569865E+03  0.12509000000E+03 0.  0.
         25    1    4    4    0    0  0.61689862163E+02  0.45490862498E+02 -0.12714838918E+03  0.19413726751E+03  0.12509000000E+03 0.  0.
         25    1    4    4    0    0  0.24630489335E+02  0.26218629615E+02 -0.35924484062E+02  0.13502649443E+03  0.12509000000E+03 0.  0.
<mgrwt>
<rscale>  2 0.45965275E+03</rscale>
<asrwt>0</asrwt>
<pdfrwt beam="1">  1       21 0.22166126E-01 0.45965275E+03</pdfrwt>
<pdfrwt beam="2">  1       21 0.51533794E-01 0.45965275E+03</pdfrwt>
<totfact> 0.62836189E+04</totfact>
</mgrwt>
</event>
<event>
 6    0  0.4759581E-002  0.4292473E+03  0.7546771E-02  0.1034098E+00
         21   -1    0    0  502  501  0.00000000000E+00  0.00000000000E+00  0.16164201913E+03  0.16164201913E+03  0.00000000000E+00 0.  1.
         21   -1    0    0  501  502 -0.00000000000E+00 -0.00000000000E+00 -0.28497120321E+03  0.28497120321E+03  0.00000000000E+00 0.  1.
      99926    2    1    2    0    0  0.00000000000E+00 -0.35527136788E-14 -0.12332918408E+03  0.44661322234E+03  0.42924734445E+03 0.  0.
         25    1    3    3    0    0  0.77315608341E+02 -0.30936412320E+02 -0.77451975738E+02  0.16905940242E+03  0.12509000000E+03 0.  0.
         25    1    3    3    0    0 -0.73689140052E+01  0.33690902880E+02 -0.31234604695E+02  0.13346342743E+03  0.12509000000E+03 0.  0.
         25    1    3    3    0    0 -0.69946694336E+02 -0.27544905605E+01 -0.14642603652E+02  0.14409039249E+03  0.12509000000E+03 0.  0.
<mgrwt>
<rscale>  2 0.42924734E+03</rscale>
<asrwt>0</asrwt>
<pdfrwt beam="1">  1       21 0.23770885E-01 0.42924734E+03</pdfrwt>
<pdfrwt beam="2">  1       21 0.41907529E-01 0.42924734E+03</pdfrwt>
<totfact> 0.85366068E+04</totfact>
</mgrwt>
</event>
<event>
 7    0  0.4759581E-002  0.4550930E+03  0.7546771E-02  0.1026214E+00
         21   -1    0    0  502  501  0.00000000000E+00  0.00000000000E+00  0.12265358096E+03  0.12265358096E+03  0.00000000000E+00 0. -1.
         21   -1    0    0  501  502 -0.00000000000E+00 -0.00000000000E+00 -0.42214355514E+03  0.42214355514E+03  0.00000000000E+00 0. -1.
      99926    2    1    2    0    0  0.00000000000E+00  0.00000000000E+00 -0.29948997418E+03  0.54479713610E+03  0.45509303979E+03 0.  0.
      99925    2    3    3    0    0 -0.86705409144E+02  0.53277289502E+02 -0.24792035114E+03  0.37549494571E+03  0.26301265405E+03 0.  0.
         25    1    3    3    0    0  0.86705409144E+02 -0.53277289502E+02 -0.51569623037E+02  0.16930219039E+03  0.12509000000E+03 0.  0.
         25    1    4    4    0    0 -0.74152548516E+02  0.41405945637E+02 -0.10131779933E+03  0.18200510253E+03  0.12509000000E+03 0.  0.
         25    1    4    4    0    0 -0.12552860627E+02  0.11871343865E+02 -0.14660255181E+03  0.19348984318E+03  0.12509000000E+03 0.  0.
<mgrwt>
<rscale>  2 0.45509304E+03</rscale>
<asrwt>0</asrwt>
<pdfrwt beam="1">  1       21 0.18037291E-01 0.45509304E+03</pdfrwt>
<pdfrwt beam="2">  1       21 0.62079935E-01 0.45509304E+03</pdfrwt>
<totfact> 0.62165856E+04</totfact>
</mgrwt>
</event>
<event>
 7    0  0.4759581E-002  0.4545530E+03  0.7546771E-02  0.1026373E+00
         21   -1    0    0  502  501  0.00000000000E+00  0.00000000000E+00  0.31950258656E+02  0.31950258656E+02  0.00000000000E+00 0. -1.
         21   -1    0    0  501  502 -0.00000000000E+00 -0.00000000000E+00 -0.16167197076E+04  0.16167197076E+04  0.00000000000E+00 0. -1.
      99926    2    1    2    0    0 -0.35527136788E-14  0.00000000000E+00 -0.15847694489E+04  0.16486699662E+04  0.45455302367E+03 0.  0.
      99925    2    3    3    0    0 -0.25088196559E+02 -0.10548781688E+03 -0.88165769602E+03  0.92633296574E+03  0.26270777176E+03 0.  0.
         25    1    3    3    0    0  0.25088196559E+02  0.10548781688E+03 -0.70311175291E+03  0.72233700050E+03  0.12509000000E+03 0.  0.
         25    1    4    4    0    0  0.12906836652E+02 -0.19968407922E+02 -0.42739258308E+03  0.44595655833E+03  0.12509000000E+03 0.  0.
         25    1    4    4    0    0 -0.37995033211E+02 -0.85519408958E+02 -0.45426511294E+03  0.48037640740E+03  0.12509000000E+03 0.  0.
<mgrwt>
<rscale>  2 0.45455302E+03</rscale>
<asrwt>0</asrwt>
<pdfrwt beam="1">  1       21 0.46985662E-02 0.45455302E+03</pdfrwt>
<pdfrwt beam="2">  1       21 0.23775296E+00 0.45455302E+03</pdfrwt>
<totfact> 0.20422743E+04</totfact>
</mgrwt>
</event>
<event>
 7    0  0.4759581E-002  0.4557722E+03  0.7546771E-02  0.1026015E+00
         21   -1    0    0  502  501  0.00000000000E+00  0.00000000000E+00  0.38813757032E+03  0.38813757032E+03  0.00000000000E+00 0. -1.
         21   -1    0    0  501  502 -0.00000000000E+00 -0.00000000000E+00 -0.13379813032E+03  0.13379813032E+03  0.00000000000E+00 0. -1.
      99926    2    1    2    0    0 -0.17763568394E-14  0.00000000000E+00  0.25433944000E+03  0.52193570064E+03  0.45577222915E+03 0.  0.
      99925    2    3    3    0    0 -0.85042991145E+01  0.33917895004E+02  0.28402684730E+03  0.38870058156E+03  0.26304780062E+03 0.  0.
         25    1    4    4    0    0  0.21663438580E+02  0.45902626966E+01  0.18168959755E+03  0.22169572175E+03  0.12509000000E+03 0.  0.
         25    1    4    4    0    0 -0.30167737694E+02  0.29327632307E+02  0.10233724975E+03  0.16700485981E+03  0.12509000000E+03 0.  0.
         25    1    3    3    0    0  0.85042991145E+01 -0.33917895004E+02 -0.29687407297E+02  0.13323511908E+03  0.12509000000E+03 0.  0.
<mgrwt>
<rscale>  2 0.45577223E+03</rscale>
<asrwt>0</asrwt>
<pdfrwt beam="1">  1       21 0.57079054E-01 0.45577223E+03</pdfrwt>
<pdfrwt beam="2">  1       21 0.19676196E-01 0.45577223E+03</pdfrwt>
<totfact> 0.63366461E+04</totfact>
</mgrwt>
</event>
<event>
 7    0  0.4759581E-002  0.4475002E+03  0.7546771E-02  0.1028470E+00
         21   -1    0    0  502  501  0.00000000000E+00  0.00000000000E+00  0.16853985987E+03  0.16853985987E+03  0.00000000000E+00 0. -1.
         21   -1    0    0  501  502 -0.00000000000E+00 -0.00000000000E+00 -0.29704611963E+03  0.29704611963E+03  0.00000000000E+00 0. -1.
      99926    2    1    2    0    0 -0.17763568394E-14  0.00000000000E+00 -0.12850625977E+03  0.46558597950E+03  0.44750021844E+03 0.  0.
      99925    2    3    3    0    0 -0.67163153913E+01  0.67004740421E+02  0.36633616840E+01  0.27154716620E+03  0.26303934900E+03 0.  0.
         25    1    4    4    0    0  0.33920837097E+02  0.16674198132E+02  0.10164661793E+00  0.13067582219E+03  0.12509000000E+03 0.  0.
         25    1    3    3    0    0  0.67163153913E+01 -0.67004740421E+02 -0.13216962145E+03  0.19403881330E+03  0.12509000000E+03 0.  0.
         25    1    4    4    0    0 -0.40637152488E+02  0.50330542289E+02  0.35617150661E+01  0.14087134401E+03  0.12509000000E+03 0.  0.
<mgrwt>
<rscale>  2 0.44750022E+03</rscale>
<asrwt>0</asrwt>
<pdfrwt beam="1">  1       21 0.24785274E-01 0.44750022E+03</pdfrwt>
<pdfrwt beam="2">  1       21 0.43683252E-01 0.44750022E+03</pdfrwt>
<totfact> 0.71952140E+04</totfact>
</mgrwt>
</event>
<event>
 7    0  0.4759581E-002  0.4471199E+03  0.7546771E-02  0.1028584E+00
         21   -1    0    0  502  501  0.00000000000E+00  0.00000000000E+00  0.38289389267E+02  0.38289389267E+02  0.00000000000E+00 0. -1.
         21   -1    0    0  501  502 -0.00000000000E+00 -0.00000000000E+00 -0.13052977402E+04  0.13052977402E+04  0.00000000000E+00 0. -1.
      99926    2    1    2    0    0  0.00000000000E+00  0.14210854715E-13 -0.12670083509E+04  0.13435871294E+04  0.44711990912E+03 0.  0.
      99925    2    3    3    0    0 -0.32758400660E+02 -0.99856132186E+02 -0.77296231684E+03  0.82322826114E+03  0.26303928742E+03 0.  0.
         25    1    4    4    0    0  0.54243987014E+01 -0.18916610914E+02 -0.29209247326E+03  0.31835951895E+03  0.12509000000E+03 0.  0.
         25    1    4    4    0    0 -0.38182799361E+02 -0.80939521272E+02 -0.48086984358E+03  0.50486874219E+03  0.12509000000E+03 0.  0.
         25    1    3    3    0    0  0.32758400660E+02  0.99856132186E+02 -0.49404603406E+03  0.52035886830E+03  0.12509000000E+03 0.  0.
<mgrwt>
<rscale>  2 0.44711991E+03</rscale>
<asrwt>0</asrwt>
<pdfrwt beam="1">  1       21 0.56307920E-02 0.44711991E+03</pdfrwt>
<pdfrwt beam="2">  1       21 0.19195557E+00 0.44711991E+03</pdfrwt>
<totfact> 0.29649894E+04</totfact>
</mgrwt>
</event>
<event>
 7    0  0.4759581E-002  0.4480982E+03  0.7546771E-02  0.1028291E+00
         21   -1    0    0  502  501  0.00000000000E+00  0.00000000000E+00  0.43698874322E+02  0.43698874322E+02  0.00000000000E+00 0. -1.
         21   -1    0    0  501  502 -0.00000000000E+00 -0.00000000000E+00 -0.11487251507E+04  0.11487251507E+04  0.00000000000E+00 0. -1.
      99926    2    1    2    0    0  0.00000000000E+00  0.00000000000E+00 -0.11050262764E+04  0.11924240251E+04  0.44809818564E+03 0.  0.
      99925    2    3    3    0    0  0.47283179915E+02 -0.72664983714E+02 -0.86472723264E+03  0.90798240099E+03  0.26298850676E+03 0.  0.
         25    1    3    3    0    0 -0.47283179915E+02  0.72664983714E+02 -0.24029904378E+03  0.28444162406E+03  0.12509000000E+03 0.  0.
         25    1    4    4    0    0 -0.64960452751E+00 -0.61250023351E+01 -0.45015567452E+03  0.46725322582E+03  0.12509000000E+03 0.  0.
         25    1    4    4    0    0  0.47932784442E+02 -0.66539981379E+02 -0.41457155812E+03  0.44072917517E+03  0.12509000000E+03 0.  0.
<mgrwt>
<rscale>  2 0.44809819E+03</rscale>
<asrwt>0</asrwt>
<pdfrwt beam="1">  1       21 0.64263045E-02 0.44809819E+03</pdfrwt>
<pdfrwt beam="2">  1       21 0.16893018E+00 0.44809819E+03</pdfrwt>
<totfact> 0.34199138E+04</totfact>
</mgrwt>
</event>
<event>
 7    0  0.4759581E-002  0.4593897E+03  0.7546771E-02  0.1024958E+00
         21   -1    0    0  502  501  0.00000000000E+00  0.00000000000E+00  0.14326100013E+03  0.14326100013E+03  0.00000000000E+00 0. -1.
         21   -1    0    0  501  502 -0.00000000000E+00 -0.00000000000E+00 -0.36827687779E+03  0.36827687779E+03  0.00000000000E+00 0. -1.
      99926    2    1    2    0    0  0.00000000000E+00 -0.71054273576E-14 -0.22501587765E+03  0.51153787792E+03  0.45938965525E+03 0.  0.
      99925    2    3    3    0    0  0.79677821045E+02  0.49649013265E+02 -0.63141576686E+02  0.28645039027E+03  0.26316038397E+03 0.  0.
         25    1    3    3    0    0 -0.79677821045E+02 -0.49649013265E+02 -0.16187430097E+03  0.22508748765E+03  0.12509000000E+03 0.  0.
         25    1    4    4    0    0  0.35847847296E+02  0.16652056614E+02 -0.71863560453E+02  0.14958020780E+03  0.12509000000E+03 0.  0.
         25    1    4    4    0    0  0.43829973748E+02  0.32996956651E+02  0.87219837672E+01  0.13687018246E+03  0.12509000000E+03 0.  0.
<mgrwt>
<rscale>  2 0.45938966E+03</rscale>
<asrwt>0</asrwt>
<pdfrwt beam="1">  1       21 0.21067795E-01 0.45938966E+03</pdfrwt>
<pdfrwt beam="2">  1       21 0.54158363E-01 0.45938966E+03</pdfrwt>
<totfact> 0.62269633E+04</totfact>
</mgrwt>
</event>
<event>
 7    0  0.4759581E-002  0.4526744E+03  0.7546771E-02  0.1026927E+00
         21   -1    0    0  502  501  0.00000000000E+00  0.00000000000E+00  0.68533055734E+03  0.68533055734E+03  0.00000000000E+00 0. -1.
         21   -1    0    0  501  502 -0.00000000000E+00 -0.00000000000E+00 -0.74750107575E+02  0.74750107575E+02  0.00000000000E+00 0. -1.
      99926    2    1    2    0    0  0.35527136788E-14 -0.35527136788E-14  0.61058044976E+03  0.76008066491E+03  0.45267442113E+03 0.  0.
      99925    2    3    3    0    0  0.28235945340E+02 -0.24452364867E+02  0.56056234989E+03  0.62027900122E+03  0.26290816739E+03 0.  0.
         25    1    4    4    0    0  0.17958350814E+01 -0.46114317988E+02  0.32690047660E+03  0.35304558495E+03  0.12509000000E+03 0.  0.
         25    1    4    4    0    0  0.26440110259E+02  0.21661953121E+02  0.23366187329E+03  0.26723341627E+03  0.12509000000E+03 0.  0.
         25    1    3    3    0    0 -0.28235945340E+02  0.24452364867E+02  0.50018099870E+02  0.13980166369E+03  0.12509000000E+03 0.  0.
<mgrwt>
<rscale>  2 0.45267442E+03</rscale>
<asrwt>0</asrwt>
<pdfrwt beam="1">  1       21 0.10078390E+00 0.45267442E+03</pdfrwt>
<pdfrwt beam="2">  1       21 0.10992663E-01 0.45267442E+03</pdfrwt>
<totfact> 0.50674768E+04</totfact>
</mgrwt>
</event>
<event>
 7    0  0.4759581E-002  0.4685344E+03  0.7546771E-02  0.1022335E+00
         21   -1    0    0  502  501  0.00000000000E+00  0.00000000000E+00  0.15199796696E+04  0.15199796696E+04  0.00000000000E+00 0.  1.
         21   -1    0    0  501  502 -0.00000000000E+00 -0.00000000000E+00 -0.36106489515E+02  0.36106489515E+02  0.00000000000E+00 0.  1.
      99926    2    1    2    0    0  0.35527136788E-14  0.00000000000E+00  0.14838731801E+04  0.15560861592E+04  0.46853443846E+03 0.  0.
      99925    2    3    3    0    0  0.10584775036E+02  0.31864928514E+02  0.13241871675E+04  0.13504784213E+04  0.26304543476E+03 0.  0.
         25    1    4    4    0    0 -0.28777838571E+02  0.35211536576E+02  0.72246519675E+03  0.73462336262E+03  0.12509000000E+03 0.  0.
         25    1    3    3    0    0 -0.10584775036E+02 -0.31864928514E+02  0.15968601265E+03  0.20560773786E+03  0.12509000000E+03 0.  0.
         25    1    4    4    0    0  0.39362613608E+02 -0.33466080620E+01  0.60172197074E+03  0.61585505868E+03  0.12509000000E+03 0.  0.
<mgrwt>
<rscale>  2 0.46853444E+03</rscale>
<asrwt>0</asrwt>
<pdfrwt beam="1">  1       21 0.22352638E+00 0.46853444E+03</pdfrwt>
<pdfrwt beam="2">  1       21 0.53097789E-02 0.46853444E+03</pdfrwt>
<totfact> 0.20226452E+04</totfact>
</mgrwt>
</event>
<event>
 7    0  0.4759581E-002  0.4597206E+03  0.7546771E-02  0.1024862E+00
         21   -1    0    0  502  501  0.00000000000E+00  0.00000000000E+00  0.20334413865E+03  0.20334413865E+03  0.00000000000E+00 0.  1.
         21   -1    0    0  501  502 -0.00000000000E+00 -0.00000000000E+00 -0.25983413900E+03  0.25983413900E+03  0.00000000000E+00 0.  1.
      99926    2    1    2    0    0  0.00000000000E+00  0.00000000000E+00 -0.56490000345E+02  0.46317827765E+03  0.45972056376E+03 0.  0.
      99925    2    3    3    0    0  0.32614486891E+02 -0.85578523530E+02  0.38946175984E+02  0.28112619637E+03  0.26292155716E+03 0.  0.
         25    1    4    4    0    0  0.48001902336E+02 -0.69697015872E+02  0.28250482018E+02  0.15364717532E+03  0.12509000000E+03 0.  0.
         25    1    4    4    0    0 -0.15387415446E+02 -0.15881507657E+02  0.10695693966E+02  0.12747902105E+03  0.12509000000E+03 0.  0.
         25    1    3    3    0    0 -0.32614486891E+02  0.85578523530E+02 -0.95436176329E+02  0.18205208128E+03  0.12509000000E+03 0.  0.
<mgrwt>
<rscale>  2 0.45972056E+03</rscale>
<asrwt>0</asrwt>
<pdfrwt beam="1">  1       21 0.29903550E-01 0.45972056E+03</pdfrwt>
<pdfrwt beam="2">  1       21 0.38210903E-01 0.45972056E+03</pdfrwt>
<totfact> 0.65450636E+04</totfact>
</mgrwt>
</event>
<event>
 7    0  0.4759581E-002  0.4624802E+03  0.7546771E-02  0.1024064E+00
         21   -1    0    0  502  501  0.00000000000E+00  0.00000000000E+00  0.84159647094E+03  0.84159647094E+03  0.00000000000E+00 0. -1.
         21   -1    0    0  501  502 -0.00000000000E+00 -0.00000000000E+00 -0.63536372693E+02  0.63536372693E+02  0.00000000000E+00 0. -1.
      99926    2    1    2    0    0  0.00000000000E+00  0.00000000000E+00  0.77806009825E+03  0.90513284363E+03  0.46248021378E+03 0.  0.
      99925    2    3    3    0    0  0.44384037711E+02  0.86527896560E+02  0.34839127926E+03  0.44718107566E+03  0.26293993853E+03 0.  0.
         25    1    4    4    0    0  0.14975717875E+02  0.77439279471E+02  0.22173949252E+03  0.26652771858E+03  0.12509000000E+03 0.  0.
         25    1    3    3    0    0 -0.44384037711E+02 -0.86527896560E+02  0.42966881898E+03  0.45795176798E+03  0.12509000000E+03 0.  0.
         25    1    4    4    0    0  0.29408319836E+02  0.90886170881E+01  0.12665178675E+03  0.18065335707E+03  0.12509000000E+03 0.  0.
<mgrwt>
<rscale>  2 0.46248021E+03</rscale>
<asrwt>0</asrwt>
<pdfrwt beam="1">  1       21 0.12376418E+00 0.46248021E+03</pdfrwt>
<pdfrwt beam="2">  1       21 0.93435847E-02 0.46248021E+03</pdfrwt>
<totfact> 0.40583155E+04</totfact>
</mgrwt>
</event>
<event>
 7    0  0.4759581E-002  0.4509819E+03  0.7546771E-02  0.1027430E+00
         21   -1    0    0  502  501  0.00000000000E+00  0.00000000000E+00  0.21992113611E+04  0.21992113611E+04  0.00000000000E+00 0.  1.
         21   -1    0    0  501  502 -0.00000000000E+00 -0.00000000000E+00 -0.23120186190E+02  0.23120186190E+02  0.00000000000E+00 0.  1.
      99926    2    1    2    0    0 -0.71054273576E-14  0.00000000000E+00  0.21760911749E+04  0.22223315473E+04  0.45098193373E+03 0.  0.
      99925    2    3    3    0    0 -0.58335360191E+02  0.59358015099E+02  0.10243232225E+04  0.10608052616E+04  0.26295123224E+03 0.  0.
         25    1    4    4    0    0  0.11629164666E+02  0.21096194270E+02  0.48543492268E+03  0.50187135716E+03  0.12509000000E+03 0.  0.
         25    1    3    3    0    0  0.58335360191E+02 -0.59358015099E+02  0.11517679524E+04  0.11615262857E+04  0.12509000000E+03 0.  0.
         25    1    4    4    0    0 -0.69964524857E+02  0.38261820829E+02  0.53888829985E+03  0.55893390440E+03  0.12509000000E+03 0.  0.
<mgrwt>
<rscale>  2 0.45098193E+03</rscale>
<asrwt>0</asrwt>
<pdfrwt beam="1">  1       21 0.32341329E+00 0.45098193E+03</pdfrwt>
<pdfrwt beam="2">  1       21 0.34000289E-02 0.45098193E+03</pdfrwt>
<totfact> 0.10739007E+04</totfact>
</mgrwt>
</event>
<event>
 7    0  0.4759581E-002  0.4583815E+03  0.7546771E-02  0.1025252E+00
         21   -1    0    0  502  501  0.00000000000E+00  0.00000000000E+00  0.12170101107E+04  0.12170101107E+04  0.00000000000E+00 0.  1.
         21   -1    0    0  501  502 -0.00000000000E+00 -0.00000000000E+00 -0.43161850280E+02  0.43161850280E+02  0.00000000000E+00 0.  1.
      99926    2    1    2    0    0  0.14210854715E-13 -0.14210854715E-13  0.11738482604E+04  0.12601719610E+04  0.45838153622E+03 0.  0.
      99925    2    3    3    0    0 -0.64456802181E+02  0.81751167666E+02  0.87900173293E+03  0.92339322704E+03  0.26300774225E+03 0.  0.
         25    1    4    4    0    0  0.88558229621E+01  0.30378532699E+02  0.39723792563E+03  0.41766823977E+03  0.12509000000E+03 0.  0.
         25    1    4    4    0    0 -0.73312625143E+02  0.51372634967E+02  0.48176380730E+03  0.50572498727E+03  0.12509000000E+03 0.  0.
         25    1    3    3    0    0  0.64456802181E+02 -0.81751167666E+02  0.29484652749E+03  0.33677873394E+03  0.12509000000E+03 0.  0.
<mgrwt>
<rscale>  2 0.45838154E+03</rscale>
<asrwt>0</asrwt>
<pdfrwt beam="1">  1       21 0.17897205E+00 0.45838154E+03</pdfrwt>
<pdfrwt beam="2">  1       21 0.63473317E-02 0.45838154E+03</pdfrwt>
<totfact> 0.29509275E+04</totfact>
</mgrwt>
</event>
<event>
 7    0  0.4759581E-002  0.4660612E+03  0.7546771E-02  0.1023038E+00
         21   -1    0    0  502  501  0.00000000000E+00  0.00000000000E+00  0.36099031417E+03  0.36099031417E+03  0.00000000000E+00 0.  1.
         21   -1    0    0  501  502 -0.00000000000E+00 -0.00000000000E+00 -0.15042857006E+03  0.15042857006E+03  0.00000000000E+00 0.  1.
      99926    2    1    2    0    0  0.00000000000E+00  0.71054273576E-14  0.21056174411E+03  0.51141888423E+03  0.46606118383E+03 0.  0.
      99925    2    3    3    0    0  0.74993948558E+02 -0.55408550696E+02  0.21971456527E+03  0.35513234596E+03  0.26296443323E+03 0.  0.
         25    1    4    4    0    0  0.39020774984E+02  0.13497274617E+02  0.10275785934E+03  0.16706730098E+03  0.12509000000E+03 0.  0.
         25    1    3    3    0    0 -0.74993948558E+02  0.55408550696E+02 -0.91528211622E+01  0.15628653827E+03  0.12509000000E+03 0.  0.
         25    1    4    4    0    0  0.35973173574E+02 -0.68905825313E+02  0.11695670593E+03  0.18806504497E+03  0.12509000000E+03 0.  0.
<mgrwt>
<rscale>  2 0.46606118E+03</rscale>
<asrwt>0</asrwt>
<pdfrwt beam="1">  1       21 0.53086811E-01 0.46606118E+03</pdfrwt>
<pdfrwt beam="2">  1       21 0.22121849E-01 0.46606118E+03</pdfrwt>
<totfact> 0.59112858E+04</totfact>
</mgrwt>
</event>
<event>
 7    0  0.4759581E-002  0.4559597E+03  0.7546771E-02  0.1025960E+00
         21   -1    0    0  502  501  0.00000000000E+00  0.00000000000E+00  0.23025150356E+03  0.23025150356E+03  0.00000000000E+00 0.  1.
         21   -1    0    0  501  502 -0.00000000000E+00 -0.00000000000E+00 -0.22573057438E+03  0.22573057438E+03  0.00000000000E+00 0.  1.
      99926    2    1    2    0    0  0.14210854715E-13 -0.71054273576E-14  0.45209291712E+01  0.45598207794E+03  0.45595966554E+03 0.  0.
      99925    2    3    3    0    0  0.94518044901E+02 -0.60924344396E+02 -0.16387659274E+02  0.28648247994E+03  0.26297950373E+03 0.  0.
         25    1    4    4    0    0  0.22465462904E+02 -0.56244765923E+02 -0.27302900963E+02  0.14163730871E+03  0.12509000000E+03 0.  0.
         25    1    3    3    0    0 -0.94518044901E+02  0.60924344396E+02  0.20908588445E+02  0.16949959800E+03  0.12509000000E+03 0.  0.
         25    1    4    4    0    0  0.72052581997E+02 -0.46795784730E+01  0.10915241689E+02  0.14484517123E+03  0.12509000000E+03 0.  0.
<mgrwt>
<rscale>  2 0.45595967E+03</rscale>
<asrwt>0</asrwt>
<pdfrwt beam="1">  1       21 0.33860515E-01 0.45595967E+03</pdfrwt>
<pdfrwt beam="2">  1       21 0.33195673E-01 0.45595967E+03</pdfrwt>
<totfact> 0.67952094E+04</totfact>
</mgrwt>
</event>
<event>
 7    0  0.4759581E-002  0.4514488E+03  0.7546771E-02  0.1027291E+00
         21   -1    0    0  502  501  0.00000000000E+00  0.00000000000E+00  0.17827080731E+04  0.17827080731E+04  0.00000000000E+00 0.  1.
         21   -1    0    0  501  502 -0.00000000000E+00 -0.00000000000E+00 -0.28580962228E+02  0.28580962228E+02  0.00000000000E+00 0.  1.
      99926    2    1    2    0    0  0.71054273576E-14  0.00000000000E+00  0.17541271108E+04  0.18112890353E+04  0.45144883253E+03 0.  0.
      99925    2    3    3    0    0 -0.42243500831E+02 -0.96908906076E+02  0.98969305588E+03  0.10295072359E+04  0.26309115226E+03 0.  0.
         25    1    4    4    0    0  0.15168622067E+02 -0.60090291813E+02  0.43769211655E+03  0.45941574555E+03  0.12509000000E+03 0.  0.
         25    1    4    4    0    0 -0.57412122898E+02 -0.36818614263E+02  0.55200093933E+03  0.57009149031E+03  0.12509000000E+03 0.  0.
         25    1    3    3    0    0  0.42243500831E+02  0.96908906076E+02  0.76443405496E+03  0.78178179943E+03  0.12509000000E+03 0.  0.
<mgrwt>
<rscale>  2 0.45144883E+03</rscale>
<asrwt>0</asrwt>
<pdfrwt beam="1">  1       21 0.26216288E+00 0.45144883E+03</pdfrwt>
<pdfrwt beam="2">  1       21 0.42030839E-02 0.45144883E+03</pdfrwt>
<totfact> 0.17521595E+04</totfact>
</mgrwt>
</event>
<event>
 7    0  0.4759581E-002  0.4536110E+03  0.7546771E-02  0.1026651E+00
         21   -1    0    0  502  501  0.00000000000E+00  0.00000000000E+00  0.32822660368E+03  0.32822660368E+03  0.00000000000E+00 0. -1.
         21   -1    0    0  501  502 -0.00000000000E+00 -0.00000000000E+00 -0.15672322277E+03  0.15672322277E+03  0.00000000000E+00 0. -1.
      99926    2    1    2    0    0  0.00000000000E+00  0.00000000000E+00  0.17150338091E+03  0.48494982645E+03  0.45361098367E+03 0.  0.
      99925    2    3    3    0    0 -0.10573025935E+03  0.33206520782E+02  0.91591331342E+02  0.29970673068E+03  0.26297070497E+03 0.  0.
         25    1    3    3    0    0  0.10573025935E+03 -0.33206520782E+02  0.79912049569E+02  0.18524309577E+03  0.12509000000E+03 0.  0.
         25    1    4    4    0    0 -0.50598276135E+02 -0.23818045556E+02  0.50012884700E+02  0.14586391458E+03  0.12509000000E+03 0.  0.
         25    1    4    4    0    0 -0.55131983212E+02  0.57024566338E+02  0.41578446642E+02  0.15384281610E+03  0.12509000000E+03 0.  0.
<mgrwt>
<rscale>  2 0.45361098E+03</rscale>
<asrwt>0</asrwt>
<pdfrwt beam="1">  1       21 0.48268618E-01 0.45361098E+03</pdfrwt>
<pdfrwt beam="2">  1       21 0.23047533E-01 0.45361098E+03</pdfrwt>
<totfact> 0.67078120E+04</totfact>
</mgrwt>
</event>
<event>
 7    0  0.4759581E-002  0.4541772E+03  0.7546771E-02  0.1026484E+00
         21   -1    0    0  502  501  0.00000000000E+00  0.00000000000E+00  0.20465191679E+03  0.20465191679E+03  0.00000000000E+00 0. -1.
         21   -1    0    0  501  502 -0.00000000000E+00 -0.00000000000E+00 -0.25198510057E+03  0.25198510057E+03  0.00000000000E+00 0. -1.
      99926    2    1    2    0    0  0.00000000000E+00  0.00000000000E+00 -0.47333183786E+02  0.45663701736E+03  0.45417720698E+03 0.  0.
      99925    2    3    3    0    0 -0.50763096077E+02 -0.16422219047E+02 -0.12935174670E+03  0.29782538692E+03  0.26290969080E+03 0.  0.
         25    1    3    3    0    0  0.50763096077E+02  0.16422219047E+02  0.82018562916E+02  0.15881163045E+03  0.12509000000E+03 0.  0.
         25    1    4    4    0    0 -0.20004038678E+02 -0.28603608560E+02 -0.10305440819E+03  0.16578916471E+03  0.12509000000E+03 0.  0.
         25    1    4    4    0    0 -0.30759057400E+02  0.12181389513E+02 -0.26297338508E+02  0.13203622221E+03  0.12509000000E+03 0.  0.
<mgrwt>
<rscale>  2 0.45417721E+03</rscale>
<asrwt>0</asrwt>
<pdfrwt beam="1">  1       21 0.30095870E-01 0.45417721E+03</pdfrwt>
<pdfrwt beam="2">  1       21 0.37056632E-01 0.45417721E+03</pdfrwt>
<totfact> 0.68877053E+04</totfact>
</mgrwt>
</event>
<event>
 7    0  0.4759581E-002  0.4541323E+03  0.7546771E-02  0.1026497E+00
         21   -1    0    0  502  501  0.00000000000E+00  0.00000000000E+00  0.20153102806E+03  0.20153102806E+03  0.00000000000E+00 0. -1.
         21   -1    0    0  501  502 -0.00000000000E+00 -0.00000000000E+00 -0.25583669885E+03  0.25583669885E+03  0.00000000000E+00 0. -1.
      99926    2    1    2    0    0  0.14210854715E-13  0.14210854715E-13 -0.54305670784E+02  0.45736772691E+03  0.45413228440E+03 0.  0.
      99925    2    3    3    0    0 -0.83379655514E+02  0.70758952368E+02 -0.69357909239E+01  0.28459501520E+03  0.26265418555E+03 0.  0.
         25    1    4    4    0    0 -0.81716180344E+02  0.39821116218E+02  0.81473247590E+01  0.15484554378E+03  0.12509000000E+03 0.  0.
         25    1    4    4    0    0 -0.16634751697E+01  0.30937836150E+02 -0.15083115683E+02  0.12974947142E+03  0.12509000000E+03 0.  0.
         25    1    3    3    0    0  0.83379655514E+02 -0.70758952368E+02 -0.47369879860E+02  0.17277271171E+03  0.12509000000E+03 0.  0.
<mgrwt>
<rscale>  2 0.45413228E+03</rscale>
<asrwt>0</asrwt>
<pdfrwt beam="1">  1       21 0.29636916E-01 0.45413228E+03</pdfrwt>
<pdfrwt beam="2">  1       21 0.37623044E-01 0.45413228E+03</pdfrwt>
<totfact> 0.68847966E+04</totfact>
</mgrwt>
</event>
<event>
 7    0  0.4759581E-002  0.4618353E+03  0.7546771E-02  0.1024250E+00
         21   -1    0    0  502  501  0.00000000000E+00  0.00000000000E+00  0.25565629196E+03  0.25565629196E+03  0.00000000000E+00 0. -1.
         21   -1    0    0  501  502 -0.00000000000E+00 -0.00000000000E+00 -0.20857286619E+03  0.20857286619E+03  0.00000000000E+00 0. -1.
      99926    2    1    2    0    0  0.00000000000E+00  0.14210854715E-13  0.47083425777E+02  0.46422915815E+03  0.46183531945E+03 0.  0.
      99925    2    3    3    0    0 -0.37357047379E+02 -0.11315993049E+03  0.17649569172E+02  0.28897340540E+03  0.26266595302E+03 0.  0.
         25    1    4    4    0    0 -0.21767935262E+02 -0.86800962067E+02 -0.19257750382E+02  0.15500522272E+03  0.12509000000E+03 0.  0.
         25    1    3    3    0    0  0.37357047379E+02  0.11315993049E+03  0.29433856606E+02  0.17525575275E+03  0.12509000000E+03 0.  0.
         25    1    4    4    0    0 -0.15589112117E+02 -0.26358968421E+02  0.36907319554E+02  0.13396818268E+03  0.12509000000E+03 0.  0.
<mgrwt>
<rscale>  2 0.46183532E+03</rscale>
<asrwt>0</asrwt>
<pdfrwt beam="1">  1       21 0.37596514E-01 0.46183532E+03</pdfrwt>
<pdfrwt beam="2">  1       21 0.30672480E-01 0.46183532E+03</pdfrwt>
<totfact> 0.64296219E+04</totfact>
</mgrwt>
</event>
<event>
 7    0  0.4759581E-002  0.4596910E+03  0.7546771E-02  0.1024871E+00
         21   -1    0    0  502  501  0.00000000000E+00  0.00000000000E+00  0.12855638584E+04  0.12855638584E+04  0.00000000000E+00 0. -1.
         21   -1    0    0  501  502 -0.00000000000E+00 -0.00000000000E+00 -0.41093994915E+02  0.41093994915E+02  0.00000000000E+00 0. -1.
      99926    2    1    2    0    0  0.00000000000E+00 -0.14210854715E-13  0.12444698635E+04  0.13266578533E+04  0.45969100344E+03 0.  0.
      99925    2    3    3    0    0 -0.41140093442E+02  0.95810104027E+02  0.62383049231E+03  0.68500933545E+03  0.26306125370E+03 0.  0.
         25    1    3    3    0    0  0.41140093442E+02 -0.95810104027E+02  0.62063937119E+03  0.64164851787E+03  0.12509000000E+03 0.  0.
         25    1    4    4    0    0 -0.30457798156E+02  0.11254022869E+02  0.24361077375E+03  0.27576810491E+03  0.12509000000E+03 0.  0.
         25    1    4    4    0    0 -0.10682295287E+02  0.84556081158E+02  0.38021971856E+03  0.40924123054E+03  0.12509000000E+03 0.  0.
<mgrwt>
<rscale>  2 0.45969100E+03</rscale>
<asrwt>0</asrwt>
<pdfrwt beam="1">  1       21 0.18905348E+00 0.45969100E+03</pdfrwt>
<pdfrwt beam="2">  1       21 0.60432354E-02 0.45969100E+03</pdfrwt>
<totfact> 0.27339351E+04</totfact>
</mgrwt>
</event>
<event>
 7    0  0.4759581E-002  0.4570128E+03  0.7546771E-02  0.1025651E+00
         21   -1    0    0  502  501  0.00000000000E+00  0.00000000000E+00  0.26757743233E+03  0.26757743233E+03  0.00000000000E+00 0.  1.
         21   -1    0    0  501  502 -0.00000000000E+00 -0.00000000000E+00 -0.19514043814E+03  0.19514043814E+03  0.00000000000E+00 0.  1.
      99926    2    1    2    0    0  0.00000000000E+00  0.00000000000E+00  0.72436994190E+02  0.46271787047E+03  0.45701281112E+03 0.  0.
      99925    2    3    3    0    0 -0.15077663006E+02 -0.88031476544E+02  0.11766038216E+03  0.30250070627E+03  0.26398074737E+03 0.  0.
         25    1    4    4    0    0 -0.13544263202E+02 -0.15402855178E+01  0.64432448266E+02  0.14136784654E+03  0.12509000000E+03 0.  0.
         25    1    3    3    0    0  0.15077663006E+02  0.88031476544E+02 -0.45223387970E+02  0.16021716420E+03  0.12509000000E+03 0.  0.
         25    1    4    4    0    0 -0.15333998036E+01 -0.86491191026E+02  0.53227933895E+02  0.16113285974E+03  0.12509000000E+03 0.  0.
<mgrwt>
<rscale>  2 0.45701281E+03</rscale>
<asrwt>0</asrwt>
<pdfrwt beam="1">  1       21 0.39349622E-01 0.45701281E+03</pdfrwt>
<pdfrwt beam="2">  1       21 0.28697123E-01 0.45701281E+03</pdfrwt>
<totfact> 0.66902579E+04</totfact>
</mgrwt>
</event>
<event>
 7    0  0.4759581E-002  0.4522890E+03  0.7546771E-02  0.1027042E+00
         21   -1    0    0  502  501  0.00000000000E+00  0.00000000000E+00  0.57999433128E+03  0.57999433128E+03  0.00000000000E+00 0. -1.
         21   -1    0    0  501  502 -0.00000000000E+00 -0.00000000000E+00 -0.88175582661E+02  0.88175582661E+02  0.00000000000E+00 0. -1.
      99926    2    1    2    0    0  0.00000000000E+00  0.44408920985E-15  0.49181874862E+03  0.66816991394E+03  0.45228901424E+03 0.  0.
      99925    2    3    3    0    0 -0.77666409642E+02  0.39825279156E+01  0.42636710386E+03  0.50698878100E+03  0.26306042098E+03 0.  0.
         25    1    3    3    0    0  0.77666409642E+02 -0.39825279156E+01  0.65451644755E+02  0.16118113294E+03  0.12509000000E+03 0.  0.
         25    1    4    4    0    0 -0.21049756404E+02  0.20761545456E+02  0.26442464521E+03  0.29401026361E+03  0.12509000000E+03 0.  0.
         25    1    4    4    0    0 -0.56616653238E+02 -0.16779017540E+02  0.16194245865E+03  0.21297851738E+03  0.12509000000E+03 0.  0.
<mgrwt>
<rscale>  2 0.45228901E+03</rscale>
<asrwt>0</asrwt>
<pdfrwt beam="1">  1       21 0.85293282E-01 0.45228901E+03</pdfrwt>
<pdfrwt beam="2">  1       21 0.12966998E-01 0.45228901E+03</pdfrwt>
<totfact> 0.55849448E+04</totfact>
</mgrwt>
</event>
<event>
 7    0  0.4759581E-002  0.4572754E+03  0.7546771E-02  0.1025574E+00
         21   -1    0    0  502  501  0.00000000000E+00  0.00000000000E+00  0.12480187766E+03  0.12480187766E+03  0.00000000000E+00 0.  1.
         21   -1    0    0  501  502 -0.00000000000E+00 -0.00000000000E+00 -0.41886547703E+03  0.41886547703E+03  0.00000000000E+00 0.  1.
      99926    2    1    2    0    0  0.71054273576E-14 -0.71054273576E-14 -0.29406359936E+03  0.54366735469E+03  0.45727540070E+03 0.  0.
      99925    2    3    3    0    0  0.46519976556E+02 -0.59546850388E+02 -0.81069552196E+02  0.28535764167E+03  0.26295774520E+03 0.  0.
         25    1    4    4    0    0  0.49337541546E+02 -0.21597401378E+01 -0.54785043741E+02  0.14521627526E+03  0.12509000000E+03 0.  0.
         25    1    3    3    0    0 -0.46519976556E+02  0.59546850388E+02 -0.21299404717E+03  0.25830971302E+03  0.12509000000E+03 0.  0.
         25    1    4    4    0    0 -0.28175649907E+01 -0.57387110250E+02 -0.26284508455E+02  0.14014136641E+03  0.12509000000E+03 0.  0.
<mgrwt>
<rscale>  2 0.45727540E+03</rscale>
<asrwt>0</asrwt>
<pdfrwt beam="1">  1       21 0.18353217E-01 0.45727540E+03</pdfrwt>
<pdfrwt beam="2">  1       21 0.61597865E-01 0.45727540E+03</pdfrwt>
<totfact> 0.61177910E+04</totfact>
</mgrwt>
</event>
<event>
 7    0  0.4759581E-002  0.4636483E+03  0.7546771E-02  0.1023728E+00
         21   -1    0    0  502  501  0.00000000000E+00  0.00000000000E+00  0.10108843177E+04  0.10108843177E+04  0.00000000000E+00 0.  1.
         21   -1    0    0  501  502 -0.00000000000E+00 -0.00000000000E+00 -0.53163795799E+02  0.53163795799E+02  0.00000000000E+00 0.  1.
      99926    2    1    2    0    0  0.00000000000E+00  0.14210854715E-13  0.95772052188E+03  0.10640481135E+04  0.46364834710E+03 0.  0.
      99925    2    3    3    0    0 -0.43571687367E+02  0.11279661373E+03  0.60982861987E+03  0.67507786835E+03  0.26309240718E+03 0.  0.
         25    1    3    3    0    0  0.43571687367E+02 -0.11279661373E+03  0.34789190201E+03  0.38897024512E+03  0.12509000000E+03 0.  0.
         25    1    4    4    0    0 -0.39424419544E+02  0.87701159586E+02  0.27972960796E+03  0.32115718880E+03  0.12509000000E+03 0.  0.
         25    1    4    4    0    0 -0.41472678236E+01  0.25095454149E+02  0.33009901191E+03  0.35392067955E+03  0.12509000000E+03 0.  0.
<mgrwt>
<rscale>  2 0.46364835E+03</rscale>
<asrwt>0</asrwt>
<pdfrwt beam="1">  1       21 0.14865945E+00 0.46364835E+03</pdfrwt>
<pdfrwt beam="2">  1       21 0.78182059E-02 0.46364835E+03</pdfrwt>
<totfact> 0.34385997E+04</totfact>
</mgrwt>
</event>
<event>
 7    0  0.4759581E-002  0.4237812E+03  0.7546771E-02  0.1035843E+00
         21   -1    0    0  502  501  0.00000000000E+00  0.00000000000E+00  0.16803858335E+03  0.16803858335E+03  0.00000000000E+00 0.  1.
         21   -1    0    0  501  502 -0.00000000000E+00 -0.00000000000E+00 -0.26718640820E+03  0.26718640820E+03  0.00000000000E+00 0.  1.
      99926    2    1    2    0    0  0.00000000000E+00  0.00000000000E+00 -0.99147824851E+02  0.43522499155E+03  0.42378119602E+03 0.  0.
      99925    2    3    3    0    0  0.49360923721E+01 -0.69067803612E+02 -0.24255905240E+02  0.27382166375E+03  0.26380907508E+03 0.  0.
         25    1    4    4    0    0  0.71362480810E+01 -0.72945265502E+02 -0.31791724048E+02  0.14842560296E+03  0.12509000000E+03 0.  0.
         25    1    4    4    0    0 -0.22001557089E+01  0.38774618900E+01  0.75358188075E+01  0.12539606079E+03  0.12509000000E+03 0.  0.
         25    1    3    3    0    0 -0.49360923721E+01  0.69067803612E+02 -0.74891919610E+02  0.16140332781E+03  0.12509000000E+03 0.  0.
<mgrwt>
<rscale>  2 0.42378120E+03</rscale>
<asrwt>0</asrwt>
<pdfrwt beam="1">  1       21 0.24711556E-01 0.42378120E+03</pdfrwt>
<pdfrwt beam="2">  1       21 0.39292119E-01 0.42378120E+03</pdfrwt>
<totfact> 0.90536594E+04</totfact>
</mgrwt>
</event>
<event>
 7    0  0.4759581E-002  0.4576724E+03  0.7546771E-02  0.1025458E+00
         21   -1    0    0  502  501  0.00000000000E+00  0.00000000000E+00  0.11746010933E+03  0.11746010933E+03  0.00000000000E+00 0. -1.
         21   -1    0    0  501  502 -0.00000000000E+00 -0.00000000000E+00 -0.44581940516E+03  0.44581940516E+03  0.00000000000E+00 0. -1.
      99926    2    1    2    0    0 -0.71054273576E-14 -0.35527136788E-14 -0.32835929583E+03  0.56327951450E+03  0.45767235474E+03 0.  0.
      99925    2    3    3    0    0  0.33689321307E+02  0.28175626709E+02 -0.33783314403E+03  0.43036563933E+03  0.26297245864E+03 0.  0.
         25    1    4    4    0    0  0.21270295045E+02  0.62778815164E+01 -0.23234706932E+03  0.26481032073E+03  0.12509000000E+03 0.  0.
         25    1    4    4    0    0  0.12419026262E+02  0.21897745193E+02 -0.10548607472E+03  0.16555531860E+03  0.12509000000E+03 0.  0.
         25    1    3    3    0    0 -0.33689321307E+02 -0.28175626709E+02  0.94738482010E+01  0.13291387516E+03  0.12509000000E+03 0.  0.
<mgrwt>
<rscale>  2 0.45767235E+03</rscale>
<asrwt>0</asrwt>
<pdfrwt beam="1">  1       21 0.17273545E-01 0.45767235E+03</pdfrwt>
<pdfrwt beam="2">  1       21 0.65561678E-01 0.45767235E+03</pdfrwt>
<totfact> 0.59725012E+04</totfact>
</mgrwt>
</event>
<event>
 7    0  0.4759581E-002  0.4134018E+03  0.7546771E-02  0.1039235E+00
         21   -1    0    0  502  501  0.00000000000E+00  0.00000000000E+00  0.26968043894E+03  0.26968043894E+03  0.00000000000E+00 0.  1.
         21   -1    0    0  501  502 -0.00000000000E+00 -0.00000000000E+00 -0.15842924104E+03  0.15842924104E+03  0.00000000000E+00 0.  1.
      99926    2    1    2    0    0  0.00000000000E+00  0.22204460493E-14  0.11125119790E+03  0.42810967998E+03  0.41340182518E+03 0.  0.
      99925    2    3    3    0    0  0.57817192806E+01  0.21992178205E+01  0.14234514302E+03  0.29906470193E+03  0.26294351363E+03 0.  0.
         25    1    4    4    0    0  0.27661734764E+01 -0.39323572608E+02  0.68897182743E+02  0.14814967083E+03  0.12509000000E+03 0.  0.
         25    1    3    3    0    0 -0.57817192806E+01 -0.21992178205E+01 -0.31093945125E+02  0.12904497805E+03  0.12509000000E+03 0.  0.
         25    1    4    4    0    0  0.30155458042E+01  0.41522790428E+02  0.73447960281E+02  0.15091503110E+03  0.12509000000E+03 0.  0.
<mgrwt>
<rscale>  2 0.41340183E+03</rscale>
<asrwt>0</asrwt>
<pdfrwt beam="1">  1       21 0.39658888E-01 0.41340183E+03</pdfrwt>
<pdfrwt beam="2">  1       21 0.23298418E-01 0.41340183E+03</pdfrwt>
<totfact> 0.99751288E+04</totfact>
</mgrwt>
</event>
<event>
 7    0  0.4759581E-002  0.4598589E+03  0.7546771E-02  0.1024822E+00
         21   -1    0    0  502  501  0.00000000000E+00  0.00000000000E+00  0.16927373966E+03  0.16927373966E+03  0.00000000000E+00 0.  1.
         21   -1    0    0  501  502 -0.00000000000E+00 -0.00000000000E+00 -0.31231985158E+03  0.31231985158E+03  0.00000000000E+00 0.  1.
      99926    2    1    2    0    0  0.00000000000E+00  0.33306690739E-15 -0.14304611192E+03  0.48159359124E+03  0.45985888813E+03 0.  0.
      99925    2    3    3    0    0 -0.97474758263E+01  0.53566718461E+00 -0.21237705762E+03  0.33824231515E+03  0.26307517733E+03 0.  0.
         25    1    4    4    0    0  0.28518834889E+02  0.10539303173E+02 -0.13202202816E+03  0.18439556631E+03  0.12509000000E+03 0.  0.
         25    1    4    4    0    0 -0.38266310715E+02 -0.10003635989E+02 -0.80355029466E+02  0.15384674884E+03  0.12509000000E+03 0.  0.
         25    1    3    3    0    0  0.97474758263E+01 -0.53566718461E+00  0.69330945708E+02  0.14335127609E+03  0.12509000000E+03 0.  0.
<mgrwt>
<rscale>  2 0.45985889E+03</rscale>
<asrwt>0</asrwt>
<pdfrwt beam="1">  1       21 0.24893197E-01 0.45985889E+03</pdfrwt>
<pdfrwt beam="2">  1       21 0.45929389E-01 0.45985889E+03</pdfrwt>
<totfact> 0.64077223E+04</totfact>
</mgrwt>
</event>
<event>
 7    0  0.4759581E-002  0.4552968E+03  0.7546771E-02  0.1026154E+00
         21   -1    0    0  502  501  0.00000000000E+00  0.00000000000E+00  0.43732912286E+02  0.43732912286E+02  0.00000000000E+00 0.  1.
         21   -1    0    0  501  502 -0.00000000000E+00 -0.00000000000E+00 -0.11850065323E+04  0.11850065323E+04  0.00000000000E+00 0.  1.
      99926    2    1    2    0    0  0.00000000000E+00  0.00000000000E+00 -0.11412736200E+04  0.12287394446E+04  0.45529676798E+03 0.  0.
      99925    2    3    3    0    0 -0.54578717060E+02  0.91985411743E+02 -0.81974937746E+03  0.86753936294E+03  0.26305009423E+03 0.  0.
         25    1    4    4    0    0 -0.58420987482E+01  0.74139291759E+02 -0.48720896822E+03  0.50847895877E+03  0.12509000000E+03 0.  0.
         25    1    3    3    0    0  0.54578717060E+02 -0.91985411743E+02 -0.32152424252E+03  0.36120008161E+03  0.12509000000E+03 0.  0.
         25    1    4    4    0    0 -0.48736618312E+02  0.17846119984E+02 -0.33254040924E+03  0.35906040417E+03  0.12509000000E+03 0.  0.
<mgrwt>
<rscale>  2 0.45529677E+03</rscale>
<asrwt>0</asrwt>
<pdfrwt beam="1">  1       21 0.64313108E-02 0.45529677E+03</pdfrwt>
<pdfrwt beam="2">  1       21 0.17426566E+00 0.45529677E+03</pdfrwt>
<totfact> 0.31184379E+04</totfact>
</mgrwt>
</event>
<event>
 7    0  0.4759581E-002  0.4798687E+03  0.7546771E-02  0.1019171E+00
         21   -1    0    0  502  501  0.00000000000E+00  0.00000000000E+00  0.18836393603E+03  0.18836393603E+03  0.00000000000E+00 0.  1.
         21   -1    0    0  501  502 -0.00000000000E+00 -0.00000000000E+00 -0.30562370248E+03  0.30562370248E+03  0.00000000000E+00 0.  1.
      99926    2    1    2    0    0  0.00000000000E+00  0.00000000000E+00 -0.11725976645E+03  0.49398763851E+03  0.47986866347E+03 0.  0.
      99925    2    3    3    0    0 -0.62044705811E+02 -0.44084982595E+02 -0.18731828232E+03  0.33166470435E+03  0.26290740957E+03 0.  0.
         25    1    3    3    0    0  0.62044705811E+02  0.44084982595E+02  0.70058515873E+02  0.16232293416E+03  0.12509000000E+03 0.  0.
         25    1    4    4    0    0  0.68928996116E+01 -0.30223613787E+02 -0.10498271540E+03  0.16622231357E+03  0.12509000000E+03 0.  0.
         25    1    4    4    0    0 -0.68937605422E+02 -0.13861368807E+02 -0.82335566926E+02  0.16544239078E+03  0.12509000000E+03 0.  0.
<mgrwt>
<rscale>  2 0.47986866E+03</rscale>
<asrwt>0</asrwt>
<pdfrwt beam="1">  1       21 0.27700579E-01 0.47986866E+03</pdfrwt>
<pdfrwt beam="2">  1       21 0.44944662E-01 0.47986866E+03</pdfrwt>
<totfact> 0.54182405E+04</totfact>
</mgrwt>
</event>
<event>
 7    0  0.4759581E-002  0.4523038E+03  0.7546771E-02  0.1027037E+00
         21   -1    0    0  502  501  0.00000000000E+00  0.00000000000E+00  0.48512781520E+03  0.48512781520E+03  0.00000000000E+00 0. -1.
         21   -1    0    0  501  502 -0.00000000000E+00 -0.00000000000E+00 -0.10542516262E+03  0.10542516262E+03  0.00000000000E+00 0. -1.
      99926    2    1    2    0    0  0.00000000000E+00  0.00000000000E+00  0.37970265258E+03  0.59055297783E+03  0.45230378646E+03 0.  0.
      99925    2    3    3    0    0  0.97586063928E+02 -0.13601438704E+02  0.30516802274E+03  0.41473785290E+03  0.26300556176E+03 0.  0.
         25    1    3    3    0    0 -0.97586063928E+02  0.13601438704E+02  0.74534629838E+02  0.17581512493E+03  0.12509000000E+03 0.  0.
         25    1    4    4    0    0  0.18718438620E+02 -0.35424468476E+02  0.13984968895E+03  0.19186119074E+03  0.12509000000E+03 0.  0.
         25    1    4    4    0    0  0.78867625308E+02  0.21823029773E+02  0.16531833379E+03  0.22287666216E+03  0.12509000000E+03 0.  0.
<mgrwt>
<rscale>  2 0.45230379E+03</rscale>
<asrwt>0</asrwt>
<pdfrwt beam="1">  1       21 0.71342325E-01 0.45230379E+03</pdfrwt>
<pdfrwt beam="2">  1       21 0.15503701E-01 0.45230379E+03</pdfrwt>
<totfact> 0.60543397E+04</totfact>
</mgrwt>
</event>
<event>
 7    0  0.4759581E-002  0.4483292E+03  0.7546771E-02  0.1028221E+00
         21   -1    0    0  502  501  0.00000000000E+00  0.00000000000E+00  0.14127972901E+03  0.14127972901E+03  0.00000000000E+00 0.  1.
         21   -1    0    0  501  502 -0.00000000000E+00 -0.00000000000E+00 -0.35567578581E+03  0.35567578581E+03  0.00000000000E+00 0.  1.
      99926    2    1    2    0    0  0.00000000000E+00  0.00000000000E+00 -0.21439605679E+03  0.49695551482E+03  0.44832924792E+03 0.  0.
      99925    2    3    3    0    0 -0.25389176087E+02  0.99852859267E+02 -0.16672991305E+03  0.32803312694E+03  0.26304308526E+03 0.  0.
         25    1    4    4    0    0 -0.17851816939E+02  0.32428773232E+02 -0.12265854971E+03  0.17906127616E+03  0.12509000000E+03 0.  0.
         25    1    4    4    0    0 -0.75373591481E+01  0.67424086035E+02 -0.44071363332E+02  0.14897185079E+03  0.12509000000E+03 0.  0.
         25    1    3    3    0    0  0.25389176087E+02 -0.99852859267E+02 -0.47666143749E+02  0.16892238788E+03  0.12509000000E+03 0.  0.
<mgrwt>
<rscale>  2 0.44832925E+03</rscale>
<asrwt>0</asrwt>
<pdfrwt beam="1">  1       21 0.20776431E-01 0.44832925E+03</pdfrwt>
<pdfrwt beam="2">  1       21 0.52305261E-01 0.44832925E+03</pdfrwt>
<totfact> 0.69070687E+04</totfact>
</mgrwt>
</event>
<event>
 7    0  0.4759581E-002  0.4568693E+03  0.7546771E-02  0.1025693E+00
         21   -1    0    0  502  501  0.00000000000E+00  0.00000000000E+00  0.58529952956E+03  0.58529952956E+03  0.00000000000E+00 0. -1.
         21   -1    0    0  501  502 -0.00000000000E+00 -0.00000000000E+00 -0.89155030344E+02  0.89155030344E+02  0.00000000000E+00 0. -1.
      99926    2    1    2    0    0  0.00000000000E+00  0.00000000000E+00  0.49614449921E+03  0.67445455990E+03  0.45686933501E+03 0.  0.
      99925    2    3    3    0    0 -0.40248277295E+02  0.41610231116E+02  0.45827035977E+03  0.53150948759E+03  0.26294348746E+03 0.  0.
         25    1    4    4    0    0 -0.11429663981E+01  0.59681728994E+01  0.15543058732E+03  0.19960736718E+03  0.12509000000E+03 0.  0.
         25    1    3    3    0    0  0.40248277295E+02 -0.41610231116E+02  0.37874139445E+02  0.14294507231E+03  0.12509000000E+03 0.  0.
         25    1    4    4    0    0 -0.39105310897E+02  0.35642058217E+02  0.30283977245E+03  0.33190212041E+03  0.12509000000E+03 0.  0.
<mgrwt>
<rscale>  2 0.45686934E+03</rscale>
<asrwt>0</asrwt>
<pdfrwt beam="1">  1       21 0.86073458E-01 0.45686934E+03</pdfrwt>
<pdfrwt beam="2">  1       21 0.13111034E-01 0.45686934E+03</pdfrwt>
<totfact> 0.53519410E+04</totfact>
</mgrwt>
</event>
<event>
 7    0  0.4759581E-002  0.4479509E+03  0.7546771E-02  0.1028335E+00
         21   -1    0    0  502  501  0.00000000000E+00  0.00000000000E+00  0.92001603378E+03  0.92001603378E+03  0.00000000000E+00 0.  1.
         21   -1    0    0  501  502 -0.00000000000E+00 -0.00000000000E+00 -0.54526219480E+02  0.54526219480E+02  0.00000000000E+00 0.  1.
      99926    2    1    2    0    0  0.35527136788E-14  0.00000000000E+00  0.86548981430E+03  0.97454225326E+03  0.44795087313E+03 0.  0.
      99925    2    3    3    0    0 -0.26981283087E+02  0.80345555426E+02  0.40833573181E+03  0.49306456826E+03  0.26304220325E+03 0.  0.
         25    1    4    4    0    0  0.10145164920E+01  0.32157675041E+02  0.13212229729E+03  0.18476729919E+03  0.12509000000E+03 0.  0.
         25    1    4    4    0    0 -0.27995799579E+02  0.48187880385E+02  0.27621343451E+03  0.30829726907E+03  0.12509000000E+03 0.  0.
         25    1    3    3    0    0  0.26981283087E+02 -0.80345555426E+02  0.45715408250E+03  0.48147768501E+03  0.12509000000E+03 0.  0.
<mgrwt>
<rscale>  2 0.44795087E+03</rscale>
<asrwt>0</asrwt>
<pdfrwt beam="1">  1       21 0.13529647E+00 0.44795087E+03</pdfrwt>
<pdfrwt beam="2">  1       21 0.80185623E-02 0.44795087E+03</pdfrwt>
<totfact> 0.42454289E+04</totfact>
</mgrwt>
</event>
<event>
 7    0  0.4759581E-002  0.4886140E+03  0.7546771E-02  0.1016794E+00
         21   -1    0    0  502  501  0.00000000000E+00  0.00000000000E+00  0.92269074127E+02  0.92269074127E+02  0.00000000000E+00 0. -1.
         21   -1    0    0  501  502 -0.00000000000E+00 -0.00000000000E+00 -0.64686805676E+03  0.64686805676E+03  0.00000000000E+00 0. -1.
      99926    2    1    2    0    0  0.00000000000E+00  0.00000000000E+00 -0.55459898263E+03  0.73913713088E+03  0.48861402632E+03 0.  0.
      99925    2    3    3    0    0 -0.60572034708E+02 -0.12886523970E+03 -0.33346917126E+03  0.44789646928E+03  0.26293409369E+03 0.  0.
         25    1    4    4    0    0 -0.60976155709E+02 -0.83306912048E+02 -0.21767344197E+03  0.27145417403E+03  0.12509000000E+03 0.  0.
         25    1    3    3    0    0  0.60572034708E+02  0.12886523970E+03 -0.22112981137E+03  0.29124066160E+03  0.12509000000E+03 0.  0.
         25    1    4    4    0    0  0.40412100084E+00 -0.45558327655E+02 -0.11579572929E+03  0.17644229525E+03  0.12509000000E+03 0.  0.
<mgrwt>
<rscale>  2 0.48861403E+03</rscale>
<asrwt>0</asrwt>
<pdfrwt beam="1">  1       21 0.13568981E-01 0.48861403E+03</pdfrwt>
<pdfrwt beam="2">  1       21 0.95127656E-01 0.48861403E+03</pdfrwt>
<totfact> 0.39348306E+04</totfact>
</mgrwt>
</event>
<event>
 7    0  0.4759581E-002  0.4482906E+03  0.7546771E-02  0.1028233E+00
         21   -1    0    0  502  501  0.00000000000E+00  0.00000000000E+00  0.11960393391E+03  0.11960393391E+03  0.00000000000E+00 0.  1.
         21   -1    0    0  501  502 -0.00000000000E+00 -0.00000000000E+00 -0.42006235527E+03  0.42006235527E+03  0.00000000000E+00 0.  1.
      99926    2    1    2    0    0  0.14210854715E-13  0.00000000000E+00 -0.30045842136E+03  0.53966628918E+03  0.44829057620E+03 0.  0.
      99925    2    3    3    0    0  0.68400646839E+02  0.81027106083E+02 -0.20466868606E+03  0.34975256693E+03  0.26304666242E+03 0.  0.
         25    1    3    3    0    0 -0.68400646839E+02 -0.81027106083E+02 -0.95789735307E+02  0.18991372225E+03  0.12509000000E+03 0.  0.
         25    1    4    4    0    0  0.14100639559E+02  0.61933452895E+02 -0.68597834675E+02  0.15616578257E+03  0.12509000000E+03 0.  0.
         25    1    4    4    0    0  0.54300007280E+02  0.19093653187E+02 -0.13607085138E+03  0.19358678436E+03  0.12509000000E+03 0.  0.
<mgrwt>
<rscale>  2 0.44829058E+03</rscale>
<asrwt>0</asrwt>
<pdfrwt beam="1">  1       21 0.17588814E-01 0.44829058E+03</pdfrwt>
<pdfrwt beam="2">  1       21 0.61773873E-01 0.44829058E+03</pdfrwt>
<totfact> 0.65989276E+04</totfact>
</mgrwt>
</event>
<event>
 7    0  0.4759581E-002  0.4603105E+03  0.7546771E-02  0.1024691E+00
         21   -1    0    0  502  501  0.00000000000E+00  0.00000000000E+00  0.18956499824E+03  0.18956499824E+03  0.00000000000E+00 0. -1.
         21   -1    0    0  501  502 -0.00000000000E+00 -0.00000000000E+00 -0.27943681508E+03  0.27943681508E+03  0.00000000000E+00 0. -1.
      99926    2    1    2    0    0  0.00000000000E+00  0.00000000000E+00 -0.89871816842E+02  0.46900181333E+03  0.46031050112E+03 0.  0.
      99925    2    3    3    0    0 -0.45429909709E+02  0.68185191655E+01  0.54539873742E+02  0.27250088871E+03  0.26300526158E+03 0.  0.
         25    1    4    4    0    0 -0.25511265927E+02  0.26058344821E+01 -0.13934700872E+02  0.12844959732E+03  0.12509000000E+03 0.  0.
         25    1    4    4    0    0 -0.19918643782E+02  0.42126846835E+01  0.68474574613E+02  0.14405129139E+03  0.12509000000E+03 0.  0.
         25    1    3    3    0    0  0.45429909709E+02 -0.68185191655E+01 -0.14441169058E+03  0.19650092462E+03  0.12509000000E+03 0.  0.
<mgrwt>
<rscale>  2 0.46031050E+03</rscale>
<asrwt>0</asrwt>
<pdfrwt beam="1">  1       21 0.27877206E-01 0.46031050E+03</pdfrwt>
<pdfrwt beam="2">  1       21 0.41093649E-01 0.46031050E+03</pdfrwt>
<totfact> 0.64737847E+04</totfact>
</mgrwt>
</event>
<event>
 7    0  0.4759581E-002  0.4478179E+03  0.7546771E-02  0.1028375E+00
         21   -1    0    0  502  501  0.00000000000E+00  0.00000000000E+00  0.48039722694E+02  0.48039722694E+02  0.00000000000E+00 0. -1.
         21   -1    0    0  501  502 -0.00000000000E+00 -0.00000000000E+00 -0.10436198390E+04  0.10436198390E+04  0.00000000000E+00 0. -1.
      99926    2    1    2    0    0  0.00000000000E+00  0.00000000000E+00 -0.99558011633E+03  0.10916595617E+04  0.44781785433E+03 0.  0.
      99925    2    3    3    0    0  0.88206478657E+02  0.42964341120E+02 -0.53061451464E+03  0.60026681010E+03  0.26294897353E+03 0.  0.
         25    1    3    3    0    0 -0.88206478657E+02 -0.42964341120E+02 -0.46496560169E+03  0.49139275161E+03  0.12509000000E+03 0.  0.
         25    1    4    4    0    0  0.73055464379E+02  0.43032973716E+01 -0.22753737133E+03  0.26977098194E+03  0.12509000000E+03 0.  0.
         25    1    4    4    0    0  0.15151014279E+02  0.38661043748E+02 -0.30307714331E+03  0.33049582816E+03  0.12509000000E+03 0.  0.
<mgrwt>
<rscale>  2 0.44781785E+03</rscale>
<asrwt>0</asrwt>
<pdfrwt beam="1">  1       21 0.70646653E-02 0.44781785E+03</pdfrwt>
<pdfrwt beam="2">  1       21 0.15347350E+00 0.44781785E+03</pdfrwt>
<totfact> 0.37862266E+04</totfact>
</mgrwt>
</event>
<event>
 7    0  0.4759581E-002  0.4221940E+03  0.7546771E-02  0.1036355E+00
         21   -1    0    0  502  501  0.00000000000E+00  0.00000000000E+00  0.51024692884E+02  0.51024692884E+02  0.00000000000E+00 0.  1.
         21   -1    0    0  501  502 -0.00000000000E+00 -0.00000000000E+00 -0.87334084468E+03  0.87334084468E+03  0.00000000000E+00 0.  1.
      99926    2    1    2    0    0  0.00000000000E+00 -0.44408920985E-15 -0.82231615180E+03  0.92436553757E+03  0.42219402356E+03 0.  0.
      99925    2    3    3    0    0  0.33712881985E+02 -0.38242190692E+01 -0.37938193954E+03  0.46285778297E+03  0.26297431081E+03 0.  0.
         25    1    4    4    0    0  0.55952618764E+02  0.89017692081E+01 -0.20420831343E+03  0.24608632716E+03  0.12509000000E+03 0.  0.
         25    1    3    3    0    0 -0.33712881985E+02  0.38242190692E+01 -0.44293421226E+03  0.46150775460E+03  0.12509000000E+03 0.  0.
         25    1    4    4    0    0 -0.22239736779E+02 -0.12725988277E+02 -0.17517362611E+03  0.21677145581E+03  0.12509000000E+03 0.  0.
<mgrwt>
<rscale>  2 0.42219402E+03</rscale>
<asrwt>0</asrwt>
<pdfrwt beam="1">  1       21 0.75036316E-02 0.42219402E+03</pdfrwt>
<pdfrwt beam="2">  1       21 0.12843247E+00 0.42219402E+03</pdfrwt>
<totfact> 0.55014445E+04</totfact>
</mgrwt>
</event>
<event>
 7    0  0.4759581E-002  0.4610062E+03  0.7546771E-02  0.1024490E+00
         21   -1    0    0  502  501  0.00000000000E+00  0.00000000000E+00  0.63485605492E+03  0.63485605492E+03  0.00000000000E+00 0.  1.
         21   -1    0    0  501  502 -0.00000000000E+00 -0.00000000000E+00 -0.83690922321E+02  0.83690922321E+02  0.00000000000E+00 0.  1.
      99926    2    1    2    0    0  0.00000000000E+00  0.00000000000E+00  0.55116513260E+03  0.71854697724E+03  0.46100624194E+03 0.  0.
      99925    2    3    3    0    0  0.96799153566E+02 -0.51754128157E+02  0.41540456828E+03  0.50377499388E+03  0.26302038552E+03 0.  0.
         25    1    4    4    0    0  0.64505977821E+02 -0.67510799743E+01  0.26723696965E+03  0.30210876238E+03  0.12509000000E+03 0.  0.
         25    1    4    4    0    0  0.32293175745E+02 -0.45003048183E+02  0.14816759862E+03  0.20166623150E+03  0.12509000000E+03 0.  0.
         25    1    3    3    0    0 -0.96799153566E+02  0.51754128157E+02  0.13576056432E+03  0.21477198336E+03  0.12509000000E+03 0.  0.
<mgrwt>
<rscale>  2 0.46100624E+03</rscale>
<asrwt>0</asrwt>
<pdfrwt beam="1">  1       21 0.93361182E-01 0.46100624E+03</pdfrwt>
<pdfrwt beam="2">  1       21 0.12307489E-01 0.46100624E+03</pdfrwt>
<totfact> 0.49525894E+04</totfact>
</mgrwt>
</event>
<event>
 7    0  0.4759581E-002  0.4568101E+03  0.7546771E-02  0.1025710E+00
         21   -1    0    0  502  501  0.00000000000E+00  0.00000000000E+00  0.85575530709E+02  0.85575530709E+02  0.00000000000E+00 0. -1.
         21   -1    0    0  501  502 -0.00000000000E+00 -0.00000000000E+00 -0.60962374979E+03  0.60962374979E+03  0.00000000000E+00 0. -1.
      99926    2    1    2    0    0  0.00000000000E+00  0.17763568394E-14 -0.52404821909E+03  0.69519928050E+03  0.45681013965E+03 0.  0.
      99925    2    3    3    0    0  0.42596746278E+02  0.40782156275E+01 -0.49164231461E+03  0.55907887285E+03  0.26272781716E+03 0.  0.
         25    1    4    4    0    0  0.17968712964E+01  0.34767853961E+02 -0.26790908462E+03  0.29771600248E+03  0.12509000000E+03 0.  0.
         25    1    4    4    0    0  0.40799874982E+02 -0.30689638333E+02 -0.22373322999E+03  0.26136287036E+03  0.12509000000E+03 0.  0.
         25    1    3    3    0    0 -0.42596746278E+02 -0.40782156275E+01 -0.32405904476E+02  0.13612040766E+03  0.12509000000E+03 0.  0.
<mgrwt>
<rscale>  2 0.45681014E+03</rscale>
<asrwt>0</asrwt>
<pdfrwt beam="1">  1       21 0.12584637E-01 0.45681014E+03</pdfrwt>
<pdfrwt beam="2">  1       21 0.89650548E-01 0.45681014E+03</pdfrwt>
<totfact> 0.52413652E+04</totfact>
</mgrwt>
</event>
<event>
 7    0  0.4759581E-002  0.4508907E+03  0.7546771E-02  0.1027457E+00
         21   -1    0    0  502  501  0.00000000000E+00  0.00000000000E+00  0.71012136393E+02  0.71012136393E+02  0.00000000000E+00 0. -1.
         21   -1    0    0  501  502 -0.00000000000E+00 -0.00000000000E+00 -0.71573119280E+03  0.71573119280E+03  0.00000000000E+00 0. -1.
      99926    2    1    2    0    0  0.00000000000E+00  0.00000000000E+00 -0.64471905640E+03  0.78674332919E+03  0.45089067892E+03 0.  0.
      99925    2    3    3    0    0  0.95279973360E+02  0.35741138114E+02 -0.34047712173E+03  0.44240865886E+03  0.26352428491E+03 0.  0.
         25    1    4    4    0    0  0.30322245409E+02  0.45183636401E+02 -0.12671920203E+03  0.18618878545E+03  0.12509000000E+03 0.  0.
         25    1    3    3    0    0 -0.95279973360E+02 -0.35741138114E+02 -0.30424193468E+03  0.34433467033E+03  0.12509000000E+03 0.  0.
         25    1    4    4    0    0  0.64957727952E+02 -0.94424982871E+01 -0.21375791970E+03  0.25621987341E+03  0.12509000000E+03 0.  0.
<mgrwt>
<rscale>  2 0.45089068E+03</rscale>
<asrwt>0</asrwt>
<pdfrwt beam="1">  1       21 0.10442961E-01 0.45089068E+03</pdfrwt>
<pdfrwt beam="2">  1       21 0.10525459E+00 0.45089068E+03</pdfrwt>
<totfact> 0.50006174E+04</totfact>
</mgrwt>
</event>
<event>
 7    0  0.4759581E-002  0.4289297E+03  0.7546771E-02  0.1034199E+00
         21   -1    0    0  502  501  0.00000000000E+00  0.00000000000E+00  0.16129089013E+03  0.16129089013E+03  0.00000000000E+00 0. -1.
         21   -1    0    0  501  502 -0.00000000000E+00 -0.00000000000E+00 -0.28516909522E+03  0.28516909522E+03  0.00000000000E+00 0. -1.
      99926    2    1    2    0    0 -0.71054273576E-14  0.00000000000E+00 -0.12387820509E+03  0.44645998535E+03  0.42892972481E+03 0.  0.
      99925    2    3    3    0    0  0.40527271576E+02  0.57410301474E+02 -0.27336128147E+02  0.27352565337E+03  0.26292701781E+03 0.  0.
         25    1    4    4    0    0 -0.16376373656E+02  0.13434937346E+02 -0.11289298850E+01  0.12687578862E+03  0.12509000000E+03 0.  0.
         25    1    3    3    0    0 -0.40527271576E+02 -0.57410301474E+02 -0.96542076942E+02  0.17293433198E+03  0.12509000000E+03 0.  0.
         25    1    4    4    0    0  0.56903645232E+02  0.43975364129E+02 -0.26207198262E+02  0.14664986475E+03  0.12509000000E+03 0.  0.
<mgrwt>
<rscale>  2 0.42892972E+03</rscale>
<asrwt>0</asrwt>
<pdfrwt beam="1">  1       21 0.23719249E-01 0.42892972E+03</pdfrwt>
<pdfrwt beam="2">  1       21 0.41936631E-01 0.42892972E+03</pdfrwt>
<totfact> 0.85608022E+04</totfact>
</mgrwt>
</event>
<event>
 7    0  0.4759581E-002  0.4574479E+03  0.7546771E-02  0.1025524E+00
         21   -1    0    0  502  501  0.00000000000E+00  0.00000000000E+00  0.23120263507E+03  0.23120263507E+03  0.00000000000E+00 0. -1.
         21   -1    0    0  501  502 -0.00000000000E+00 -0.00000000000E+00 -0.22627179784E+03  0.22627179784E+03  0.00000000000E+00 0. -1.
      99926    2    1    2    0    0  0.00000000000E+00  0.00000000000E+00  0.49308372296E+01  0.45747443292E+03  0.45744785890E+03 0.  0.
      99925    2    3    3    0    0 -0.22110558450E+02  0.41571698722E+02  0.10855925084E+03  0.28834891995E+03  0.26295038651E+03 0.  0.
         25    1    4    4    0    0  0.26619594327E+02  0.34881904912E+02  0.48959844672E+02  0.14131498357E+03  0.12509000000E+03 0.  0.
         25    1    3    3    0    0  0.22110558450E+02 -0.41571698722E+02 -0.10362841361E+03  0.16912551297E+03  0.12509000000E+03 0.  0.
         25    1    4    4    0    0 -0.48730152777E+02  0.66897938094E+01  0.59599406164E+02  0.14703393638E+03  0.12509000000E+03 0.  0.
<mgrwt>
<rscale>  2 0.45744786E+03</rscale>
<asrwt>0</asrwt>
<pdfrwt beam="1">  1       21 0.34000388E-01 0.45744786E+03</pdfrwt>
<pdfrwt beam="2">  1       21 0.33275264E-01 0.45744786E+03</pdfrwt>
<totfact> 0.67045800E+04</totfact>
</mgrwt>
</event>
<event>
 7    0  0.4759581E-002  0.4334519E+03  0.7546771E-02  0.1032775E+00
         21   -1    0    0  502  501  0.00000000000E+00  0.00000000000E+00  0.19502060492E+03  0.19502060492E+03  0.00000000000E+00 0. -1.
         21   -1    0    0  501  502 -0.00000000000E+00 -0.00000000000E+00 -0.24084700812E+03  0.24084700812E+03  0.00000000000E+00 0. -1.
      99926    2    1    2    0    0 -0.71054273576E-14  0.00000000000E+00 -0.45826403199E+02  0.43586761303E+03  0.43345186222E+03 0.  0.
      99925    2    3    3    0    0 -0.43555612299E+02 -0.44475892639E+01  0.51388828482E+02  0.27150465558E+03  0.26297736384E+03 0.  0.
         25    1    3    3    0    0  0.43555612299E+02  0.44475892639E+01 -0.97215231681E+02  0.16436295746E+03  0.12509000000E+03 0.  0.
         25    1    4    4    0    0 -0.54174592892E+02  0.17104242669E+02  0.10765801739E+02  0.13780730104E+03  0.12509000000E+03 0.  0.
         25    1    4    4    0    0  0.10618980594E+02 -0.21551831933E+02  0.40623026744E+02  0.13369735454E+03  0.12509000000E+03 0.  0.
<mgrwt>
<rscale>  2 0.43345186E+03</rscale>
<asrwt>0</asrwt>
<pdfrwt beam="1">  1       21 0.28679501E-01 0.43345186E+03</pdfrwt>
<pdfrwt beam="2">  1       21 0.35418678E-01 0.43345186E+03</pdfrwt>
<totfact> 0.83415359E+04</totfact>
</mgrwt>
</event>
<event>
 7    0  0.4759581E-002  0.4499239E+03  0.7546771E-02  0.1027745E+00
         21   -1    0    0  502  501  0.00000000000E+00  0.00000000000E+00  0.20755140098E+03  0.20755140098E+03  0.00000000000E+00 0.  1.
         21   -1    0    0  501  502 -0.00000000000E+00 -0.00000000000E+00 -0.24383303469E+03  0.24383303469E+03  0.00000000000E+00 0.  1.
      99926    2    1    2    0    0  0.00000000000E+00  0.00000000000E+00 -0.36281633703E+02  0.45138443567E+03  0.44992394004E+03 0.  0.
      99925    2    3    3    0    0  0.33644729570E+02  0.73765430740E+02  0.49269762875E+02  0.27951280870E+03  0.26291936805E+03 0.  0.
         25    1    4    4    0    0  0.15407739905E+02  0.78537446453E+02  0.30903078012E+02  0.15168400468E+03  0.12509000000E+03 0.  0.
         25    1    4    4    0    0  0.18236989665E+02 -0.47720157128E+01  0.18366684863E+02  0.12782880403E+03  0.12509000000E+03 0.  0.
         25    1    3    3    0    0 -0.33644729570E+02 -0.73765430740E+02 -0.85551396578E+02  0.17187162697E+03  0.12509000000E+03 0.  0.
<mgrwt>
<rscale>  2 0.44992394E+03</rscale>
<asrwt>0</asrwt>
<pdfrwt beam="1">  1       21 0.30522265E-01 0.44992394E+03</pdfrwt>
<pdfrwt beam="2">  1       21 0.35857799E-01 0.44992394E+03</pdfrwt>
<totfact> 0.71670505E+04</totfact>
</mgrwt>
</event>
<event>
 7    0  0.4759581E-002  0.4547410E+03  0.7546771E-02  0.1026318E+00
         21   -1    0    0  502  501  0.00000000000E+00  0.00000000000E+00  0.31185415212E+02  0.31185415212E+02  0.00000000000E+00 0. -1.
         21   -1    0    0  501  502 -0.00000000000E+00 -0.00000000000E+00 -0.16577408450E+04  0.16577408450E+04  0.00000000000E+00 0. -1.
      99926    2    1    2    0    0  0.00000000000E+00  0.00000000000E+00 -0.16265554298E+04  0.16889262602E+04  0.45474096612E+03 0.  0.
      99925    2    3    3    0    0 -0.60540429123E+02  0.94424427862E+02 -0.97268087547E+03  0.10138110426E+04  0.26291372826E+03 0.  0.
         25    1    4    4    0    0 -0.21002556150E+02  0.72774894100E+01 -0.48267102797E+03  0.49911211021E+03  0.12509000000E+03 0.  0.
         25    1    3    3    0    0  0.60540429123E+02 -0.94424427862E+02 -0.65387455433E+03  0.67511521761E+03  0.12509000000E+03 0.  0.
         25    1    4    4    0    0 -0.39537872973E+02  0.87146938452E+02 -0.49000984750E+03  0.51469893242E+03  0.12509000000E+03 0.  0.
<mgrwt>
<rscale>  2 0.45474097E+03</rscale>
<asrwt>0</asrwt>
<pdfrwt beam="1">  1       21 0.45860897E-02 0.45474097E+03</pdfrwt>
<pdfrwt beam="2">  1       21 0.24378546E+00 0.45474097E+03</pdfrwt>
<totfact> 0.19532207E+04</totfact>
</mgrwt>
</event>
<event>
 7    0  0.4759581E-002  0.4569748E+03  0.7546771E-02  0.1025662E+00
         21   -1    0    0  502  501  0.00000000000E+00  0.00000000000E+00  0.15722864643E+03  0.15722864643E+03  0.00000000000E+00 0. -1.
         21   -1    0    0  501  502 -0.00000000000E+00 -0.00000000000E+00 -0.33204183419E+03  0.33204183419E+03  0.00000000000E+00 0. -1.
      99926    2    1    2    0    0  0.00000000000E+00 -0.14210854715E-13 -0.17481318776E+03  0.48927048063E+03  0.45697478333E+03 0.  0.
      99925    2    3    3    0    0 -0.78223629425E+02  0.82390161988E+02 -0.12849414285E+03  0.31405622032E+03  0.26308456774E+03 0.  0.
         25    1    3    3    0    0  0.78223629425E+02 -0.82390161988E+02 -0.46319044910E+02  0.17521426030E+03  0.12509000000E+03 0.  0.
         25    1    4    4    0    0 -0.37809234558E+02  0.63846050399E+02 -0.29377243977E+02  0.14837919980E+03  0.12509000000E+03 0.  0.
         25    1    4    4    0    0 -0.40414394867E+02  0.18544111589E+02 -0.99116898871E+02  0.16567702052E+03  0.12509000000E+03 0.  0.
<mgrwt>
<rscale>  2 0.45697478E+03</rscale>
<asrwt>0</asrwt>
<pdfrwt beam="1">  1       21 0.23121860E-01 0.45697478E+03</pdfrwt>
<pdfrwt beam="2">  1       21 0.48829682E-01 0.45697478E+03</pdfrwt>
<totfact> 0.65006121E+04</totfact>
</mgrwt>
</event>
<event>
 7    0  0.4759581E-002  0.5055078E+03  0.7546771E-02  0.1012351E+00
         21   -1    0    0  502  501  0.00000000000E+00  0.00000000000E+00  0.13086639872E+03  0.13086639872E+03  0.00000000000E+00 0.  1.
         21   -1    0    0  501  502 -0.00000000000E+00 -0.00000000000E+00 -0.48816599624E+03  0.48816599624E+03  0.00000000000E+00 0.  1.
      99926    2    1    2    0    0  0.35527136788E-14  0.00000000000E+00 -0.35729959752E+03  0.61903239497E+03  0.50550776812E+03 0.  0.
      99925    2    3    3    0    0 -0.19383284953E+02 -0.13842620529E+03 -0.13176215801E+03  0.32568589206E+03  0.26300666903E+03 0.  0.
         25    1    4    4    0    0 -0.35534661917E+02 -0.42131191751E+02 -0.40216250781E+02  0.14248720800E+03  0.12509000000E+03 0.  0.
         25    1    3    3    0    0  0.19383284953E+02  0.13842620529E+03 -0.22553743951E+03  0.29334650291E+03  0.12509000000E+03 0.  0.
         25    1    4    4    0    0  0.16151376965E+02 -0.96295013544E+02 -0.91545907228E+02  0.18319868406E+03  0.12509000000E+03 0.  0.
<mgrwt>
<rscale>  2 0.50550777E+03</rscale>
<asrwt>0</asrwt>
<pdfrwt beam="1">  1       21 0.19245059E-01 0.50550777E+03</pdfrwt>
<pdfrwt beam="2">  1       21 0.71789117E-01 0.50550777E+03</pdfrwt>
<totfact> 0.39322340E+04</totfact>
</mgrwt>
</event>
<event>
 7    0  0.4759581E-002  0.4469880E+03  0.7546771E-02  0.1028624E+00
         21   -1    0    0  502  501  0.00000000000E+00  0.00000000000E+00  0.34677171865E+02  0.34677171865E+02  0.00000000000E+00 0. -1.
         21   -1    0    0  501  502 -0.00000000000E+00 -0.00000000000E+00 -0.14404161770E+04  0.14404161770E+04  0.00000000000E+00 0. -1.
      99926    2    1    2    0    0 -0.71054273576E-14  0.00000000000E+00 -0.14057390051E+04  0.14750933489E+04  0.44698796104E+03 0.  0.
      99925    2    3    3    0    0 -0.59357461921E+02 -0.86139401665E+02 -0.87573050910E+03  0.92056668696E+03  0.26381015096E+03 0.  0.
         25    1    4    4    0    0 -0.60638117160E+02 -0.17542944488E+02 -0.39515309556E+03  0.41925912415E+03  0.12509000000E+03 0.  0.
         25    1    3    3    0    0  0.59357461921E+02  0.86139401665E+02 -0.53000849604E+03  0.55452666192E+03  0.12509000000E+03 0.  0.
         25    1    4    4    0    0  0.12806552387E+01 -0.68596457177E+02 -0.48057741354E+03  0.50130756280E+03  0.12509000000E+03 0.  0.
<mgrwt>
<rscale>  2 0.44698796E+03</rscale>
<asrwt>0</asrwt>
<pdfrwt beam="1">  1       21 0.50995847E-02 0.44698796E+03</pdfrwt>
<pdfrwt beam="2">  1       21 0.21182588E+00 0.44698796E+03</pdfrwt>
<totfact> 0.25975657E+04</totfact>
</mgrwt>
</event>
<event>
 7    0  0.4759581E-002  0.4531691E+03  0.7546771E-02  0.1026781E+00
         21   -1    0    0  502  501  0.00000000000E+00  0.00000000000E+00  0.87031696516E+02  0.87031696516E+02  0.00000000000E+00 0.  1.
         21   -1    0    0  501  502 -0.00000000000E+00 -0.00000000000E+00 -0.58990648820E+03  0.58990648820E+03  0.00000000000E+00 0.  1.
      99926    2    1    2    0    0  0.71054273576E-14  0.35527136788E-14 -0.50287479168E+03  0.67693818472E+03  0.45316911834E+03 0.  0.
      99925    2    3    3    0    0  0.37280989324E+02  0.16528664929E+02 -0.16257066124E+03  0.31208550454E+03  0.26325856742E+03 0.  0.
         25    1    3    3    0    0 -0.37280989324E+02 -0.16528664929E+02 -0.34030413045E+03  0.36485268017E+03  0.12509000000E+03 0.  0.
         25    1    4    4    0    0 -0.10268085152E+02  0.17584417775E+02 -0.11163940197E+03  0.16889496586E+03  0.12509000000E+03 0.  0.
         25    1    4    4    0    0  0.47549074476E+02 -0.10557528465E+01 -0.50931259265E+02  0.14319053868E+03  0.12509000000E+03 0.  0.
<mgrwt>
<rscale>  2 0.45316912E+03</rscale>
<asrwt>0</asrwt>
<pdfrwt beam="1">  1       21 0.12798779E-01 0.45316912E+03</pdfrwt>
<pdfrwt beam="2">  1       21 0.86750954E-01 0.45316912E+03</pdfrwt>
<totfact> 0.54961772E+04</totfact>
</mgrwt>
</event>
<event>
 7    0  0.4759581E-002  0.4531347E+03  0.7546771E-02  0.1026791E+00
         21   -1    0    0  502  501  0.00000000000E+00  0.00000000000E+00  0.26799024799E+03  0.26799024799E+03  0.00000000000E+00 0.  1.
         21   -1    0    0  501  502 -0.00000000000E+00 -0.00000000000E+00 -0.19154709836E+03  0.19154709836E+03  0.00000000000E+00 0.  1.
      99926    2    1    2    0    0  0.00000000000E+00  0.71054273576E-14  0.76443149635E+02  0.45953734635E+03  0.45313465721E+03 0.  0.
      99925    2    3    3    0    0  0.10027968301E+03 -0.35065930120E+02  0.14330154544E+02  0.28406322706E+03  0.26306069520E+03 0.  0.
         25    1    3    3    0    0 -0.10027968301E+03  0.35065930120E+02  0.62112995091E+02  0.17547411929E+03  0.12509000000E+03 0.  0.
         25    1    4    4    0    0  0.54940230539E+02 -0.36462602923E+02 -0.28560520424E+02  0.14426074231E+03  0.12509000000E+03 0.  0.
         25    1    4    4    0    0  0.45339452471E+02  0.13966728030E+01  0.42890674968E+02  0.13980248476E+03  0.12509000000E+03 0.  0.
<mgrwt>
<rscale>  2 0.45313466E+03</rscale>
<asrwt>0</asrwt>
<pdfrwt beam="1">  1       21 0.39410331E-01 0.45313466E+03</pdfrwt>
<pdfrwt beam="2">  1       21 0.28168691E-01 0.45313466E+03</pdfrwt>
<totfact> 0.69238406E+04</totfact>
</mgrwt>
</event>
<event>
 7    0  0.4759581E-002  0.4569850E+03  0.7546771E-02  0.1025659E+00
         21   -1    0    0  502  501  0.00000000000E+00  0.00000000000E+00  0.15527874593E+04  0.15527874593E+04  0.00000000000E+00 0. -1.
         21   -1    0    0  501  502 -0.00000000000E+00 -0.00000000000E+00 -0.33622641445E+02  0.33622641445E+02  0.00000000000E+00 0. -1.
      99926    2    1    2    0    0  0.00000000000E+00  0.88817841970E-15  0.15191648179E+04  0.15864101007E+04  0.45698497124E+03 0.  0.
      99925    2    3    3    0    0  0.11480907569E+03  0.71388509701E+01  0.97108492470E+03  0.10125885567E+04  0.26286416089E+03 0.  0.
         25    1    4    4    0    0  0.74942223418E+02  0.34375682119E+02  0.58513951859E+03  0.60401472556E+03  0.12509000000E+03 0.  0.
         25    1    4    4    0    0  0.39866852272E+02 -0.27236831149E+02  0.38594540611E+03  0.40857383112E+03  0.12509000000E+03 0.  0.
         25    1    3    3    0    0 -0.11480907569E+03 -0.71388509701E+01  0.54807989315E+03  0.57382154406E+03  0.12509000000E+03 0.  0.
<mgrwt>
<rscale>  2 0.45698497E+03</rscale>
<asrwt>0</asrwt>
<pdfrwt beam="1">  1       21 0.22835105E+00 0.45698497E+03</pdfrwt>
<pdfrwt beam="2">  1       21 0.49445071E-02 0.45698497E+03</pdfrwt>
<totfact> 0.21406612E+04</totfact>
</mgrwt>
</event>
<event>
 7    0  0.4759581E-002  0.4521556E+03  0.7546771E-02  0.1027081E+00
         21   -1    0    0  502  501  0.00000000000E+00  0.00000000000E+00  0.28729182562E+03  0.28729182562E+03  0.00000000000E+00 0. -1.
         21   -1    0    0  501  502 -0.00000000000E+00 -0.00000000000E+00 -0.17790679287E+03  0.17790679287E+03  0.00000000000E+00 0. -1.
      99926    2    1    2    0    0  0.71054273576E-14  0.00000000000E+00  0.10938503275E+03  0.46519861849E+03  0.45215558081E+03 0.  0.
      99925    2    3    3    0    0 -0.46016509952E+02  0.21411576942E+02  0.16987217756E+03  0.31727236118E+03  0.26311446111E+03 0.  0.
         25    1    4    4    0    0 -0.87871352741E+01  0.23786030819E+02  0.41551157894E+02  0.13422740343E+03  0.12509000000E+03 0.  0.
         25    1    4    4    0    0 -0.37229374678E+02 -0.23744538768E+01  0.12832101967E+03  0.18304495775E+03  0.12509000000E+03 0.  0.
         25    1    3    3    0    0  0.46016509952E+02 -0.21411576942E+02 -0.60487144811E+02  0.14792625731E+03  0.12509000000E+03 0.  0.
<mgrwt>
<rscale>  2 0.45215558E+03</rscale>
<asrwt>0</asrwt>
<pdfrwt beam="1">  1       21 0.42248798E-01 0.45215558E+03</pdfrwt>
<pdfrwt beam="2">  1       21 0.26162763E-01 0.45215558E+03</pdfrwt>
<totfact> 0.69346124E+04</totfact>
</mgrwt>
</event>
<event>
 7    0  0.4759581E-002  0.4507178E+03  0.7546771E-02  0.1027508E+00
         21   -1    0    0  502  501  0.00000000000E+00  0.00000000000E+00  0.22043332606E+02  0.22043332606E+02  0.00000000000E+00 0. -1.
         21   -1    0    0  501  502 -0.00000000000E+00 -0.00000000000E+00 -0.23039451489E+04  0.23039451489E+04  0.00000000000E+00 0. -1.
      99926    2    1    2    0    0  0.71054273576E-14 -0.88817841970E-15 -0.22819018163E+04  0.23259884815E+04  0.45071777965E+03 0.  0.
      99925    2    3    3    0    0 -0.54594357748E+02  0.23121756599E+01 -0.95408787226E+03  0.99117640929E+03  0.26298501153E+03 0.  0.
         25    1    4    4    0    0 -0.37666732645E+02  0.30932445570E+02 -0.57982461359E+03  0.59516358219E+03  0.12509000000E+03 0.  0.
         25    1    3    3    0    0  0.54594357748E+02 -0.23121756599E+01 -0.13278139440E+04  0.13348120722E+04  0.12509000000E+03 0.  0.
         25    1    4    4    0    0 -0.16927625103E+02 -0.28620269910E+02 -0.37426325866E+03  0.39601282710E+03  0.12509000000E+03 0.  0.
<mgrwt>
<rscale>  2 0.45071778E+03</rscale>
<asrwt>0</asrwt>
<pdfrwt beam="1">  1       21 0.32416669E-02 0.45071778E+03</pdfrwt>
<pdfrwt beam="2">  1       21 0.33881543E+00 0.45071778E+03</pdfrwt>
<totfact> 0.93889478E+03</totfact>
</mgrwt>
</event>
<event>
 7    0  0.4759581E-002  0.4530525E+03  0.7546771E-02  0.1026816E+00
         21   -1    0    0  502  501  0.00000000000E+00  0.00000000000E+00  0.54108121568E+03  0.54108121568E+03  0.00000000000E+00 0.  1.
         21   -1    0    0  501  502 -0.00000000000E+00 -0.00000000000E+00 -0.94836313404E+02  0.94836313404E+02  0.00000000000E+00 0.  1.
      99926    2    1    2    0    0  0.35527136788E-14  0.71054273576E-14  0.44624490228E+03  0.63591752909E+03  0.45305252564E+03 0.  0.
      99925    2    3    3    0    0 -0.28591945890E+02 -0.60999547009E+02  0.15898679876E+03  0.31544417568E+03  0.26398822263E+03 0.  0.
         25    1    3    3    0    0  0.28591945890E+02  0.60999547009E+02  0.28725810352E+03  0.32047335340E+03  0.12509000000E+03 0.  0.
         25    1    4    4    0    0 -0.27559145529E+02 -0.65403915170E+02  0.59885915763E+02  0.15579155827E+03  0.12509000000E+03 0.  0.
         25    1    4    4    0    0 -0.10328003602E+01  0.44043681608E+01  0.99100882996E+02  0.15965261741E+03  0.12509000000E+03 0.  0.
<mgrwt>
<rscale>  2 0.45305253E+03</rscale>
<asrwt>0</asrwt>
<pdfrwt beam="1">  1       21 0.79570766E-01 0.45305253E+03</pdfrwt>
<pdfrwt beam="2">  1       21 0.13946517E-01 0.45305253E+03</pdfrwt>
<totfact> 0.57397304E+04</totfact>
</mgrwt>
</event>
<event>
 7    0  0.4759581E-002  0.5022061E+03  0.7546771E-02  0.1013205E+00
         21   -1    0    0  502  501  0.00000000000E+00  0.00000000000E+00  0.11300716198E+03  0.11300716198E+03  0.00000000000E+00 0. -1.
         21   -1    0    0  501  502 -0.00000000000E+00 -0.00000000000E+00 -0.55795352306E+03  0.55795352306E+03  0.00000000000E+00 0. -1.
      99926    2    1    2    0    0  0.14210854715E-13  0.00000000000E+00 -0.44494636108E+03  0.67096068504E+03  0.50220610972E+03 0.  0.
      99925    2    3    3    0    0 -0.10571069107E+03  0.58518297603E+02 -0.39560874550E+03  0.49018223010E+03  0.26300798054E+03 0.  0.
         25    1    4    4    0    0 -0.28232438376E+02  0.13615677515E+02 -0.12919452061E+03  0.18254092557E+03  0.12509000000E+03 0.  0.
         25    1    4    4    0    0 -0.77478252695E+02  0.44902620088E+02 -0.26641422488E+03  0.30764130453E+03  0.12509000000E+03 0.  0.
         25    1    3    3    0    0  0.10571069107E+03 -0.58518297603E+02 -0.49337615580E+02  0.18077845494E+03  0.12509000000E+03 0.  0.
<mgrwt>
<rscale>  2 0.50220611E+03</rscale>
<asrwt>0</asrwt>
<pdfrwt beam="1">  1       21 0.16618700E-01 0.50220611E+03</pdfrwt>
<pdfrwt beam="2">  1       21 0.82051989E-01 0.50220611E+03</pdfrwt>
<totfact> 0.38182581E+04</totfact>
</mgrwt>
</event>
<event>
 7    0  0.4759581E-002  0.4507149E+03  0.7546771E-02  0.1027509E+00
         21   -1    0    0  502  501  0.00000000000E+00  0.00000000000E+00  0.68770578281E+02  0.68770578281E+02  0.00000000000E+00 0. -1.
         21   -1    0    0  501  502 -0.00000000000E+00 -0.00000000000E+00 -0.73848398736E+03  0.73848398736E+03  0.00000000000E+00 0. -1.
      99926    2    1    2    0    0  0.00000000000E+00  0.00000000000E+00 -0.66971340908E+03  0.80725456564E+03  0.45071485825E+03 0.  0.
      99925    2    3    3    0    0 -0.48518560302E+02 -0.93267935924E+02 -0.37102347028E+03  0.46678996219E+03  0.26302375318E+03 0.  0.
         25    1    4    4    0    0  0.82527432433E+01 -0.48860727017E+02 -0.21985405233E+03  0.25775723238E+03  0.12509000000E+03 0.  0.
         25    1    3    3    0    0  0.48518560302E+02  0.93267935924E+02 -0.29868993879E+03  0.34046460345E+03  0.12509000000E+03 0.  0.
         25    1    4    4    0    0 -0.56771303545E+02 -0.44407208907E+02 -0.15116941795E+03  0.20903272981E+03  0.12509000000E+03 0.  0.
<mgrwt>
<rscale>  2 0.45071486E+03</rscale>
<asrwt>0</asrwt>
<pdfrwt beam="1">  1       21 0.10113321E-01 0.45071486E+03</pdfrwt>
<pdfrwt beam="2">  1       21 0.10860057E+00 0.45071486E+03</pdfrwt>
<totfact> 0.49044465E+04</totfact>
</mgrwt>
</event>
<event>
 7    0  0.4759581E-002  0.4574729E+03  0.7546771E-02  0.1025517E+00
         21   -1    0    0  502  501  0.00000000000E+00  0.00000000000E+00  0.14889269236E+03  0.14889269236E+03  0.00000000000E+00 0.  1.
         21   -1    0    0  501  502 -0.00000000000E+00 -0.00000000000E+00 -0.35139641985E+03  0.35139641985E+03  0.00000000000E+00 0.  1.
      99926    2    1    2    0    0  0.00000000000E+00  0.00000000000E+00 -0.20250372749E+03  0.50028911222E+03  0.45747288024E+03 0.  0.
      99925    2    3    3    0    0  0.71910266979E+02  0.77875837819E+02 -0.17720988125E+03  0.33438848120E+03  0.26301441355E+03 0.  0.
         25    1    3    3    0    0 -0.71910266979E+02 -0.77875837819E+02 -0.25293846243E+02  0.16590063101E+03  0.12509000000E+03 0.  0.
         25    1    4    4    0    0 -0.40479226330E+01  0.48881689945E+02 -0.85826928365E+02  0.15943517498E+03  0.12509000000E+03 0.  0.
         25    1    4    4    0    0  0.75958189612E+02  0.28994147873E+02 -0.91382952882E+02  0.17495330622E+03  0.12509000000E+03 0.  0.
<mgrwt>
<rscale>  2 0.45747288E+03</rscale>
<asrwt>0</asrwt>
<pdfrwt beam="1">  1       21 0.21895985E-01 0.45747288E+03</pdfrwt>
<pdfrwt beam="2">  1       21 0.51675943E-01 0.45747288E+03</pdfrwt>
<totfact> 0.63985062E+04</totfact>
</mgrwt>
</event>
<event>
 7    0  0.4759581E-002  0.4511505E+03  0.7546771E-02  0.1027380E+00
         21   -1    0    0  502  501  0.00000000000E+00  0.00000000000E+00  0.29533495261E+03  0.29533495261E+03  0.00000000000E+00 0.  1.
         21   -1    0    0  501  502 -0.00000000000E+00 -0.00000000000E+00 -0.17229316703E+03  0.17229316703E+03  0.00000000000E+00 0.  1.
      99926    2    1    2    0    0  0.00000000000E+00 -0.17763568394E-14  0.12304178558E+03  0.46762811965E+03  0.45115050403E+03 0.  0.
      99925    2    3    3    0    0  0.59939274999E+02  0.14012422743E+02 -0.16241294018E+02  0.27055871806E+03  0.26296230834E+03 0.  0.
         25    1    3    3    0    0 -0.59939274999E+02 -0.14012422743E+02  0.13928307960E+03  0.19706940159E+03  0.12509000000E+03 0.  0.
         25    1    4    4    0    0  0.17310529059E+02 -0.31128886294E+02 -0.87944078692E+00  0.13006515096E+03  0.12509000000E+03 0.  0.
         25    1    4    4    0    0  0.42628745941E+02  0.45141309037E+02 -0.15361853232E+02  0.14049356710E+03  0.12509000000E+03 0.  0.
<mgrwt>
<rscale>  2 0.45115050E+03</rscale>
<asrwt>0</asrwt>
<pdfrwt beam="1">  1       21 0.43431611E-01 0.45115050E+03</pdfrwt>
<pdfrwt beam="2">  1       21 0.25337230E-01 0.45115050E+03</pdfrwt>
<totfact> 0.69717406E+04</totfact>
</mgrwt>
</event>
<event>
 7    0  0.4759581E-002  0.4299402E+03  0.7546771E-02  0.1033879E+00
         21   -1    0    0  502  501  0.00000000000E+00  0.00000000000E+00  0.16752542032E+04  0.16752542032E+04  0.00000000000E+00 0.  1.
         21   -1    0    0  501  502 -0.00000000000E+00 -0.00000000000E+00 -0.27585153556E+02  0.27585153556E+02  0.00000000000E+00 0.  1.
      99926    2    1    2    0    0  0.00000000000E+00  0.35527136788E-14  0.16476690496E+04  0.17028393567E+04  0.42994020254E+03 0.  0.
      99925    2    3    3    0    0 -0.36043083796E+02  0.31798474558E+02  0.77246279160E+03  0.81743337693E+03  0.26303671693E+03 0.  0.
         25    1    4    4    0    0 -0.47776996335E+02  0.12142116821E+02  0.48095832244E+03  0.49939812616E+03  0.12509000000E+03 0.  0.
         25    1    3    3    0    0  0.36043083796E+02 -0.31798474558E+02  0.87520625803E+03  0.88540597980E+03  0.12509000000E+03 0.  0.
         25    1    4    4    0    0  0.11733912539E+02  0.19656357737E+02  0.29150446915E+03  0.31803525078E+03  0.12509000000E+03 0.  0.
<mgrwt>
<rscale>  2 0.42994020E+03</rscale>
<asrwt>0</asrwt>
<pdfrwt beam="1">  1       21 0.24636084E+00 0.42994020E+03</pdfrwt>
<pdfrwt beam="2">  1       21 0.40566414E-02 0.42994020E+03</pdfrwt>
<totfact> 0.23442287E+04</totfact>
</mgrwt>
</event>
<event>
 7    0  0.4759581E-002  0.4555036E+03  0.7546771E-02  0.1026093E+00
         21   -1    0    0  502  501  0.00000000000E+00  0.00000000000E+00  0.21050986213E+03  0.21050986213E+03  0.00000000000E+00 0. -1.
         21   -1    0    0  501  502 -0.00000000000E+00 -0.00000000000E+00 -0.24640594782E+03  0.24640594782E+03  0.00000000000E+00 0. -1.
      99926    2    1    2    0    0  0.71054273576E-14 -0.22204460493E-14 -0.35896085683E+02  0.45691580995E+03  0.45550359868E+03 0.  0.
      99925    2    3    3    0    0  0.57658993795E+02 -0.33276994332E+01 -0.12077336602E+03  0.29509092322E+03  0.26297683144E+03 0.  0.
         25    1    4    4    0    0  0.50970721761E+02  0.26298286927E+02 -0.40744754671E+02  0.14351744669E+03  0.12509000000E+03 0.  0.
         25    1    3    3    0    0 -0.57658993795E+02  0.33276994332E+01  0.84877280337E+02  0.16182488673E+03  0.12509000000E+03 0.  0.
         25    1    4    4    0    0  0.66882720344E+01 -0.29625986360E+02 -0.80028611350E+02  0.15157347652E+03  0.12509000000E+03 0.  0.
<mgrwt>
<rscale>  2 0.45550360E+03</rscale>
<asrwt>0</asrwt>
<pdfrwt beam="1">  1       21 0.30957333E-01 0.45550360E+03</pdfrwt>
<pdfrwt beam="2">  1       21 0.36236169E-01 0.45550360E+03</pdfrwt>
<totfact> 0.68131534E+04</totfact>
</mgrwt>
</event>
<event>
 7    0  0.4759581E-002  0.4631198E+03  0.7546771E-02  0.1023880E+00
         21   -1    0    0  502  501  0.00000000000E+00  0.00000000000E+00  0.83425829067E+03  0.83425829067E+03  0.00000000000E+00 0. -1.
         21   -1    0    0  501  502 -0.00000000000E+00 -0.00000000000E+00 -0.64272649080E+02  0.64272649080E+02  0.00000000000E+00 0. -1.
      99926    2    1    2    0    0  0.00000000000E+00  0.14210854715E-13  0.76998564159E+03  0.89853093975E+03  0.46311981326E+03 0.  0.
      99925    2    3    3    0    0 -0.42706320498E+02 -0.87209385849E+02  0.61995335232E+03  0.68038763200E+03  0.26297502532E+03 0.  0.
         25    1    4    4    0    0 -0.34324381632E+02 -0.82722613465E+02  0.37029216243E+03  0.40098003393E+03  0.12509000000E+03 0.  0.
         25    1    4    4    0    0 -0.83819388661E+01 -0.44867723840E+01  0.24966118989E+03  0.27940759808E+03  0.12509000000E+03 0.  0.
         25    1    3    3    0    0  0.42706320498E+02  0.87209385849E+02  0.15003228928E+03  0.21814330775E+03  0.12509000000E+03 0.  0.
<mgrwt>
<rscale>  2 0.46311981E+03</rscale>
<asrwt>0</asrwt>
<pdfrwt beam="1">  1       21 0.12268504E+00 0.46311981E+03</pdfrwt>
<pdfrwt beam="2">  1       21 0.94518607E-02 0.46311981E+03</pdfrwt>
<totfact> 0.40650582E+04</totfact>
</mgrwt>
</event>
<event>
 7    0  0.4759581E-002  0.4527623E+03  0.7546771E-02  0.1026902E+00
         21   -1    0    0  502  501  0.00000000000E+00  0.00000000000E+00  0.10236245663E+03  0.10236245663E+03  0.00000000000E+00 0.  1.
         21   -1    0    0  501  502 -0.00000000000E+00 -0.00000000000E+00 -0.50065635903E+03  0.50065635903E+03  0.00000000000E+00 0.  1.
      99926    2    1    2    0    0  0.00000000000E+00  0.00000000000E+00 -0.39829390240E+03  0.60301881566E+03  0.45276225478E+03 0.  0.
      99925    2    3    3    0    0  0.41254423268E+02 -0.10200633328E+03 -0.23220253729E+03  0.36777198969E+03  0.26311784167E+03 0.  0.
         25    1    4    4    0    0  0.19726012347E+02 -0.91908887213E+02 -0.10983480974E+03  0.19117414219E+03  0.12509000000E+03 0.  0.
         25    1    4    4    0    0  0.21528410921E+02 -0.10097446069E+02 -0.12236772756E+03  0.17659784750E+03  0.12509000000E+03 0.  0.
         25    1    3    3    0    0 -0.41254423268E+02  0.10200633328E+03 -0.16609136511E+03  0.23524682597E+03  0.12509000000E+03 0.  0.
<mgrwt>
<rscale>  2 0.45276225E+03</rscale>
<asrwt>0</asrwt>
<pdfrwt beam="1">  1       21 0.15053302E-01 0.45276225E+03</pdfrwt>
<pdfrwt beam="2">  1       21 0.73625935E-01 0.45276225E+03</pdfrwt>
<totfact> 0.59538470E+04</totfact>
</mgrwt>
</event>
<event>
 7    0  0.4759581E-002  0.4607366E+03  0.7546771E-02  0.1024568E+00
         21   -1    0    0  502  501  0.00000000000E+00  0.00000000000E+00  0.20871788177E+03  0.20871788177E+03  0.00000000000E+00 0.  1.
         21   -1    0    0  501  502 -0.00000000000E+00 -0.00000000000E+00 -0.25426456977E+03  0.25426456977E+03  0.00000000000E+00 0.  1.
      99926    2    1    2    0    0  0.71054273576E-14  0.00000000000E+00 -0.45546687998E+02  0.46298245154E+03  0.46073663805E+03 0.  0.
      99925    2    3    3    0    0 -0.43425956832E+02  0.87230732909E+02 -0.96211722211E+02  0.29652083950E+03  0.26300741106E+03 0.  0.
         25    1    3    3    0    0  0.43425956832E+02 -0.87230732909E+02  0.50665034213E+02  0.16646161204E+03  0.12509000000E+03 0.  0.
         25    1    4    4    0    0 -0.34072687290E+02  0.44302133261E+02 -0.79313113052E+01  0.13723717000E+03  0.12509000000E+03 0.  0.
         25    1    4    4    0    0 -0.93532695422E+01  0.42928599648E+02 -0.88280410906E+02  0.15928366950E+03  0.12509000000E+03 0.  0.
<mgrwt>
<rscale>  2 0.46073664E+03</rscale>
<asrwt>0</asrwt>
<pdfrwt beam="1">  1       21 0.30693806E-01 0.46073664E+03</pdfrwt>
<pdfrwt beam="2">  1       21 0.37391848E-01 0.46073664E+03</pdfrwt>
<totfact> 0.64941247E+04</totfact>
</mgrwt>
</event>
<event>
 7    0  0.4759581E-002  0.4563718E+03  0.7546771E-02  0.1025839E+00
         21   -1    0    0  502  501  0.00000000000E+00  0.00000000000E+00  0.21698697572E+03  0.21698697572E+03  0.00000000000E+00 0. -1.
         21   -1    0    0  501  502 -0.00000000000E+00 -0.00000000000E+00 -0.23996277492E+03  0.23996277492E+03  0.00000000000E+00 0. -1.
      99926    2    1    2    0    0  0.00000000000E+00 -0.35527136788E-14 -0.22975799198E+02  0.45694975064E+03  0.45637176431E+03 0.  0.
      99925    2    3    3    0    0  0.10503554201E+03 -0.18013683339E+02 -0.56234644403E+02  0.28928754035E+03  0.26299807585E+03 0.  0.
         25    1    3    3    0    0 -0.10503554201E+03  0.18013683339E+02  0.33258845205E+02  0.16766221028E+03  0.12509000000E+03 0.  0.
         25    1    4    4    0    0  0.46540006672E+02 -0.42102292351E+02 -0.51195464078E+02  0.14902033044E+03  0.12509000000E+03 0.  0.
         25    1    4    4    0    0  0.58495535339E+02  0.24088609013E+02 -0.50391803247E+01  0.14026720991E+03  0.12509000000E+03 0.  0.
<mgrwt>
<rscale>  2 0.45637176E+03</rscale>
<asrwt>0</asrwt>
<pdfrwt beam="1">  1       21 0.31909850E-01 0.45637176E+03</pdfrwt>
<pdfrwt beam="2">  1       21 0.35288643E-01 0.45637176E+03</pdfrwt>
<totfact> 0.67659638E+04</totfact>
</mgrwt>
</event>
<event>
 7    0  0.4759581E-002  0.4571215E+03  0.7546771E-02  0.1025619E+00
         21   -1    0    0  502  501  0.00000000000E+00  0.00000000000E+00  0.12892730759E+03  0.12892730759E+03  0.00000000000E+00 0.  1.
         21   -1    0    0  501  502 -0.00000000000E+00 -0.00000000000E+00 -0.40518973823E+03  0.40518973823E+03  0.00000000000E+00 0.  1.
      99926    2    1    2    0    0  0.00000000000E+00 -0.44408920985E-15 -0.27626243064E+03  0.53411704582E+03  0.45712152438E+03 0.  0.
      99925    2    3    3    0    0 -0.11506118496E+03 -0.36012953707E+01 -0.17676464361E+03  0.33714150588E+03  0.26299545651E+03 0.  0.
         25    1    4    4    0    0 -0.63221400508E+02 -0.33127809283E+02 -0.11968004181E+03  0.18725708995E+03  0.12509000000E+03 0.  0.
         25    1    4    4    0    0 -0.51839784447E+02  0.29526513912E+02 -0.57084601807E+02  0.14988441593E+03  0.12509000000E+03 0.  0.
         25    1    3    3    0    0  0.11506118496E+03  0.36012953707E+01 -0.99497787023E+02  0.19697553994E+03  0.12509000000E+03 0.  0.
<mgrwt>
<rscale>  2 0.45712152E+03</rscale>
<asrwt>0</asrwt>
<pdfrwt beam="1">  1       21 0.18959898E-01 0.45712152E+03</pdfrwt>
<pdfrwt beam="2">  1       21 0.59586725E-01 0.45712152E+03</pdfrwt>
<totfact> 0.61881612E+04</totfact>
</mgrwt>
</event>
<event>
 7    0  0.4759581E-002  0.4596615E+03  0.7546771E-02  0.1024879E+00
         21   -1    0    0  502  501  0.00000000000E+00  0.00000000000E+00  0.15124534292E+03  0.15124534292E+03  0.00000000000E+00 0. -1.
         21   -1    0    0  501  502 -0.00000000000E+00 -0.00000000000E+00 -0.34924824544E+03  0.34924824544E+03  0.00000000000E+00 0. -1.
      99926    2    1    2    0    0  0.00000000000E+00  0.00000000000E+00 -0.19800290252E+03  0.50049358836E+03  0.45966148695E+03 0.  0.
      99925    2    3    3    0    0  0.27290102589E+02 -0.88720292313E+02 -0.45686293015E+02  0.28263148152E+03  0.26301573529E+03 0.  0.
         25    1    3    3    0    0 -0.27290102589E+02  0.88720292313E+02 -0.15231660950E+03  0.21786210684E+03  0.12509000000E+03 0.  0.
         25    1    4    4    0    0  0.10263243311E+02 -0.65688423338E+02  0.11524576205E+02  0.14212891008E+03  0.12509000000E+03 0.  0.
         25    1    4    4    0    0  0.17026859278E+02 -0.23031868975E+02 -0.57210869220E+02  0.14050257144E+03  0.12509000000E+03 0.  0.
<mgrwt>
<rscale>  2 0.45966149E+03</rscale>
<asrwt>0</asrwt>
<pdfrwt beam="1">  1       21 0.22241963E-01 0.45966149E+03</pdfrwt>
<pdfrwt beam="2">  1       21 0.51360035E-01 0.45966149E+03</pdfrwt>
<totfact> 0.62876878E+04</totfact>
</mgrwt>
</event>
<event>
 7    0  0.4759581E-002  0.4560320E+03  0.7546771E-02  0.1025938E+00
         21   -1    0    0  502  501  0.00000000000E+00  0.00000000000E+00  0.36850211875E+03  0.36850211875E+03  0.00000000000E+00 0. -1.
         21   -1    0    0  501  502 -0.00000000000E+00 -0.00000000000E+00 -0.14108816864E+03  0.14108816864E+03  0.00000000000E+00 0. -1.
      99926    2    1    2    0    0  0.14210854715E-13  0.71054273576E-14  0.22741395012E+03  0.50959028739E+03  0.45603196851E+03 0.  0.
      99925    2    3    3    0    0  0.67249719999E+02  0.45265273288E+02  0.23273216526E+03  0.36043512886E+03  0.26301663743E+03 0.  0.
         25    1    3    3    0    0 -0.67249719999E+02 -0.45265273288E+02 -0.53182151408E+01  0.14915515854E+03  0.12509000000E+03 0.  0.
         25    1    4    4    0    0 -0.66436278260E+01  0.15212970827E+02  0.11961903460E+03  0.17387292432E+03  0.12509000000E+03 0.  0.
         25    1    4    4    0    0  0.73893347826E+02  0.30052302461E+02  0.11311313066E+03  0.18656220454E+03  0.12509000000E+03 0.  0.
<mgrwt>
<rscale>  2 0.45603197E+03</rscale>
<asrwt>0</asrwt>
<pdfrwt beam="1">  1       21 0.54191488E-01 0.45603197E+03</pdfrwt>
<pdfrwt beam="2">  1       21 0.20748260E-01 0.45603197E+03</pdfrwt>
<totfact> 0.64075626E+04</totfact>
</mgrwt>
</event>
<event>
 7    0  0.4759581E-002  0.4542267E+03  0.7546771E-02  0.1026469E+00
         21   -1    0    0  502  501  0.00000000000E+00  0.00000000000E+00  0.72702384448E+02  0.72702384448E+02  0.00000000000E+00 0. -1.
         21   -1    0    0  501  502 -0.00000000000E+00 -0.00000000000E+00 -0.70947429221E+03  0.70947429221E+03  0.00000000000E+00 0. -1.
      99926    2    1    2    0    0  0.00000000000E+00  0.00000000000E+00 -0.63677190777E+03  0.78217667666E+03  0.45422669560E+03 0.  0.
      99925    2    3    3    0    0  0.98909028648E+02 -0.48833321700E+02 -0.43852287488E+03  0.52310549649E+03  0.26300068328E+03 0.  0.
         25    1    4    4    0    0  0.10452087354E+02 -0.39157900607E+02 -0.21194334814E+03  0.24941948246E+03  0.12509000000E+03 0.  0.
         25    1    3    3    0    0 -0.98909028648E+02  0.48833321700E+02 -0.19824903289E+03  0.25907118018E+03  0.12509000000E+03 0.  0.
         25    1    4    4    0    0  0.88456941294E+02 -0.96754210933E+01 -0.22657952673E+03  0.27368601402E+03  0.12509000000E+03 0.  0.
<mgrwt>
<rscale>  2 0.45422670E+03</rscale>
<asrwt>0</asrwt>
<pdfrwt beam="1">  1       21 0.10691527E-01 0.45422670E+03</pdfrwt>
<pdfrwt beam="2">  1       21 0.10433446E+00 0.45422670E+03</pdfrwt>
<totfact> 0.48935370E+04</totfact>
</mgrwt>
</event>
<event>
 7    0  0.4759581E-002  0.4588118E+03  0.7546771E-02  0.1025126E+00
         21   -1    0    0  502  501  0.00000000000E+00  0.00000000000E+00  0.33948171402E+03  0.33948171402E+03  0.00000000000E+00 0. -1.
         21   -1    0    0  501  502 -0.00000000000E+00 -0.00000000000E+00 -0.15502179817E+03  0.15502179817E+03  0.00000000000E+00 0. -1.
      99926    2    1    2    0    0 -0.17763568394E-14  0.00000000000E+00  0.18445991585E+03  0.49450351218E+03  0.45881179475E+03 0.  0.
      99925    2    3    3    0    0  0.11923251592E+02  0.11542382819E+03  0.10606211706E+03  0.30673091834E+03  0.26338158543E+03 0.  0.
         25    1    4    4    0    0  0.51259775518E+01  0.27151278646E+02  0.80675252078E+02  0.15139178305E+03  0.12509000000E+03 0.  0.
         25    1    4    4    0    0  0.67972740401E+01  0.88272549548E+02  0.25386864986E+02  0.15533913529E+03  0.12509000000E+03 0.  0.
         25    1    3    3    0    0 -0.11923251592E+02 -0.11542382819E+03  0.78397798786E+02  0.18777259384E+03  0.12509000000E+03 0.  0.
<mgrwt>
<rscale>  2 0.45881179E+03</rscale>
<asrwt>0</asrwt>
<pdfrwt beam="1">  1       21 0.49923782E-01 0.45881179E+03</pdfrwt>
<pdfrwt beam="2">  1       21 0.22797323E-01 0.45881179E+03</pdfrwt>
<totfact> 0.63708758E+04</totfact>
</mgrwt>
</event>
<event>
 7    0  0.4759581E-002  0.4542571E+03  0.7546771E-02  0.1026460E+00
         21   -1    0    0  502  501  0.00000000000E+00  0.00000000000E+00  0.24181153792E+03  0.24181153792E+03  0.00000000000E+00 0. -1.
         21   -1    0    0  501  502 -0.00000000000E+00 -0.00000000000E+00 -0.21333715727E+03  0.21333715727E+03  0.00000000000E+00 0. -1.
      99926    2    1    2    0    0 -0.17763568394E-14  0.00000000000E+00  0.28474380645E+02  0.45514869519E+03  0.45425713465E+03 0.  0.
      99925    2    3    3    0    0  0.98822961335E+01  0.45581587173E+02  0.12057057415E+03  0.29296189602E+03  0.26289554637E+03 0.  0.
         25    1    4    4    0    0  0.15614918445E+02  0.17228621529E+02  0.10233813541E+03  0.16328273986E+03  0.12509000000E+03 0.  0.
         25    1    3    3    0    0 -0.98822961335E+01 -0.45581587173E+02 -0.92096193506E+02  0.16218679917E+03  0.12509000000E+03 0.  0.
         25    1    4    4    0    0 -0.57326223119E+01  0.28352965644E+02  0.18232438742E+02  0.12967915616E+03  0.12509000000E+03 0.  0.
<mgrwt>
<rscale>  2 0.45425713E+03</rscale>
<asrwt>0</asrwt>
<pdfrwt beam="1">  1       21 0.35560521E-01 0.45425713E+03</pdfrwt>
<pdfrwt beam="2">  1       21 0.31373111E-01 0.45425713E+03</pdfrwt>
<totfact> 0.68942666E+04</totfact>
</mgrwt>
</event>
<event>
 7    0  0.4759581E-002  0.4578659E+03  0.7546771E-02  0.1025402E+00
         21   -1    0    0  502  501  0.00000000000E+00  0.00000000000E+00  0.23686917397E+03  0.23686917397E+03  0.00000000000E+00 0. -1.
         21   -1    0    0  501  502 -0.00000000000E+00 -0.00000000000E+00 -0.22126261093E+03  0.22126261093E+03  0.00000000000E+00 0. -1.
      99926    2    1    2    0    0  0.00000000000E+00  0.00000000000E+00  0.15606563047E+02  0.45813178490E+03  0.45786588378E+03 0.  0.
      99925    2    3    3    0    0  0.19976665788E+02  0.81283709047E+02 -0.70362079137E+02  0.28479908726E+03  0.26297070063E+03 0.  0.
         25    1    3    3    0    0 -0.19976665788E+02 -0.81283709047E+02  0.85968642183E+02  0.17333269764E+03  0.12509000000E+03 0.  0.
         25    1    4    4    0    0  0.13566073217E+02  0.23183920943E+02  0.39417342081E+01  0.12800225741E+03  0.12509000000E+03 0.  0.
         25    1    4    4    0    0  0.64105925706E+01  0.58099788104E+02 -0.74303813345E+02  0.15679682985E+03  0.12509000000E+03 0.  0.
<mgrwt>
<rscale>  2 0.45786588E+03</rscale>
<asrwt>0</asrwt>
<pdfrwt beam="1">  1       21 0.34833702E-01 0.45786588E+03</pdfrwt>
<pdfrwt beam="2">  1       21 0.32538619E-01 0.45786588E+03</pdfrwt>
<totfact> 0.66776904E+04</totfact>
</mgrwt>
</event>
<event>
 7    0  0.4759581E-002  0.4580594E+03  0.7546771E-02  0.1025346E+00
         21   -1    0    0  502  501  0.00000000000E+00  0.00000000000E+00  0.16599190012E+02  0.16599190012E+02  0.00000000000E+00 0.  1.
         21   -1    0    0  501  502 -0.00000000000E+00 -0.00000000000E+00 -0.31600696271E+04  0.31600696271E+04  0.00000000000E+00 0.  1.
      99926    2    1    2    0    0  0.00000000000E+00  0.00000000000E+00 -0.31434704370E+04  0.31766688171E+04  0.45805936816E+03 0.  0.
      99925    2    3    3    0    0 -0.23166388880E+02 -0.10361357050E+03 -0.16557469994E+04  0.16799253559E+04  0.26339821899E+03 0.  0.
         25    1    3    3    0    0  0.23166388880E+02  0.10361357050E+03 -0.14877234377E+04  0.14967434612E+04  0.12509000000E+03 0.  0.
         25    1    4    4    0    0 -0.49237622224E+01 -0.91454263947E+01 -0.79078350857E+03  0.80068342545E+03  0.12509000000E+03 0.  0.
         25    1    4    4    0    0 -0.18242626658E+02 -0.94468144107E+02 -0.86496349080E+03  0.87924193041E+03  0.12509000000E+03 0.  0.
<mgrwt>
<rscale>  2 0.45805937E+03</rscale>
<asrwt>0</asrwt>
<pdfrwt beam="1">  1       21 0.24410587E-02 0.45805937E+03</pdfrwt>
<pdfrwt beam="2">  1       21 0.46471586E+00 0.45805937E+03</pdfrwt>
<totfact> 0.23226262E+03</totfact>
</mgrwt>
</event>
<event>
 7    0  0.4759581E-002  0.4680107E+03  0.7546771E-02  0.1022483E+00
         21   -1    0    0  502  501  0.00000000000E+00  0.00000000000E+00  0.22190847229E+03  0.22190847229E+03  0.00000000000E+00 0. -1.
         21   -1    0    0  501  502 -0.00000000000E+00 -0.00000000000E+00 -0.24676169612E+03  0.24676169612E+03  0.00000000000E+00 0. -1.
      99926    2    1    2    0    0  0.71054273576E-14  0.00000000000E+00 -0.24853223827E+02  0.46867016841E+03  0.46801073067E+03 0.  0.
      99925    2    3    3    0    0  0.53337950984E+02 -0.10305505953E+03 -0.61088569723E+02  0.29424026644E+03  0.26340128841E+03 0.  0.
         25    1    3    3    0    0 -0.53337950984E+02  0.10305505953E+03  0.36235345896E+02  0.17442990197E+03  0.12509000000E+03 0.  0.
         25    1    4    4    0    0  0.89751569970E+01 -0.10562023724E+02 -0.32180959067E+02  0.12990470359E+03  0.12509000000E+03 0.  0.
         25    1    4    4    0    0  0.44362793987E+02 -0.92493035809E+02 -0.28907610657E+02  0.16433556285E+03  0.12509000000E+03 0.  0.
<mgrwt>
<rscale>  2 0.46801073E+03</rscale>
<asrwt>0</asrwt>
<pdfrwt beam="1">  1       21 0.32633599E-01 0.46801073E+03</pdfrwt>
<pdfrwt beam="2">  1       21 0.36288484E-01 0.46801073E+03</pdfrwt>
<totfact> 0.60975681E+04</totfact>
</mgrwt>
</event>
<event>
 7    0  0.4759581E-002  0.4452880E+03  0.7546771E-02  0.1029137E+00
         21   -1    0    0  502  501  0.00000000000E+00  0.00000000000E+00  0.46109469001E+02  0.46109469001E+02  0.00000000000E+00 0. -1.
         21   -1    0    0  501  502 -0.00000000000E+00 -0.00000000000E+00 -0.10750581751E+04  0.10750581751E+04  0.00000000000E+00 0. -1.
      99926    2    1    2    0    0  0.00000000000E+00  0.00000000000E+00 -0.10289487061E+04  0.11211676441E+04  0.44528804879E+03 0.  0.
      99925    2    3    3    0    0  0.93326402481E+02  0.39169228001E+02 -0.59464766045E+03  0.65801653250E+03  0.26293700984E+03 0.  0.
         25    1    4    4    0    0  0.43885503414E+02  0.45061702113E+01 -0.20324422183E+03  0.24269726984E+03  0.12509000000E+03 0.  0.
         25    1    3    3    0    0 -0.93326402481E+02 -0.39169228001E+02 -0.43430104563E+03  0.46315111158E+03  0.12509000000E+03 0.  0.
         25    1    4    4    0    0  0.49440899067E+02  0.34663057790E+02 -0.39140343862E+03  0.41531926266E+03  0.12509000000E+03 0.  0.
<mgrwt>
<rscale>  2 0.44528805E+03</rscale>
<asrwt>0</asrwt>
<pdfrwt beam="1">  1       21 0.67808040E-02 0.44528805E+03</pdfrwt>
<pdfrwt beam="2">  1       21 0.15809680E+00 0.44528805E+03</pdfrwt>
<totfact> 0.37521137E+04</totfact>
</mgrwt>
</event>
<event>
 7    0  0.4759581E-002  0.4539007E+03  0.7546771E-02  0.1026565E+00
         21   -1    0    0  502  501  0.00000000000E+00  0.00000000000E+00  0.34998533596E+02  0.34998533596E+02  0.00000000000E+00 0.  1.
         21   -1    0    0  501  502 -0.00000000000E+00 -0.00000000000E+00 -0.14716745320E+04  0.14716745320E+04  0.00000000000E+00 0.  1.
      99926    2    1    2    0    0  0.00000000000E+00  0.71054273576E-14 -0.14366759984E+04  0.15066730656E+04  0.45390065236E+03 0.  0.
      99925    2    3    3    0    0 -0.90560729476E+02 -0.42724412796E+02 -0.73834766222E+03  0.79019794783E+03  0.26311386369E+03 0.  0.
         25    1    4    4    0    0 -0.75633573559E+02  0.58201338226E+01 -0.39967044907E+03  0.42560343909E+03  0.12509000000E+03 0.  0.
         25    1    3    3    0    0  0.90560729476E+02  0.42724412796E+02 -0.69832833622E+03  0.71647511781E+03  0.12509000000E+03 0.  0.
         25    1    4    4    0    0 -0.14927155917E+02 -0.48544546618E+02 -0.33867721316E+03  0.36459450874E+03  0.12509000000E+03 0.  0.
<mgrwt>
<rscale>  2 0.45390065E+03</rscale>
<asrwt>0</asrwt>
<pdfrwt beam="1">  1       21 0.51468437E-02 0.45390065E+03</pdfrwt>
<pdfrwt beam="2">  1       21 0.21642270E+00 0.45390065E+03</pdfrwt>
<totfact> 0.23818783E+04</totfact>
</mgrwt>
</event>
<event>
 7    0  0.4759581E-002  0.4529836E+03  0.7546771E-02  0.1026836E+00
         21   -1    0    0  502  501  0.00000000000E+00  0.00000000000E+00  0.38103868167E+02  0.38103868167E+02  0.00000000000E+00 0. -1.
         21   -1    0    0  501  502 -0.00000000000E+00 -0.00000000000E+00 -0.13462812951E+04  0.13462812951E+04  0.00000000000E+00 0. -1.
      99926    2    1    2    0    0 -0.53290705182E-14  0.00000000000E+00 -0.13081774269E+04  0.13843851633E+04  0.45298355371E+03 0.  0.
      99925    2    3    3    0    0  0.69284545858E+01  0.58131127775E+02 -0.53397645576E+03  0.59796168742E+03  0.26267868740E+03 0.  0.
         25    1    4    4    0    0  0.43421270473E+02  0.27527112815E+02 -0.26388858026E+03  0.29652628815E+03  0.12509000000E+03 0.  0.
         25    1    4    4    0    0 -0.36492815887E+02  0.30604014960E+02 -0.27008787550E+03  0.30143539927E+03  0.12509000000E+03 0.  0.
         25    1    3    3    0    0 -0.69284545858E+01 -0.58131127775E+02 -0.77420097116E+03  0.78642347584E+03  0.12509000000E+03 0.  0.
<mgrwt>
<rscale>  2 0.45298355E+03</rscale>
<asrwt>0</asrwt>
<pdfrwt beam="1">  1       21 0.56035110E-02 0.45298355E+03</pdfrwt>
<pdfrwt beam="2">  1       21 0.19798251E+00 0.45298355E+03</pdfrwt>
<totfact> 0.27174477E+04</totfact>
</mgrwt>
</event>
<event>
 7    0  0.4759581E-002  0.4541800E+03  0.7546771E-02  0.1026483E+00
         21   -1    0    0  502  501  0.00000000000E+00  0.00000000000E+00  0.11190882745E+03  0.11190882745E+03  0.00000000000E+00 0.  1.
         21   -1    0    0  501  502 -0.00000000000E+00 -0.00000000000E+00 -0.46082037463E+03  0.46082037463E+03  0.00000000000E+00 0.  1.
      99926    2    1    2    0    0  0.00000000000E+00  0.00000000000E+00 -0.34891154718E+03  0.57272920208E+03  0.45417999864E+03 0.  0.
      99925    2    3    3    0    0  0.95257496236E+02 -0.34060478195E+02 -0.15663128544E+03  0.32202357008E+03  0.26254849713E+03 0.  0.
         25    1    4    4    0    0  0.41518200653E+02  0.13929612040E+02 -0.10365372188E+03  0.16825396648E+03  0.12509000000E+03 0.  0.
         25    1    3    3    0    0 -0.95257496236E+02  0.34060478195E+02 -0.19228026174E+03  0.25070563200E+03  0.12509000000E+03 0.  0.
         25    1    4    4    0    0  0.53739295583E+02 -0.47990090235E+02 -0.52977563556E+02  0.15376960360E+03  0.12509000000E+03 0.  0.
<mgrwt>
<rscale>  2 0.45418000E+03</rscale>
<asrwt>0</asrwt>
<pdfrwt beam="1">  1       21 0.16457181E-01 0.45418000E+03</pdfrwt>
<pdfrwt beam="2">  1       21 0.67767701E-01 0.45418000E+03</pdfrwt>
<totfact> 0.60782213E+04</totfact>
</mgrwt>
</event>
<event>
 7    0  0.4759581E-002  0.4393450E+03  0.7546771E-02  0.1030948E+00
         21   -1    0    0  502  501  0.00000000000E+00  0.00000000000E+00  0.57820828144E+03  0.57820828144E+03  0.00000000000E+00 0.  1.
         21   -1    0    0  501  502 -0.00000000000E+00 -0.00000000000E+00 -0.83457809483E+02  0.83457809483E+02  0.00000000000E+00 0.  1.
      99926    2    1    2    0    0  0.00000000000E+00  0.00000000000E+00  0.49475047196E+03  0.66166609092E+03  0.43934495146E+03 0.  0.
      99925    2    3    3    0    0  0.18875421459E+02  0.36155292600E+02  0.44974097672E+03  0.52260909009E+03  0.26303959433E+03 0.  0.
         25    1    3    3    0    0 -0.18875421459E+02 -0.36155292600E+02  0.45009495231E+02  0.13905700083E+03  0.12509000000E+03 0.  0.
         25    1    4    4    0    0  0.28310259928E+02  0.54590244060E+02  0.23449548994E+03  0.27279517677E+03  0.12509000000E+03 0.  0.
         25    1    4    4    0    0 -0.94348384694E+01 -0.18434951460E+02  0.21524548678E+03  0.24981391333E+03  0.12509000000E+03 0.  0.
<mgrwt>
<rscale>  2 0.43934495E+03</rscale>
<asrwt>0</asrwt>
<pdfrwt beam="1">  1       21 0.85030628E-01 0.43934495E+03</pdfrwt>
<pdfrwt beam="2">  1       21 0.12273207E-01 0.43934495E+03</pdfrwt>
<totfact> 0.62380635E+04</totfact>
</mgrwt>
</event>
<event>
 7    0  0.4759581E-002  0.4548568E+03  0.7546771E-02  0.1026284E+00
         21   -1    0    0  502  501  0.00000000000E+00  0.00000000000E+00  0.14246966793E+03  0.14246966793E+03  0.00000000000E+00 0.  1.
         21   -1    0    0  501  502 -0.00000000000E+00 -0.00000000000E+00 -0.36305043808E+03  0.36305043808E+03  0.00000000000E+00 0.  1.
      99926    2    1    2    0    0  0.00000000000E+00  0.88817841970E-15 -0.22058077015E+03  0.50552010601E+03  0.45485679222E+03 0.  0.
      99925    2    3    3    0    0  0.85281548430E+02 -0.22641691730E+01 -0.56241652002E+02  0.28206334774E+03  0.26290405047E+03 0.  0.
         25    1    4    4    0    0  0.55345372348E+02  0.20336055541E+02  0.37707966625E+01  0.13834157872E+03  0.12509000000E+03 0.  0.
         25    1    3    3    0    0 -0.85281548430E+02  0.22641691730E+01 -0.16433911815E+03  0.22345675827E+03  0.12509000000E+03 0.  0.
         25    1    4    4    0    0  0.29936176082E+02 -0.22600224714E+02 -0.60012448664E+02  0.14372176902E+03  0.12509000000E+03 0.  0.
<mgrwt>
<rscale>  2 0.45485679E+03</rscale>
<asrwt>0</asrwt>
<pdfrwt beam="1">  1       21 0.20951422E-01 0.45485679E+03</pdfrwt>
<pdfrwt beam="2">  1       21 0.53389770E-01 0.45485679E+03</pdfrwt>
<totfact> 0.64958377E+04</totfact>
</mgrwt>
</event>
<event>
 7    0  0.4759581E-002  0.4548740E+03  0.7546771E-02  0.1026278E+00
         21   -1    0    0  502  501  0.00000000000E+00  0.00000000000E+00  0.15294796656E+03  0.15294796656E+03  0.00000000000E+00 0. -1.
         21   -1    0    0  501  502 -0.00000000000E+00 -0.00000000000E+00 -0.33820382729E+03  0.33820382729E+03  0.00000000000E+00 0. -1.
      99926    2    1    2    0    0  0.00000000000E+00  0.00000000000E+00 -0.18525586072E+03  0.49115179385E+03  0.45487399428E+03 0.  0.
      99925    2    3    3    0    0  0.12391705142E+02 -0.12046776064E+02 -0.23717603450E+03  0.35461648078E+03  0.26306215602E+03 0.  0.
         25    1    4    4    0    0 -0.32993554535E+01 -0.28084921644E+02 -0.16322452136E+03  0.20757986666E+03  0.12509000000E+03 0.  0.
         25    1    4    4    0    0  0.15691060595E+02  0.16038145581E+02 -0.73951513135E+02  0.14703661412E+03  0.12509000000E+03 0.  0.
         25    1    3    3    0    0 -0.12391705142E+02  0.12046776064E+02  0.51920173773E+02  0.13653531307E+03  0.12509000000E+03 0.  0.
<mgrwt>
<rscale>  2 0.45487399E+03</rscale>
<asrwt>0</asrwt>
<pdfrwt beam="1">  1       21 0.22492348E-01 0.45487399E+03</pdfrwt>
<pdfrwt beam="2">  1       21 0.49735856E-01 0.45487399E+03</pdfrwt>
<totfact> 0.65962810E+04</totfact>
</mgrwt>
</event>
<event>
 7    0  0.4759581E-002  0.4360792E+03  0.7546771E-02  0.1031957E+00
         21   -1    0    0  502  501  0.00000000000E+00  0.00000000000E+00  0.30547944558E+03  0.30547944558E+03  0.00000000000E+00 0.  1.
         21   -1    0    0  501  502 -0.00000000000E+00 -0.00000000000E+00 -0.15562839689E+03  0.15562839689E+03  0.00000000000E+00 0.  1.
      99926    2    1    2    0    0 -0.14210854715E-13  0.00000000000E+00  0.14985104870E+03  0.46110784247E+03  0.43607924233E+03 0.  0.
      99925    2    3    3    0    0 -0.90252297750E+02 -0.22028195101E+02  0.77148904742E+02  0.28916649066E+03  0.26274433807E+03 0.  0.
         25    1    4    4    0    0 -0.83211922396E+02 -0.10282894775E+02  0.60265079944E+02  0.16220157186E+03  0.12509000000E+03 0.  0.
         25    1    3    3    0    0  0.90252297750E+02  0.22028195101E+02  0.72702143954E+02  0.17194135181E+03  0.12509000000E+03 0.  0.
         25    1    4    4    0    0 -0.70403753539E+01 -0.11745300325E+02  0.16883824798E+02  0.12696491880E+03  0.12509000000E+03 0.  0.
<mgrwt>
<rscale>  2 0.43607924E+03</rscale>
<asrwt>0</asrwt>
<pdfrwt beam="1">  1       21 0.44923448E-01 0.43607924E+03</pdfrwt>
<pdfrwt beam="2">  1       21 0.22886529E-01 0.43607924E+03</pdfrwt>
<totfact> 0.79365363E+04</totfact>
</mgrwt>
</event>
<event>
 7    0  0.4759581E-002  0.4282039E+03  0.7546771E-02  0.1034429E+00
         21   -1    0    0  502  501  0.00000000000E+00  0.00000000000E+00  0.11346704627E+04  0.11346704627E+04  0.00000000000E+00 0.  1.
         21   -1    0    0  501  502 -0.00000000000E+00 -0.00000000000E+00 -0.40399074976E+02  0.40399074976E+02  0.00000000000E+00 0.  1.
      99926    2    1    2    0    0  0.00000000000E+00  0.00000000000E+00  0.10942713877E+04  0.11750695376E+04  0.42820386310E+03 0.  0.
      99925    2    3    3    0    0 -0.62475994248E+02  0.49698224994E+02  0.79306553672E+03  0.83929336788E+03  0.26284453276E+03 0.  0.
         25    1    3    3    0    0  0.62475994248E+02 -0.49698224994E+02  0.30120585096E+03  0.33577616976E+03  0.12509000000E+03 0.  0.
         25    1    4    4    0    0 -0.14873085472E+02 -0.13473253608E+02  0.36212850409E+03  0.38364996913E+03  0.12509000000E+03 0.  0.
         25    1    4    4    0    0 -0.47602908776E+02  0.63171478603E+02  0.43093703263E+03  0.45564339875E+03  0.12509000000E+03 0.  0.
<mgrwt>
<rscale>  2 0.42820386E+03</rscale>
<asrwt>0</asrwt>
<pdfrwt beam="1">  1       21 0.16686328E+00 0.42820386E+03</pdfrwt>
<pdfrwt beam="2">  1       21 0.59410411E-02 0.42820386E+03</pdfrwt>
<totfact> 0.40838683E+04</totfact>
</mgrwt>
</event>
<event>
 7    0  0.4759581E-002  0.4608548E+03  0.7546771E-02  0.1024534E+00
         21   -1    0    0  502  501  0.00000000000E+00  0.00000000000E+00  0.71092621976E+03  0.71092621976E+03  0.00000000000E+00 0.  1.
         21   -1    0    0  501  502 -0.00000000000E+00 -0.00000000000E+00 -0.74686782010E+02  0.74686782010E+02  0.00000000000E+00 0.  1.
      99926    2    1    2    0    0  0.17763568394E-14  0.00000000000E+00  0.63623943775E+03  0.78561300177E+03  0.46085482139E+03 0.  0.
      99925    2    3    3    0    0 -0.12686263172E+02  0.11426308298E+03  0.34841246960E+03  0.45138424014E+03  0.26294389111E+03 0.  0.
         25    1    4    4    0    0  0.30647678645E+01  0.21304847464E+02  0.19087269495E+03  0.22922299864E+03  0.12509000000E+03 0.  0.
         25    1    3    3    0    0  0.12686263172E+02 -0.11426308298E+03  0.28782696814E+03  0.33422876162E+03  0.12509000000E+03 0.  0.
         25    1    4    4    0    0 -0.15751031037E+02  0.92958235516E+02  0.15753977465E+03  0.22216124150E+03  0.12509000000E+03 0.  0.
<mgrwt>
<rscale>  2 0.46085482E+03</rscale>
<asrwt>0</asrwt>
<pdfrwt beam="1">  1       21 0.10454797E+00 0.46085482E+03</pdfrwt>
<pdfrwt beam="2">  1       21 0.10983351E-01 0.46085482E+03</pdfrwt>
<totfact> 0.46303861E+04</totfact>
</mgrwt>
</event>
<event>
 7    0  0.4759581E-002  0.4537863E+03  0.7546771E-02  0.1026599E+00
         21   -1    0    0  502  501  0.00000000000E+00  0.00000000000E+00  0.10302349816E+04  0.10302349816E+04  0.00000000000E+00 0. -1.
         21   -1    0    0  501  502 -0.00000000000E+00 -0.00000000000E+00 -0.49969672343E+02  0.49969672343E+02  0.00000000000E+00 0. -1.
      99926    2    1    2    0    0  0.00000000000E+00  0.00000000000E+00  0.98026530929E+03  0.10802046540E+04  0.45378631301E+03 0.  0.
      99925    2    3    3    0    0 -0.73025356161E+02 -0.71217553129E+02  0.72802023206E+03  0.78073891370E+03  0.26293563956E+03 0.  0.
         25    1    4    4    0    0 -0.59542417247E+02 -0.40263347933E+02  0.47570893427E+03  0.49710455126E+03  0.12509000000E+03 0.  0.
         25    1    3    3    0    0  0.73025356161E+02  0.71217553129E+02  0.25224507723E+03  0.29946574028E+03  0.12509000000E+03 0.  0.
         25    1    4    4    0    0 -0.13482938913E+02 -0.30954205196E+02  0.25231129779E+03  0.28363436244E+03  0.12509000000E+03 0.  0.
<mgrwt>
<rscale>  2 0.45378631E+03</rscale>
<asrwt>0</asrwt>
<pdfrwt beam="1">  1       21 0.15150513E+00 0.45378631E+03</pdfrwt>
<pdfrwt beam="2">  1       21 0.73484819E-02 0.45378631E+03</pdfrwt>
<totfact> 0.36532976E+04</totfact>
</mgrwt>
</event>
<event>
 7    0  0.4759581E-002  0.4540737E+03  0.7546771E-02  0.1026514E+00
         21   -1    0    0  502  501  0.00000000000E+00  0.00000000000E+00  0.96558336366E+03  0.96558336366E+03  0.00000000000E+00 0. -1.
         21   -1    0    0  501  502 -0.00000000000E+00 -0.00000000000E+00 -0.53382991275E+02  0.53382991275E+02  0.00000000000E+00 0. -1.
      99926    2    1    2    0    0  0.00000000000E+00  0.00000000000E+00  0.91220037238E+03  0.10189663549E+04  0.45407368687E+03 0.  0.
      99925    2    3    3    0    0 -0.76314311072E+02  0.71628991434E+02  0.48839053423E+03  0.56485527435E+03  0.26378320749E+03 0.  0.
         25    1    4    4    0    0 -0.55939960394E+02  0.28817983799E+02  0.17512995266E+03  0.22422703623E+03  0.12509000000E+03 0.  0.
         25    1    4    4    0    0 -0.20374350679E+02  0.42811007635E+02  0.31326058157E+03  0.34062823812E+03  0.12509000000E+03 0.  0.
         25    1    3    3    0    0  0.76314311072E+02 -0.71628991434E+02  0.42380983816E+03  0.45411108058E+03  0.12509000000E+03 0.  0.
<mgrwt>
<rscale>  2 0.45407369E+03</rscale>
<asrwt>0</asrwt>
<pdfrwt beam="1">  1       21 0.14199754E+00 0.45407369E+03</pdfrwt>
<pdfrwt beam="2">  1       21 0.78504405E-02 0.45407369E+03</pdfrwt>
<totfact> 0.38716350E+04</totfact>
</mgrwt>
</event>
<event>
 7    0  0.4759581E-002  0.4723173E+03  0.7546771E-02  0.1021268E+00
         21   -1    0    0  502  501  0.00000000000E+00  0.00000000000E+00  0.31956889688E+03  0.31956889688E+03  0.00000000000E+00 0.  1.
         21   -1    0    0  501  502 -0.00000000000E+00 -0.00000000000E+00 -0.17451921206E+03  0.17451921206E+03  0.00000000000E+00 0.  1.
      99926    2    1    2    0    0  0.00000000000E+00  0.00000000000E+00  0.14504968481E+03  0.49408810894E+03  0.47231731742E+03 0.  0.
      99925    2    3    3    0    0  0.10892527676E+03 -0.51128159656E+02  0.42273446055E+02  0.29237229900E+03  0.26308879177E+03 0.  0.
         25    1    3    3    0    0 -0.10892527676E+03  0.51128159656E+02  0.10277623876E+03  0.20171580994E+03  0.12509000000E+03 0.  0.
         25    1    4    4    0    0  0.51341879238E+02  0.14537142839E+02  0.30375322237E+02  0.13934663751E+03  0.12509000000E+03 0.  0.
         25    1    4    4    0    0  0.57583397521E+02 -0.65665302495E+02  0.11898123818E+02  0.15302566148E+03  0.12509000000E+03 0.  0.
<mgrwt>
<rscale>  2 0.47231732E+03</rscale>
<asrwt>0</asrwt>
<pdfrwt beam="1">  1       21 0.46995426E-01 0.47231732E+03</pdfrwt>
<pdfrwt beam="2">  1       21 0.25664590E-01 0.47231732E+03</pdfrwt>
<totfact> 0.57384570E+04</totfact>
</mgrwt>
</event>
<event>
 7    0  0.4759581E-002  0.4543013E+03  0.7546771E-02  0.1026447E+00
         21   -1    0    0  502  501  0.00000000000E+00  0.00000000000E+00  0.59725453825E+03  0.59725453825E+03  0.00000000000E+00 0.  1.
         21   -1    0    0  501  502 -0.00000000000E+00 -0.00000000000E+00 -0.86391011746E+02  0.86391011746E+02  0.00000000000E+00 0.  1.
      99926    2    1    2    0    0  0.00000000000E+00  0.00000000000E+00  0.51086352650E+03  0.68364555000E+03  0.45430132656E+03 0.  0.
      99925    2    3    3    0    0  0.57150092989E+02 -0.89112465017E+02  0.26435740705E+03  0.38763889538E+03  0.26300553226E+03 0.  0.
         25    1    4    4    0    0  0.34988927186E+01 -0.72941822164E+02  0.15633337365E+03  0.21312058438E+03  0.12509000000E+03 0.  0.
         25    1    4    4    0    0  0.53651200270E+02 -0.16170642853E+02  0.10802403340E+03  0.17451831100E+03  0.12509000000E+03 0.  0.
         25    1    3    3    0    0 -0.57150092989E+02  0.89112465017E+02  0.24650611945E+03  0.29600665462E+03  0.12509000000E+03 0.  0.
<mgrwt>
<rscale>  2 0.45430133E+03</rscale>
<asrwt>0</asrwt>
<pdfrwt beam="1">  1       21 0.87831547E-01 0.45430133E+03</pdfrwt>
<pdfrwt beam="2">  1       21 0.12704561E-01 0.45430133E+03</pdfrwt>
<totfact> 0.54097171E+04</totfact>
</mgrwt>
</event>
<event>
 7    0  0.4759581E-002  0.4644753E+03  0.7546771E-02  0.1023491E+00
         21   -1    0    0  502  501  0.00000000000E+00  0.00000000000E+00  0.44519174801E+03  0.44519174801E+03  0.00000000000E+00 0.  1.
         21   -1    0    0  501  502 -0.00000000000E+00 -0.00000000000E+00 -0.12114851311E+03  0.12114851311E+03  0.00000000000E+00 0.  1.
      99926    2    1    2    0    0 -0.22204460493E-14  0.00000000000E+00  0.32404323491E+03  0.56634026112E+03  0.46447526659E+03 0.  0.
      99925    2    3    3    0    0 -0.17610140659E+01 -0.35757828506E+02  0.34424193695E+03  0.43466938684E+03  0.26297003865E+03 0.  0.
         25    1    4    4    0    0 -0.25037168111E+02 -0.36405267924E+02  0.13158617028E+03  0.18685457348E+03  0.12509000000E+03 0.  0.
         25    1    3    3    0    0  0.17610140659E+01  0.35757828506E+02 -0.20198702041E+02  0.13167087428E+03  0.12509000000E+03 0.  0.
         25    1    4    4    0    0  0.23276154045E+02  0.64743941805E+00  0.21265576666E+03  0.24781481336E+03  0.12509000000E+03 0.  0.
<mgrwt>
<rscale>  2 0.46447527E+03</rscale>
<asrwt>0</asrwt>
<pdfrwt beam="1">  1       21 0.65469374E-01 0.46447527E+03</pdfrwt>
<pdfrwt beam="2">  1       21 0.17815958E-01 0.46447527E+03</pdfrwt>
<totfact> 0.56448874E+04</totfact>
</mgrwt>
</event>
<event>
 7    0  0.4759581E-002  0.4520136E+03  0.7546771E-02  0.1027123E+00
         21   -1    0    0  502  501  0.00000000000E+00  0.00000000000E+00  0.20470405713E+02  0.20470405713E+02  0.00000000000E+00 0.  1.
         21   -1    0    0  501  502 -0.00000000000E+00 -0.00000000000E+00 -0.24952641987E+04  0.24952641987E+04  0.00000000000E+00 0.  1.
      99926    2    1    2    0    0  0.00000000000E+00  0.71054273576E-14 -0.24747937930E+04  0.25157346044E+04  0.45201358612E+03 0.  0.
      99925    2    3    3    0    0 -0.70232076669E+02 -0.48114622088E+02 -0.19500053653E+04  0.19695679967E+04  0.26349498562E+03 0.  0.
         25    1    4    4    0    0 -0.28259189925E+02  0.17670509823E+02 -0.90049551552E+03  0.90975299411E+03  0.12509000000E+03 0.  0.
         25    1    3    3    0    0  0.70232076669E+02  0.48114622088E+02 -0.52478842763E+03  0.54616660766E+03  0.12509000000E+03 0.  0.
         25    1    4    4    0    0 -0.41972886744E+02 -0.65785131911E+02 -0.10495098498E+04  0.10598150026E+04  0.12509000000E+03 0.  0.
<mgrwt>
<rscale>  2 0.45201359E+03</rscale>
<asrwt>0</asrwt>
<pdfrwt beam="1">  1       21 0.30103545E-02 0.45201359E+03</pdfrwt>
<pdfrwt beam="2">  1       21 0.36695053E+00 0.45201359E+03</pdfrwt>
<totfact> 0.71363905E+03</totfact>
</mgrwt>
</event>
<event>
 7    0  0.4759581E-002  0.4562715E+03  0.7546771E-02  0.1025868E+00
         21   -1    0    0  502  501  0.00000000000E+00  0.00000000000E+00  0.14932085235E+03  0.14932085235E+03  0.00000000000E+00 0. -1.
         21   -1    0    0  501  502 -0.00000000000E+00 -0.00000000000E+00 -0.34855097805E+03  0.34855097805E+03  0.00000000000E+00 0. -1.
      99926    2    1    2    0    0  0.00000000000E+00 -0.15543122345E-14 -0.19923012569E+03  0.49787183040E+03  0.45627153815E+03 0.  0.
      99925    2    3    3    0    0  0.33121279265E+02 -0.18915046594E+01 -0.24448980170E+03  0.36077134425E+03  0.26321113724E+03 0.  0.
         25    1    4    4    0    0 -0.74440633713E+01 -0.15633007127E+02 -0.79034072552E+02  0.14897549367E+03  0.12509000000E+03 0.  0.
         25    1    4    4    0    0  0.40565342636E+02  0.13741502468E+02 -0.16545572915E+03  0.21179585058E+03  0.12509000000E+03 0.  0.
         25    1    3    3    0    0 -0.33121279265E+02  0.18915046594E+01  0.45259676008E+02  0.13710048615E+03  0.12509000000E+03 0.  0.
<mgrwt>
<rscale>  2 0.45627154E+03</rscale>
<asrwt>0</asrwt>
<pdfrwt beam="1">  1       21 0.21958949E-01 0.45627154E+03</pdfrwt>
<pdfrwt beam="2">  1       21 0.51257496E-01 0.45627154E+03</pdfrwt>
<totfact> 0.64764231E+04</totfact>
</mgrwt>
</event>
<event>
 7    0  0.4759581E-002  0.4635819E+03  0.7546771E-02  0.1023747E+00
         21   -1    0    0  502  501  0.00000000000E+00  0.00000000000E+00  0.22675436473E+03  0.22675436473E+03  0.00000000000E+00 0. -1.
         21   -1    0    0  501  502 -0.00000000000E+00 -0.00000000000E+00 -0.23693938470E+03  0.23693938470E+03  0.00000000000E+00 0. -1.
      99926    2    1    2    0    0  0.14210854715E-13 -0.35527136788E-14 -0.10185019971E+02  0.46369374942E+03  0.46358187909E+03 0.  0.
      99925    2    3    3    0    0  0.12029979876E+03 -0.13767705068E+02 -0.77788546637E+01  0.28958203524E+03  0.26293659553E+03 0.  0.
         25    1    4    4    0    0  0.78349253485E+02  0.25579920877E+02  0.12911450415E+02  0.15035674752E+03  0.12509000000E+03 0.  0.
         25    1    4    4    0    0  0.41950545274E+02 -0.39347625945E+02 -0.20690305079E+02  0.13922528772E+03  0.12509000000E+03 0.  0.
         25    1    3    3    0    0 -0.12029979876E+03  0.13767705068E+02 -0.24061653076E+01  0.17411171418E+03  0.12509000000E+03 0.  0.
<mgrwt>
<rscale>  2 0.46358188E+03</rscale>
<asrwt>0</asrwt>
<pdfrwt beam="1">  1       21 0.33346230E-01 0.46358188E+03</pdfrwt>
<pdfrwt beam="2">  1       21 0.34844027E-01 0.46358188E+03</pdfrwt>
<totfact> 0.63455850E+04</totfact>
</mgrwt>
</event>
<event>
 7    0  0.4759581E-002  0.4557969E+03  0.7546771E-02  0.1026007E+00
         21   -1    0    0  502  501  0.00000000000E+00  0.00000000000E+00  0.87079009857E+03  0.87079009857E+03  0.00000000000E+00 0.  1.
         21   -1    0    0  501  502 -0.00000000000E+00 -0.00000000000E+00 -0.59644341220E+02  0.59644341220E+02  0.00000000000E+00 0.  1.
      99926    2    1    2    0    0  0.00000000000E+00  0.00000000000E+00  0.81114575735E+03  0.93043443979E+03  0.45579689236E+03 0.  0.
      99925    2    3    3    0    0 -0.56439476749E+02 -0.48358538845E+02  0.33350521819E+03  0.43112295829E+03  0.26290171507E+03 0.  0.
         25    1    4    4    0    0 -0.19460793811E+02 -0.30658081964E+02  0.22733573479E+03  0.26200703216E+03  0.12509000000E+03 0.  0.
         25    1    3    3    0    0  0.56439476749E+02  0.48358538845E+02  0.47764053916E+03  0.49931148150E+03  0.12509000000E+03 0.  0.
         25    1    4    4    0    0 -0.36978682937E+02 -0.17700456881E+02  0.10616948340E+03  0.16911592613E+03  0.12509000000E+03 0.  0.
<mgrwt>
<rscale>  2 0.45579689E+03</rscale>
<asrwt>0</asrwt>
<pdfrwt beam="1">  1       21 0.12805736E+00 0.45579689E+03</pdfrwt>
<pdfrwt beam="2">  1       21 0.87712272E-02 0.45579689E+03</pdfrwt>
<totfact> 0.41683009E+04</totfact>
</mgrwt>
</event>
<event>
 7    0  0.4759581E-002  0.4555174E+03  0.7546771E-02  0.1026089E+00
         21   -1    0    0  502  501  0.00000000000E+00  0.00000000000E+00  0.72077865195E+03  0.72077865195E+03  0.00000000000E+00 0. -1.
         21   -1    0    0  501  502 -0.00000000000E+00 -0.00000000000E+00 -0.71969414415E+02  0.71969414415E+02  0.00000000000E+00 0. -1.
      99926    2    1    2    0    0  0.00000000000E+00  0.00000000000E+00  0.64880923753E+03  0.79274806637E+03  0.45551736522E+03 0.  0.
      99925    2    3    3    0    0  0.33442387302E+02 -0.22197500425E+02  0.59316705920E+03  0.65007822932E+03  0.26295136779E+03 0.  0.
         25    1    4    4    0    0  0.10279387164E+02 -0.51138613383E+02  0.30286595536E+03  0.33180735163E+03  0.12509000000E+03 0.  0.
         25    1    4    4    0    0  0.23163000137E+02  0.28941112958E+02  0.29030110383E+03  0.31827087768E+03  0.12509000000E+03 0.  0.
         25    1    3    3    0    0 -0.33442387302E+02  0.22197500425E+02  0.55642178339E+02  0.14266983705E+03  0.12509000000E+03 0.  0.
<mgrwt>
<rscale>  2 0.45551737E+03</rscale>
<asrwt>0</asrwt>
<pdfrwt beam="1">  1       21 0.10599686E+00 0.45551737E+03</pdfrwt>
<pdfrwt beam="2">  1       21 0.10583738E-01 0.45551737E+03</pdfrwt>
<totfact> 0.47922708E+04</totfact>
</mgrwt>
</event>
<event>
 7    0  0.4759581E-002  0.4502050E+03  0.7546771E-02  0.1027661E+00
         21   -1    0    0  502  501  0.00000000000E+00  0.00000000000E+00  0.14028303320E+03  0.14028303320E+03  0.00000000000E+00 0. -1.
         21   -1    0    0  501  502 -0.00000000000E+00 -0.00000000000E+00 -0.36120648327E+03  0.36120648327E+03  0.00000000000E+00 0. -1.
      99926    2    1    2    0    0  0.00000000000E+00  0.00000000000E+00 -0.22092345007E+03  0.50148951648E+03  0.45020502479E+03 0.  0.
      99925    2    3    3    0    0  0.90429549277E+02  0.44678378589E+02 -0.18474007612E+03  0.33677641577E+03  0.26289883529E+03 0.  0.
         25    1    4    4    0    0  0.54664693921E+02 -0.17062074321E+02 -0.90054694056E+02  0.16442840133E+03  0.12509000000E+03 0.  0.
         25    1    4    4    0    0  0.35764855355E+02  0.61740452910E+02 -0.94685382065E+02  0.17234801444E+03  0.12509000000E+03 0.  0.
         25    1    3    3    0    0 -0.90429549277E+02 -0.44678378589E+02 -0.36183373949E+02  0.16471310071E+03  0.12509000000E+03 0.  0.
<mgrwt>
<rscale>  2 0.45020502E+03</rscale>
<asrwt>0</asrwt>
<pdfrwt beam="1">  1       21 0.20629858E-01 0.45020502E+03</pdfrwt>
<pdfrwt beam="2">  1       21 0.53118600E-01 0.45020502E+03</pdfrwt>
<totfact> 0.67706575E+04</totfact>
</mgrwt>
</event>
<event>
 7    0  0.4759581E-002  0.4530850E+03  0.7546771E-02  0.1026806E+00
         21   -1    0    0  502  501  0.00000000000E+00  0.00000000000E+00  0.51609043225E+02  0.51609043225E+02  0.00000000000E+00 0. -1.
         21   -1    0    0  501  502 -0.00000000000E+00 -0.00000000000E+00 -0.99442872649E+03  0.99442872649E+03  0.00000000000E+00 0. -1.
      99926    2    1    2    0    0  0.00000000000E+00  0.00000000000E+00 -0.94281968326E+03  0.10460377697E+04  0.45308504778E+03 0.  0.
      99925    2    3    3    0    0  0.11639449451E+02  0.40840320883E+02 -0.83192894418E+03  0.87356263322E+03  0.26306367557E+03 0.  0.
         25    1    4    4    0    0  0.31248099343E+01  0.17810986403E+02 -0.28161579575E+03  0.30867776109E+03  0.12509000000E+03 0.  0.
         25    1    4    4    0    0  0.85146395167E+01  0.23029334480E+02 -0.55031314843E+03  0.56488487213E+03  0.12509000000E+03 0.  0.
         25    1    3    3    0    0 -0.11639449451E+02 -0.40840320883E+02 -0.11089073908E+03  0.17247513649E+03  0.12509000000E+03 0.  0.
<mgrwt>
<rscale>  2 0.45308505E+03</rscale>
<asrwt>0</asrwt>
<pdfrwt beam="1">  1       21 0.75895658E-02 0.45308505E+03</pdfrwt>
<pdfrwt beam="2">  1       21 0.14623951E+00 0.45308505E+03</pdfrwt>
<totfact> 0.37987757E+04</totfact>
</mgrwt>
</event>
<event>
 7    0  0.4759581E-002  0.4590987E+03  0.7546771E-02  0.1025043E+00
         21   -1    0    0  502  501  0.00000000000E+00  0.00000000000E+00  0.58762988435E+02  0.58762988435E+02  0.00000000000E+00 0. -1.
         21   -1    0    0  501  502 -0.00000000000E+00 -0.00000000000E+00 -0.89670241687E+03  0.89670241687E+03  0.00000000000E+00 0. -1.
      99926    2    1    2    0    0  0.14210854715E-13  0.44408920985E-15 -0.83793942843E+03  0.95546540530E+03  0.45909874211E+03 0.  0.
      99925    2    3    3    0    0 -0.86002079087E+02 -0.12461854493E+01 -0.69007958318E+03  0.74355043999E+03  0.26317202568E+03 0.  0.
         25    1    4    4    0    0 -0.10984322674E+02 -0.19834624515E+02 -0.26878172741E+03  0.29733010740E+03  0.12509000000E+03 0.  0.
         25    1    3    3    0    0  0.86002079087E+02  0.12461854493E+01 -0.14785984525E+03  0.21191496531E+03  0.12509000000E+03 0.  0.
         25    1    4    4    0    0 -0.75017756413E+02  0.18588439066E+02 -0.42129785577E+03  0.44622033259E+03  0.12509000000E+03 0.  0.
<mgrwt>
<rscale>  2 0.45909874E+03</rscale>
<asrwt>0</asrwt>
<pdfrwt beam="1">  1       21 0.86416162E-02 0.45909874E+03</pdfrwt>
<pdfrwt beam="2">  1       21 0.13186800E+00 0.45909874E+03</pdfrwt>
<totfact> 0.39634696E+04</totfact>
</mgrwt>
</event>
<event>
 7    0  0.4759581E-002  0.4558140E+03  0.7546771E-02  0.1026002E+00
         21   -1    0    0  502  501  0.00000000000E+00  0.00000000000E+00  0.14503349624E+03  0.14503349624E+03  0.00000000000E+00 0. -1.
         21   -1    0    0  501  502 -0.00000000000E+00 -0.00000000000E+00 -0.35813520775E+03  0.35813520775E+03  0.00000000000E+00 0. -1.
      99926    2    1    2    0    0  0.00000000000E+00  0.00000000000E+00 -0.21310171150E+03  0.50316870399E+03  0.45581400289E+03 0.  0.
      99925    2    3    3    0    0 -0.10646423248E+03 -0.15370363667E+02 -0.17455014361E+03  0.33374434812E+03  0.26333753319E+03 0.  0.
         25    1    3    3    0    0  0.10646423248E+03  0.15370363667E+02 -0.38551567897E+02  0.16942435588E+03  0.12509000000E+03 0.  0.
         25    1    4    4    0    0 -0.92259354093E+02 -0.19509206363E+02 -0.77761047453E+02  0.17489049760E+03  0.12509000000E+03 0.  0.
         25    1    4    4    0    0 -0.14204878388E+02  0.41388426962E+01 -0.96789096152E+02  0.15885385051E+03  0.12509000000E+03 0.  0.
<mgrwt>
<rscale>  2 0.45581400E+03</rscale>
<asrwt>0</asrwt>
<pdfrwt beam="1">  1       21 0.21328455E-01 0.45581400E+03</pdfrwt>
<pdfrwt beam="2">  1       21 0.52666942E-01 0.45581400E+03</pdfrwt>
<totfact> 0.64630017E+04</totfact>
</mgrwt>
</event>
<event>
 7    0  0.4759581E-002  0.4607681E+03  0.7546771E-02  0.1024559E+00
         21   -1    0    0  502  501  0.00000000000E+00  0.00000000000E+00  0.55233317974E+03  0.55233317974E+03  0.00000000000E+00 0. -1.
         21   -1    0    0  501  502 -0.00000000000E+00 -0.00000000000E+00 -0.96095632879E+02  0.96095632879E+02  0.00000000000E+00 0. -1.
      99926    2    1    2    0    0  0.00000000000E+00  0.00000000000E+00  0.45623754686E+03  0.64842881261E+03  0.46076808252E+03 0.  0.
      99925    2    3    3    0    0  0.74261270522E+02  0.92287206248E+02  0.28382601481E+03  0.40469758930E+03  0.26304232999E+03 0.  0.
         25    1    4    4    0    0  0.48358909823E+02  0.82882497402E+02  0.12865452818E+03  0.20348854576E+03  0.12509000000E+03 0.  0.
         25    1    3    3    0    0 -0.74261270522E+02 -0.92287206248E+02  0.17241153204E+03  0.24373122331E+03  0.12509000000E+03 0.  0.
         25    1    4    4    0    0  0.25902360699E+02  0.94047088465E+01  0.15517148663E+03  0.20120904354E+03  0.12509000000E+03 0.  0.
<mgrwt>
<rscale>  2 0.46076808E+03</rscale>
<asrwt>0</asrwt>
<pdfrwt beam="1">  1       21 0.81225466E-01 0.46076808E+03</pdfrwt>
<pdfrwt beam="2">  1       21 0.14131711E-01 0.46076808E+03</pdfrwt>
<totfact> 0.53323653E+04</totfact>
</mgrwt>
</event>
<event>
 7    0  0.4759581E-002  0.4668070E+03  0.7546771E-02  0.1022825E+00
         21   -1    0    0  502  501  0.00000000000E+00  0.00000000000E+00  0.36060140891E+03  0.36060140891E+03  0.00000000000E+00 0. -1.
         21   -1    0    0  501  502 -0.00000000000E+00 -0.00000000000E+00 -0.15107317515E+03  0.15107317515E+03  0.00000000000E+00 0. -1.
      99926    2    1    2    0    0  0.14210854715E-13  0.00000000000E+00  0.20952823376E+03  0.51167458406E+03  0.46680702568E+03 0.  0.
      99925    2    3    3    0    0  0.10457253114E+03  0.37318423600E+02  0.19064276623E+03  0.34335272573E+03  0.26309380635E+03 0.  0.
         25    1    3    3    0    0 -0.10457253114E+03 -0.37318423600E+02  0.18885467534E+02  0.16832185833E+03  0.12509000000E+03 0.  0.
         25    1    4    4    0    0  0.68970483045E+02 -0.14561397081E+02  0.11655789235E+03  0.18493840106E+03  0.12509000000E+03 0.  0.
         25    1    4    4    0    0  0.35602048095E+02  0.51879820681E+02  0.74084873879E+02  0.15841432467E+03  0.12509000000E+03 0.  0.
<mgrwt>
<rscale>  2 0.46680703E+03</rscale>
<asrwt>0</asrwt>
<pdfrwt beam="1">  1       21 0.53029619E-01 0.46680703E+03</pdfrwt>
<pdfrwt beam="2">  1       21 0.22216643E-01 0.46680703E+03</pdfrwt>
<totfact> 0.58755618E+04</totfact>
</mgrwt>
</event>
<event>
 7    0  0.4759581E-002  0.4451955E+03  0.7546771E-02  0.1029165E+00
         21   -1    0    0  502  501  0.00000000000E+00  0.00000000000E+00  0.96053403230E+03  0.96053403230E+03  0.00000000000E+00 0. -1.
         21   -1    0    0  501  502 -0.00000000000E+00 -0.00000000000E+00 -0.51585631451E+02  0.51585631451E+02  0.00000000000E+00 0. -1.
      99926    2    1    2    0    0  0.00000000000E+00 -0.88817841970E-15  0.90894840085E+03  0.10121196638E+04  0.44519548330E+03 0.  0.
      99925    2    3    3    0    0  0.23181702666E+02 -0.52440882271E+01  0.34770280132E+03  0.43661204183E+03  0.26299799472E+03 0.  0.
         25    1    3    3    0    0 -0.23181702666E+02  0.52440882271E+01  0.56124559953E+03  0.57550762192E+03  0.12509000000E+03 0.  0.
         25    1    4    4    0    0 -0.17510789100E+02  0.17058540089E+02  0.13613186264E+03  0.18648596100E+03  0.12509000000E+03 0.  0.
         25    1    4    4    0    0  0.40692491767E+02 -0.22302628316E+02  0.21157093869E+03  0.25012608083E+03  0.12509000000E+03 0.  0.
<mgrwt>
<rscale>  2 0.44519548E+03</rscale>
<asrwt>0</asrwt>
<pdfrwt beam="1">  1       21 0.14125499E+00 0.44519548E+03</pdfrwt>
<pdfrwt beam="2">  1       21 0.75861229E-02 0.44519548E+03</pdfrwt>
<totfact> 0.41808947E+04</totfact>
</mgrwt>
</event>
<event>
 7    0  0.4759581E-002  0.4399980E+03  0.7546771E-02  0.1030747E+00
         21   -1    0    0  502  501  0.00000000000E+00  0.00000000000E+00  0.27266994211E+03  0.27266994211E+03  0.00000000000E+00 0.  1.
         21   -1    0    0  501  502 -0.00000000000E+00 -0.00000000000E+00 -0.17750233693E+03  0.17750233693E+03  0.00000000000E+00 0.  1.
      99926    2    1    2    0    0  0.00000000000E+00  0.00000000000E+00  0.95167605181E+02  0.45017227903E+03  0.43999796333E+03 0.  0.
      99925    2    3    3    0    0  0.64696844677E+02  0.62880562206E+02  0.20065283905E+02  0.27862778458E+03  0.26285201142E+03 0.  0.
         25    1    4    4    0    0  0.54293251887E+02  0.48939823830E+02 -0.19718315955E+02  0.14621622222E+03  0.12509000000E+03 0.  0.
         25    1    3    3    0    0 -0.64696844677E+02 -0.62880562206E+02  0.75102321277E+02  0.17154449445E+03  0.12509000000E+03 0.  0.
         25    1    4    4    0    0  0.10403592790E+02  0.13940738375E+02  0.39783599860E+02  0.13241156236E+03  0.12509000000E+03 0.  0.
<mgrwt>
<rscale>  2 0.43999796E+03</rscale>
<asrwt>0</asrwt>
<pdfrwt beam="1">  1       21 0.40098521E-01 0.43999796E+03</pdfrwt>
<pdfrwt beam="2">  1       21 0.26103285E-01 0.43999796E+03</pdfrwt>
<totfact> 0.77792104E+04</totfact>
</mgrwt>
</event>
<event>
 7    0  0.4759581E-002  0.4541822E+03  0.7546771E-02  0.1026482E+00
         21   -1    0    0  502  501  0.00000000000E+00  0.00000000000E+00  0.38921963620E+03  0.38921963620E+03  0.00000000000E+00 0.  1.
         21   -1    0    0  501  502 -0.00000000000E+00 -0.00000000000E+00 -0.13249684759E+03  0.13249684759E+03  0.00000000000E+00 0.  1.
      99926    2    1    2    0    0  0.14210854715E-13  0.17763568394E-14  0.25672278862E+03  0.52171648379E+03  0.45418223134E+03 0.  0.
      99925    2    3    3    0    0  0.10961849699E+03 -0.14779004723E+02  0.18327319283E+03  0.33929667926E+03  0.26324615759E+03 0.  0.
         25    1    4    4    0    0  0.47844372185E+02 -0.43050925589E+02  0.11357446648E+03  0.18080136526E+03  0.12509000000E+03 0.  0.
         25    1    4    4    0    0  0.61774124810E+02  0.28271920866E+02  0.69698726350E+02  0.15849531400E+03  0.12509000000E+03 0.  0.
         25    1    3    3    0    0 -0.10961849699E+03  0.14779004723E+02  0.73449595781E+02  0.18241980453E+03  0.12509000000E+03 0.  0.
<mgrwt>
<rscale>  2 0.45418223E+03</rscale>
<asrwt>0</asrwt>
<pdfrwt beam="1">  1       21 0.57238182E-01 0.45418223E+03</pdfrwt>
<pdfrwt beam="2">  1       21 0.19484831E-01 0.45418223E+03</pdfrwt>
<totfact> 0.64185810E+04</totfact>
</mgrwt>
</event>
<event>
 7    0  0.4759581E-002  0.4539276E+03  0.7546771E-02  0.1026557E+00
         21   -1    0    0  502  501  0.00000000000E+00  0.00000000000E+00  0.42326610589E+02  0.42326610589E+02  0.00000000000E+00 0. -1.
         21   -1    0    0  501  502 -0.00000000000E+00 -0.00000000000E+00 -0.12170256400E+04  0.12170256400E+04  0.00000000000E+00 0. -1.
      99926    2    1    2    0    0  0.00000000000E+00  0.00000000000E+00 -0.11746990294E+04  0.12593522506E+04  0.45392761688E+03 0.  0.
      99925    2    3    3    0    0 -0.87978458228E+02  0.69633700898E+02 -0.74777483093E+03  0.80054854446E+03  0.26291008510E+03 0.  0.
         25    1    4    4    0    0 -0.72355201233E+02  0.63206381373E+02 -0.36904427772E+03  0.40133715104E+03  0.12509000000E+03 0.  0.
         25    1    4    4    0    0 -0.15623256996E+02  0.64273195259E+01 -0.37873055321E+03  0.39921139341E+03  0.12509000000E+03 0.  0.
         25    1    3    3    0    0  0.87978458228E+02 -0.69633700898E+02 -0.42692419851E+03  0.45880370616E+03  0.12509000000E+03 0.  0.
<mgrwt>
<rscale>  2 0.45392762E+03</rscale>
<asrwt>0</asrwt>
<pdfrwt beam="1">  1       21 0.62245026E-02 0.45392762E+03</pdfrwt>
<pdfrwt beam="2">  1       21 0.17897433E+00 0.45392762E+03</pdfrwt>
<totfact> 0.30572806E+04</totfact>
</mgrwt>
</event>
<event>
 7    0  0.4759581E-002  0.4591799E+03  0.7546771E-02  0.1025019E+00
         21   -1    0    0  502  501  0.00000000000E+00  0.00000000000E+00  0.41960215402E+03  0.41960215402E+03  0.00000000000E+00 0.  1.
         21   -1    0    0  501  502 -0.00000000000E+00 -0.00000000000E+00 -0.12562269577E+03  0.12562269577E+03  0.00000000000E+00 0.  1.
      99926    2    1    2    0    0  0.00000000000E+00 -0.14210854715E-13  0.29397945825E+03  0.54522484980E+03  0.45917993745E+03 0.  0.
      99925    2    3    3    0    0 -0.11679142947E+02  0.11099366250E+03  0.22602525689E+03  0.36433461491E+03  0.26305189483E+03 0.  0.
         25    1    4    4    0    0  0.18001659990E+02  0.59958651484E+02  0.15519923201E+03  0.20893398328E+03  0.12509000000E+03 0.  0.
         25    1    3    3    0    0  0.11679142947E+02 -0.11099366250E+03  0.67954201363E+02  0.18089023489E+03  0.12509000000E+03 0.  0.
         25    1    4    4    0    0 -0.29680802937E+02  0.51035011013E+02  0.70826024873E+02  0.15540063163E+03  0.12509000000E+03 0.  0.
<mgrwt>
<rscale>  2 0.45917994E+03</rscale>
<asrwt>0</asrwt>
<pdfrwt beam="1">  1       21 0.61706199E-01 0.45917994E+03</pdfrwt>
<pdfrwt beam="2">  1       21 0.18473926E-01 0.45917994E+03</pdfrwt>
<totfact> 0.60168229E+04</totfact>
</mgrwt>
</event>
<event>
 7    0  0.4759581E-002  0.4411241E+03  0.7546771E-02  0.1030402E+00
         21   -1    0    0  502  501  0.00000000000E+00  0.00000000000E+00  0.42350198709E+03  0.42350198709E+03  0.00000000000E+00 0.  1.
         21   -1    0    0  501  502 -0.00000000000E+00 -0.00000000000E+00 -0.11486986967E+03  0.11486986967E+03  0.00000000000E+00 0.  1.
      99926    2    1    2    0    0  0.00000000000E+00  0.00000000000E+00  0.30863211742E+03  0.53837185676E+03  0.44112410073E+03 0.  0.
      99925    2    3    3    0    0  0.21367732822E+02  0.25685064300E+02  0.83208966724E+02  0.27841146073E+03  0.26357713631E+03 0.  0.
         25    1    4    4    0    0 -0.99278087136E+01  0.15068197132E+02  0.78833324140E+02  0.14895574190E+03  0.12509000000E+03 0.  0.
         25    1    3    3    0    0 -0.21367732822E+02 -0.25685064300E+02  0.22542315070E+03  0.25996039603E+03  0.12509000000E+03 0.  0.
         25    1    4    4    0    0  0.31295541536E+02  0.10616867169E+02  0.43756425838E+01  0.12945571883E+03  0.12509000000E+03 0.  0.
<mgrwt>
<rscale>  2 0.44112410E+03</rscale>
<asrwt>0</asrwt>
<pdfrwt beam="1">  1       21 0.62279703E-01 0.44112410E+03</pdfrwt>
<pdfrwt beam="2">  1       21 0.16892628E-01 0.44112410E+03</pdfrwt>
<totfact> 0.70019757E+04</totfact>
</mgrwt>
</event>
<event>
 7    0  0.4759581E-002  0.4325331E+03  0.7546771E-02  0.1033063E+00
         21   -1    0    0  502  501  0.00000000000E+00  0.00000000000E+00  0.44120000818E+03  0.44120000818E+03  0.00000000000E+00 0.  1.
         21   -1    0    0  501  502 -0.00000000000E+00 -0.00000000000E+00 -0.10600911656E+03  0.10600911656E+03  0.00000000000E+00 0.  1.
      99926    2    1    2    0    0  0.71054273576E-14  0.00000000000E+00  0.33519089162E+03  0.54720912474E+03  0.43253311130E+03 0.  0.
      99925    2    3    3    0    0 -0.37963077866E+02  0.56394060962E+02  0.14005833602E+03  0.30566056286E+03  0.26304097933E+03 0.  0.
         25    1    4    4    0    0  0.15708849081E+02  0.32994510327E+02  0.91603536972E+02  0.15929256648E+03  0.12509000000E+03 0.  0.
         25    1    3    3    0    0  0.37963077866E+02 -0.56394060962E+02  0.19513255559E+03  0.24154856188E+03  0.12509000000E+03 0.  0.
         25    1    4    4    0    0 -0.53671926947E+02  0.23399550635E+02  0.48454799051E+02  0.14636799638E+03  0.12509000000E+03 0.  0.
<mgrwt>
<rscale>  2 0.43253311E+03</rscale>
<asrwt>0</asrwt>
<pdfrwt beam="1">  1       21 0.64882353E-01 0.43253311E+03</pdfrwt>
<pdfrwt beam="2">  1       21 0.15589576E-01 0.43253311E+03</pdfrwt>
<totfact> 0.74425134E+04</totfact>
</mgrwt>
</event>
<event>
 7    0  0.4759581E-002  0.4497527E+03  0.7546771E-02  0.1027796E+00
         21   -1    0    0  502  501  0.00000000000E+00  0.00000000000E+00  0.12823219531E+04  0.12823219531E+04  0.00000000000E+00 0. -1.
         21   -1    0    0  501  502 -0.00000000000E+00 -0.00000000000E+00 -0.39435792400E+02  0.39435792400E+02  0.00000000000E+00 0. -1.
      99926    2    1    2    0    0  0.00000000000E+00 -0.14210854715E-13  0.12428861607E+04  0.13217577455E+04  0.44975274243E+03 0.  0.
      99925    2    3    3    0    0  0.37761155753E+02 -0.70214393896E+02  0.57034232970E+03  0.63304976768E+03  0.26287957190E+03 0.  0.
         25    1    4    4    0    0  0.26045287189E+02 -0.57847682462E+02  0.22262199426E+03  0.26312121119E+03  0.12509000000E+03 0.  0.
         25    1    3    3    0    0 -0.37761155753E+02  0.70214393896E+02  0.67254383096E+03  0.68870797778E+03  0.12509000000E+03 0.  0.
         25    1    4    4    0    0  0.11715868564E+02 -0.12366711434E+02  0.34772033544E+03  0.36992855649E+03  0.12509000000E+03 0.  0.
<mgrwt>
<rscale>  2 0.44975274E+03</rscale>
<asrwt>0</asrwt>
<pdfrwt beam="1">  1       21 0.18857673E+00 0.44975274E+03</pdfrwt>
<pdfrwt beam="2">  1       21 0.57993821E-02 0.44975274E+03</pdfrwt>
<totfact> 0.29682064E+04</totfact>
</mgrwt>
</event>
<event>
 7    0  0.4759581E-002  0.4549810E+03  0.7546771E-02  0.1026247E+00
         21   -1    0    0  502  501  0.00000000000E+00  0.00000000000E+00  0.13150446306E+03  0.13150446306E+03  0.00000000000E+00 0.  1.
         21   -1    0    0  501  502 -0.00000000000E+00 -0.00000000000E+00 -0.39353747980E+03  0.39353747980E+03  0.00000000000E+00 0.  1.
      99926    2    1    2    0    0 -0.71054273576E-14  0.00000000000E+00 -0.26203301675E+03  0.52504194286E+03  0.45498103246E+03 0.  0.
      99925    2    3    3    0    0 -0.51886496560E+02  0.66059724736E+02 -0.77487285613E+02  0.28679683643E+03  0.26304381802E+03 0.  0.
         25    1    3    3    0    0  0.51886496560E+02 -0.66059724736E+02 -0.18454573113E+03  0.23824510643E+03  0.12509000000E+03 0.  0.
         25    1    4    4    0    0 -0.25919602433E+02 -0.39277642357E+01 -0.56046777029E+02  0.13955644893E+03  0.12509000000E+03 0.  0.
         25    1    4    4    0    0 -0.25966894126E+02  0.69987488972E+02 -0.21440508584E+02  0.14724038750E+03  0.12509000000E+03 0.  0.
<mgrwt>
<rscale>  2 0.45498103E+03</rscale>
<asrwt>0</asrwt>
<pdfrwt beam="1">  1       21 0.19338891E-01 0.45498103E+03</pdfrwt>
<pdfrwt beam="2">  1       21 0.57873159E-01 0.45498103E+03</pdfrwt>
<totfact> 0.63552951E+04</totfact>
</mgrwt>
</event>
<event>
 7    0  0.4759581E-002  0.4540830E+03  0.7546771E-02  0.1026511E+00
         21   -1    0    0  502  501  0.00000000000E+00  0.00000000000E+00  0.17728160829E+03  0.17728160829E+03  0.00000000000E+00 0. -1.
         21   -1    0    0  501  502 -0.00000000000E+00 -0.00000000000E+00 -0.29076807498E+03  0.29076807498E+03  0.00000000000E+00 0. -1.
      99926    2    1    2    0    0 -0.14210854715E-13  0.00000000000E+00 -0.11348646669E+03  0.46804968327E+03  0.45408295265E+03 0.  0.
      99925    2    3    3    0    0  0.10674220922E+03 -0.77900559249E+01 -0.36252911048E+02  0.28620602950E+03  0.26295443248E+03 0.  0.
         25    1    3    3    0    0 -0.10674220922E+03  0.77900559249E+01 -0.77233555639E+02  0.18184365377E+03  0.12509000000E+03 0.  0.
         25    1    4    4    0    0  0.76036044114E+02 -0.16068484238E+01  0.15589851678E+02  0.14722300616E+03  0.12509000000E+03 0.  0.
         25    1    4    4    0    0  0.30706165104E+02 -0.61832075011E+01 -0.51842762726E+02  0.13898302334E+03  0.12509000000E+03 0.  0.
<mgrwt>
<rscale>  2 0.45408295E+03</rscale>
<asrwt>0</asrwt>
<pdfrwt beam="1">  1       21 0.26070825E-01 0.45408295E+03</pdfrwt>
<pdfrwt beam="2">  1       21 0.42760011E-01 0.45408295E+03</pdfrwt>
<totfact> 0.68074968E+04</totfact>
</mgrwt>
</event>
<event>
 7    0  0.4759581E-002  0.4830222E+03  0.7546771E-02  0.1018308E+00
         21   -1    0    0  502  501  0.00000000000E+00  0.00000000000E+00  0.32526869757E+03  0.32526869757E+03  0.00000000000E+00 0.  1.
         21   -1    0    0  501  502 -0.00000000000E+00 -0.00000000000E+00 -0.17932130644E+03  0.17932130644E+03  0.00000000000E+00 0.  1.
      99926    2    1    2    0    0  0.00000000000E+00  0.00000000000E+00  0.14594739113E+03  0.50459000400E+03  0.48302218496E+03 0.  0.
      99925    2    3    3    0    0  0.13643482513E+03  0.18506003711E+02  0.95845867140E+02  0.31193849353E+03  0.26298718564E+03 0.  0.
         25    1    3    3    0    0 -0.13643482513E+03 -0.18506003711E+02  0.50101523990E+02  0.19265151048E+03  0.12509000000E+03 0.  0.
         25    1    4    4    0    0  0.70013862600E+02 -0.28208998233E+02  0.63671005117E+02  0.15937124436E+03  0.12509000000E+03 0.  0.
         25    1    4    4    0    0  0.66420962534E+02  0.46715001944E+02  0.32174862023E+02  0.15256724916E+03  0.12509000000E+03 0.  0.
<mgrwt>
<rscale>  2 0.48302218E+03</rscale>
<asrwt>0</asrwt>
<pdfrwt beam="1">  1       21 0.47833632E-01 0.48302218E+03</pdfrwt>
<pdfrwt beam="2">  1       21 0.26370780E-01 0.48302218E+03</pdfrwt>
<totfact> 0.52308815E+04</totfact>
</mgrwt>
</event>
<event>
 7    0  0.4759581E-002  0.4552213E+03  0.7546771E-02  0.1026176E+00
         21   -1    0    0  502  501  0.00000000000E+00  0.00000000000E+00  0.19017318186E+03  0.19017318186E+03  0.00000000000E+00 0.  1.
         21   -1    0    0  501  502 -0.00000000000E+00 -0.00000000000E+00 -0.27241801120E+03  0.27241801120E+03  0.00000000000E+00 0.  1.
      99926    2    1    2    0    0  0.00000000000E+00  0.71054273576E-14 -0.82244829339E+02  0.46259119306E+03  0.45522126482E+03 0.  0.
      99925    2    3    3    0    0  0.10460605433E+03  0.43837901451E+02 -0.47102981158E+02  0.29011903357E+03  0.26284249009E+03 0.  0.
         25    1    3    3    0    0 -0.10460605433E+03 -0.43837901451E+02 -0.35141848181E+02  0.17247215949E+03  0.12509000000E+03 0.  0.
         25    1    4    4    0    0  0.19439531619E+02  0.21508815489E+02  0.50476880618E+01  0.12850490959E+03  0.12509000000E+03 0.  0.
         25    1    4    4    0    0  0.85166522707E+02  0.22329085961E+02 -0.52150669219E+02  0.16161412398E+03  0.12509000000E+03 0.  0.
<mgrwt>
<rscale>  2 0.45522126E+03</rscale>
<asrwt>0</asrwt>
<pdfrwt beam="1">  1       21 0.27966645E-01 0.45522126E+03</pdfrwt>
<pdfrwt beam="2">  1       21 0.40061472E-01 0.45522126E+03</pdfrwt>
<totfact> 0.67869854E+04</totfact>
</mgrwt>
</event>
<event>
 7    0  0.4759581E-002  0.4460488E+03  0.7546771E-02  0.1028907E+00
         21   -1    0    0  502  501  0.00000000000E+00  0.00000000000E+00  0.14364993477E+03  0.14364993477E+03  0.00000000000E+00 0. -1.
         21   -1    0    0  501  502 -0.00000000000E+00 -0.00000000000E+00 -0.34625763214E+03  0.34625763214E+03  0.00000000000E+00 0. -1.
      99926    2    1    2    0    0  0.71054273576E-14  0.00000000000E+00 -0.20260769737E+03  0.48990756691E+03  0.44604881468E+03 0.  0.
      99925    2    3    3    0    0  0.57980236914E+02  0.85860607786E+02 -0.11317751908E+03  0.30449177273E+03  0.26300634401E+03 0.  0.
         25    1    4    4    0    0  0.25735973969E+02  0.33697190464E+02 -0.97768022520E+02  0.16432874164E+03  0.12509000000E+03 0.  0.
         25    1    4    4    0    0  0.32244262945E+02  0.52163417322E+02 -0.15409496558E+02  0.14016303109E+03  0.12509000000E+03 0.  0.
         25    1    3    3    0    0 -0.57980236914E+02 -0.85860607786E+02 -0.89430178292E+02  0.18541579418E+03  0.12509000000E+03 0.  0.
<mgrwt>
<rscale>  2 0.44604881E+03</rscale>
<asrwt>0</asrwt>
<pdfrwt beam="1">  1       21 0.21124991E-01 0.44604881E+03</pdfrwt>
<pdfrwt beam="2">  1       21 0.50920239E-01 0.44604881E+03</pdfrwt>
<totfact> 0.70890753E+04</totfact>
</mgrwt>
</event>
<event>
 7    0  0.4759581E-002  0.4607308E+03  0.7546771E-02  0.1024569E+00
         21   -1    0    0  502  501  0.00000000000E+00  0.00000000000E+00  0.78234123273E+02  0.78234123273E+02  0.00000000000E+00 0. -1.
         21   -1    0    0  501  502 -0.00000000000E+00 -0.00000000000E+00 -0.67832583474E+03  0.67832583474E+03  0.00000000000E+00 0. -1.
      99926    2    1    2    0    0  0.35527136788E-14  0.00000000000E+00 -0.60009171147E+03  0.75655995801E+03  0.46073084105E+03 0.  0.
      99925    2    3    3    0    0 -0.23540471286E+02  0.36194255805E+02 -0.55634015885E+03  0.61718318664E+03  0.26369781111E+03 0.  0.
         25    1    4    4    0    0 -0.39640702787E+02 -0.33810399270E+01 -0.32880801312E+03  0.35404100658E+03  0.12509000000E+03 0.  0.
         25    1    3    3    0    0  0.23540471286E+02 -0.36194255805E+02 -0.43751552618E+02  0.13937677137E+03  0.12509000000E+03 0.  0.
         25    1    4    4    0    0  0.16100231501E+02  0.39575295732E+02 -0.22753214572E+03  0.26314218006E+03  0.12509000000E+03 0.  0.
<mgrwt>
<rscale>  2 0.46073084E+03</rscale>
<asrwt>0</asrwt>
<pdfrwt beam="1">  1       21 0.11505018E-01 0.46073084E+03</pdfrwt>
<pdfrwt beam="2">  1       21 0.99753798E-01 0.46073084E+03</pdfrwt>
<totfact> 0.47750417E+04</totfact>
</mgrwt>
</event>
<event>
 7    0  0.4759581E-002  0.4344521E+03  0.7546771E-02  0.1032463E+00
         21   -1    0    0  502  501  0.00000000000E+00  0.00000000000E+00  0.12692816138E+03  0.12692816138E+03  0.00000000000E+00 0. -1.
         21   -1    0    0  501  502 -0.00000000000E+00 -0.00000000000E+00 -0.37176269877E+03  0.37176269877E+03  0.00000000000E+00 0. -1.
      99926    2    1    2    0    0  0.00000000000E+00  0.00000000000E+00 -0.24483453739E+03  0.49869086015E+03  0.43445209552E+03 0.  0.
      99925    2    3    3    0    0  0.48223031346E+02  0.37289186649E+02 -0.77148353698E+02  0.28078696277E+03  0.26300856600E+03 0.  0.
         25    1    3    3    0    0 -0.48223031346E+02 -0.37289186649E+02 -0.16768618369E+03  0.21790389738E+03  0.12509000000E+03 0.  0.
         25    1    4    4    0    0  0.53776243768E+02 -0.75769897402E+01 -0.29686604112E+02  0.13956395570E+03  0.12509000000E+03 0.  0.
         25    1    4    4    0    0 -0.55532124216E+01  0.44866176389E+02 -0.47461749586E+02  0.14122300707E+03  0.12509000000E+03 0.  0.
<mgrwt>
<rscale>  2 0.43445210E+03</rscale>
<asrwt>0</asrwt>
<pdfrwt beam="1">  1       21 0.18665906E-01 0.43445210E+03</pdfrwt>
<pdfrwt beam="2">  1       21 0.54670985E-01 0.43445210E+03</pdfrwt>
<totfact> 0.77204502E+04</totfact>
</mgrwt>
</event>
<event>
 7    0  0.4759581E-002  0.4498922E+03  0.7546771E-02  0.1027754E+00
         21   -1    0    0  502  501  0.00000000000E+00  0.00000000000E+00  0.29083152303E+03  0.29083152303E+03  0.00000000000E+00 0.  1.
         21   -1    0    0  501  502 -0.00000000000E+00 -0.00000000000E+00 -0.17398647921E+03  0.17398647921E+03  0.00000000000E+00 0.  1.
      99926    2    1    2    0    0  0.35527136788E-14  0.00000000000E+00  0.11684504382E+03  0.46481800224E+03  0.44989222147E+03 0.  0.
      99925    2    3    3    0    0  0.30054627483E+02 -0.10361395741E+03  0.63695660755E+02  0.29129135350E+03  0.26297220884E+03 0.  0.
         25    1    4    4    0    0  0.41826331778E+02 -0.75841732547E+02  0.56890754877E+02  0.16243606901E+03  0.12509000000E+03 0.  0.
         25    1    4    4    0    0 -0.11771704296E+02 -0.27772224859E+02  0.68049058778E+01  0.12885528448E+03  0.12509000000E+03 0.  0.
         25    1    3    3    0    0 -0.30054627483E+02  0.10361395741E+03  0.53149383068E+02  0.17352664874E+03  0.12509000000E+03 0.  0.
<mgrwt>
<rscale>  2 0.44989222E+03</rscale>
<asrwt>0</asrwt>
<pdfrwt beam="1">  1       21 0.42769341E-01 0.44989222E+03</pdfrwt>
<pdfrwt beam="2">  1       21 0.25586247E-01 0.44989222E+03</pdfrwt>
<totfact> 0.70642308E+04</totfact>
</mgrwt>
</event>
<event>
 7    0  0.4759581E-002  0.5212664E+03  0.7546771E-02  0.1008372E+00
         21   -1    0    0  502  501  0.00000000000E+00  0.00000000000E+00  0.40743528423E+02  0.40743528423E+02  0.00000000000E+00 0.  1.
         21   -1    0    0  501  502 -0.00000000000E+00 -0.00000000000E+00 -0.16672507030E+04  0.16672507030E+04  0.00000000000E+00 0.  1.
      99926    2    1    2    0    0  0.00000000000E+00 -0.17763568394E-14 -0.16265071746E+04  0.17079942315E+04  0.52126644399E+03 0.  0.
      99925    2    3    3    0    0 -0.32595153811E+02  0.14090629677E+02 -0.43623359079E+03  0.51063893651E+03  0.26304255901E+03 0.  0.
         25    1    4    4    0    0 -0.15851800833E+02 -0.32650249656E+02 -0.19745583095E+03  0.23654520005E+03  0.12509000000E+03 0.  0.
         25    1    4    4    0    0 -0.16743352978E+02  0.46740879333E+02 -0.23877775984E+03  0.27409373645E+03  0.12509000000E+03 0.  0.
         25    1    3    3    0    0  0.32595153811E+02 -0.14090629677E+02 -0.11902735838E+04  0.11973552950E+04  0.12509000000E+03 0.  0.
<mgrwt>
<rscale>  2 0.52126644E+03</rscale>
<asrwt>0</asrwt>
<pdfrwt beam="1">  1       21 0.59916970E-02 0.52126644E+03</pdfrwt>
<pdfrwt beam="2">  1       21 0.24518386E+00 0.52126644E+03</pdfrwt>
<totfact> 0.11777285E+04</totfact>
</mgrwt>
</event>
<event>
 6    0  0.4759581E-002  0.4347086E+03  0.7546771E-02  0.1032383E+00
         21   -1    0    0  502  501  0.00000000000E+00  0.00000000000E+00  0.73241099887E+03  0.73241099887E+03  0.00000000000E+00 0.  1.
         21   -1    0    0  501  502 -0.00000000000E+00 -0.00000000000E+00 -0.64503245065E+02  0.64503245065E+02  0.00000000000E+00 0.  1.
      99926    2    1    2    0    0  0.17763568394E-14 -0.71054273576E-14  0.66790775381E+03  0.79691424394E+03  0.43470857433E+03 0.  0.
         25    1    3    3    0    0 -0.36830032699E+01  0.32108440004E+02  0.83766286742E+02  0.15397667137E+03  0.12509000000E+03 0.  0.
         25    1    3    3    0    0  0.17816842477E+02  0.61455709653E+01  0.19765945759E+03  0.23467419371E+03  0.12509000000E+03 0.  0.
         25    1    3    3    0    0 -0.14133839207E+02 -0.38254010970E+02  0.38648200948E+03  0.40826337886E+03  0.12509000000E+03 0.  0.
<mgrwt>
<rscale>  2 0.43470857E+03</rscale>
<asrwt>0</asrwt>
<pdfrwt beam="1">  1       21 0.10770749E+00 0.43470857E+03</pdfrwt>
<pdfrwt beam="2">  1       21 0.94857718E-02 0.43470857E+03</pdfrwt>
<totfact> 0.56369394E+04</totfact>
</mgrwt>
</event>
<event>
 7    0  0.4759581E-002  0.4617468E+03  0.7546771E-02  0.1024276E+00
         21   -1    0    0  502  501  0.00000000000E+00  0.00000000000E+00  0.27672690691E+03  0.27672690691E+03  0.00000000000E+00 0. -1.
         21   -1    0    0  501  502 -0.00000000000E+00 -0.00000000000E+00 -0.19261777408E+03  0.19261777408E+03  0.00000000000E+00 0. -1.
      99926    2    1    2    0    0  0.22204460493E-14  0.00000000000E+00  0.84109132831E+02  0.46934468099E+03  0.46174677405E+03 0.  0.
      99925    2    3    3    0    0  0.32361945316E+01 -0.66711590958E+02 -0.47921130804E+02  0.27559120892E+03  0.26304594719E+03 0.  0.
         25    1    4    4    0    0 -0.24039794017E+02 -0.81262058954E+00 -0.24060436415E+02  0.12963404163E+03  0.12509000000E+03 0.  0.
         25    1    4    4    0    0  0.27275988548E+02 -0.65898970368E+02 -0.23860694389E+02  0.14595716729E+03  0.12509000000E+03 0.  0.
         25    1    3    3    0    0 -0.32361945316E+01  0.66711590958E+02  0.13203026364E+03  0.19375347207E+03  0.12509000000E+03 0.  0.
<mgrwt>
<rscale>  2 0.46174677E+03</rscale>
<asrwt>0</asrwt>
<pdfrwt beam="1">  1       21 0.40695133E-01 0.46174677E+03</pdfrwt>
<pdfrwt beam="2">  1       21 0.28326143E-01 0.46174677E+03</pdfrwt>
<totfact> 0.63987581E+04</totfact>
</mgrwt>
</event>
<event>
 7    0  0.4759581E-002  0.4427266E+03  0.7546771E-02  0.1029914E+00
         21   -1    0    0  502  501  0.00000000000E+00  0.00000000000E+00  0.25697952430E+02  0.25697952430E+02  0.00000000000E+00 0.  1.
         21   -1    0    0  501  502 -0.00000000000E+00 -0.00000000000E+00 -0.19068329808E+04  0.19068329808E+04  0.00000000000E+00 0.  1.
      99926    2    1    2    0    0  0.00000000000E+00  0.00000000000E+00 -0.18811350283E+04  0.19325309332E+04  0.44272656677E+03 0.  0.
      99925    2    3    3    0    0  0.87572415278E+02 -0.44232988377E+02 -0.10838856879E+04  0.11195859756E+04  0.26275290125E+03 0.  0.
         25    1    4    4    0    0  0.19514315761E+02 -0.24975123024E+02 -0.64471464193E+03  0.65750212388E+03  0.12509000000E+03 0.  0.
         25    1    3    3    0    0 -0.87572415278E+02  0.44232988377E+02 -0.79724934039E+03  0.81294495757E+03  0.12509000000E+03 0.  0.
         25    1    4    4    0    0  0.68058099517E+02 -0.19257865353E+02 -0.43917104601E+03  0.46208385174E+03  0.12509000000E+03 0.  0.
<mgrwt>
<rscale>  2 0.44272657E+03</rscale>
<asrwt>0</asrwt>
<pdfrwt beam="1">  1       21 0.37791101E-02 0.44272657E+03</pdfrwt>
<pdfrwt beam="2">  1       21 0.28041666E+00 0.44272657E+03</pdfrwt>
<totfact> 0.16345274E+04</totfact>
</mgrwt>
</event>
<event>
 7    0  0.4759581E-002  0.4489183E+03  0.7546771E-02  0.1028045E+00
         21   -1    0    0  502  501  0.00000000000E+00  0.00000000000E+00  0.14948537701E+03  0.14948537701E+03  0.00000000000E+00 0. -1.
         21   -1    0    0  501  502 -0.00000000000E+00 -0.00000000000E+00 -0.33703566150E+03  0.33703566150E+03  0.00000000000E+00 0. -1.
      99926    2    1    2    0    0  0.14210854715E-13  0.00000000000E+00 -0.18755028449E+03  0.48652103851E+03  0.44891826840E+03 0.  0.
      99925    2    3    3    0    0 -0.10571045827E+03  0.13915728629E+02 -0.13205239877E+03  0.31303942015E+03  0.26303515745E+03 0.  0.
         25    1    4    4    0    0 -0.27648403089E+02  0.34525668141E+02 -0.81973317009E+02  0.15596021530E+03  0.12509000000E+03 0.  0.
         25    1    4    4    0    0 -0.78062055184E+02 -0.20609939512E+02 -0.50079081758E+02  0.15707920485E+03  0.12509000000E+03 0.  0.
         25    1    3    3    0    0  0.10571045827E+03 -0.13915728629E+02 -0.55497885726E+02  0.17348161837E+03  0.12509000000E+03 0.  0.
<mgrwt>
<rscale>  2 0.44891827E+03</rscale>
<asrwt>0</asrwt>
<pdfrwt beam="1">  1       21 0.21983144E-01 0.44891827E+03</pdfrwt>
<pdfrwt beam="2">  1       21 0.49564068E-01 0.44891827E+03</pdfrwt>
<totfact> 0.69524971E+04</totfact>
</mgrwt>
</event>
<event>
 7    0  0.4759581E-002  0.4604092E+03  0.7546771E-02  0.1024663E+00
         21   -1    0    0  502  501  0.00000000000E+00  0.00000000000E+00  0.28492945984E+03  0.28492945984E+03  0.00000000000E+00 0.  1.
         21   -1    0    0  501  502 -0.00000000000E+00 -0.00000000000E+00 -0.18599041418E+03  0.18599041418E+03  0.00000000000E+00 0.  1.
      99926    2    1    2    0    0  0.00000000000E+00  0.00000000000E+00  0.98939045659E+02  0.47091987403E+03  0.46040915825E+03 0.  0.
      99925    2    3    3    0    0  0.27104208452E+02  0.11494793711E+03  0.58806590028E+02  0.29426827212E+03  0.26303599484E+03 0.  0.
         25    1    3    3    0    0 -0.27104208452E+02 -0.11494793711E+03  0.40132455631E+02  0.17665160191E+03  0.12509000000E+03 0.  0.
         25    1    4    4    0    0 -0.11635316408E+02  0.61090346733E+02  0.61534159427E+02  0.15264786906E+03  0.12509000000E+03 0.  0.
         25    1    4    4    0    0  0.38739524860E+02  0.53857590378E+02 -0.27275693986E+01  0.14162040306E+03  0.12509000000E+03 0.  0.
<mgrwt>
<rscale>  2 0.46040916E+03</rscale>
<asrwt>0</asrwt>
<pdfrwt beam="1">  1       21 0.41901391E-01 0.46040916E+03</pdfrwt>
<pdfrwt beam="2">  1       21 0.27351531E-01 0.46040916E+03</pdfrwt>
<totfact> 0.64552571E+04</totfact>
</mgrwt>
</event>
<event>
 7    0  0.4759581E-002  0.4508742E+03  0.7546771E-02  0.1027462E+00
         21   -1    0    0  502  501  0.00000000000E+00  0.00000000000E+00  0.12118543441E+03  0.12118543441E+03  0.00000000000E+00 0. -1.
         21   -1    0    0  501  502 -0.00000000000E+00 -0.00000000000E+00 -0.41937286971E+03  0.41937286971E+03  0.00000000000E+00 0. -1.
      99926    2    1    2    0    0  0.71054273576E-14  0.14210854715E-13 -0.29818743530E+03  0.54055830412E+03  0.45087418819E+03 0.  0.
      99925    2    3    3    0    0  0.31896570502E+02  0.10360112566E+03 -0.17083213933E+03  0.33171035953E+03  0.26286414427E+03 0.  0.
         25    1    4    4    0    0 -0.98313398639E+01  0.59073669590E+02 -0.12045221829E+03  0.18369158575E+03  0.12509000000E+03 0.  0.
         25    1    4    4    0    0  0.41727910366E+02  0.44527456069E+02 -0.50379921032E+02  0.14801877378E+03  0.12509000000E+03 0.  0.
         25    1    3    3    0    0 -0.31896570502E+02 -0.10360112566E+03 -0.12735529598E+03  0.20884794459E+03  0.12509000000E+03 0.  0.
<mgrwt>
<rscale>  2 0.45087419E+03</rscale>
<asrwt>0</asrwt>
<pdfrwt beam="1">  1       21 0.17821387E-01 0.45087419E+03</pdfrwt>
<pdfrwt beam="2">  1       21 0.61672481E-01 0.45087419E+03</pdfrwt>
<totfact> 0.64577582E+04</totfact>
</mgrwt>
</event>
<event>
 7    0  0.4759581E-002  0.4496229E+03  0.7546771E-02  0.1027835E+00
         21   -1    0    0  502  501  0.00000000000E+00  0.00000000000E+00  0.30640730976E+03  0.30640730976E+03  0.00000000000E+00 0. -1.
         21   -1    0    0  501  502 -0.00000000000E+00 -0.00000000000E+00 -0.16494443111E+03  0.16494443111E+03  0.00000000000E+00 0. -1.
      99926    2    1    2    0    0  0.00000000000E+00  0.00000000000E+00  0.14146287865E+03  0.47135174087E+03  0.44962286150E+03 0.  0.
      99925    2    3    3    0    0 -0.74504286886E+02  0.76826584300E+02  0.10122868252E+03  0.30188342095E+03  0.26350169043E+03 0.  0.
         25    1    3    3    0    0  0.74504286886E+02 -0.76826584300E+02  0.40234196123E+02  0.16946831992E+03  0.12509000000E+03 0.  0.
         25    1    4    4    0    0 -0.54845232456E+02  0.70595999020E+02  0.80071731803E+02  0.17335162224E+03  0.12509000000E+03 0.  0.
         25    1    4    4    0    0 -0.19659054431E+02  0.62305852792E+01  0.21156950721E+02  0.12853179870E+03  0.12509000000E+03 0.  0.
<mgrwt>
<rscale>  2 0.44962286E+03</rscale>
<asrwt>0</asrwt>
<pdfrwt beam="1">  1       21 0.45059899E-01 0.44962286E+03</pdfrwt>
<pdfrwt beam="2">  1       21 0.24256534E-01 0.44962286E+03</pdfrwt>
<totfact> 0.70286899E+04</totfact>
</mgrwt>
</event>
<event>
 7    0  0.4759581E-002  0.4472531E+03  0.7546771E-02  0.1028544E+00
         21   -1    0    0  502  501  0.00000000000E+00  0.00000000000E+00  0.30554384525E+03  0.30554384525E+03  0.00000000000E+00 0. -1.
         21   -1    0    0  501  502 -0.00000000000E+00 -0.00000000000E+00 -0.16367152263E+03  0.16367152263E+03  0.00000000000E+00 0. -1.
      99926    2    1    2    0    0  0.00000000000E+00  0.00000000000E+00  0.14187232262E+03  0.46921536788E+03  0.44725306654E+03 0.  0.
      99925    2    3    3    0    0 -0.68325356066E+02 -0.80316769752E+02  0.98940140043E+02  0.30007099704E+03  0.26293404909E+03 0.  0.
         25    1    4    4    0    0 -0.52671491054E+02 -0.72594921388E+02  0.32328165431E+02  0.15727977289E+03  0.12509000000E+03 0.  0.
         25    1    4    4    0    0 -0.15653865012E+02 -0.77218483641E+01  0.66611974613E+02  0.14279122415E+03  0.12509000000E+03 0.  0.
         25    1    3    3    0    0  0.68325356066E+02  0.80316769752E+02  0.42932182577E+02  0.16914437084E+03  0.12509000000E+03 0.  0.
<mgrwt>
<rscale>  2 0.44725307E+03</rscale>
<asrwt>0</asrwt>
<pdfrwt beam="1">  1       21 0.44932919E-01 0.44725307E+03</pdfrwt>
<pdfrwt beam="2">  1       21 0.24069341E-01 0.44725307E+03</pdfrwt>
<totfact> 0.71807774E+04</totfact>
</mgrwt>
</event>
<event>
 7    0  0.4759581E-002  0.4523716E+03  0.7546771E-02  0.1027017E+00
         21   -1    0    0  502  501  0.00000000000E+00  0.00000000000E+00  0.36634686074E+03  0.36634686074E+03  0.00000000000E+00 0. -1.
         21   -1    0    0  501  502 -0.00000000000E+00 -0.00000000000E+00 -0.13964909738E+03  0.13964909738E+03  0.00000000000E+00 0. -1.
      99926    2    1    2    0    0  0.00000000000E+00  0.00000000000E+00  0.22669776336E+03  0.50599595812E+03  0.45237156600E+03 0.  0.
      99925    2    3    3    0    0 -0.56708608865E+02  0.46185950268E+02  0.49985086585E+02  0.27747049662E+03  0.26294934739E+03 0.  0.
         25    1    4    4    0    0 -0.60774564251E+02 -0.72366075985E+00  0.20195943860E+02  0.14053275630E+03  0.12509000000E+03 0.  0.
         25    1    3    3    0    0  0.56708608865E+02 -0.46185950268E+02  0.17671267677E+03  0.22852546150E+03  0.12509000000E+03 0.  0.
         25    1    4    4    0    0  0.40659553862E+01  0.46909611028E+02  0.29789142725E+02  0.13693774032E+03  0.12509000000E+03 0.  0.
<mgrwt>
<rscale>  2 0.45237157E+03</rscale>
<asrwt>0</asrwt>
<pdfrwt beam="1">  1       21 0.53874538E-01 0.45237157E+03</pdfrwt>
<pdfrwt beam="2">  1       21 0.20536632E-01 0.45237157E+03</pdfrwt>
<totfact> 0.66222188E+04</totfact>
</mgrwt>
</event>
<event>
 7    0  0.4759581E-002  0.4560854E+03  0.7546771E-02  0.1025923E+00
         21   -1    0    0  502  501  0.00000000000E+00  0.00000000000E+00  0.93479757582E+03  0.93479757582E+03  0.00000000000E+00 0.  1.
         21   -1    0    0  501  502 -0.00000000000E+00 -0.00000000000E+00 -0.55630736899E+02  0.55630736899E+02  0.00000000000E+00 0.  1.
      99926    2    1    2    0    0  0.00000000000E+00  0.00000000000E+00  0.87916683892E+03  0.99042831272E+03  0.45608542180E+03 0.  0.
      99925    2    3    3    0    0 -0.34151389950E+02  0.75155655152E+02  0.72385084863E+03  0.77459213670E+03  0.26309359027E+03 0.  0.
         25    1    3    3    0    0  0.34151389950E+02 -0.75155655152E+02  0.15531599029E+03  0.21583617602E+03  0.12509000000E+03 0.  0.
         25    1    4    4    0    0 -0.55129362444E+02  0.54197908807E+02  0.39816571222E+03  0.42445270928E+03  0.12509000000E+03 0.  0.
         25    1    4    4    0    0  0.20977972495E+02  0.20957746346E+02  0.32568513640E+03  0.35013942742E+03  0.12509000000E+03 0.  0.
<mgrwt>
<rscale>  2 0.45608542E+03</rscale>
<asrwt>0</asrwt>
<pdfrwt beam="1">  1       21 0.13747022E+00 0.45608542E+03</pdfrwt>
<pdfrwt beam="2">  1       21 0.81809913E-02 0.45608542E+03</pdfrwt>
<totfact> 0.39207654E+04</totfact>
</mgrwt>
</event>
<event>
 6    0  0.4759581E-002  0.4634364E+03  0.7546771E-02  0.1023789E+00
         21   -1    0    0  502  501  0.00000000000E+00  0.00000000000E+00  0.42009566199E+03  0.42009566199E+03  0.00000000000E+00 0. -1.
         21   -1    0    0  501  502 -0.00000000000E+00 -0.00000000000E+00 -0.12781212176E+03  0.12781212176E+03  0.00000000000E+00 0. -1.
      99926    2    1    2    0    0  0.00000000000E+00  0.00000000000E+00  0.29228354023E+03  0.54790778375E+03  0.46343637276E+03 0.  0.
         25    1    3    3    0    0  0.95645307161E+02  0.51422201641E+02  0.69715281315E+02  0.17972199685E+03  0.12509000000E+03 0.  0.
         25    1    3    3    0    0 -0.49535087436E+02 -0.69875188516E+01  0.45647481630E+02  0.14224539003E+03  0.12509000000E+03 0.  0.
         25    1    3    3    0    0 -0.46110219725E+02 -0.44434682790E+02  0.17692077729E+03  0.22594039686E+03  0.12509000000E+03 0.  0.
<mgrwt>
<rscale>  2 0.46343637E+03</rscale>
<asrwt>0</asrwt>
<pdfrwt beam="1">  1       21 0.61778774E-01 0.46343637E+03</pdfrwt>
<pdfrwt beam="2">  1       21 0.18795900E-01 0.46343637E+03</pdfrwt>
<totfact> 0.58032725E+04</totfact>
</mgrwt>
</event>
<event>
 7    0  0.4759581E-002  0.4554108E+03  0.7546771E-02  0.1026121E+00
         21   -1    0    0  502  501  0.00000000000E+00  0.00000000000E+00  0.29119910389E+03  0.29119910389E+03  0.00000000000E+00 0.  1.
         21   -1    0    0  501  502 -0.00000000000E+00 -0.00000000000E+00 -0.17805597280E+03  0.17805597280E+03  0.00000000000E+00 0.  1.
      99926    2    1    2    0    0  0.00000000000E+00  0.00000000000E+00  0.11314313109E+03  0.46925507669E+03  0.45541075842E+03 0.  0.
      99925    2    3    3    0    0 -0.23937537886E+02 -0.99887634170E+02  0.21209476069E+02  0.28311037436E+03  0.26296596170E+03 0.  0.
         25    1    4    4    0    0 -0.27961973316E+02 -0.26813424913E+02 -0.19927305299E+02  0.13245919109E+03  0.12509000000E+03 0.  0.
         25    1    3    3    0    0  0.23937537886E+02  0.99887634170E+02  0.91933655023E+02  0.18614470233E+03  0.12509000000E+03 0.  0.
         25    1    4    4    0    0  0.40244354298E+01 -0.73074209257E+02  0.41136781368E+02  0.15065118327E+03  0.12509000000E+03 0.  0.
<mgrwt>
<rscale>  2 0.45541076E+03</rscale>
<asrwt>0</asrwt>
<pdfrwt beam="1">  1       21 0.42823398E-01 0.45541076E+03</pdfrwt>
<pdfrwt beam="2">  1       21 0.26184702E-01 0.45541076E+03</pdfrwt>
<totfact> 0.67271736E+04</totfact>
</mgrwt>
</event>
<event>
 7    0  0.4759581E-002  0.4619247E+03  0.7546771E-02  0.1024224E+00
         21   -1    0    0  502  501  0.00000000000E+00  0.00000000000E+00  0.87932306553E+02  0.87932306553E+02  0.00000000000E+00 0.  1.
         21   -1    0    0  501  502 -0.00000000000E+00 -0.00000000000E+00 -0.60664401212E+03  0.60664401212E+03  0.00000000000E+00 0.  1.
      99926    2    1    2    0    0  0.00000000000E+00 -0.71054273576E-14 -0.51871170557E+03  0.69457631868E+03  0.46192470054E+03 0.  0.
      99925    2    3    3    0    0 -0.10937874745E+03  0.37110680431E+02 -0.37073947594E+03  0.46900105000E+03  0.26300819928E+03 0.  0.
         25    1    4    4    0    0 -0.77380785483E+02  0.54478485138E+02 -0.20921125177E+03  0.26148144728E+03  0.12509000000E+03 0.  0.
         25    1    4    4    0    0 -0.31997961964E+02 -0.17367804708E+02 -0.16152822417E+03  0.20751960272E+03  0.12509000000E+03 0.  0.
         25    1    3    3    0    0  0.10937874745E+03 -0.37110680431E+02 -0.14797222963E+03  0.22557526867E+03  0.12509000000E+03 0.  0.
<mgrwt>
<rscale>  2 0.46192470E+03</rscale>
<asrwt>0</asrwt>
<pdfrwt beam="1">  1       21 0.12931222E-01 0.46192470E+03</pdfrwt>
<pdfrwt beam="2">  1       21 0.89212351E-01 0.46192470E+03</pdfrwt>
<totfact> 0.50394884E+04</totfact>
</mgrwt>
</event>
<event>
 7    0  0.4759581E-002  0.4619300E+03  0.7546771E-02  0.1024223E+00
         21   -1    0    0  502  501  0.00000000000E+00  0.00000000000E+00  0.57836914924E+02  0.57836914924E+02  0.00000000000E+00 0. -1.
         21   -1    0    0  501  502 -0.00000000000E+00 -0.00000000000E+00 -0.92233176340E+03  0.92233176340E+03  0.00000000000E+00 0. -1.
      99926    2    1    2    0    0  0.00000000000E+00  0.71054273576E-14 -0.86449484847E+03  0.98016867832E+03  0.46192996755E+03 0.  0.
      99925    2    3    3    0    0  0.47719956670E+02 -0.31164094478E+02 -0.76466226074E+03  0.81027915916E+03  0.26190751747E+03 0.  0.
         25    1    3    3    0    0 -0.47719956670E+02  0.31164094478E+02 -0.99832587729E+02  0.16988951916E+03  0.12509000000E+03 0.  0.
         25    1    4    4    0    0  0.73563950623E+01 -0.43986063456E+02 -0.44549702450E+03  0.46486987133E+03  0.12509000000E+03 0.  0.
         25    1    4    4    0    0  0.40363561607E+02  0.12821968978E+02 -0.31916523624E+03  0.34540928783E+03  0.12509000000E+03 0.  0.
<mgrwt>
<rscale>  2 0.46192997E+03</rscale>
<asrwt>0</asrwt>
<pdfrwt beam="1">  1       21 0.85054289E-02 0.46192997E+03</pdfrwt>
<pdfrwt beam="2">  1       21 0.13563702E+00 0.46192997E+03</pdfrwt>
<totfact> 0.37850202E+04</totfact>
</mgrwt>
</event>
<event>
 7    0  0.4759581E-002  0.4475552E+03  0.7546771E-02  0.1028454E+00
         21   -1    0    0  502  501  0.00000000000E+00  0.00000000000E+00  0.56203649613E+02  0.56203649613E+02  0.00000000000E+00 0. -1.
         21   -1    0    0  501  502 -0.00000000000E+00 -0.00000000000E+00 -0.89098136387E+03  0.89098136387E+03  0.00000000000E+00 0. -1.
      99926    2    1    2    0    0 -0.71054273576E-14 -0.14210854715E-13 -0.83477771425E+03  0.94718501348E+03  0.44755515587E+03 0.  0.
      99925    2    3    3    0    0  0.40963771875E+02  0.95514471268E+02 -0.57373547947E+03  0.63962753711E+03  0.26296376367E+03 0.  0.
         25    1    4    4    0    0 -0.17400562799E+02  0.38167648930E+02 -0.23805120767E+03  0.27216802638E+03  0.12509000000E+03 0.  0.
         25    1    3    3    0    0 -0.40963771875E+02 -0.95514471268E+02 -0.26104223478E+03  0.30755747637E+03  0.12509000000E+03 0.  0.
         25    1    4    4    0    0  0.58364334675E+02  0.57346822338E+02 -0.33568427180E+03  0.36745951074E+03  0.12509000000E+03 0.  0.
<mgrwt>
<rscale>  2 0.44755516E+03</rscale>
<asrwt>0</asrwt>
<pdfrwt beam="1">  1       21 0.82652434E-02 0.44755516E+03</pdfrwt>
<pdfrwt beam="2">  1       21 0.13102666E+00 0.44755516E+03</pdfrwt>
<totfact> 0.43746875E+04</totfact>
</mgrwt>
</event>
<event>
 6    0  0.4759581E-002  0.4553567E+03  0.7546771E-02  0.1026137E+00
         21   -1    0    0  502  501  0.00000000000E+00  0.00000000000E+00  0.45520287289E+03  0.45520287289E+03  0.00000000000E+00 0. -1.
         21   -1    0    0  501  502 -0.00000000000E+00 -0.00000000000E+00 -0.11387763370E+03  0.11387763370E+03  0.00000000000E+00 0. -1.
      99926    2    1    2    0    0  0.00000000000E+00  0.00000000000E+00  0.34132523919E+03  0.56908050658E+03  0.45535667786E+03 0.  0.
         25    1    3    3    0    0 -0.84246108984E+02 -0.19508655397E+02  0.21454953329E+03  0.26297719454E+03  0.12509000000E+03 0.  0.
         25    1    3    3    0    0  0.51751969851E+02 -0.11574864382E+02  0.23753606816E+02  0.13792746574E+03  0.12509000000E+03 0.  0.
         25    1    3    3    0    0  0.32494139133E+02  0.31083519779E+02  0.10302209908E+03  0.16817584630E+03  0.12509000000E+03 0.  0.
<mgrwt>
<rscale>  2 0.45535668E+03</rscale>
<asrwt>0</asrwt>
<pdfrwt beam="1">  1       21 0.66941598E-01 0.45535668E+03</pdfrwt>
<pdfrwt beam="2">  1       21 0.16746711E-01 0.45535668E+03</pdfrwt>
<totfact> 0.60452294E+04</totfact>
</mgrwt>
</event>
<event>
 7    0  0.4759581E-002  0.4524449E+03  0.7546771E-02  0.1026995E+00
         21   -1    0    0  502  501  0.00000000000E+00  0.00000000000E+00  0.58545644776E+03  0.58545644776E+03  0.00000000000E+00 0.  1.
         21   -1    0    0  501  502 -0.00000000000E+00 -0.00000000000E+00 -0.87413145992E+02  0.87413145992E+02  0.00000000000E+00 0.  1.
      99926    2    1    2    0    0  0.00000000000E+00  0.00000000000E+00  0.49804330177E+03  0.67286959375E+03  0.45244486931E+03 0.  0.
      99925    2    3    3    0    0  0.43493160697E+02 -0.74017971462E+02  0.41822606467E+03  0.50143851558E+03  0.26297761998E+03 0.  0.
         25    1    3    3    0    0 -0.43493160697E+02  0.74017971462E+02  0.79817237100E+02  0.17143107818E+03  0.12509000000E+03 0.  0.
         25    1    4    4    0    0  0.25331813983E+02 -0.78608040067E+02  0.23754916256E+03  0.28088794473E+03  0.12509000000E+03 0.  0.
         25    1    4    4    0    0  0.18161346714E+02  0.45900686051E+01  0.18067690211E+03  0.22055057085E+03  0.12509000000E+03 0.  0.
<mgrwt>
<rscale>  2 0.45244487E+03</rscale>
<asrwt>0</asrwt>
<pdfrwt beam="1">  1       21 0.86096535E-01 0.45244487E+03</pdfrwt>
<pdfrwt beam="2">  1       21 0.12854875E-01 0.45244487E+03</pdfrwt>
<totfact> 0.55510350E+04</totfact>
</mgrwt>
</event>
<event>
 7    0  0.4759581E-002  0.4465247E+03  0.7546771E-02  0.1028764E+00
         21   -1    0    0  502  501  0.00000000000E+00  0.00000000000E+00  0.99646244314E+03  0.99646244314E+03  0.00000000000E+00 0.  1.
         21   -1    0    0  501  502 -0.00000000000E+00 -0.00000000000E+00 -0.50023027126E+02  0.50023027126E+02  0.00000000000E+00 0.  1.
      99926    2    1    2    0    0  0.71054273576E-14  0.28421709430E-13  0.94643941602E+03  0.10464854703E+04  0.44652465922E+03 0.  0.
      99925    2    3    3    0    0 -0.38554399181E+02 -0.80215016827E+02  0.46861435601E+03  0.54460382417E+03  0.26281746521E+03 0.  0.
         25    1    3    3    0    0  0.38554399181E+02  0.80215016827E+02  0.47782506001E+03  0.50188164610E+03  0.12509000000E+03 0.  0.
         25    1    4    4    0    0 -0.27753225897E+01 -0.21921208182E+01  0.19366781526E+03  0.23058022157E+03  0.12509000000E+03 0.  0.
         25    1    4    4    0    0 -0.35779076591E+02 -0.78022896009E+02  0.27494654074E+03  0.31402360260E+03  0.12509000000E+03 0.  0.
<mgrwt>
<rscale>  2 0.44652466E+03</rscale>
<asrwt>0</asrwt>
<pdfrwt beam="1">  1       21 0.14653858E+00 0.44652466E+03</pdfrwt>
<pdfrwt beam="2">  1       21 0.73563282E-02 0.44652466E+03</pdfrwt>
<totfact> 0.39987151E+04</totfact>
</mgrwt>
</event>
<event>
 7    0  0.4759581E-002  0.4599431E+03  0.7546771E-02  0.1024798E+00
         21   -1    0    0  502  501  0.00000000000E+00  0.00000000000E+00  0.70825030903E+02  0.70825030903E+02  0.00000000000E+00 0.  1.
         21   -1    0    0  501  502 -0.00000000000E+00 -0.00000000000E+00 -0.74672620569E+03  0.74672620569E+03  0.00000000000E+00 0.  1.
      99926    2    1    2    0    0  0.11102230246E-14  0.00000000000E+00 -0.67590117479E+03  0.81755123659E+03  0.45994306862E+03 0.  0.
      99925    2    3    3    0    0 -0.61030076468E+00  0.72893172459E+02 -0.58783269160E+03  0.64808928544E+03  0.26298034437E+03 0.  0.
         25    1    4    4    0    0 -0.26227599569E+02  0.44215334083E+02 -0.22669852775E+03  0.26397464524E+03  0.12509000000E+03 0.  0.
         25    1    4    4    0    0  0.25617298805E+02  0.28677838376E+02 -0.36113416385E+03  0.38411464020E+03  0.12509000000E+03 0.  0.
         25    1    3    3    0    0  0.61030076468E+00 -0.72893172459E+02 -0.88068483185E+02  0.16946195115E+03  0.12509000000E+03 0.  0.
<mgrwt>
<rscale>  2 0.45994307E+03</rscale>
<asrwt>0</asrwt>
<pdfrwt beam="1">  1       21 0.10415446E-01 0.45994307E+03</pdfrwt>
<pdfrwt beam="2">  1       21 0.10981268E+00 0.45994307E+03</pdfrwt>
<totfact> 0.45150657E+04</totfact>
</mgrwt>
</event>
<event>
 7    0  0.4759581E-002  0.4528584E+03  0.7546771E-02  0.1026873E+00
         21   -1    0    0  502  501  0.00000000000E+00  0.00000000000E+00  0.18435512285E+03  0.18435512285E+03  0.00000000000E+00 0.  1.
         21   -1    0    0  501  502 -0.00000000000E+00 -0.00000000000E+00 -0.27810550884E+03  0.27810550884E+03  0.00000000000E+00 0.  1.
      99926    2    1    2    0    0  0.00000000000E+00  0.71054273576E-14 -0.93750385995E+02  0.46246063169E+03  0.45285836747E+03 0.  0.
      99925    2    3    3    0    0 -0.46376711632E+02 -0.49384228766E+02 -0.14893901942E+03  0.30987329673E+03  0.26315209877E+03 0.  0.
         25    1    4    4    0    0 -0.23766317113E+02 -0.55345305983E+02 -0.10895123523E+03  0.17648178513E+03  0.12509000000E+03 0.  0.
         25    1    3    3    0    0  0.46376711632E+02  0.49384228766E+02  0.55188633423E+02  0.15258733496E+03  0.12509000000E+03 0.  0.
         25    1    4    4    0    0 -0.22610394519E+02  0.59610772175E+01 -0.39987784187E+02  0.13339151160E+03  0.12509000000E+03 0.  0.
<mgrwt>
<rscale>  2 0.45285837E+03</rscale>
<asrwt>0</asrwt>
<pdfrwt beam="1">  1       21 0.27111048E-01 0.45285837E+03</pdfrwt>
<pdfrwt beam="2">  1       21 0.40897868E-01 0.45285837E+03</pdfrwt>
<totfact> 0.69168939E+04</totfact>
</mgrwt>
</event>
<event>
 7    0  0.4759581E-002  0.4577007E+03  0.7546771E-02  0.1025450E+00
         21   -1    0    0  502  501  0.00000000000E+00  0.00000000000E+00  0.35891422641E+03  0.35891422641E+03  0.00000000000E+00 0.  1.
         21   -1    0    0  501  502 -0.00000000000E+00 -0.00000000000E+00 -0.14591924343E+03  0.14591924343E+03  0.00000000000E+00 0.  1.
      99926    2    1    2    0    0 -0.14210854715E-13  0.00000000000E+00  0.21299498298E+03  0.50483346985E+03  0.45770074230E+03 0.  0.
      99925    2    3    3    0    0 -0.92604080957E+02  0.49482032744E+02  0.80274121436E+02  0.29439031228E+03  0.26305462174E+03 0.  0.
         25    1    3    3    0    0  0.92604080957E+02 -0.49482032744E+02  0.13272086155E+03  0.21044315756E+03  0.12509000000E+03 0.  0.
         25    1    4    4    0    0 -0.76016556497E+02  0.23960146481E+02  0.12368984764E+02  0.14883919297E+03  0.12509000000E+03 0.  0.
         25    1    4    4    0    0 -0.16587524460E+02  0.25521886263E+02  0.67905136672E+02  0.14555111931E+03  0.12509000000E+03 0.  0.
<mgrwt>
<rscale>  2 0.45770074E+03</rscale>
<asrwt>0</asrwt>
<pdfrwt beam="1">  1       21 0.52781504E-01 0.45770074E+03</pdfrwt>
<pdfrwt beam="2">  1       21 0.21458712E-01 0.45770074E+03</pdfrwt>
<totfact> 0.63558911E+04</totfact>
</mgrwt>
</event>
<event>
 7    0  0.4759581E-002  0.4572945E+03  0.7546771E-02  0.1025569E+00
         21   -1    0    0  502  501  0.00000000000E+00  0.00000000000E+00  0.54541794296E+03  0.54541794296E+03  0.00000000000E+00 0.  1.
         21   -1    0    0  501  502 -0.00000000000E+00 -0.00000000000E+00 -0.95852296657E+02  0.95852296657E+02  0.00000000000E+00 0.  1.
      99926    2    1    2    0    0 -0.14210854715E-13 -0.14210854715E-13  0.44956564630E+03  0.64127023962E+03  0.45729448923E+03 0.  0.
      99925    2    3    3    0    0  0.88877819547E+02  0.70725150853E+02  0.31003047900E+03  0.42213812243E+03  0.26302163927E+03 0.  0.
         25    1    3    3    0    0 -0.88877819547E+02 -0.70725150853E+02  0.13953516731E+03  0.21913211719E+03  0.12509000000E+03 0.  0.
         25    1    4    4    0    0  0.63057789156E+01  0.41044151644E+02  0.16793808170E+03  0.21348323732E+03  0.12509000000E+03 0.  0.
         25    1    4    4    0    0  0.82572040632E+02  0.29680999209E+02  0.14209239730E+03  0.20865488510E+03  0.12509000000E+03 0.  0.
<mgrwt>
<rscale>  2 0.45729449E+03</rscale>
<asrwt>0</asrwt>
<pdfrwt beam="1">  1       21 0.80208520E-01 0.45729449E+03</pdfrwt>
<pdfrwt beam="2">  1       21 0.14095926E-01 0.45729449E+03</pdfrwt>
<totfact> 0.55200918E+04</totfact>
</mgrwt>
</event>
<event>
 7    0  0.4759581E-002  0.4674091E+03  0.7546771E-02  0.1022654E+00
         21   -1    0    0  502  501  0.00000000000E+00  0.00000000000E+00  0.11123590821E+04  0.11123590821E+04  0.00000000000E+00 0.  1.
         21   -1    0    0  501  502 -0.00000000000E+00 -0.00000000000E+00 -0.49100882795E+02  0.49100882795E+02  0.00000000000E+00 0.  1.
      99926    2    1    2    0    0  0.00000000000E+00  0.00000000000E+00  0.10632581993E+04  0.11614599649E+04  0.46740908386E+03 0.  0.
      99925    2    3    3    0    0  0.73903072832E+02  0.22171703850E+02  0.90448357406E+03  0.94510345738E+03  0.26301475393E+03 0.  0.
         25    1    4    4    0    0  0.66913440470E+02  0.13233403191E+02  0.38119108137E+03  0.40694800662E+03  0.12509000000E+03 0.  0.
         25    1    4    4    0    0  0.69896323621E+01  0.89383006592E+01  0.52329249269E+03  0.53815545076E+03  0.12509000000E+03 0.  0.
         25    1    3    3    0    0 -0.73903072832E+02 -0.22171703850E+02  0.15877462528E+03  0.21635650755E+03  0.12509000000E+03 0.  0.
<mgrwt>
<rscale>  2 0.46740908E+03</rscale>
<asrwt>0</asrwt>
<pdfrwt beam="1">  1       21 0.16358220E+00 0.46740908E+03</pdfrwt>
<pdfrwt beam="2">  1       21 0.72207188E-02 0.46740908E+03</pdfrwt>
<totfact> 0.30358344E+04</totfact>
</mgrwt>
</event>
<event>
 7    0  0.4759581E-002  0.4566525E+03  0.7546771E-02  0.1025757E+00
         21   -1    0    0  502  501  0.00000000000E+00  0.00000000000E+00  0.12063736574E+03  0.12063736574E+03  0.00000000000E+00 0.  1.
         21   -1    0    0  501  502 -0.00000000000E+00 -0.00000000000E+00 -0.43214532699E+03  0.43214532699E+03  0.00000000000E+00 0.  1.
      99926    2    1    2    0    0  0.00000000000E+00  0.00000000000E+00 -0.31150796125E+03  0.55278269273E+03  0.45665248872E+03 0.  0.
      99925    2    3    3    0    0 -0.81594266615E+02  0.59611109012E+02 -0.13043443727E+03  0.31061283942E+03  0.26316550862E+03 0.  0.
         25    1    4    4    0    0 -0.54973060850E+02 -0.86770655516E+01 -0.62292914881E+02  0.15041690141E+03  0.12509000000E+03 0.  0.
         25    1    4    4    0    0 -0.26621205765E+02  0.68288174564E+02 -0.68141522393E+02  0.16019593801E+03  0.12509000000E+03 0.  0.
         25    1    3    3    0    0  0.81594266615E+02 -0.59611109012E+02 -0.18107352398E+03  0.24216985330E+03  0.12509000000E+03 0.  0.
<mgrwt>
<rscale>  2 0.45665249E+03</rscale>
<asrwt>0</asrwt>
<pdfrwt beam="1">  1       21 0.17740789E-01 0.45665249E+03</pdfrwt>
<pdfrwt beam="2">  1       21 0.63550783E-01 0.45665249E+03</pdfrwt>
<totfact> 0.60883138E+04</totfact>
</mgrwt>
</event>
<event>
 7    0  0.4759581E-002  0.4530668E+03  0.7546771E-02  0.1026811E+00
         21   -1    0    0  502  501  0.00000000000E+00  0.00000000000E+00  0.70233872184E+03  0.70233872184E+03  0.00000000000E+00 0.  1.
         21   -1    0    0  501  502 -0.00000000000E+00 -0.00000000000E+00 -0.73066421037E+02  0.73066421037E+02  0.00000000000E+00 0.  1.
      99926    2    1    2    0    0  0.00000000000E+00 -0.17763568394E-14  0.62927230081E+03  0.77540514288E+03  0.45306677989E+03 0.  0.
      99925    2    3    3    0    0  0.81764811389E+02 -0.48021338342E+01  0.26738108431E+03  0.38384249713E+03  0.26293321107E+03 0.  0.
         25    1    4    4    0    0  0.73535922582E+02  0.22735001231E+02  0.13591108124E+03  0.20010932585E+03  0.12509000000E+03 0.  0.
         25    1    4    4    0    0  0.82288888071E+01 -0.27537135065E+02  0.13147000307E+03  0.18373317128E+03  0.12509000000E+03 0.  0.
         25    1    3    3    0    0 -0.81764811389E+02  0.48021338342E+01  0.36189121650E+03  0.39156264575E+03  0.12509000000E+03 0.  0.
<mgrwt>
<rscale>  2 0.45306678E+03</rscale>
<asrwt>0</asrwt>
<pdfrwt beam="1">  1       21 0.10328510E+00 0.45306678E+03</pdfrwt>
<pdfrwt beam="2">  1       21 0.10745062E-01 0.45306678E+03</pdfrwt>
<totfact> 0.49727800E+04</totfact>
</mgrwt>
</event>
<event>
 7    0  0.4759581E-002  0.4584581E+03  0.7546771E-02  0.1025229E+00
         21   -1    0    0  502  501  0.00000000000E+00  0.00000000000E+00  0.83368237954E+02  0.83368237954E+02  0.00000000000E+00 0. -1.
         21   -1    0    0  501  502 -0.00000000000E+00 -0.00000000000E+00 -0.63028749981E+03  0.63028749981E+03  0.00000000000E+00 0. -1.
      99926    2    1    2    0    0  0.00000000000E+00  0.00000000000E+00 -0.54691926186E+03  0.71365573777E+03  0.45845810393E+03 0.  0.
      99925    2    3    3    0    0  0.28139755421E+02 -0.45217977158E+02 -0.18195577689E+03  0.32419153562E+03  0.26297478155E+03 0.  0.
         25    1    4    4    0    0 -0.21268721819E+02 -0.26594683376E+01 -0.78116816053E+02  0.14902743489E+03  0.12509000000E+03 0.  0.
         25    1    3    3    0    0 -0.28139755421E+02  0.45217977158E+02 -0.36496348497E+03  0.38946420215E+03  0.12509000000E+03 0.  0.
         25    1    4    4    0    0  0.49408477240E+02 -0.42558508820E+02 -0.10383896083E+03  0.17516410073E+03  0.12509000000E+03 0.  0.
<mgrwt>
<rscale>  2 0.45845810E+03</rscale>
<asrwt>0</asrwt>
<pdfrwt beam="1">  1       21 0.12260035E-01 0.45845810E+03</pdfrwt>
<pdfrwt beam="2">  1       21 0.92689342E-01 0.45845810E+03</pdfrwt>
<totfact> 0.50772409E+04</totfact>
</mgrwt>
</event>
<event>
 7    0  0.4759581E-002  0.4550366E+03  0.7546771E-02  0.1026231E+00
         21   -1    0    0  502  501  0.00000000000E+00  0.00000000000E+00  0.47075241011E+03  0.47075241011E+03  0.00000000000E+00 0. -1.
         21   -1    0    0  501  502 -0.00000000000E+00 -0.00000000000E+00 -0.10996137160E+03  0.10996137160E+03  0.00000000000E+00 0. -1.
      99926    2    1    2    0    0 -0.35527136788E-14  0.00000000000E+00  0.36079103851E+03  0.58071378171E+03  0.45503661699E+03 0.  0.
      99925    2    3    3    0    0 -0.20025891240E+02  0.70370966052E+02  0.33723051014E+03  0.43389513242E+03  0.26303509231E+03 0.  0.
         25    1    3    3    0    0  0.20025891240E+02 -0.70370966052E+02  0.23560528363E+02  0.14681864929E+03  0.12509000000E+03 0.  0.
         25    1    4    4    0    0  0.18351395579E+02  0.41868451563E+02  0.21313154318E+03  0.25132111681E+03  0.12509000000E+03 0.  0.
         25    1    4    4    0    0 -0.38377286819E+02  0.28502514488E+02  0.12409896697E+03  0.18257401562E+03  0.12509000000E+03 0.  0.
<mgrwt>
<rscale>  2 0.45503662E+03</rscale>
<asrwt>0</asrwt>
<pdfrwt beam="1">  1       21 0.69228295E-01 0.45503662E+03</pdfrwt>
<pdfrwt beam="2">  1       21 0.16170790E-01 0.45503662E+03</pdfrwt>
<totfact> 0.59864038E+04</totfact>
</mgrwt>
</event>
<event>
 7    0  0.4759581E-002  0.4656134E+03  0.7546771E-02  0.1023166E+00
         21   -1    0    0  502  501  0.00000000000E+00  0.00000000000E+00  0.13857305842E+03  0.13857305842E+03  0.00000000000E+00 0. -1.
         21   -1    0    0  501  502 -0.00000000000E+00 -0.00000000000E+00 -0.39112198286E+03  0.39112198286E+03  0.00000000000E+00 0. -1.
      99926    2    1    2    0    0  0.00000000000E+00  0.14210854715E-13 -0.25254892444E+03  0.52969504127E+03  0.46561344216E+03 0.  0.
      99925    2    3    3    0    0  0.45722414027E+02 -0.10309527178E+03 -0.21269254388E+03  0.35661929664E+03  0.26309699791E+03 0.  0.
         25    1    4    4    0    0  0.25973845863E+01 -0.19747826039E+02 -0.12190157983E+03  0.17579597920E+03  0.12509000000E+03 0.  0.
         25    1    3    3    0    0 -0.45722414027E+02  0.10309527178E+03 -0.39856380556E+02  0.17307574463E+03  0.12509000000E+03 0.  0.
         25    1    4    4    0    0  0.43125029440E+02 -0.83347445744E+02 -0.90790964055E+02  0.18082331744E+03  0.12509000000E+03 0.  0.
<mgrwt>
<rscale>  2 0.46561344E+03</rscale>
<asrwt>0</asrwt>
<pdfrwt beam="1">  1       21 0.20378391E-01 0.46561344E+03</pdfrwt>
<pdfrwt beam="2">  1       21 0.57517937E-01 0.46561344E+03</pdfrwt>
<totfact> 0.58176013E+04</totfact>
</mgrwt>
</event>
<event>
 7    0  0.4759581E-002  0.4599971E+03  0.7546771E-02  0.1024782E+00
         21   -1    0    0  502  501  0.00000000000E+00  0.00000000000E+00  0.34804729667E+03  0.34804729667E+03  0.00000000000E+00 0. -1.
         21   -1    0    0  501  502 -0.00000000000E+00 -0.00000000000E+00 -0.15198893420E+03  0.15198893420E+03  0.00000000000E+00 0. -1.
      99926    2    1    2    0    0  0.00000000000E+00  0.35527136788E-14  0.19605836247E+03  0.50003623087E+03  0.45999712030E+03 0.  0.
      99925    2    3    3    0    0 -0.22862327165E+02  0.28533047132E+02  0.11203323225E+01  0.26554707444E+03  0.26301553722E+03 0.  0.
         25    1    4    4    0    0  0.27896611222E+02  0.41856747597E+01 -0.37553670117E+01  0.12828620998E+03  0.12509000000E+03 0.  0.
         25    1    3    3    0    0  0.22862327165E+02 -0.28533047132E+02  0.19493803015E+03  0.23448915643E+03  0.12509000000E+03 0.  0.
         25    1    4    4    0    0 -0.50758938387E+02  0.24347372372E+02  0.48756993342E+01  0.13726086446E+03  0.12509000000E+03 0.  0.
<mgrwt>
<rscale>  2 0.45999712E+03</rscale>
<asrwt>0</asrwt>
<pdfrwt beam="1">  1       21 0.51183426E-01 0.45999712E+03</pdfrwt>
<pdfrwt beam="2">  1       21 0.22351314E-01 0.45999712E+03</pdfrwt>
<totfact> 0.62742026E+04</totfact>
</mgrwt>
</event>
<event>
 7    0  0.4759581E-002  0.4572422E+03  0.7546771E-02  0.1025584E+00
         21   -1    0    0  502  501  0.00000000000E+00  0.00000000000E+00  0.14242725198E+03  0.14242725198E+03  0.00000000000E+00 0.  1.
         21   -1    0    0  501  502 -0.00000000000E+00 -0.00000000000E+00 -0.36697762648E+03  0.36697762648E+03  0.00000000000E+00 0.  1.
      99926    2    1    2    0    0  0.00000000000E+00 -0.35527136788E-14 -0.22455037450E+03  0.50940487847E+03  0.45724223287E+03 0.  0.
      99925    2    3    3    0    0 -0.37201533527E+02 -0.21712679696E+02 -0.26009121854E+03  0.37241562979E+03  0.26304099451E+03 0.  0.
         25    1    4    4    0    0 -0.26334559735E+02 -0.33556649242E+02 -0.86910298485E+02  0.15817858840E+03  0.12509000000E+03 0.  0.
         25    1    3    3    0    0  0.37201533527E+02  0.21712679696E+02  0.35540844045E+02  0.13698924867E+03  0.12509000000E+03 0.  0.
         25    1    4    4    0    0 -0.10866973791E+02  0.11843969546E+02 -0.17318092006E+03  0.21423704140E+03  0.12509000000E+03 0.  0.
<mgrwt>
<rscale>  2 0.45724223E+03</rscale>
<asrwt>0</asrwt>
<pdfrwt beam="1">  1       21 0.20945184E-01 0.45724223E+03</pdfrwt>
<pdfrwt beam="2">  1       21 0.53967299E-01 0.45724223E+03</pdfrwt>
<totfact> 0.63477675E+04</totfact>
</mgrwt>
</event>
<event>
 7    0  0.4759581E-002  0.4559742E+03  0.7546771E-02  0.1025955E+00
         21   -1    0    0  502  501  0.00000000000E+00  0.00000000000E+00  0.22942011215E+03  0.22942011215E+03  0.00000000000E+00 0.  1.
         21   -1    0    0  501  502 -0.00000000000E+00 -0.00000000000E+00 -0.22656308218E+03  0.22656308218E+03  0.00000000000E+00 0.  1.
      99926    2    1    2    0    0  0.14210854715E-13  0.00000000000E+00  0.28570299715E+01  0.45598319434E+03  0.45597424368E+03 0.  0.
      99925    2    3    3    0    0  0.11189373308E+03 -0.16515410361E+02  0.15907772895E+02  0.28683593224E+03  0.26311371782E+03 0.  0.
         25    1    4    4    0    0  0.17775637002E+02 -0.27808410367E+02  0.10430402577E+02  0.12979053261E+03  0.12509000000E+03 0.  0.
         25    1    3    3    0    0 -0.11189373308E+03  0.16515410361E+02 -0.13050742924E+02  0.16914726209E+03  0.12509000000E+03 0.  0.
         25    1    4    4    0    0  0.94118096083E+02  0.11293000006E+02  0.54773703186E+01  0.15704539963E+03  0.12509000000E+03 0.  0.
<mgrwt>
<rscale>  2 0.45597424E+03</rscale>
<asrwt>0</asrwt>
<pdfrwt beam="1">  1       21 0.33738252E-01 0.45597424E+03</pdfrwt>
<pdfrwt beam="2">  1       21 0.33318100E-01 0.45597424E+03</pdfrwt>
<totfact> 0.67944123E+04</totfact>
</mgrwt>
</event>
<event>
 7    0  0.4759581E-002  0.4409367E+03  0.7546771E-02  0.1030460E+00
         21   -1    0    0  502  501  0.00000000000E+00  0.00000000000E+00  0.38541526792E+02  0.38541526792E+02  0.00000000000E+00 0.  1.
         21   -1    0    0  501  502 -0.00000000000E+00 -0.00000000000E+00 -0.12611410420E+04  0.12611410420E+04  0.00000000000E+00 0.  1.
      99926    2    1    2    0    0 -0.35527136788E-14 -0.14210854715E-13 -0.12225995152E+04  0.12996825688E+04  0.44093673586E+03 0.  0.
      99925    2    3    3    0    0 -0.25138909898E+02 -0.71753207851E+02 -0.96875911353E+03  0.10066587724E+04  0.26284439573E+03 0.  0.
         25    1    4    4    0    0  0.16908467047E+02 -0.42754697111E+02 -0.57912842817E+03  0.59426518054E+03  0.12509000000E+03 0.  0.
         25    1    3    3    0    0  0.25138909898E+02  0.71753207851E+02 -0.25384040165E+03  0.29302379637E+03  0.12509000000E+03 0.  0.
         25    1    4    4    0    0 -0.42047376945E+02 -0.28998510740E+02 -0.38963068535E+03  0.41239359185E+03  0.12509000000E+03 0.  0.
<mgrwt>
<rscale>  2 0.44093674E+03</rscale>
<asrwt>0</asrwt>
<pdfrwt beam="1">  1       21 0.56678712E-02 0.44093674E+03</pdfrwt>
<pdfrwt beam="2">  1       21 0.18546193E+00 0.44093674E+03</pdfrwt>
<totfact> 0.32539958E+04</totfact>
</mgrwt>
</event>
<event>
 7    0  0.4759581E-002  0.4199578E+03  0.7546771E-02  0.1037080E+00
         21   -1    0    0  502  501  0.00000000000E+00  0.00000000000E+00  0.15956003913E+03  0.15956003913E+03  0.00000000000E+00 0. -1.
         21   -1    0    0  501  502 -0.00000000000E+00 -0.00000000000E+00 -0.27632943194E+03  0.27632943194E+03  0.00000000000E+00 0. -1.
      99926    2    1    2    0    0  0.00000000000E+00  0.00000000000E+00 -0.11676939282E+03  0.43588947107E+03  0.41995778346E+03 0.  0.
      99925    2    3    3    0    0  0.40440644841E+02  0.35904857105E+02 -0.13112270440E+03  0.29885615332E+03  0.26305366800E+03 0.  0.
         25    1    4    4    0    0  0.14837044454E+01  0.28125934047E+02 -0.26308353275E+02  0.13089273126E+03  0.12509000000E+03 0.  0.
         25    1    4    4    0    0  0.38956940395E+02  0.77789230579E+01 -0.10481435112E+03  0.16796342206E+03  0.12509000000E+03 0.  0.
         25    1    3    3    0    0 -0.40440644841E+02 -0.35904857105E+02  0.14353311583E+02  0.13703331775E+03  0.12509000000E+03 0.  0.
<mgrwt>
<rscale>  2 0.41995778E+03</rscale>
<asrwt>0</asrwt>
<pdfrwt beam="1">  1       21 0.23464712E-01 0.41995778E+03</pdfrwt>
<pdfrwt beam="2">  1       21 0.40636681E-01 0.41995778E+03</pdfrwt>
<totfact> 0.93457830E+04</totfact>
</mgrwt>
</event>
<event>
 7    0  0.4759581E-002  0.4968865E+03  0.7546771E-02  0.1014595E+00
         21   -1    0    0  502  501  0.00000000000E+00  0.00000000000E+00  0.30291688469E+03  0.30291688469E+03  0.00000000000E+00 0. -1.
         21   -1    0    0  501  502 -0.00000000000E+00 -0.00000000000E+00 -0.20376561024E+03  0.20376561024E+03  0.00000000000E+00 0. -1.
      99926    2    1    2    0    0  0.00000000000E+00  0.00000000000E+00  0.99151274445E+02  0.50668249493E+03  0.49688648145E+03 0.  0.
      99925    2    3    3    0    0  0.95518801041E+02 -0.69370029668E+01  0.17682183575E+03  0.33103458702E+03  0.26295621849E+03 0.  0.
         25    1    4    4    0    0  0.69832041863E+01 -0.15950292176E+02  0.76994710649E+02  0.14791507878E+03  0.12509000000E+03 0.  0.
         25    1    4    4    0    0  0.88535596855E+02  0.90132892092E+01  0.99827125097E+02  0.18311950824E+03  0.12509000000E+03 0.  0.
         25    1    3    3    0    0 -0.95518801041E+02  0.69370029668E+01 -0.77670561302E+02  0.17564790792E+03  0.12509000000E+03 0.  0.
<mgrwt>
<rscale>  2 0.49688648E+03</rscale>
<asrwt>0</asrwt>
<pdfrwt beam="1">  1       21 0.44546600E-01 0.49688648E+03</pdfrwt>
<pdfrwt beam="2">  1       21 0.29965531E-01 0.49688648E+03</pdfrwt>
<totfact> 0.47082812E+04</totfact>
</mgrwt>
</event>
<event>
 7    0  0.4759581E-002  0.4661430E+03  0.7546771E-02  0.1023014E+00
         21   -1    0    0  502  501  0.00000000000E+00  0.00000000000E+00  0.10292462794E+03  0.10292462794E+03  0.00000000000E+00 0. -1.
         21   -1    0    0  501  502 -0.00000000000E+00 -0.00000000000E+00 -0.52778751494E+03  0.52778751494E+03  0.00000000000E+00 0. -1.
      99926    2    1    2    0    0  0.00000000000E+00  0.00000000000E+00 -0.42486288700E+03  0.63071214288E+03  0.46614304074E+03 0.  0.
      99925    2    3    3    0    0 -0.51342458778E+02 -0.11012441465E+03 -0.23653733827E+03  0.37404610466E+03  0.26305349501E+03 0.  0.
         25    1    3    3    0    0  0.51342458778E+02  0.11012441465E+03 -0.18832554873E+03  0.25666603822E+03  0.12509000000E+03 0.  0.
         25    1    4    4    0    0 -0.29842573854E+02 -0.54570878940E+02 -0.66531430895E+02  0.15473364030E+03  0.12509000000E+03 0.  0.
         25    1    4    4    0    0 -0.21499884924E+02 -0.55553535709E+02 -0.17000590738E+03  0.21931246436E+03  0.12509000000E+03 0.  0.
<mgrwt>
<rscale>  2 0.46614304E+03</rscale>
<asrwt>0</asrwt>
<pdfrwt beam="1">  1       21 0.15135975E-01 0.46614304E+03</pdfrwt>
<pdfrwt beam="2">  1       21 0.77615812E-01 0.46614304E+03</pdfrwt>
<totfact> 0.52090731E+04</totfact>
</mgrwt>
</event>
<event>
 7    0  0.4759581E-002  0.4541815E+03  0.7546771E-02  0.1026482E+00
         21   -1    0    0  502  501  0.00000000000E+00  0.00000000000E+00  0.53950653607E+03  0.53950653607E+03  0.00000000000E+00 0. -1.
         21   -1    0    0  501  502 -0.00000000000E+00 -0.00000000000E+00 -0.95587719683E+02  0.95587719683E+02  0.00000000000E+00 0. -1.
      99926    2    1    2    0    0  0.00000000000E+00  0.00000000000E+00  0.44391881639E+03  0.63509425575E+03  0.45418145949E+03 0.  0.
      99925    2    3    3    0    0  0.42357726322E+02 -0.29750980792E+02  0.14014638989E+03  0.30252171774E+03  0.26305718251E+03 0.  0.
         25    1    3    3    0    0 -0.42357726322E+02  0.29750980792E+02  0.30377242650E+03  0.33257253801E+03  0.12509000000E+03 0.  0.
         25    1    4    4    0    0 -0.38433227036E+01  0.16280418890E+02  0.54344397429E+02  0.13740685864E+03  0.12509000000E+03 0.  0.
         25    1    4    4    0    0  0.46201049025E+02 -0.46031399682E+02  0.85801992461E+02  0.16511485911E+03  0.12509000000E+03 0.  0.
<mgrwt>
<rscale>  2 0.45418146E+03</rscale>
<asrwt>0</asrwt>
<pdfrwt beam="1">  1       21 0.79339195E-01 0.45418146E+03</pdfrwt>
<pdfrwt beam="2">  1       21 0.14057018E-01 0.45418146E+03</pdfrwt>
<totfact> 0.56935427E+04</totfact>
</mgrwt>
</event>
<event>
 7    0  0.4759581E-002  0.4558213E+03  0.7546771E-02  0.1026000E+00
         21   -1    0    0  502  501  0.00000000000E+00  0.00000000000E+00  0.71330857298E+03  0.71330857298E+03  0.00000000000E+00 0.  1.
         21   -1    0    0  501  502 -0.00000000000E+00 -0.00000000000E+00 -0.72820175322E+02  0.72820175322E+02  0.00000000000E+00 0.  1.
      99926    2    1    2    0    0  0.00000000000E+00  0.00000000000E+00  0.64048839765E+03  0.78612874830E+03  0.45582126033E+03 0.  0.
      99925    2    3    3    0    0  0.39234726316E+02 -0.32266953728E+02  0.22667462701E+03  0.35084738536E+03  0.26292961269E+03 0.  0.
         25    1    4    4    0    0 -0.14044892879E+01 -0.23271154393E+02  0.67076263367E+02  0.14384106654E+03  0.12509000000E+03 0.  0.
         25    1    4    4    0    0  0.40639215604E+02 -0.89957993344E+01  0.15959836365E+03  0.20700631882E+03  0.12509000000E+03 0.  0.
         25    1    3    3    0    0 -0.39234726316E+02  0.32266953728E+02  0.41381377064E+03  0.43528136294E+03  0.12509000000E+03 0.  0.
<mgrwt>
<rscale>  2 0.45582126E+03</rscale>
<asrwt>0</asrwt>
<pdfrwt beam="1">  1       21 0.10489832E+00 0.45582126E+03</pdfrwt>
<pdfrwt beam="2">  1       21 0.10708850E-01 0.45582126E+03</pdfrwt>
<totfact> 0.48132094E+04</totfact>
</mgrwt>
</event>
<event>
 7    0  0.4759581E-002  0.4568189E+03  0.7546771E-02  0.1025708E+00
         21   -1    0    0  502  501  0.00000000000E+00  0.00000000000E+00  0.18157111103E+03  0.18157111103E+03  0.00000000000E+00 0. -1.
         21   -1    0    0  501  502 -0.00000000000E+00 -0.00000000000E+00 -0.28733027841E+03  0.28733027841E+03  0.00000000000E+00 0. -1.
      99926    2    1    2    0    0  0.00000000000E+00  0.00000000000E+00 -0.10575916738E+03  0.46890138944E+03  0.45681890452E+03 0.  0.
      99925    2    3    3    0    0 -0.77291785090E+02 -0.22558948006E+02 -0.15010478441E+03  0.31366940811E+03  0.26338968298E+03 0.  0.
         25    1    3    3    0    0  0.77291785090E+02  0.22558948006E+02  0.44345617030E+02  0.15523198133E+03  0.12509000000E+03 0.  0.
         25    1    4    4    0    0 -0.70987369824E+02  0.60040477843E+01 -0.56166562926E+02  0.15452328677E+03  0.12509000000E+03 0.  0.
         25    1    4    4    0    0 -0.63044152660E+01 -0.28562995790E+02 -0.93938221483E+02  0.15914612133E+03  0.12509000000E+03 0.  0.
<mgrwt>
<rscale>  2 0.45681890E+03</rscale>
<asrwt>0</asrwt>
<pdfrwt beam="1">  1       21 0.26701634E-01 0.45681890E+03</pdfrwt>
<pdfrwt beam="2">  1       21 0.42254453E-01 0.45681890E+03</pdfrwt>
<totfact> 0.66552299E+04</totfact>
</mgrwt>
</event>
<event>
 7    0  0.4759581E-002  0.4509788E+03  0.7546771E-02  0.1027431E+00
         21   -1    0    0  502  501  0.00000000000E+00  0.00000000000E+00  0.39422949256E+02  0.39422949256E+02  0.00000000000E+00 0.  1.
         21   -1    0    0  501  502 -0.00000000000E+00 -0.00000000000E+00 -0.12897427173E+04  0.12897427173E+04  0.00000000000E+00 0.  1.
      99926    2    1    2    0    0  0.00000000000E+00  0.00000000000E+00 -0.12503197681E+04  0.13291656666E+04  0.45097876535E+03 0.  0.
      99925    2    3    3    0    0 -0.63880224908E+02  0.80342950829E+02 -0.67895842573E+03  0.73533322851E+03  0.26304893120E+03 0.  0.
         25    1    4    4    0    0  0.87278267666E+01  0.33424425158E+02 -0.33535802608E+03  0.35959126924E+03  0.12509000000E+03 0.  0.
         25    1    4    4    0    0 -0.72608051675E+02  0.46918525671E+02 -0.34360039965E+03  0.37574195927E+03  0.12509000000E+03 0.  0.
         25    1    3    3    0    0  0.63880224908E+02 -0.80342950829E+02 -0.57136134235E+03  0.59383243808E+03  0.12509000000E+03 0.  0.
<mgrwt>
<rscale>  2 0.45097877E+03</rscale>
<asrwt>0</asrwt>
<pdfrwt beam="1">  1       21 0.57974920E-02 0.45097877E+03</pdfrwt>
<pdfrwt beam="2">  1       21 0.18966806E+00 0.45097877E+03</pdfrwt>
<totfact> 0.29181131E+04</totfact>
</mgrwt>
</event>
<event>
 7    0  0.4759581E-002  0.4518611E+03  0.7546771E-02  0.1027169E+00
         21   -1    0    0  502  501  0.00000000000E+00  0.00000000000E+00  0.32716454916E+03  0.32716454916E+03  0.00000000000E+00 0.  1.
         21   -1    0    0  501  502 -0.00000000000E+00 -0.00000000000E+00 -0.15602120692E+03  0.15602120692E+03  0.00000000000E+00 0.  1.
      99926    2    1    2    0    0  0.00000000000E+00 -0.14210854715E-13  0.17114334223E+03  0.48318575608E+03  0.45186107521E+03 0.  0.
      99925    2    3    3    0    0  0.33442180829E+02  0.10447571024E+03  0.11913344815E+03  0.30886969064E+03  0.26300979799E+03 0.  0.
         25    1    4    4    0    0 -0.40255257017E+00  0.74137638714E+02  0.29396958141E+02  0.14835174677E+03  0.12509000000E+03 0.  0.
         25    1    4    4    0    0  0.33844733399E+02  0.30338071526E+02  0.89736490011E+02  0.16051794386E+03  0.12509000000E+03 0.  0.
         25    1    3    3    0    0 -0.33442180829E+02 -0.10447571024E+03  0.52009894080E+02  0.17431606544E+03  0.12509000000E+03 0.  0.
<mgrwt>
<rscale>  2 0.45186108E+03</rscale>
<asrwt>0</asrwt>
<pdfrwt beam="1">  1       21 0.48112434E-01 0.45186108E+03</pdfrwt>
<pdfrwt beam="2">  1       21 0.22944295E-01 0.45186108E+03</pdfrwt>
<totfact> 0.68151348E+04</totfact>
</mgrwt>
</event>
<event>
 7    0  0.4759581E-002  0.4364582E+03  0.7546771E-02  0.1031839E+00
         21   -1    0    0  502  501  0.00000000000E+00  0.00000000000E+00  0.78087461339E+03  0.78087461339E+03  0.00000000000E+00 0. -1.
         21   -1    0    0  501  502 -0.00000000000E+00 -0.00000000000E+00 -0.60987943981E+02  0.60987943981E+02  0.00000000000E+00 0. -1.
      99926    2    1    2    0    0  0.00000000000E+00  0.00000000000E+00  0.71988666941E+03  0.84186255737E+03  0.43645818667E+03 0.  0.
      99925    2    3    3    0    0  0.22721619977E+02 -0.85009111819E+02  0.52676238907E+03  0.59551459846E+03  0.26346954535E+03 0.  0.
         25    1    4    4    0    0  0.38602876527E+02 -0.66982165382E+02  0.23584546168E+03  0.27793413330E+03  0.12509000000E+03 0.  0.
         25    1    3    3    0    0 -0.22721619977E+02  0.85009111819E+02  0.19312428034E+03  0.24634795892E+03  0.12509000000E+03 0.  0.
         25    1    4    4    0    0 -0.15881256550E+02 -0.18026946437E+02  0.29091692739E+03  0.31758046516E+03  0.12509000000E+03 0.  0.
<mgrwt>
<rscale>  2 0.43645819E+03</rscale>
<asrwt>0</asrwt>
<pdfrwt beam="1">  1       21 0.11483450E+00 0.43645819E+03</pdfrwt>
<pdfrwt beam="2">  1       21 0.89688158E-02 0.43645819E+03</pdfrwt>
<totfact> 0.53121271E+04</totfact>
</mgrwt>
</event>
<event>
 7    0  0.4759581E-002  0.4522673E+03  0.7546771E-02  0.1027048E+00
         21   -1    0    0  502  501  0.00000000000E+00  0.00000000000E+00  0.10895029101E+03  0.10895029101E+03  0.00000000000E+00 0.  1.
         21   -1    0    0  501  502 -0.00000000000E+00 -0.00000000000E+00 -0.46935562614E+03  0.46935562614E+03  0.00000000000E+00 0.  1.
      99926    2    1    2    0    0  0.00000000000E+00 -0.14210854715E-13 -0.36040533512E+03  0.57830591715E+03  0.45226731943E+03 0.  0.
      99925    2    3    3    0    0 -0.80655175321E+02  0.72011848505E+02 -0.25402192328E+03  0.38169487462E+03  0.26357707823E+03 0.  0.
         25    1    4    4    0    0 -0.48333300294E+02  0.74066479116E+02 -0.11256937652E+03  0.19010871594E+03  0.12509000000E+03 0.  0.
         25    1    3    3    0    0  0.80655175321E+02 -0.72011848505E+02 -0.10638341184E+03  0.19661104254E+03  0.12509000000E+03 0.  0.
         25    1    4    4    0    0 -0.32321875027E+02 -0.20546306107E+01 -0.14145254675E+03  0.19158615867E+03  0.12509000000E+03 0.  0.
<mgrwt>
<rscale>  2 0.45226732E+03</rscale>
<asrwt>0</asrwt>
<pdfrwt beam="1">  1       21 0.16022102E-01 0.45226732E+03</pdfrwt>
<pdfrwt beam="2">  1       21 0.69022885E-01 0.45226732E+03</pdfrwt>
<totfact> 0.61348573E+04</totfact>
</mgrwt>
</event>
<event>
 7    0  0.4759581E-002  0.4334303E+03  0.7546771E-02  0.1032782E+00
         21   -1    0    0  502  501  0.00000000000E+00  0.00000000000E+00  0.58326407577E+02  0.58326407577E+02  0.00000000000E+00 0.  1.
         21   -1    0    0  501  502 -0.00000000000E+00 -0.00000000000E+00 -0.80521788149E+03  0.80521788149E+03  0.00000000000E+00 0.  1.
      99926    2    1    2    0    0  0.00000000000E+00  0.00000000000E+00 -0.74689147392E+03  0.86354428907E+03  0.43343034663E+03 0.  0.
      99925    2    3    3    0    0  0.61238204182E+02 -0.52192693509E+02 -0.39288760725E+03  0.47956454921E+03  0.26295872304E+03 0.  0.
         25    1    4    4    0    0  0.19814281626E+02 -0.47014553435E+02 -0.14117043047E+03  0.19539593785E+03  0.12509000000E+03 0.  0.
         25    1    4    4    0    0  0.41423922556E+02 -0.51781400741E+01 -0.25171717678E+03  0.28416861136E+03  0.12509000000E+03 0.  0.
         25    1    3    3    0    0 -0.61238204182E+02  0.52192693509E+02 -0.35400386667E+03  0.38397973986E+03  0.12509000000E+03 0.  0.
<mgrwt>
<rscale>  2 0.43343035E+03</rscale>
<asrwt>0</asrwt>
<pdfrwt beam="1">  1       21 0.85774125E-02 0.43343035E+03</pdfrwt>
<pdfrwt beam="2">  1       21 0.11841440E+00 0.43343035E+03</pdfrwt>
<totfact> 0.53297073E+04</totfact>
</mgrwt>
</event>
<event>
 7    0  0.4759581E-002  0.4452239E+03  0.7546771E-02  0.1029156E+00
         21   -1    0    0  502  501  0.00000000000E+00  0.00000000000E+00  0.88613882185E+03  0.88613882185E+03  0.00000000000E+00 0. -1.
         21   -1    0    0  501  502 -0.00000000000E+00 -0.00000000000E+00 -0.55923605829E+02  0.55923605829E+02  0.00000000000E+00 0. -1.
      99926    2    1    2    0    0  0.00000000000E+00  0.00000000000E+00  0.83021521602E+03  0.94206242768E+03  0.44522389057E+03 0.  0.
      99925    2    3    3    0    0 -0.54540951949E+02 -0.80466251852E+02  0.60390288863E+03  0.66581197835E+03  0.26297786692E+03 0.  0.
         25    1    4    4    0    0 -0.12684555469E+02 -0.14384787593E+02  0.20997096052E+03  0.24515940207E+03  0.12509000000E+03 0.  0.
         25    1    3    3    0    0  0.54540951949E+02  0.80466251852E+02  0.22631232739E+03  0.27625044933E+03  0.12509000000E+03 0.  0.
         25    1    4    4    0    0 -0.41856396480E+02 -0.66081464259E+02  0.39393192811E+03  0.42065257628E+03  0.12509000000E+03 0.  0.
<mgrwt>
<rscale>  2 0.44522389E+03</rscale>
<asrwt>0</asrwt>
<pdfrwt beam="1">  1       21 0.13031452E+00 0.44522389E+03</pdfrwt>
<pdfrwt beam="2">  1       21 0.82240603E-02 0.44522389E+03</pdfrwt>
<totfact> 0.44791528E+04</totfact>
</mgrwt>
</event>
<event>
 7    0  0.4759581E-002  0.4459588E+03  0.7546771E-02  0.1028934E+00
         21   -1    0    0  502  501  0.00000000000E+00  0.00000000000E+00  0.83142627219E+02  0.83142627219E+02  0.00000000000E+00 0. -1.
         21   -1    0    0  501  502 -0.00000000000E+00 -0.00000000000E+00 -0.59800628409E+03  0.59800628409E+03  0.00000000000E+00 0. -1.
      99926    2    1    2    0    0  0.35527136788E-14  0.00000000000E+00 -0.51486365687E+03  0.68114891131E+03  0.44595880327E+03 0.  0.
      99925    2    3    3    0    0 -0.28670174665E+02  0.16463552346E+02 -0.17533985939E+03  0.31780755029E+03  0.26299153078E+03 0.  0.
         25    1    3    3    0    0  0.28670174665E+02 -0.16463552346E+02 -0.33952379748E+03  0.36334136102E+03  0.12509000000E+03 0.  0.
         25    1    4    4    0    0 -0.25294279982E+02 -0.27737024340E+02 -0.68758193076E+02  0.14759519076E+03  0.12509000000E+03 0.  0.
         25    1    4    4    0    0 -0.33758946834E+01  0.44200576685E+02 -0.10658166631E+03  0.17021235954E+03  0.12509000000E+03 0.  0.
<mgrwt>
<rscale>  2 0.44595880E+03</rscale>
<asrwt>0</asrwt>
<pdfrwt beam="1">  1       21 0.12226857E-01 0.44595880E+03</pdfrwt>
<pdfrwt beam="2">  1       21 0.87942102E-01 0.44595880E+03</pdfrwt>
<totfact> 0.57955666E+04</totfact>
</mgrwt>
</event>
<event>
 7    0  0.4759581E-002  0.4382740E+03  0.7546771E-02  0.1031278E+00
         21   -1    0    0  502  501  0.00000000000E+00  0.00000000000E+00  0.22868282388E+03  0.22868282388E+03  0.00000000000E+00 0.  1.
         21   -1    0    0  501  502 -0.00000000000E+00 -0.00000000000E+00 -0.20998963935E+03  0.20998963935E+03  0.00000000000E+00 0.  1.
      99926    2    1    2    0    0  0.00000000000E+00  0.00000000000E+00  0.18693184526E+02  0.43867246323E+03  0.43827399518E+03 0.  0.
      99925    2    3    3    0    0  0.83257073211E+02 -0.36139115694E+02  0.45307348949E+02  0.28184900271E+03  0.26296069770E+03 0.  0.
         25    1    4    4    0    0  0.89157611731E+01 -0.17871398677E+02 -0.50875647756E+01  0.12677645327E+03  0.12509000000E+03 0.  0.
         25    1    3    3    0    0 -0.83257073211E+02  0.36139115694E+02 -0.26614164423E+02  0.15682346052E+03  0.12509000000E+03 0.  0.
         25    1    4    4    0    0  0.74341312037E+02 -0.18267717017E+02  0.50394913724E+02  0.15507254944E+03  0.12509000000E+03 0.  0.
<mgrwt>
<rscale>  2 0.43827400E+03</rscale>
<asrwt>0</asrwt>
<pdfrwt beam="1">  1       21 0.33629827E-01 0.43827400E+03</pdfrwt>
<pdfrwt beam="2">  1       21 0.30880829E-01 0.43827400E+03</pdfrwt>
<totfact> 0.79901480E+04</totfact>
</mgrwt>
</event>
<event>
 7    0  0.4759581E-002  0.4571883E+03  0.7546771E-02  0.1025600E+00
         21   -1    0    0  502  501  0.00000000000E+00  0.00000000000E+00  0.32687454629E+03  0.32687454629E+03  0.00000000000E+00 0.  1.
         21   -1    0    0  501  502 -0.00000000000E+00 -0.00000000000E+00 -0.15986340570E+03  0.15986340570E+03  0.00000000000E+00 0.  1.
      99926    2    1    2    0    0  0.00000000000E+00  0.00000000000E+00  0.16701114060E+03  0.48673795199E+03  0.45718826846E+03 0.  0.
      99925    2    3    3    0    0 -0.10568176043E+03 -0.43325206115E+02  0.89298086176E+02  0.30037128410E+03  0.26306472995E+03 0.  0.
         25    1    3    3    0    0  0.10568176043E+03  0.43325206115E+02  0.77713054419E+02  0.18636666789E+03  0.12509000000E+03 0.  0.
         25    1    4    4    0    0 -0.25314706034E+02 -0.16768595574E+02  0.74215506657E+02  0.14858489044E+03  0.12509000000E+03 0.  0.
         25    1    4    4    0    0 -0.80367054391E+02 -0.26556610541E+02  0.15082579519E+02  0.15178639366E+03  0.12509000000E+03 0.  0.
<mgrwt>
<rscale>  2 0.45718827E+03</rscale>
<asrwt>0</asrwt>
<pdfrwt beam="1">  1       21 0.48069786E-01 0.45718827E+03</pdfrwt>
<pdfrwt beam="2">  1       21 0.23509324E-01 0.45718827E+03</pdfrwt>
<totfact> 0.65074995E+04</totfact>
</mgrwt>
</event>
<event>
 7    0  0.4759581E-002  0.4504630E+03  0.7546771E-02  0.1027584E+00
         21   -1    0    0  502  501  0.00000000000E+00  0.00000000000E+00  0.80075723033E+02  0.80075723033E+02  0.00000000000E+00 0.  1.
         21   -1    0    0  501  502 -0.00000000000E+00 -0.00000000000E+00 -0.63351575565E+03  0.63351575565E+03  0.00000000000E+00 0.  1.
      99926    2    1    2    0    0  0.00000000000E+00  0.00000000000E+00 -0.55344003261E+03  0.71359147868E+03  0.45046301596E+03 0.  0.
      99925    2    3    3    0    0  0.78420394534E+02 -0.58494009220E+02 -0.42564991305E+03  0.50975544126E+03  0.26287155422E+03 0.  0.
         25    1    4    4    0    0  0.76039069787E+02 -0.25020406889E+02 -0.19349015953E+03  0.24391373646E+03  0.12509000000E+03 0.  0.
         25    1    4    4    0    0  0.23813247468E+01 -0.33473602331E+02 -0.23215975351E+03  0.26584170480E+03  0.12509000000E+03 0.  0.
         25    1    3    3    0    0 -0.78420394534E+02  0.58494009220E+02 -0.12779011957E+03  0.20383603742E+03  0.12509000000E+03 0.  0.
<mgrwt>
<rscale>  2 0.45046302E+03</rscale>
<asrwt>0</asrwt>
<pdfrwt beam="1">  1       21 0.11775842E-01 0.45046302E+03</pdfrwt>
<pdfrwt beam="2">  1       21 0.93164077E-01 0.45046302E+03</pdfrwt>
<totfact> 0.54075619E+04</totfact>
</mgrwt>
</event>
<event>
 7    0  0.4759581E-002  0.4545080E+03  0.7546771E-02  0.1026386E+00
         21   -1    0    0  502  501  0.00000000000E+00  0.00000000000E+00  0.74808133196E+02  0.74808133196E+02  0.00000000000E+00 0. -1.
         21   -1    0    0  501  502 -0.00000000000E+00 -0.00000000000E+00 -0.69035778499E+03  0.69035778499E+03  0.00000000000E+00 0. -1.
      99926    2    1    2    0    0  0.00000000000E+00  0.00000000000E+00 -0.61554965180E+03  0.76516591819E+03  0.45450798511E+03 0.  0.
      99925    2    3    3    0    0 -0.88439323988E+02  0.66009522823E+02 -0.42609472278E+03  0.51273880126E+03  0.26299352541E+03 0.  0.
         25    1    4    4    0    0 -0.69832995561E+02  0.61585915309E+02 -0.26997273974E+03  0.31177277067E+03  0.12509000000E+03 0.  0.
         25    1    4    4    0    0 -0.18606328427E+02  0.44236075138E+01 -0.15612198304E+03  0.20096603059E+03  0.12509000000E+03 0.  0.
         25    1    3    3    0    0  0.88439323988E+02 -0.66009522823E+02 -0.18945492902E+03  0.25242711693E+03  0.12509000000E+03 0.  0.
<mgrwt>
<rscale>  2 0.45450799E+03</rscale>
<asrwt>0</asrwt>
<pdfrwt beam="1">  1       21 0.11001197E-01 0.45450799E+03</pdfrwt>
<pdfrwt beam="2">  1       21 0.10152320E+00 0.45450799E+03</pdfrwt>
<totfact> 0.49687297E+04</totfact>
</mgrwt>
</event>
<event>
 7    0  0.4759581E-002  0.4586856E+03  0.7546771E-02  0.1025163E+00
         21   -1    0    0  502  501  0.00000000000E+00  0.00000000000E+00  0.20119473345E+04  0.20119473345E+04  0.00000000000E+00 0.  1.
         21   -1    0    0  501  502 -0.00000000000E+00 -0.00000000000E+00 -0.26142887051E+02  0.26142887051E+02  0.00000000000E+00 0.  1.
      99926    2    1    2    0    0  0.00000000000E+00  0.00000000000E+00  0.19858044474E+04  0.20380902215E+04  0.45868556514E+03 0.  0.
      99925    2    3    3    0    0  0.27223147285E+02 -0.11317650878E+03  0.12110256747E+04  0.12446926688E+04  0.26291944227E+03 0.  0.
         25    1    4    4    0    0 -0.20153152355E+02 -0.59611143122E+02  0.69278349732E+03  0.70679284107E+03  0.12509000000E+03 0.  0.
         25    1    3    3    0    0 -0.27223147285E+02  0.11317650878E+03  0.77477877272E+03  0.79339755271E+03  0.12509000000E+03 0.  0.
         25    1    4    4    0    0  0.47376299640E+02 -0.53565365657E+02  0.51824217738E+03  0.53789982774E+03  0.12509000000E+03 0.  0.
<mgrwt>
<rscale>  2 0.45868557E+03</rscale>
<asrwt>0</asrwt>
<pdfrwt beam="1">  1       21 0.29587450E+00 0.45868557E+03</pdfrwt>
<pdfrwt beam="2">  1       21 0.38445436E-02 0.45868557E+03</pdfrwt>
<totfact> 0.12729650E+04</totfact>
</mgrwt>
</event>
<event>
 7    0  0.4759581E-002  0.4558678E+03  0.7546771E-02  0.1025987E+00
         21   -1    0    0  502  501  0.00000000000E+00  0.00000000000E+00  0.39946930271E+03  0.39946930271E+03  0.00000000000E+00 0. -1.
         21   -1    0    0  501  502 -0.00000000000E+00 -0.00000000000E+00 -0.13005720117E+03  0.13005720117E+03  0.00000000000E+00 0. -1.
      99926    2    1    2    0    0 -0.71054273576E-14  0.00000000000E+00  0.26941210154E+03  0.52952650388E+03  0.45586778550E+03 0.  0.
      99925    2    3    3    0    0  0.36433620097E+02  0.10520649407E+03  0.19786731757E+03  0.34742219508E+03  0.26297317583E+03 0.  0.
         25    1    4    4    0    0  0.55140187310E+02  0.52328532435E+02  0.81088947319E+02  0.16733690878E+03  0.12509000000E+03 0.  0.
         25    1    4    4    0    0 -0.18706567213E+02  0.52877961636E+02  0.11677837025E+03  0.18008528630E+03  0.12509000000E+03 0.  0.
         25    1    3    3    0    0 -0.36433620097E+02 -0.10520649407E+03  0.71544783964E+02  0.18210430879E+03  0.12509000000E+03 0.  0.
<mgrwt>
<rscale>  2 0.45586779E+03</rscale>
<asrwt>0</asrwt>
<pdfrwt beam="1">  1       21 0.58745485E-01 0.45586779E+03</pdfrwt>
<pdfrwt beam="2">  1       21 0.19126059E-01 0.45586779E+03</pdfrwt>
<totfact> 0.62805495E+04</totfact>
</mgrwt>
</event>
<event>
 7    0  0.4759581E-002  0.4395694E+03  0.7546771E-02  0.1030879E+00
         21   -1    0    0  502  501  0.00000000000E+00  0.00000000000E+00  0.13080171585E+04  0.13080171585E+04  0.00000000000E+00 0.  1.
         21   -1    0    0  501  502 -0.00000000000E+00 -0.00000000000E+00 -0.36930188532E+02  0.36930188532E+02  0.00000000000E+00 0.  1.
      99926    2    1    2    0    0  0.00000000000E+00  0.00000000000E+00  0.12710869700E+04  0.13449473470E+04  0.43956942690E+03 0.  0.
      99925    2    3    3    0    0  0.66368218175E+02 -0.35120617544E+02  0.61904354388E+03  0.67678094878E+03  0.26301966702E+03 0.  0.
         25    1    4    4    0    0  0.40172627895E+02  0.88697380986E+01  0.23133474796E+03  0.26618750158E+03  0.12509000000E+03 0.  0.
         25    1    4    4    0    0  0.26195590280E+02 -0.43990355643E+02  0.38770879593E+03  0.41059344719E+03  0.12509000000E+03 0.  0.
         25    1    3    3    0    0 -0.66368218175E+02  0.35120617544E+02  0.65204342608E+03  0.66816639825E+03  0.12509000000E+03 0.  0.
<mgrwt>
<rscale>  2 0.43956943E+03</rscale>
<asrwt>0</asrwt>
<pdfrwt beam="1">  1       21 0.19235543E+00 0.43956943E+03</pdfrwt>
<pdfrwt beam="2">  1       21 0.54309109E-02 0.43956943E+03</pdfrwt>
<totfact> 0.31442510E+04</totfact>
</mgrwt>
</event>
<event>
 7    0  0.4759581E-002  0.4548618E+03  0.7546771E-02  0.1026282E+00
         21   -1    0    0  502  501  0.00000000000E+00  0.00000000000E+00  0.21511410563E+03  0.21511410563E+03  0.00000000000E+00 0.  1.
         21   -1    0    0  501  502 -0.00000000000E+00 -0.00000000000E+00 -0.24045288762E+03  0.24045288762E+03  0.00000000000E+00 0.  1.
      99926    2    1    2    0    0  0.00000000000E+00  0.00000000000E+00 -0.25338781986E+02  0.45556699325E+03  0.45486177182E+03 0.  0.
      99925    2    3    3    0    0 -0.10310431762E+03  0.16417763658E+02 -0.59418963798E+02  0.28910675725E+03  0.26296779376E+03 0.  0.
         25    1    4    4    0    0 -0.60598620868E+02  0.42124090015E+02 -0.52154709485E+02  0.15431867558E+03  0.12509000000E+03 0.  0.
         25    1    3    3    0    0  0.10310431762E+03 -0.16417763658E+02  0.34080181811E+02  0.16646023599E+03  0.12509000000E+03 0.  0.
         25    1    4    4    0    0 -0.42505696750E+02 -0.25706326357E+02 -0.72642543128E+01  0.13478808168E+03  0.12509000000E+03 0.  0.
<mgrwt>
<rscale>  2 0.45486177E+03</rscale>
<asrwt>0</asrwt>
<pdfrwt beam="1">  1       21 0.31634427E-01 0.45486177E+03</pdfrwt>
<pdfrwt beam="2">  1       21 0.35360719E-01 0.45486177E+03</pdfrwt>
<totfact> 0.68579912E+04</totfact>
</mgrwt>
</event>
<event>
 7    0  0.4759581E-002  0.4562632E+03  0.7546771E-02  0.1025871E+00
         21   -1    0    0  502  501  0.00000000000E+00  0.00000000000E+00  0.35210448721E+03  0.35210448721E+03  0.00000000000E+00 0. -1.
         21   -1    0    0  501  502 -0.00000000000E+00 -0.00000000000E+00 -0.14780846441E+03  0.14780846441E+03  0.00000000000E+00 0. -1.
      99926    2    1    2    0    0  0.00000000000E+00  0.00000000000E+00  0.20429602280E+03  0.49991295162E+03  0.45626318530E+03 0.  0.
      99925    2    3    3    0    0  0.55269669599E+02  0.93656862500E+02  0.16687532160E+03  0.32998896494E+03  0.26309503938E+03 0.  0.
         25    1    4    4    0    0  0.22296470943E+02  0.77147620491E+02  0.56109915622E+02  0.15888586688E+03  0.12509000000E+03 0.  0.
         25    1    4    4    0    0  0.32973198655E+02  0.16509242009E+02  0.11076540598E+03  0.17110309805E+03  0.12509000000E+03 0.  0.
         25    1    3    3    0    0 -0.55269669599E+02 -0.93656862500E+02  0.37420701199E+02  0.16992398668E+03  0.12509000000E+03 0.  0.
<mgrwt>
<rscale>  2 0.45626319E+03</rscale>
<asrwt>0</asrwt>
<pdfrwt beam="1">  1       21 0.51780072E-01 0.45626319E+03</pdfrwt>
<pdfrwt beam="2">  1       21 0.21736539E-01 0.45626319E+03</pdfrwt>
<totfact> 0.64626311E+04</totfact>
</mgrwt>
</event>
<event>
 7    0  0.4759581E-002  0.4562785E+03  0.7546771E-02  0.1025866E+00
         21   -1    0    0  502  501  0.00000000000E+00  0.00000000000E+00  0.33575854235E+02  0.33575854235E+02  0.00000000000E+00 0. -1.
         21   -1    0    0  501  502 -0.00000000000E+00 -0.00000000000E+00 -0.15501471325E+04  0.15501471325E+04  0.00000000000E+00 0. -1.
      99926    2    1    2    0    0  0.00000000000E+00  0.00000000000E+00 -0.15165712783E+04  0.15837229868E+04  0.45627848586E+03 0.  0.
      99925    2    3    3    0    0  0.60154640654E+02 -0.91305730697E+02 -0.10694997322E+04  0.11067787629E+04  0.26300995339E+03 0.  0.
         25    1    4    4    0    0  0.49263585882E+02 -0.10688358663E+02 -0.46775443939E+03  0.48680885939E+03  0.12509000000E+03 0.  0.
         25    1    4    4    0    0  0.10891054772E+02 -0.80617372034E+02 -0.60174529281E+03  0.61996990352E+03  0.12509000000E+03 0.  0.
         25    1    3    3    0    0 -0.60154640654E+02  0.91305730697E+02 -0.44707154608E+03  0.47694422385E+03  0.12509000000E+03 0.  0.
<mgrwt>
<rscale>  2 0.45627849E+03</rscale>
<asrwt>0</asrwt>
<pdfrwt beam="1">  1       21 0.49376263E-02 0.45627849E+03</pdfrwt>
<pdfrwt beam="2">  1       21 0.22796278E+00 0.45627849E+03</pdfrwt>
<totfact> 0.21584615E+04</totfact>
</mgrwt>
</event>
<event>
 7    0  0.4759581E-002  0.4505194E+03  0.7546771E-02  0.1027567E+00
         21   -1    0    0  502  501  0.00000000000E+00  0.00000000000E+00  0.37622051616E+03  0.37622051616E+03  0.00000000000E+00 0.  1.
         21   -1    0    0  501  502 -0.00000000000E+00 -0.00000000000E+00 -0.13487285235E+03  0.13487285235E+03  0.00000000000E+00 0.  1.
      99926    2    1    2    0    0 -0.71054273576E-14  0.00000000000E+00  0.24134766381E+03  0.51109336852E+03  0.45051940748E+03 0.  0.
      99925    2    3    3    0    0  0.42380887151E+02  0.62204635512E+02  0.63129781151E+02  0.28071394653E+03  0.26296272404E+03 0.  0.
         25    1    4    4    0    0  0.50977051058E+02  0.26577209285E+02  0.60404502476E+02  0.15033702075E+03  0.12509000000E+03 0.  0.
         25    1    3    3    0    0 -0.42380887151E+02 -0.62204635512E+02  0.17821788265E+03  0.23037942198E+03  0.12509000000E+03 0.  0.
         25    1    4    4    0    0 -0.85961639067E+01  0.35627426227E+02  0.27252786754E+01  0.13037692579E+03  0.12509000000E+03 0.  0.
<mgrwt>
<rscale>  2 0.45051941E+03</rscale>
<asrwt>0</asrwt>
<pdfrwt beam="1">  1       21 0.55326546E-01 0.45051941E+03</pdfrwt>
<pdfrwt beam="2">  1       21 0.19834243E-01 0.45051941E+03</pdfrwt>
<totfact> 0.66843344E+04</totfact>
</mgrwt>
</event>
<event>
 7    0  0.4759581E-002  0.4506407E+03  0.7546771E-02  0.1027531E+00
         21   -1    0    0  502  501  0.00000000000E+00  0.00000000000E+00  0.74130385323E+03  0.74130385323E+03  0.00000000000E+00 0.  1.
         21   -1    0    0  501  502 -0.00000000000E+00 -0.00000000000E+00 -0.68486441839E+02  0.68486441839E+02  0.00000000000E+00 0.  1.
      99926    2    1    2    0    0  0.00000000000E+00  0.00000000000E+00  0.67281741139E+03  0.80979029507E+03  0.45064071378E+03 0.  0.
      99925    2    3    3    0    0  0.92087864381E+02  0.44401484710E+02  0.35725180895E+03  0.45527538121E+03  0.26304971226E+03 0.  0.
         25    1    4    4    0    0  0.86321994096E+02  0.30663752021E+02  0.21778564574E+03  0.26733845205E+03  0.12509000000E+03 0.  0.
         25    1    3    3    0    0 -0.92087864381E+02 -0.44401484710E+02  0.31556560244E+03  0.35451491386E+03  0.12509000000E+03 0.  0.
         25    1    4    4    0    0  0.57658702847E+01  0.13737732689E+02  0.13946616321E+03  0.18793692916E+03  0.12509000000E+03 0.  0.
<mgrwt>
<rscale>  2 0.45064071E+03</rscale>
<asrwt>0</asrwt>
<pdfrwt beam="1">  1       21 0.10901527E+00 0.45064071E+03</pdfrwt>
<pdfrwt beam="2">  1       21 0.10071536E-01 0.45064071E+03</pdfrwt>
<totfact> 0.48947984E+04</totfact>
</mgrwt>
</event>
<event>
 7    0  0.4759581E-002  0.4655756E+03  0.7546771E-02  0.1023176E+00
         21   -1    0    0  502  501  0.00000000000E+00  0.00000000000E+00  0.11648311878E+03  0.11648311878E+03  0.00000000000E+00 0. -1.
         21   -1    0    0  501  502 -0.00000000000E+00 -0.00000000000E+00 -0.46521899604E+03  0.46521899604E+03  0.00000000000E+00 0. -1.
      99926    2    1    2    0    0  0.00000000000E+00  0.35527136788E-14 -0.34873587727E+03  0.58170211482E+03  0.46557559890E+03 0.  0.
      99925    2    3    3    0    0  0.11112229797E+03  0.21206642204E+02 -0.27758070868E+03  0.39864897254E+03  0.26281565155E+03 0.  0.
         25    1    4    4    0    0  0.27411557117E+02 -0.10957832943E+02 -0.94856317121E+02  0.15973946464E+03  0.12509000000E+03 0.  0.
         25    1    4    4    0    0  0.83710740853E+02  0.32164475147E+02 -0.18272439156E+03  0.23890950790E+03  0.12509000000E+03 0.  0.
         25    1    3    3    0    0 -0.11112229797E+03 -0.21206642204E+02 -0.71155168590E+02  0.18305314228E+03  0.12509000000E+03 0.  0.
<mgrwt>
<rscale>  2 0.46557560E+03</rscale>
<asrwt>0</asrwt>
<pdfrwt beam="1">  1       21 0.17129870E-01 0.46557560E+03</pdfrwt>
<pdfrwt beam="2">  1       21 0.68414558E-01 0.46557560E+03</pdfrwt>
<totfact> 0.55068372E+04</totfact>
</mgrwt>
</event>
<event>
 7    0  0.4759581E-002  0.4544599E+03  0.7546771E-02  0.1026400E+00
         21   -1    0    0  502  501  0.00000000000E+00  0.00000000000E+00  0.23120066775E+03  0.23120066775E+03  0.00000000000E+00 0.  1.
         21   -1    0    0  501  502 -0.00000000000E+00 -0.00000000000E+00 -0.22332746016E+03  0.22332746016E+03  0.00000000000E+00 0.  1.
      99926    2    1    2    0    0  0.00000000000E+00  0.00000000000E+00  0.78732075887E+01  0.45452812791E+03  0.45445993406E+03 0.  0.
      99925    2    3    3    0    0 -0.40232557126E+02  0.93210443478E+02  0.53523864486E+02  0.28708161107E+03  0.26314293059E+03 0.  0.
         25    1    3    3    0    0  0.40232557126E+02 -0.93210443478E+02 -0.45650656897E+02  0.16744651684E+03  0.12509000000E+03 0.  0.
         25    1    4    4    0    0 -0.13196193557E+02  0.53285716151E+02  0.67356245281E+02  0.15230849927E+03  0.12509000000E+03 0.  0.
         25    1    4    4    0    0 -0.27036363568E+02  0.39924727327E+02 -0.13832380795E+02  0.13477311180E+03  0.12509000000E+03 0.  0.
<mgrwt>
<rscale>  2 0.45445993E+03</rscale>
<asrwt>0</asrwt>
<pdfrwt beam="1">  1       21 0.34000098E-01 0.45445993E+03</pdfrwt>
<pdfrwt beam="2">  1       21 0.32842273E-01 0.45445993E+03</pdfrwt>
<totfact> 0.68876699E+04</totfact>
</mgrwt>
</event>
<event>
 7    0  0.4759581E-002  0.4511131E+03  0.7546771E-02  0.1027391E+00
         21   -1    0    0  502  501  0.00000000000E+00  0.00000000000E+00  0.13551799981E+03  0.13551799981E+03  0.00000000000E+00 0. -1.
         21   -1    0    0  501  502 -0.00000000000E+00 -0.00000000000E+00 -0.37541700854E+03  0.37541700854E+03  0.00000000000E+00 0. -1.
      99926    2    1    2    0    0  0.00000000000E+00  0.71054273576E-14 -0.23989900873E+03  0.51093500835E+03  0.45111312148E+03 0.  0.
      99925    2    3    3    0    0  0.97096976097E+02 -0.46462330953E+02 -0.12313986157E+03  0.30877967819E+03  0.26190626795E+03 0.  0.
         25    1    4    4    0    0  0.17889469037E+02 -0.47180745324E+02 -0.52635883530E+02  0.14478984829E+03  0.12509000000E+03 0.  0.
         25    1    3    3    0    0 -0.97096976097E+02  0.46462330953E+02 -0.11675914716E+03  0.20215533016E+03  0.12509000000E+03 0.  0.
         25    1    4    4    0    0  0.79207507060E+02  0.71841437138E+00 -0.70503978039E+02  0.16398982991E+03  0.12509000000E+03 0.  0.
<mgrwt>
<rscale>  2 0.45111312E+03</rscale>
<asrwt>0</asrwt>
<pdfrwt beam="1">  1       21 0.19929118E-01 0.45111312E+03</pdfrwt>
<pdfrwt beam="2">  1       21 0.55208382E-01 0.45111312E+03</pdfrwt>
<totfact> 0.66537832E+04</totfact>
</mgrwt>
</event>
<event>
 7    0  0.4759581E-002  0.4604465E+03  0.7546771E-02  0.1024652E+00
         21   -1    0    0  502  501  0.00000000000E+00  0.00000000000E+00  0.14489369122E+03  0.14489369122E+03  0.00000000000E+00 0. -1.
         21   -1    0    0  501  502 -0.00000000000E+00 -0.00000000000E+00 -0.36580442911E+03  0.36580442911E+03  0.00000000000E+00 0. -1.
      99926    2    1    2    0    0  0.35527136788E-14  0.00000000000E+00 -0.22091073789E+03  0.51069812032E+03  0.46044653977E+03 0.  0.
      99925    2    3    3    0    0 -0.18450114777E+02  0.51256229181E+02 -0.25470652234E+03  0.37013756073E+03  0.26298059545E+03 0.  0.
         25    1    4    4    0    0 -0.44571287222E+02  0.62512534460E+01 -0.13215388969E+03  0.18745089084E+03  0.12509000000E+03 0.  0.
         25    1    4    4    0    0  0.26121172444E+02  0.45004975735E+02 -0.12255263264E+03  0.18268666990E+03  0.12509000000E+03 0.  0.
         25    1    3    3    0    0  0.18450114777E+02 -0.51256229181E+02  0.33795784445E+02  0.14056055959E+03  0.12509000000E+03 0.  0.
<mgrwt>
<rscale>  2 0.46044654E+03</rscale>
<asrwt>0</asrwt>
<pdfrwt beam="1">  1       21 0.21307896E-01 0.46044654E+03</pdfrwt>
<pdfrwt beam="2">  1       21 0.53794769E-01 0.46044654E+03</pdfrwt>
<totfact> 0.61809980E+04</totfact>
</mgrwt>
</event>
<event>
 7    0  0.4759581E-002  0.4395192E+03  0.7546771E-02  0.1030894E+00
         21   -1    0    0  502  501  0.00000000000E+00  0.00000000000E+00  0.30260665971E+02  0.30260665971E+02  0.00000000000E+00 0. -1.
         21   -1    0    0  501  502 -0.00000000000E+00 -0.00000000000E+00 -0.15959423603E+04  0.15959423603E+04  0.00000000000E+00 0. -1.
      99926    2    1    2    0    0 -0.88817841970E-15  0.00000000000E+00 -0.15656816943E+04  0.16262030263E+04  0.43951918581E+03 0.  0.
      99925    2    3    3    0    0  0.74535110587E+01 -0.97719275731E+02 -0.99691326764E+03  0.10356527380E+04  0.26293710057E+03 0.  0.
         25    1    4    4    0    0 -0.68364705646E+01 -0.90108644146E+02 -0.53127261402E+03  0.55323087729E+03  0.12509000000E+03 0.  0.
         25    1    3    3    0    0 -0.74535110587E+01  0.97719275731E+02 -0.56876842669E+03  0.59055028827E+03  0.12509000000E+03 0.  0.
         25    1    4    4    0    0  0.14289981623E+02 -0.76106315847E+01 -0.46564065362E+03  0.48242186071E+03  0.12509000000E+03 0.  0.
<mgrwt>
<rscale>  2 0.43951919E+03</rscale>
<asrwt>0</asrwt>
<pdfrwt beam="1">  1       21 0.44500982E-02 0.43951919E+03</pdfrwt>
<pdfrwt beam="2">  1       21 0.23469739E+00 0.43951919E+03</pdfrwt>
<totfact> 0.23550324E+04</totfact>
</mgrwt>
</event>
<event>
 7    0  0.4759581E-002  0.4556965E+03  0.7546771E-02  0.1026037E+00
         21   -1    0    0  502  501  0.00000000000E+00  0.00000000000E+00  0.10341315315E+04  0.10341315315E+04  0.00000000000E+00 0. -1.
         21   -1    0    0  501  502 -0.00000000000E+00 -0.00000000000E+00 -0.50201374904E+02  0.50201374904E+02  0.00000000000E+00 0. -1.
      99926    2    1    2    0    0 -0.71054273576E-14  0.00000000000E+00  0.98393015663E+03  0.10843329064E+04  0.45569649863E+03 0.  0.
      99925    2    3    3    0    0 -0.58848400721E+02 -0.96325653362E+02  0.58432730815E+03  0.65066055273E+03  0.26301898422E+03 0.  0.
         25    1    4    4    0    0 -0.58517960243E+02 -0.55400123934E+02  0.24428002544E+03  0.28603105484E+03  0.12509000000E+03 0.  0.
         25    1    4    4    0    0 -0.33044047835E+00 -0.40925529428E+02  0.34004728271E+03  0.36462949789E+03  0.12509000000E+03 0.  0.
         25    1    3    3    0    0  0.58848400721E+02  0.96325653362E+02  0.39960284848E+03  0.43367235372E+03  0.12509000000E+03 0.  0.
<mgrwt>
<rscale>  2 0.45569650E+03</rscale>
<asrwt>0</asrwt>
<pdfrwt beam="1">  1       21 0.15207815E+00 0.45569650E+03</pdfrwt>
<pdfrwt beam="2">  1       21 0.73825558E-02 0.45569650E+03</pdfrwt>
<totfact> 0.35847052E+04</totfact>
</mgrwt>
</event>
<event>
 7    0  0.4759581E-002  0.4541136E+03  0.7546771E-02  0.1026502E+00
         21   -1    0    0  502  501  0.00000000000E+00  0.00000000000E+00  0.16315296956E+03  0.16315296956E+03  0.00000000000E+00 0. -1.
         21   -1    0    0  501  502 -0.00000000000E+00 -0.00000000000E+00 -0.31599050812E+03  0.31599050812E+03  0.00000000000E+00 0. -1.
      99926    2    1    2    0    0  0.22204460493E-14 -0.88817841970E-15 -0.15283753856E+03  0.47914347768E+03  0.45411359704E+03 0.  0.
      99925    2    3    3    0    0  0.21494363481E+01  0.64416528154E+01 -0.21452408937E+03  0.33950518201E+03  0.26305335718E+03 0.  0.
         25    1    3    3    0    0 -0.21494363481E+01 -0.64416528154E+01  0.61686550810E+02  0.13963829567E+03  0.12509000000E+03 0.  0.
         25    1    4    4    0    0  0.35607672998E+02  0.22327762414E+02 -0.95316444293E+02  0.16278565048E+03  0.12509000000E+03 0.  0.
         25    1    4    4    0    0 -0.33458236650E+02 -0.15886109599E+02 -0.11920764508E+03  0.17671953153E+03  0.12509000000E+03 0.  0.
<mgrwt>
<rscale>  2 0.45411360E+03</rscale>
<asrwt>0</asrwt>
<pdfrwt beam="1">  1       21 0.23993084E-01 0.45411360E+03</pdfrwt>
<pdfrwt beam="2">  1       21 0.46469192E-01 0.45411360E+03</pdfrwt>
<totfact> 0.67234294E+04</totfact>
</mgrwt>
</event>
<event>
 7    0  0.4759581E-002  0.4597205E+03  0.7546771E-02  0.1024862E+00
         21   -1    0    0  502  501  0.00000000000E+00  0.00000000000E+00  0.49054792515E+03  0.49054792515E+03  0.00000000000E+00 0. -1.
         21   -1    0    0  501  502 -0.00000000000E+00 -0.00000000000E+00 -0.10770759167E+03  0.10770759167E+03  0.00000000000E+00 0. -1.
      99926    2    1    2    0    0 -0.35527136788E-14  0.71054273576E-14  0.38284033348E+03  0.59825551682E+03  0.45972050473E+03 0.  0.
      99925    2    3    3    0    0 -0.11314811964E+02  0.42931515337E+02  0.38143063655E+03  0.46551277569E+03  0.26313812695E+03 0.  0.
         25    1    4    4    0    0  0.15752839541E+02 -0.62958741366E+01  0.14551121681E+03  0.19263647708E+03  0.12509000000E+03 0.  0.
         25    1    4    4    0    0 -0.27067651505E+02  0.49227389473E+02  0.23591941974E+03  0.27287629861E+03  0.12509000000E+03 0.  0.
         25    1    3    3    0    0  0.11314811964E+02 -0.42931515337E+02  0.14096969313E+01  0.13274274114E+03  0.12509000000E+03 0.  0.
<mgrwt>
<rscale>  2 0.45972050E+03</rscale>
<asrwt>0</asrwt>
<pdfrwt beam="1">  1       21 0.72139400E-01 0.45972050E+03</pdfrwt>
<pdfrwt beam="2">  1       21 0.15839352E-01 0.45972050E+03</pdfrwt>
<totfact> 0.56643192E+04</totfact>
</mgrwt>
</event>
<event>
 7    0  0.4759581E-002  0.4522673E+03  0.7546771E-02  0.1027048E+00
         21   -1    0    0  502  501  0.00000000000E+00  0.00000000000E+00  0.85354742853E+02  0.85354742853E+02  0.00000000000E+00 0. -1.
         21   -1    0    0  501  502 -0.00000000000E+00 -0.00000000000E+00 -0.59910471213E+03  0.59910471213E+03  0.00000000000E+00 0. -1.
      99926    2    1    2    0    0  0.00000000000E+00  0.00000000000E+00 -0.51374996927E+03  0.68445945498E+03  0.45226730435E+03 0.  0.
      99925    2    3    3    0    0 -0.54723463304E+02  0.61752953977E+02 -0.21278197876E+03  0.34824921692E+03  0.26304612113E+03 0.  0.
         25    1    4    4    0    0 -0.27392873359E+01  0.35582246516E+01 -0.12376555874E+03  0.17602723167E+03  0.12509000000E+03 0.  0.
         25    1    3    3    0    0  0.54723463304E+02 -0.61752953977E+02 -0.30096799051E+03  0.33621023806E+03  0.12509000000E+03 0.  0.
         25    1    4    4    0    0 -0.51984175968E+02  0.58194729325E+02 -0.89016420016E+02  0.17222198525E+03  0.12509000000E+03 0.  0.
<mgrwt>
<rscale>  2 0.45226730E+03</rscale>
<asrwt>0</asrwt>
<pdfrwt beam="1">  1       21 0.12552168E-01 0.45226730E+03</pdfrwt>
<pdfrwt beam="2">  1       21 0.88103637E-01 0.45226730E+03</pdfrwt>
<totfact> 0.54927352E+04</totfact>
</mgrwt>
</event>
<event>
 7    0  0.4759581E-002  0.4532578E+03  0.7546771E-02  0.1026755E+00
         21   -1    0    0  502  501  0.00000000000E+00  0.00000000000E+00  0.37211549278E+02  0.37211549278E+02  0.00000000000E+00 0.  1.
         21   -1    0    0  501  502 -0.00000000000E+00 -0.00000000000E+00 -0.13802344643E+04  0.13802344643E+04  0.00000000000E+00 0.  1.
      99926    2    1    2    0    0  0.00000000000E+00  0.00000000000E+00 -0.13430229150E+04  0.14174460136E+04  0.45325781972E+03 0.  0.
      99925    2    3    3    0    0 -0.65404020873E+02 -0.49905702815E+02 -0.10824392332E+04  0.11169137716E+04  0.26278016395E+03 0.  0.
         25    1    4    4    0    0  0.76412201348E+01 -0.25909732084E+02 -0.46889778309E+03  0.48604767416E+03  0.12509000000E+03 0.  0.
         25    1    4    4    0    0 -0.73045241008E+02 -0.23995970730E+02 -0.61354145008E+03  0.63086609745E+03  0.12509000000E+03 0.  0.
         25    1    3    3    0    0  0.65404020873E+02  0.49905702815E+02 -0.26058368185E+03  0.30053224197E+03  0.12509000000E+03 0.  0.
<mgrwt>
<rscale>  2 0.45325782E+03</rscale>
<asrwt>0</asrwt>
<pdfrwt beam="1">  1       21 0.54722869E-02 0.45325782E+03</pdfrwt>
<pdfrwt beam="2">  1       21 0.20297565E+00 0.45325782E+03</pdfrwt>
<totfact> 0.26224018E+04</totfact>
</mgrwt>
</event>
<event>
 7    0  0.4759581E-002  0.4562708E+03  0.7546771E-02  0.1025868E+00
         21   -1    0    0  502  501  0.00000000000E+00  0.00000000000E+00  0.39328873680E+03  0.39328873680E+03  0.00000000000E+00 0. -1.
         21   -1    0    0  501  502 -0.00000000000E+00 -0.00000000000E+00 -0.13233472526E+03  0.13233472526E+03  0.00000000000E+00 0. -1.
      99926    2    1    2    0    0 -0.17763568394E-14  0.00000000000E+00  0.26095401154E+03  0.52562346206E+03  0.45627078334E+03 0.  0.
      99925    2    3    3    0    0 -0.14764870031E+02  0.83337057355E+02  0.25255320678E+03  0.37435830370E+03  0.26305503374E+03 0.  0.
         25    1    4    4    0    0  0.26156827530E+02  0.61843179719E+02  0.11425596182E+03  0.18223800760E+03  0.12509000000E+03 0.  0.
         25    1    4    4    0    0 -0.40921697561E+02  0.21493877636E+02  0.13829724496E+03  0.19212029609E+03  0.12509000000E+03 0.  0.
         25    1    3    3    0    0  0.14764870031E+02 -0.83337057355E+02  0.84008047636E+01  0.15126515837E+03  0.12509000000E+03 0.  0.
<mgrwt>
<rscale>  2 0.45627078E+03</rscale>
<asrwt>0</asrwt>
<pdfrwt beam="1">  1       21 0.57836579E-01 0.45627078E+03</pdfrwt>
<pdfrwt beam="2">  1       21 0.19460989E-01 0.45627078E+03</pdfrwt>
<totfact> 0.62868040E+04</totfact>
</mgrwt>
</event>
<event>
 7    0  0.4759581E-002  0.4552663E+03  0.7546771E-02  0.1026163E+00
         21   -1    0    0  502  501  0.00000000000E+00  0.00000000000E+00  0.96006655730E+02  0.96006655730E+02  0.00000000000E+00 0.  1.
         21   -1    0    0  501  502 -0.00000000000E+00 -0.00000000000E+00 -0.53972154212E+03  0.53972154212E+03  0.00000000000E+00 0.  1.
      99926    2    1    2    0    0  0.35527136788E-14  0.71054273576E-14 -0.44371488639E+03  0.63572819785E+03  0.45526634088E+03 0.  0.
      99925    2    3    3    0    0  0.31668539933E+02 -0.60446754365E+02 -0.40571113725E+03  0.48825447279E+03  0.26293382584E+03 0.  0.
         25    1    4    4    0    0 -0.19130740626E+02 -0.40930254466E+02 -0.16910487475E+03  0.21514004214E+03  0.12509000000E+03 0.  0.
         25    1    4    4    0    0  0.50799280558E+02 -0.19516499900E+02 -0.23660626251E+03  0.27311443065E+03  0.12509000000E+03 0.  0.
         25    1    3    3    0    0 -0.31668539933E+02  0.60446754365E+02 -0.38003749138E+02  0.14747372506E+03  0.12509000000E+03 0.  0.
<mgrwt>
<rscale>  2 0.45526634E+03</rscale>
<asrwt>0</asrwt>
<pdfrwt beam="1">  1       21 0.14118626E-01 0.45526634E+03</pdfrwt>
<pdfrwt beam="2">  1       21 0.79370813E-01 0.45526634E+03</pdfrwt>
<totfact> 0.56412590E+04</totfact>
</mgrwt>
</event>
<event>
 7    0  0.4759581E-002  0.4545421E+03  0.7546771E-02  0.1026376E+00
         21   -1    0    0  502  501  0.00000000000E+00  0.00000000000E+00  0.31188656863E+03  0.31188656863E+03  0.00000000000E+00 0.  1.
         21   -1    0    0  501  502 -0.00000000000E+00 -0.00000000000E+00 -0.16561188131E+03  0.16561188131E+03  0.00000000000E+00 0.  1.
      99926    2    1    2    0    0  0.00000000000E+00  0.00000000000E+00  0.14627468732E+03  0.47749844995E+03  0.45454206137E+03 0.  0.
      99925    2    3    3    0    0 -0.50439608581E+02 -0.81707423969E+02  0.15415295061E+03  0.31960661235E+03  0.26299239007E+03 0.  0.
         25    1    4    4    0    0 -0.18300644926E+02 -0.86448369871E+01  0.10080280652E+03  0.16192084706E+03  0.12509000000E+03 0.  0.
         25    1    4    4    0    0 -0.32138963654E+02 -0.73062586982E+02  0.53350144096E+02  0.15768576529E+03  0.12509000000E+03 0.  0.
         25    1    3    3    0    0  0.50439608581E+02  0.81707423969E+02 -0.78782632952E+01  0.15789183759E+03  0.12509000000E+03 0.  0.
<mgrwt>
<rscale>  2 0.45454206E+03</rscale>
<asrwt>0</asrwt>
<pdfrwt beam="1">  1       21 0.45865672E-01 0.45454206E+03</pdfrwt>
<pdfrwt beam="2">  1       21 0.24354688E-01 0.45454206E+03</pdfrwt>
<totfact> 0.67126288E+04</totfact>
</mgrwt>
</event>
<event>
 7    0  0.4759581E-002  0.4588497E+03  0.7546771E-02  0.1025115E+00
         21   -1    0    0  502  501  0.00000000000E+00  0.00000000000E+00  0.64020781833E+03  0.64020781833E+03  0.00000000000E+00 0.  1.
         21   -1    0    0  501  502 -0.00000000000E+00 -0.00000000000E+00 -0.82216690498E+02  0.82216690498E+02  0.00000000000E+00 0.  1.
      99926    2    1    2    0    0  0.00000000000E+00 -0.71054273576E-14  0.55799112784E+03  0.72242450883E+03  0.45884972727E+03 0.  0.
      99925    2    3    3    0    0  0.82931910103E+02 -0.53230986286E+02  0.44847526126E+03  0.52915663063E+03  0.26299323215E+03 0.  0.
         25    1    4    4    0    0  0.50282679061E+02 -0.51424036850E+02  0.17620246493E+03  0.22774458528E+03  0.12509000000E+03 0.  0.
         25    1    3    3    0    0 -0.82931910103E+02  0.53230986286E+02  0.10951586657E+03  0.19326787820E+03  0.12509000000E+03 0.  0.
         25    1    4    4    0    0  0.32649231042E+02 -0.18069494369E+01  0.27227279634E+03  0.30141204535E+03  0.12509000000E+03 0.  0.
<mgrwt>
<rscale>  2 0.45884973E+03</rscale>
<asrwt>0</asrwt>
<pdfrwt beam="1">  1       21 0.94148206E-01 0.45884973E+03</pdfrwt>
<pdfrwt beam="2">  1       21 0.12090690E-01 0.45884973E+03</pdfrwt>
<totfact> 0.50166045E+04</totfact>
</mgrwt>
</event>
<event>
 7    0  0.4759581E-002  0.4624957E+03  0.7546771E-02  0.1024060E+00
         21   -1    0    0  502  501  0.00000000000E+00  0.00000000000E+00  0.74473195911E+02  0.74473195911E+02  0.00000000000E+00 0.  1.
         21   -1    0    0  501  502 -0.00000000000E+00 -0.00000000000E+00 -0.71805108690E+03  0.71805108690E+03  0.00000000000E+00 0.  1.
      99926    2    1    2    0    0  0.00000000000E+00 -0.71054273576E-14 -0.64357789099E+03  0.79252428281E+03  0.46249566168E+03 0.  0.
      99925    2    3    3    0    0 -0.88802188858E+02  0.38657672048E+02 -0.28095552272E+03  0.39689474091E+03  0.26307638675E+03 0.  0.
         25    1    4    4    0    0 -0.83208073005E+02  0.35740971270E+01 -0.14816197294E+03  0.21103515325E+03  0.12509000000E+03 0.  0.
         25    1    4    4    0    0 -0.55941158528E+01  0.35083574921E+02 -0.13279354978E+03  0.18585958766E+03  0.12509000000E+03 0.  0.
         25    1    3    3    0    0  0.88802188858E+02 -0.38657672048E+02 -0.36262236827E+03  0.39562954190E+03  0.12509000000E+03 0.  0.
<mgrwt>
<rscale>  2 0.46249566E+03</rscale>
<asrwt>0</asrwt>
<pdfrwt beam="1">  1       21 0.10951941E-01 0.46249566E+03</pdfrwt>
<pdfrwt beam="2">  1       21 0.10559575E+00 0.46249566E+03</pdfrwt>
<totfact> 0.45398367E+04</totfact>
</mgrwt>
</event>
<event>
 7    0  0.4759581E-002  0.4673708E+03  0.7546771E-02  0.1022665E+00
         21   -1    0    0  502  501  0.00000000000E+00  0.00000000000E+00  0.68075328407E+03  0.68075328407E+03  0.00000000000E+00 0.  1.
         21   -1    0    0  501  502 -0.00000000000E+00 -0.00000000000E+00 -0.80218287288E+02  0.80218287288E+02  0.00000000000E+00 0.  1.
      99926    2    1    2    0    0  0.00000000000E+00  0.00000000000E+00  0.60053499678E+03  0.76097157135E+03  0.46737078434E+03 0.  0.
      99925    2    3    3    0    0 -0.94202543892E+02  0.79670048211E+02  0.34703609755E+03  0.45253902465E+03  0.26293740694E+03 0.  0.
         25    1    4    4    0    0 -0.43798776305E+02  0.64621740686E+01  0.19998422366E+03  0.24000268813E+03  0.12509000000E+03 0.  0.
         25    1    3    3    0    0  0.94202543892E+02 -0.79670048211E+02  0.25349889923E+03  0.30843254671E+03  0.12509000000E+03 0.  0.
         25    1    4    4    0    0 -0.50403767587E+02  0.73207874143E+02  0.14705187389E+03  0.21253633651E+03  0.12509000000E+03 0.  0.
<mgrwt>
<rscale>  2 0.46737078E+03</rscale>
<asrwt>0</asrwt>
<pdfrwt beam="1">  1       21 0.10011077E+00 0.46737078E+03</pdfrwt>
<pdfrwt beam="2">  1       21 0.11796807E-01 0.46737078E+03</pdfrwt>
<totfact> 0.45161445E+04</totfact>
</mgrwt>
</event>
<event>
 7    0  0.4759581E-002  0.4446613E+03  0.7546771E-02  0.1029326E+00
         21   -1    0    0  502  501  0.00000000000E+00  0.00000000000E+00  0.19555761772E+03  0.19555761772E+03  0.00000000000E+00 0.  1.
         21   -1    0    0  501  502 -0.00000000000E+00 -0.00000000000E+00 -0.25276902365E+03  0.25276902365E+03  0.00000000000E+00 0.  1.
      99926    2    1    2    0    0 -0.17763568394E-14  0.00000000000E+00 -0.57211405931E+02  0.44832664137E+03  0.44466125578E+03 0.  0.
      99925    2    3    3    0    0 -0.86266994495E+01 -0.37548776258E+02 -0.13277736179E+03  0.29719076764E+03  0.26307450281E+03 0.  0.
         25    1    4    4    0    0 -0.19665006333E+02  0.26088592113E+01 -0.99905582300E+02  0.16131383107E+03  0.12509000000E+03 0.  0.
         25    1    3    3    0    0  0.86266994495E+01  0.37548776258E+02  0.75565955862E+02  0.15113587373E+03  0.12509000000E+03 0.  0.
         25    1    4    4    0    0  0.11038306884E+02 -0.40157635469E+02 -0.32871779493E+02  0.13587693657E+03  0.12509000000E+03 0.  0.
<mgrwt>
<rscale>  2 0.44466126E+03</rscale>
<asrwt>0</asrwt>
<pdfrwt beam="1">  1       21 0.28758473E-01 0.44466126E+03</pdfrwt>
<pdfrwt beam="2">  1       21 0.37171915E-01 0.44466126E+03</pdfrwt>
<totfact> 0.75038449E+04</totfact>
</mgrwt>
</event>
<event>
 7    0  0.4759581E-002  0.4528852E+03  0.7546771E-02  0.1026865E+00
         21   -1    0    0  502  501  0.00000000000E+00  0.00000000000E+00  0.65370746976E+03  0.65370746976E+03  0.00000000000E+00 0.  1.
         21   -1    0    0  501  502 -0.00000000000E+00 -0.00000000000E+00 -0.78439140440E+02  0.78439140440E+02  0.00000000000E+00 0.  1.
      99926    2    1    2    0    0  0.00000000000E+00 -0.71054273576E-14  0.57526832932E+03  0.73214661020E+03  0.45288520412E+03 0.  0.
      99925    2    3    3    0    0  0.51792580883E+02  0.32520161389E+02  0.21257527803E+03  0.34364462837E+03  0.26298925728E+03 0.  0.
         25    1    3    3    0    0 -0.51792580883E+02 -0.32520161389E+02  0.36269305129E+03  0.38850198183E+03  0.12509000000E+03 0.  0.
         25    1    4    4    0    0  0.24701871826E+02 -0.24031994079E+02  0.93817666733E+02  0.16011552674E+03  0.12509000000E+03 0.  0.
         25    1    4    4    0    0  0.27090709057E+02  0.56552155468E+02  0.11875761130E+03  0.18352910163E+03  0.12509000000E+03 0.  0.
<mgrwt>
<rscale>  2 0.45288520E+03</rscale>
<asrwt>0</asrwt>
<pdfrwt beam="1">  1       21 0.96133449E-01 0.45288520E+03</pdfrwt>
<pdfrwt beam="2">  1       21 0.11535168E-01 0.45288520E+03</pdfrwt>
<totfact> 0.52052326E+04</totfact>
</mgrwt>
</event>
<event>
 7    0  0.4759581E-002  0.4218189E+03  0.7546771E-02  0.1036476E+00
         21   -1    0    0  502  501  0.00000000000E+00  0.00000000000E+00  0.21113471977E+04  0.21113471977E+04  0.00000000000E+00 0. -1.
         21   -1    0    0  501  502 -0.00000000000E+00 -0.00000000000E+00 -0.21068439219E+02  0.21068439219E+02  0.00000000000E+00 0. -1.
      99926    2    1    2    0    0  0.00000000000E+00  0.00000000000E+00  0.20902787585E+04  0.21324156370E+04  0.42181887158E+03 0.  0.
      99925    2    3    3    0    0  0.18804223700E+02  0.66498329364E+02  0.11832441838E+04  0.12141918873E+04  0.26347583191E+03 0.  0.
         25    1    4    4    0    0  0.30163728064E+02  0.50416218416E+02  0.47416176697E+03  0.49389121771E+03  0.12509000000E+03 0.  0.
         25    1    3    3    0    0 -0.18804223700E+02 -0.66498329364E+02  0.90703457467E+03  0.91822374963E+03  0.12509000000E+03 0.  0.
         25    1    4    4    0    0 -0.11359504364E+02  0.16082110948E+02  0.70908241688E+03  0.72030066962E+03  0.12509000000E+03 0.  0.
<mgrwt>
<rscale>  2 0.42181887E+03</rscale>
<asrwt>0</asrwt>
<pdfrwt beam="1">  1       21 0.31049209E+00 0.42181887E+03</pdfrwt>
<pdfrwt beam="2">  1       21 0.30983013E-02 0.42181887E+03</pdfrwt>
<totfact> 0.15228115E+04</totfact>
</mgrwt>
</event>
<event>
 7    0  0.4759581E-002  0.4577919E+03  0.7546771E-02  0.1025424E+00
         21   -1    0    0  502  501  0.00000000000E+00  0.00000000000E+00  0.12167392319E+03  0.12167392319E+03  0.00000000000E+00 0.  1.
         21   -1    0    0  501  502 -0.00000000000E+00 -0.00000000000E+00 -0.43060457462E+03  0.43060457462E+03  0.00000000000E+00 0.  1.
      99926    2    1    2    0    0  0.00000000000E+00  0.00000000000E+00 -0.30893065143E+03  0.55227849781E+03  0.45779186510E+03 0.  0.
      99925    2    3    3    0    0 -0.10062204818E+03 -0.41835964858E+02 -0.14678479590E+03  0.32030041457E+03  0.26300481884E+03 0.  0.
         25    1    4    4    0    0 -0.20027633916E+02 -0.33016061031E+02 -0.97729507791E+02  0.16336992134E+03  0.12509000000E+03 0.  0.
         25    1    4    4    0    0 -0.80594414268E+02 -0.88199038264E+01 -0.49055288104E+02  0.15693049323E+03  0.12509000000E+03 0.  0.
         25    1    3    3    0    0  0.10062204818E+03  0.41835964858E+02 -0.16214585554E+03  0.23197808324E+03  0.12509000000E+03 0.  0.
<mgrwt>
<rscale>  2 0.45779187E+03</rscale>
<asrwt>0</asrwt>
<pdfrwt beam="1">  1       21 0.17893225E-01 0.45779187E+03</pdfrwt>
<pdfrwt beam="2">  1       21 0.63324200E-01 0.45779187E+03</pdfrwt>
<totfact> 0.60371629E+04</totfact>
</mgrwt>
</event>
<event>
 7    0  0.4759581E-002  0.4272825E+03  0.7546771E-02  0.1034722E+00
         21   -1    0    0  502  501  0.00000000000E+00  0.00000000000E+00  0.26271778252E+02  0.26271778252E+02  0.00000000000E+00 0. -1.
         21   -1    0    0  501  502 -0.00000000000E+00 -0.00000000000E+00 -0.17373236630E+04  0.17373236630E+04  0.00000000000E+00 0. -1.
      99926    2    1    2    0    0 -0.35527136788E-14  0.00000000000E+00 -0.17110518848E+04  0.17635954413E+04  0.42728249216E+03 0.  0.
      99925    2    3    3    0    0  0.28729384585E+02  0.76723057428E+02 -0.11929545995E+04  0.12243514240E+04  0.26302837844E+03 0.  0.
         25    1    4    4    0    0 -0.11360276089E+02  0.54338967842E+01 -0.51602126709E+03  0.53111584357E+03  0.12509000000E+03 0.  0.
         25    1    3    3    0    0 -0.28729384585E+02 -0.76723057428E+02 -0.51809728532E+03  0.53924401734E+03  0.12509000000E+03 0.  0.
         25    1    4    4    0    0  0.40089660674E+02  0.71289160644E+02 -0.67693333239E+03  0.69323558039E+03  0.12509000000E+03 0.  0.
<mgrwt>
<rscale>  2 0.42728249E+03</rscale>
<asrwt>0</asrwt>
<pdfrwt beam="1">  1       21 0.38634965E-02 0.42728249E+03</pdfrwt>
<pdfrwt beam="2">  1       21 0.25548880E+00 0.42728249E+03</pdfrwt>
<totfact> 0.22418436E+04</totfact>
</mgrwt>
</event>
<event>
 7    0  0.4759581E-002  0.4483451E+03  0.7546771E-02  0.1028217E+00
         21   -1    0    0  502  501  0.00000000000E+00  0.00000000000E+00  0.20809570626E+03  0.20809570626E+03  0.00000000000E+00 0. -1.
         21   -1    0    0  501  502 -0.00000000000E+00 -0.00000000000E+00 -0.24149140167E+03  0.24149140167E+03  0.00000000000E+00 0. -1.
      99926    2    1    2    0    0  0.71054273576E-14  0.71054273576E-14 -0.33395695412E+02  0.44958710792E+03  0.44834506258E+03 0.  0.
      99925    2    3    3    0    0 -0.57988105377E+02 -0.50925291795E+02 -0.95144141113E+02  0.29016193941E+03  0.26303143877E+03 0.  0.
         25    1    4    4    0    0 -0.13169675682E+02 -0.36955626702E+02 -0.84841921461E+02  0.15615639097E+03  0.12509000000E+03 0.  0.
         25    1    4    4    0    0 -0.44818429695E+02 -0.13969665093E+02 -0.10302219652E+02  0.13400554844E+03  0.12509000000E+03 0.  0.
         25    1    3    3    0    0  0.57988105377E+02  0.50925291795E+02  0.61748445701E+02  0.15942516852E+03  0.12509000000E+03 0.  0.
<mgrwt>
<rscale>  2 0.44834506E+03</rscale>
<asrwt>0</asrwt>
<pdfrwt beam="1">  1       21 0.30602310E-01 0.44834506E+03</pdfrwt>
<pdfrwt beam="2">  1       21 0.35513441E-01 0.44834506E+03</pdfrwt>
<totfact> 0.72729978E+04</totfact>
</mgrwt>
</event>
<event>
 7    0  0.4759581E-002  0.4513258E+03  0.7546771E-02  0.1027327E+00
         21   -1    0    0  502  501  0.00000000000E+00  0.00000000000E+00  0.75461114639E+02  0.75461114639E+02  0.00000000000E+00 0.  1.
         21   -1    0    0  501  502 -0.00000000000E+00 -0.00000000000E+00 -0.67483432790E+03  0.67483432790E+03  0.00000000000E+00 0.  1.
      99926    2    1    2    0    0  0.00000000000E+00 -0.14210854715E-13 -0.59937321326E+03  0.75029544254E+03  0.45132582722E+03 0.  0.
      99925    2    3    3    0    0 -0.40906549223E+02 -0.96753684164E+02 -0.43048567386E+03  0.51533772244E+03  0.26309776054E+03 0.  0.
         25    1    4    4    0    0 -0.43078450616E+01 -0.15634038724E+02 -0.15372850177E+03  0.19885406974E+03  0.12509000000E+03 0.  0.
         25    1    4    4    0    0 -0.36598704162E+02 -0.81119645440E+02 -0.27675717209E+03  0.31648365270E+03  0.12509000000E+03 0.  0.
         25    1    3    3    0    0  0.40906549223E+02  0.96753684164E+02 -0.16888753940E+03  0.23495772010E+03  0.12509000000E+03 0.  0.
<mgrwt>
<rscale>  2 0.45132583E+03</rscale>
<asrwt>0</asrwt>
<pdfrwt beam="1">  1       21 0.11097223E-01 0.45132583E+03</pdfrwt>
<pdfrwt beam="2">  1       21 0.99240344E-01 0.45132583E+03</pdfrwt>
<totfact> 0.51733641E+04</totfact>
</mgrwt>
</event>
<event>
 7    0  0.4759581E-002  0.4568683E+03  0.7546771E-02  0.1025693E+00
         21   -1    0    0  502  501  0.00000000000E+00  0.00000000000E+00  0.15313902239E+03  0.15313902239E+03  0.00000000000E+00 0. -1.
         21   -1    0    0  501  502 -0.00000000000E+00 -0.00000000000E+00 -0.34075027807E+03  0.34075027807E+03  0.00000000000E+00 0. -1.
      99926    2    1    2    0    0  0.00000000000E+00 -0.35527136788E-14 -0.18761125568E+03  0.49388930045E+03  0.45686831565E+03 0.  0.
      99925    2    3    3    0    0  0.10713877662E+02  0.31401538237E+02 -0.23678822846E+03  0.35544535321E+03  0.26300549462E+03 0.  0.
         25    1    4    4    0    0  0.21386312646E+02  0.38033139092E+02 -0.16157536755E+03  0.20894497251E+03  0.12509000000E+03 0.  0.
         25    1    3    3    0    0 -0.10713877662E+02 -0.31401538237E+02  0.49176972776E+02  0.13844394725E+03  0.12509000000E+03 0.  0.
         25    1    4    4    0    0 -0.10672434985E+02 -0.66316008549E+01 -0.75212860904E+02  0.14650038070E+03  0.12509000000E+03 0.  0.
<mgrwt>
<rscale>  2 0.45686832E+03</rscale>
<asrwt>0</asrwt>
<pdfrwt beam="1">  1       21 0.22520445E-01 0.45686832E+03</pdfrwt>
<pdfrwt beam="2">  1       21 0.50110334E-01 0.45686832E+03</pdfrwt>
<totfact> 0.64736612E+04</totfact>
</mgrwt>
</event>
<event>
 7    0  0.4759581E-002  0.4534321E+03  0.7546771E-02  0.1026703E+00
         21   -1    0    0  502  501  0.00000000000E+00  0.00000000000E+00  0.53044885720E+02  0.53044885720E+02  0.00000000000E+00 0.  1.
         21   -1    0    0  501  502 -0.00000000000E+00 -0.00000000000E+00 -0.96899367830E+03  0.96899367830E+03  0.00000000000E+00 0.  1.
      99926    2    1    2    0    0 -0.14210854715E-13  0.35527136788E-14 -0.91594879258E+03  0.10220385640E+04  0.45343206295E+03 0.  0.
      99925    2    3    3    0    0  0.10499361206E+03 -0.24318240164E+02 -0.64346186221E+03  0.70342960197E+03  0.26297338540E+03 0.  0.
         25    1    4    4    0    0  0.92460696029E+02 -0.62542436484E+01 -0.31792732038E+03  0.35399630650E+03  0.12509000000E+03 0.  0.
         25    1    3    3    0    0 -0.10499361206E+03  0.24318240164E+02 -0.27248693038E+03  0.31860896206E+03  0.12509000000E+03 0.  0.
         25    1    4    4    0    0  0.12532916031E+02 -0.18063996515E+02 -0.32553454183E+03  0.34943329546E+03  0.12509000000E+03 0.  0.
<mgrwt>
<rscale>  2 0.45343206E+03</rscale>
<asrwt>0</asrwt>
<pdfrwt beam="1">  1       21 0.78007183E-02 0.45343206E+03</pdfrwt>
<pdfrwt beam="2">  1       21 0.14249907E+00 0.45343206E+03</pdfrwt>
<totfact> 0.38793117E+04</totfact>
</mgrwt>
</event>
<event>
 7    0  0.4759581E-002  0.4574836E+03  0.7546771E-02  0.1025514E+00
         21   -1    0    0  502  501  0.00000000000E+00  0.00000000000E+00  0.29776663236E+02  0.29776663236E+02  0.00000000000E+00 0. -1.
         21   -1    0    0  501  502 -0.00000000000E+00 -0.00000000000E+00 -0.17571754173E+04  0.17571754173E+04  0.00000000000E+00 0. -1.
      99926    2    1    2    0    0  0.14210854715E-13  0.00000000000E+00 -0.17273987541E+04  0.17869520806E+04  0.45748364189E+03 0.  0.
      99925    2    3    3    0    0 -0.78154163955E+02 -0.50350284767E+02 -0.13519060931E+04  0.13803989216E+04  0.26307389384E+03 0.  0.
         25    1    4    4    0    0 -0.60323088970E+02 -0.22099572096E+02 -0.87509466537E+03  0.88632130044E+03  0.12509000000E+03 0.  0.
         25    1    4    4    0    0 -0.17831074985E+02 -0.28250712671E+02 -0.47681142776E+03  0.49407762117E+03  0.12509000000E+03 0.  0.
         25    1    3    3    0    0  0.78154163955E+02  0.50350284767E+02 -0.37549266098E+03  0.40655315897E+03  0.12509000000E+03 0.  0.
<mgrwt>
<rscale>  2 0.45748364E+03</rscale>
<asrwt>0</asrwt>
<pdfrwt beam="1">  1       21 0.43789216E-02 0.45748364E+03</pdfrwt>
<pdfrwt beam="2">  1       21 0.25840812E+00 0.45748364E+03</pdfrwt>
<totfact> 0.17177894E+04</totfact>
</mgrwt>
</event>
<event>
 7    0  0.4759581E-002  0.4436455E+03  0.7546771E-02  0.1029634E+00
         21   -1    0    0  502  501  0.00000000000E+00  0.00000000000E+00  0.34186556818E+02  0.34186556818E+02  0.00000000000E+00 0.  1.
         21   -1    0    0  501  502 -0.00000000000E+00 -0.00000000000E+00 -0.14393184866E+04  0.14393184866E+04  0.00000000000E+00 0.  1.
      99926    2    1    2    0    0  0.00000000000E+00  0.71054273576E-14 -0.14051319297E+04  0.14735050434E+04  0.44364554870E+03 0.  0.
      99925    2    3    3    0    0  0.18635432105E+02 -0.38712308627E+02 -0.58790816498E+03  0.64564750010E+03  0.26339848475E+03 0.  0.
         25    1    3    3    0    0 -0.18635432105E+02  0.38712308627E+02 -0.81722376475E+03  0.82785754327E+03  0.12509000000E+03 0.  0.
         25    1    4    4    0    0  0.44967755252E+02 -0.38660146548E+02 -0.32745887218E+03  0.35551867322E+03  0.12509000000E+03 0.  0.
         25    1    4    4    0    0 -0.26332323148E+02 -0.52162078914E-01 -0.26044929281E+03  0.29012882688E+03  0.12509000000E+03 0.  0.
<mgrwt>
<rscale>  2 0.44364555E+03</rscale>
<asrwt>0</asrwt>
<pdfrwt beam="1">  1       21 0.50274359E-02 0.44364555E+03</pdfrwt>
<pdfrwt beam="2">  1       21 0.21166444E+00 0.44364555E+03</pdfrwt>
<totfact> 0.26715892E+04</totfact>
</mgrwt>
</event>
<event>
 7    0  0.4759581E-002  0.4518247E+03  0.7546771E-02  0.1027179E+00
         21   -1    0    0  502  501  0.00000000000E+00  0.00000000000E+00  0.58991047432E+02  0.58991047432E+02  0.00000000000E+00 0.  1.
         21   -1    0    0  501  502 -0.00000000000E+00 -0.00000000000E+00 -0.86515472587E+03  0.86515472587E+03  0.00000000000E+00 0.  1.
      99926    2    1    2    0    0  0.00000000000E+00  0.00000000000E+00 -0.80616367843E+03  0.92414577330E+03  0.45182467161E+03 0.  0.
      99925    2    3    3    0    0 -0.10607617768E+03  0.16159996932E+01 -0.56951722736E+03  0.63621554246E+03  0.26299349285E+03 0.  0.
         25    1    4    4    0    0 -0.96320123574E+02  0.38892796721E+01 -0.32823797853E+03  0.36425316931E+03  0.12509000000E+03 0.  0.
         25    1    4    4    0    0 -0.97560541057E+01 -0.22732799789E+01 -0.24127924883E+03  0.27196237315E+03  0.12509000000E+03 0.  0.
         25    1    3    3    0    0  0.10607617768E+03 -0.16159996932E+01 -0.23664645108E+03  0.28793023084E+03  0.12509000000E+03 0.  0.
<mgrwt>
<rscale>  2 0.45182467E+03</rscale>
<asrwt>0</asrwt>
<pdfrwt beam="1">  1       21 0.86751547E-02 0.45182467E+03</pdfrwt>
<pdfrwt beam="2">  1       21 0.12722863E+00 0.45182467E+03</pdfrwt>
<totfact> 0.43270672E+04</totfact>
</mgrwt>
</event>
<event>
 7    0  0.4759581E-002  0.4563044E+03  0.7546771E-02  0.1025859E+00
         21   -1    0    0  502  501  0.00000000000E+00  0.00000000000E+00  0.32590200223E+02  0.32590200223E+02  0.00000000000E+00 0.  1.
         21   -1    0    0  501  502 -0.00000000000E+00 -0.00000000000E+00 -0.15972110650E+04  0.15972110650E+04  0.00000000000E+00 0.  1.
      99926    2    1    2    0    0  0.14210854715E-13  0.00000000000E+00 -0.15646208648E+04  0.16298012653E+04  0.45630440895E+03 0.  0.
      99925    2    3    3    0    0  0.79371779595E+02  0.80576585245E+02 -0.10343016180E+04  0.10733136400E+04  0.26349547854E+03 0.  0.
         25    1    4    4    0    0  0.73963714391E+01  0.59322725480E+02 -0.43746440488E+03  0.45890794906E+03  0.12509000000E+03 0.  0.
         25    1    4    4    0    0  0.71975408156E+02  0.21253859765E+02 -0.59683721313E+03  0.61440569090E+03  0.12509000000E+03 0.  0.
         25    1    3    3    0    0 -0.79371779595E+02 -0.80576585245E+02 -0.53031924681E+03  0.55648762531E+03  0.12509000000E+03 0.  0.
<mgrwt>
<rscale>  2 0.45630441E+03</rscale>
<asrwt>0</asrwt>
<pdfrwt beam="1">  1       21 0.47926756E-02 0.45630441E+03</pdfrwt>
<pdfrwt beam="2">  1       21 0.23488403E+00 0.45630441E+03</pdfrwt>
<totfact> 0.20555651E+04</totfact>
</mgrwt>
</event>
<event>
 7    0  0.4759581E-002  0.4580843E+03  0.7546771E-02  0.1025338E+00
         21   -1    0    0  502  501  0.00000000000E+00  0.00000000000E+00  0.12589520372E+04  0.12589520372E+04  0.00000000000E+00 0.  1.
         21   -1    0    0  501  502 -0.00000000000E+00 -0.00000000000E+00 -0.41669826669E+02  0.41669826669E+02  0.00000000000E+00 0.  1.
      99926    2    1    2    0    0  0.00000000000E+00  0.00000000000E+00  0.12172822106E+04  0.13006218639E+04  0.45808432925E+03 0.  0.
      99925    2    3    3    0    0 -0.57464607513E+02 -0.46939559938E+02  0.51102617437E+03  0.57954586224E+03  0.26309722946E+03 0.  0.
         25    1    4    4    0    0 -0.22859789057E+02 -0.56593181694E+02  0.31336438497E+03  0.34288497202E+03  0.12509000000E+03 0.  0.
         25    1    3    3    0    0  0.57464607513E+02  0.46939559938E+02  0.70625603619E+03  0.72107600165E+03  0.12509000000E+03 0.  0.
         25    1    4    4    0    0 -0.34604818456E+02  0.96536217560E+01  0.19766178939E+03  0.23666089022E+03  0.12509000000E+03 0.  0.
<mgrwt>
<rscale>  2 0.45808433E+03</rscale>
<asrwt>0</asrwt>
<pdfrwt beam="1">  1       21 0.18513998E+00 0.45808433E+03</pdfrwt>
<pdfrwt beam="2">  1       21 0.61279165E-02 0.45808433E+03</pdfrwt>
<totfact> 0.28409051E+04</totfact>
</mgrwt>
</event>
<event>
 7    0  0.4759581E-002  0.4527832E+03  0.7546771E-02  0.1026895E+00
         21   -1    0    0  502  501  0.00000000000E+00  0.00000000000E+00  0.20993180729E+03  0.20993180729E+03  0.00000000000E+00 0. -1.
         21   -1    0    0  501  502 -0.00000000000E+00 -0.00000000000E+00 -0.24414192579E+03  0.24414192579E+03  0.00000000000E+00 0. -1.
      99926    2    1    2    0    0  0.71054273576E-14 -0.14210854715E-13 -0.34210118494E+02  0.45407373308E+03  0.45278319631E+03 0.  0.
      99925    2    3    3    0    0  0.61816755962E+02 -0.91306918578E+02 -0.81610349789E+01  0.28530072709E+03  0.26300501457E+03 0.  0.
         25    1    3    3    0    0 -0.61816755962E+02  0.91306918578E+02 -0.26049083515E+02  0.16877300599E+03  0.12509000000E+03 0.  0.
         25    1    4    4    0    0  0.44399142794E+01 -0.73929776821E+02 -0.16681184529E+02  0.14632530457E+03  0.12509000000E+03 0.  0.
         25    1    4    4    0    0  0.57376841683E+02 -0.17377141757E+02  0.85201495496E+01  0.13897542252E+03  0.12509000000E+03 0.  0.
<mgrwt>
<rscale>  2 0.45278320E+03</rscale>
<asrwt>0</asrwt>
<pdfrwt beam="1">  1       21 0.30872325E-01 0.45278320E+03</pdfrwt>
<pdfrwt beam="2">  1       21 0.35903224E-01 0.45278320E+03</pdfrwt>
<totfact> 0.69840883E+04</totfact>
</mgrwt>
</event>
<event>
 7    0  0.4759581E-002  0.4642588E+03  0.7546771E-02  0.1023553E+00
         21   -1    0    0  502  501  0.00000000000E+00  0.00000000000E+00  0.72423322930E+03  0.72423322930E+03  0.00000000000E+00 0. -1.
         21   -1    0    0  501  502 -0.00000000000E+00 -0.00000000000E+00 -0.74401536964E+02  0.74401536964E+02  0.00000000000E+00 0. -1.
      99926    2    1    2    0    0  0.00000000000E+00  0.00000000000E+00  0.64983169233E+03  0.79863476626E+03  0.46425883031E+03 0.  0.
      99925    2    3    3    0    0  0.42221188456E+02  0.11334141603E+03  0.42750631592E+03  0.51631405070E+03  0.26303924317E+03 0.  0.
         25    1    4    4    0    0 -0.12250274073E+01  0.32131273110E+02  0.14709326032E+03  0.19574946931E+03  0.12509000000E+03 0.  0.
         25    1    3    3    0    0 -0.42221188456E+02 -0.11334141603E+03  0.22232537641E+03  0.28232071557E+03  0.12509000000E+03 0.  0.
         25    1    4    4    0    0  0.43446215863E+02  0.81210142916E+02  0.28041305561E+03  0.32056458139E+03  0.12509000000E+03 0.  0.
<mgrwt>
<rscale>  2 0.46425883E+03</rscale>
<asrwt>0</asrwt>
<pdfrwt beam="1">  1       21 0.10650488E+00 0.46425883E+03</pdfrwt>
<pdfrwt beam="2">  1       21 0.10941403E-01 0.46425883E+03</pdfrwt>
<totfact> 0.44507708E+04</totfact>
</mgrwt>
</event>
<event>
 7    0  0.4759581E-002  0.4117773E+03  0.7546771E-02  0.1039776E+00
         21   -1    0    0  502  501  0.00000000000E+00  0.00000000000E+00  0.11690209281E+03  0.11690209281E+03  0.00000000000E+00 0. -1.
         21   -1    0    0  501  502 -0.00000000000E+00 -0.00000000000E+00 -0.36261229036E+03  0.36261229036E+03  0.00000000000E+00 0. -1.
      99926    2    1    2    0    0  0.00000000000E+00  0.00000000000E+00 -0.24571019755E+03  0.47951438317E+03  0.41177729720E+03 0.  0.
      99925    2    3    3    0    0 -0.39781708569E+02 -0.14075282017E+02 -0.21890874852E+03  0.34480534980E+03  0.26303800329E+03 0.  0.
         25    1    4    4    0    0 -0.12108844258E+01 -0.20646589800E+02 -0.15106656513E+03  0.19722160914E+03  0.12509000000E+03 0.  0.
         25    1    3    3    0    0  0.39781708569E+02  0.14075282017E+02 -0.26801449032E+02  0.13470903337E+03  0.12509000000E+03 0.  0.
         25    1    4    4    0    0 -0.38570824144E+02  0.65713077824E+01 -0.67842183393E+02  0.14758374066E+03  0.12509000000E+03 0.  0.
<mgrwt>
<rscale>  2 0.41177730E+03</rscale>
<asrwt>0</asrwt>
<pdfrwt beam="1">  1       21 0.17191484E-01 0.41177730E+03</pdfrwt>
<pdfrwt beam="2">  1       21 0.53325338E-01 0.41177730E+03</pdfrwt>
<totfact> 0.95527015E+04</totfact>
</mgrwt>
</event>
<event>
 7    0  0.4759581E-002  0.4546974E+03  0.7546771E-02  0.1026330E+00
         21   -1    0    0  502  501  0.00000000000E+00  0.00000000000E+00  0.30850623741E+03  0.30850623741E+03  0.00000000000E+00 0. -1.
         21   -1    0    0  501  502 -0.00000000000E+00 -0.00000000000E+00 -0.16754098058E+03  0.16754098058E+03  0.00000000000E+00 0. -1.
      99926    2    1    2    0    0  0.00000000000E+00  0.00000000000E+00  0.14096525683E+03  0.47604721799E+03  0.45469742701E+03 0.  0.
      99925    2    3    3    0    0  0.67392358319E+02  0.85498960878E+02  0.11983687192E+03  0.30887748682E+03  0.26304490819E+03 0.  0.
         25    1    4    4    0    0  0.28194347116E+02  0.10883926166E+01  0.44671167978E+02  0.13579074768E+03  0.12509000000E+03 0.  0.
         25    1    3    3    0    0 -0.67392358319E+02 -0.85498960878E+02  0.21128384902E+02  0.16716973117E+03  0.12509000000E+03 0.  0.
         25    1    4    4    0    0  0.39198011202E+02  0.84410568261E+02  0.75165703947E+02  0.17308673914E+03  0.12509000000E+03 0.  0.
<mgrwt>
<rscale>  2 0.45469743E+03</rscale>
<asrwt>0</asrwt>
<pdfrwt beam="1">  1       21 0.45368564E-01 0.45469743E+03</pdfrwt>
<pdfrwt beam="2">  1       21 0.24638380E-01 0.45469743E+03</pdfrwt>
<totfact> 0.67150079E+04</totfact>
</mgrwt>
</event>
<event>
 7    0  0.4759581E-002  0.4603336E+03  0.7546771E-02  0.1024685E+00
         21   -1    0    0  502  501  0.00000000000E+00  0.00000000000E+00  0.28830128379E+03  0.28830128379E+03  0.00000000000E+00 0.  1.
         21   -1    0    0  501  502 -0.00000000000E+00 -0.00000000000E+00 -0.18375482413E+03  0.18375482413E+03  0.00000000000E+00 0.  1.
      99926    2    1    2    0    0  0.00000000000E+00  0.00000000000E+00  0.10454645966E+03  0.47205610791E+03  0.46033358208E+03 0.  0.
      99925    2    3    3    0    0  0.88757765324E+01 -0.10086279218E+03  0.12791092202E+03  0.30943541902E+03  0.26293914185E+03 0.  0.
         25    1    4    4    0    0  0.96543953340E+01 -0.51741482798E+02  0.10828439068E+03  0.17361856397E+03  0.12509000000E+03 0.  0.
         25    1    4    4    0    0 -0.77861880161E+00 -0.49121309378E+02  0.19626531336E+02  0.13581685505E+03  0.12509000000E+03 0.  0.
         25    1    3    3    0    0 -0.88757765324E+01  0.10086279218E+03 -0.23364462358E+02  0.16262068889E+03  0.12509000000E+03 0.  0.
<mgrwt>
<rscale>  2 0.46033358E+03</rscale>
<asrwt>0</asrwt>
<pdfrwt beam="1">  1       21 0.42397247E-01 0.46033358E+03</pdfrwt>
<pdfrwt beam="2">  1       21 0.27022768E-01 0.46033358E+03</pdfrwt>
<totfact> 0.64510447E+04</totfact>
</mgrwt>
</event>
<event>
 7    0  0.4759581E-002  0.4563745E+03  0.7546771E-02  0.1025838E+00
         21   -1    0    0  502  501  0.00000000000E+00  0.00000000000E+00  0.90177816049E+02  0.90177816049E+02  0.00000000000E+00 0.  1.
         21   -1    0    0  501  502 -0.00000000000E+00 -0.00000000000E+00 -0.57740828424E+03  0.57740828424E+03  0.00000000000E+00 0.  1.
      99926    2    1    2    0    0  0.00000000000E+00  0.00000000000E+00 -0.48723046819E+03  0.66758610029E+03  0.45637448676E+03 0.  0.
      99925    2    3    3    0    0 -0.23488627907E+02 -0.93301245051E+02 -0.21548797103E+03  0.35334362889E+03  0.26298254019E+03 0.  0.
         25    1    3    3    0    0  0.23488627907E+02  0.93301245051E+02 -0.27174249716E+03  0.31424247140E+03  0.12509000000E+03 0.  0.
         25    1    4    4    0    0 -0.38912554651E+02 -0.39618986507E+02 -0.14458817754E+03  0.19909068332E+03  0.12509000000E+03 0.  0.
         25    1    4    4    0    0  0.15423926744E+02 -0.53682258545E+02 -0.70899793493E+02  0.15425294557E+03  0.12509000000E+03 0.  0.
<mgrwt>
<rscale>  2 0.45637449E+03</rscale>
<asrwt>0</asrwt>
<pdfrwt beam="1">  1       21 0.13261444E-01 0.45637449E+03</pdfrwt>
<pdfrwt beam="2">  1       21 0.84912983E-01 0.45637449E+03</pdfrwt>
<totfact> 0.54109617E+04</totfact>
</mgrwt>
</event>
<event>
 7    0  0.4759581E-002  0.4859412E+03  0.7546771E-02  0.1017515E+00
         21   -1    0    0  502  501  0.00000000000E+00  0.00000000000E+00  0.25247600765E+03  0.25247600765E+03  0.00000000000E+00 0. -1.
         21   -1    0    0  501  502 -0.00000000000E+00 -0.00000000000E+00 -0.23382301700E+03  0.23382301700E+03  0.00000000000E+00 0. -1.
      99926    2    1    2    0    0 -0.14210854715E-13  0.00000000000E+00  0.18652990649E+02  0.48629902465E+03  0.48594115623E+03 0.  0.
      99925    2    3    3    0    0  0.90473417924E+02  0.99790740192E+02  0.50242637117E+02  0.29978080827E+03  0.26306002974E+03 0.  0.
         25    1    4    4    0    0  0.64722787062E+02  0.23481101133E+02  0.49130743972E+02  0.15100244825E+03  0.12509000000E+03 0.  0.
         25    1    4    4    0    0  0.25750630863E+02  0.76309639058E+02  0.11118931457E+01  0.14877836002E+03  0.12509000000E+03 0.  0.
         25    1    3    3    0    0 -0.90473417924E+02 -0.99790740192E+02 -0.31589646468E+02  0.18651821638E+03  0.12509000000E+03 0.  0.
<mgrwt>
<rscale>  2 0.48594116E+03</rscale>
<asrwt>0</asrwt>
<pdfrwt beam="1">  1       21 0.37128825E-01 0.48594116E+03</pdfrwt>
<pdfrwt beam="2">  1       21 0.34385738E-01 0.48594116E+03</pdfrwt>
<totfact> 0.52187476E+04</totfact>
</mgrwt>
</event>
<event>
 7    0  0.4759581E-002  0.4451385E+03  0.7546771E-02  0.1029182E+00
         21   -1    0    0  502  501  0.00000000000E+00  0.00000000000E+00  0.44355489355E+02  0.44355489355E+02  0.00000000000E+00 0. -1.
         21   -1    0    0  501  502 -0.00000000000E+00 -0.00000000000E+00 -0.11168196040E+04  0.11168196040E+04  0.00000000000E+00 0. -1.
      99926    2    1    2    0    0 -0.99920072216E-15  0.00000000000E+00 -0.10724641146E+04  0.11611750933E+04  0.44513854048E+03 0.  0.
      99925    2    3    3    0    0  0.83255059560E+00 -0.70015041841E+02 -0.88027659804E+03  0.92141198346E+03  0.26307860989E+03 0.  0.
         25    1    3    3    0    0 -0.83255059560E+00  0.70015041841E+02 -0.19218751657E+03  0.23976310986E+03  0.12509000000E+03 0.  0.
         25    1    4    4    0    0  0.14975186681E+02 -0.51417115515E+02 -0.57078430465E+03  0.58677952121E+03  0.12509000000E+03 0.  0.
         25    1    4    4    0    0 -0.14142636086E+02 -0.18597926326E+02 -0.30949229339E+03  0.33463246225E+03  0.12509000000E+03 0.  0.
<mgrwt>
<rscale>  2 0.44513854E+03</rscale>
<asrwt>0</asrwt>
<pdfrwt beam="1">  1       21 0.65228660E-02 0.44513854E+03</pdfrwt>
<pdfrwt beam="2">  1       21 0.16423818E+00 0.44513854E+03</pdfrwt>
<totfact> 0.36107447E+04</totfact>
</mgrwt>
</event>
<event>
 7    0  0.4759581E-002  0.4525242E+03  0.7546771E-02  0.1026972E+00
         21   -1    0    0  502  501  0.00000000000E+00  0.00000000000E+00  0.31433592344E+03  0.31433592344E+03  0.00000000000E+00 0.  1.
         21   -1    0    0  501  502 -0.00000000000E+00 -0.00000000000E+00 -0.16286566748E+03  0.16286566748E+03  0.00000000000E+00 0.  1.
      99926    2    1    2    0    0 -0.71054273576E-14  0.00000000000E+00  0.15147025596E+03  0.47720159092E+03  0.45252416503E+03 0.  0.
      99925    2    3    3    0    0 -0.63629040979E+02  0.75255573010E+02  0.14877857618E+03  0.31793197874E+03  0.26312282731E+03 0.  0.
         25    1    4    4    0    0 -0.31231338385E+01  0.48248402508E+02  0.41710317089E+02  0.14044543767E+03  0.12509000000E+03 0.  0.
         25    1    3    3    0    0  0.63629040979E+02 -0.75255573010E+02  0.26916797781E+01  0.15926961218E+03  0.12509000000E+03 0.  0.
         25    1    4    4    0    0 -0.60505907141E+02  0.27007170502E+02  0.10706825909E+03  0.17748654107E+03  0.12509000000E+03 0.  0.
<mgrwt>
<rscale>  2 0.45252417E+03</rscale>
<asrwt>0</asrwt>
<pdfrwt beam="1">  1       21 0.46225871E-01 0.45252417E+03</pdfrwt>
<pdfrwt beam="2">  1       21 0.23950833E-01 0.45252417E+03</pdfrwt>
<totfact> 0.68235429E+04</totfact>
</mgrwt>
</event>
<event>
 7    0  0.4759581E-002  0.4714951E+03  0.7546771E-02  0.1021499E+00
         21   -1    0    0  502  501  0.00000000000E+00  0.00000000000E+00  0.23465464898E+03  0.23465464898E+03  0.00000000000E+00 0. -1.
         21   -1    0    0  501  502 -0.00000000000E+00 -0.00000000000E+00 -0.23684552167E+03  0.23684552167E+03  0.00000000000E+00 0. -1.
      99926    2    1    2    0    0 -0.35527136788E-14 -0.14210854715E-13 -0.21908726965E+01  0.47150017065E+03  0.47149508057E+03 0.  0.
      99925    2    3    3    0    0 -0.29227505452E+02  0.11855497758E+03  0.37104121341E+02  0.29233227609E+03  0.26300553995E+03 0.  0.
         25    1    4    4    0    0 -0.25452228466E+02  0.98696557890E+02  0.37328693111E+02  0.16561934036E+03  0.12509000000E+03 0.  0.
         25    1    3    3    0    0  0.29227505452E+02 -0.11855497758E+03 -0.39294994038E+02  0.17916789456E+03  0.12509000000E+03 0.  0.
         25    1    4    4    0    0 -0.37752769852E+01  0.19858419686E+02 -0.22457176901E+00  0.12671293573E+03  0.12509000000E+03 0.  0.
<mgrwt>
<rscale>  2 0.47149508E+03</rscale>
<asrwt>0</asrwt>
<pdfrwt beam="1">  1       21 0.34508037E-01 0.47149508E+03</pdfrwt>
<pdfrwt beam="2">  1       21 0.34830224E-01 0.47149508E+03</pdfrwt>
<totfact> 0.59173509E+04</totfact>
</mgrwt>
</event>
<event>
 7    0  0.4759581E-002  0.4554721E+03  0.7546771E-02  0.1026103E+00
         21   -1    0    0  502  501  0.00000000000E+00  0.00000000000E+00  0.31981633249E+03  0.31981633249E+03  0.00000000000E+00 0. -1.
         21   -1    0    0  501  502 -0.00000000000E+00 -0.00000000000E+00 -0.16216718141E+03  0.16216718141E+03  0.00000000000E+00 0. -1.
      99926    2    1    2    0    0  0.00000000000E+00  0.00000000000E+00  0.15764915109E+03  0.48198351390E+03  0.45547212081E+03 0.  0.
      99925    2    3    3    0    0 -0.56267824824E+02  0.75933478912E+02  0.32350295132E+02  0.28128654648E+03  0.26295174140E+03 0.  0.
         25    1    4    4    0    0 -0.39921651492E+02  0.50885931498E+02  0.54078671825E+02  0.15084802660E+03  0.12509000000E+03 0.  0.
         25    1    3    3    0    0  0.56267824824E+02 -0.75933478912E+02  0.12529885596E+03  0.20069696743E+03  0.12509000000E+03 0.  0.
         25    1    4    4    0    0 -0.16346173332E+02  0.25047547414E+02 -0.21728376692E+02  0.13043851988E+03  0.12509000000E+03 0.  0.
<mgrwt>
<rscale>  2 0.45547212E+03</rscale>
<asrwt>0</asrwt>
<pdfrwt beam="1">  1       21 0.47031814E-01 0.45547212E+03</pdfrwt>
<pdfrwt beam="2">  1       21 0.23848115E-01 0.45547212E+03</pdfrwt>
<totfact> 0.66307154E+04</totfact>
</mgrwt>
</event>
<event>
 7    0  0.4759581E-002  0.4454077E+03  0.7546771E-02  0.1029100E+00
         21   -1    0    0  502  501  0.00000000000E+00  0.00000000000E+00  0.65882569088E+02  0.65882569088E+02  0.00000000000E+00 0. -1.
         21   -1    0    0  501  502 -0.00000000000E+00 -0.00000000000E+00 -0.75280921315E+03  0.75280921315E+03  0.00000000000E+00 0. -1.
      99926    2    1    2    0    0  0.00000000000E+00  0.00000000000E+00 -0.68692664407E+03  0.81869178224E+03  0.44540770086E+03 0.  0.
      99925    2    3    3    0    0 -0.79427213437E+02  0.64377450006E+02 -0.47077966534E+03  0.54883966938E+03  0.26294172564E+03 0.  0.
         25    1    4    4    0    0 -0.79196004597E+02  0.40683552420E+02 -0.23133040038E+03  0.27764801606E+03  0.12509000000E+03 0.  0.
         25    1    3    3    0    0  0.79427213437E+02 -0.64377450006E+02 -0.21614697872E+03  0.26985211286E+03  0.12509000000E+03 0.  0.
         25    1    4    4    0    0 -0.23120884068E+00  0.23693897585E+02 -0.23944926497E+03  0.27119165333E+03  0.12509000000E+03 0.  0.
<mgrwt>
<rscale>  2 0.44540770E+03</rscale>
<asrwt>0</asrwt>
<pdfrwt beam="1">  1       21 0.96886132E-02 0.44540770E+03</pdfrwt>
<pdfrwt beam="2">  1       21 0.11070724E+00 0.44540770E+03</pdfrwt>
<totfact> 0.50574521E+04</totfact>
</mgrwt>
</event>
<event>
 7    0  0.4759581E-002  0.4507905E+03  0.7546771E-02  0.1027487E+00
         21   -1    0    0  502  501  0.00000000000E+00  0.00000000000E+00  0.13888064207E+04  0.13888064207E+04  0.00000000000E+00 0. -1.
         21   -1    0    0  501  502 -0.00000000000E+00 -0.00000000000E+00 -0.36580349460E+02  0.36580349460E+02  0.00000000000E+00 0. -1.
      99926    2    1    2    0    0  0.00000000000E+00  0.00000000000E+00  0.13522260712E+04  0.14253867701E+04  0.45079052430E+03 0.  0.
      99925    2    3    3    0    0  0.43565099513E+02  0.61850097273E+02  0.11031832160E+04  0.11366079546E+04  0.26294691885E+03 0.  0.
         25    1    4    4    0    0  0.30395942387E+02  0.53791864174E+02  0.71469686037E+03  0.72818719316E+03  0.12509000000E+03 0.  0.
         25    1    4    4    0    0  0.13169157126E+02  0.80582330995E+01  0.38848635559E+03  0.40842076147E+03  0.12509000000E+03 0.  0.
         25    1    3    3    0    0 -0.43565099513E+02 -0.61850097273E+02  0.24904285525E+03  0.28877881549E+03  0.12509000000E+03 0.  0.
<mgrwt>
<rscale>  2 0.45079052E+03</rscale>
<asrwt>0</asrwt>
<pdfrwt beam="1">  1       21 0.20423620E+00 0.45079052E+03</pdfrwt>
<pdfrwt beam="2">  1       21 0.53794641E-02 0.45079052E+03</pdfrwt>
<totfact> 0.26520205E+04</totfact>
</mgrwt>
</event>
<event>
 7    0  0.4759581E-002  0.4579892E+03  0.7546771E-02  0.1025366E+00
         21   -1    0    0  502  501  0.00000000000E+00  0.00000000000E+00  0.26148428986E+03  0.26148428986E+03  0.00000000000E+00 0. -1.
         21   -1    0    0  501  502 -0.00000000000E+00 -0.00000000000E+00 -0.20054177664E+03  0.20054177664E+03  0.00000000000E+00 0. -1.
      99926    2    1    2    0    0  0.00000000000E+00  0.00000000000E+00  0.60942513210E+02  0.46202606650E+03  0.45798918787E+03 0.  0.
      99925    2    3    3    0    0 -0.11351683604E+02 -0.10245660303E+03 -0.15219224046E+02  0.28293297745E+03  0.26304605817E+03 0.  0.
         25    1    4    4    0    0  0.19180080625E+01 -0.62224672801E+02 -0.46409628359E+02  0.14723094228E+03  0.12509000000E+03 0.  0.
         25    1    3    3    0    0  0.11351683604E+02  0.10245660303E+03  0.76161737256E+02  0.17909308905E+03  0.12509000000E+03 0.  0.
         25    1    4    4    0    0 -0.13269691666E+02 -0.40231930230E+02  0.31190404313E+02  0.13570203517E+03  0.12509000000E+03 0.  0.
<mgrwt>
<rscale>  2 0.45798919E+03</rscale>
<asrwt>0</asrwt>
<pdfrwt beam="1">  1       21 0.38453572E-01 0.45798919E+03</pdfrwt>
<pdfrwt beam="2">  1       21 0.29491438E-01 0.45798919E+03</pdfrwt>
<totfact> 0.66435279E+04</totfact>
</mgrwt>
</event>
<event>
 7    0  0.4759581E-002  0.4535511E+03  0.7546771E-02  0.1026668E+00
         21   -1    0    0  502  501  0.00000000000E+00  0.00000000000E+00  0.14774769344E+03  0.14774769344E+03  0.00000000000E+00 0.  1.
         21   -1    0    0  501  502 -0.00000000000E+00 -0.00000000000E+00 -0.34807418988E+03  0.34807418988E+03  0.00000000000E+00 0.  1.
      99926    2    1    2    0    0  0.17763568394E-14  0.14210854715E-13 -0.20032649644E+03  0.49582188332E+03  0.45355113803E+03 0.  0.
      99925    2    3    3    0    0  0.14697947820E+02  0.69717113628E+02 -0.32113472327E+02  0.27441810019E+03  0.26305420165E+03 0.  0.
         25    1    3    3    0    0 -0.14697947820E+02 -0.69717113628E+02 -0.16821302411E+03  0.22140378313E+03  0.12509000000E+03 0.  0.
         25    1    4    4    0    0  0.29123060147E+02  0.87072052915E-01 -0.97892826969E+01  0.12880799032E+03  0.12509000000E+03 0.  0.
         25    1    4    4    0    0 -0.14425112326E+02  0.69630041575E+02 -0.22324189630E+02  0.14561010988E+03  0.12509000000E+03 0.  0.
<mgrwt>
<rscale>  2 0.45355114E+03</rscale>
<asrwt>0</asrwt>
<pdfrwt beam="1">  1       21 0.21727602E-01 0.45355114E+03</pdfrwt>
<pdfrwt beam="2">  1       21 0.51187380E-01 0.45355114E+03</pdfrwt>
<totfact> 0.66324759E+04</totfact>
</mgrwt>
</event>
<event>
 7    0  0.4759581E-002  0.4526740E+03  0.7546771E-02  0.1026928E+00
         21   -1    0    0  502  501  0.00000000000E+00  0.00000000000E+00  0.34739464464E+03  0.34739464464E+03  0.00000000000E+00 0.  1.
         21   -1    0    0  501  502 -0.00000000000E+00 -0.00000000000E+00 -0.14746464311E+03  0.14746464311E+03  0.00000000000E+00 0.  1.
      99926    2    1    2    0    0  0.00000000000E+00  0.00000000000E+00  0.19993000153E+03  0.49485928776E+03  0.45267395459E+03 0.  0.
      99925    2    3    3    0    0 -0.34424154127E+02  0.17946930290E+02  0.12417406665E+02  0.26613325944E+03  0.26299354574E+03 0.  0.
         25    1    4    4    0    0  0.90211623804E+00  0.20409578795E+02  0.40632323958E+02  0.13310093377E+03  0.12509000000E+03 0.  0.
         25    1    3    3    0    0  0.34424154127E+02 -0.17946930290E+02  0.18751259487E+03  0.22872602831E+03  0.12509000000E+03 0.  0.
         25    1    4    4    0    0 -0.35326270365E+02 -0.24626485051E+01 -0.28214917293E+02  0.13303232567E+03  0.12509000000E+03 0.  0.
<mgrwt>
<rscale>  2 0.45267395E+03</rscale>
<asrwt>0</asrwt>
<pdfrwt beam="1">  1       21 0.51087448E-01 0.45267395E+03</pdfrwt>
<pdfrwt beam="2">  1       21 0.21685977E-01 0.45267395E+03</pdfrwt>
<totfact> 0.66859406E+04</totfact>
</mgrwt>
</event>
<event>
 7    0  0.4759581E-002  0.4439340E+03  0.7546771E-02  0.1029547E+00
         21   -1    0    0  502  501  0.00000000000E+00  0.00000000000E+00  0.75009701803E+02  0.75009701803E+02  0.00000000000E+00 0. -1.
         21   -1    0    0  501  502 -0.00000000000E+00 -0.00000000000E+00 -0.65683957945E+03  0.65683957945E+03  0.00000000000E+00 0. -1.
      99926    2    1    2    0    0  0.35527136788E-14  0.00000000000E+00 -0.58182987765E+03  0.73184928125E+03  0.44393396350E+03 0.  0.
      99925    2    3    3    0    0 -0.20307910751E+02 -0.43306984364E+02 -0.22052254574E+03  0.34652032786E+03  0.26297953971E+03 0.  0.
         25    1    3    3    0    0  0.20307910751E+02  0.43306984364E+02 -0.36130733191E+03  0.38532895339E+03  0.12509000000E+03 0.  0.
         25    1    4    4    0    0 -0.26043788222E+02 -0.49191250313E+02 -0.14832836937E+03  0.20185854272E+03  0.12509000000E+03 0.  0.
         25    1    4    4    0    0  0.57358774712E+01  0.58842659497E+01 -0.72194176376E+02  0.14466178514E+03  0.12509000000E+03 0.  0.
<mgrwt>
<rscale>  2 0.44393396E+03</rscale>
<asrwt>0</asrwt>
<pdfrwt beam="1">  1       21 0.11030838E-01 0.44393396E+03</pdfrwt>
<pdfrwt beam="2">  1       21 0.96594059E-01 0.44393396E+03</pdfrwt>
<totfact> 0.55916583E+04</totfact>
</mgrwt>
</event>
<event>
 7    0  0.4759581E-002  0.4505446E+03  0.7546771E-02  0.1027560E+00
         21   -1    0    0  502  501  0.00000000000E+00  0.00000000000E+00  0.10474736763E+04  0.10474736763E+04  0.00000000000E+00 0.  1.
         21   -1    0    0  501  502 -0.00000000000E+00 -0.00000000000E+00 -0.48447628091E+02  0.48447628091E+02  0.00000000000E+00 0.  1.
      99926    2    1    2    0    0 -0.71054273576E-14  0.22204460493E-15  0.99902604823E+03  0.10959213044E+04  0.45054462645E+03 0.  0.
      99925    2    3    3    0    0  0.57973932727E+02  0.25300871465E+00  0.40707039218E+03  0.48812195617E+03  0.26305075370E+03 0.  0.
         25    1    4    4    0    0  0.77710077249E+01 -0.22457137414E+02  0.14823788241E+03  0.19541414858E+03  0.12509000000E+03 0.  0.
         25    1    3    3    0    0 -0.57973932727E+02 -0.25300871465E+00  0.59195565606E+03  0.60779934824E+03  0.12509000000E+03 0.  0.
         25    1    4    4    0    0  0.50202925002E+02  0.22710146129E+02  0.25883250977E+03  0.29270780760E+03  0.12509000000E+03 0.  0.
<mgrwt>
<rscale>  2 0.45054463E+03</rscale>
<asrwt>0</asrwt>
<pdfrwt beam="1">  1       21 0.15404023E+00 0.45054463E+03</pdfrwt>
<pdfrwt beam="2">  1       21 0.71246518E-02 0.45054463E+03</pdfrwt>
<totfact> 0.36902057E+04</totfact>
</mgrwt>
</event>
<event>
 7    0  0.4759581E-002  0.4043099E+03  0.7546771E-02  0.1042297E+00
         21   -1    0    0  502  501  0.00000000000E+00  0.00000000000E+00  0.90816048003E+02  0.90816048003E+02  0.00000000000E+00 0.  1.
         21   -1    0    0  501  502 -0.00000000000E+00 -0.00000000000E+00 -0.44999339505E+03  0.44999339505E+03  0.00000000000E+00 0.  1.
      99926    2    1    2    0    0 -0.35527136788E-14  0.00000000000E+00 -0.35917734704E+03  0.54080944305E+03  0.40430988989E+03 0.  0.
      99925    2    3    3    0    0  0.30737940470E+02  0.16103320589E+02 -0.18425468304E+03  0.32298018790E+03  0.26298721572E+03 0.  0.
         25    1    4    4    0    0 -0.24371974694E+02  0.93282049575E+01 -0.10004745646E+03  0.16228989557E+03  0.12509000000E+03 0.  0.
         25    1    3    3    0    0 -0.30737940470E+02 -0.16103320589E+02 -0.17492266400E+03  0.21782925515E+03  0.12509000000E+03 0.  0.
         25    1    4    4    0    0  0.55109915165E+02  0.67751156317E+01 -0.84207226576E+02  0.16069029233E+03  0.12509000000E+03 0.  0.
<mgrwt>
<rscale>  2 0.40430989E+03</rscale>
<asrwt>0</asrwt>
<pdfrwt beam="1">  1       21 0.13355301E-01 0.40430989E+03</pdfrwt>
<pdfrwt beam="2">  1       21 0.66175500E-01 0.40430989E+03</pdfrwt>
<totfact> 0.95347887E+04</totfact>
</mgrwt>
</event>
<event>
 7    0  0.4759581E-002  0.4501073E+03  0.7546771E-02  0.1027690E+00
         21   -1    0    0  502  501  0.00000000000E+00  0.00000000000E+00  0.68156439816E+03  0.68156439816E+03  0.00000000000E+00 0.  1.
         21   -1    0    0  501  502 -0.00000000000E+00 -0.00000000000E+00 -0.74313066925E+02  0.74313066925E+02  0.00000000000E+00 0.  1.
      99926    2    1    2    0    0  0.00000000000E+00  0.00000000000E+00  0.60725133123E+03  0.75587746508E+03  0.45010727936E+03 0.  0.
      99925    2    3    3    0    0  0.76462403119E+02 -0.39386597073E+02  0.49549390482E+03  0.56737008173E+03  0.26267241349E+03 0.  0.
         25    1    3    3    0    0 -0.76462403119E+02  0.39386597073E+02  0.11175742641E+03  0.18850738335E+03  0.12509000000E+03 0.  0.
         25    1    4    4    0    0  0.42569848962E+02 -0.52706420242E+02  0.21116968272E+03  0.25461795258E+03  0.12509000000E+03 0.  0.
         25    1    4    4    0    0  0.33892554157E+02  0.13319823169E+02  0.28432422210E+03  0.31275212915E+03  0.12509000000E+03 0.  0.
<mgrwt>
<rscale>  2 0.45010728E+03</rscale>
<asrwt>0</asrwt>
<pdfrwt beam="1">  1       21 0.10023005E+00 0.45010728E+03</pdfrwt>
<pdfrwt beam="2">  1       21 0.10928393E-01 0.45010728E+03</pdfrwt>
<totfact> 0.51939033E+04</totfact>
</mgrwt>
</event>
<event>
 7    0  0.4759581E-002  0.4566008E+03  0.7546771E-02  0.1025772E+00
         21   -1    0    0  502  501  0.00000000000E+00  0.00000000000E+00  0.12871819328E+03  0.12871819328E+03  0.00000000000E+00 0.  1.
         21   -1    0    0  501  502 -0.00000000000E+00 -0.00000000000E+00 -0.40492385604E+03  0.40492385604E+03  0.00000000000E+00 0.  1.
      99926    2    1    2    0    0  0.00000000000E+00  0.00000000000E+00 -0.27620566276E+03  0.53364204933E+03  0.45660077603E+03 0.  0.
      99925    2    3    3    0    0  0.32911382060E+02 -0.84745717082E+02 -0.91948298643E+02  0.29309417475E+03  0.26302986525E+03 0.  0.
         25    1    3    3    0    0 -0.32911382060E+02  0.84745717082E+02 -0.18425736412E+03  0.24054787458E+03  0.12509000000E+03 0.  0.
         25    1    4    4    0    0  0.31105170075E+02 -0.80444138827E+02 -0.36963418618E+02  0.15637325057E+03  0.12509000000E+03 0.  0.
         25    1    4    4    0    0  0.18062119852E+01 -0.43015782556E+01 -0.54984880025E+02  0.13672092418E+03  0.12509000000E+03 0.  0.
<mgrwt>
<rscale>  2 0.45660078E+03</rscale>
<asrwt>0</asrwt>
<pdfrwt beam="1">  1       21 0.18929147E-01 0.45660078E+03</pdfrwt>
<pdfrwt beam="2">  1       21 0.59547624E-01 0.45660078E+03</pdfrwt>
<totfact> 0.62168149E+04</totfact>
</mgrwt>
</event>
<event>
 7    0  0.4759581E-002  0.4543323E+03  0.7546771E-02  0.1026438E+00
         21   -1    0    0  502  501  0.00000000000E+00  0.00000000000E+00  0.62537361428E+03  0.62537361428E+03  0.00000000000E+00 0.  1.
         21   -1    0    0  501  502 -0.00000000000E+00 -0.00000000000E+00 -0.82517798252E+02  0.82517798252E+02  0.00000000000E+00 0.  1.
      99926    2    1    2    0    0  0.00000000000E+00  0.00000000000E+00  0.54285581603E+03  0.70789141254E+03  0.45433227372E+03 0.  0.
      99925    2    3    3    0    0 -0.99996576869E+02  0.38164576066E+02  0.28761454575E+03  0.40416215085E+03  0.26300012737E+03 0.  0.
         25    1    4    4    0    0 -0.54973519111E+02 -0.20935131575E+02  0.13211178372E+03  0.19121035285E+03  0.12509000000E+03 0.  0.
         25    1    4    4    0    0 -0.45023057758E+02  0.59099707641E+02  0.15550276203E+03  0.21295179800E+03  0.12509000000E+03 0.  0.
         25    1    3    3    0    0  0.99996576869E+02 -0.38164576066E+02  0.25524127028E+03  0.30372926169E+03  0.12509000000E+03 0.  0.
<mgrwt>
<rscale>  2 0.45433227E+03</rscale>
<asrwt>0</asrwt>
<pdfrwt beam="1">  1       21 0.91966706E-01 0.45433227E+03</pdfrwt>
<pdfrwt beam="2">  1       21 0.12134971E-01 0.45433227E+03</pdfrwt>
<totfact> 0.52753208E+04</totfact>
</mgrwt>
</event>
<event>
 7    0  0.4759581E-002  0.4565691E+03  0.7546771E-02  0.1025781E+00
         21   -1    0    0  502  501  0.00000000000E+00  0.00000000000E+00  0.32795036769E+03  0.32795036769E+03  0.00000000000E+00 0. -1.
         21   -1    0    0  501  502 -0.00000000000E+00 -0.00000000000E+00 -0.15890769157E+03  0.15890769157E+03  0.00000000000E+00 0. -1.
      99926    2    1    2    0    0  0.14210854715E-13 -0.35527136788E-14  0.16904267612E+03  0.48685805925E+03  0.45656910047E+03 0.  0.
      99925    2    3    3    0    0  0.11030649158E+03 -0.25954537772E+02  0.12485112735E+03  0.31238295731E+03  0.26297176255E+03 0.  0.
         25    1    4    4    0    0  0.90264942136E+02 -0.30323356841E+02  0.49033638016E+02  0.16467869172E+03  0.12509000000E+03 0.  0.
         25    1    3    3    0    0 -0.11030649158E+03  0.25954537772E+02  0.44191548766E+02  0.17447510194E+03  0.12509000000E+03 0.  0.
         25    1    4    4    0    0  0.20041549443E+02  0.43688190690E+01  0.75817489339E+02  0.14770426559E+03  0.12509000000E+03 0.  0.
<mgrwt>
<rscale>  2 0.45656910E+03</rscale>
<asrwt>0</asrwt>
<pdfrwt beam="1">  1       21 0.48227995E-01 0.45656910E+03</pdfrwt>
<pdfrwt beam="2">  1       21 0.23368778E-01 0.45656910E+03</pdfrwt>
<totfact> 0.65385908E+04</totfact>
</mgrwt>
</event>
<event>
 7    0  0.4759581E-002  0.4517587E+03  0.7546771E-02  0.1027199E+00
         21   -1    0    0  502  501  0.00000000000E+00  0.00000000000E+00  0.71489191324E+02  0.71489191324E+02  0.00000000000E+00 0.  1.
         21   -1    0    0  501  502 -0.00000000000E+00 -0.00000000000E+00 -0.71369501386E+03  0.71369501386E+03  0.00000000000E+00 0.  1.
      99926    2    1    2    0    0 -0.88817841970E-15  0.14210854715E-13 -0.64220582253E+03  0.78518420518E+03  0.45175869396E+03 0.  0.
      99925    2    3    3    0    0 -0.44041069019E+01  0.10433584804E+03 -0.46619205702E+03  0.54532233015E+03  0.26293733928E+03 0.  0.
         25    1    3    3    0    0  0.44041069019E+01 -0.10433584804E+03 -0.17601376551E+03  0.23986187503E+03  0.12509000000E+03 0.  0.
         25    1    4    4    0    0  0.18121052889E+01  0.10183383990E+02 -0.22669283649E+03  0.25912185406E+03  0.12509000000E+03 0.  0.
         25    1    4    4    0    0 -0.62162121908E+01  0.94152464048E+02 -0.23949922053E+03  0.28620047609E+03  0.12509000000E+03 0.  0.
<mgrwt>
<rscale>  2 0.45175869E+03</rscale>
<asrwt>0</asrwt>
<pdfrwt beam="1">  1       21 0.10513116E-01 0.45175869E+03</pdfrwt>
<pdfrwt beam="2">  1       21 0.10495515E+00 0.45175869E+03</pdfrwt>
<totfact> 0.49743283E+04</totfact>
</mgrwt>
</event>
<event>
 7    0  0.4759581E-002  0.4514070E+03  0.7546771E-02  0.1027303E+00
         21   -1    0    0  502  501  0.00000000000E+00  0.00000000000E+00  0.47748573829E+02  0.47748573829E+02  0.00000000000E+00 0. -1.
         21   -1    0    0  501  502 -0.00000000000E+00 -0.00000000000E+00 -0.10668814306E+04  0.10668814306E+04  0.00000000000E+00 0. -1.
      99926    2    1    2    0    0  0.71054273576E-14  0.00000000000E+00 -0.10191328567E+04  0.11146300044E+04  0.45140698601E+03 0.  0.
      99925    2    3    3    0    0 -0.32559624284E+02  0.23561461991E+01 -0.38487447782E+03  0.46733032118E+03  0.26306574247E+03 0.  0.
         25    1    4    4    0    0 -0.28054900746E+02  0.17796989683E+02 -0.13264431591E+03  0.18532628778E+03  0.12509000000E+03 0.  0.
         25    1    3    3    0    0  0.32559624284E+02 -0.23561461991E+01 -0.63425837891E+03  0.64729968321E+03  0.12509000000E+03 0.  0.
         25    1    4    4    0    0 -0.45047235377E+01 -0.15440843484E+02 -0.25223016190E+03  0.28200403340E+03  0.12509000000E+03 0.  0.
<mgrwt>
<rscale>  2 0.45140699E+03</rscale>
<asrwt>0</asrwt>
<pdfrwt beam="1">  1       21 0.70218500E-02 0.45140699E+03</pdfrwt>
<pdfrwt beam="2">  1       21 0.15689431E+00 0.45140699E+03</pdfrwt>
<totfact> 0.35982923E+04</totfact>
</mgrwt>
</event>
<event>
 7    0  0.4759581E-002  0.4553663E+03  0.7546771E-02  0.1026134E+00
         21   -1    0    0  502  501  0.00000000000E+00  0.00000000000E+00  0.27056741117E+03  0.27056741117E+03  0.00000000000E+00 0.  1.
         21   -1    0    0  501  502 -0.00000000000E+00 -0.00000000000E+00 -0.19159597738E+03  0.19159597738E+03  0.00000000000E+00 0.  1.
      99926    2    1    2    0    0 -0.14210854715E-13 -0.71054273576E-14  0.78971433787E+02  0.46216338856E+03  0.45536634742E+03 0.  0.
      99925    2    3    3    0    0  0.73916603797E+02  0.56462585312E+02  0.11578861988E+03  0.30199253868E+03  0.26294638440E+03 0.  0.
         25    1    4    4    0    0  0.65418688545E+02  0.58230864759E+01  0.39336365685E+02  0.14665732478E+03  0.12509000000E+03 0.  0.
         25    1    3    3    0    0 -0.73916603797E+02 -0.56462585312E+02 -0.36817186093E+02  0.16017084987E+03  0.12509000000E+03 0.  0.
         25    1    4    4    0    0  0.84979152520E+01  0.50639498837E+02  0.76452254195E+02  0.15533521390E+03  0.12509000000E+03 0.  0.
<mgrwt>
<rscale>  2 0.45536635E+03</rscale>
<asrwt>0</asrwt>
<pdfrwt beam="1">  1       21 0.39789325E-01 0.45536635E+03</pdfrwt>
<pdfrwt beam="2">  1       21 0.28175879E-01 0.45536635E+03</pdfrwt>
<totfact> 0.67823450E+04</totfact>
</mgrwt>
</event>
<event>
 7    0  0.4759581E-002  0.4675766E+03  0.7546771E-02  0.1022606E+00
         21   -1    0    0  502  501  0.00000000000E+00  0.00000000000E+00  0.66265355757E+02  0.66265355757E+02  0.00000000000E+00 0.  1.
         21   -1    0    0  501  502 -0.00000000000E+00 -0.00000000000E+00 -0.82481960533E+03  0.82481960533E+03  0.00000000000E+00 0.  1.
      99926    2    1    2    0    0  0.44408920985E-15 -0.35527136788E-14 -0.75855424957E+03  0.89108496109E+03  0.46757658018E+03 0.  0.
      99925    2    3    3    0    0 -0.52505513319E+00 -0.13389069269E+02 -0.70821782786E+03  0.75558290830E+03  0.26297052449E+03 0.  0.
         25    1    4    4    0    0 -0.19380589953E+02 -0.39019534039E+02 -0.40246112315E+03  0.42369870787E+03  0.12509000000E+03 0.  0.
         25    1    3    3    0    0  0.52505513319E+00  0.13389069269E+02 -0.50336421709E+02  0.13550205279E+03  0.12509000000E+03 0.  0.
         25    1    4    4    0    0  0.18855534820E+02  0.25630464771E+02 -0.30575670471E+03  0.33188420043E+03  0.12509000000E+03 0.  0.
<mgrwt>
<rscale>  2 0.46757658E+03</rscale>
<asrwt>0</asrwt>
<pdfrwt beam="1">  1       21 0.97449056E-02 0.46757658E+03</pdfrwt>
<pdfrwt beam="2">  1       21 0.12129700E+00 0.46757658E+03</pdfrwt>
<totfact> 0.39577353E+04</totfact>
</mgrwt>
</event>
<event>
 6    0  0.4759581E-002  0.4379945E+03  0.7546771E-02  0.1031364E+00
         21   -1    0    0  502  501  0.00000000000E+00  0.00000000000E+00  0.13086403377E+03  0.13086403377E+03  0.00000000000E+00 0. -1.
         21   -1    0    0  501  502 -0.00000000000E+00 -0.00000000000E+00 -0.36648566952E+03  0.36648566952E+03  0.00000000000E+00 0. -1.
      99926    2    1    2    0    0  0.48849813084E-14  0.00000000000E+00 -0.23562163574E+03  0.49734970329E+03  0.43799448870E+03 0.  0.
         25    1    3    3    0    0 -0.21086825790E+01  0.63790887106E+01  0.26131514651E+02  0.12796680614E+03  0.12509000000E+03 0.  0.
         25    1    3    3    0    0 -0.35189918255E+02 -0.63289936102E+01 -0.13056258818E+03  0.18431626092E+03  0.12509000000E+03 0.  0.
         25    1    3    3    0    0  0.37298600834E+02 -0.50095100356E-01 -0.13119056222E+03  0.18506663624E+03  0.12509000000E+03 0.  0.
<mgrwt>
<rscale>  2 0.43799449E+03</rscale>
<asrwt>0</asrwt>
<pdfrwt beam="1">  1       21 0.19244711E-01 0.43799449E+03</pdfrwt>
<pdfrwt beam="2">  1       21 0.53894950E-01 0.43799449E+03</pdfrwt>
<totfact> 0.75091943E+04</totfact>
</mgrwt>
</event>
<event>
 7    0  0.4759581E-002  0.4499886E+03  0.7546771E-02  0.1027725E+00
         21   -1    0    0  502  501  0.00000000000E+00  0.00000000000E+00  0.78424299831E+03  0.78424299831E+03  0.00000000000E+00 0.  1.
         21   -1    0    0  501  502 -0.00000000000E+00 -0.00000000000E+00 -0.64549424849E+02  0.64549424849E+02  0.00000000000E+00 0.  1.
      99926    2    1    2    0    0  0.00000000000E+00  0.17763568394E-14  0.71969357346E+03  0.84879242316E+03  0.44998859756E+03 0.  0.
      99925    2    3    3    0    0  0.22395193486E+02  0.12061987123E+02  0.25650085214E+03  0.36833218400E+03  0.26311380503E+03 0.  0.
         25    1    3    3    0    0 -0.22395193486E+02 -0.12061987123E+02  0.46319272133E+03  0.48046023916E+03  0.12509000000E+03 0.  0.
         25    1    4    4    0    0 -0.87651617556E+01  0.54197640490E+01  0.17611721227E+03  0.21626599932E+03  0.12509000000E+03 0.  0.
         25    1    4    4    0    0  0.31160355242E+02  0.66422230737E+01  0.80383639869E+02  0.15206618469E+03  0.12509000000E+03 0.  0.
<mgrwt>
<rscale>  2 0.44998860E+03</rscale>
<asrwt>0</asrwt>
<pdfrwt beam="1">  1       21 0.11532985E+00 0.44998860E+03</pdfrwt>
<pdfrwt beam="2">  1       21 0.94925629E-02 0.44998860E+03</pdfrwt>
<totfact> 0.47326712E+04</totfact>
</mgrwt>
</event>
<event>
 7    0  0.4759581E-002  0.4677593E+03  0.7546771E-02  0.1022555E+00
         21   -1    0    0  502  501  0.00000000000E+00  0.00000000000E+00  0.49353371809E+02  0.49353371809E+02  0.00000000000E+00 0. -1.
         21   -1    0    0  501  502 -0.00000000000E+00 -0.00000000000E+00 -0.11083273003E+04  0.11083273003E+04  0.00000000000E+00 0. -1.
      99926    2    1    2    0    0  0.14210854715E-13  0.00000000000E+00 -0.10589739285E+04  0.11576806721E+04  0.46775929424E+03 0.  0.
      99925    2    3    3    0    0  0.94233271703E+02 -0.44084458855E+02 -0.48832366927E+03  0.56428992778E+03  0.26294441925E+03 0.  0.
         25    1    3    3    0    0 -0.94233271703E+02  0.44084458855E+02 -0.57065025921E+03  0.59339074432E+03  0.12509000000E+03 0.  0.
         25    1    4    4    0    0  0.77274217412E+02 -0.38269662559E+02 -0.21608221834E+03  0.26414939889E+03  0.12509000000E+03 0.  0.
         25    1    4    4    0    0  0.16959054291E+02 -0.58147962956E+01 -0.27224145093E+03  0.30014052889E+03  0.12509000000E+03 0.  0.
<mgrwt>
<rscale>  2 0.46775929E+03</rscale>
<asrwt>0</asrwt>
<pdfrwt beam="1">  1       21 0.72578490E-02 0.46775929E+03</pdfrwt>
<pdfrwt beam="2">  1       21 0.16298931E+00 0.46775929E+03</pdfrwt>
<totfact> 0.30390714E+04</totfact>
</mgrwt>
</event>
<event>
 7    0  0.4759581E-002  0.4535098E+03  0.7546771E-02  0.1026681E+00
         21   -1    0    0  502  501  0.00000000000E+00  0.00000000000E+00  0.12257800904E+04  0.12257800904E+04  0.00000000000E+00 0.  1.
         21   -1    0    0  501  502 -0.00000000000E+00 -0.00000000000E+00 -0.41946990929E+02  0.41946990929E+02  0.00000000000E+00 0.  1.
      99926    2    1    2    0    0  0.00000000000E+00  0.00000000000E+00  0.11838330995E+04  0.12677270813E+04  0.45350980732E+03 0.  0.
      99925    2    3    3    0    0 -0.78086283278E+02 -0.38355095469E+02  0.54985750407E+03  0.61569859679E+03  0.26300742637E+03 0.  0.
         25    1    4    4    0    0 -0.68146159931E+01 -0.40799787890E+02  0.23330207484E+03  0.26793362594E+03  0.12509000000E+03 0.  0.
         25    1    3    3    0    0  0.78086283278E+02  0.38355095469E+02  0.63397559542E+03  0.65202848456E+03  0.12509000000E+03 0.  0.
         25    1    4    4    0    0 -0.71271667285E+02  0.24446924207E+01  0.31655542923E+03  0.34776497085E+03  0.12509000000E+03 0.  0.
<mgrwt>
<rscale>  2 0.45350981E+03</rscale>
<asrwt>0</asrwt>
<pdfrwt beam="1">  1       21 0.18026176E+00 0.45350981E+03</pdfrwt>
<pdfrwt beam="2">  1       21 0.61686759E-02 0.45350981E+03</pdfrwt>
<totfact> 0.30417841E+04</totfact>
</mgrwt>
</event>
<event>
 7    0  0.4759581E-002  0.4477634E+03  0.7546771E-02  0.1028391E+00
         21   -1    0    0  502  501  0.00000000000E+00  0.00000000000E+00  0.37647591949E+03  0.37647591949E+03  0.00000000000E+00 0.  1.
         21   -1    0    0  501  502 -0.00000000000E+00 -0.00000000000E+00 -0.13313739449E+03  0.13313739449E+03  0.00000000000E+00 0.  1.
      99926    2    1    2    0    0  0.00000000000E+00  0.00000000000E+00  0.24333852499E+03  0.50961331398E+03  0.44776343312E+03 0.  0.
      99925    2    3    3    0    0 -0.91866108424E+02  0.50292283889E+02  0.17382397776E+03  0.33227613211E+03  0.26310446030E+03 0.  0.
         25    1    4    4    0    0 -0.48427416525E+02  0.57508756659E+02  0.61069771796E+02  0.15820713287E+03  0.12509000000E+03 0.  0.
         25    1    4    4    0    0 -0.43438691899E+02 -0.72164727702E+01  0.11275420596E+03  0.17406899924E+03  0.12509000000E+03 0.  0.
         25    1    3    3    0    0  0.91866108424E+02 -0.50292283889E+02  0.69514547233E+02  0.17733718187E+03  0.12509000000E+03 0.  0.
<mgrwt>
<rscale>  2 0.44776343E+03</rscale>
<asrwt>0</asrwt>
<pdfrwt beam="1">  1       21 0.55364105E-01 0.44776343E+03</pdfrwt>
<pdfrwt beam="2">  1       21 0.19579029E-01 0.44776343E+03</pdfrwt>
<totfact> 0.68447371E+04</totfact>
</mgrwt>
</event>
<event>
 7    0  0.4759581E-002  0.4623703E+03  0.7546771E-02  0.1024096E+00
         21   -1    0    0  502  501  0.00000000000E+00  0.00000000000E+00  0.14007888898E+03  0.14007888898E+03  0.00000000000E+00 0.  1.
         21   -1    0    0  501  502 -0.00000000000E+00 -0.00000000000E+00 -0.38154621356E+03  0.38154621356E+03  0.00000000000E+00 0.  1.
      99926    2    1    2    0    0  0.00000000000E+00  0.00000000000E+00 -0.24146732458E+03  0.52162510254E+03  0.46237028318E+03 0.  0.
      99925    2    3    3    0    0  0.62448358399E+02 -0.60039764462E+02 -0.24473486171E+03  0.36943194999E+03  0.26283120507E+03 0.  0.
         25    1    3    3    0    0 -0.62448358399E+02  0.60039764462E+02  0.32675371361E+01  0.15219315255E+03  0.12509000000E+03 0.  0.
         25    1    4    4    0    0  0.61058600309E+02 -0.23894284680E+02 -0.16306890561E+03  0.21572683095E+03  0.12509000000E+03 0.  0.
         25    1    4    4    0    0  0.13897580898E+01 -0.36145479782E+02 -0.81665956099E+02  0.15370511905E+03  0.12509000000E+03 0.  0.
<mgrwt>
<rscale>  2 0.46237028E+03</rscale>
<asrwt>0</asrwt>
<pdfrwt beam="1">  1       21 0.20599837E-01 0.46237028E+03</pdfrwt>
<pdfrwt beam="2">  1       21 0.56109738E-01 0.46237028E+03</pdfrwt>
<totfact> 0.60179646E+04</totfact>
</mgrwt>
</event>
<event>
 7    0  0.4759581E-002  0.4633949E+03  0.7546771E-02  0.1023801E+00
         21   -1    0    0  502  501  0.00000000000E+00  0.00000000000E+00  0.28301628192E+03  0.28301628192E+03  0.00000000000E+00 0.  1.
         21   -1    0    0  501  502 -0.00000000000E+00 -0.00000000000E+00 -0.18968417491E+03  0.18968417491E+03  0.00000000000E+00 0.  1.
      99926    2    1    2    0    0  0.00000000000E+00  0.00000000000E+00  0.93332107016E+02  0.47270045683E+03  0.46339490684E+03 0.  0.
      99925    2    3    3    0    0  0.98287871382E+02  0.70321032355E+02  0.60974343178E+02  0.29578215299E+03  0.26298984438E+03 0.  0.
         25    1    3    3    0    0 -0.98287871382E+02 -0.70321032355E+02  0.32357763838E+02  0.17691830384E+03  0.12509000000E+03 0.  0.
         25    1    4    4    0    0  0.62319311779E+02  0.53571967199E+02 -0.31895510426E+01  0.14970415367E+03  0.12509000000E+03 0.  0.
         25    1    4    4    0    0  0.35968559604E+02  0.16749065156E+02  0.64163894221E+02  0.14607799932E+03  0.12509000000E+03 0.  0.
<mgrwt>
<rscale>  2 0.46339491E+03</rscale>
<asrwt>0</asrwt>
<pdfrwt beam="1">  1       21 0.41620042E-01 0.46339491E+03</pdfrwt>
<pdfrwt beam="2">  1       21 0.27894731E-01 0.46339491E+03</pdfrwt>
<totfact> 0.62936492E+04</totfact>
</mgrwt>
</event>
<event>
 6    0  0.4759581E-002  0.4524813E+03  0.7546771E-02  0.1026985E+00
         21   -1    0    0  502  501  0.00000000000E+00  0.00000000000E+00  0.85232168192E+02  0.85232168192E+02  0.00000000000E+00 0. -1.
         21   -1    0    0  501  502 -0.00000000000E+00 -0.00000000000E+00 -0.60053432742E+03  0.60053432742E+03  0.00000000000E+00 0. -1.
      99926    2    1    2    0    0  0.00000000000E+00 -0.17763568394E-14 -0.51530215923E+03  0.68576649561E+03  0.45248134901E+03 0.  0.
         25    1    3    3    0    0 -0.60073662476E+02 -0.13884558018E+02 -0.54245394461E+02  0.14963855384E+03  0.12509000000E+03 0.  0.
         25    1    3    3    0    0  0.57540245565E+02 -0.22573674980E+02 -0.28243339191E+03  0.31501837982E+03  0.12509000000E+03 0.  0.
         25    1    3    3    0    0  0.25334169117E+01  0.36458232998E+02 -0.17862337286E+03  0.22110956195E+03  0.12509000000E+03 0.  0.
<mgrwt>
<rscale>  2 0.45248135E+03</rscale>
<asrwt>0</asrwt>
<pdfrwt beam="1">  1       21 0.12534142E-01 0.45248135E+03</pdfrwt>
<pdfrwt beam="2">  1       21 0.88313874E-01 0.45248135E+03</pdfrwt>
<totfact> 0.54760576E+04</totfact>
</mgrwt>
</event>
<event>
 7    0  0.4759581E-002  0.4513500E+03  0.7546771E-02  0.1027320E+00
         21   -1    0    0  502  501  0.00000000000E+00  0.00000000000E+00  0.32369131683E+03  0.32369131683E+03  0.00000000000E+00 0. -1.
         21   -1    0    0  501  502 -0.00000000000E+00 -0.00000000000E+00 -0.15733883754E+03  0.15733883754E+03  0.00000000000E+00 0. -1.
      99926    2    1    2    0    0  0.00000000000E+00 -0.17763568394E-14  0.16635247928E+03  0.48103015437E+03  0.45135004381E+03 0.  0.
      99925    2    3    3    0    0 -0.23871610670E+02  0.13292843795E+02  0.21803518637E+03  0.34295349521E+03  0.26330819184E+03 0.  0.
         25    1    4    4    0    0 -0.95019553302E+01 -0.22990028441E+00  0.56209382312E+02  0.13746760625E+03  0.12509000000E+03 0.  0.
         25    1    4    4    0    0 -0.14369655340E+02  0.13522744080E+02  0.16182580406E+03  0.20548588896E+03  0.12509000000E+03 0.  0.
         25    1    3    3    0    0  0.23871610670E+02 -0.13292843795E+02 -0.51682707083E+02  0.13807665916E+03  0.12509000000E+03 0.  0.
<mgrwt>
<rscale>  2 0.45135004E+03</rscale>
<asrwt>0</asrwt>
<pdfrwt beam="1">  1       21 0.47601664E-01 0.45135004E+03</pdfrwt>
<pdfrwt beam="2">  1       21 0.23138064E-01 0.45135004E+03</pdfrwt>
<totfact> 0.68591086E+04</totfact>
</mgrwt>
</event>
<event>
 7    0  0.4759581E-002  0.4246348E+03  0.7546771E-02  0.1035568E+00
         21   -1    0    0  502  501  0.00000000000E+00  0.00000000000E+00  0.26224280357E+03  0.26224280357E+03  0.00000000000E+00 0.  1.
         21   -1    0    0  501  502 -0.00000000000E+00 -0.00000000000E+00 -0.17189668989E+03  0.17189668989E+03  0.00000000000E+00 0.  1.
      99926    2    1    2    0    0  0.00000000000E+00 -0.35527136788E-14  0.90346113682E+02  0.43413949346E+03  0.42463476014E+03 0.  0.
      99925    2    3    3    0    0 -0.75022206522E+02 -0.28473293789E+02  0.47398952475E+02  0.27944293019E+03  0.26344379022E+03 0.  0.
         25    1    3    3    0    0  0.75022206522E+02  0.28473293789E+02  0.42947161208E+02  0.15469656327E+03  0.12509000000E+03 0.  0.
         25    1    4    4    0    0 -0.38470581889E+02  0.22776810457E+02  0.42400136113E+01  0.13290693955E+03  0.12509000000E+03 0.  0.
         25    1    4    4    0    0 -0.36551624633E+02 -0.51250104245E+02  0.43158938863E+02  0.14653599064E+03  0.12509000000E+03 0.  0.
<mgrwt>
<rscale>  2 0.42463476E+03</rscale>
<asrwt>0</asrwt>
<pdfrwt beam="1">  1       21 0.38565118E-01 0.42463476E+03</pdfrwt>
<pdfrwt beam="2">  1       21 0.25278925E-01 0.42463476E+03</pdfrwt>
<totfact> 0.89992930E+04</totfact>
</mgrwt>
</event>
<event>
 7    0  0.4759581E-002  0.4569547E+03  0.7546771E-02  0.1025668E+00
         21   -1    0    0  502  501  0.00000000000E+00  0.00000000000E+00  0.12077839765E+04  0.12077839765E+04  0.00000000000E+00 0. -1.
         21   -1    0    0  501  502 -0.00000000000E+00 -0.00000000000E+00 -0.43221226156E+02  0.43221226156E+02  0.00000000000E+00 0. -1.
      99926    2    1    2    0    0 -0.14210854715E-13  0.00000000000E+00  0.11645627503E+04  0.12510052026E+04  0.45695472159E+03 0.  0.
      99925    2    3    3    0    0 -0.93065828650E+02  0.35329559721E+02  0.57267583581E+03  0.63790891825E+03  0.26279411868E+03 0.  0.
         25    1    3    3    0    0  0.93065828650E+02 -0.35329559721E+02  0.59188691453E+03  0.61309628440E+03  0.12509000000E+03 0.  0.
         25    1    4    4    0    0 -0.30857737613E+02 -0.20491943334E+02  0.25696011285E+03  0.28818072005E+03  0.12509000000E+03 0.  0.
         25    1    4    4    0    0 -0.62208091037E+02  0.55821503055E+02  0.31571572296E+03  0.34972819820E+03  0.12509000000E+03 0.  0.
<mgrwt>
<rscale>  2 0.45695472E+03</rscale>
<asrwt>0</asrwt>
<pdfrwt beam="1">  1       21 0.17761527E+00 0.45695472E+03</pdfrwt>
<pdfrwt beam="2">  1       21 0.63560634E-02 0.45695472E+03</pdfrwt>
<totfact> 0.30110668E+04</totfact>
</mgrwt>
</event>
<event>
 7    0  0.4759581E-002  0.4526138E+03  0.7546771E-02  0.1026945E+00
         21   -1    0    0  502  501  0.00000000000E+00  0.00000000000E+00  0.27906358046E+02  0.27906358046E+02  0.00000000000E+00 0.  1.
         21   -1    0    0  501  502 -0.00000000000E+00 -0.00000000000E+00 -0.18352377626E+04  0.18352377626E+04  0.00000000000E+00 0.  1.
      99926    2    1    2    0    0 -0.71054273576E-14  0.14210854715E-13 -0.18073314046E+04  0.18631441207E+04  0.45261375191E+03 0.  0.
      99925    2    3    3    0    0 -0.53001407946E+02  0.70834015158E+02 -0.14150840062E+04  0.14420358964E+04  0.26301744208E+03 0.  0.
         25    1    4    4    0    0 -0.20061960647E+02  0.72898077812E+02 -0.66462922750E+03  0.68051166791E+03  0.12509000000E+03 0.  0.
         25    1    3    3    0    0  0.53001407946E+02 -0.70834015158E+02 -0.39224739836E+03  0.42110822430E+03  0.12509000000E+03 0.  0.
         25    1    4    4    0    0 -0.32939447299E+02 -0.20640626537E+01 -0.75045477873E+03  0.76152422848E+03  0.12509000000E+03 0.  0.
<mgrwt>
<rscale>  2 0.45261375E+03</rscale>
<asrwt>0</asrwt>
<pdfrwt beam="1">  1       21 0.41038757E-02 0.45261375E+03</pdfrwt>
<pdfrwt beam="2">  1       21 0.26988794E+00 0.45261375E+03</pdfrwt>
<totfact> 0.16376842E+04</totfact>
</mgrwt>
</event>
<event>
 7    0  0.4759581E-002  0.4591020E+03  0.7546771E-02  0.1025042E+00
         21   -1    0    0  502  501  0.00000000000E+00  0.00000000000E+00  0.71696045361E+02  0.71696045361E+02  0.00000000000E+00 0.  1.
         21   -1    0    0  501  502 -0.00000000000E+00 -0.00000000000E+00 -0.73495918087E+03  0.73495918087E+03  0.00000000000E+00 0.  1.
      99926    2    1    2    0    0  0.00000000000E+00  0.00000000000E+00 -0.66326313551E+03  0.80665522623E+03  0.45910202252E+03 0.  0.
      99925    2    3    3    0    0 -0.34408817026E+02  0.77043980210E+02 -0.55826207588E+03  0.62282793718E+03  0.26294172813E+03 0.  0.
         25    1    3    3    0    0  0.34408817026E+02 -0.77043980210E+02 -0.10500105963E+03  0.18382728905E+03  0.12509000000E+03 0.  0.
         25    1    4    4    0    0 -0.34558428189E+02  0.19796185931E+02 -0.34407161606E+03  0.36826479470E+03  0.12509000000E+03 0.  0.
         25    1    4    4    0    0  0.14961116350E+00  0.57247794279E+02 -0.21419045983E+03  0.25456314249E+03  0.12509000000E+03 0.  0.
<mgrwt>
<rscale>  2 0.45910202E+03</rscale>
<asrwt>0</asrwt>
<pdfrwt beam="1">  1       21 0.10543536E-01 0.45910202E+03</pdfrwt>
<pdfrwt beam="2">  1       21 0.10808223E+00 0.45910202E+03</pdfrwt>
<totfact> 0.45947571E+04</totfact>
</mgrwt>
</event>
<event>
 7    0  0.4759581E-002  0.4545909E+03  0.7546771E-02  0.1026362E+00
         21   -1    0    0  502  501  0.00000000000E+00  0.00000000000E+00  0.75939048654E+02  0.75939048654E+02  0.00000000000E+00 0. -1.
         21   -1    0    0  501  502 -0.00000000000E+00 -0.00000000000E+00 -0.68032480635E+03  0.68032480635E+03  0.00000000000E+00 0. -1.
      99926    2    1    2    0    0  0.17763568394E-14  0.00000000000E+00 -0.60438575769E+03  0.75626385500E+03  0.45459088671E+03 0.  0.
      99925    2    3    3    0    0  0.82519038361E+01  0.11248335889E+03 -0.38828681389E+03  0.48228053151E+03  0.26288259981E+03 0.  0.
         25    1    3    3    0    0 -0.82519038361E+01 -0.11248335889E+03 -0.21609894380E+03  0.27398332350E+03  0.12509000000E+03 0.  0.
         25    1    4    4    0    0  0.27626010527E+02  0.87447241579E+02 -0.18396847926E+03  0.24062860590E+03  0.12509000000E+03 0.  0.
         25    1    4    4    0    0 -0.19374106691E+02  0.25036117307E+02 -0.20431833464E+03  0.24165192561E+03  0.12509000000E+03 0.  0.
<mgrwt>
<rscale>  2 0.45459089E+03</rscale>
<asrwt>0</asrwt>
<pdfrwt beam="1">  1       21 0.11167507E-01 0.45459089E+03</pdfrwt>
<pdfrwt beam="2">  1       21 0.10004776E+00 0.45459089E+03</pdfrwt>
<totfact> 0.50113069E+04</totfact>
</mgrwt>
</event>
<event>
 7    0  0.4759581E-002  0.3976565E+03  0.7546771E-02  0.1044594E+00
         21   -1    0    0  502  501  0.00000000000E+00  0.00000000000E+00  0.44076665603E+02  0.44076665603E+02  0.00000000000E+00 0.  1.
         21   -1    0    0  501  502 -0.00000000000E+00 -0.00000000000E+00 -0.89690710132E+03  0.89690710132E+03  0.00000000000E+00 0.  1.
      99926    2    1    2    0    0  0.00000000000E+00  0.00000000000E+00 -0.85283043572E+03  0.94098376692E+03  0.39765650696E+03 0.  0.
      99925    2    3    3    0    0  0.18614718796E+02  0.27919594640E+02 -0.62453977716E+03  0.67851444604E+03  0.26307015929E+03 0.  0.
         25    1    4    4    0    0  0.76136165676E+01  0.52951874319E+01 -0.20823776007E+03  0.24309767376E+03  0.12509000000E+03 0.  0.
         25    1    3    3    0    0 -0.18614718796E+02 -0.27919594640E+02 -0.22829065856E+03  0.26246932089E+03  0.12509000000E+03 0.  0.
         25    1    4    4    0    0  0.11001102228E+02  0.22624407208E+02 -0.41630201709E+03  0.43541677228E+03  0.12509000000E+03 0.  0.
<mgrwt>
<rscale>  2 0.39765651E+03</rscale>
<asrwt>0</asrwt>
<pdfrwt beam="1">  1       21 0.64818633E-02 0.39765651E+03</pdfrwt>
<pdfrwt beam="2">  1       21 0.13189809E+00 0.39765651E+03</pdfrwt>
<totfact> 0.66808467E+04</totfact>
</mgrwt>
</event>
<event>
 7    0  0.4759581E-002  0.4545616E+03  0.7546771E-02  0.1026370E+00
         21   -1    0    0  502  501  0.00000000000E+00  0.00000000000E+00  0.42417212740E+03  0.42417212740E+03  0.00000000000E+00 0. -1.
         21   -1    0    0  501  502 -0.00000000000E+00 -0.00000000000E+00 -0.12178205165E+03  0.12178205165E+03  0.00000000000E+00 0. -1.
      99926    2    1    2    0    0  0.00000000000E+00  0.00000000000E+00  0.30239007575E+03  0.54595417905E+03  0.45456155547E+03 0.  0.
      99925    2    3    3    0    0  0.43535414029E+01  0.23149245660E+02  0.32274853257E+03  0.41704795049E+03  0.26307325374E+03 0.  0.
         25    1    4    4    0    0 -0.26941431723E+02 -0.16550015838E+02  0.16554062440E+03  0.20988318226E+03  0.12509000000E+03 0.  0.
         25    1    3    3    0    0 -0.43535414029E+01 -0.23149245660E+02 -0.20358456825E+02  0.12890622856E+03  0.12509000000E+03 0.  0.
         25    1    4    4    0    0  0.31294973126E+02  0.39699261497E+02  0.15720790817E+03  0.20716476824E+03  0.12509000000E+03 0.  0.
<mgrwt>
<rscale>  2 0.45456156E+03</rscale>
<asrwt>0</asrwt>
<pdfrwt beam="1">  1       21 0.62378254E-01 0.45456156E+03</pdfrwt>
<pdfrwt beam="2">  1       21 0.17909125E-01 0.45456156E+03</pdfrwt>
<totfact> 0.62350689E+04</totfact>
</mgrwt>
</event>
<event>
 7    0  0.4759581E-002  0.4670746E+03  0.7546771E-02  0.1022749E+00
         21   -1    0    0  502  501  0.00000000000E+00  0.00000000000E+00  0.65128453436E+03  0.65128453436E+03  0.00000000000E+00 0. -1.
         21   -1    0    0  501  502 -0.00000000000E+00 -0.00000000000E+00 -0.83741709457E+02  0.83741709457E+02  0.00000000000E+00 0. -1.
      99926    2    1    2    0    0  0.00000000000E+00  0.00000000000E+00  0.56754282490E+03  0.73502624382E+03  0.46707464179E+03 0.  0.
      99925    2    3    3    0    0 -0.82623696266E+02  0.56152900840E+02  0.46929708140E+03  0.54719771118E+03  0.26306987864E+03 0.  0.
         25    1    3    3    0    0  0.82623696266E+02 -0.56152900840E+02  0.98245743505E+02  0.18782853264E+03  0.12509000000E+03 0.  0.
         25    1    4    4    0    0 -0.43349083272E+01  0.14335066110E+02  0.24466694121E+03  0.27519757589E+03  0.12509000000E+03 0.  0.
         25    1    4    4    0    0 -0.78288787939E+02  0.41817834730E+02  0.22463014019E+03  0.27200013529E+03  0.12509000000E+03 0.  0.
<mgrwt>
<rscale>  2 0.46707464E+03</rscale>
<asrwt>0</asrwt>
<pdfrwt beam="1">  1       21 0.95777135E-01 0.46707464E+03</pdfrwt>
<pdfrwt beam="2">  1       21 0.12314958E-01 0.46707464E+03</pdfrwt>
<totfact> 0.46470617E+04</totfact>
</mgrwt>
</event>
<event>
 7    0  0.4759581E-002  0.4566985E+03  0.7546771E-02  0.1025743E+00
         21   -1    0    0  502  501  0.00000000000E+00  0.00000000000E+00  0.65021369056E+02  0.65021369056E+02  0.00000000000E+00 0.  1.
         21   -1    0    0  501  502 -0.00000000000E+00 -0.00000000000E+00 -0.80194232060E+03  0.80194232060E+03  0.00000000000E+00 0.  1.
      99926    2    1    2    0    0 -0.71054273576E-14 -0.35527136788E-14 -0.73692095154E+03  0.86696368965E+03  0.45669853334E+03 0.  0.
      99925    2    3    3    0    0 -0.56619416464E+02 -0.30900471232E+02 -0.28288814921E+03  0.39161761453E+03  0.26301721161E+03 0.  0.
         25    1    4    4    0    0 -0.68204381906E+01  0.19994998238E+02 -0.13062034425E+03  0.18208651999E+03  0.12509000000E+03 0.  0.
         25    1    4    4    0    0 -0.49798978273E+02 -0.50895469470E+02 -0.15226780496E+03  0.20953109454E+03  0.12509000000E+03 0.  0.
         25    1    3    3    0    0  0.56619416464E+02  0.30900471232E+02 -0.45403280233E+03  0.47534607512E+03  0.12509000000E+03 0.  0.
<mgrwt>
<rscale>  2 0.45669853E+03</rscale>
<asrwt>0</asrwt>
<pdfrwt beam="1">  1       21 0.95619660E-02 0.45669853E+03</pdfrwt>
<pdfrwt beam="2">  1       21 0.11793269E+00 0.45669853E+03</pdfrwt>
<totfact> 0.44099294E+04</totfact>
</mgrwt>
</event>
<event>
 7    0  0.4759581E-002  0.4251732E+03  0.7546771E-02  0.1035396E+00
         21   -1    0    0  502  501  0.00000000000E+00  0.00000000000E+00  0.73025565260E+02  0.73025565260E+02  0.00000000000E+00 0.  1.
         21   -1    0    0  501  502 -0.00000000000E+00 -0.00000000000E+00 -0.61886644876E+03  0.61886644876E+03  0.00000000000E+00 0.  1.
      99926    2    1    2    0    0  0.00000000000E+00  0.00000000000E+00 -0.54584088350E+03  0.69189201402E+03  0.42517324583E+03 0.  0.
      99925    2    3    3    0    0  0.36795720320E+02  0.27450118989E+02 -0.24301126629E+03  0.36104353023E+03  0.26304091148E+03 0.  0.
         25    1    4    4    0    0  0.19876161562E+02  0.16106015454E+02 -0.17671241673E+03  0.21801204521E+03  0.12509000000E+03 0.  0.
         25    1    4    4    0    0  0.16919558758E+02  0.11344103535E+02 -0.66298849565E+02  0.14303148502E+03  0.12509000000E+03 0.  0.
         25    1    3    3    0    0 -0.36795720320E+02 -0.27450118989E+02 -0.30282961721E+03  0.33084848379E+03  0.12509000000E+03 0.  0.
<mgrwt>
<rscale>  2 0.42517325E+03</rscale>
<asrwt>0</asrwt>
<pdfrwt beam="1">  1       21 0.10739054E-01 0.42517325E+03</pdfrwt>
<pdfrwt beam="2">  1       21 0.91009772E-01 0.42517325E+03</pdfrwt>
<totfact> 0.67947220E+04</totfact>
</mgrwt>
</event>
<event>
 7    0  0.4759581E-002  0.4472465E+03  0.7546771E-02  0.1028546E+00
         21   -1    0    0  502  501  0.00000000000E+00  0.00000000000E+00  0.18185898842E+03  0.18185898842E+03  0.00000000000E+00 0.  1.
         21   -1    0    0  501  502 -0.00000000000E+00 -0.00000000000E+00 -0.27497878722E+03  0.27497878722E+03  0.00000000000E+00 0.  1.
      99926    2    1    2    0    0  0.00000000000E+00  0.00000000000E+00 -0.93119798792E+02  0.45683777564E+03  0.44724652746E+03 0.  0.
      99925    2    3    3    0    0 -0.25380443285E+02  0.10089884332E+03 -0.78340265003E+02  0.29346493150E+03  0.26298236711E+03 0.  0.
         25    1    3    3    0    0  0.25380443285E+02 -0.10089884332E+03 -0.14779533789E+02  0.16337284414E+03  0.12509000000E+03 0.  0.
         25    1    4    4    0    0 -0.28035348899E+02  0.55505441677E+02 -0.13436917965E+01  0.13970020920E+03  0.12509000000E+03 0.  0.
         25    1    4    4    0    0  0.26549056137E+01  0.45393401642E+02 -0.76996573206E+02  0.15376472229E+03  0.12509000000E+03 0.  0.
<mgrwt>
<rscale>  2 0.44724653E+03</rscale>
<asrwt>0</asrwt>
<pdfrwt beam="1">  1       21 0.26743969E-01 0.44724653E+03</pdfrwt>
<pdfrwt beam="2">  1       21 0.40438056E-01 0.44724653E+03</pdfrwt>
<totfact> 0.72803329E+04</totfact>
</mgrwt>
</event>
<event>
 7    0  0.4759581E-002  0.4547429E+03  0.7546771E-02  0.1026317E+00
         21   -1    0    0  502  501  0.00000000000E+00  0.00000000000E+00  0.15761792463E+03  0.15761792463E+03  0.00000000000E+00 0. -1.
         21   -1    0    0  501  502 -0.00000000000E+00 -0.00000000000E+00 -0.32799430076E+03  0.32799430076E+03  0.00000000000E+00 0. -1.
      99926    2    1    2    0    0  0.00000000000E+00 -0.35527136788E-14 -0.17037637612E+03  0.48561222539E+03  0.45474292068E+03 0.  0.
      99925    2    3    3    0    0 -0.53540176422E+02  0.25100025000E+02 -0.20993065390E+03  0.34170735842E+03  0.26305223361E+03 0.  0.
         25    1    4    4    0    0 -0.10570486820E+02  0.16894462432E+02 -0.14982629209E+03  0.19619526996E+03  0.12509000000E+03 0.  0.
         25    1    3    3    0    0  0.53540176422E+02 -0.25100025000E+02  0.39554277776E+02  0.14390486697E+03  0.12509000000E+03 0.  0.
         25    1    4    4    0    0 -0.42969689602E+02  0.82055625675E+01 -0.60104361811E+02  0.14551208847E+03  0.12509000000E+03 0.  0.
<mgrwt>
<rscale>  2 0.45474292E+03</rscale>
<asrwt>0</asrwt>
<pdfrwt beam="1">  1       21 0.23179107E-01 0.45474292E+03</pdfrwt>
<pdfrwt beam="2">  1       21 0.48234456E-01 0.45474292E+03</pdfrwt>
<totfact> 0.66429255E+04</totfact>
</mgrwt>
</event>
<event>
 7    0  0.4759581E-002  0.4531235E+03  0.7546771E-02  0.1026795E+00
         21   -1    0    0  502  501  0.00000000000E+00  0.00000000000E+00  0.49555089002E+02  0.49555089002E+02  0.00000000000E+00 0. -1.
         21   -1    0    0  501  502 -0.00000000000E+00 -0.00000000000E+00 -0.10358215322E+04  0.10358215322E+04  0.00000000000E+00 0. -1.
      99926    2    1    2    0    0  0.00000000000E+00 -0.17763568394E-14 -0.98626644317E+03  0.10853766212E+04  0.45312350730E+03 0.  0.
      99925    2    3    3    0    0  0.37824830469E+02 -0.95690590248E+01 -0.37162642851E+03  0.45692444287E+03  0.26296665081E+03 0.  0.
         25    1    4    4    0    0  0.11713295408E+02  0.80310264505E+00 -0.11624049714E+03  0.17116427062E+03  0.12509000000E+03 0.  0.
         25    1    3    3    0    0 -0.37824830469E+02  0.95690590248E+01 -0.61464001466E+03  0.62845217830E+03  0.12509000000E+03 0.  0.
         25    1    4    4    0    0  0.26111535061E+02 -0.10372161670E+02 -0.25538593138E+03  0.28576017225E+03  0.12509000000E+03 0.  0.
<mgrwt>
<rscale>  2 0.45312351E+03</rscale>
<asrwt>0</asrwt>
<pdfrwt beam="1">  1       21 0.72875134E-02 0.45312351E+03</pdfrwt>
<pdfrwt beam="2">  1       21 0.15232669E+00 0.45312351E+03</pdfrwt>
<totfact> 0.36537471E+04</totfact>
</mgrwt>
</event>
<event>
 7    0  0.4759581E-002  0.4543604E+03  0.7546771E-02  0.1026430E+00
         21   -1    0    0  502  501  0.00000000000E+00  0.00000000000E+00  0.18923817001E+03  0.18923817001E+03  0.00000000000E+00 0.  1.
         21   -1    0    0  501  502 -0.00000000000E+00 -0.00000000000E+00 -0.27272954351E+03  0.27272954351E+03  0.00000000000E+00 0.  1.
      99926    2    1    2    0    0  0.00000000000E+00  0.00000000000E+00 -0.83491373499E+02  0.46196771351E+03  0.45436038436E+03 0.  0.
      99925    2    3    3    0    0 -0.51136117300E+02 -0.30723016440E+02 -0.14962724548E+03  0.30840903452E+03  0.26300002614E+03 0.  0.
         25    1    4    4    0    0 -0.51338029641E+02 -0.18188336358E+02 -0.41543188936E+02  0.14261750774E+03  0.12509000000E+03 0.  0.
         25    1    3    3    0    0  0.51136117300E+02  0.30723016440E+02  0.66135871979E+02  0.15355867899E+03  0.12509000000E+03 0.  0.
         25    1    4    4    0    0  0.20191234102E+00 -0.12534680083E+02 -0.10808405654E+03  0.16579152678E+03  0.12509000000E+03 0.  0.
<mgrwt>
<rscale>  2 0.45436038E+03</rscale>
<asrwt>0</asrwt>
<pdfrwt beam="1">  1       21 0.27829143E-01 0.45436038E+03</pdfrwt>
<pdfrwt beam="2">  1       21 0.40107286E-01 0.45436038E+03</pdfrwt>
<totfact> 0.68382856E+04</totfact>
</mgrwt>
</event>
<event>
 7    0  0.4759581E-002  0.4681823E+03  0.7546771E-02  0.1022435E+00
         21   -1    0    0  502  501  0.00000000000E+00  0.00000000000E+00  0.15200729475E+03  0.15200729475E+03  0.00000000000E+00 0. -1.
         21   -1    0    0  501  502 -0.00000000000E+00 -0.00000000000E+00 -0.36050016576E+03  0.36050016576E+03  0.00000000000E+00 0. -1.
      99926    2    1    2    0    0  0.35527136788E-14 -0.14210854715E-13 -0.20849287100E+03  0.51250746051E+03  0.46818225064E+03 0.  0.
      99925    2    3    3    0    0  0.17114780978E+02 -0.12370960402E+03 -0.13621886899E+03  0.32154143913E+03  0.26312798207E+03 0.  0.
         25    1    4    4    0    0 -0.26095838958E+02 -0.37629404788E+02 -0.67950340022E+02  0.14953836205E+03  0.12509000000E+03 0.  0.
         25    1    4    4    0    0  0.43210619936E+02 -0.86080199237E+02 -0.68268528969E+02  0.17200307708E+03  0.12509000000E+03 0.  0.
         25    1    3    3    0    0 -0.17114780978E+02  0.12370960402E+03 -0.72274002011E+02  0.19096602138E+03  0.12509000000E+03 0.  0.
<mgrwt>
<rscale>  2 0.46818225E+03</rscale>
<asrwt>0</asrwt>
<pdfrwt beam="1">  1       21 0.22354014E-01 0.46818225E+03</pdfrwt>
<pdfrwt beam="2">  1       21 0.53014730E-01 0.46818225E+03</pdfrwt>
<totfact> 0.58081434E+04</totfact>
</mgrwt>
</event>
<event>
 7    0  0.4759581E-002  0.4448687E+03  0.7546771E-02  0.1029263E+00
         21   -1    0    0  502  501  0.00000000000E+00  0.00000000000E+00  0.37673169983E+03  0.37673169983E+03  0.00000000000E+00 0.  1.
         21   -1    0    0  501  502 -0.00000000000E+00 -0.00000000000E+00 -0.13133232281E+03  0.13133232281E+03  0.00000000000E+00 0.  1.
      99926    2    1    2    0    0  0.14210854715E-13  0.00000000000E+00  0.24539937701E+03  0.50806402264E+03  0.44486874116E+03 0.  0.
      99925    2    3    3    0    0 -0.85239792719E+02 -0.58089238601E+02  0.15134914648E+03  0.32062567047E+03  0.26316168892E+03 0.  0.
         25    1    4    4    0    0 -0.60608064505E+02  0.47783641405E+01  0.90930080271E+02  0.16616846225E+03  0.12509000000E+03 0.  0.
         25    1    4    4    0    0 -0.24631728215E+02 -0.62867602741E+02  0.60419066213E+02  0.15445720822E+03  0.12509000000E+03 0.  0.
         25    1    3    3    0    0  0.85239792719E+02  0.58089238601E+02  0.94050230530E+02  0.18743835218E+03  0.12509000000E+03 0.  0.
<mgrwt>
<rscale>  2 0.44486874E+03</rscale>
<asrwt>0</asrwt>
<pdfrwt beam="1">  1       21 0.55401720E-01 0.44486874E+03</pdfrwt>
<pdfrwt beam="2">  1       21 0.19313577E-01 0.44486874E+03</pdfrwt>
<totfact> 0.70182632E+04</totfact>
</mgrwt>
</event>
<event>
 7    0  0.4759581E-002  0.4568206E+03  0.7546771E-02  0.1025707E+00
         21   -1    0    0  502  501  0.00000000000E+00  0.00000000000E+00  0.31826140737E+03  0.31826140737E+03  0.00000000000E+00 0. -1.
         21   -1    0    0  501  502 -0.00000000000E+00 -0.00000000000E+00 -0.16392580138E+03  0.16392580138E+03  0.00000000000E+00 0. -1.
      99926    2    1    2    0    0  0.00000000000E+00  0.00000000000E+00  0.15433560599E+03  0.48218720875E+03  0.45682056106E+03 0.  0.
      99925    2    3    3    0    0  0.32047914805E+02 -0.49375754243E+02  0.20112973093E+03  0.33623436644E+03  0.26293601229E+03 0.  0.
         25    1    3    3    0    0 -0.32047914805E+02  0.49375754243E+02 -0.46794124941E+02  0.14595284231E+03  0.12509000000E+03 0.  0.
         25    1    4    4    0    0  0.46993344203E+02 -0.15737253725E+02  0.71490672003E+02  0.15236292147E+03  0.12509000000E+03 0.  0.
         25    1    4    4    0    0 -0.14945429398E+02 -0.33638500518E+02  0.12963905893E+03  0.18387144498E+03  0.12509000000E+03 0.  0.
<mgrwt>
<rscale>  2 0.45682056E+03</rscale>
<asrwt>0</asrwt>
<pdfrwt beam="1">  1       21 0.46803148E-01 0.45682056E+03</pdfrwt>
<pdfrwt beam="2">  1       21 0.24106736E-01 0.45682056E+03</pdfrwt>
<totfact> 0.65588271E+04</totfact>
</mgrwt>
</event>
<event>
 7    0  0.4759581E-002  0.4587529E+03  0.7546771E-02  0.1025144E+00
         21   -1    0    0  502  501  0.00000000000E+00  0.00000000000E+00  0.91601200346E+02  0.91601200346E+02  0.00000000000E+00 0. -1.
         21   -1    0    0  501  502 -0.00000000000E+00 -0.00000000000E+00 -0.57437621815E+03  0.57437621815E+03  0.00000000000E+00 0. -1.
      99926    2    1    2    0    0  0.00000000000E+00  0.00000000000E+00 -0.48277501781E+03  0.66597741850E+03  0.45875287915E+03 0.  0.
      99925    2    3    3    0    0 -0.67263391570E+02  0.44770262291E+02 -0.42490642427E+03  0.50621189515E+03  0.26301382698E+03 0.  0.
         25    1    4    4    0    0 -0.24407969271E+01  0.15233684229E+02 -0.24754984871E+03  0.27778851366E+03  0.12509000000E+03 0.  0.
         25    1    3    3    0    0  0.67263391570E+02 -0.44770262291E+02 -0.57868593538E+02  0.15976552334E+03  0.12509000000E+03 0.  0.
         25    1    4    4    0    0 -0.64822594643E+02  0.29536578063E+02 -0.17735657556E+03  0.22842338150E+03  0.12509000000E+03 0.  0.
<mgrwt>
<rscale>  2 0.45875288E+03</rscale>
<asrwt>0</asrwt>
<pdfrwt beam="1">  1       21 0.13470765E-01 0.45875288E+03</pdfrwt>
<pdfrwt beam="2">  1       21 0.84467091E-01 0.45875288E+03</pdfrwt>
<totfact> 0.53197622E+04</totfact>
</mgrwt>
</event>
<event>
 7    0  0.4759581E-002  0.4549344E+03  0.7546771E-02  0.1026261E+00
         21   -1    0    0  502  501  0.00000000000E+00  0.00000000000E+00  0.13558847851E+03  0.13558847851E+03  0.00000000000E+00 0.  1.
         21   -1    0    0  501  502 -0.00000000000E+00 -0.00000000000E+00 -0.38160565035E+03  0.38160565035E+03  0.00000000000E+00 0.  1.
      99926    2    1    2    0    0  0.00000000000E+00 -0.71054273576E-14 -0.24601717185E+03  0.51719412886E+03  0.45493441075E+03 0.  0.
      99925    2    3    3    0    0 -0.92001908401E+02 -0.63632782603E+02 -0.17330099794E+03  0.33430445660E+03  0.26308316489E+03 0.  0.
         25    1    4    4    0    0 -0.70914770109E+02 -0.52092170793E+02 -0.61568581346E+02  0.16486569439E+03  0.12509000000E+03 0.  0.
         25    1    4    4    0    0 -0.21087138292E+02 -0.11540611810E+02 -0.11173241660E+03  0.16943876222E+03  0.12509000000E+03 0.  0.
         25    1    3    3    0    0  0.92001908401E+02  0.63632782603E+02 -0.72716173904E+02  0.18288967226E+03  0.12509000000E+03 0.  0.
<mgrwt>
<rscale>  2 0.45493441E+03</rscale>
<asrwt>0</asrwt>
<pdfrwt beam="1">  1       21 0.19939483E-01 0.45493441E+03</pdfrwt>
<pdfrwt beam="2">  1       21 0.56118477E-01 0.45493441E+03</pdfrwt>
<totfact> 0.64112202E+04</totfact>
</mgrwt>
</event>
<event>
 7    0  0.4759581E-002  0.4576517E+03  0.7546771E-02  0.1025464E+00
         21   -1    0    0  502  501  0.00000000000E+00  0.00000000000E+00  0.20412065332E+03  0.20412065332E+03  0.00000000000E+00 0. -1.
         21   -1    0    0  501  502 -0.00000000000E+00 -0.00000000000E+00 -0.25652118496E+03  0.25652118496E+03  0.00000000000E+00 0. -1.
      99926    2    1    2    0    0  0.00000000000E+00  0.17763568394E-14 -0.52400531644E+02  0.46064183828E+03  0.45765170977E+03 0.  0.
      99925    2    3    3    0    0 -0.80359888177E+02 -0.13673472644E+02 -0.11546877628E+03  0.29856226812E+03  0.26298614824E+03 0.  0.
         25    1    4    4    0    0 -0.49291349949E+01  0.15886186665E+02 -0.57049572950E+02  0.13848764989E+03  0.12509000000E+03 0.  0.
         25    1    3    3    0    0  0.80359888177E+02  0.13673472644E+02  0.63068244636E+02  0.16207957016E+03  0.12509000000E+03 0.  0.
         25    1    4    4    0    0 -0.75430753182E+02 -0.29559659308E+02 -0.58419203330E+02  0.16007461823E+03  0.12509000000E+03 0.  0.
<mgrwt>
<rscale>  2 0.45765171E+03</rscale>
<asrwt>0</asrwt>
<pdfrwt beam="1">  1       21 0.30017743E-01 0.45765171E+03</pdfrwt>
<pdfrwt beam="2">  1       21 0.37723703E-01 0.45765171E+03</pdfrwt>
<totfact> 0.66711756E+04</totfact>
</mgrwt>
</event>
<event>
 7    0  0.4759581E-002  0.4637639E+03  0.7546771E-02  0.1023695E+00
         21   -1    0    0  502  501  0.00000000000E+00  0.00000000000E+00  0.13151402977E+03  0.13151402977E+03  0.00000000000E+00 0. -1.
         21   -1    0    0  501  502 -0.00000000000E+00 -0.00000000000E+00 -0.40884788907E+03  0.40884788907E+03  0.00000000000E+00 0. -1.
      99926    2    1    2    0    0  0.00000000000E+00  0.35527136788E-14 -0.27733385930E+03  0.54036191885E+03  0.46376387723E+03 0.  0.
      99925    2    3    3    0    0  0.72408043306E+02 -0.17003922453E+02 -0.28469271174E+03  0.39464397581E+03  0.26298644339E+03 0.  0.
         25    1    3    3    0    0 -0.72408043306E+02  0.17003922453E+02  0.73588524414E+01  0.14571794304E+03  0.12509000000E+03 0.  0.
         25    1    4    4    0    0  0.12207744113E+02 -0.37775043290E+02 -0.11568376013E+03  0.17494634426E+03  0.12509000000E+03 0.  0.
         25    1    4    4    0    0  0.60200299193E+02  0.20771120837E+02 -0.16900895161E+03  0.21969763155E+03  0.12509000000E+03 0.  0.
<mgrwt>
<rscale>  2 0.46376388E+03</rscale>
<asrwt>0</asrwt>
<pdfrwt beam="1">  1       21 0.19340298E-01 0.46376388E+03</pdfrwt>
<pdfrwt beam="2">  1       21 0.60124690E-01 0.46376388E+03</pdfrwt>
<totfact> 0.58351220E+04</totfact>
</mgrwt>
</event>
<event>
 7    0  0.4759581E-002  0.4548798E+03  0.7546771E-02  0.1026277E+00
         21   -1    0    0  502  501  0.00000000000E+00  0.00000000000E+00  0.36791832506E+03  0.36791832506E+03  0.00000000000E+00 0. -1.
         21   -1    0    0  501  502 -0.00000000000E+00 -0.00000000000E+00 -0.14059891284E+03  0.14059891284E+03  0.00000000000E+00 0. -1.
      99926    2    1    2    0    0  0.00000000000E+00  0.00000000000E+00  0.22731941223E+03  0.50851723790E+03  0.45487983695E+03 0.  0.
      99925    2    3    3    0    0 -0.53785342678E+02  0.82561804452E+02  0.80104805147E+02  0.29165561548E+03  0.26255838130E+03 0.  0.
         25    1    4    4    0    0 -0.44223014645E+02  0.73213918423E+02  0.65217389410E+02  0.16497505526E+03  0.12509000000E+03 0.  0.
         25    1    3    3    0    0  0.53785342678E+02 -0.82561804452E+02  0.14721460708E+03  0.21686162242E+03  0.12509000000E+03 0.  0.
         25    1    4    4    0    0 -0.95623280329E+01  0.93478860290E+01  0.14887415737E+02  0.12668056022E+03  0.12509000000E+03 0.  0.
<mgrwt>
<rscale>  2 0.45487984E+03</rscale>
<asrwt>0</asrwt>
<pdfrwt beam="1">  1       21 0.54105636E-01 0.45487984E+03</pdfrwt>
<pdfrwt beam="2">  1       21 0.20676311E-01 0.45487984E+03</pdfrwt>
<totfact> 0.64738064E+04</totfact>
</mgrwt>
</event>
<event>
 7    0  0.4759581E-002  0.4507081E+03  0.7546771E-02  0.1027511E+00
         21   -1    0    0  502  501  0.00000000000E+00  0.00000000000E+00  0.61646156205E+02  0.61646156205E+02  0.00000000000E+00 0. -1.
         21   -1    0    0  501  502 -0.00000000000E+00 -0.00000000000E+00 -0.82380566880E+03  0.82380566880E+03  0.00000000000E+00 0. -1.
      99926    2    1    2    0    0 -0.71054273576E-14  0.00000000000E+00 -0.76215951260E+03  0.88545182501E+03  0.45070812259E+03 0.  0.
      99925    2    3    3    0    0  0.49236210165E+02  0.28866521208E+02 -0.66402943187E+03  0.71653024178E+03  0.26310268062E+03 0.  0.
         25    1    4    4    0    0  0.52848074369E+02  0.37104399138E+02 -0.40430547609E+03  0.42811223003E+03  0.12509000000E+03 0.  0.
         25    1    3    3    0    0 -0.49236210165E+02 -0.28866521208E+02 -0.98130080723E+02  0.16892158323E+03  0.12509000000E+03 0.  0.
         25    1    4    4    0    0 -0.36118642036E+01 -0.82378779297E+01 -0.25972395578E+03  0.28841801175E+03  0.12509000000E+03 0.  0.
<mgrwt>
<rscale>  2 0.45070812E+03</rscale>
<asrwt>0</asrwt>
<pdfrwt beam="1">  1       21 0.90656121E-02 0.45070812E+03</pdfrwt>
<pdfrwt beam="2">  1       21 0.12114788E+00 0.45070812E+03</pdfrwt>
<totfact> 0.45374641E+04</totfact>
</mgrwt>
</event>
<event>
 7    0  0.4759581E-002  0.4588228E+03  0.7546771E-02  0.1025123E+00
         21   -1    0    0  502  501  0.00000000000E+00  0.00000000000E+00  0.51585581283E+02  0.51585581283E+02  0.00000000000E+00 0.  1.
         21   -1    0    0  501  502 -0.00000000000E+00 -0.00000000000E+00 -0.10202382840E+04  0.10202382840E+04  0.00000000000E+00 0.  1.
      99926    2    1    2    0    0  0.00000000000E+00 -0.88817841970E-15 -0.96865270273E+03  0.10718238653E+04  0.45882277593E+03 0.  0.
      99925    2    3    3    0    0 -0.51148139309E+02  0.78301623988E+01 -0.85213890988E+03  0.89321699078E+03  0.26271358415E+03 0.  0.
         25    1    4    4    0    0 -0.38233123584E+02 -0.16732445285E+01 -0.30750857461E+03  0.33417600609E+03  0.12509000000E+03 0.  0.
         25    1    3    3    0    0  0.51148139309E+02 -0.78301623988E+01 -0.11651379285E+03  0.17860687451E+03  0.12509000000E+03 0.  0.
         25    1    4    4    0    0 -0.12915015725E+02  0.95034069273E+01 -0.54463033527E+03  0.55904098469E+03  0.12509000000E+03 0.  0.
<mgrwt>
<rscale>  2 0.45882278E+03</rscale>
<asrwt>0</asrwt>
<pdfrwt beam="1">  1       21 0.75861152E-02 0.45882278E+03</pdfrwt>
<pdfrwt beam="2">  1       21 0.15003504E+00 0.45882278E+03</pdfrwt>
<totfact> 0.35418248E+04</totfact>
</mgrwt>
</event>
<event>
 7    0  0.4759581E-002  0.4538929E+03  0.7546771E-02  0.1026567E+00
         21   -1    0    0  502  501  0.00000000000E+00  0.00000000000E+00  0.51474165636E+02  0.51474165636E+02  0.00000000000E+00 0.  1.
         21   -1    0    0  501  502 -0.00000000000E+00 -0.00000000000E+00 -0.10005932005E+04  0.10005932005E+04  0.00000000000E+00 0.  1.
      99926    2    1    2    0    0  0.35527136788E-14  0.00000000000E+00 -0.94911903483E+03  0.10520673661E+04  0.45389293952E+03 0.  0.
      99925    2    3    3    0    0 -0.31567307357E+02  0.90034979738E+02 -0.73444767137E+03  0.78592061173E+03  0.26297344638E+03 0.  0.
         25    1    4    4    0    0  0.24793845300E+02  0.42208559049E+02 -0.36437459125E+03  0.38834604166E+03  0.12509000000E+03 0.  0.
         25    1    3    3    0    0  0.31567307357E+02 -0.90034979738E+02 -0.21467136347E+03  0.26614675437E+03  0.12509000000E+03 0.  0.
         25    1    4    4    0    0 -0.56361152657E+02  0.47826420689E+02 -0.37007308012E+03  0.39757457008E+03  0.12509000000E+03 0.  0.
<mgrwt>
<rscale>  2 0.45389294E+03</rscale>
<asrwt>0</asrwt>
<pdfrwt beam="1">  1       21 0.75697299E-02 0.45389294E+03</pdfrwt>
<pdfrwt beam="2">  1       21 0.14714607E+00 0.45389294E+03</pdfrwt>
<totfact> 0.37524809E+04</totfact>
</mgrwt>
</event>
<event>
 7    0  0.4759581E-002  0.4570256E+03  0.7546771E-02  0.1025647E+00
         21   -1    0    0  502  501  0.00000000000E+00  0.00000000000E+00  0.43475943944E+02  0.43475943944E+02  0.00000000000E+00 0. -1.
         21   -1    0    0  501  502 -0.00000000000E+00 -0.00000000000E+00 -0.12010801577E+04  0.12010801577E+04  0.00000000000E+00 0. -1.
      99926    2    1    2    0    0  0.00000000000E+00  0.00000000000E+00 -0.11576042138E+04  0.12445561016E+04  0.45702557306E+03 0.  0.
      99925    2    3    3    0    0  0.52657912530E+02  0.10214765193E+03 -0.74335309867E+03  0.79683018884E+03  0.26297817779E+03 0.  0.
         25    1    4    4    0    0  0.21449187888E+02  0.94420821999E+01 -0.36284763461E+03  0.38451935532E+03  0.12509000000E+03 0.  0.
         25    1    3    3    0    0 -0.52657912530E+02 -0.10214765193E+03 -0.41425111508E+03  0.44772591280E+03  0.12509000000E+03 0.  0.
         25    1    4    4    0    0  0.31208724643E+02  0.92705569733E+02 -0.38050546407E+03  0.41231083352E+03  0.12509000000E+03 0.  0.
<mgrwt>
<rscale>  2 0.45702557E+03</rscale>
<asrwt>0</asrwt>
<pdfrwt beam="1">  1       21 0.63935215E-02 0.45702557E+03</pdfrwt>
<pdfrwt beam="2">  1       21 0.17662942E+00 0.45702557E+03</pdfrwt>
<totfact> 0.30287938E+04</totfact>
</mgrwt>
</event>
<event>
 7    0  0.4759581E-002  0.4591904E+03  0.7546771E-02  0.1025016E+00
         21   -1    0    0  502  501  0.00000000000E+00  0.00000000000E+00  0.50765660571E+03  0.50765660571E+03  0.00000000000E+00 0. -1.
         21   -1    0    0  501  502 -0.00000000000E+00 -0.00000000000E+00 -0.10383783507E+03  0.10383783507E+03  0.00000000000E+00 0. -1.
      99926    2    1    2    0    0  0.00000000000E+00  0.00000000000E+00  0.40381877065E+03  0.61149444078E+03  0.45919043062E+03 0.  0.
      99925    2    3    3    0    0  0.71922802553E+02 -0.39764166628E+02  0.14245399151E+03  0.31030822870E+03  0.26314250631E+03 0.  0.
         25    1    4    4    0    0  0.52534560345E+02 -0.51187276149E+02  0.50956006753E+02  0.15370113856E+03  0.12509000000E+03 0.  0.
         25    1    4    4    0    0  0.19388242209E+02  0.11423109521E+02  0.91497984755E+02  0.15660709014E+03  0.12509000000E+03 0.  0.
         25    1    3    3    0    0 -0.71922802553E+02  0.39764166628E+02  0.26136477914E+03  0.30118621208E+03  0.12509000000E+03 0.  0.
<mgrwt>
<rscale>  2 0.45919043E+03</rscale>
<asrwt>0</asrwt>
<pdfrwt beam="1">  1       21 0.74655382E-01 0.45919043E+03</pdfrwt>
<pdfrwt beam="2">  1       21 0.15270270E-01 0.45919043E+03</pdfrwt>
<totfact> 0.56096347E+04</totfact>
</mgrwt>
</event>
<event>
 7    0  0.4759581E-002  0.4442396E+03  0.7546771E-02  0.1029454E+00
         21   -1    0    0  502  501  0.00000000000E+00  0.00000000000E+00  0.60500756760E+03  0.60500756760E+03  0.00000000000E+00 0. -1.
         21   -1    0    0  501  502 -0.00000000000E+00 -0.00000000000E+00 -0.81548080911E+02  0.81548080911E+02  0.00000000000E+00 0. -1.
      99926    2    1    2    0    0  0.00000000000E+00  0.00000000000E+00  0.52345948669E+03  0.68655564851E+03  0.44423960235E+03 0.  0.
      99925    2    3    3    0    0  0.76413976140E+02  0.29297630153E+02  0.23652552511E+03  0.36301886036E+03  0.26294661448E+03 0.  0.
         25    1    4    4    0    0  0.35087907803E+02  0.21994902335E+02  0.65891827434E+02  0.14732337909E+03  0.12509000000E+03 0.  0.
         25    1    3    3    0    0 -0.76413976140E+02 -0.29297630153E+02  0.28693396157E+03  0.32353678815E+03  0.12509000000E+03 0.  0.
         25    1    4    4    0    0  0.41326068337E+02  0.73027278174E+01  0.17063369768E+03  0.21569548127E+03  0.12509000000E+03 0.  0.
<mgrwt>
<rscale>  2 0.44423960E+03</rscale>
<asrwt>0</asrwt>
<pdfrwt beam="1">  1       21 0.88971699E-01 0.44423960E+03</pdfrwt>
<pdfrwt beam="2">  1       21 0.11992365E-01 0.44423960E+03</pdfrwt>
<totfact> 0.58434100E+04</totfact>
</mgrwt>
</event>
<event>
 7    0  0.4759581E-002  0.4493669E+03  0.7546771E-02  0.1027911E+00
         21   -1    0    0  502  501  0.00000000000E+00  0.00000000000E+00  0.39698968680E+02  0.39698968680E+02  0.00000000000E+00 0.  1.
         21   -1    0    0  501  502 -0.00000000000E+00 -0.00000000000E+00 -0.12716365351E+04  0.12716365351E+04  0.00000000000E+00 0.  1.
      99926    2    1    2    0    0  0.00000000000E+00  0.00000000000E+00 -0.12319375664E+04  0.13113355038E+04  0.44936692793E+03 0.  0.
      99925    2    3    3    0    0 -0.87337230335E+01 -0.58273151469E+02 -0.10426922641E+04  0.10769568984E+04  0.26297711942E+03 0.  0.
         25    1    4    4    0    0 -0.26575111811E+02 -0.13292612215E+02 -0.63108121286E+03  0.64404497935E+03  0.12509000000E+03 0.  0.
         25    1    4    4    0    0  0.17841388778E+02 -0.44980539254E+02 -0.41161105125E+03  0.43291191907E+03  0.12509000000E+03 0.  0.
         25    1    3    3    0    0  0.87337230335E+01  0.58273151469E+02 -0.18924530231E+03  0.23437860535E+03  0.12509000000E+03 0.  0.
<mgrwt>
<rscale>  2 0.44936693E+03</rscale>
<asrwt>0</asrwt>
<pdfrwt beam="1">  1       21 0.58380842E-02 0.44936693E+03</pdfrwt>
<pdfrwt beam="2">  1       21 0.18700535E+00 0.44936693E+03</pdfrwt>
<totfact> 0.30083651E+04</totfact>
</mgrwt>
</event>
<event>
 7    0  0.4759581E-002  0.4611492E+03  0.7546771E-02  0.1024448E+00
         21   -1    0    0  502  501  0.00000000000E+00  0.00000000000E+00  0.65290244082E+02  0.65290244082E+02  0.00000000000E+00 0.  1.
         21   -1    0    0  501  502 -0.00000000000E+00 -0.00000000000E+00 -0.81428157849E+03  0.81428157849E+03  0.00000000000E+00 0.  1.
      99926    2    1    2    0    0  0.71054273576E-14  0.00000000000E+00 -0.74899133441E+03  0.87957182257E+03  0.46114918632E+03 0.  0.
      99925    2    3    3    0    0 -0.42965046810E+02 -0.72478450979E+02 -0.30886458209E+03  0.41432115110E+03  0.26299346964E+03 0.  0.
         25    1    4    4    0    0  0.18088509384E+02 -0.34463746126E+02 -0.13067857609E+03  0.18503875896E+03  0.12509000000E+03 0.  0.
         25    1    4    4    0    0 -0.61053556195E+02 -0.38014704853E+02 -0.17818600600E+03  0.22928239213E+03  0.12509000000E+03 0.  0.
         25    1    3    3    0    0  0.42965046810E+02  0.72478450979E+02 -0.44012675231E+03  0.46525067147E+03  0.12509000000E+03 0.  0.
<mgrwt>
<rscale>  2 0.46114919E+03</rscale>
<asrwt>0</asrwt>
<pdfrwt beam="1">  1       21 0.96015067E-02 0.46114919E+03</pdfrwt>
<pdfrwt beam="2">  1       21 0.11974729E+00 0.46114919E+03</pdfrwt>
<totfact> 0.42065945E+04</totfact>
</mgrwt>
</event>
<event>
 7    0  0.4759581E-002  0.4529228E+03  0.7546771E-02  0.1026854E+00
         21   -1    0    0  502  501  0.00000000000E+00  0.00000000000E+00  0.61078263834E+02  0.61078263834E+02  0.00000000000E+00 0.  1.
         21   -1    0    0  501  502 -0.00000000000E+00 -0.00000000000E+00 -0.83965650987E+03  0.83965650987E+03  0.00000000000E+00 0.  1.
      99926    2    1    2    0    0  0.00000000000E+00  0.00000000000E+00 -0.77857824604E+03  0.90073477370E+03  0.45292278300E+03 0.  0.
      99925    2    3    3    0    0  0.80259150338E+02  0.26664049657E+02 -0.63435967144E+03  0.69193101867E+03  0.26306622568E+03 0.  0.
         25    1    3    3    0    0 -0.80259150338E+02 -0.26664049657E+02 -0.14421857460E+03  0.20880375503E+03  0.12509000000E+03 0.  0.
         25    1    4    4    0    0  0.35412269509E+02 -0.13103255932E+02 -0.38526644176E+03  0.40682116882E+03  0.12509000000E+03 0.  0.
         25    1    4    4    0    0  0.44846880829E+02  0.39767305589E+02 -0.24909322967E+03  0.28510984985E+03  0.12509000000E+03 0.  0.
<mgrwt>
<rscale>  2 0.45292278E+03</rscale>
<asrwt>0</asrwt>
<pdfrwt beam="1">  1       21 0.89820977E-02 0.45292278E+03</pdfrwt>
<pdfrwt beam="2">  1       21 0.12347890E+00 0.45292278E+03</pdfrwt>
<totfact> 0.43911741E+04</totfact>
</mgrwt>
</event>
<event>
 7    0  0.4759581E-002  0.4575967E+03  0.7546771E-02  0.1025481E+00
         21   -1    0    0  502  501  0.00000000000E+00  0.00000000000E+00  0.14069327539E+03  0.14069327539E+03  0.00000000000E+00 0. -1.
         21   -1    0    0  501  502 -0.00000000000E+00 -0.00000000000E+00 -0.37207673066E+03  0.37207673066E+03  0.00000000000E+00 0. -1.
      99926    2    1    2    0    0  0.00000000000E+00 -0.71054273576E-14 -0.23138345528E+03  0.51277000605E+03  0.45759673921E+03 0.  0.
      99925    2    3    3    0    0  0.56594424593E+02 -0.40885422613E+02 -0.24837810865E+03  0.36851026454E+03  0.26312275375E+03 0.  0.
         25    1    3    3    0    0 -0.56594424593E+02  0.40885422613E+02  0.16994653375E+02  0.14425974151E+03  0.12509000000E+03 0.  0.
         25    1    4    4    0    0  0.49320482732E+02 -0.39351323517E+02 -0.89856914797E+02  0.16644161113E+03  0.12509000000E+03 0.  0.
         25    1    4    4    0    0  0.72739418615E+01 -0.15340990958E+01 -0.15852119385E+03  0.20206865341E+03  0.12509000000E+03 0.  0.
<mgrwt>
<rscale>  2 0.45759674E+03</rscale>
<asrwt>0</asrwt>
<pdfrwt beam="1">  1       21 0.20690188E-01 0.45759674E+03</pdfrwt>
<pdfrwt beam="2">  1       21 0.54717166E-01 0.45759674E+03</pdfrwt>
<totfact> 0.63072681E+04</totfact>
</mgrwt>
</event>
<event>
 7    0  0.4759581E-002  0.4528754E+03  0.7546771E-02  0.1026868E+00
         21   -1    0    0  502  501  0.00000000000E+00  0.00000000000E+00  0.57602854441E+03  0.57602854441E+03  0.00000000000E+00 0.  1.
         21   -1    0    0  501  502 -0.00000000000E+00 -0.00000000000E+00 -0.89013024897E+02  0.89013024897E+02  0.00000000000E+00 0.  1.
      99926    2    1    2    0    0  0.00000000000E+00 -0.13322676296E-14  0.48701551951E+03  0.66504156931E+03  0.45287544939E+03 0.  0.
      99925    2    3    3    0    0  0.10673845205E+03  0.36876808293E+01  0.35249124644E+03  0.45255395960E+03  0.26296066510E+03 0.  0.
         25    1    3    3    0    0 -0.10673845205E+03 -0.36876808293E+01  0.13452427307E+03  0.21248760971E+03  0.12509000000E+03 0.  0.
         25    1    4    4    0    0  0.11537348293E+02  0.12905987730E+02  0.15177245042E+03  0.19743874932E+03  0.12509000000E+03 0.  0.
         25    1    4    4    0    0  0.95201103758E+02 -0.92183069011E+01  0.20071879602E+03  0.25511521028E+03  0.12509000000E+03 0.  0.
<mgrwt>
<rscale>  2 0.45287545E+03</rscale>
<asrwt>0</asrwt>
<pdfrwt beam="1">  1       21 0.84710078E-01 0.45287545E+03</pdfrwt>
<pdfrwt beam="2">  1       21 0.13090151E-01 0.45287545E+03</pdfrwt>
<totfact> 0.55770512E+04</totfact>
</mgrwt>
</event>
<event>
 7    0  0.4759581E-002  0.4549175E+03  0.7546771E-02  0.1026266E+00
         21   -1    0    0  502  501  0.00000000000E+00  0.00000000000E+00  0.56074631325E+03  0.56074631325E+03  0.00000000000E+00 0. -1.
         21   -1    0    0  501  502 -0.00000000000E+00 -0.00000000000E+00 -0.92265403853E+02  0.92265403853E+02  0.00000000000E+00 0. -1.
      99926    2    1    2    0    0 -0.17763568394E-14  0.00000000000E+00  0.46848090940E+03  0.65301171710E+03  0.45491750923E+03 0.  0.
      99925    2    3    3    0    0 -0.62180383117E+01 -0.85857111060E+02  0.40079981278E+03  0.48676387062E+03  0.26246612791E+03 0.  0.
         25    1    4    4    0    0 -0.41150865719E+02 -0.55116496474E+02  0.20595177752E+03  0.25058903547E+03  0.12509000000E+03 0.  0.
         25    1    3    3    0    0  0.62180383117E+01  0.85857111060E+02  0.67681096615E+02  0.16624784648E+03  0.12509000000E+03 0.  0.
         25    1    4    4    0    0  0.34932827407E+02 -0.30740614586E+02  0.19484803526E+03  0.23617483516E+03  0.12509000000E+03 0.  0.
<mgrwt>
<rscale>  2 0.45491751E+03</rscale>
<asrwt>0</asrwt>
<pdfrwt beam="1">  1       21 0.82462692E-01 0.45491751E+03</pdfrwt>
<pdfrwt beam="2">  1       21 0.13568442E-01 0.45491751E+03</pdfrwt>
<totfact> 0.55564468E+04</totfact>
</mgrwt>
</event>
<event>
 7    0  0.4759581E-002  0.4527954E+03  0.7546771E-02  0.1026892E+00
         21   -1    0    0  502  501  0.00000000000E+00  0.00000000000E+00  0.83753468493E+03  0.83753468493E+03  0.00000000000E+00 0.  1.
         21   -1    0    0  501  502 -0.00000000000E+00 -0.00000000000E+00 -0.61198550612E+02  0.61198550612E+02  0.00000000000E+00 0.  1.
      99926    2    1    2    0    0  0.17763568394E-14  0.00000000000E+00  0.77633613431E+03  0.89873323554E+03  0.45279535689E+03 0.  0.
      99925    2    3    3    0    0 -0.34902714576E+01 -0.31086331758E+02  0.27775856831E+03  0.38375203254E+03  0.26293964744E+03 0.  0.
         25    1    3    3    0    0  0.34902714576E+01  0.31086331758E+02  0.49857756600E+03  0.51498120299E+03  0.12509000000E+03 0.  0.
         25    1    4    4    0    0 -0.16250510448E+02  0.21431242592E+02  0.14720334656E+03  0.19503771581E+03  0.12509000000E+03 0.  0.
         25    1    4    4    0    0  0.12760238990E+02 -0.52517574350E+02  0.13055522175E+03  0.18871431673E+03  0.12509000000E+03 0.  0.
<mgrwt>
<rscale>  2 0.45279536E+03</rscale>
<asrwt>0</asrwt>
<pdfrwt beam="1">  1       21 0.12316686E+00 0.45279536E+03</pdfrwt>
<pdfrwt beam="2">  1       21 0.89997874E-02 0.45279536E+03</pdfrwt>
<totfact> 0.44043856E+04</totfact>
</mgrwt>
</event>
<event>
 7    0  0.4759581E-002  0.4584273E+03  0.7546771E-02  0.1025238E+00
         21   -1    0    0  502  501  0.00000000000E+00  0.00000000000E+00  0.11594736767E+03  0.11594736767E+03  0.00000000000E+00 0. -1.
         21   -1    0    0  501  502 -0.00000000000E+00 -0.00000000000E+00 -0.45312708061E+03  0.45312708061E+03  0.00000000000E+00 0. -1.
      99926    2    1    2    0    0  0.00000000000E+00  0.00000000000E+00 -0.33717971294E+03  0.56907444829E+03  0.45842727763E+03 0.  0.
      99925    2    3    3    0    0  0.11390376424E+03  0.23771336105E+02 -0.21182498904E+03  0.35717716460E+03  0.26299535547E+03 0.  0.
         25    1    3    3    0    0 -0.11390376424E+03 -0.23771336105E+02 -0.12535472390E+03  0.21189728369E+03  0.12509000000E+03 0.  0.
         25    1    4    4    0    0  0.70387974299E+02  0.23511726374E+02 -0.15647510230E+03  0.21363341018E+03  0.12509000000E+03 0.  0.
         25    1    4    4    0    0  0.43515789945E+02  0.25960973139E+00 -0.55349886740E+02  0.14354375442E+03  0.12509000000E+03 0.  0.
<mgrwt>
<rscale>  2 0.45842728E+03</rscale>
<asrwt>0</asrwt>
<pdfrwt beam="1">  1       21 0.17051083E-01 0.45842728E+03</pdfrwt>
<pdfrwt beam="2">  1       21 0.66636336E-01 0.45842728E+03</pdfrwt>
<totfact> 0.59007739E+04</totfact>
</mgrwt>
</event>
<event>
 7    0  0.4759581E-002  0.4522157E+03  0.7546771E-02  0.1027063E+00
         21   -1    0    0  502  501  0.00000000000E+00  0.00000000000E+00  0.66697133306E+03  0.66697133306E+03  0.00000000000E+00 0. -1.
         21   -1    0    0  501  502 -0.00000000000E+00 -0.00000000000E+00 -0.76652093440E+02  0.76652093440E+02  0.00000000000E+00 0. -1.
      99926    2    1    2    0    0 -0.35527136788E-14  0.00000000000E+00  0.59031923962E+03  0.74362342650E+03  0.45221565185E+03 0.  0.
      99925    2    3    3    0    0  0.29241990952E+02 -0.10078703630E+03  0.31574569556E+03  0.42416879761E+03  0.26307927300E+03 0.  0.
         25    1    4    4    0    0  0.38466550614E+02 -0.33760566986E+02  0.19695158026E+03  0.23886582943E+03  0.12509000000E+03 0.  0.
         25    1    3    3    0    0 -0.29241990952E+02  0.10078703630E+03  0.27457354406E+03  0.31945462889E+03  0.12509000000E+03 0.  0.
         25    1    4    4    0    0 -0.92245596618E+01 -0.67026469311E+02  0.11879411529E+03  0.18530296818E+03  0.12509000000E+03 0.  0.
<mgrwt>
<rscale>  2 0.45221565E+03</rscale>
<asrwt>0</asrwt>
<pdfrwt beam="1">  1       21 0.98084016E-01 0.45221565E+03</pdfrwt>
<pdfrwt beam="2">  1       21 0.11272367E-01 0.45221565E+03</pdfrwt>
<totfact> 0.51720395E+04</totfact>
</mgrwt>
</event>
<event>
 7    0  0.4759581E-002  0.4564330E+03  0.7546771E-02  0.1025821E+00
         21   -1    0    0  502  501  0.00000000000E+00  0.00000000000E+00  0.20027459048E+03  0.20027459048E+03  0.00000000000E+00 0. -1.
         21   -1    0    0  501  502 -0.00000000000E+00 -0.00000000000E+00 -0.26005678240E+03  0.26005678240E+03  0.00000000000E+00 0. -1.
      99926    2    1    2    0    0  0.14210854715E-13  0.00000000000E+00 -0.59782191917E+02  0.46033137288E+03  0.45643297689E+03 0.  0.
      99925    2    3    3    0    0 -0.72826002657E+02 -0.53887660287E+02 -0.10818258372E+03  0.29847460713E+03  0.26301352263E+03 0.  0.
         25    1    3    3    0    0  0.72826002657E+02  0.53887660287E+02  0.48400391798E+02  0.16185676575E+03  0.12509000000E+03 0.  0.
         25    1    4    4    0    0 -0.55573194149E+02  0.87112642926E+01 -0.49686327682E+02  0.14587839214E+03  0.12509000000E+03 0.  0.
         25    1    4    4    0    0 -0.17252808508E+02 -0.62598924579E+02 -0.58496256033E+02  0.15259621499E+03  0.12509000000E+03 0.  0.
<mgrwt>
<rscale>  2 0.45643298E+03</rscale>
<asrwt>0</asrwt>
<pdfrwt beam="1">  1       21 0.29452146E-01 0.45643298E+03</pdfrwt>
<pdfrwt beam="2">  1       21 0.38243644E-01 0.45643298E+03</pdfrwt>
<totfact> 0.67383078E+04</totfact>
</mgrwt>
</event>
<event>
 7    0  0.4759581E-002  0.4577724E+03  0.7546771E-02  0.1025429E+00
         21   -1    0    0  502  501  0.00000000000E+00  0.00000000000E+00  0.13468795357E+03  0.13468795357E+03  0.00000000000E+00 0. -1.
         21   -1    0    0  501  502 -0.00000000000E+00 -0.00000000000E+00 -0.38896491524E+03  0.38896491524E+03  0.00000000000E+00 0. -1.
      99926    2    1    2    0    0  0.00000000000E+00  0.35527136788E-14 -0.25427696167E+03  0.52365286881E+03  0.45777238207E+03 0.  0.
      99925    2    3    3    0    0 -0.11140684081E+03  0.20465372508E+02 -0.18944381208E+03  0.34287355297E+03  0.26237949566E+03 0.  0.
         25    1    4    4    0    0 -0.38193529153E+02  0.43081916587E+02 -0.10862092056E+03  0.17538759845E+03  0.12509000000E+03 0.  0.
         25    1    3    3    0    0  0.11140684081E+03 -0.20465372508E+02 -0.64833149583E+02  0.18077931584E+03  0.12509000000E+03 0.  0.
         25    1    4    4    0    0 -0.73213311653E+02 -0.22616544079E+02 -0.80822891521E+02  0.16748595453E+03  0.12509000000E+03 0.  0.
<mgrwt>
<rscale>  2 0.45777238E+03</rscale>
<asrwt>0</asrwt>
<pdfrwt beam="1">  1       21 0.19807052E-01 0.45777238E+03</pdfrwt>
<pdfrwt beam="2">  1       21 0.57200722E-01 0.45777238E+03</pdfrwt>
<totfact> 0.62258418E+04</totfact>
</mgrwt>
</event>
<event>
 7    0  0.4759581E-002  0.4487800E+03  0.7546771E-02  0.1028086E+00
         21   -1    0    0  502  501  0.00000000000E+00  0.00000000000E+00  0.36856931724E+04  0.36856931724E+04  0.00000000000E+00 0. -1.
         21   -1    0    0  501  502 -0.00000000000E+00 -0.00000000000E+00 -0.13661164699E+02  0.13661164699E+02  0.00000000000E+00 0. -1.
      99926    2    1    2    0    0  0.00000000000E+00 -0.14210854715E-13  0.36720320077E+04  0.36993543371E+04  0.44877995258E+03 0.  0.
      99925    2    3    3    0    0  0.74494813144E+02  0.74112926368E+02  0.25006888492E+04  0.25166732702E+04  0.26297799368E+03 0.  0.
         25    1    3    3    0    0 -0.74494813144E+02 -0.74112926368E+02  0.11713431584E+04  0.11826810669E+04  0.12509000000E+03 0.  0.
         25    1    4    4    0    0  0.23024852772E+02  0.70538111547E+02  0.14594463721E+04  0.14666754891E+04  0.12509000000E+03 0.  0.
         25    1    4    4    0    0  0.51469960373E+02  0.35748148210E+01  0.10412424771E+04  0.10499977811E+04  0.12509000000E+03 0.  0.
<mgrwt>
<rscale>  2 0.44877995E+03</rscale>
<asrwt>0</asrwt>
<pdfrwt beam="1">  1       21 0.54201301E+00 0.44877995E+03</pdfrwt>
<pdfrwt beam="2">  1       21 0.20089974E-02 0.44877995E+03</pdfrwt>
<totfact> 0.90259651E+02</totfact>
</mgrwt>
</event>
<event>
 7    0  0.4759581E-002  0.4417018E+03  0.7546771E-02  0.1030226E+00
         21   -1    0    0  502  501  0.00000000000E+00  0.00000000000E+00  0.36375577738E+02  0.36375577738E+02  0.00000000000E+00 0. -1.
         21   -1    0    0  501  502 -0.00000000000E+00 -0.00000000000E+00 -0.13408755233E+04  0.13408755233E+04  0.00000000000E+00 0. -1.
      99926    2    1    2    0    0 -0.14210854715E-13 -0.35527136788E-14 -0.13044999456E+04  0.13772511010E+04  0.44170180817E+03 0.  0.
      99925    2    3    3    0    0  0.97951579836E+02  0.14238285079E+02 -0.78249178532E+03  0.83141479938E+03  0.26298276326E+03 0.  0.
         25    1    3    3    0    0 -0.97951579836E+02 -0.14238285079E+02 -0.52200816024E+03  0.54583630167E+03  0.12509000000E+03 0.  0.
         25    1    4    4    0    0  0.40597965349E+02 -0.31708156719E+02 -0.34978057259E+03  0.37503007753E+03  0.12509000000E+03 0.  0.
         25    1    4    4    0    0  0.57353614486E+02  0.45946441798E+02 -0.43271121274E+03  0.45638472185E+03  0.12509000000E+03 0.  0.
<mgrwt>
<rscale>  2 0.44170181E+03</rscale>
<asrwt>0</asrwt>
<pdfrwt beam="1">  1       21 0.53493505E-02 0.44170181E+03</pdfrwt>
<pdfrwt beam="2">  1       21 0.19718755E+00 0.44170181E+03</pdfrwt>
<totfact> 0.29919536E+04</totfact>
</mgrwt>
</event>
<event>
 7    0  0.4759581E-002  0.4491091E+03  0.7546771E-02  0.1027988E+00
         21   -1    0    0  502  501  0.00000000000E+00  0.00000000000E+00  0.49897797836E+02  0.49897797836E+02  0.00000000000E+00 0.  1.
         21   -1    0    0  501  502 -0.00000000000E+00 -0.00000000000E+00 -0.10105604071E+04  0.10105604071E+04  0.00000000000E+00 0.  1.
      99926    2    1    2    0    0  0.00000000000E+00  0.00000000000E+00 -0.96066260928E+03  0.10604582050E+04  0.44910906869E+03 0.  0.
      99925    2    3    3    0    0 -0.51229134649E+02  0.43662962521E+02 -0.40960272694E+03  0.49138406166E+03  0.26296962488E+03 0.  0.
         25    1    4    4    0    0 -0.40309254495E+02  0.16330149967E+02 -0.13996366626E+03  0.19268846818E+03  0.12509000000E+03 0.  0.
         25    1    3    3    0    0  0.51229134649E+02 -0.43662962521E+02 -0.55105988234E+03  0.56907414329E+03  0.12509000000E+03 0.  0.
         25    1    4    4    0    0 -0.10919880154E+02  0.27332812555E+02 -0.26963906068E+03  0.29869559348E+03  0.12509000000E+03 0.  0.
<mgrwt>
<rscale>  2 0.44910907E+03</rscale>
<asrwt>0</asrwt>
<pdfrwt beam="1">  1       21 0.73379119E-02 0.44910907E+03</pdfrwt>
<pdfrwt beam="2">  1       21 0.14861182E+00 0.44910907E+03</pdfrwt>
<totfact> 0.38642206E+04</totfact>
</mgrwt>
</event>
<event>
 6    0  0.4759581E-002  0.4571662E+03  0.7546771E-02  0.1025606E+00
         21   -1    0    0  502  501  0.00000000000E+00  0.00000000000E+00  0.74375624133E+02  0.74375624133E+02  0.00000000000E+00 0.  1.
         21   -1    0    0  501  502 -0.00000000000E+00 -0.00000000000E+00 -0.70251839816E+03  0.70251839816E+03  0.00000000000E+00 0.  1.
      99926    2    1    2    0    0  0.00000000000E+00  0.00000000000E+00 -0.62814277403E+03  0.77689402229E+03  0.45716624691E+03 0.  0.
         25    1    3    3    0    0  0.72418829410E+02 -0.62474298635E+02 -0.27401710106E+03  0.31603861254E+03  0.12509000000E+03 0.  0.
         25    1    3    3    0    0  0.18187485464E+01  0.47214410803E+01 -0.22696216993E+03  0.25920056815E+03  0.12509000000E+03 0.  0.
         25    1    3    3    0    0 -0.74237577956E+02  0.57752857555E+02 -0.12716350304E+03  0.20165484161E+03  0.12509000000E+03 0.  0.
<mgrwt>
<rscale>  2 0.45716625E+03</rscale>
<asrwt>0</asrwt>
<pdfrwt beam="1">  1       21 0.10937592E-01 0.45716625E+03</pdfrwt>
<pdfrwt beam="2">  1       21 0.10331153E+00 0.45716625E+03</pdfrwt>
<totfact> 0.48079981E+04</totfact>
</mgrwt>
</event>
<event>
 7    0  0.4759581E-002  0.4595212E+03  0.7546771E-02  0.1024920E+00
         21   -1    0    0  502  501  0.00000000000E+00  0.00000000000E+00  0.92076480571E+03  0.92076480571E+03  0.00000000000E+00 0. -1.
         21   -1    0    0  501  502 -0.00000000000E+00 -0.00000000000E+00 -0.57332705821E+02  0.57332705821E+02  0.00000000000E+00 0. -1.
      99926    2    1    2    0    0  0.00000000000E+00  0.71054273576E-14  0.86343209989E+03  0.97809751153E+03  0.45952121925E+03 0.  0.
      99925    2    3    3    0    0 -0.48385473357E+02  0.34524901327E+02  0.32426182178E+03  0.42142416051E+03  0.26252518194E+03 0.  0.
         25    1    3    3    0    0  0.48385473357E+02 -0.34524901327E+02  0.53917027811E+03  0.55667335102E+03  0.12509000000E+03 0.  0.
         25    1    4    4    0    0 -0.26683272694E+02  0.31863484529E+02  0.10701130386E+03  0.16978281992E+03  0.12509000000E+03 0.  0.
         25    1    4    4    0    0 -0.21702200662E+02  0.26614167976E+01  0.21725051793E+03  0.25164134059E+03  0.12509000000E+03 0.  0.
<mgrwt>
<rscale>  2 0.45952122E+03</rscale>
<asrwt>0</asrwt>
<pdfrwt beam="1">  1       21 0.13540658E+00 0.45952122E+03</pdfrwt>
<pdfrwt beam="2">  1       21 0.84312808E-02 0.45952122E+03</pdfrwt>
<totfact> 0.38639591E+04</totfact>
</mgrwt>
</event>
<event>
 7    0  0.4759581E-002  0.4473154E+03  0.7546771E-02  0.1028526E+00
         21   -1    0    0  502  501  0.00000000000E+00  0.00000000000E+00  0.11862155267E+03  0.11862155267E+03  0.00000000000E+00 0.  1.
         21   -1    0    0  501  502 -0.00000000000E+00 -0.00000000000E+00 -0.42170046934E+03  0.42170046934E+03  0.00000000000E+00 0.  1.
      99926    2    1    2    0    0  0.00000000000E+00  0.00000000000E+00 -0.30307891667E+03  0.54032202201E+03  0.44731538956E+03 0.  0.
      99925    2    3    3    0    0  0.41497314221E+02 -0.95848436811E+02 -0.17140798185E+03  0.33081380474E+03  0.26296031495E+03 0.  0.
         25    1    3    3    0    0 -0.41497314221E+02  0.95848436811E+02 -0.13167093482E+03  0.20950821727E+03  0.12509000000E+03 0.  0.
         25    1    4    4    0    0  0.10336250636E+02 -0.45765738974E+02 -0.38579818659E+02  0.13905844616E+03  0.12509000000E+03 0.  0.
         25    1    4    4    0    0  0.31161063585E+02 -0.50082697837E+02 -0.13282816319E+03  0.19175535858E+03  0.12509000000E+03 0.  0.
<mgrwt>
<rscale>  2 0.44731539E+03</rscale>
<asrwt>0</asrwt>
<pdfrwt beam="1">  1       21 0.17444346E-01 0.44731539E+03</pdfrwt>
<pdfrwt beam="2">  1       21 0.62014775E-01 0.44731539E+03</pdfrwt>
<totfact> 0.66461098E+04</totfact>
</mgrwt>
</event>
<event>
 7    0  0.4759581E-002  0.4553303E+03  0.7546771E-02  0.1026144E+00
         21   -1    0    0  502  501  0.00000000000E+00  0.00000000000E+00  0.34392860983E+03  0.34392860983E+03  0.00000000000E+00 0.  1.
         21   -1    0    0  501  502 -0.00000000000E+00 -0.00000000000E+00 -0.15070398121E+03  0.15070398121E+03  0.00000000000E+00 0.  1.
      99926    2    1    2    0    0 -0.44408920985E-14  0.14210854715E-13  0.19322462862E+03  0.49463259104E+03  0.45533025708E+03 0.  0.
      99925    2    3    3    0    0  0.26924774210E+01  0.90281491478E+02  0.47014294689E+02  0.28206973684E+03  0.26304941627E+03 0.  0.
         25    1    4    4    0    0 -0.33920198627E+02  0.59743615030E+02  0.94274611147E+01  0.14302539822E+03  0.12509000000E+03 0.  0.
         25    1    3    3    0    0 -0.26924774210E+01 -0.90281491478E+02  0.14621033393E+03  0.21256285420E+03  0.12509000000E+03 0.  0.
         25    1    4    4    0    0  0.36612676048E+02  0.30537876448E+02  0.37586833575E+02  0.13904433862E+03  0.12509000000E+03 0.  0.
<mgrwt>
<rscale>  2 0.45533026E+03</rscale>
<asrwt>0</asrwt>
<pdfrwt beam="1">  1       21 0.50577737E-01 0.45533026E+03</pdfrwt>
<pdfrwt beam="2">  1       21 0.22162350E-01 0.45533026E+03</pdfrwt>
<totfact> 0.65477566E+04</totfact>
</mgrwt>
</event>
<event>
 7    0  0.4759581E-002  0.4539806E+03  0.7546771E-02  0.1026542E+00
         21   -1    0    0  502  501  0.00000000000E+00  0.00000000000E+00  0.41481886290E+03  0.41481886290E+03  0.00000000000E+00 0. -1.
         21   -1    0    0  501  502 -0.00000000000E+00 -0.00000000000E+00 -0.12420989377E+03  0.12420989377E+03  0.00000000000E+00 0. -1.
      99926    2    1    2    0    0  0.00000000000E+00 -0.88817841970E-15  0.29060896913E+03  0.53902875667E+03  0.45398064670E+03 0.  0.
      99925    2    3    3    0    0  0.89087238170E+02 -0.62476983614E+01  0.10236434267E+03  0.29600794022E+03  0.26299557464E+03 0.  0.
         25    1    4    4    0    0  0.16380641647E+02  0.17561965729E+01  0.79976126751E+02  0.14938239052E+03  0.12509000000E+03 0.  0.
         25    1    3    3    0    0 -0.89087238170E+02  0.62476983614E+01  0.18824462646E+03  0.24302081645E+03  0.12509000000E+03 0.  0.
         25    1    4    4    0    0  0.72706596524E+02 -0.80038949344E+01  0.22388215924E+02  0.14662554970E+03  0.12509000000E+03 0.  0.
<mgrwt>
<rscale>  2 0.45398065E+03</rscale>
<asrwt>0</asrwt>
<pdfrwt beam="1">  1       21 0.61002773E-01 0.45398065E+03</pdfrwt>
<pdfrwt beam="2">  1       21 0.18266161E-01 0.45398065E+03</pdfrwt>
<totfact> 0.63104921E+04</totfact>
</mgrwt>
</event>
<event>
 7    0  0.4759581E-002  0.4555137E+03  0.7546771E-02  0.1026090E+00
         21   -1    0    0  502  501  0.00000000000E+00  0.00000000000E+00  0.25779854745E+03  0.25779854745E+03  0.00000000000E+00 0. -1.
         21   -1    0    0  501  502 -0.00000000000E+00 -0.00000000000E+00 -0.20121599346E+03  0.20121599346E+03  0.00000000000E+00 0. -1.
      99926    2    1    2    0    0 -0.35527136788E-14  0.00000000000E+00  0.56582553990E+02  0.45901454092E+03  0.45551373564E+03 0.  0.
      99925    2    3    3    0    0  0.17116299589E+02  0.68206012804E+02  0.12561027513E+03  0.29977458902E+03  0.26294835065E+03 0.  0.
         25    1    4    4    0    0  0.42670454561E+02  0.12327569334E+02  0.64945849622E+02  0.14777756305E+03  0.12509000000E+03 0.  0.
         25    1    4    4    0    0 -0.25554154972E+02  0.55878443470E+02  0.60664425509E+02  0.15199702597E+03  0.12509000000E+03 0.  0.
         25    1    3    3    0    0 -0.17116299589E+02 -0.68206012804E+02 -0.69027721141E+02  0.15923995190E+03  0.12509000000E+03 0.  0.
<mgrwt>
<rscale>  2 0.45551374E+03</rscale>
<asrwt>0</asrwt>
<pdfrwt beam="1">  1       21 0.37911551E-01 0.45551374E+03</pdfrwt>
<pdfrwt beam="2">  1       21 0.29590587E-01 0.45551374E+03</pdfrwt>
<totfact> 0.67973496E+04</totfact>
</mgrwt>
</event>
<event>
 7    0  0.4759581E-002  0.4539468E+03  0.7546771E-02  0.1026552E+00
         21   -1    0    0  502  501  0.00000000000E+00  0.00000000000E+00  0.56149177639E+03  0.56149177639E+03  0.00000000000E+00 0.  1.
         21   -1    0    0  501  502 -0.00000000000E+00 -0.00000000000E+00 -0.91750092001E+02  0.91750092001E+02  0.00000000000E+00 0.  1.
      99926    2    1    2    0    0  0.00000000000E+00  0.00000000000E+00  0.46974168439E+03  0.65324186839E+03  0.45394679046E+03 0.  0.
      99925    2    3    3    0    0 -0.10628319743E+03  0.33107873037E+02  0.31762721303E+03  0.42701505784E+03  0.26279757201E+03 0.  0.
         25    1    4    4    0    0 -0.10210217209E+02  0.96380700862E+01  0.13561541160E+03  0.18503023778E+03  0.12509000000E+03 0.  0.
         25    1    4    4    0    0 -0.96072980225E+02  0.23469802951E+02  0.18201180143E+03  0.24198482006E+03  0.12509000000E+03 0.  0.
         25    1    3    3    0    0  0.10628319743E+03 -0.33107873037E+02  0.15211447136E+03  0.22622681055E+03  0.12509000000E+03 0.  0.
<mgrwt>
<rscale>  2 0.45394679E+03</rscale>
<asrwt>0</asrwt>
<pdfrwt beam="1">  1       21 0.82572319E-01 0.45394679E+03</pdfrwt>
<pdfrwt beam="2">  1       21 0.13492661E-01 0.45394679E+03</pdfrwt>
<totfact> 0.55978725E+04</totfact>
</mgrwt>
</event>
<event>
 7    0  0.4759581E-002  0.4506598E+03  0.7546771E-02  0.1027525E+00
         21   -1    0    0  502  501  0.00000000000E+00  0.00000000000E+00  0.55356401500E+03  0.55356401500E+03  0.00000000000E+00 0.  1.
         21   -1    0    0  501  502 -0.00000000000E+00 -0.00000000000E+00 -0.91721215956E+02  0.91721215956E+02  0.00000000000E+00 0.  1.
      99926    2    1    2    0    0  0.00000000000E+00  0.00000000000E+00  0.46184279904E+03  0.64528523095E+03  0.45065980325E+03 0.  0.
      99925    2    3    3    0    0 -0.38388504966E+02  0.39320543457E+02  0.15545328993E+03  0.30981269580E+03  0.26229448846E+03 0.  0.
         25    1    3    3    0    0  0.38388504966E+02 -0.39320543457E+02  0.30638950911E+03  0.33547253516E+03  0.12509000000E+03 0.  0.
         25    1    4    4    0    0  0.39960328933E+01  0.49803522243E+02  0.90317951779E+02  0.16217644595E+03  0.12509000000E+03 0.  0.
         25    1    4    4    0    0 -0.42384537860E+02 -0.10482978786E+02  0.65135338153E+02  0.14763624985E+03  0.12509000000E+03 0.  0.
<mgrwt>
<rscale>  2 0.45065980E+03</rscale>
<asrwt>0</asrwt>
<pdfrwt beam="1">  1       21 0.81406471E-01 0.45065980E+03</pdfrwt>
<pdfrwt beam="2">  1       21 0.13488414E-01 0.45065980E+03</pdfrwt>
<totfact> 0.57932404E+04</totfact>
</mgrwt>
</event>
<event>
 7    0  0.4759581E-002  0.4393477E+03  0.7546771E-02  0.1030947E+00
         21   -1    0    0  502  501  0.00000000000E+00  0.00000000000E+00  0.64538183378E+02  0.64538183378E+02  0.00000000000E+00 0.  1.
         21   -1    0    0  501  502 -0.00000000000E+00 -0.00000000000E+00 -0.74772168543E+03  0.74772168543E+03  0.00000000000E+00 0.  1.
      99926    2    1    2    0    0  0.14210854715E-13  0.00000000000E+00 -0.68318350205E+03  0.81225986880E+03  0.43934769488E+03 0.  0.
      99925    2    3    3    0    0  0.90157424437E+02 -0.36960205954E+02 -0.42808439819E+03  0.51189762269E+03  0.26322709992E+03 0.  0.
         25    1    4    4    0    0  0.16093905731E+02 -0.15489838378E+02 -0.14393330735E+03  0.19199805718E+03  0.12509000000E+03 0.  0.
         25    1    4    4    0    0  0.74063518707E+02 -0.21470367575E+02 -0.28415109084E+03  0.31989956551E+03  0.12509000000E+03 0.  0.
         25    1    3    3    0    0 -0.90157424437E+02  0.36960205954E+02 -0.25509910386E+03  0.30036224612E+03  0.12509000000E+03 0.  0.
<mgrwt>
<rscale>  2 0.43934769E+03</rscale>
<asrwt>0</asrwt>
<pdfrwt beam="1">  1       21 0.94909098E-02 0.43934769E+03</pdfrwt>
<pdfrwt beam="2">  1       21 0.10995907E+00 0.43934769E+03</pdfrwt>
<totfact> 0.53445873E+04</totfact>
</mgrwt>
</event>
<event>
 7    0  0.4759581E-002  0.4579630E+03  0.7546771E-02  0.1025374E+00
         21   -1    0    0  502  501  0.00000000000E+00  0.00000000000E+00  0.19441549719E+03  0.19441549719E+03  0.00000000000E+00 0.  1.
         21   -1    0    0  501  502 -0.00000000000E+00 -0.00000000000E+00 -0.26969313783E+03  0.26969313783E+03  0.00000000000E+00 0.  1.
      99926    2    1    2    0    0  0.00000000000E+00  0.14210854715E-13 -0.75277640635E+02  0.46410863502E+03  0.45796299187E+03 0.  0.
      99925    2    3    3    0    0  0.35825482489E+02 -0.10938120460E+03 -0.60460335408E+02  0.29347811680E+03  0.26310879835E+03 0.  0.
         25    1    4    4    0    0  0.14686334530E+02 -0.11509005957E+02 -0.35103195765E+02  0.13125504978E+03  0.12509000000E+03 0.  0.
         25    1    4    4    0    0  0.21139147959E+02 -0.97872198638E+02 -0.25357139643E+02  0.16222306702E+03  0.12509000000E+03 0.  0.
         25    1    3    3    0    0 -0.35825482489E+02  0.10938120460E+03 -0.14817305227E+02  0.17063051822E+03  0.12509000000E+03 0.  0.
<mgrwt>
<rscale>  2 0.45796299E+03</rscale>
<asrwt>0</asrwt>
<pdfrwt beam="1">  1       21 0.28590514E-01 0.45796299E+03</pdfrwt>
<pdfrwt beam="2">  1       21 0.39660755E-01 0.45796299E+03</pdfrwt>
<totfact> 0.66300841E+04</totfact>
</mgrwt>
</event>
<event>
 7    0  0.4759581E-002  0.4794536E+03  0.7546771E-02  0.1019285E+00
         21   -1    0    0  502  501  0.00000000000E+00  0.00000000000E+00  0.98113656335E+02  0.98113656335E+02  0.00000000000E+00 0.  1.
         21   -1    0    0  501  502 -0.00000000000E+00 -0.00000000000E+00 -0.58573830705E+03  0.58573830705E+03  0.00000000000E+00 0.  1.
      99926    2    1    2    0    0 -0.71054273576E-14  0.00000000000E+00 -0.48762465071E+03  0.68385196339E+03  0.47945355129E+03 0.  0.
      99925    2    3    3    0    0 -0.34794590466E+02 -0.12834660543E+03 -0.26901982336E+03  0.39903782523E+03  0.26301331896E+03 0.  0.
         25    1    3    3    0    0  0.34794590466E+02  0.12834660543E+03 -0.21860482736E+03  0.28481413816E+03  0.12509000000E+03 0.  0.
         25    1    4    4    0    0  0.86636448965E+00 -0.10272650823E+03 -0.13922786172E+03  0.21350735739E+03  0.12509000000E+03 0.  0.
         25    1    4    4    0    0 -0.35660954955E+02 -0.25620097200E+02 -0.12979196164E+03  0.18553046783E+03  0.12509000000E+03 0.  0.
<mgrwt>
<rscale>  2 0.47945355E+03</rscale>
<asrwt>0</asrwt>
<pdfrwt beam="1">  1       21 0.14428479E-01 0.47945355E+03</pdfrwt>
<pdfrwt beam="2">  1       21 0.86137985E-01 0.47945355E+03</pdfrwt>
<totfact> 0.44560326E+04</totfact>
</mgrwt>
</event>
<event>
 6    0  0.4759581E-002  0.4575350E+03  0.7546771E-02  0.1025499E+00
         21   -1    0    0  502  501  0.00000000000E+00  0.00000000000E+00  0.34947636134E+03  0.34947636134E+03  0.00000000000E+00 0.  1.
         21   -1    0    0  501  502 -0.00000000000E+00 -0.00000000000E+00 -0.14975139974E+03  0.14975139974E+03  0.00000000000E+00 0.  1.
      99926    2    1    2    0    0  0.00000000000E+00  0.00000000000E+00  0.19972496160E+03  0.49922776108E+03  0.45753502286E+03 0.  0.
         25    1    3    3    0    0 -0.15065025587E+02 -0.29952992896E+02  0.36127754741E+02  0.13445021213E+03  0.12509000000E+03 0.  0.
         25    1    3    3    0    0  0.23357433272E+02  0.72764583945E+02 -0.93964192509E+01  0.14688789998E+03  0.12509000000E+03 0.  0.
         25    1    3    3    0    0 -0.82924076857E+01 -0.42811591049E+02  0.17299362611E+03  0.21788964897E+03  0.12509000000E+03 0.  0.
<mgrwt>
<rscale>  2 0.45753502E+03</rscale>
<asrwt>0</asrwt>
<pdfrwt beam="1">  1       21 0.51393583E-01 0.45753502E+03</pdfrwt>
<pdfrwt beam="2">  1       21 0.22022265E-01 0.45753502E+03</pdfrwt>
<totfact> 0.64026753E+04</totfact>
</mgrwt>
</event>
<event>
 7    0  0.4759581E-002  0.4229710E+03  0.7546771E-02  0.1036104E+00
         21   -1    0    0  502  501  0.00000000000E+00  0.00000000000E+00  0.92816030047E+02  0.92816030047E+02  0.00000000000E+00 0.  1.
         21   -1    0    0  501  502 -0.00000000000E+00 -0.00000000000E+00 -0.48187913665E+03  0.48187913665E+03  0.00000000000E+00 0.  1.
      99926    2    1    2    0    0  0.00000000000E+00  0.00000000000E+00 -0.38906310661E+03  0.57469516670E+03  0.42297096083E+03 0.  0.
      99925    2    3    3    0    0  0.31234626787E+02 -0.69205880179E+02 -0.22119068554E+03  0.35199870598E+03  0.26308309311E+03 0.  0.
         25    1    3    3    0    0 -0.31234626787E+02  0.69205880179E+02 -0.16787242107E+03  0.22269646072E+03  0.12509000000E+03 0.  0.
         25    1    4    4    0    0  0.78278027352E+01 -0.34506803990E+02 -0.58504874759E+02  0.14255638354E+03  0.12509000000E+03 0.  0.
         25    1    4    4    0    0  0.23406824052E+02 -0.34699076188E+02 -0.16268581078E+03  0.20944232244E+03  0.12509000000E+03 0.  0.
<mgrwt>
<rscale>  2 0.42297096E+03</rscale>
<asrwt>0</asrwt>
<pdfrwt beam="1">  1       21 0.13649416E-01 0.42297096E+03</pdfrwt>
<pdfrwt beam="2">  1       21 0.70864579E-01 0.42297096E+03</pdfrwt>
<totfact> 0.78281946E+04</totfact>
</mgrwt>
</event>
<event>
 7    0  0.4759581E-002  0.4558039E+03  0.7546771E-02  0.1026005E+00
         21   -1    0    0  502  501  0.00000000000E+00  0.00000000000E+00  0.28980695141E+02  0.28980695141E+02  0.00000000000E+00 0.  1.
         21   -1    0    0  501  502 -0.00000000000E+00 -0.00000000000E+00 -0.17922035403E+04  0.17922035403E+04  0.00000000000E+00 0.  1.
      99926    2    1    2    0    0  0.00000000000E+00  0.71054273576E-14 -0.17632228451E+04  0.18211842354E+04  0.45580392465E+03 0.  0.
      99925    2    3    3    0    0  0.75769870559E+02  0.52600939962E+02 -0.84165549819E+03  0.88660314465E+03  0.26300803466E+03 0.  0.
         25    1    4    4    0    0  0.45629546346E+02 -0.71550061053E+01 -0.47812102423E+03  0.49636727483E+03  0.12509000000E+03 0.  0.
         25    1    4    4    0    0  0.30140324213E+02  0.59755946067E+02 -0.36353447396E+03  0.39023586982E+03  0.12509000000E+03 0.  0.
         25    1    3    3    0    0 -0.75769870559E+02 -0.52600939962E+02 -0.92156734695E+03  0.93458109077E+03  0.12509000000E+03 0.  0.
<mgrwt>
<rscale>  2 0.45580392E+03</rscale>
<asrwt>0</asrwt>
<pdfrwt beam="1">  1       21 0.42618652E-02 0.45580392E+03</pdfrwt>
<pdfrwt beam="2">  1       21 0.26355945E+00 0.45580392E+03</pdfrwt>
<totfact> 0.16751161E+04</totfact>
</mgrwt>
</event>
<event>
 7    0  0.4759581E-002  0.4530445E+03  0.7546771E-02  0.1026818E+00
         21   -1    0    0  502  501  0.00000000000E+00  0.00000000000E+00  0.11067110858E+03  0.11067110858E+03  0.00000000000E+00 0.  1.
         21   -1    0    0  501  502 -0.00000000000E+00 -0.00000000000E+00 -0.46364695130E+03  0.46364695130E+03  0.00000000000E+00 0.  1.
      99926    2    1    2    0    0  0.00000000000E+00  0.26645352591E-14 -0.35297584272E+03  0.57431805988E+03  0.45304446621E+03 0.  0.
      99925    2    3    3    0    0  0.44632353078E+02 -0.31340094992E+01 -0.35175784598E+03  0.44146151855E+03  0.26296924002E+03 0.  0.
         25    1    3    3    0    0 -0.44632353078E+02  0.31340094992E+01 -0.12179967327E+01  0.13285654132E+03  0.12509000000E+03 0.  0.
         25    1    4    4    0    0  0.14992031147E+01 -0.36431346419E+02 -0.16995740758E+03  0.21415536207E+03  0.12509000000E+03 0.  0.
         25    1    4    4    0    0  0.43133149963E+02  0.33297336920E+02 -0.18180043840E+03  0.22730615648E+03  0.12509000000E+03 0.  0.
<mgrwt>
<rscale>  2 0.45304447E+03</rscale>
<asrwt>0</asrwt>
<pdfrwt beam="1">  1       21 0.16275163E-01 0.45304447E+03</pdfrwt>
<pdfrwt beam="2">  1       21 0.68183375E-01 0.45304447E+03</pdfrwt>
<totfact> 0.61228829E+04</totfact>
</mgrwt>
</event>
<event>
 7    0  0.4759581E-002  0.4668594E+03  0.7546771E-02  0.1022810E+00
         21   -1    0    0  502  501  0.00000000000E+00  0.00000000000E+00  0.75161429875E+03  0.75161429875E+03  0.00000000000E+00 0. -1.
         21   -1    0    0  501  502 -0.00000000000E+00 -0.00000000000E+00 -0.72496510671E+02  0.72496510671E+02  0.00000000000E+00 0. -1.
      99926    2    1    2    0    0  0.14210854715E-13  0.00000000000E+00  0.67911778808E+03  0.82411080942E+03  0.46685935368E+03 0.  0.
      99925    2    3    3    0    0 -0.10392323965E+03  0.36009501505E+02  0.32083596399E+03  0.42900310574E+03  0.26269987629E+03 0.  0.
         25    1    3    3    0    0  0.10392323965E+03 -0.36009501505E+02  0.35828182409E+03  0.39510770368E+03  0.12509000000E+03 0.  0.
         25    1    4    4    0    0 -0.74728308995E+02 -0.14029282476E+02  0.15183190524E+03  0.21090655865E+03  0.12509000000E+03 0.  0.
         25    1    4    4    0    0 -0.29194930653E+02  0.50038783981E+02  0.16900405875E+03  0.21809654709E+03  0.12509000000E+03 0.  0.
<mgrwt>
<rscale>  2 0.46685935E+03</rscale>
<asrwt>0</asrwt>
<pdfrwt beam="1">  1       21 0.11053151E+00 0.46685935E+03</pdfrwt>
<pdfrwt beam="2">  1       21 0.10661252E-01 0.46685935E+03</pdfrwt>
<totfact> 0.42523367E+04</totfact>
</mgrwt>
</event>
<event>
 7    0  0.4759581E-002  0.4409293E+03  0.7546771E-02  0.1030462E+00
         21   -1    0    0  502  501  0.00000000000E+00  0.00000000000E+00  0.12693128723E+03  0.12693128723E+03  0.00000000000E+00 0. -1.
         21   -1    0    0  501  502 -0.00000000000E+00 -0.00000000000E+00 -0.38292113125E+03  0.38292113125E+03  0.00000000000E+00 0. -1.
      99926    2    1    2    0    0  0.00000000000E+00  0.00000000000E+00 -0.25598984401E+03  0.50985241848E+03  0.44092934626E+03 0.  0.
      99925    2    3    3    0    0  0.27849348526E+02 -0.94933975854E+02 -0.15374043082E+03  0.32040454548E+03  0.26312526810E+03 0.  0.
         25    1    4    4    0    0  0.19487542844E+02 -0.35948628401E+02 -0.11931635435E+03  0.17763999754E+03  0.12509000000E+03 0.  0.
         25    1    4    4    0    0  0.83618056815E+01 -0.58985347453E+02 -0.34424076465E+02  0.14276454794E+03  0.12509000000E+03 0.  0.
         25    1    3    3    0    0 -0.27849348526E+02  0.94933975854E+02 -0.10224941320E+03  0.18944787300E+03  0.12509000000E+03 0.  0.
<mgrwt>
<rscale>  2 0.44092935E+03</rscale>
<asrwt>0</asrwt>
<pdfrwt beam="1">  1       21 0.18666366E-01 0.44092935E+03</pdfrwt>
<pdfrwt beam="2">  1       21 0.56311931E-01 0.44092935E+03</pdfrwt>
<totfact> 0.72327034E+04</totfact>
</mgrwt>
</event>
<event>
 7    0  0.4759581E-002  0.4637016E+03  0.7546771E-02  0.1023713E+00
         21   -1    0    0  502  501  0.00000000000E+00  0.00000000000E+00  0.39871429575E+03  0.39871429575E+03  0.00000000000E+00 0.  1.
         21   -1    0    0  501  502 -0.00000000000E+00 -0.00000000000E+00 -0.13482034533E+03  0.13482034533E+03  0.00000000000E+00 0.  1.
      99926    2    1    2    0    0  0.00000000000E+00  0.14210854715E-13  0.26389395042E+03  0.53353464109E+03  0.46370162408E+03 0.  0.
      99925    2    3    3    0    0 -0.60371210351E+02 -0.10565442956E+03  0.16664854892E+03  0.33375546865E+03  0.26232314513E+03 0.  0.
         25    1    3    3    0    0  0.60371210351E+02  0.10565442956E+03  0.97245401505E+02  0.19977917244E+03  0.12509000000E+03 0.  0.
         25    1    4    4    0    0  0.86161134145E+01 -0.49339821025E+02  0.90877310706E+02  0.16252645646E+03  0.12509000000E+03 0.  0.
         25    1    4    4    0    0 -0.68987323766E+02 -0.56314608538E+02  0.75771238210E+02  0.17122901219E+03  0.12509000000E+03 0.  0.
<mgrwt>
<rscale>  2 0.46370162E+03</rscale>
<asrwt>0</asrwt>
<pdfrwt beam="1">  1       21 0.58634455E-01 0.46370162E+03</pdfrwt>
<pdfrwt beam="2">  1       21 0.19826521E-01 0.46370162E+03</pdfrwt>
<totfact> 0.58806002E+04</totfact>
</mgrwt>
</event>
<event>
 7    0  0.4759581E-002  0.4499579E+03  0.7546771E-02  0.1027735E+00
         21   -1    0    0  502  501  0.00000000000E+00  0.00000000000E+00  0.26221911170E+03  0.26221911170E+03  0.00000000000E+00 0. -1.
         21   -1    0    0  501  502 -0.00000000000E+00 -0.00000000000E+00 -0.19302759883E+03  0.19302759883E+03  0.00000000000E+00 0. -1.
      99926    2    1    2    0    0  0.00000000000E+00  0.00000000000E+00  0.69191512870E+02  0.45524671053E+03  0.44995788914E+03 0.  0.
      99925    2    3    3    0    0 -0.32704893776E+02 -0.94841053457E+02  0.85108994184E+02  0.29410916118E+03  0.26304414516E+03 0.  0.
         25    1    3    3    0    0  0.32704893776E+02  0.94841053457E+02 -0.15917481314E+02  0.16113754935E+03  0.12509000000E+03 0.  0.
         25    1    4    4    0    0  0.67155422802E+01 -0.17152028775E+02  0.58703656565E+02  0.13940200140E+03  0.12509000000E+03 0.  0.
         25    1    4    4    0    0 -0.39420436056E+02 -0.77689024682E+02  0.26405337619E+02  0.15470715979E+03  0.12509000000E+03 0.  0.
<mgrwt>
<rscale>  2 0.44995789E+03</rscale>
<asrwt>0</asrwt>
<pdfrwt beam="1">  1       21 0.38561634E-01 0.44995789E+03</pdfrwt>
<pdfrwt beam="2">  1       21 0.28386412E-01 0.44995789E+03</pdfrwt>
<totfact> 0.71354571E+04</totfact>
</mgrwt>
</event>
<event>
 6    0  0.4759581E-002  0.4570846E+03  0.7546771E-02  0.1025630E+00
         21   -1    0    0  502  501  0.00000000000E+00  0.00000000000E+00  0.43113037835E+03  0.43113037835E+03  0.00000000000E+00 0.  1.
         21   -1    0    0  501  502 -0.00000000000E+00 -0.00000000000E+00 -0.12115032251E+03  0.12115032251E+03  0.00000000000E+00 0.  1.
      99926    2    1    2    0    0  0.14210854715E-13  0.17763568394E-14  0.30998005584E+03  0.55228070085E+03  0.45708460652E+03 0.  0.
         25    1    3    3    0    0  0.33378662687E+02 -0.13027789067E+02  0.15269741503E+03  0.20061871066E+03  0.12509000000E+03 0.  0.
         25    1    3    3    0    0 -0.10607821707E+03 -0.64759431543E+01  0.53862683589E+02  0.17275191102E+03  0.12509000000E+03 0.  0.
         25    1    3    3    0    0  0.72699554384E+02  0.19503732222E+02  0.10341995722E+03  0.17891007917E+03  0.12509000000E+03 0.  0.
<mgrwt>
<rscale>  2 0.45708461E+03</rscale>
<asrwt>0</asrwt>
<pdfrwt beam="1">  1       21 0.63401525E-01 0.45708461E+03</pdfrwt>
<pdfrwt beam="2">  1       21 0.17816224E-01 0.45708461E+03</pdfrwt>
<totfact> 0.60708614E+04</totfact>
</mgrwt>
</event>
<event>
 7    0  0.4759581E-002  0.4602989E+03  0.7546771E-02  0.1024695E+00
         21   -1    0    0  502  501  0.00000000000E+00  0.00000000000E+00  0.35356965021E+03  0.35356965021E+03  0.00000000000E+00 0.  1.
         21   -1    0    0  501  502 -0.00000000000E+00 -0.00000000000E+00 -0.14981142760E+03  0.14981142760E+03  0.00000000000E+00 0.  1.
      99926    2    1    2    0    0  0.00000000000E+00  0.35527136788E-14  0.20375822261E+03  0.50338107781E+03  0.46029892051E+03 0.  0.
      99925    2    3    3    0    0  0.11530449090E+03 -0.16121398867E+02  0.99020224122E+02  0.30295008832E+03  0.26156973468E+03 0.  0.
         25    1    3    3    0    0 -0.11530449090E+03  0.16121398867E+02  0.10473799849E+03  0.20043098950E+03  0.12509000000E+03 0.  0.
         25    1    4    4    0    0  0.43356297099E+02 -0.33881266898E+02  0.74039770680E+02  0.15542555931E+03  0.12509000000E+03 0.  0.
         25    1    4    4    0    0  0.71948193802E+02  0.17759868031E+02  0.24980453442E+02  0.14752452900E+03  0.12509000000E+03 0.  0.
<mgrwt>
<rscale>  2 0.46029892E+03</rscale>
<asrwt>0</asrwt>
<pdfrwt beam="1">  1       21 0.51995537E-01 0.46029892E+03</pdfrwt>
<pdfrwt beam="2">  1       21 0.22031092E-01 0.46029892E+03</pdfrwt>
<totfact> 0.62368797E+04</totfact>
</mgrwt>
</event>
<event>
 7    0  0.4759581E-002  0.4310873E+03  0.7546771E-02  0.1033517E+00
         21   -1    0    0  502  501  0.00000000000E+00  0.00000000000E+00  0.48111773107E+03  0.48111773107E+03  0.00000000000E+00 0.  1.
         21   -1    0    0  501  502 -0.00000000000E+00 -0.00000000000E+00 -0.96564862578E+02  0.96564862578E+02  0.00000000000E+00 0.  1.
      99926    2    1    2    0    0 -0.71054273576E-14  0.00000000000E+00  0.38455286850E+03  0.57768259365E+03  0.43108731174E+03 0.  0.
      99925    2    3    3    0    0  0.57109274071E+02  0.63431056685E+02  0.21492380101E+03  0.35029196770E+03  0.26311072622E+03 0.  0.
         25    1    4    4    0    0  0.49056385752E+02  0.46990159112E+02  0.15480982622E+03  0.21030500334E+03  0.12509000000E+03 0.  0.
         25    1    4    4    0    0  0.80528883191E+01  0.16440897573E+02  0.60113974788E+02  0.13998696435E+03  0.12509000000E+03 0.  0.
         25    1    3    3    0    0 -0.57109274071E+02 -0.63431056685E+02  0.16962906749E+03  0.22739062596E+03  0.12509000000E+03 0.  0.
<mgrwt>
<rscale>  2 0.43108731E+03</rscale>
<asrwt>0</asrwt>
<pdfrwt beam="1">  1       21 0.70752607E-01 0.43108731E+03</pdfrwt>
<pdfrwt beam="2">  1       21 0.14200715E-01 0.43108731E+03</pdfrwt>
<totfact> 0.72909683E+04</totfact>
</mgrwt>
</event>
<event>
 6    0  0.4759581E-002  0.4561487E+03  0.7546771E-02  0.1025904E+00
         21   -1    0    0  502  501  0.00000000000E+00  0.00000000000E+00  0.16116039860E+03  0.16116039860E+03  0.00000000000E+00 0.  1.
         21   -1    0    0  501  502 -0.00000000000E+00 -0.00000000000E+00 -0.32277110684E+03  0.32277110684E+03  0.00000000000E+00 0.  1.
      99926    2    1    2    0    0  0.00000000000E+00  0.00000000000E+00 -0.16161070824E+03  0.48393150544E+03  0.45614874870E+03 0.  0.
         25    1    3    3    0    0  0.32784265569E+02  0.62716717263E+02 -0.10951123262E+03  0.18068871814E+03  0.12509000000E+03 0.  0.
         25    1    3    3    0    0 -0.25817143250E+02 -0.10171956589E+03 -0.35061736025E+01  0.16331930787E+03  0.12509000000E+03 0.  0.
         25    1    3    3    0    0 -0.69671223189E+01  0.39002848628E+02 -0.48593302024E+02  0.13992347943E+03  0.12509000000E+03 0.  0.
<mgrwt>
<rscale>  2 0.45614875E+03</rscale>
<asrwt>0</asrwt>
<pdfrwt beam="1">  1       21 0.23700059E-01 0.45614875E+03</pdfrwt>
<pdfrwt beam="2">  1       21 0.47466339E-01 0.45614875E+03</pdfrwt>
<totfact> 0.65812822E+04</totfact>
</mgrwt>
</event>
<event>
 7    0  0.4759581E-002  0.4558206E+03  0.7546771E-02  0.1026000E+00
         21   -1    0    0  502  501  0.00000000000E+00  0.00000000000E+00  0.16051570681E+03  0.16051570681E+03  0.00000000000E+00 0.  1.
         21   -1    0    0  501  502 -0.00000000000E+00 -0.00000000000E+00 -0.32360145336E+03  0.32360145336E+03  0.00000000000E+00 0.  1.
      99926    2    1    2    0    0  0.35527136788E-14  0.00000000000E+00 -0.16308574656E+03  0.48411716017E+03  0.45582064898E+03 0.  0.
      99925    2    3    3    0    0  0.29887740535E+02  0.80584444530E+02 -0.18199534980E+03  0.33117203625E+03  0.26299330888E+03 0.  0.
         25    1    4    4    0    0  0.21131806931E+02  0.15179048498E+01 -0.66457966497E+02  0.14322369465E+03  0.12509000000E+03 0.  0.
         25    1    3    3    0    0 -0.29887740535E+02 -0.80584444530E+02  0.18909603241E+02  0.15294512391E+03  0.12509000000E+03 0.  0.
         25    1    4    4    0    0  0.87559336032E+01  0.79066539680E+02 -0.11553738330E+03  0.18794834160E+03  0.12509000000E+03 0.  0.
<mgrwt>
<rscale>  2 0.45582065E+03</rscale>
<asrwt>0</asrwt>
<pdfrwt beam="1">  1       21 0.23605251E-01 0.45582065E+03</pdfrwt>
<pdfrwt beam="2">  1       21 0.47588448E-01 0.45582065E+03</pdfrwt>
<totfact> 0.65970792E+04</totfact>
</mgrwt>
</event>
<event>
 7    0  0.4759581E-002  0.4603857E+03  0.7546771E-02  0.1024669E+00
         21   -1    0    0  502  501  0.00000000000E+00  0.00000000000E+00  0.14278919425E+04  0.14278919425E+04  0.00000000000E+00 0.  1.
         21   -1    0    0  501  502 -0.00000000000E+00 -0.00000000000E+00 -0.37109770547E+02  0.37109770547E+02  0.00000000000E+00 0.  1.
      99926    2    1    2    0    0  0.88817841970E-15  0.00000000000E+00  0.13907821719E+04  0.14650017130E+04  0.46038567463E+03 0.  0.
      99925    2    3    3    0    0 -0.60618322515E+01  0.53249140407E+02  0.53265087442E+03  0.59614669139E+03  0.26230079463E+03 0.  0.
         25    1    3    3    0    0  0.60618322515E+01 -0.53249140407E+02  0.85813129750E+03  0.86885502163E+03  0.12509000000E+03 0.  0.
         25    1    4    4    0    0 -0.15190167176E+02  0.62510248716E+02  0.31029814422E+03  0.34069153024E+03  0.12509000000E+03 0.  0.
         25    1    4    4    0    0  0.91283349249E+01 -0.92611083087E+01  0.22235273021E+03  0.25545516115E+03  0.12509000000E+03 0.  0.
<mgrwt>
<rscale>  2 0.46038567E+03</rscale>
<asrwt>0</asrwt>
<pdfrwt beam="1">  1       21 0.20998407E+00 0.46038567E+03</pdfrwt>
<pdfrwt beam="2">  1       21 0.54573201E-02 0.46038567E+03</pdfrwt>
<totfact> 0.23645026E+04</totfact>
</mgrwt>
</event>
<event>
 7    0  0.4759581E-002  0.4524424E+03  0.7546771E-02  0.1026996E+00
         21   -1    0    0  502  501  0.00000000000E+00  0.00000000000E+00  0.28238281998E+03  0.28238281998E+03  0.00000000000E+00 0.  1.
         21   -1    0    0  501  502 -0.00000000000E+00 -0.00000000000E+00 -0.18122929132E+03  0.18122929132E+03  0.00000000000E+00 0.  1.
      99926    2    1    2    0    0  0.00000000000E+00  0.00000000000E+00  0.10115352866E+03  0.46361211130E+03  0.45244243101E+03 0.  0.
      99925    2    3    3    0    0  0.73988412534E+02 -0.71760671255E+02  0.10573385065E+03  0.30146290045E+03  0.26282380799E+03 0.  0.
         25    1    3    3    0    0 -0.73988412534E+02  0.71760671255E+02 -0.45803219889E+01  0.16214921085E+03  0.12509000000E+03 0.  0.
         25    1    4    4    0    0  0.17909218949E+02  0.21025803139E+01  0.53173366156E+02  0.13711336892E+03  0.12509000000E+03 0.  0.
         25    1    4    4    0    0  0.56079193585E+02 -0.73863251569E+02  0.52560484490E+02  0.16434953153E+03  0.12509000000E+03 0.  0.
<mgrwt>
<rscale>  2 0.45244243E+03</rscale>
<asrwt>0</asrwt>
<pdfrwt beam="1">  1       21 0.41526885E-01 0.45244243E+03</pdfrwt>
<pdfrwt beam="2">  1       21 0.26651366E-01 0.45244243E+03</pdfrwt>
<totfact> 0.69309626E+04</totfact>
</mgrwt>
</event>
<event>
 7    0  0.4759581E-002  0.4431078E+03  0.7546771E-02  0.1029798E+00
         21   -1    0    0  502  501  0.00000000000E+00  0.00000000000E+00  0.42511239158E+03  0.42511239158E+03  0.00000000000E+00 0.  1.
         21   -1    0    0  501  502 -0.00000000000E+00 -0.00000000000E+00 -0.11546623460E+03  0.11546623460E+03  0.00000000000E+00 0.  1.
      99926    2    1    2    0    0  0.00000000000E+00  0.71054273576E-14  0.30964615698E+03  0.54057862618E+03  0.44310778435E+03 0.  0.
      99925    2    3    3    0    0 -0.59623488409E+02  0.50730438159E+02  0.27610792201E+03  0.38924832839E+03  0.26296413981E+03 0.  0.
         25    1    3    3    0    0  0.59623488409E+02 -0.50730438159E+02  0.33538234964E+02  0.15133029779E+03  0.12509000000E+03 0.  0.
         25    1    4    4    0    0 -0.20815127802E+02  0.33650860145E+02  0.19240209229E+03  0.23287705587E+03  0.12509000000E+03 0.  0.
         25    1    4    4    0    0 -0.38808360607E+02  0.17079578014E+02  0.83705829726E+02  0.15637127252E+03  0.12509000000E+03 0.  0.
<mgrwt>
<rscale>  2 0.44310778E+03</rscale>
<asrwt>0</asrwt>
<pdfrwt beam="1">  1       21 0.62516528E-01 0.44310778E+03</pdfrwt>
<pdfrwt beam="2">  1       21 0.16980329E-01 0.44310778E+03</pdfrwt>
<totfact> 0.68737554E+04</totfact>
</mgrwt>
</event>
<event>
 7    0  0.4759581E-002  0.4486712E+03  0.7546771E-02  0.1028119E+00
         21   -1    0    0  502  501  0.00000000000E+00  0.00000000000E+00  0.71326152524E+03  0.71326152524E+03  0.00000000000E+00 0. -1.
         21   -1    0    0  501  502 -0.00000000000E+00 -0.00000000000E+00 -0.70558204512E+02  0.70558204512E+02  0.00000000000E+00 0. -1.
      99926    2    1    2    0    0 -0.71054273576E-14  0.14210854715E-13  0.64270332073E+03  0.78381972975E+03  0.44867116051E+03 0.  0.
      99925    2    3    3    0    0 -0.52453216908E+02  0.82123746747E+02  0.32998335039E+03  0.43319608866E+03  0.26319990492E+03 0.  0.
         25    1    4    4    0    0 -0.88005912473E-01  0.63921608667E+01  0.15260433819E+03  0.19742456686E+03  0.12509000000E+03 0.  0.
         25    1    4    4    0    0 -0.52365210996E+02  0.75731585880E+02  0.17737901220E+03  0.23577152180E+03  0.12509000000E+03 0.  0.
         25    1    3    3    0    0  0.52453216908E+02 -0.82123746747E+02  0.31271997034E+03  0.35062364109E+03  0.12509000000E+03 0.  0.
<mgrwt>
<rscale>  2 0.44867116E+03</rscale>
<asrwt>0</asrwt>
<pdfrwt beam="1">  1       21 0.10489140E+00 0.44867116E+03</pdfrwt>
<pdfrwt beam="2">  1       21 0.10376207E-01 0.44867116E+03</pdfrwt>
<totfact> 0.51046300E+04</totfact>
</mgrwt>
</event>
<event>
 7    0  0.4759581E-002  0.4538766E+03  0.7546771E-02  0.1026572E+00
         21   -1    0    0  502  501  0.00000000000E+00  0.00000000000E+00  0.11675240051E+03  0.11675240051E+03  0.00000000000E+00 0.  1.
         21   -1    0    0  501  502 -0.00000000000E+00 -0.00000000000E+00 -0.44111290739E+03  0.44111290739E+03  0.00000000000E+00 0.  1.
      99926    2    1    2    0    0  0.00000000000E+00  0.71054273576E-14 -0.32436050688E+03  0.55786530790E+03  0.45387659483E+03 0.  0.
      99925    2    3    3    0    0 -0.54139878829E+02 -0.60894121564E+02 -0.29880116085E+03  0.40640571332E+03  0.26314302114E+03 0.  0.
         25    1    3    3    0    0  0.54139878829E+02  0.60894121564E+02 -0.25559346031E+02  0.15145959458E+03  0.12509000000E+03 0.  0.
         25    1    4    4    0    0 -0.29622339678E+02 -0.69717040435E+02 -0.13853702344E+03  0.20143972721E+03  0.12509000000E+03 0.  0.
         25    1    4    4    0    0 -0.24517539151E+02  0.88229188716E+01 -0.16026413740E+03  0.20496598611E+03  0.12509000000E+03 0.  0.
<mgrwt>
<rscale>  2 0.45387659E+03</rscale>
<asrwt>0</asrwt>
<pdfrwt beam="1">  1       21 0.17169471E-01 0.45387659E+03</pdfrwt>
<pdfrwt beam="2">  1       21 0.64869545E-01 0.45387659E+03</pdfrwt>
<totfact> 0.61897962E+04</totfact>
</mgrwt>
</event>
<event>
 7    0  0.4759581E-002  0.4832058E+03  0.7546771E-02  0.1018258E+00
         21   -1    0    0  502  501  0.00000000000E+00  0.00000000000E+00  0.21952077208E+03  0.21952077208E+03  0.00000000000E+00 0.  1.
         21   -1    0    0  501  502 -0.00000000000E+00 -0.00000000000E+00 -0.26590634238E+03  0.26590634238E+03  0.00000000000E+00 0.  1.
      99926    2    1    2    0    0  0.00000000000E+00  0.00000000000E+00 -0.46385570300E+02  0.48542711445E+03  0.48320581775E+03 0.  0.
      99925    2    3    3    0    0  0.74965034933E+02 -0.83292017789E+02  0.52227279968E+02  0.29067260480E+03  0.26306949219E+03 0.  0.
         25    1    4    4    0    0  0.21457683611E+02 -0.75055380536E+02  0.91828171121E+01  0.14773481162E+03  0.12509000000E+03 0.  0.
         25    1    3    3    0    0 -0.74965034933E+02  0.83292017789E+02 -0.98612850268E+02  0.19475450965E+03  0.12509000000E+03 0.  0.
         25    1    4    4    0    0  0.53507351322E+02 -0.82366372530E+01  0.43044462856E+02  0.14293779319E+03  0.12509000000E+03 0.  0.
<mgrwt>
<rscale>  2 0.48320582E+03</rscale>
<asrwt>0</asrwt>
<pdfrwt beam="1">  1       21 0.32282466E-01 0.48320582E+03</pdfrwt>
<pdfrwt beam="2">  1       21 0.39103874E-01 0.48320582E+03</pdfrwt>
<totfact> 0.53322978E+04</totfact>
</mgrwt>
</event>
<event>
 7    0  0.4759581E-002  0.4569566E+03  0.7546771E-02  0.1025668E+00
         21   -1    0    0  502  501  0.00000000000E+00  0.00000000000E+00  0.18013338640E+03  0.18013338640E+03  0.00000000000E+00 0.  1.
         21   -1    0    0  501  502 -0.00000000000E+00 -0.00000000000E+00 -0.28979824514E+03  0.28979824514E+03  0.00000000000E+00 0.  1.
      99926    2    1    2    0    0  0.00000000000E+00  0.00000000000E+00 -0.10966485875E+03  0.46993163154E+03  0.45695662494E+03 0.  0.
      99925    2    3    3    0    0 -0.63935148371E+02  0.81838599420E+02 -0.18196113924E+02  0.28338592955E+03  0.26304225317E+03 0.  0.
         25    1    3    3    0    0  0.63935148371E+02 -0.81838599420E+02 -0.91468744822E+02  0.18654570199E+03  0.12509000000E+03 0.  0.
         25    1    4    4    0    0 -0.68629614313E+02  0.63904555376E+02 -0.90190596736E+01  0.15659715098E+03  0.12509000000E+03 0.  0.
         25    1    4    4    0    0  0.46944659426E+01  0.17934044044E+02 -0.91770542502E+01  0.12678877857E+03  0.12509000000E+03 0.  0.
<mgrwt>
<rscale>  2 0.45695662E+03</rscale>
<asrwt>0</asrwt>
<pdfrwt beam="1">  1       21 0.26490204E-01 0.45695662E+03</pdfrwt>
<pdfrwt beam="2">  1       21 0.42617388E-01 0.45695662E+03</pdfrwt>
<totfact> 0.66404232E+04</totfact>
</mgrwt>
</event>
<event>
 7    0  0.4759581E-002  0.4531312E+03  0.7546771E-02  0.1026792E+00
         21   -1    0    0  502  501  0.00000000000E+00  0.00000000000E+00  0.24798503163E+04  0.24798503163E+04  0.00000000000E+00 0. -1.
         21   -1    0    0  501  502 -0.00000000000E+00 -0.00000000000E+00 -0.20699624165E+02  0.20699624165E+02  0.00000000000E+00 0. -1.
      99926    2    1    2    0    0  0.00000000000E+00 -0.17763568394E-14  0.24591506921E+04  0.25005499405E+04  0.45313119307E+03 0.  0.
      99925    2    3    3    0    0  0.11112002367E+03  0.81500298225E+01  0.15599690697E+04  0.15858974486E+04  0.26296983937E+03 0.  0.
         25    1    3    3    0    0 -0.11112002367E+03 -0.81500298225E+01  0.89918162238E+03  0.91465249181E+03  0.12509000000E+03 0.  0.
         25    1    4    4    0    0  0.47095048433E+02 -0.31306896498E+02  0.65473104733E+03  0.66896809923E+03  0.12509000000E+03 0.  0.
         25    1    4    4    0    0  0.64024975235E+02  0.39456926321E+02  0.90523802241E+03  0.91692934941E+03  0.12509000000E+03 0.  0.
<mgrwt>
<rscale>  2 0.45313119E+03</rscale>
<asrwt>0</asrwt>
<pdfrwt beam="1">  1       21 0.36468366E+00 0.45313119E+03</pdfrwt>
<pdfrwt beam="2">  1       21 0.30440641E-02 0.45313119E+03</pdfrwt>
<totfact> 0.72306474E+03</totfact>
</mgrwt>
</event>
<event>
 7    0  0.4759581E-002  0.4405595E+03  0.7546771E-02  0.1030575E+00
         21   -1    0    0  502  501  0.00000000000E+00  0.00000000000E+00  0.97589118631E+02  0.97589118631E+02  0.00000000000E+00 0. -1.
         21   -1    0    0  501  502 -0.00000000000E+00 -0.00000000000E+00 -0.49721906296E+03  0.49721906296E+03  0.00000000000E+00 0. -1.
      99926    2    1    2    0    0  0.00000000000E+00 -0.35527136788E-14 -0.39962994433E+03  0.59480818159E+03  0.44055950845E+03 0.  0.
      99925    2    3    3    0    0 -0.95110604775E+02 -0.28787617276E+02 -0.26576081195E+03  0.38637784130E+03  0.26226756001E+03 0.  0.
         25    1    4    4    0    0 -0.29263857190E+02 -0.31865387362E+02 -0.86730602976E+02  0.15824500574E+03  0.12509000000E+03 0.  0.
         25    1    3    3    0    0  0.95110604775E+02  0.28787617276E+02 -0.13386913238E+03  0.20843034029E+03  0.12509000000E+03 0.  0.
         25    1    4    4    0    0 -0.65846747585E+02  0.30777700863E+01 -0.17903020897E+03  0.22813283556E+03  0.12509000000E+03 0.  0.
<mgrwt>
<rscale>  2 0.44055951E+03</rscale>
<asrwt>0</asrwt>
<pdfrwt beam="1">  1       21 0.14351341E-01 0.44055951E+03</pdfrwt>
<pdfrwt beam="2">  1       21 0.73120452E-01 0.44055951E+03</pdfrwt>
<totfact> 0.66240048E+04</totfact>
</mgrwt>
</event>
<event>
 7    0  0.4759581E-002  0.4528868E+03  0.7546771E-02  0.1026865E+00
         21   -1    0    0  502  501  0.00000000000E+00  0.00000000000E+00  0.11680603053E+03  0.11680603053E+03  0.00000000000E+00 0.  1.
         21   -1    0    0  501  502 -0.00000000000E+00 -0.00000000000E+00 -0.43898945183E+03  0.43898945183E+03  0.00000000000E+00 0.  1.
      99926    2    1    2    0    0 -0.17763568394E-14  0.00000000000E+00 -0.32218342130E+03  0.55579548236E+03  0.45288680844E+03 0.  0.
      99925    2    3    3    0    0 -0.12614829836E+02 -0.10987985211E+03 -0.18990175973E+03  0.34277280301E+03  0.26305474772E+03 0.  0.
         25    1    4    4    0    0 -0.37966348767E+02 -0.56584442370E+02 -0.12695364681E+03  0.19080875057E+03  0.12509000000E+03 0.  0.
         25    1    4    4    0    0  0.25351518931E+02 -0.53295409744E+02 -0.62948112922E+02  0.15196405243E+03  0.12509000000E+03 0.  0.
         25    1    3    3    0    0  0.12614829836E+02  0.10987985211E+03 -0.13228166157E+03  0.21302267936E+03  0.12509000000E+03 0.  0.
<mgrwt>
<rscale>  2 0.45288681E+03</rscale>
<asrwt>0</asrwt>
<pdfrwt beam="1">  1       21 0.17177357E-01 0.45288681E+03</pdfrwt>
<pdfrwt beam="2">  1       21 0.64557273E-01 0.45288681E+03</pdfrwt>
<totfact> 0.62523822E+04</totfact>
</mgrwt>
</event>
<event>
 7    0  0.4759581E-002  0.4552667E+03  0.7546771E-02  0.1026163E+00
         21   -1    0    0  502  501  0.00000000000E+00  0.00000000000E+00  0.97735623725E+03  0.97735623725E+03  0.00000000000E+00 0. -1.
         21   -1    0    0  501  502 -0.00000000000E+00 -0.00000000000E+00 -0.53017462821E+02  0.53017462821E+02  0.00000000000E+00 0. -1.
      99926    2    1    2    0    0  0.00000000000E+00  0.00000000000E+00  0.92433877443E+03  0.10303737001E+04  0.45526672609E+03 0.  0.
      99925    2    3    3    0    0  0.64033468265E+02  0.82236216439E+02  0.68280696644E+03  0.73908655185E+03  0.26298383476E+03 0.  0.
         25    1    4    4    0    0  0.25032002548E+02  0.72637506034E+02  0.29269284414E+03  0.32744376241E+03  0.12509000000E+03 0.  0.
         25    1    4    4    0    0  0.39001465717E+02  0.95987104057E+01  0.39011412230E+03  0.41164278943E+03  0.12509000000E+03 0.  0.
         25    1    3    3    0    0 -0.64033468265E+02 -0.82236216439E+02  0.24153180799E+03  0.29128714823E+03  0.12509000000E+03 0.  0.
<mgrwt>
<rscale>  2 0.45526673E+03</rscale>
<asrwt>0</asrwt>
<pdfrwt beam="1">  1       21 0.14372885E+00 0.45526673E+03</pdfrwt>
<pdfrwt beam="2">  1       21 0.77966863E-02 0.45526673E+03</pdfrwt>
<totfact> 0.37926854E+04</totfact>
</mgrwt>
</event>
<event>
 7    0  0.4759581E-002  0.4590894E+03  0.7546771E-02  0.1025046E+00
         21   -1    0    0  502  501  0.00000000000E+00  0.00000000000E+00  0.63986196164E+03  0.63986196164E+03  0.00000000000E+00 0. -1.
         21   -1    0    0  501  502 -0.00000000000E+00 -0.00000000000E+00 -0.82347086664E+02  0.82347086664E+02  0.00000000000E+00 0. -1.
      99926    2    1    2    0    0  0.00000000000E+00 -0.17763568394E-14  0.55751487498E+03  0.72220904831E+03  0.45908939612E+03 0.  0.
      99925    2    3    3    0    0 -0.99490548452E+02 -0.12096679141E+02  0.44439231732E+03  0.52602311601E+03  0.26300396958E+03 0.  0.
         25    1    4    4    0    0 -0.17561704791E+02 -0.50141793665E+01  0.15336170427E+03  0.19874827271E+03  0.12509000000E+03 0.  0.
         25    1    3    3    0    0  0.99490548452E+02  0.12096679141E+02  0.11312255766E+03  0.19618593229E+03  0.12509000000E+03 0.  0.
         25    1    4    4    0    0 -0.81928843661E+02 -0.70824997740E+01  0.29103061305E+03  0.32727484330E+03  0.12509000000E+03 0.  0.
<mgrwt>
<rscale>  2 0.45908940E+03</rscale>
<asrwt>0</asrwt>
<pdfrwt beam="1">  1       21 0.94097345E-01 0.45908940E+03</pdfrwt>
<pdfrwt beam="2">  1       21 0.12109866E-01 0.45908940E+03</pdfrwt>
<totfact> 0.50083307E+04</totfact>
</mgrwt>
</event>
<event>
 7    0  0.4759581E-002  0.4552067E+03  0.7546771E-02  0.1026181E+00
         21   -1    0    0  502  501  0.00000000000E+00  0.00000000000E+00  0.15928229322E+03  0.15928229322E+03  0.00000000000E+00 0. -1.
         21   -1    0    0  501  502 -0.00000000000E+00 -0.00000000000E+00 -0.32522947126E+03  0.32522947126E+03  0.00000000000E+00 0. -1.
      99926    2    1    2    0    0  0.00000000000E+00  0.00000000000E+00 -0.16594717805E+03  0.48451176448E+03  0.45520674865E+03 0.  0.
      99925    2    3    3    0    0 -0.79972196395E+02 -0.49333313621E+02 -0.17136805290E+03  0.32796713183E+03  0.26337445202E+03 0.  0.
         25    1    4    4    0    0 -0.70692652101E+02 -0.44939098057E+02 -0.67219379365E+02  0.16487245573E+03  0.12509000000E+03 0.  0.
         25    1    4    4    0    0 -0.92795442936E+01 -0.43942155634E+01 -0.10414867354E+03  0.16309467610E+03  0.12509000000E+03 0.  0.
         25    1    3    3    0    0  0.79972196395E+02  0.49333313621E+02  0.54208748557E+01  0.15654463266E+03  0.12509000000E+03 0.  0.
<mgrwt>
<rscale>  2 0.45520675E+03</rscale>
<asrwt>0</asrwt>
<pdfrwt beam="1">  1       21 0.23423867E-01 0.45520675E+03</pdfrwt>
<pdfrwt beam="2">  1       21 0.47827863E-01 0.45520675E+03</pdfrwt>
<totfact> 0.66264297E+04</totfact>
</mgrwt>
</event>
<event>
 7    0  0.4759581E-002  0.4655682E+03  0.7546771E-02  0.1023179E+00
         21   -1    0    0  502  501  0.00000000000E+00  0.00000000000E+00  0.87047621566E+03  0.87047621566E+03  0.00000000000E+00 0.  1.
         21   -1    0    0  501  502 -0.00000000000E+00 -0.00000000000E+00 -0.62251487413E+02  0.62251487413E+02  0.00000000000E+00 0.  1.
      99926    2    1    2    0    0  0.00000000000E+00  0.00000000000E+00  0.80822472825E+03  0.93272770308E+03  0.46556820846E+03 0.  0.
      99925    2    3    3    0    0 -0.64382039755E+02  0.10462700325E+03  0.50039928671E+03  0.57847374415E+03  0.26294594441E+03 0.  0.
         25    1    3    3    0    0  0.64382039755E+02 -0.10462700325E+03  0.30782544154E+03  0.35425395892E+03  0.12509000000E+03 0.  0.
         25    1    4    4    0    0 -0.28059807478E+02  0.25553592912E+02  0.16845313858E+03  0.21322360775E+03  0.12509000000E+03 0.  0.
         25    1    4    4    0    0 -0.36322232277E+02  0.79073410343E+02  0.33194614813E+03  0.36525013640E+03  0.12509000000E+03 0.  0.
<mgrwt>
<rscale>  2 0.46556821E+03</rscale>
<asrwt>0</asrwt>
<pdfrwt beam="1">  1       21 0.12801120E+00 0.46556821E+03</pdfrwt>
<pdfrwt beam="2">  1       21 0.91546310E-02 0.46556821E+03</pdfrwt>
<totfact> 0.38559622E+04</totfact>
</mgrwt>
</event>
<event>
 7    0  0.4759581E-002  0.4539758E+03  0.7546771E-02  0.1026543E+00
         21   -1    0    0  502  501  0.00000000000E+00  0.00000000000E+00  0.39715754464E+02  0.39715754464E+02  0.00000000000E+00 0.  1.
         21   -1    0    0  501  502 -0.00000000000E+00 -0.00000000000E+00 -0.12973063538E+04  0.12973063538E+04  0.00000000000E+00 0.  1.
      99926    2    1    2    0    0  0.00000000000E+00  0.14210854715E-13 -0.12575905993E+04  0.13370221083E+04  0.45397577297E+03 0.  0.
      99925    2    3    3    0    0 -0.38249638814E+02  0.95456971816E+02 -0.92437129084E+03  0.96653906682E+03  0.26298368017E+03 0.  0.
         25    1    3    3    0    0  0.38249638814E+02 -0.95456971816E+02 -0.33321930849E+03  0.37048304143E+03  0.12509000000E+03 0.  0.
         25    1    4    4    0    0 -0.57610784531E+02  0.42198141105E+02 -0.51392293974E+03  0.53372650459E+03  0.12509000000E+03 0.  0.
         25    1    4    4    0    0  0.19361145717E+02  0.53258830711E+02 -0.41044835110E+03  0.43281256224E+03  0.12509000000E+03 0.  0.
<mgrwt>
<rscale>  2 0.45397577E+03</rscale>
<asrwt>0</asrwt>
<pdfrwt beam="1">  1       21 0.58405519E-02 0.45397577E+03</pdfrwt>
<pdfrwt beam="2">  1       21 0.19078035E+00 0.45397577E+03</pdfrwt>
<totfact> 0.28282780E+04</totfact>
</mgrwt>
</event>
<event>
 7    0  0.4759581E-002  0.4537968E+03  0.7546771E-02  0.1026596E+00
         21   -1    0    0  502  501  0.00000000000E+00  0.00000000000E+00  0.90292023794E+03  0.90292023794E+03  0.00000000000E+00 0.  1.
         21   -1    0    0  501  502 -0.00000000000E+00 -0.00000000000E+00 -0.57018186719E+02  0.57018186719E+02  0.00000000000E+00 0.  1.
      99926    2    1    2    0    0  0.35527136788E-14  0.00000000000E+00  0.84590205122E+03  0.95993842466E+03  0.45379675944E+03 0.  0.
      99925    2    3    3    0    0 -0.31797136219E+02  0.10543358935E+03  0.49352385144E+03  0.57013693234E+03  0.26336862008E+03 0.  0.
         25    1    3    3    0    0  0.31797136219E+02 -0.10543358935E+03  0.35237819978E+03  0.38980149232E+03  0.12509000000E+03 0.  0.
         25    1    4    4    0    0 -0.26564827076E+02  0.96011240253E+02  0.27563697191E+03  0.31866455196E+03  0.12509000000E+03 0.  0.
         25    1    4    4    0    0 -0.52323091430E+01  0.94223490941E+01  0.21788687953E+03  0.25147238038E+03  0.12509000000E+03 0.  0.
<mgrwt>
<rscale>  2 0.45379676E+03</rscale>
<asrwt>0</asrwt>
<pdfrwt beam="1">  1       21 0.13278238E+00 0.45379676E+03</pdfrwt>
<pdfrwt beam="2">  1       21 0.83850280E-02 0.45379676E+03</pdfrwt>
<totfact> 0.41126555E+04</totfact>
</mgrwt>
</event>
<event>
 7    0  0.4759581E-002  0.4295296E+03  0.7546771E-02  0.1034009E+00
         21   -1    0    0  502  501  0.00000000000E+00  0.00000000000E+00  0.43005454587E+03  0.43005454587E+03  0.00000000000E+00 0.  1.
         21   -1    0    0  501  502 -0.00000000000E+00 -0.00000000000E+00 -0.10725132285E+03  0.10725132285E+03  0.00000000000E+00 0.  1.
      99926    2    1    2    0    0  0.00000000000E+00  0.22204460493E-14  0.32280322301E+03  0.53730586872E+03  0.42952959824E+03 0.  0.
      99925    2    3    3    0    0  0.17466953778E+02  0.25353792502E+01  0.31509531882E+03  0.41074188289E+03  0.26289220565E+03 0.  0.
         25    1    4    4    0    0 -0.24319862895E+02  0.23289295818E+02  0.16695136064E+03  0.21131519574E+03  0.12509000000E+03 0.  0.
         25    1    4    4    0    0  0.41786816673E+02 -0.20753916568E+02  0.14814395818E+03  0.19942668715E+03  0.12509000000E+03 0.  0.
         25    1    3    3    0    0 -0.17466953778E+02 -0.25353792502E+01  0.77079041939E+01  0.12656398583E+03  0.12509000000E+03 0.  0.
<mgrwt>
<rscale>  2 0.42952960E+03</rscale>
<asrwt>0</asrwt>
<pdfrwt beam="1">  1       21 0.63243315E-01 0.42952960E+03</pdfrwt>
<pdfrwt beam="2">  1       21 0.15772254E-01 0.42952960E+03</pdfrwt>
<totfact> 0.77123351E+04</totfact>
</mgrwt>
</event>
<event>
 7    0  0.4759581E-002  0.4485277E+03  0.7546771E-02  0.1028162E+00
         21   -1    0    0  502  501  0.00000000000E+00  0.00000000000E+00  0.44367155485E+03  0.44367155485E+03  0.00000000000E+00 0.  1.
         21   -1    0    0  501  502 -0.00000000000E+00 -0.00000000000E+00 -0.11335923007E+03  0.11335923007E+03  0.00000000000E+00 0.  1.
      99926    2    1    2    0    0  0.00000000000E+00  0.44408920985E-15  0.33031232477E+03  0.55703078492E+03  0.44852766186E+03 0.  0.
      99925    2    3    3    0    0 -0.54176438282E+02 -0.36032849751E+01  0.32362974315E+03  0.42050153851E+03  0.26293965678E+03 0.  0.
         25    1    4    4    0    0  0.86833362749E+01  0.64353676134E+01  0.18198996810E+03  0.22109878081E+03  0.12509000000E+03 0.  0.
         25    1    4    4    0    0 -0.62859774557E+02 -0.10038652588E+02  0.14163977505E+03  0.19940275770E+03  0.12509000000E+03 0.  0.
         25    1    3    3    0    0  0.54176438282E+02  0.36032849751E+01  0.66825816192E+01  0.13652924641E+03  0.12509000000E+03 0.  0.
<mgrwt>
<rscale>  2 0.44852766E+03</rscale>
<asrwt>0</asrwt>
<pdfrwt beam="1">  1       21 0.65245816E-01 0.44852766E+03</pdfrwt>
<pdfrwt beam="2">  1       21 0.16670475E-01 0.44852766E+03</pdfrwt>
<totfact> 0.64651317E+04</totfact>
</mgrwt>
</event>
<event>
 6    0  0.4759581E-002  0.4508688E+03  0.7546771E-02  0.1027463E+00
         21   -1    0    0  502  501  0.00000000000E+00  0.00000000000E+00  0.79897544297E+02  0.79897544297E+02  0.00000000000E+00 0. -1.
         21   -1    0    0  501  502 -0.00000000000E+00 -0.00000000000E+00 -0.63607303086E+03  0.63607303086E+03  0.00000000000E+00 0. -1.
      99926    2    1    2    0    0  0.14210854715E-13  0.71054273576E-14 -0.55617548656E+03  0.71597057516E+03  0.45086881977E+03 0.  0.
         25    1    3    3    0    0 -0.13540042608E+02  0.53256105256E+01 -0.19601036941E+03  0.23297911472E+03  0.12509000000E+03 0.  0.
         25    1    3    3    0    0 -0.68587497476E+02  0.56353251734E+02 -0.22397179868E+03  0.27146051001E+03  0.12509000000E+03 0.  0.
         25    1    3    3    0    0  0.82127540084E+02 -0.61678862259E+02 -0.13619331847E+03  0.21153095042E+03  0.12509000000E+03 0.  0.
<mgrwt>
<rscale>  2 0.45086882E+03</rscale>
<asrwt>0</asrwt>
<pdfrwt beam="1">  1       21 0.11749639E-01 0.45086882E+03</pdfrwt>
<pdfrwt beam="2">  1       21 0.93540152E-01 0.45086882E+03</pdfrwt>
<totfact> 0.53770665E+04</totfact>
</mgrwt>
</event>
<event>
 7    0  0.4759581E-002  0.4530824E+03  0.7546771E-02  0.1026807E+00
         21   -1    0    0  502  501  0.00000000000E+00  0.00000000000E+00  0.22483547872E+03  0.22483547872E+03  0.00000000000E+00 0. -1.
         21   -1    0    0  501  502 -0.00000000000E+00 -0.00000000000E+00 -0.22825987471E+03  0.22825987471E+03  0.00000000000E+00 0. -1.
      99926    2    1    2    0    0  0.00000000000E+00 -0.14210854715E-13 -0.34243959848E+01  0.45309535343E+03  0.45308241283E+03 0.  0.
      99925    2    3    3    0    0  0.81843427434E+02  0.64025983149E+02 -0.42220507501E+02  0.28591186292E+03  0.26299305879E+03 0.  0.
         25    1    4    4    0    0  0.36958287147E+02  0.22999564742E+02  0.19262487582E+02  0.13384112408E+03  0.12509000000E+03 0.  0.
         25    1    4    4    0    0  0.44885140287E+02  0.41026418406E+02 -0.61482995083E+02  0.15207073884E+03  0.12509000000E+03 0.  0.
         25    1    3    3    0    0 -0.81843427434E+02 -0.64025983149E+02  0.38796111517E+02  0.16718349052E+03  0.12509000000E+03 0.  0.
<mgrwt>
<rscale>  2 0.45308241E+03</rscale>
<asrwt>0</asrwt>
<pdfrwt beam="1">  1       21 0.33064041E-01 0.45308241E+03</pdfrwt>
<pdfrwt beam="2">  1       21 0.33567629E-01 0.45308241E+03</pdfrwt>
<totfact> 0.69746603E+04</totfact>
</mgrwt>
</event>
<event>
 7    0  0.4759581E-002  0.4547426E+03  0.7546771E-02  0.1026317E+00
         21   -1    0    0  502  501  0.00000000000E+00  0.00000000000E+00  0.11509169057E+04  0.11509169057E+04  0.00000000000E+00 0. -1.
         21   -1    0    0  501  502 -0.00000000000E+00 -0.00000000000E+00 -0.44918716948E+02  0.44918716948E+02  0.00000000000E+00 0. -1.
      99926    2    1    2    0    0  0.00000000000E+00  0.00000000000E+00  0.11059981887E+04  0.11958356226E+04  0.45474261167E+03 0.  0.
      99925    2    3    3    0    0 -0.11001756763E+03  0.16538715890E+02  0.64648307988E+03  0.70677628301E+03  0.26308733785E+03 0.  0.
         25    1    3    3    0    0  0.11001756763E+03 -0.16538715890E+02  0.45951510886E+03  0.48905933963E+03  0.12509000000E+03 0.  0.
         25    1    4    4    0    0 -0.55116020437E+02 -0.31488132289E+02  0.34034863548E+03  0.36812223508E+03  0.12509000000E+03 0.  0.
         25    1    4    4    0    0 -0.54901547193E+02  0.48026848179E+02  0.30613444440E+03  0.33865404793E+03  0.12509000000E+03 0.  0.
<mgrwt>
<rscale>  2 0.45474261E+03</rscale>
<asrwt>0</asrwt>
<pdfrwt beam="1">  1       21 0.16925247E+00 0.45474261E+03</pdfrwt>
<pdfrwt beam="2">  1       21 0.66056944E-02 0.45474261E+03</pdfrwt>
<totfact> 0.32353035E+04</totfact>
</mgrwt>
</event>
<event>
 7    0  0.4759581E-002  0.4094710E+03  0.7546771E-02  0.1040549E+00
         21   -1    0    0  502  501  0.00000000000E+00  0.00000000000E+00  0.84478509177E+02  0.84478509177E+02  0.00000000000E+00 0. -1.
         21   -1    0    0  501  502 -0.00000000000E+00 -0.00000000000E+00 -0.49618089556E+03  0.49618089556E+03  0.00000000000E+00 0. -1.
      99926    2    1    2    0    0  0.17763568394E-14  0.71054273576E-14 -0.41170238638E+03  0.58065940474E+03  0.40947098720E+03 0.  0.
      99925    2    3    3    0    0 -0.15608315325E+02  0.57143477681E+02 -0.29505688506E+03  0.39965477047E+03  0.26297599431E+03 0.  0.
         25    1    3    3    0    0  0.15608315325E+02 -0.57143477681E+02 -0.11664550132E+03  0.18100463427E+03  0.12509000000E+03 0.  0.
         25    1    4    4    0    0  0.58973175834E+01  0.66476150056E+02 -0.16781971361E+03  0.21969256077E+03  0.12509000000E+03 0.  0.
         25    1    4    4    0    0 -0.21505632908E+02 -0.93326723749E+01 -0.12723717145E+03  0.17996220970E+03  0.12509000000E+03 0.  0.
<mgrwt>
<rscale>  2 0.40947099E+03</rscale>
<asrwt>0</asrwt>
<pdfrwt beam="1">  1       21 0.12423310E-01 0.40947099E+03</pdfrwt>
<pdfrwt beam="2">  1       21 0.72967781E-01 0.40947099E+03</pdfrwt>
<totfact> 0.87310901E+04</totfact>
</mgrwt>
</event>
<event>
 7    0  0.4759581E-002  0.4359932E+03  0.7546771E-02  0.1031983E+00
         21   -1    0    0  502  501  0.00000000000E+00  0.00000000000E+00  0.64077548752E+02  0.64077548752E+02  0.00000000000E+00 0. -1.
         21   -1    0    0  501  502 -0.00000000000E+00 -0.00000000000E+00 -0.74164057973E+03  0.74164057973E+03  0.00000000000E+00 0. -1.
      99926    2    1    2    0    0 -0.14210854715E-13  0.00000000000E+00 -0.67756303098E+03  0.80571812849E+03  0.43599316694E+03 0.  0.
      99925    2    3    3    0    0  0.81821733780E+02  0.43202701830E+02 -0.46715174432E+03  0.54402806903E+03  0.26301049049E+03 0.  0.
         25    1    4    4    0    0  0.77461603333E+02  0.43525873180E+02 -0.26774055124E+03  0.30858922941E+03  0.12509000000E+03 0.  0.
         25    1    4    4    0    0  0.43601304470E+01 -0.32317135018E+00 -0.19941119308E+03  0.23543883962E+03  0.12509000000E+03 0.  0.
         25    1    3    3    0    0 -0.81821733780E+02 -0.43202701830E+02 -0.21041128666E+03  0.26169005945E+03  0.12509000000E+03 0.  0.
<mgrwt>
<rscale>  2 0.43599317E+03</rscale>
<asrwt>0</asrwt>
<pdfrwt beam="1">  1       21 0.94231687E-02 0.43599317E+03</pdfrwt>
<pdfrwt beam="2">  1       21 0.10906479E+00 0.43599317E+03</pdfrwt>
<totfact> 0.55285970E+04</totfact>
</mgrwt>
</event>
<event>
 7    0  0.4759581E-002  0.4519729E+03  0.7546771E-02  0.1027135E+00
         21   -1    0    0  502  501  0.00000000000E+00  0.00000000000E+00  0.14006906718E+03  0.14006906718E+03  0.00000000000E+00 0.  1.
         21   -1    0    0  501  502 -0.00000000000E+00 -0.00000000000E+00 -0.36460493583E+03  0.36460493583E+03  0.00000000000E+00 0.  1.
      99926    2    1    2    0    0  0.71054273576E-14 -0.71054273576E-14 -0.22453586865E+03  0.50467400300E+03  0.45197288967E+03 0.  0.
      99925    2    3    3    0    0 -0.61308364961E+02  0.41876431524E+02 -0.23269732675E+03  0.35898093992E+03  0.26307207799E+03 0.  0.
         25    1    3    3    0    0  0.61308364961E+02 -0.41876431524E+02  0.81614581044E+01  0.14569306308E+03  0.12509000000E+03 0.  0.
         25    1    4    4    0    0  0.18836974437E+01  0.36596199821E+02 -0.13758708304E+03  0.18952715815E+03  0.12509000000E+03 0.  0.
         25    1    4    4    0    0 -0.63192062405E+02  0.52802317035E+01 -0.95110243715E+02  0.16945378177E+03  0.12509000000E+03 0.  0.
<mgrwt>
<rscale>  2 0.45197289E+03</rscale>
<asrwt>0</asrwt>
<pdfrwt beam="1">  1       21 0.20598392E-01 0.45197289E+03</pdfrwt>
<pdfrwt beam="2">  1       21 0.53618373E-01 0.45197289E+03</pdfrwt>
<totfact> 0.66527629E+04</totfact>
</mgrwt>
</event>
<event>
 7    0  0.4759581E-002  0.4629241E+03  0.7546771E-02  0.1023937E+00
         21   -1    0    0  502  501  0.00000000000E+00  0.00000000000E+00  0.23763185365E+03  0.23763185365E+03  0.00000000000E+00 0.  1.
         21   -1    0    0  501  502 -0.00000000000E+00 -0.00000000000E+00 -0.22545240517E+03  0.22545240517E+03  0.00000000000E+00 0.  1.
      99926    2    1    2    0    0  0.35527136788E-14 -0.14210854715E-13  0.12179448482E+02  0.46308425882E+03  0.46292406699E+03 0.  0.
      99925    2    3    3    0    0  0.21177767821E+02 -0.97289053552E+02  0.75396325597E+02  0.29116119625E+03  0.26301440739E+03 0.  0.
         25    1    4    4    0    0  0.40633379209E+01 -0.81843322585E+02  0.66481653327E+02  0.16365255420E+03  0.12509000000E+03 0.  0.
         25    1    3    3    0    0 -0.21177767821E+02  0.97289053552E+02 -0.63216877115E+02  0.17192306257E+03  0.12509000000E+03 0.  0.
         25    1    4    4    0    0  0.17114429900E+02 -0.15445730967E+02  0.89146722697E+01  0.12750864205E+03  0.12509000000E+03 0.  0.
<mgrwt>
<rscale>  2 0.46292407E+03</rscale>
<asrwt>0</asrwt>
<pdfrwt beam="1">  1       21 0.34945861E-01 0.46292407E+03</pdfrwt>
<pdfrwt beam="2">  1       21 0.33154766E-01 0.46292407E+03</pdfrwt>
<totfact> 0.63825683E+04</totfact>
</mgrwt>
</event>
<event>
 7    0  0.4759581E-002  0.4547980E+03  0.7546771E-02  0.1026301E+00
         21   -1    0    0  502  501  0.00000000000E+00  0.00000000000E+00  0.13895350832E+03  0.13895350832E+03  0.00000000000E+00 0. -1.
         21   -1    0    0  501  502 -0.00000000000E+00 -0.00000000000E+00 -0.37214102774E+03  0.37214102774E+03  0.00000000000E+00 0. -1.
      99926    2    1    2    0    0  0.71054273576E-14  0.00000000000E+00 -0.23318751941E+03  0.51109453606E+03  0.45479798326E+03 0.  0.
      99925    2    3    3    0    0  0.58923809125E+02  0.90635520658E+02 -0.10902346559E+03  0.30433130614E+03  0.26276342013E+03 0.  0.
         25    1    4    4    0    0 -0.61790322279E+01  0.54628920458E+02 -0.35014060562E+02  0.14105315284E+03  0.12509000000E+03 0.  0.
         25    1    3    3    0    0 -0.58923809125E+02 -0.90635520658E+02 -0.12416405382E+03  0.20676322992E+03  0.12509000000E+03 0.  0.
         25    1    4    4    0    0  0.65102841353E+02  0.36006600200E+02 -0.74009405031E+02  0.16327815329E+03  0.12509000000E+03 0.  0.
<mgrwt>
<rscale>  2 0.45479798E+03</rscale>
<asrwt>0</asrwt>
<pdfrwt beam="1">  1       21 0.20434340E-01 0.45479798E+03</pdfrwt>
<pdfrwt beam="2">  1       21 0.54726621E-01 0.45479798E+03</pdfrwt>
<totfact> 0.64601562E+04</totfact>
</mgrwt>
</event>
<event>
 7    0  0.4759581E-002  0.4567851E+03  0.7546771E-02  0.1025718E+00
         21   -1    0    0  502  501  0.00000000000E+00  0.00000000000E+00  0.96924079926E+03  0.96924079926E+03  0.00000000000E+00 0.  1.
         21   -1    0    0  501  502 -0.00000000000E+00 -0.00000000000E+00 -0.53818577980E+02  0.53818577980E+02  0.00000000000E+00 0.  1.
      99926    2    1    2    0    0  0.00000000000E+00 -0.71054273576E-14  0.91542222128E+03  0.10230593772E+04  0.45678512032E+03 0.  0.
      99925    2    3    3    0    0  0.44289949028E+02 -0.49628244063E+02  0.78491094556E+03  0.83043211182E+03  0.26288350593E+03 0.  0.
         25    1    3    3    0    0 -0.44289949028E+02  0.49628244063E+02  0.13051127572E+03  0.19262726542E+03  0.12509000000E+03 0.  0.
         25    1    4    4    0    0  0.11681947798E+02 -0.21264189598E+01  0.47422993068E+03  0.49059405298E+03  0.12509000000E+03 0.  0.
         25    1    4    4    0    0  0.32608001230E+02 -0.47501825103E+02  0.31068101488E+03  0.33983805884E+03  0.12509000000E+03 0.  0.
<mgrwt>
<rscale>  2 0.45678512E+03</rscale>
<asrwt>0</asrwt>
<pdfrwt beam="1">  1       21 0.14253540E+00 0.45678512E+03</pdfrwt>
<pdfrwt beam="2">  1       21 0.79144974E-02 0.45678512E+03</pdfrwt>
<totfact> 0.37752782E+04</totfact>
</mgrwt>
</event>
<event>
 7    0  0.4759581E-002  0.4599020E+03  0.7546771E-02  0.1024810E+00
         21   -1    0    0  502  501  0.00000000000E+00  0.00000000000E+00  0.45444351808E+02  0.45444351808E+02  0.00000000000E+00 0.  1.
         21   -1    0    0  501  502 -0.00000000000E+00 -0.00000000000E+00 -0.11635650068E+04  0.11635650068E+04  0.00000000000E+00 0.  1.
      99926    2    1    2    0    0  0.00000000000E+00  0.00000000000E+00 -0.11181206550E+04  0.12090093586E+04  0.45990197878E+03 0.  0.
      99925    2    3    3    0    0  0.66214633954E+02 -0.38680458305E+02 -0.93525970703E+03  0.97456066488E+03  0.26301561614E+03 0.  0.
         25    1    4    4    0    0 -0.85332308046E+01 -0.21356674486E+02 -0.44173239529E+03  0.45967808379E+03  0.12509000000E+03 0.  0.
         25    1    3    3    0    0 -0.66214633954E+02  0.38680458305E+02 -0.18286094800E+03  0.23444869376E+03  0.12509000000E+03 0.  0.
         25    1    4    4    0    0  0.74747864758E+02 -0.17323783819E+02 -0.49352731174E+03  0.51488258108E+03  0.12509000000E+03 0.  0.
<mgrwt>
<rscale>  2 0.45990198E+03</rscale>
<asrwt>0</asrwt>
<pdfrwt beam="1">  1       21 0.66829938E-02 0.45990198E+03</pdfrwt>
<pdfrwt beam="2">  1       21 0.17111248E+00 0.45990198E+03</pdfrwt>
<totfact> 0.30683279E+04</totfact>
</mgrwt>
</event>
<event>
 7    0  0.4759581E-002  0.4502914E+03  0.7546771E-02  0.1027635E+00
         21   -1    0    0  502  501  0.00000000000E+00  0.00000000000E+00  0.19412170035E+02  0.19412170035E+02  0.00000000000E+00 0. -1.
         21   -1    0    0  501  502 -0.00000000000E+00 -0.00000000000E+00 -0.26112786605E+04  0.26112786605E+04  0.00000000000E+00 0. -1.
      99926    2    1    2    0    0  0.00000000000E+00  0.00000000000E+00 -0.25918664904E+04  0.26306908305E+04  0.45029139617E+03 0.  0.
      99925    2    3    3    0    0 -0.33654975011E+02 -0.81427730854E+02 -0.20100815662E+04  0.20291225976E+04  0.26295908532E+03 0.  0.
         25    1    4    4    0    0 -0.17742384035E+02 -0.37646440994E+02 -0.70394226923E+03  0.71618033568E+03  0.12509000000E+03 0.  0.
         25    1    3    3    0    0  0.33654975011E+02  0.81427730854E+02 -0.58178492425E+03  0.60156823294E+03  0.12509000000E+03 0.  0.
         25    1    4    4    0    0 -0.15912590976E+02 -0.43781289860E+02 -0.13061392970E+04  0.13129422619E+04  0.12509000000E+03 0.  0.
<mgrwt>
<rscale>  2 0.45029140E+03</rscale>
<asrwt>0</asrwt>
<pdfrwt beam="1">  1       21 0.28547291E-02 0.45029140E+03</pdfrwt>
<pdfrwt beam="2">  1       21 0.38401180E+00 0.45029140E+03</pdfrwt>
<totfact> 0.61054103E+03</totfact>
</mgrwt>
</event>
<event>
 7    0  0.4759581E-002  0.4546571E+03  0.7546771E-02  0.1026342E+00
         21   -1    0    0  502  501  0.00000000000E+00  0.00000000000E+00  0.94214831516E+03  0.94214831516E+03  0.00000000000E+00 0. -1.
         21   -1    0    0  501  502 -0.00000000000E+00 -0.00000000000E+00 -0.54851513590E+02  0.54851513590E+02  0.00000000000E+00 0. -1.
      99926    2    1    2    0    0  0.00000000000E+00  0.00000000000E+00  0.88729680157E+03  0.99699982875E+03  0.45465706247E+03 0.  0.
      99925    2    3    3    0    0  0.42502432661E+02  0.49907518216E+02  0.35715665748E+03  0.44837126804E+03  0.26301843825E+03 0.  0.
         25    1    4    4    0    0 -0.18977764335E+02  0.16331531964E+02  0.16139770922E+03  0.20572701115E+03  0.12509000000E+03 0.  0.
         25    1    4    4    0    0  0.61480196996E+02  0.33575986252E+02  0.19575894826E+03  0.24264425688E+03  0.12509000000E+03 0.  0.
         25    1    3    3    0    0 -0.42502432661E+02 -0.49907518216E+02  0.53014014409E+03  0.54862856072E+03  0.12509000000E+03 0.  0.
<mgrwt>
<rscale>  2 0.45465706E+03</rscale>
<asrwt>0</asrwt>
<pdfrwt beam="1">  1       21 0.13855121E+00 0.45465706E+03</pdfrwt>
<pdfrwt beam="2">  1       21 0.80663997E-02 0.45465706E+03</pdfrwt>
<totfact> 0.39389084E+04</totfact>
</mgrwt>
</event>
<event>
 7    0  0.4759581E-002  0.4536231E+03  0.7546771E-02  0.1026647E+00
         21   -1    0    0  502  501  0.00000000000E+00  0.00000000000E+00  0.13133439265E+04  0.13133439265E+04  0.00000000000E+00 0. -1.
         21   -1    0    0  501  502 -0.00000000000E+00 -0.00000000000E+00 -0.39169838664E+02  0.39169838664E+02  0.00000000000E+00 0. -1.
      99926    2    1    2    0    0  0.00000000000E+00  0.00000000000E+00  0.12741740878E+04  0.13525137651E+04  0.45362305810E+03 0.  0.
      99925    2    3    3    0    0  0.58964824899E+02 -0.43813001602E+02  0.55097494713E+03  0.61490890149E+03  0.26295082257E+03 0.  0.
         25    1    4    4    0    0 -0.34830937214E+01  0.25774894701E+01  0.23379463431E+03  0.26519090204E+03  0.12509000000E+03 0.  0.
         25    1    3    3    0    0 -0.58964824899E+02  0.43813001602E+02  0.72319914068E+03  0.73760486364E+03  0.12509000000E+03 0.  0.
         25    1    4    4    0    0  0.62447918621E+02 -0.46390491072E+02  0.31718031282E+03  0.34971799945E+03  0.12509000000E+03 0.  0.
<mgrwt>
<rscale>  2 0.45362306E+03</rscale>
<asrwt>0</asrwt>
<pdfrwt beam="1">  1       21 0.19313878E+00 0.45362306E+03</pdfrwt>
<pdfrwt beam="2">  1       21 0.57602713E-02 0.45362306E+03</pdfrwt>
<totfact> 0.27923031E+04</totfact>
</mgrwt>
</event>
<event>
 7    0  0.4759581E-002  0.4537676E+03  0.7546771E-02  0.1026604E+00
         21   -1    0    0  502  501  0.00000000000E+00  0.00000000000E+00  0.11326693348E+03  0.11326693348E+03  0.00000000000E+00 0.  1.
         21   -1    0    0  501  502 -0.00000000000E+00 -0.00000000000E+00 -0.45446849181E+03  0.45446849181E+03  0.00000000000E+00 0.  1.
      99926    2    1    2    0    0  0.00000000000E+00  0.00000000000E+00 -0.34120155833E+03  0.56773542529E+03  0.45376757236E+03 0.  0.
      99925    2    3    3    0    0 -0.54175188647E+02 -0.73362480645E+02 -0.29677454848E+03  0.40668179467E+03  0.26267459881E+03 0.  0.
         25    1    4    4    0    0 -0.57176371226E+02 -0.12458681240E+02 -0.13247008782E+03  0.19136402073E+03  0.12509000000E+03 0.  0.
         25    1    4    4    0    0  0.30011825794E+01 -0.60903799405E+02 -0.16430446067E+03  0.21531777394E+03  0.12509000000E+03 0.  0.
         25    1    3    3    0    0  0.54175188647E+02  0.73362480645E+02 -0.44427009845E+02  0.16105363062E+03  0.12509000000E+03 0.  0.
<mgrwt>
<rscale>  2 0.45376757E+03</rscale>
<asrwt>0</asrwt>
<pdfrwt beam="1">  1       21 0.16656902E-01 0.45376757E+03</pdfrwt>
<pdfrwt beam="2">  1       21 0.66833602E-01 0.45376757E+03</pdfrwt>
<totfact> 0.61304849E+04</totfact>
</mgrwt>
</event>
<event>
 7    0  0.4759581E-002  0.4533273E+03  0.7546771E-02  0.1026734E+00
         21   -1    0    0  502  501  0.00000000000E+00  0.00000000000E+00  0.54529716347E+03  0.54529716347E+03  0.00000000000E+00 0. -1.
         21   -1    0    0  501  502 -0.00000000000E+00 -0.00000000000E+00 -0.94217281435E+02  0.94217281435E+02  0.00000000000E+00 0. -1.
      99926    2    1    2    0    0  0.00000000000E+00 -0.88817841970E-15  0.45107988203E+03  0.63951444490E+03  0.45332732684E+03 0.  0.
      99925    2    3    3    0    0  0.10902686465E+03 -0.71369154441E+01  0.31611067951E+03  0.42550045820E+03  0.26303400055E+03 0.  0.
         25    1    4    4    0    0  0.77006030574E+02 -0.22680088157E+02  0.21196889572E+03  0.25888730366E+03  0.12509000000E+03 0.  0.
         25    1    3    3    0    0 -0.10902686465E+03  0.71369154441E+01  0.13496920252E+03  0.21401398671E+03  0.12509000000E+03 0.  0.
         25    1    4    4    0    0  0.32020834075E+02  0.15543172713E+02  0.10414178379E+03  0.16661315454E+03  0.12509000000E+03 0.  0.
<mgrwt>
<rscale>  2 0.45332733E+03</rscale>
<asrwt>0</asrwt>
<pdfrwt beam="1">  1       21 0.80190758E-01 0.45332733E+03</pdfrwt>
<pdfrwt beam="2">  1       21 0.13855483E-01 0.45332733E+03</pdfrwt>
<totfact> 0.57059097E+04</totfact>
</mgrwt>
</event>
<event>
 7    0  0.4759581E-002  0.4606665E+03  0.7546771E-02  0.1024588E+00
         21   -1    0    0  502  501  0.00000000000E+00  0.00000000000E+00  0.51197544685E+03  0.51197544685E+03  0.00000000000E+00 0. -1.
         21   -1    0    0  501  502 -0.00000000000E+00 -0.00000000000E+00 -0.10362489658E+03  0.10362489658E+03  0.00000000000E+00 0. -1.
      99926    2    1    2    0    0 -0.17763568394E-14  0.00000000000E+00  0.40835055027E+03  0.61560034342E+03  0.46066648556E+03 0.  0.
      99925    2    3    3    0    0  0.96206965739E+01  0.98284855027E+02  0.16824247038E+03  0.32741313230E+03  0.26294744689E+03 0.  0.
         25    1    3    3    0    0 -0.96206965739E+01 -0.98284855027E+02  0.24010807988E+03  0.28818721113E+03  0.12509000000E+03 0.  0.
         25    1    4    4    0    0 -0.35414584675E+02  0.50677459915E+02  0.78653411820E+02  0.16017573175E+03  0.12509000000E+03 0.  0.
         25    1    4    4    0    0  0.45035281249E+02  0.47607395112E+02  0.89589058565E+02  0.16723740055E+03  0.12509000000E+03 0.  0.
<mgrwt>
<rscale>  2 0.46066649E+03</rscale>
<asrwt>0</asrwt>
<pdfrwt beam="1">  1       21 0.75290506E-01 0.46066649E+03</pdfrwt>
<pdfrwt beam="2">  1       21 0.15238956E-01 0.46066649E+03</pdfrwt>
<totfact> 0.55215299E+04</totfact>
</mgrwt>
</event>
<event>
 7    0  0.4759581E-002  0.4339582E+03  0.7546771E-02  0.1032617E+00
         21   -1    0    0  502  501  0.00000000000E+00  0.00000000000E+00  0.19566823696E+03  0.19566823696E+03  0.00000000000E+00 0. -1.
         21   -1    0    0  501  502 -0.00000000000E+00 -0.00000000000E+00 -0.24061103108E+03  0.24061103108E+03  0.00000000000E+00 0. -1.
      99926    2    1    2    0    0  0.14210854715E-13  0.00000000000E+00 -0.44942794120E+02  0.43627926803E+03  0.43395822953E+03 0.  0.
      99925    2    3    3    0    0 -0.77344689520E+02 -0.30168018257E+02 -0.69351803817E+02  0.28417529643E+03  0.26278054739E+03 0.  0.
         25    1    4    4    0    0 -0.55520473286E+01 -0.57179254389E+01 -0.81664452224E+01  0.12560938989E+03  0.12509000000E+03 0.  0.
         25    1    4    4    0    0 -0.71792642192E+02 -0.24450092818E+02 -0.61185358595E+02  0.15856590654E+03  0.12509000000E+03 0.  0.
         25    1    3    3    0    0  0.77344689520E+02  0.30168018257E+02  0.24409009697E+02  0.15210397160E+03  0.12509000000E+03 0.  0.
<mgrwt>
<rscale>  2 0.43395823E+03</rscale>
<asrwt>0</asrwt>
<pdfrwt beam="1">  1       21 0.28774741E-01 0.43395823E+03</pdfrwt>
<pdfrwt beam="2">  1       21 0.35383975E-01 0.43395823E+03</pdfrwt>
<totfact> 0.83027077E+04</totfact>
</mgrwt>
</event>
<event>
 7    0  0.4759581E-002  0.4564984E+03  0.7546771E-02  0.1025802E+00
         21   -1    0    0  502  501  0.00000000000E+00  0.00000000000E+00  0.16096620949E+03  0.16096620949E+03  0.00000000000E+00 0.  1.
         21   -1    0    0  501  502 -0.00000000000E+00 -0.00000000000E+00 -0.32365605301E+03  0.32365605301E+03  0.00000000000E+00 0.  1.
      99926    2    1    2    0    0  0.00000000000E+00  0.35527136788E-14 -0.16268984352E+03  0.48462226250E+03  0.45649835939E+03 0.  0.
      99925    2    3    3    0    0 -0.10159495393E+03  0.18644791157E+02 -0.49358859950E+02  0.28673193217E+03  0.26288731611E+03 0.  0.
         25    1    4    4    0    0 -0.82528592145E+02  0.17029426727E+02 -0.53732366264E+02  0.16011135244E+03  0.12509000000E+03 0.  0.
         25    1    4    4    0    0 -0.19066361782E+02  0.16153644302E+01  0.43735063141E+01  0.12662057973E+03  0.12509000000E+03 0.  0.
         25    1    3    3    0    0  0.10159495393E+03 -0.18644791157E+02 -0.11333098357E+03  0.19789033033E+03  0.12509000000E+03 0.  0.
<mgrwt>
<rscale>  2 0.45649836E+03</rscale>
<asrwt>0</asrwt>
<pdfrwt beam="1">  1       21 0.23671502E-01 0.45649836E+03</pdfrwt>
<pdfrwt beam="2">  1       21 0.47596478E-01 0.45649836E+03</pdfrwt>
<totfact> 0.65581623E+04</totfact>
</mgrwt>
</event>
<event>
 7    0  0.4759581E-002  0.4557032E+03  0.7546771E-02  0.1026035E+00
         21   -1    0    0  502  501  0.00000000000E+00  0.00000000000E+00  0.19307060084E+03  0.19307060084E+03  0.00000000000E+00 0.  1.
         21   -1    0    0  501  502 -0.00000000000E+00 -0.00000000000E+00 -0.26889830776E+03  0.26889830776E+03  0.00000000000E+00 0.  1.
      99926    2    1    2    0    0  0.35527136788E-14  0.00000000000E+00 -0.75827706917E+02  0.46196890860E+03  0.45570322731E+03 0.  0.
      99925    2    3    3    0    0 -0.24269378531E+02 -0.12961494655E+02 -0.15964073370E+03  0.30890312328E+03  0.26301895871E+03 0.  0.
         25    1    4    4    0    0  0.27546679745E+02 -0.46965634366E+01 -0.66905370714E+02  0.14458462575E+03  0.12509000000E+03 0.  0.
         25    1    3    3    0    0  0.24269378531E+02  0.12961494655E+02  0.83813026779E+02  0.15306578532E+03  0.12509000000E+03 0.  0.
         25    1    4    4    0    0 -0.51816058276E+02 -0.82649312181E+01 -0.92735362982E+02  0.16431849753E+03  0.12509000000E+03 0.  0.
<mgrwt>
<rscale>  2 0.45570323E+03</rscale>
<asrwt>0</asrwt>
<pdfrwt beam="1">  1       21 0.28392735E-01 0.45570323E+03</pdfrwt>
<pdfrwt beam="2">  1       21 0.39543869E-01 0.45570323E+03</pdfrwt>
<totfact> 0.67656667E+04</totfact>
</mgrwt>
</event>
<event>
 7    0  0.4759581E-002  0.4553580E+03  0.7546771E-02  0.1026136E+00
         21   -1    0    0  502  501  0.00000000000E+00  0.00000000000E+00  0.21752209226E+02  0.21752209226E+02  0.00000000000E+00 0.  1.
         21   -1    0    0  501  502 -0.00000000000E+00 -0.00000000000E+00 -0.23831017722E+04  0.23831017722E+04  0.00000000000E+00 0.  1.
      99926    2    1    2    0    0  0.14210854715E-13  0.00000000000E+00 -0.23613495630E+04  0.24048539815E+04  0.45535800578E+03 0.  0.
      99925    2    3    3    0    0 -0.78012231746E+02  0.39488997723E+02 -0.11031714364E+04  0.11374530995E+04  0.26299628554E+03 0.  0.
         25    1    4    4    0    0 -0.52787956905E+02 -0.18210009237E+02 -0.52903082604E+03  0.54647899853E+03  0.12509000000E+03 0.  0.
         25    1    4    4    0    0 -0.25224274841E+02  0.57699006959E+02 -0.57414061038E+03  0.59097410099E+03  0.12509000000E+03 0.  0.
         25    1    3    3    0    0  0.78012231746E+02 -0.39488997723E+02 -0.12581781266E+04  0.12674008819E+04  0.12509000000E+03 0.  0.
<mgrwt>
<rscale>  2 0.45535801E+03</rscale>
<asrwt>0</asrwt>
<pdfrwt beam="1">  1       21 0.31988544E-02 0.45535801E+03</pdfrwt>
<pdfrwt beam="2">  1       21 0.35045614E+00 0.45535801E+03</pdfrwt>
<totfact> 0.81321916E+03</totfact>
</mgrwt>
</event>
<event>
 7    0  0.4759581E-002  0.4547898E+03  0.7546771E-02  0.1026303E+00
         21   -1    0    0  502  501  0.00000000000E+00  0.00000000000E+00  0.85359251168E+03  0.85359251168E+03  0.00000000000E+00 0. -1.
         21   -1    0    0  501  502 -0.00000000000E+00 -0.00000000000E+00 -0.60577433913E+02  0.60577433913E+02  0.00000000000E+00 0. -1.
      99926    2    1    2    0    0  0.00000000000E+00  0.00000000000E+00  0.79301507777E+03  0.91416994559E+03  0.45478981503E+03 0.  0.
      99925    2    3    3    0    0 -0.22730266325E+02  0.49166828533E+02  0.30035298826E+03  0.40299728927E+03  0.26317457242E+03 0.  0.
         25    1    3    3    0    0  0.22730266325E+02 -0.49166828533E+02  0.49266208951E+03  0.51117265633E+03  0.12509000000E+03 0.  0.
         25    1    4    4    0    0  0.85853416559E+01  0.52288958528E+02  0.11996870329E+03  0.18123973390E+03  0.12509000000E+03 0.  0.
         25    1    4    4    0    0 -0.31315607981E+02 -0.31221299952E+01  0.18038428496E+03  0.22175755536E+03  0.12509000000E+03 0.  0.
<mgrwt>
<rscale>  2 0.45478982E+03</rscale>
<asrwt>0</asrwt>
<pdfrwt beam="1">  1       21 0.12552830E+00 0.45478982E+03</pdfrwt>
<pdfrwt beam="2">  1       21 0.89084467E-02 0.45478982E+03</pdfrwt>
<totfact> 0.42696999E+04</totfact>
</mgrwt>
</event>
<event>
 7    0  0.4759581E-002  0.4537290E+03  0.7546771E-02  0.1026616E+00
         21   -1    0    0  502  501  0.00000000000E+00  0.00000000000E+00  0.42667340284E+02  0.42667340284E+02  0.00000000000E+00 0. -1.
         21   -1    0    0  501  502 -0.00000000000E+00 -0.00000000000E+00 -0.12062507444E+04  0.12062507444E+04  0.00000000000E+00 0. -1.
      99926    2    1    2    0    0  0.00000000000E+00  0.00000000000E+00 -0.11635834041E+04  0.12489180846E+04  0.45372904239E+03 0.  0.
      99925    2    3    3    0    0  0.65378042016E+02 -0.23069835467E+02 -0.49097684204E+03  0.56127457156E+03  0.26299121578E+03 0.  0.
         25    1    4    4    0    0  0.63520166996E+02 -0.18702134354E+02 -0.31479717502E+03  0.34515120012E+03  0.12509000000E+03 0.  0.
         25    1    3    3    0    0 -0.65378042016E+02  0.23069835467E+02 -0.67260656204E+03  0.68764351308E+03  0.12509000000E+03 0.  0.
         25    1    4    4    0    0  0.18578750196E+01 -0.43677011132E+01 -0.17617966702E+03  0.21612337144E+03  0.12509000000E+03 0.  0.
<mgrwt>
<rscale>  2 0.45372904E+03</rscale>
<asrwt>0</asrwt>
<pdfrwt beam="1">  1       21 0.62746075E-02 0.45372904E+03</pdfrwt>
<pdfrwt beam="2">  1       21 0.17738985E+00 0.45372904E+03</pdfrwt>
<totfact> 0.30940011E+04</totfact>
</mgrwt>
</event>
<event>
 7    0  0.4759581E-002  0.4664147E+03  0.7546771E-02  0.1022937E+00
         21   -1    0    0  502  501  0.00000000000E+00  0.00000000000E+00  0.62745731514E+03  0.62745731514E+03  0.00000000000E+00 0. -1.
         21   -1    0    0  501  502 -0.00000000000E+00 -0.00000000000E+00 -0.86676271705E+02  0.86676271705E+02  0.00000000000E+00 0. -1.
      99926    2    1    2    0    0  0.00000000000E+00  0.00000000000E+00  0.54078104343E+03  0.71413358684E+03  0.46641466842E+03 0.  0.
      99925    2    3    3    0    0 -0.83052180242E+02  0.89628155325E+02  0.30959459961E+03  0.42426197599E+03  0.26309416051E+03 0.  0.
         25    1    4    4    0    0 -0.88218177807E+01  0.41348023940E+02  0.18192342066E+03  0.22479128684E+03  0.12509000000E+03 0.  0.
         25    1    3    3    0    0  0.83052180242E+02 -0.89628155325E+02  0.23118644382E+03  0.28987161085E+03  0.12509000000E+03 0.  0.
         25    1    4    4    0    0 -0.74230362461E+02  0.48280131385E+02  0.12767117895E+03  0.19947068916E+03  0.12509000000E+03 0.  0.
<mgrwt>
<rscale>  2 0.46641467E+03</rscale>
<asrwt>0</asrwt>
<pdfrwt beam="1">  1       21 0.92273133E-01 0.46641467E+03</pdfrwt>
<pdfrwt beam="2">  1       21 0.12746511E-01 0.46641467E+03</pdfrwt>
<totfact> 0.47711300E+04</totfact>
</mgrwt>
</event>
<event>
 7    0  0.4759581E-002  0.4538806E+03  0.7546771E-02  0.1026571E+00
         21   -1    0    0  502  501  0.00000000000E+00  0.00000000000E+00  0.58607077218E+03  0.58607077218E+03  0.00000000000E+00 0.  1.
         21   -1    0    0  501  502 -0.00000000000E+00 -0.00000000000E+00 -0.87876595198E+02  0.87876595198E+02  0.00000000000E+00 0.  1.
      99926    2    1    2    0    0 -0.14210854715E-13  0.35527136788E-14  0.49819417698E+03  0.67394736738E+03  0.45388061868E+03 0.  0.
      99925    2    3    3    0    0 -0.87053737440E+02  0.25883063291E+02  0.41122924197E+03  0.49658137800E+03  0.26312599520E+03 0.  0.
         25    1    4    4    0    0 -0.14262581641E+02 -0.15321712627E+02  0.20968399530E+03  0.24505726289E+03  0.12509000000E+03 0.  0.
         25    1    3    3    0    0  0.87053737440E+02 -0.25883063291E+02  0.86964935007E+02  0.17736598938E+03  0.12509000000E+03 0.  0.
         25    1    4    4    0    0 -0.72791155799E+02  0.41204775918E+02  0.20154524668E+03  0.25152411510E+03  0.12509000000E+03 0.  0.
<mgrwt>
<rscale>  2 0.45388062E+03</rscale>
<asrwt>0</asrwt>
<pdfrwt beam="1">  1       21 0.86186876E-01 0.45388062E+03</pdfrwt>
<pdfrwt beam="2">  1       21 0.12923029E-01 0.45388062E+03</pdfrwt>
<totfact> 0.54822827E+04</totfact>
</mgrwt>
</event>
<event>
 7    0  0.4759581E-002  0.4546862E+03  0.7546771E-02  0.1026334E+00
         21   -1    0    0  502  501  0.00000000000E+00  0.00000000000E+00  0.93060045350E+03  0.93060045350E+03  0.00000000000E+00 0. -1.
         21   -1    0    0  501  502 -0.00000000000E+00 -0.00000000000E+00 -0.55539292086E+02  0.55539292086E+02  0.00000000000E+00 0. -1.
      99926    2    1    2    0    0  0.00000000000E+00  0.00000000000E+00  0.87506116141E+03  0.98613974558E+03  0.45468622324E+03 0.  0.
      99925    2    3    3    0    0  0.16896008375E+02  0.85562873340E+02  0.39417698038E+03  0.48165626314E+03  0.26269903610E+03 0.  0.
         25    1    3    3    0    0 -0.16896008375E+02 -0.85562873340E+02  0.48088418103E+03  0.50448348244E+03  0.12509000000E+03 0.  0.
         25    1    4    4    0    0 -0.15786061338E+01  0.12242941357E+02  0.22791921156E+03  0.26028264772E+03  0.12509000000E+03 0.  0.
         25    1    4    4    0    0  0.18474614509E+02  0.73319931983E+02  0.16625776883E+03  0.22137361542E+03  0.12509000000E+03 0.  0.
<mgrwt>
<rscale>  2 0.45468622E+03</rscale>
<asrwt>0</asrwt>
<pdfrwt beam="1">  1       21 0.13685300E+00 0.45468622E+03</pdfrwt>
<pdfrwt beam="2">  1       21 0.81675435E-02 0.45468622E+03</pdfrwt>
<totfact> 0.39807614E+04</totfact>
</mgrwt>
</event>
<event>
 7    0  0.4759581E-002  0.4555403E+03  0.7546771E-02  0.1026083E+00
         21   -1    0    0  502  501  0.00000000000E+00  0.00000000000E+00  0.82597647283E+02  0.82597647283E+02  0.00000000000E+00 0.  1.
         21   -1    0    0  501  502 -0.00000000000E+00 -0.00000000000E+00 -0.62809575919E+03  0.62809575919E+03  0.00000000000E+00 0.  1.
      99926    2    1    2    0    0  0.00000000000E+00  0.00000000000E+00 -0.54549811191E+03  0.71069340647E+03  0.45554025937E+03 0.  0.
      99925    2    3    3    0    0 -0.69809756295E+02 -0.74633603967E+01 -0.20345263576E+03  0.33978678793E+03  0.26293151662E+03 0.  0.
         25    1    4    4    0    0 -0.18989476954E+02 -0.57032491067E+01 -0.14534417918E+03  0.19278372807E+03  0.12509000000E+03 0.  0.
         25    1    3    3    0    0  0.69809756295E+02  0.74633603967E+01 -0.34204547615E+03  0.37090661854E+03  0.12509000000E+03 0.  0.
         25    1    4    4    0    0 -0.50820279341E+02 -0.17601112900E+01 -0.58108456573E+02  0.14700305986E+03  0.12509000000E+03 0.  0.
<mgrwt>
<rscale>  2 0.45554026E+03</rscale>
<asrwt>0</asrwt>
<pdfrwt beam="1">  1       21 0.12146713E-01 0.45554026E+03</pdfrwt>
<pdfrwt beam="2">  1       21 0.92367021E-01 0.45554026E+03</pdfrwt>
<totfact> 0.52104408E+04</totfact>
</mgrwt>
</event>
<event>
 7    0  0.4759581E-002  0.4501449E+03  0.7546771E-02  0.1027679E+00
         21   -1    0    0  502  501  0.00000000000E+00  0.00000000000E+00  0.11043114471E+03  0.11043114471E+03  0.00000000000E+00 0.  1.
         21   -1    0    0  501  502 -0.00000000000E+00 -0.00000000000E+00 -0.45872582009E+03  0.45872582009E+03  0.00000000000E+00 0.  1.
      99926    2    1    2    0    0  0.00000000000E+00  0.14210854715E-13 -0.34829467537E+03  0.56915696480E+03  0.45014494298E+03 0.  0.
      99925    2    3    3    0    0 -0.49962735044E+02  0.70148289850E+02 -0.13659531259E+03  0.30861678409E+03  0.26299996680E+03 0.  0.
         25    1    4    4    0    0 -0.42857200491E+02  0.50825765562E+02 -0.10933545462E+03  0.17894621487E+03  0.12509000000E+03 0.  0.
         25    1    4    4    0    0 -0.71055345531E+01  0.19322524287E+02 -0.27259857976E+02  0.12967056922E+03  0.12509000000E+03 0.  0.
         25    1    3    3    0    0  0.49962735044E+02 -0.70148289850E+02 -0.21169936278E+03  0.26054018071E+03  0.12509000000E+03 0.  0.
<mgrwt>
<rscale>  2 0.45014494E+03</rscale>
<asrwt>0</asrwt>
<pdfrwt beam="1">  1       21 0.16239874E-01 0.45014494E+03</pdfrwt>
<pdfrwt beam="2">  1       21 0.67459679E-01 0.45014494E+03</pdfrwt>
<totfact> 0.63002323E+04</totfact>
</mgrwt>
</event>
<event>
 7    0  0.4759581E-002  0.4638694E+03  0.7546771E-02  0.1023665E+00
         21   -1    0    0  502  501  0.00000000000E+00  0.00000000000E+00  0.27309059599E+02  0.27309059599E+02  0.00000000000E+00 0. -1.
         21   -1    0    0  501  502 -0.00000000000E+00 -0.00000000000E+00 -0.19698119951E+04  0.19698119951E+04  0.00000000000E+00 0. -1.
      99926    2    1    2    0    0  0.00000000000E+00  0.00000000000E+00 -0.19425029355E+04  0.19971210547E+04  0.46386943496E+03 0.  0.
      99925    2    3    3    0    0  0.75315848785E+02  0.44280007510E+02 -0.15754647160E+04  0.15996317356E+04  0.26286768905E+03 0.  0.
         25    1    4    4    0    0  0.23591863820E+02 -0.80873842253E+01 -0.59814565792E+03  0.61159440646E+03  0.12509000000E+03 0.  0.
         25    1    4    4    0    0  0.51723984965E+02  0.52367391736E+02 -0.97731905811E+03  0.98803732914E+03  0.12509000000E+03 0.  0.
         25    1    3    3    0    0 -0.75315848785E+02 -0.44280007510E+02 -0.36703821947E+03  0.39748931909E+03  0.12509000000E+03 0.  0.
<mgrwt>
<rscale>  2 0.46386943E+03</rscale>
<asrwt>0</asrwt>
<pdfrwt beam="1">  1       21 0.40160386E-02 0.46386943E+03</pdfrwt>
<pdfrwt beam="2">  1       21 0.28967820E+00 0.46386943E+03</pdfrwt>
<totfact> 0.12849156E+04</totfact>
</mgrwt>
</event>
<event>
 7    0  0.4759581E-002  0.4689168E+03  0.7546771E-02  0.1022226E+00
         21   -1    0    0  502  501  0.00000000000E+00  0.00000000000E+00  0.45149309526E+03  0.45149309526E+03  0.00000000000E+00 0.  1.
         21   -1    0    0  501  502 -0.00000000000E+00 -0.00000000000E+00 -0.12175324108E+03  0.12175324108E+03  0.00000000000E+00 0.  1.
      99926    2    1    2    0    0  0.00000000000E+00  0.35527136788E-14  0.32973985419E+03  0.57324633634E+03  0.46891682705E+03 0.  0.
      99925    2    3    3    0    0 -0.11552140326E+03 -0.18479022945E+02  0.14860779723E+03  0.32396136075E+03  0.26302094396E+03 0.  0.
         25    1    3    3    0    0  0.11552140326E+03  0.18479022945E+02  0.18113205695E+03  0.24928497559E+03  0.12509000000E+03 0.  0.
         25    1    4    4    0    0 -0.85215216013E+02 -0.38231873554E+02  0.64296256153E+02  0.16883372249E+03  0.12509000000E+03 0.  0.
         25    1    4    4    0    0 -0.30306187245E+02  0.19752850609E+02  0.84311541081E+02  0.15512763826E+03  0.12509000000E+03 0.  0.
<mgrwt>
<rscale>  2 0.46891683E+03</rscale>
<asrwt>0</asrwt>
<pdfrwt beam="1">  1       21 0.66396043E-01 0.46891683E+03</pdfrwt>
<pdfrwt beam="2">  1       21 0.17904889E-01 0.46891683E+03</pdfrwt>
<totfact> 0.54146700E+04</totfact>
</mgrwt>
</event>
<event>
 7    0  0.4759581E-002  0.4561372E+03  0.7546771E-02  0.1025908E+00
         21   -1    0    0  502  501  0.00000000000E+00  0.00000000000E+00  0.26487684366E+03  0.26487684366E+03  0.00000000000E+00 0. -1.
         21   -1    0    0  501  502 -0.00000000000E+00 -0.00000000000E+00 -0.19637539310E+03  0.19637539310E+03  0.00000000000E+00 0. -1.
      99926    2    1    2    0    0 -0.71054273576E-14 -0.14210854715E-13  0.68501450557E+02  0.46125223676E+03  0.45613723504E+03 0.  0.
      99925    2    3    3    0    0  0.39797990981E+02  0.10098387346E+03  0.67964878295E+01  0.28451335221E+03  0.26290688952E+03 0.  0.
         25    1    3    3    0    0 -0.39797990981E+02 -0.10098387346E+03  0.61704962727E+02  0.17673888454E+03  0.12509000000E+03 0.  0.
         25    1    4    4    0    0 -0.45718190464E+01  0.83110348557E+02  0.96157634826E+01  0.15055963129E+03  0.12509000000E+03 0.  0.
         25    1    4    4    0    0  0.44369810027E+02  0.17873524903E+02 -0.28192756531E+01  0.13395372092E+03  0.12509000000E+03 0.  0.
<mgrwt>
<rscale>  2 0.45613724E+03</rscale>
<asrwt>0</asrwt>
<pdfrwt beam="1">  1       21 0.38952477E-01 0.45613724E+03</pdfrwt>
<pdfrwt beam="2">  1       21 0.28878734E-01 0.45613724E+03</pdfrwt>
<totfact> 0.67475387E+04</totfact>
</mgrwt>
</event>
<event>
 7    0  0.4759581E-002  0.4543845E+03  0.7546771E-02  0.1026423E+00
         21   -1    0    0  502  501  0.00000000000E+00  0.00000000000E+00  0.12392546755E+04  0.12392546755E+04  0.00000000000E+00 0. -1.
         21   -1    0    0  501  502 -0.00000000000E+00 -0.00000000000E+00 -0.41651094750E+02  0.41651094750E+02  0.00000000000E+00 0. -1.
      99926    2    1    2    0    0  0.00000000000E+00 -0.26645352591E-14  0.11976035807E+04  0.12809057702E+04  0.45438447996E+03 0.  0.
      99925    2    3    3    0    0  0.10881476130E+03 -0.24203392044E+01  0.83544567335E+03  0.88259387197E+03  0.26297520681E+03 0.  0.
         25    1    4    4    0    0  0.56908778353E+02 -0.26198047394E+02  0.51981464140E+03  0.53831191354E+03  0.12509000000E+03 0.  0.
         25    1    4    4    0    0  0.51905982945E+02  0.23777708190E+02  0.31563103194E+03  0.34428195843E+03  0.12509000000E+03 0.  0.
         25    1    3    3    0    0 -0.10881476130E+03  0.24203392044E+01  0.36215790737E+03  0.39831189825E+03  0.12509000000E+03 0.  0.
<mgrwt>
<rscale>  2 0.45438448E+03</rscale>
<asrwt>0</asrwt>
<pdfrwt beam="1">  1       21 0.18224331E+00 0.45438448E+03</pdfrwt>
<pdfrwt beam="2">  1       21 0.61251618E-02 0.45438448E+03</pdfrwt>
<totfact> 0.29816942E+04</totfact>
</mgrwt>
</event>
<event>
 7    0  0.4759581E-002  0.4540123E+03  0.7546771E-02  0.1026532E+00
         21   -1    0    0  502  501  0.00000000000E+00  0.00000000000E+00  0.26731498545E+03  0.26731498545E+03  0.00000000000E+00 0.  1.
         21   -1    0    0  501  502 -0.00000000000E+00 -0.00000000000E+00 -0.19277557831E+03  0.19277557831E+03  0.00000000000E+00 0.  1.
      99926    2    1    2    0    0  0.17763568394E-14  0.00000000000E+00  0.74539407141E+02  0.46009056376E+03  0.45401233865E+03 0.  0.
      99925    2    3    3    0    0 -0.15019571515E+02 -0.77911702024E+02 -0.33398454756E+02  0.27680414590E+03  0.26307652417E+03 0.  0.
         25    1    3    3    0    0  0.15019571515E+02  0.77911702024E+02  0.10793786190E+03  0.18328641786E+03  0.12509000000E+03 0.  0.
         25    1    4    4    0    0 -0.41633761191E+02 -0.45515478757E+02  0.44818173910E+01  0.13954434300E+03  0.12509000000E+03 0.  0.
         25    1    4    4    0    0  0.26614189676E+02 -0.32396223266E+02 -0.37880272147E+02  0.13725980290E+03  0.12509000000E+03 0.  0.
<mgrwt>
<rscale>  2 0.45401234E+03</rscale>
<asrwt>0</asrwt>
<pdfrwt beam="1">  1       21 0.39311028E-01 0.45401234E+03</pdfrwt>
<pdfrwt beam="2">  1       21 0.28349349E-01 0.45401234E+03</pdfrwt>
<totfact> 0.68713507E+04</totfact>
</mgrwt>
</event>
<event>
 7    0  0.4759581E-002  0.4587205E+03  0.7546771E-02  0.1025153E+00
         21   -1    0    0  502  501  0.00000000000E+00  0.00000000000E+00  0.13501526637E+04  0.13501526637E+04  0.00000000000E+00 0. -1.
         21   -1    0    0  501  502 -0.00000000000E+00 -0.00000000000E+00 -0.38963086270E+02  0.38963086270E+02  0.00000000000E+00 0. -1.
      99926    2    1    2    0    0  0.88817841970E-15  0.35527136788E-14  0.13111895775E+04  0.13891157500E+04  0.45872045830E+03 0.  0.
      99925    2    3    3    0    0 -0.42032896676E+01 -0.24892110445E+02  0.47752349468E+03  0.54573924423E+03  0.26299306058E+03 0.  0.
         25    1    4    4    0    0  0.67366350112E+00 -0.43048359447E+02  0.18894290228E+03  0.23065243006E+03  0.12509000000E+03 0.  0.
         25    1    4    4    0    0 -0.48769531688E+01  0.18156249002E+02  0.28858059240E+03  0.31508681417E+03  0.12509000000E+03 0.  0.
         25    1    3    3    0    0  0.42032896676E+01  0.24892110445E+02  0.83366608278E+03  0.84337650577E+03  0.12509000000E+03 0.  0.
<mgrwt>
<rscale>  2 0.45872046E+03</rscale>
<asrwt>0</asrwt>
<pdfrwt beam="1">  1       21 0.19855183E+00 0.45872046E+03</pdfrwt>
<pdfrwt beam="2">  1       21 0.57298665E-02 0.45872046E+03</pdfrwt>
<totfact> 0.25867451E+04</totfact>
</mgrwt>
</event>
<event>
 7    0  0.4759581E-002  0.4585160E+03  0.7546771E-02  0.1025213E+00
         21   -1    0    0  502  501  0.00000000000E+00  0.00000000000E+00  0.63622449323E+03  0.63622449323E+03  0.00000000000E+00 0. -1.
         21   -1    0    0  501  502 -0.00000000000E+00 -0.00000000000E+00 -0.82611123322E+02  0.82611123322E+02  0.00000000000E+00 0. -1.
      99926    2    1    2    0    0 -0.14210854715E-13  0.00000000000E+00  0.55361336991E+03  0.71883561655E+03  0.45851595423E+03 0.  0.
      99925    2    3    3    0    0  0.11037772325E+03 -0.17992291599E+02  0.29659427827E+03  0.41189378833E+03  0.26302350203E+03 0.  0.
         25    1    3    3    0    0 -0.11037772325E+03  0.17992291599E+02  0.25701909164E+03  0.30694182822E+03  0.12509000000E+03 0.  0.
         25    1    4    4    0    0  0.52406002528E+02  0.28213300234E+02  0.12119296048E+03  0.18405874383E+03  0.12509000000E+03 0.  0.
         25    1    4    4    0    0  0.57971720717E+02 -0.46205591834E+02  0.17540131779E+03  0.22783504450E+03  0.12509000000E+03 0.  0.
<mgrwt>
<rscale>  2 0.45851595E+03</rscale>
<asrwt>0</asrwt>
<pdfrwt beam="1">  1       21 0.93562423E-01 0.45851595E+03</pdfrwt>
<pdfrwt beam="2">  1       21 0.12148695E-01 0.45851595E+03</pdfrwt>
<totfact> 0.50481570E+04</totfact>
</mgrwt>
</event>
<event>
 7    0  0.4759581E-002  0.4521750E+03  0.7546771E-02  0.1027075E+00
         21   -1    0    0  502  501  0.00000000000E+00  0.00000000000E+00  0.55451700122E+02  0.55451700122E+02  0.00000000000E+00 0.  1.
         21   -1    0    0  501  502 -0.00000000000E+00 -0.00000000000E+00 -0.92180324486E+03  0.92180324486E+03  0.00000000000E+00 0.  1.
      99926    2    1    2    0    0  0.00000000000E+00  0.00000000000E+00 -0.86635154474E+03  0.97725494499E+03  0.45217499756E+03 0.  0.
      99925    2    3    3    0    0  0.42669755277E+02 -0.10143515210E+03 -0.52891129265E+03  0.60092632539E+03  0.26316438770E+03 0.  0.
         25    1    3    3    0    0 -0.42669755277E+02  0.10143515210E+03 -0.33744025209E+03  0.37632861960E+03  0.12509000000E+03 0.  0.
         25    1    4    4    0    0  0.59618734294E+01 -0.86555831880E+02 -0.31744692735E+03  0.35206180672E+03  0.12509000000E+03 0.  0.
         25    1    4    4    0    0  0.36707881847E+02 -0.14879320219E+02 -0.21146436530E+03  0.24886451867E+03  0.12509000000E+03 0.  0.
<mgrwt>
<rscale>  2 0.45217500E+03</rscale>
<asrwt>0</asrwt>
<pdfrwt beam="1">  1       21 0.81546622E-02 0.45217500E+03</pdfrwt>
<pdfrwt beam="2">  1       21 0.13555929E+00 0.45217500E+03</pdfrwt>
<totfact> 0.40953307E+04</totfact>
</mgrwt>
</event>
<event>
 7    0  0.4759581E-002  0.4567641E+03  0.7546771E-02  0.1025724E+00
         21   -1    0    0  502  501  0.00000000000E+00  0.00000000000E+00  0.30286961453E+02  0.30286961453E+02  0.00000000000E+00 0. -1.
         21   -1    0    0  501  502 -0.00000000000E+00 -0.00000000000E+00 -0.17221388022E+04  0.17221388022E+04  0.00000000000E+00 0. -1.
      99926    2    1    2    0    0  0.88817841970E-15  0.14210854715E-13 -0.16918518407E+04  0.17524257636E+04  0.45676405952E+03 0.  0.
      99925    2    3    3    0    0 -0.35695375370E+01  0.11468124410E+03 -0.10490941142E+04  0.10876329144E+04  0.26302541053E+03 0.  0.
         25    1    4    4    0    0 -0.36636764474E+02  0.34952283094E+02 -0.50161084841E+03  0.51944669212E+03  0.12509000000E+03 0.  0.
         25    1    3    3    0    0  0.35695375370E+01 -0.11468124410E+03 -0.64275772649E+03  0.66479284924E+03  0.12509000000E+03 0.  0.
         25    1    4    4    0    0  0.33067226937E+02  0.79728961005E+02 -0.54748326581E+03  0.56818622225E+03  0.12509000000E+03 0.  0.
<mgrwt>
<rscale>  2 0.45676406E+03</rscale>
<asrwt>0</asrwt>
<pdfrwt beam="1">  1       21 0.44539633E-02 0.45676406E+03</pdfrwt>
<pdfrwt beam="2">  1       21 0.25325580E+00 0.45676406E+03</pdfrwt>
<totfact> 0.17944731E+04</totfact>
</mgrwt>
</event>
<event>
 7    0  0.4759581E-002  0.4729659E+03  0.7546771E-02  0.1021086E+00
         21   -1    0    0  502  501  0.00000000000E+00  0.00000000000E+00  0.30572078240E+02  0.30572078240E+02  0.00000000000E+00 0. -1.
         21   -1    0    0  501  502 -0.00000000000E+00 -0.00000000000E+00 -0.18292570794E+04  0.18292570794E+04  0.00000000000E+00 0. -1.
      99926    2    1    2    0    0  0.00000000000E+00 -0.71054273576E-14 -0.17986850012E+04  0.18598291576E+04  0.47296592077E+03 0.  0.
      99925    2    3    3    0    0  0.65550418106E+02  0.61757746356E+02 -0.74992918078E+03  0.79980691475E+03  0.26303316928E+03 0.  0.
         25    1    4    4    0    0  0.40418809964E+02 -0.73379148122E+01 -0.31888543515E+03  0.34499703484E+03  0.12509000000E+03 0.  0.
         25    1    3    3    0    0 -0.65550418106E+02 -0.61757746356E+02 -0.10487558204E+04  0.10600222429E+04  0.12509000000E+03 0.  0.
         25    1    4    4    0    0  0.25131608142E+02  0.69095661169E+02 -0.43104374563E+03  0.45480987991E+03  0.12509000000E+03 0.  0.
<mgrwt>
<rscale>  2 0.47296592E+03</rscale>
<asrwt>0</asrwt>
<pdfrwt beam="1">  1       21 0.44958933E-02 0.47296592E+03</pdfrwt>
<pdfrwt beam="2">  1       21 0.26900843E+00 0.47296592E+03</pdfrwt>
<totfact> 0.14069544E+04</totfact>
</mgrwt>
</event>
<event>
 7    0  0.4759581E-002  0.4548295E+03  0.7546771E-02  0.1026292E+00
         21   -1    0    0  502  501  0.00000000000E+00  0.00000000000E+00  0.23491800873E+03  0.23491800873E+03  0.00000000000E+00 0. -1.
         21   -1    0    0  501  502 -0.00000000000E+00 -0.00000000000E+00 -0.22015110142E+03  0.22015110142E+03  0.00000000000E+00 0. -1.
      99926    2    1    2    0    0  0.00000000000E+00  0.00000000000E+00  0.14766907310E+02  0.45506911015E+03  0.45482945536E+03 0.  0.
      99925    2    3    3    0    0  0.75161610429E+02  0.30611097254E+02  0.88005599811E+02  0.28894349161E+03  0.26297727808E+03 0.  0.
         25    1    3    3    0    0 -0.75161610429E+02 -0.30611097254E+02 -0.73238692501E+02  0.16612561854E+03  0.12509000000E+03 0.  0.
         25    1    4    4    0    0  0.26943258692E+02 -0.15494705226E+02  0.15836044475E+02  0.12986267163E+03  0.12509000000E+03 0.  0.
         25    1    4    4    0    0  0.48218351737E+02  0.46105802479E+02  0.72169555336E+02  0.15908081997E+03  0.12509000000E+03 0.  0.
<mgrwt>
<rscale>  2 0.45482946E+03</rscale>
<asrwt>0</asrwt>
<pdfrwt beam="1">  1       21 0.34546766E-01 0.45482946E+03</pdfrwt>
<pdfrwt beam="2">  1       21 0.32375162E-01 0.45482946E+03</pdfrwt>
<totfact> 0.68634089E+04</totfact>
</mgrwt>
</event>
<event>
 7    0  0.4759581E-002  0.4570760E+03  0.7546771E-02  0.1025633E+00
         21   -1    0    0  502  501  0.00000000000E+00  0.00000000000E+00  0.17038069197E+03  0.17038069197E+03  0.00000000000E+00 0.  1.
         21   -1    0    0  501  502 -0.00000000000E+00 -0.00000000000E+00 -0.30654661321E+03  0.30654661321E+03  0.00000000000E+00 0.  1.
      99926    2    1    2    0    0  0.00000000000E+00  0.00000000000E+00 -0.13616592125E+03  0.47692730518E+03  0.45707602904E+03 0.  0.
      99925    2    3    3    0    0  0.95387432126E+02 -0.53567194153E+02 -0.12296100341E+03  0.31022372258E+03  0.26296604951E+03 0.  0.
         25    1    4    4    0    0  0.21070096296E+02 -0.31675955402E+02 -0.91977273136E+02  0.15985819335E+03  0.12509000000E+03 0.  0.
         25    1    4    4    0    0  0.74317335830E+02 -0.21891238751E+02 -0.30983730271E+02  0.15036552923E+03  0.12509000000E+03 0.  0.
         25    1    3    3    0    0 -0.95387432126E+02  0.53567194153E+02 -0.13204917839E+02  0.16670358260E+03  0.12509000000E+03 0.  0.
<mgrwt>
<rscale>  2 0.45707603E+03</rscale>
<asrwt>0</asrwt>
<pdfrwt beam="1">  1       21 0.25055985E-01 0.45707603E+03</pdfrwt>
<pdfrwt beam="2">  1       21 0.45080384E-01 0.45707603E+03</pdfrwt>
<totfact> 0.65833117E+04</totfact>
</mgrwt>
</event>
<event>
 7    0  0.4759581E-002  0.4510411E+03  0.7546771E-02  0.1027412E+00
         21   -1    0    0  502  501  0.00000000000E+00  0.00000000000E+00  0.33022869345E+02  0.33022869345E+02  0.00000000000E+00 0.  1.
         21   -1    0    0  501  502 -0.00000000000E+00 -0.00000000000E+00 -0.15401300459E+04  0.15401300459E+04  0.00000000000E+00 0.  1.
      99926    2    1    2    0    0  0.00000000000E+00  0.53290705182E-14 -0.15071071766E+04  0.15731529153E+04  0.45104107698E+03 0.  0.
      99925    2    3    3    0    0  0.87344259222E+02  0.12933656710E+02 -0.11766814519E+04  0.12089758063E+04  0.26314817458E+03 0.  0.
         25    1    4    4    0    0  0.61449691201E+02  0.36945456804E+02 -0.52380535373E+03  0.54328683771E+03  0.12509000000E+03 0.  0.
         25    1    3    3    0    0 -0.87344259222E+02 -0.12933656710E+02 -0.33042572467E+03  0.36417710900E+03  0.12509000000E+03 0.  0.
         25    1    4    4    0    0  0.25894568021E+02 -0.24011800094E+02 -0.65287609816E+03  0.66568896855E+03  0.12509000000E+03 0.  0.
<mgrwt>
<rscale>  2 0.45104108E+03</rscale>
<asrwt>0</asrwt>
<pdfrwt beam="1">  1       21 0.48563026E-02 0.45104108E+03</pdfrwt>
<pdfrwt beam="2">  1       21 0.22648979E+00 0.45104108E+03</pdfrwt>
<totfact> 0.22732781E+04</totfact>
</mgrwt>
</event>
<event>
 7    0  0.4759581E-002  0.4097446E+03  0.7546771E-02  0.1040457E+00
         21   -1    0    0  502  501  0.00000000000E+00  0.00000000000E+00  0.61868911678E+02  0.61868911678E+02  0.00000000000E+00 0. -1.
         21   -1    0    0  501  502 -0.00000000000E+00 -0.00000000000E+00 -0.67841260162E+03  0.67841260162E+03  0.00000000000E+00 0. -1.
      99926    2    1    2    0    0  0.00000000000E+00 -0.35527136788E-14 -0.61654368994E+03  0.74028151330E+03  0.40974455130E+03 0.  0.
      99925    2    3    3    0    0 -0.10232659840E+02 -0.73353420434E+01 -0.51603268720E+03  0.57932038649E+03  0.26299023057E+03 0.  0.
         25    1    4    4    0    0 -0.21366358941E+02  0.32390954509E+02 -0.23769033844E+03  0.27138515124E+03  0.12509000000E+03 0.  0.
         25    1    3    3    0    0  0.10232659840E+02  0.73353420434E+01 -0.10051100274E+03  0.16096112681E+03  0.12509000000E+03 0.  0.
         25    1    4    4    0    0  0.11133699101E+02 -0.39726296553E+02 -0.27834234877E+03  0.30793523525E+03  0.12509000000E+03 0.  0.
<mgrwt>
<rscale>  2 0.40974455E+03</rscale>
<asrwt>0</asrwt>
<pdfrwt beam="1">  1       21 0.90983690E-02 0.40974455E+03</pdfrwt>
<pdfrwt beam="2">  1       21 0.99766563E-01 0.40974455E+03</pdfrwt>
<totfact> 0.73692841E+04</totfact>
</mgrwt>
</event>
<event>
 7    0  0.4759581E-002  0.4523936E+03  0.7546771E-02  0.1027011E+00
         21   -1    0    0  502  501  0.00000000000E+00  0.00000000000E+00  0.26312621760E+03  0.26312621760E+03  0.00000000000E+00 0.  1.
         21   -1    0    0  501  502 -0.00000000000E+00 -0.00000000000E+00 -0.19445035136E+03  0.19445035136E+03  0.00000000000E+00 0.  1.
      99926    2    1    2    0    0 -0.71054273576E-14  0.35527136788E-14  0.68675866234E+02  0.45757656896E+03  0.45239356965E+03 0.  0.
      99925    2    3    3    0    0  0.45087087480E+02 -0.18448038590E+02 -0.57052127458E+02  0.27365209510E+03  0.26316790899E+03 0.  0.
         25    1    3    3    0    0 -0.45087087480E+02  0.18448038590E+02  0.12572799369E+03  0.18392447386E+03  0.12509000000E+03 0.  0.
         25    1    4    4    0    0  0.28331631050E+02 -0.27689247508E+02 -0.65834176544E+02  0.14680266567E+03  0.12509000000E+03 0.  0.
         25    1    4    4    0    0  0.16755456430E+02  0.92412089174E+01  0.87820490860E+01  0.12684942944E+03  0.12509000000E+03 0.  0.
<mgrwt>
<rscale>  2 0.45239357E+03</rscale>
<asrwt>0</asrwt>
<pdfrwt beam="1">  1       21 0.38695032E-01 0.45239357E+03</pdfrwt>
<pdfrwt beam="2">  1       21 0.28595640E-01 0.45239357E+03</pdfrwt>
<totfact> 0.69797049E+04</totfact>
</mgrwt>
</event>
<event>
 6    0  0.4759581E-002  0.4384594E+03  0.7546771E-02  0.1031221E+00
         21   -1    0    0  502  501  0.00000000000E+00  0.00000000000E+00  0.17743590405E+03  0.17743590405E+03  0.00000000000E+00 0.  1.
         21   -1    0    0  501  502 -0.00000000000E+00 -0.00000000000E+00 -0.27086770413E+03  0.27086770413E+03  0.00000000000E+00 0.  1.
      99926    2    1    2    0    0  0.35527136788E-14  0.14210854715E-13 -0.93431800080E+02  0.44830360817E+03  0.43845937535E+03 0.  0.
         25    1    3    3    0    0  0.81449020341E+01  0.19555417805E+00 -0.61004387251E+01  0.12550339088E+03  0.12509000000E+03 0.  0.
         25    1    3    3    0    0  0.29007424463E+02 -0.79936850339E+02 -0.76469157594E+02  0.16948855678E+03  0.12509000000E+03 0.  0.
         25    1    3    3    0    0 -0.37152326497E+02  0.79741296161E+02 -0.10862203761E+02  0.15331166051E+03  0.12509000000E+03 0.  0.
<mgrwt>
<rscale>  2 0.43845938E+03</rscale>
<asrwt>0</asrwt>
<pdfrwt beam="1">  1       21 0.26093515E-01 0.43845938E+03</pdfrwt>
<pdfrwt beam="2">  1       21 0.39833486E-01 0.43845938E+03</pdfrwt>
<totfact> 0.78943815E+04</totfact>
</mgrwt>
</event>
<event>
 7    0  0.4759581E-002  0.4547863E+03  0.7546771E-02  0.1026304E+00
         21   -1    0    0  502  501  0.00000000000E+00  0.00000000000E+00  0.23626150063E+03  0.23626150063E+03  0.00000000000E+00 0. -1.
         21   -1    0    0  501  502 -0.00000000000E+00 -0.00000000000E+00 -0.21885768275E+03  0.21885768275E+03  0.00000000000E+00 0. -1.
      99926    2    1    2    0    0  0.00000000000E+00  0.00000000000E+00  0.17403817873E+02  0.45511918338E+03  0.45478629949E+03 0.  0.
      99925    2    3    3    0    0  0.55675667827E+01  0.11193516713E+03  0.43259374184E+01  0.28665845058E+03  0.26380650885E+03 0.  0.
         25    1    4    4    0    0 -0.64321410087E+01  0.98635733369E+02 -0.84144612900E+01  0.15965178231E+03  0.12509000000E+03 0.  0.
         25    1    4    4    0    0  0.11999707791E+02  0.13299433756E+02  0.12740398708E+02  0.12700666827E+03  0.12509000000E+03 0.  0.
         25    1    3    3    0    0 -0.55675667827E+01 -0.11193516713E+03  0.13077880455E+02  0.16846073280E+03  0.12509000000E+03 0.  0.
<mgrwt>
<rscale>  2 0.45478630E+03</rscale>
<asrwt>0</asrwt>
<pdfrwt beam="1">  1       21 0.34744338E-01 0.45478630E+03</pdfrwt>
<pdfrwt beam="2">  1       21 0.32184953E-01 0.45478630E+03</pdfrwt>
<totfact> 0.68654066E+04</totfact>
</mgrwt>
</event>
<event>
 7    0  0.4759581E-002  0.4557056E+03  0.7546771E-02  0.1026034E+00
         21   -1    0    0  502  501  0.00000000000E+00  0.00000000000E+00  0.56244652513E+03  0.56244652513E+03  0.00000000000E+00 0. -1.
         21   -1    0    0  501  502 -0.00000000000E+00 -0.00000000000E+00 -0.92305484501E+02  0.92305484501E+02  0.00000000000E+00 0. -1.
      99926    2    1    2    0    0  0.00000000000E+00  0.00000000000E+00  0.47014104063E+03  0.65475200963E+03  0.45570560237E+03 0.  0.
      99925    2    3    3    0    0 -0.51707793074E+02 -0.56888080359E+02  0.17664272433E+03  0.32657717921E+03  0.26370447924E+03 0.  0.
         25    1    4    4    0    0 -0.47860294489E+02 -0.48904512311E+02  0.57947201528E+02  0.15390791201E+03  0.12509000000E+03 0.  0.
         25    1    3    3    0    0  0.51707793074E+02  0.56888080359E+02  0.29349831630E+03  0.32817483042E+03  0.12509000000E+03 0.  0.
         25    1    4    4    0    0 -0.38474985846E+01 -0.79835680481E+01  0.11869552281E+03  0.17266926721E+03  0.12509000000E+03 0.  0.
<mgrwt>
<rscale>  2 0.45570560E+03</rscale>
<asrwt>0</asrwt>
<pdfrwt beam="1">  1       21 0.82712723E-01 0.45570560E+03</pdfrwt>
<pdfrwt beam="2">  1       21 0.13574336E-01 0.45570560E+03</pdfrwt>
<totfact> 0.55121134E+04</totfact>
</mgrwt>
</event>
<event>
 7    0  0.4759581E-002  0.4713974E+03  0.7546771E-02  0.1021527E+00
         21   -1    0    0  502  501  0.00000000000E+00  0.00000000000E+00  0.87140012726E+02  0.87140012726E+02  0.00000000000E+00 0. -1.
         21   -1    0    0  501  502 -0.00000000000E+00 -0.00000000000E+00 -0.63752434440E+03  0.63752434440E+03  0.00000000000E+00 0. -1.
      99926    2    1    2    0    0  0.14210854715E-13  0.35527136788E-14 -0.55038433167E+03  0.72466435712E+03  0.47139740977E+03 0.  0.
      99925    2    3    3    0    0 -0.76187119620E+02  0.30223652268E+02 -0.19046740935E+03  0.33491360930E+03  0.26300445874E+03 0.  0.
         25    1    4    4    0    0 -0.71870286204E+02 -0.74596196735E+01 -0.92090113844E+02  0.17131573522E+03  0.12509000000E+03 0.  0.
         25    1    4    4    0    0 -0.43168334160E+01  0.37683271942E+02 -0.98377295502E+02  0.16359787409E+03  0.12509000000E+03 0.  0.
         25    1    3    3    0    0  0.76187119620E+02 -0.30223652268E+02 -0.35991692233E+03  0.38975074782E+03  0.12509000000E+03 0.  0.
<mgrwt>
<rscale>  2 0.47139741E+03</rscale>
<asrwt>0</asrwt>
<pdfrwt beam="1">  1       21 0.12814708E-01 0.47139741E+03</pdfrwt>
<pdfrwt beam="2">  1       21 0.93753581E-01 0.47139741E+03</pdfrwt>
<totfact> 0.45434971E+04</totfact>
</mgrwt>
</event>
<event>
 7    0  0.4759581E-002  0.4586908E+03  0.7546771E-02  0.1025162E+00
         21   -1    0    0  502  501  0.00000000000E+00  0.00000000000E+00  0.13250008877E+03  0.13250008877E+03  0.00000000000E+00 0.  1.
         21   -1    0    0  501  502 -0.00000000000E+00 -0.00000000000E+00 -0.39697563951E+03  0.39697563951E+03  0.00000000000E+00 0.  1.
      99926    2    1    2    0    0  0.00000000000E+00  0.00000000000E+00 -0.26447555074E+03  0.52947572829E+03  0.45869077809E+03 0.  0.
      99925    2    3    3    0    0  0.99945818680E+02  0.51336079904E+02 -0.12950871279E+03  0.31386470070E+03  0.26289538582E+03 0.  0.
         25    1    4    4    0    0  0.72241574063E+02  0.62286725848E+02 -0.70585969271E+02  0.17241916482E+03  0.12509000000E+03 0.  0.
         25    1    3    3    0    0 -0.99945818680E+02 -0.51336079904E+02 -0.13496683795E+03  0.21561102759E+03  0.12509000000E+03 0.  0.
         25    1    4    4    0    0  0.27704244616E+02 -0.10950645944E+02 -0.58922743521E+02  0.14144553588E+03  0.12509000000E+03 0.  0.
<mgrwt>
<rscale>  2 0.45869078E+03</rscale>
<asrwt>0</asrwt>
<pdfrwt beam="1">  1       21 0.19485307E-01 0.45869078E+03</pdfrwt>
<pdfrwt beam="2">  1       21 0.58378771E-01 0.45869078E+03</pdfrwt>
<totfact> 0.61425244E+04</totfact>
</mgrwt>
</event>
<event>
 7    0  0.4759581E-002  0.4395337E+03  0.7546771E-02  0.1030890E+00
         21   -1    0    0  502  501  0.00000000000E+00  0.00000000000E+00  0.13789053296E+03  0.13789053296E+03  0.00000000000E+00 0. -1.
         21   -1    0    0  501  502 -0.00000000000E+00 -0.00000000000E+00 -0.35025942300E+03  0.35025942300E+03  0.00000000000E+00 0. -1.
      99926    2    1    2    0    0  0.99920072216E-15  0.00000000000E+00 -0.21236889004E+03  0.48814995595E+03  0.43953365518E+03 0.  0.
      99925    2    3    3    0    0 -0.75257486104E+00  0.97611672396E+02 -0.12965442307E+03  0.30921478304E+03  0.26320126838E+03 0.  0.
         25    1    4    4    0    0  0.16008437910E+02  0.87787304052E+02 -0.79998599370E+02  0.17323442163E+03  0.12509000000E+03 0.  0.
         25    1    4    4    0    0 -0.16761012771E+02  0.98243683437E+01 -0.49655823697E+02  0.13598036141E+03  0.12509000000E+03 0.  0.
         25    1    3    3    0    0  0.75257486104E+00 -0.97611672396E+02 -0.82714466974E+02  0.17893517291E+03  0.12509000000E+03 0.  0.
<mgrwt>
<rscale>  2 0.43953366E+03</rscale>
<asrwt>0</asrwt>
<pdfrwt beam="1">  1       21 0.20278020E-01 0.43953366E+03</pdfrwt>
<pdfrwt beam="2">  1       21 0.51508738E-01 0.43953366E+03</pdfrwt>
<totfact> 0.74892707E+04</totfact>
</mgrwt>
</event>
<event>
 7    0  0.4759581E-002  0.4480900E+03  0.7546771E-02  0.1028293E+00
         21   -1    0    0  502  501  0.00000000000E+00  0.00000000000E+00  0.14749366633E+03  0.14749366633E+03  0.00000000000E+00 0.  1.
         21   -1    0    0  501  502 -0.00000000000E+00 -0.00000000000E+00 -0.34032750540E+03  0.34032750540E+03  0.00000000000E+00 0.  1.
      99926    2    1    2    0    0  0.00000000000E+00  0.00000000000E+00 -0.19283383906E+03  0.48782117173E+03  0.44808995313E+03 0.  0.
      99925    2    3    3    0    0 -0.25832864854E+02 -0.86157497738E+02 -0.18439109640E+03  0.33351874360E+03  0.26295289422E+03 0.  0.
         25    1    4    4    0    0 -0.45371310996E+02 -0.31262649583E+02 -0.11711179063E+03  0.17999607975E+03  0.12509000000E+03 0.  0.
         25    1    3    3    0    0  0.25832864854E+02  0.86157497738E+02 -0.84427426668E+01  0.15430242813E+03  0.12509000000E+03 0.  0.
         25    1    4    4    0    0  0.19538446142E+02 -0.54894848154E+02 -0.67279305769E+02  0.15352266385E+03  0.12509000000E+03 0.  0.
<mgrwt>
<rscale>  2 0.44808995E+03</rscale>
<asrwt>0</asrwt>
<pdfrwt beam="1">  1       21 0.21690245E-01 0.44808995E+03</pdfrwt>
<pdfrwt beam="2">  1       21 0.50048162E-01 0.44808995E+03</pdfrwt>
<totfact> 0.69891042E+04</totfact>
</mgrwt>
</event>
<event>
 7    0  0.4759581E-002  0.4711398E+03  0.7546771E-02  0.1021599E+00
         21   -1    0    0  502  501  0.00000000000E+00  0.00000000000E+00  0.11693175643E+04  0.11693175643E+04  0.00000000000E+00 0.  1.
         21   -1    0    0  501  502 -0.00000000000E+00 -0.00000000000E+00 -0.47457738524E+02  0.47457738524E+02  0.00000000000E+00 0.  1.
      99926    2    1    2    0    0  0.00000000000E+00  0.00000000000E+00  0.11218598258E+04  0.12167753028E+04  0.47113975514E+03 0.  0.
      99925    2    3    3    0    0  0.89068995907E+02  0.80522696535E+02  0.58408727848E+03  0.65174078050E+03  0.26304164195E+03 0.  0.
         25    1    4    4    0    0  0.95280386173E+01  0.61398325004E+02  0.27898367027E+03  0.31199348424E+03  0.12509000000E+03 0.  0.
         25    1    4    4    0    0  0.79540957290E+02  0.19124371532E+02  0.30510360821E+03  0.33974729626E+03  0.12509000000E+03 0.  0.
         25    1    3    3    0    0 -0.89068995907E+02 -0.80522696535E+02  0.53777254732E+03  0.56503452234E+03  0.12509000000E+03 0.  0.
<mgrwt>
<rscale>  2 0.47113976E+03</rscale>
<asrwt>0</asrwt>
<pdfrwt beam="1">  1       21 0.17195845E+00 0.47113976E+03</pdfrwt>
<pdfrwt beam="2">  1       21 0.69790800E-02 0.47113976E+03</pdfrwt>
<totfact> 0.27946767E+04</totfact>
</mgrwt>
</event>
<event>
 7    0  0.4759581E-002  0.4551149E+03  0.7546771E-02  0.1026208E+00
         21   -1    0    0  502  501  0.00000000000E+00  0.00000000000E+00  0.17724576197E+04  0.17724576197E+04  0.00000000000E+00 0. -1.
         21   -1    0    0  501  502 -0.00000000000E+00 -0.00000000000E+00 -0.29215030221E+02  0.29215030221E+02  0.00000000000E+00 0. -1.
      99926    2    1    2    0    0  0.00000000000E+00  0.00000000000E+00  0.17432425895E+04  0.18016726499E+04  0.45511494339E+03 0.  0.
      99925    2    3    3    0    0 -0.99691480475E+02  0.38986257303E+02  0.94414018538E+03  0.98578633438E+03  0.26251797629E+03 0.  0.
         25    1    4    4    0    0 -0.49961398402E+02  0.47834886196E+02  0.38722691530E+03  0.41276689511E+03  0.12509000000E+03 0.  0.
         25    1    3    3    0    0  0.99691480475E+02 -0.38986257303E+02  0.79910240412E+03  0.81588631555E+03  0.12509000000E+03 0.  0.
         25    1    4    4    0    0 -0.49730082073E+02 -0.88486288929E+01  0.55691327008E+03  0.57301943927E+03  0.12509000000E+03 0.  0.
<mgrwt>
<rscale>  2 0.45511494E+03</rscale>
<asrwt>0</asrwt>
<pdfrwt beam="1">  1       21 0.26065546E+00 0.45511494E+03</pdfrwt>
<pdfrwt beam="2">  1       21 0.42963292E-02 0.45511494E+03</pdfrwt>
<totfact> 0.17211978E+04</totfact>
</mgrwt>
</event>
<event>
 7    0  0.4759581E-002  0.4477800E+03  0.7546771E-02  0.1028386E+00
         21   -1    0    0  502  501  0.00000000000E+00  0.00000000000E+00  0.16294676589E+03  0.16294676589E+03  0.00000000000E+00 0.  1.
         21   -1    0    0  501  502 -0.00000000000E+00 -0.00000000000E+00 -0.30762647824E+03  0.30762647824E+03  0.00000000000E+00 0.  1.
      99926    2    1    2    0    0 -0.26645352591E-14  0.00000000000E+00 -0.14467971235E+03  0.47057324413E+03  0.44778003408E+03 0.  0.
      99925    2    3    3    0    0 -0.76655776470E+01  0.14055725267E+02 -0.20213201230E+03  0.33199258399E+03  0.26287906142E+03 0.  0.
         25    1    4    4    0    0 -0.30273911824E+02  0.94639704488E+01 -0.14008669857E+03  0.19046749773E+03  0.12509000000E+03 0.  0.
         25    1    4    4    0    0  0.22608334177E+02  0.45917548180E+01 -0.62045313735E+02  0.14152508627E+03  0.12509000000E+03 0.  0.
         25    1    3    3    0    0  0.76655776470E+01 -0.14055725267E+02  0.57452299953E+02  0.13858066013E+03  0.12509000000E+03 0.  0.
<mgrwt>
<rscale>  2 0.44778003E+03</rscale>
<asrwt>0</asrwt>
<pdfrwt beam="1">  1       21 0.23962760E-01 0.44778003E+03</pdfrwt>
<pdfrwt beam="2">  1       21 0.45239187E-01 0.44778003E+03</pdfrwt>
<totfact> 0.71396849E+04</totfact>
</mgrwt>
</event>
<event>
 7    0  0.4759581E-002  0.4266648E+03  0.7546771E-02  0.1034919E+00
         21   -1    0    0  502  501  0.00000000000E+00  0.00000000000E+00  0.67794597286E+03  0.67794597286E+03  0.00000000000E+00 0.  1.
         21   -1    0    0  501  502 -0.00000000000E+00 -0.00000000000E+00 -0.67130294688E+02  0.67130294688E+02  0.00000000000E+00 0.  1.
      99926    2    1    2    0    0 -0.71054273576E-14 -0.17763568394E-14  0.61081567817E+03  0.74507626755E+03  0.42666480024E+03 0.  0.
      99925    2    3    3    0    0 -0.60790927161E+02  0.14149801077E+02  0.29670911944E+03  0.40126499369E+03  0.26283367346E+03 0.  0.
         25    1    4    4    0    0 -0.51095684780E+02 -0.38156633917E+01  0.20194018941E+03  0.24300756468E+03  0.12509000000E+03 0.  0.
         25    1    4    4    0    0 -0.96952423816E+01  0.17965464469E+02  0.94768930028E+02  0.15825742901E+03  0.12509000000E+03 0.  0.
         25    1    3    3    0    0  0.60790927161E+02 -0.14149801077E+02  0.31410655873E+03  0.34381127386E+03  0.12509000000E+03 0.  0.
<mgrwt>
<rscale>  2 0.42666480E+03</rscale>
<asrwt>0</asrwt>
<pdfrwt beam="1">  1       21 0.99697933E-01 0.42666480E+03</pdfrwt>
<pdfrwt beam="2">  1       21 0.98721026E-02 0.42666480E+03</pdfrwt>
<totfact> 0.63535016E+04</totfact>
</mgrwt>
</event>
<event>
 7    0  0.4759581E-002  0.4563149E+03  0.7546771E-02  0.1025855E+00
         21   -1    0    0  502  501  0.00000000000E+00  0.00000000000E+00  0.11263032782E+03  0.11263032782E+03  0.00000000000E+00 0. -1.
         21   -1    0    0  501  502 -0.00000000000E+00 -0.00000000000E+00 -0.46218297958E+03  0.46218297958E+03  0.00000000000E+00 0. -1.
      99926    2    1    2    0    0 -0.35527136788E-14  0.00000000000E+00 -0.34955265176E+03  0.57481330740E+03  0.45631489348E+03 0.  0.
      99925    2    3    3    0    0 -0.21150711493E+02 -0.11005848973E+03 -0.24876294100E+03  0.37894014013E+03  0.26296844912E+03 0.  0.
         25    1    4    4    0    0 -0.23298158043E+02 -0.89250674499E+02 -0.10682043804E+03  0.18859109510E+03  0.12509000000E+03 0.  0.
         25    1    4    4    0    0  0.21474465498E+01 -0.20807815232E+02 -0.14194250295E+03  0.19034904504E+03  0.12509000000E+03 0.  0.
         25    1    3    3    0    0  0.21150711493E+02  0.11005848973E+03 -0.10078971076E+03  0.19587316726E+03  0.12509000000E+03 0.  0.
<mgrwt>
<rscale>  2 0.45631489E+03</rscale>
<asrwt>0</asrwt>
<pdfrwt beam="1">  1       21 0.16563283E-01 0.45631489E+03</pdfrwt>
<pdfrwt beam="2">  1       21 0.67968086E-01 0.45631489E+03</pdfrwt>
<totfact> 0.59633578E+04</totfact>
</mgrwt>
</event>
<event>
 7    0  0.4759581E-002  0.4404836E+03  0.7546771E-02  0.1030599E+00
         21   -1    0    0  502  501  0.00000000000E+00  0.00000000000E+00  0.76922557295E+02  0.76922557295E+02  0.00000000000E+00 0. -1.
         21   -1    0    0  501  502 -0.00000000000E+00 -0.00000000000E+00 -0.63058822532E+03  0.63058822532E+03  0.00000000000E+00 0. -1.
      99926    2    1    2    0    0  0.71054273576E-14  0.00000000000E+00 -0.55366566802E+03  0.70751078261E+03  0.44048363825E+03 0.  0.
      99925    2    3    3    0    0 -0.59888146088E+02 -0.32018694127E+02 -0.46867152746E+03  0.54172990662E+03  0.26307129121E+03 0.  0.
         25    1    3    3    0    0  0.59888146088E+02  0.32018694127E+02 -0.84994140563E+02  0.16578087599E+03  0.12509000000E+03 0.  0.
         25    1    4    4    0    0 -0.35000946762E+02 -0.15323195627E+02 -0.31659767389E+03  0.34255140025E+03  0.12509000000E+03 0.  0.
         25    1    4    4    0    0 -0.24887199326E+02 -0.16695498500E+02 -0.15207385357E+03  0.19917850637E+03  0.12509000000E+03 0.  0.
<mgrwt>
<rscale>  2 0.44048364E+03</rscale>
<asrwt>0</asrwt>
<pdfrwt beam="1">  1       21 0.11312140E-01 0.44048364E+03</pdfrwt>
<pdfrwt beam="2">  1       21 0.92733567E-01 0.44048364E+03</pdfrwt>
<totfact> 0.58946652E+04</totfact>
</mgrwt>
</event>
<event>
 7    0  0.4759581E-002  0.4705770E+03  0.7546771E-02  0.1021757E+00
         21   -1    0    0  502  501  0.00000000000E+00  0.00000000000E+00  0.42170908796E+03  0.42170908796E+03  0.00000000000E+00 0.  1.
         21   -1    0    0  501  502 -0.00000000000E+00 -0.00000000000E+00 -0.13127693514E+03  0.13127693514E+03  0.00000000000E+00 0.  1.
      99926    2    1    2    0    0  0.00000000000E+00  0.00000000000E+00  0.29043215283E+03  0.55298602310E+03  0.47057699301E+03 0.  0.
      99925    2    3    3    0    0 -0.59240418841E+02  0.11169659246E+03  0.19795634304E+03  0.35252445699E+03  0.26287111488E+03 0.  0.
         25    1    4    4    0    0 -0.41569008960E+02  0.33110644411E+02  0.13307575802E+03  0.19021294055E+03  0.12509000000E+03 0.  0.
         25    1    4    4    0    0 -0.17671409880E+02  0.78585948045E+02  0.64880585021E+02  0.16231151644E+03  0.12509000000E+03 0.  0.
         25    1    3    3    0    0  0.59240418841E+02 -0.11169659246E+03  0.92475809785E+02  0.20046156611E+03  0.12509000000E+03 0.  0.
<mgrwt>
<rscale>  2 0.47057699E+03</rscale>
<asrwt>0</asrwt>
<pdfrwt beam="1">  1       21 0.62016042E-01 0.47057699E+03</pdfrwt>
<pdfrwt beam="2">  1       21 0.19305432E-01 0.47057699E+03</pdfrwt>
<totfact> 0.54617907E+04</totfact>
</mgrwt>
</event>
<event>
 7    0  0.4759581E-002  0.4606087E+03  0.7546771E-02  0.1024605E+00
         21   -1    0    0  502  501  0.00000000000E+00  0.00000000000E+00  0.68884235261E+02  0.68884235261E+02  0.00000000000E+00 0.  1.
         21   -1    0    0  501  502 -0.00000000000E+00 -0.00000000000E+00 -0.76998893683E+03  0.76998893683E+03  0.00000000000E+00 0.  1.
      99926    2    1    2    0    0 -0.17763568394E-14  0.00000000000E+00 -0.70110470157E+03  0.83887317209E+03  0.46060872364E+03 0.  0.
      99925    2    3    3    0    0 -0.14728797398E+02  0.98324474396E+02 -0.32158929904E+03  0.42709156906E+03  0.26287428815E+03 0.  0.
         25    1    3    3    0    0  0.14728797398E+02 -0.98324474396E+02 -0.37951540253E+03  0.41178160303E+03  0.12509000000E+03 0.  0.
         25    1    4    4    0    0 -0.36192230050E+02  0.35895783282E+02 -0.19538473154E+03  0.23753123204E+03  0.12509000000E+03 0.  0.
         25    1    4    4    0    0  0.21463432652E+02  0.62428691114E+02 -0.12620456750E+03  0.18956033703E+03  0.12509000000E+03 0.  0.
<mgrwt>
<rscale>  2 0.46060872E+03</rscale>
<asrwt>0</asrwt>
<pdfrwt beam="1">  1       21 0.10130034E-01 0.46060872E+03</pdfrwt>
<pdfrwt beam="2">  1       21 0.11323368E+00 0.46060872E+03</pdfrwt>
<totfact> 0.43974109E+04</totfact>
</mgrwt>
</event>
<event>
 7    0  0.4759581E-002  0.4542333E+03  0.7546771E-02  0.1026467E+00
         21   -1    0    0  502  501  0.00000000000E+00  0.00000000000E+00  0.19126892209E+03  0.19126892209E+03  0.00000000000E+00 0. -1.
         21   -1    0    0  501  502 -0.00000000000E+00 -0.00000000000E+00 -0.26968299541E+03  0.26968299541E+03  0.00000000000E+00 0. -1.
      99926    2    1    2    0    0 -0.71054273576E-14  0.00000000000E+00 -0.78414073322E+02  0.46095191751E+03  0.45423331379E+03 0.  0.
      99925    2    3    3    0    0 -0.62710623050E+02  0.47292680891E+02 -0.13102968439E+03  0.30415545537E+03  0.26300673553E+03 0.  0.
         25    1    4    4    0    0 -0.59566761499E+02  0.16630958922E+02 -0.99899133678E+02  0.17161623723E+03  0.12509000000E+03 0.  0.
         25    1    4    4    0    0 -0.31438615506E+01  0.30661721968E+02 -0.31130550710E+02  0.13253921815E+03  0.12509000000E+03 0.  0.
         25    1    3    3    0    0  0.62710623050E+02 -0.47292680891E+02  0.52615611066E+02  0.15679646213E+03  0.12509000000E+03 0.  0.
<mgrwt>
<rscale>  2 0.45423331E+03</rscale>
<asrwt>0</asrwt>
<pdfrwt beam="1">  1       21 0.28127783E-01 0.45423331E+03</pdfrwt>
<pdfrwt beam="2">  1       21 0.39659264E-01 0.45423331E+03</pdfrwt>
<totfact> 0.68528353E+04</totfact>
</mgrwt>
</event>
<event>
 7    0  0.4759581E-002  0.4507299E+03  0.7546771E-02  0.1027505E+00
         21   -1    0    0  502  501  0.00000000000E+00  0.00000000000E+00  0.13248582672E+03  0.13248582672E+03  0.00000000000E+00 0. -1.
         21   -1    0    0  501  502 -0.00000000000E+00 -0.00000000000E+00 -0.38335688616E+03  0.38335688616E+03  0.00000000000E+00 0. -1.
      99926    2    1    2    0    0  0.14210854715E-13  0.00000000000E+00 -0.25087105945E+03  0.51584271288E+03  0.45072987028E+03 0.  0.
      99925    2    3    3    0    0  0.94951076526E+02 -0.31676156559E+02 -0.10900984284E+03  0.30185393115E+03  0.26308470896E+03 0.  0.
         25    1    3    3    0    0 -0.94951076526E+02  0.31676156559E+02 -0.14186121660E+03  0.21398878173E+03  0.12509000000E+03 0.  0.
         25    1    4    4    0    0  0.11881244062E+02 -0.17393538681E+02 -0.25316644790E+02  0.12935277249E+03  0.12509000000E+03 0.  0.
         25    1    4    4    0    0  0.83069832464E+02 -0.14282617878E+02 -0.83693198051E+02  0.17250115866E+03  0.12509000000E+03 0.  0.
<mgrwt>
<rscale>  2 0.45072987E+03</rscale>
<asrwt>0</asrwt>
<pdfrwt beam="1">  1       21 0.19483210E-01 0.45072987E+03</pdfrwt>
<pdfrwt beam="2">  1       21 0.56376012E-01 0.45072987E+03</pdfrwt>
<totfact> 0.66392421E+04</totfact>
</mgrwt>
</event>
<event>
 7    0  0.4759581E-002  0.4550706E+03  0.7546771E-02  0.1026221E+00
         21   -1    0    0  502  501  0.00000000000E+00  0.00000000000E+00  0.50335903056E+03  0.50335903056E+03  0.00000000000E+00 0. -1.
         21   -1    0    0  501  502 -0.00000000000E+00 -0.00000000000E+00 -0.10285363663E+03  0.10285363663E+03  0.00000000000E+00 0. -1.
      99926    2    1    2    0    0  0.00000000000E+00  0.00000000000E+00  0.40050539392E+03  0.60621266719E+03  0.45507057398E+03 0.  0.
      99925    2    3    3    0    0  0.73580994451E+02  0.95711669674E+01  0.36604248357E+03  0.45674370629E+03  0.26291052371E+03 0.  0.
         25    1    3    3    0    0 -0.73580994451E+02 -0.95711669674E+01  0.34462910354E+02  0.14946896090E+03  0.12509000000E+03 0.  0.
         25    1    4    4    0    0  0.55529662766E+02 -0.30767052126E+02  0.19761528724E+03  0.24234162827E+03  0.12509000000E+03 0.  0.
         25    1    4    4    0    0  0.18051331685E+02  0.40338219093E+02  0.16842719633E+03  0.21440207802E+03  0.12509000000E+03 0.  0.
<mgrwt>
<rscale>  2 0.45507057E+03</rscale>
<asrwt>0</asrwt>
<pdfrwt beam="1">  1       21 0.74023386E-01 0.45507057E+03</pdfrwt>
<pdfrwt beam="2">  1       21 0.15125535E-01 0.45507057E+03</pdfrwt>
<totfact> 0.58264993E+04</totfact>
</mgrwt>
</event>
<event>
 7    0  0.4759581E-002  0.4556020E+03  0.7546771E-02  0.1026065E+00
         21   -1    0    0  502  501  0.00000000000E+00  0.00000000000E+00  0.23381600006E+03  0.23381600006E+03  0.00000000000E+00 0.  1.
         21   -1    0    0  501  502 -0.00000000000E+00 -0.00000000000E+00 -0.22194077207E+03  0.22194077207E+03  0.00000000000E+00 0.  1.
      99926    2    1    2    0    0  0.00000000000E+00 -0.17763568394E-14  0.11875227995E+02  0.45575677213E+03  0.45560203501E+03 0.  0.
      99925    2    3    3    0    0  0.16003685262E+02 -0.13410015565E+02  0.11931038919E+03  0.28954675913E+03  0.26299507656E+03 0.  0.
         25    1    3    3    0    0 -0.16003685262E+02  0.13410015565E+02 -0.10743516119E+03  0.16621001300E+03  0.12509000000E+03 0.  0.
         25    1    4    4    0    0  0.58226958865E+01  0.14460706547E+02  0.97013637773E+02  0.15906655788E+03  0.12509000000E+03 0.  0.
         25    1    4    4    0    0  0.10180989375E+02 -0.27870722111E+02  0.22296751417E+02  0.13048020125E+03  0.12509000000E+03 0.  0.
<mgrwt>
<rscale>  2 0.45560204E+03</rscale>
<asrwt>0</asrwt>
<pdfrwt beam="1">  1       21 0.34384706E-01 0.45560204E+03</pdfrwt>
<pdfrwt beam="2">  1       21 0.32638349E-01 0.45560204E+03</pdfrwt>
<totfact> 0.68162381E+04</totfact>
</mgrwt>
</event>
<event>
 7    0  0.4759581E-002  0.4725117E+03  0.7546771E-02  0.1021214E+00
         21   -1    0    0  502  501  0.00000000000E+00  0.00000000000E+00  0.17898253784E+03  0.17898253784E+03  0.00000000000E+00 0.  1.
         21   -1    0    0  501  502 -0.00000000000E+00 -0.00000000000E+00 -0.31185623727E+03  0.31185623727E+03  0.00000000000E+00 0.  1.
      99926    2    1    2    0    0  0.00000000000E+00  0.00000000000E+00 -0.13287369943E+03  0.49083877511E+03  0.47251167515E+03 0.  0.
      99925    2    3    3    0    0  0.24300954428E+02  0.26221757283E+02 -0.21099202136E+03  0.33908866058E+03  0.26303111929E+03 0.  0.
         25    1    3    3    0    0 -0.24300954428E+02 -0.26221757283E+02  0.78118321922E+02  0.15175011453E+03  0.12509000000E+03 0.  0.
         25    1    4    4    0    0  0.32459916209E+01  0.48446058598E+02 -0.13076188434E+03  0.18735990913E+03  0.12509000000E+03 0.  0.
         25    1    4    4    0    0  0.21054962807E+02 -0.22224301316E+02 -0.80230137018E+02  0.15172875144E+03  0.12509000000E+03 0.  0.
<mgrwt>
<rscale>  2 0.47251168E+03</rscale>
<asrwt>0</asrwt>
<pdfrwt beam="1">  1       21 0.26320962E-01 0.47251168E+03</pdfrwt>
<pdfrwt beam="2">  1       21 0.45861211E-01 0.47251168E+03</pdfrwt>
<totfact> 0.57501337E+04</totfact>
</mgrwt>
</event>
<event>
 7    0  0.4759581E-002  0.4556391E+03  0.7546771E-02  0.1026054E+00
         21   -1    0    0  502  501  0.00000000000E+00  0.00000000000E+00  0.16213456339E+03  0.16213456339E+03  0.00000000000E+00 0.  1.
         21   -1    0    0  501  502 -0.00000000000E+00 -0.00000000000E+00 -0.32011527177E+03  0.32011527177E+03  0.00000000000E+00 0.  1.
      99926    2    1    2    0    0  0.00000000000E+00  0.00000000000E+00 -0.15798070838E+03  0.48224983516E+03  0.45563911080E+03 0.  0.
      99925    2    3    3    0    0  0.95664676848E+02  0.61677205982E+02 -0.98797379484E+02  0.30306841131E+03  0.26293294127E+03 0.  0.
         25    1    4    4    0    0  0.60084767733E+02  0.74277903619E+01 -0.81479079444E+02  0.16109531300E+03  0.12509000000E+03 0.  0.
         25    1    3    3    0    0 -0.95664676848E+02 -0.61677205982E+02 -0.59183328891E+02  0.17918142385E+03  0.12509000000E+03 0.  0.
         25    1    4    4    0    0  0.35579909115E+02  0.54249415620E+02 -0.17318300041E+02  0.14197309831E+03  0.12509000000E+03 0.  0.
<mgrwt>
<rscale>  2 0.45563911E+03</rscale>
<asrwt>0</asrwt>
<pdfrwt beam="1">  1       21 0.23843318E-01 0.45563911E+03</pdfrwt>
<pdfrwt beam="2">  1       21 0.47075775E-01 0.45563911E+03</pdfrwt>
<totfact> 0.66200208E+04</totfact>
</mgrwt>
</event>
<event>
 7    0  0.4759581E-002  0.4599048E+03  0.7546771E-02  0.1024809E+00
         21   -1    0    0  502  501  0.00000000000E+00  0.00000000000E+00  0.85826920688E+02  0.85826920688E+02  0.00000000000E+00 0. -1.
         21   -1    0    0  501  502 -0.00000000000E+00 -0.00000000000E+00 -0.61610175993E+03  0.61610175993E+03  0.00000000000E+00 0. -1.
      99926    2    1    2    0    0  0.00000000000E+00  0.00000000000E+00 -0.53027483924E+03  0.70192868062E+03  0.45990484618E+03 0.  0.
      99925    2    3    3    0    0 -0.52309734379E+02  0.10388036147E+03 -0.35940961036E+03  0.46033010373E+03  0.26306101683E+03 0.  0.
         25    1    3    3    0    0  0.52309734379E+02 -0.10388036147E+03 -0.17086522889E+03  0.24159857689E+03  0.12509000000E+03 0.  0.
         25    1    4    4    0    0  0.82276184204E+01  0.25211655974E+02 -0.16468626941E+03  0.20850035188E+03  0.12509000000E+03 0.  0.
         25    1    4    4    0    0 -0.60537352800E+02  0.78668705500E+02 -0.19472334094E+03  0.25182975185E+03  0.12509000000E+03 0.  0.
<mgrwt>
<rscale>  2 0.45990485E+03</rscale>
<asrwt>0</asrwt>
<pdfrwt beam="1">  1       21 0.12621605E-01 0.45990485E+03</pdfrwt>
<pdfrwt beam="2">  1       21 0.90603205E-01 0.45990485E+03</pdfrwt>
<totfact> 0.50808628E+04</totfact>
</mgrwt>
</event>
<event>
 7    0  0.4759581E-002  0.4504438E+03  0.7546771E-02  0.1027590E+00
         21   -1    0    0  502  501  0.00000000000E+00  0.00000000000E+00  0.10152136135E+03  0.10152136135E+03  0.00000000000E+00 0.  1.
         21   -1    0    0  501  502 -0.00000000000E+00 -0.00000000000E+00 -0.49964766257E+03  0.49964766257E+03  0.00000000000E+00 0.  1.
      99926    2    1    2    0    0  0.00000000000E+00 -0.14210854715E-13 -0.39812630122E+03  0.60116902392E+03  0.45044382957E+03 0.  0.
      99925    2    3    3    0    0 -0.12846480422E+02 -0.10672161535E+03 -0.22869330775E+03  0.36471695136E+03  0.26298914494E+03 0.  0.
         25    1    4    4    0    0  0.11545102182E+02 -0.66347832447E+02 -0.73740946271E+02  0.16006423558E+03  0.12509000000E+03 0.  0.
         25    1    4    4    0    0 -0.24391582604E+02 -0.40373782908E+02 -0.15495236148E+03  0.20465271578E+03  0.12509000000E+03 0.  0.
         25    1    3    3    0    0  0.12846480422E+02  0.10672161535E+03 -0.16943299347E+03  0.23645207256E+03  0.12509000000E+03 0.  0.
<mgrwt>
<rscale>  2 0.45044383E+03</rscale>
<asrwt>0</asrwt>
<pdfrwt beam="1">  1       21 0.14929612E-01 0.45044383E+03</pdfrwt>
<pdfrwt beam="2">  1       21 0.73477595E-01 0.45044383E+03</pdfrwt>
<totfact> 0.60764368E+04</totfact>
</mgrwt>
</event>
<event>
 7    0  0.4759581E-002  0.4583291E+03  0.7546771E-02  0.1025267E+00
         21   -1    0    0  502  501  0.00000000000E+00  0.00000000000E+00  0.76112257346E+02  0.76112257346E+02  0.00000000000E+00 0. -1.
         21   -1    0    0  501  502 -0.00000000000E+00 -0.00000000000E+00 -0.68998593578E+03  0.68998593578E+03  0.00000000000E+00 0. -1.
      99926    2    1    2    0    0  0.00000000000E+00  0.00000000000E+00 -0.61387367843E+03  0.76609819312E+03  0.45832908312E+03 0.  0.
      99925    2    3    3    0    0  0.27250660738E+02  0.10360010167E+03 -0.46081574656E+03  0.54126532590E+03  0.26294756352E+03 0.  0.
         25    1    4    4    0    0 -0.57917585347E+01  0.36741269234E+02 -0.28135126217E+03  0.31014433117E+03  0.12509000000E+03 0.  0.
         25    1    3    3    0    0 -0.27250660738E+02 -0.10360010167E+03 -0.15305793187E+03  0.22483286723E+03  0.12509000000E+03 0.  0.
         25    1    4    4    0    0  0.33042419273E+02  0.66858832436E+02 -0.17946448439E+03  0.23112099473E+03  0.12509000000E+03 0.  0.
<mgrwt>
<rscale>  2 0.45832908E+03</rscale>
<asrwt>0</asrwt>
<pdfrwt beam="1">  1       21 0.11192979E-01 0.45832908E+03</pdfrwt>
<pdfrwt beam="2">  1       21 0.10146852E+00 0.45832908E+03</pdfrwt>
<totfact> 0.48176659E+04</totfact>
</mgrwt>
</event>
<event>
 7    0  0.4759581E-002  0.4561790E+03  0.7546771E-02  0.1025895E+00
         21   -1    0    0  502  501  0.00000000000E+00  0.00000000000E+00  0.68400411429E+02  0.68400411429E+02  0.00000000000E+00 0. -1.
         21   -1    0    0  501  502 -0.00000000000E+00 -0.00000000000E+00 -0.76059233907E+03  0.76059233907E+03  0.00000000000E+00 0. -1.
      99926    2    1    2    0    0 -0.14210854715E-13 -0.71054273576E-14 -0.69219192765E+03  0.82899275050E+03  0.45617903907E+03 0.  0.
      99925    2    3    3    0    0 -0.83157380488E+02 -0.47024735635E+02 -0.54919630738E+03  0.61633873289E+03  0.26292655616E+03 0.  0.
         25    1    3    3    0    0  0.83157380488E+02  0.47024735635E+02 -0.14299562027E+03  0.21265401761E+03  0.12509000000E+03 0.  0.
         25    1    4    4    0    0 -0.64181854193E+02 -0.50183668155E+02 -0.34770950711E+03  0.37840074047E+03  0.12509000000E+03 0.  0.
         25    1    4    4    0    0 -0.18975526295E+02  0.31589325209E+01 -0.20148680027E+03  0.23793799242E+03  0.12509000000E+03 0.  0.
<mgrwt>
<rscale>  2 0.45617904E+03</rscale>
<asrwt>0</asrwt>
<pdfrwt beam="1">  1       21 0.10058884E-01 0.45617904E+03</pdfrwt>
<pdfrwt beam="2">  1       21 0.11185181E+00 0.45617904E+03</pdfrwt>
<totfact> 0.45967504E+04</totfact>
</mgrwt>
</event>
<event>
 7    0  0.4759581E-002  0.4496000E+03  0.7546771E-02  0.1027841E+00
         21   -1    0    0  502  501  0.00000000000E+00  0.00000000000E+00  0.46881779270E+03  0.46881779270E+03  0.00000000000E+00 0. -1.
         21   -1    0    0  501  502 -0.00000000000E+00 -0.00000000000E+00 -0.10779247239E+03  0.10779247239E+03  0.00000000000E+00 0. -1.
      99926    2    1    2    0    0  0.00000000000E+00  0.00000000000E+00  0.36102532031E+03  0.57661026508E+03  0.44959995095E+03 0.  0.
      99925    2    3    3    0    0  0.74432680422E+02 -0.48521822580E+02  0.30704146741E+03  0.41395616690E+03  0.26304116451E+03 0.  0.
         25    1    4    4    0    0  0.28370213031E+02 -0.64117536606E+02  0.15545405794E+03  0.21149326164E+03  0.12509000000E+03 0.  0.
         25    1    3    3    0    0 -0.74432680422E+02  0.48521822580E+02  0.53983852903E+02  0.16265409818E+03  0.12509000000E+03 0.  0.
         25    1    4    4    0    0  0.46062467391E+02  0.15595714026E+02  0.15158740947E+03  0.20246290527E+03  0.12509000000E+03 0.  0.
<mgrwt>
<rscale>  2 0.44959995E+03</rscale>
<asrwt>0</asrwt>
<pdfrwt beam="1">  1       21 0.68943792E-01 0.44959995E+03</pdfrwt>
<pdfrwt beam="2">  1       21 0.15851834E-01 0.44959995E+03</pdfrwt>
<totfact> 0.62779268E+04</totfact>
</mgrwt>
</event>
<event>
 7    0  0.4759581E-002  0.4200193E+03  0.7546771E-02  0.1037060E+00
         21   -1    0    0  502  501  0.00000000000E+00  0.00000000000E+00  0.29449146849E+02  0.29449146849E+02  0.00000000000E+00 0.  1.
         21   -1    0    0  501  502 -0.00000000000E+00 -0.00000000000E+00 -0.14976344305E+04  0.14976344305E+04  0.00000000000E+00 0.  1.
      99926    2    1    2    0    0  0.14210854715E-13  0.00000000000E+00 -0.14681852837E+04  0.15270835774E+04  0.42001931513E+03 0.  0.
      99925    2    3    3    0    0 -0.64575351455E+02 -0.20551263226E+02 -0.83329775824E+03  0.87645157040E+03  0.26303967561E+03 0.  0.
         25    1    3    3    0    0  0.64575351455E+02  0.20551263226E+02 -0.63488752545E+03  0.65063200698E+03  0.12509000000E+03 0.  0.
         25    1    4    4    0    0  0.89669964639E+01 -0.15695197651E+02 -0.39632835364E+03  0.41599329111E+03  0.12509000000E+03 0.  0.
         25    1    4    4    0    0 -0.73542347919E+02 -0.48560655752E+01 -0.43696940460E+03  0.46045827929E+03  0.12509000000E+03 0.  0.
<mgrwt>
<rscale>  2 0.42001932E+03</rscale>
<asrwt>0</asrwt>
<pdfrwt beam="1">  1       21 0.43307570E-02 0.42001932E+03</pdfrwt>
<pdfrwt beam="2">  1       21 0.22024035E+00 0.42001932E+03</pdfrwt>
<totfact> 0.30640694E+04</totfact>
</mgrwt>
</event>
<event>
 7    0  0.4759581E-002  0.4466625E+03  0.7546771E-02  0.1028722E+00
         21   -1    0    0  502  501  0.00000000000E+00  0.00000000000E+00  0.69231589592E+03  0.69231589592E+03  0.00000000000E+00 0.  1.
         21   -1    0    0  501  502 -0.00000000000E+00 -0.00000000000E+00 -0.72043467817E+02  0.72043467817E+02  0.00000000000E+00 0.  1.
      99926    2    1    2    0    0  0.00000000000E+00 -0.35527136788E-14  0.62027242810E+03  0.76435936373E+03  0.44666245854E+03 0.  0.
      99925    2    3    3    0    0  0.61073595573E+02 -0.22363947017E+02  0.25260534045E+03  0.37058693499E+03  0.26323960218E+03 0.  0.
         25    1    3    3    0    0 -0.61073595573E+02  0.22363947017E+02  0.36766708765E+03  0.39377242875E+03  0.12509000000E+03 0.  0.
         25    1    4    4    0    0  0.11642676107E+02 -0.40188760693E+02  0.94581888546E+02  0.16230813330E+03  0.12509000000E+03 0.  0.
         25    1    4    4    0    0  0.49430919466E+02  0.17824813676E+02  0.15802345191E+03  0.20827880169E+03  0.12509000000E+03 0.  0.
<mgrwt>
<rscale>  2 0.44666246E+03</rscale>
<asrwt>0</asrwt>
<pdfrwt beam="1">  1       21 0.10181116E+00 0.44666246E+03</pdfrwt>
<pdfrwt beam="2">  1       21 0.10594628E-01 0.44666246E+03</pdfrwt>
<totfact> 0.52916456E+04</totfact>
</mgrwt>
</event>
<event>
 7    0  0.4759581E-002  0.4596200E+03  0.7546771E-02  0.1024891E+00
         21   -1    0    0  502  501  0.00000000000E+00  0.00000000000E+00  0.11235537680E+03  0.11235537680E+03  0.00000000000E+00 0.  1.
         21   -1    0    0  501  502 -0.00000000000E+00 -0.00000000000E+00 -0.47004985824E+03  0.47004985824E+03  0.00000000000E+00 0.  1.
      99926    2    1    2    0    0  0.00000000000E+00 -0.14210854715E-13 -0.35769448143E+03  0.58240523504E+03  0.45961996884E+03 0.  0.
      99925    2    3    3    0    0  0.46611399461E+02 -0.89215546582E+02 -0.14758838429E+03  0.31797354921E+03  0.26304526324E+03 0.  0.
         25    1    4    4    0    0  0.14281365332E+01 -0.70488156858E+01 -0.63988263396E+02  0.14069019628E+03  0.12509000000E+03 0.  0.
         25    1    4    4    0    0  0.45183262928E+02 -0.82166730896E+02 -0.83600120890E+02  0.17728335293E+03  0.12509000000E+03 0.  0.
         25    1    3    3    0    0 -0.46611399461E+02  0.89215546582E+02 -0.21010609714E+03  0.26443168583E+03  0.12509000000E+03 0.  0.
<mgrwt>
<rscale>  2 0.45961997E+03</rscale>
<asrwt>0</asrwt>
<pdfrwt beam="1">  1       21 0.16522849E-01 0.45961997E+03</pdfrwt>
<pdfrwt beam="2">  1       21 0.69124980E-01 0.45961997E+03</pdfrwt>
<totfact> 0.57640371E+04</totfact>
</mgrwt>
</event>
<event>
 7    0  0.4759581E-002  0.4898031E+03  0.7546771E-02  0.1016475E+00
         21   -1    0    0  502  501  0.00000000000E+00  0.00000000000E+00  0.86602621420E+03  0.86602621420E+03  0.00000000000E+00 0.  1.
         21   -1    0    0  501  502 -0.00000000000E+00 -0.00000000000E+00 -0.69255151644E+02  0.69255151644E+02  0.00000000000E+00 0.  1.
      99926    2    1    2    0    0  0.00000000000E+00  0.00000000000E+00  0.79677106255E+03  0.93528136584E+03  0.48980313103E+03 0.  0.
      99925    2    3    3    0    0  0.10837575578E+03 -0.59580336850E+02  0.34885561400E+03  0.45406324676E+03  0.26301724593E+03 0.  0.
         25    1    4    4    0    0  0.37575453961E+02 -0.14174555235E+02  0.21761672643E+03  0.25419948954E+03  0.12509000000E+03 0.  0.
         25    1    4    4    0    0  0.70800301822E+02 -0.45405781614E+02  0.13123888757E+03  0.19986375722E+03  0.12509000000E+03 0.  0.
         25    1    3    3    0    0 -0.10837575578E+03  0.59580336850E+02  0.44791544855E+03  0.48121811908E+03  0.12509000000E+03 0.  0.
<mgrwt>
<rscale>  2 0.48980313E+03</rscale>
<asrwt>0</asrwt>
<pdfrwt beam="1">  1       21 0.12735679E+00 0.48980313E+03</pdfrwt>
<pdfrwt beam="2">  1       21 0.10184582E-01 0.48980313E+03</pdfrwt>
<totfact> 0.32073213E+04</totfact>
</mgrwt>
</event>
<event>
 7    0  0.4759581E-002  0.4515774E+03  0.7546771E-02  0.1027253E+00
         21   -1    0    0  502  501  0.00000000000E+00  0.00000000000E+00  0.16057957107E+03  0.16057957107E+03  0.00000000000E+00 0.  1.
         21   -1    0    0  501  502 -0.00000000000E+00 -0.00000000000E+00 -0.31747837475E+03  0.31747837475E+03  0.00000000000E+00 0.  1.
      99926    2    1    2    0    0 -0.71054273576E-14  0.00000000000E+00 -0.15689880367E+03  0.47805794582E+03  0.45157741858E+03 0.  0.
      99925    2    3    3    0    0  0.62894068431E+02  0.65159287749E+02 -0.32813517674E+02  0.27995175479E+03  0.26285901439E+03 0.  0.
         25    1    3    3    0    0 -0.62894068431E+02 -0.65159287749E+02 -0.12408528600E+03  0.19810619103E+03  0.12509000000E+03 0.  0.
         25    1    4    4    0    0  0.58787916636E+02  0.55603073681E+02 -0.39897089308E+02  0.15423036919E+03  0.12509000000E+03 0.  0.
         25    1    4    4    0    0  0.41061517948E+01  0.95562140675E+01  0.70835716348E+01  0.12572138560E+03  0.12509000000E+03 0.  0.
<mgrwt>
<rscale>  2 0.45157742E+03</rscale>
<asrwt>0</asrwt>
<pdfrwt beam="1">  1       21 0.23614643E-01 0.45157742E+03</pdfrwt>
<pdfrwt beam="2">  1       21 0.46687996E-01 0.45157742E+03</pdfrwt>
<totfact> 0.68688897E+04</totfact>
</mgrwt>
</event>
<event>
 7    0  0.4759581E-002  0.4622254E+03  0.7546771E-02  0.1024138E+00
         21   -1    0    0  502  501  0.00000000000E+00  0.00000000000E+00  0.16097118083E+03  0.16097118083E+03  0.00000000000E+00 0.  1.
         21   -1    0    0  501  502 -0.00000000000E+00 -0.00000000000E+00 -0.33181762081E+03  0.33181762081E+03  0.00000000000E+00 0.  1.
      99926    2    1    2    0    0 -0.14210854715E-13 -0.33306690739E-15 -0.17084643997E+03  0.49278880164E+03  0.46222537465E+03 0.  0.
      99925    2    3    3    0    0 -0.11699644039E+03  0.33941033933E+00 -0.78843531444E+02  0.29836574349E+03  0.26290213421E+03 0.  0.
         25    1    3    3    0    0  0.11699644039E+03 -0.33941033933E+00 -0.92002908529E+02  0.19442305815E+03  0.12509000000E+03 0.  0.
         25    1    4    4    0    0 -0.95864887708E+02  0.14278962649E+02 -0.60558255208E+02  0.16943664256E+03  0.12509000000E+03 0.  0.
         25    1    4    4    0    0 -0.21131552684E+02 -0.13939552309E+02 -0.18285276236E+02  0.12892910092E+03  0.12509000000E+03 0.  0.
<mgrwt>
<rscale>  2 0.46222537E+03</rscale>
<asrwt>0</asrwt>
<pdfrwt beam="1">  1       21 0.23672233E-01 0.46222537E+03</pdfrwt>
<pdfrwt beam="2">  1       21 0.48796709E-01 0.46222537E+03</pdfrwt>
<totfact> 0.62138833E+04</totfact>
</mgrwt>
</event>
<event>
 7    0  0.4759581E-002  0.4575758E+03  0.7546771E-02  0.1025487E+00
         21   -1    0    0  502  501  0.00000000000E+00  0.00000000000E+00  0.14418381997E+03  0.14418381997E+03  0.00000000000E+00 0.  1.
         21   -1    0    0  501  502 -0.00000000000E+00 -0.00000000000E+00 -0.36303594230E+03  0.36303594230E+03  0.00000000000E+00 0.  1.
      99926    2    1    2    0    0 -0.88817841970E-15 -0.35527136788E-14 -0.21885212233E+03  0.50721976227E+03  0.45757582518E+03 0.  0.
      99925    2    3    3    0    0  0.62338535763E+01  0.16789679876E+02 -0.10836554165E+02  0.26382966596E+03  0.26299792291E+03 0.  0.
         25    1    3    3    0    0 -0.62338535763E+01 -0.16789679876E+02 -0.20801556817E+03  0.24339009631E+03  0.12509000000E+03 0.  0.
         25    1    4    4    0    0  0.14579359943E+02  0.47375314811E+02 -0.66221107099E+01  0.13471576983E+03  0.12509000000E+03 0.  0.
         25    1    4    4    0    0 -0.83455063671E+01 -0.30585634936E+02 -0.42144434553E+01  0.12911389613E+03  0.12509000000E+03 0.  0.
<mgrwt>
<rscale>  2 0.45757583E+03</rscale>
<asrwt>0</asrwt>
<pdfrwt beam="1">  1       21 0.21203503E-01 0.45757583E+03</pdfrwt>
<pdfrwt beam="2">  1       21 0.53387639E-01 0.45757583E+03</pdfrwt>
<totfact> 0.63459010E+04</totfact>
</mgrwt>
</event>
<event>
 7    0  0.4759581E-002  0.4570052E+03  0.7546771E-02  0.1025653E+00
         21   -1    0    0  502  501  0.00000000000E+00  0.00000000000E+00  0.21735100349E+03  0.21735100349E+03  0.00000000000E+00 0. -1.
         21   -1    0    0  501  502 -0.00000000000E+00 -0.00000000000E+00 -0.24022639246E+03  0.24022639246E+03  0.00000000000E+00 0. -1.
      99926    2    1    2    0    0  0.00000000000E+00  0.00000000000E+00 -0.22875388968E+02  0.45757739594E+03  0.45700524051E+03 0.  0.
      99925    2    3    3    0    0 -0.11595503514E+02  0.34570706782E+02  0.94794847901E+02  0.28201150457E+03  0.26308712635E+03 0.  0.
         25    1    4    4    0    0 -0.10946343946E+01 -0.23128678226E+02  0.51326012932E+02  0.13717872169E+03  0.12509000000E+03 0.  0.
         25    1    3    3    0    0  0.11595503514E+02 -0.34570706782E+02 -0.11767023687E+03  0.17556589137E+03  0.12509000000E+03 0.  0.
         25    1    4    4    0    0 -0.10500869119E+02  0.57699385009E+02  0.43468834969E+02  0.14483278288E+03  0.12509000000E+03 0.  0.
<mgrwt>
<rscale>  2 0.45700524E+03</rscale>
<asrwt>0</asrwt>
<pdfrwt beam="1">  1       21 0.31963383E-01 0.45700524E+03</pdfrwt>
<pdfrwt beam="2">  1       21 0.35327411E-01 0.45700524E+03</pdfrwt>
<totfact> 0.67274591E+04</totfact>
</mgrwt>
</event>
<event>
 7    0  0.4759581E-002  0.4530659E+03  0.7546771E-02  0.1026812E+00
         21   -1    0    0  502  501  0.00000000000E+00  0.00000000000E+00  0.96416707282E+03  0.96416707282E+03  0.00000000000E+00 0. -1.
         21   -1    0    0  501  502 -0.00000000000E+00 -0.00000000000E+00 -0.53224368171E+02  0.53224368171E+02  0.00000000000E+00 0. -1.
      99926    2    1    2    0    0  0.00000000000E+00  0.00000000000E+00  0.91094270465E+03  0.10173914410E+04  0.45306592572E+03 0.  0.
      99925    2    3    3    0    0  0.82706574405E+01 -0.71035488066E+02  0.76484211076E+03  0.81219071981E+03  0.26373446232E+03 0.  0.
         25    1    3    3    0    0 -0.82706574405E+01  0.71035488066E+02  0.14610059389E+03  0.20520072119E+03  0.12509000000E+03 0.  0.
         25    1    4    4    0    0 -0.93916858461E+01 -0.70688737895E+02  0.46614360557E+03  0.48787546622E+03  0.12509000000E+03 0.  0.
         25    1    4    4    0    0  0.17662343287E+02 -0.34675017042E+00  0.29869850519E+03  0.32431525359E+03  0.12509000000E+03 0.  0.
<mgrwt>
<rscale>  2 0.45306593E+03</rscale>
<asrwt>0</asrwt>
<pdfrwt beam="1">  1       21 0.14178926E+00 0.45306593E+03</pdfrwt>
<pdfrwt beam="2">  1       21 0.78271136E-02 0.45306593E+03</pdfrwt>
<totfact> 0.39083966E+04</totfact>
</mgrwt>
</event>
<event>
 7    0  0.4759581E-002  0.4589714E+03  0.7546771E-02  0.1025080E+00
         21   -1    0    0  502  501  0.00000000000E+00  0.00000000000E+00  0.51676895442E+03  0.51676895442E+03  0.00000000000E+00 0. -1.
         21   -1    0    0  501  502 -0.00000000000E+00 -0.00000000000E+00 -0.10190951887E+03  0.10190951887E+03  0.00000000000E+00 0. -1.
      99926    2    1    2    0    0  0.00000000000E+00  0.00000000000E+00  0.41485943555E+03  0.61867847329E+03  0.45897135210E+03 0.  0.
      99925    2    3    3    0    0 -0.16164414730E+02 -0.17884905937E+02  0.41424127019E+03  0.49128519092E+03  0.26302880208E+03 0.  0.
         25    1    4    4    0    0  0.31670322703E+02 -0.17408853948E+02  0.20381515561E+03  0.24185574893E+03  0.12509000000E+03 0.  0.
         25    1    3    3    0    0  0.16164414730E+02  0.17884905937E+02  0.61816535482E+00  0.12739328237E+03  0.12509000000E+03 0.  0.
         25    1    4    4    0    0 -0.47834737434E+02 -0.47605198928E+00  0.21042611459E+03  0.24942944199E+03  0.12509000000E+03 0.  0.
<mgrwt>
<rscale>  2 0.45897135E+03</rscale>
<asrwt>0</asrwt>
<pdfrwt beam="1">  1       21 0.75995433E-01 0.45897135E+03</pdfrwt>
<pdfrwt beam="2">  1       21 0.14986694E-01 0.45897135E+03</pdfrwt>
<totfact> 0.55773197E+04</totfact>
</mgrwt>
</event>
<event>
 7    0  0.4759581E-002  0.4485082E+03  0.7546771E-02  0.1028168E+00
         21   -1    0    0  502  501  0.00000000000E+00  0.00000000000E+00  0.13905101638E+03  0.13905101638E+03  0.00000000000E+00 0. -1.
         21   -1    0    0  501  502 -0.00000000000E+00 -0.00000000000E+00 -0.36166509248E+03  0.36166509248E+03  0.00000000000E+00 0. -1.
      99926    2    1    2    0    0  0.00000000000E+00  0.00000000000E+00 -0.22261407610E+03  0.50071610886E+03  0.44850818810E+03 0.  0.
      99925    2    3    3    0    0  0.50096581677E+02 -0.38754943266E+02 -0.44934807638E+02  0.27437776994E+03  0.26315852746E+03 0.  0.
         25    1    3    3    0    0 -0.50096581677E+02  0.38754943266E+02 -0.17767926846E+03  0.22633833892E+03  0.12509000000E+03 0.  0.
         25    1    4    4    0    0  0.31546524366E+02 -0.39879560216E+02  0.12254418100E+02  0.13558481252E+03  0.12509000000E+03 0.  0.
         25    1    4    4    0    0  0.18550057311E+02  0.11246169501E+01 -0.57189225738E+02  0.13879295742E+03  0.12509000000E+03 0.  0.
<mgrwt>
<rscale>  2 0.44850819E+03</rscale>
<asrwt>0</asrwt>
<pdfrwt beam="1">  1       21 0.20448679E-01 0.44850819E+03</pdfrwt>
<pdfrwt beam="2">  1       21 0.53186042E-01 0.44850819E+03</pdfrwt>
<totfact> 0.68692299E+04</totfact>
</mgrwt>
</event>
<event>
 7    0  0.4759581E-002  0.4609071E+03  0.7546771E-02  0.1024518E+00
         21   -1    0    0  502  501  0.00000000000E+00  0.00000000000E+00  0.51275512559E+03  0.51275512559E+03  0.00000000000E+00 0. -1.
         21   -1    0    0  501  502 -0.00000000000E+00 -0.00000000000E+00 -0.10357543875E+03  0.10357543875E+03  0.00000000000E+00 0. -1.
      99926    2    1    2    0    0 -0.88817841970E-15  0.00000000000E+00  0.40917968683E+03  0.61633056434E+03  0.46090709305E+03 0.  0.
      99925    2    3    3    0    0  0.76831293210E+01  0.77753620228E+02  0.13665622289E+03  0.30645768325E+03  0.26293864766E+03 0.  0.
         25    1    4    4    0    0 -0.14092491736E+02  0.64655807150E+02  0.10120970427E+03  0.17398242457E+03  0.12509000000E+03 0.  0.
         25    1    3    3    0    0 -0.76831293210E+01 -0.77753620228E+02  0.27252346394E+03  0.30987288109E+03  0.12509000000E+03 0.  0.
         25    1    4    4    0    0  0.21775621057E+02  0.13097813078E+02  0.35446518622E+02  0.13247525868E+03  0.12509000000E+03 0.  0.
<mgrwt>
<rscale>  2 0.46090709E+03</rscale>
<asrwt>0</asrwt>
<pdfrwt beam="1">  1       21 0.75405164E-01 0.46090709E+03</pdfrwt>
<pdfrwt beam="2">  1       21 0.15231682E-01 0.46090709E+03</pdfrwt>
<totfact> 0.55069717E+04</totfact>
</mgrwt>
</event>
<event>
 7    0  0.4759581E-002  0.4540519E+03  0.7546771E-02  0.1026521E+00
         21   -1    0    0  502  501  0.00000000000E+00  0.00000000000E+00  0.14333831753E+03  0.14333831753E+03  0.00000000000E+00 0.  1.
         21   -1    0    0  501  502 -0.00000000000E+00 -0.00000000000E+00 -0.35957435318E+03  0.35957435318E+03  0.00000000000E+00 0.  1.
      99926    2    1    2    0    0  0.00000000000E+00  0.00000000000E+00 -0.21623603565E+03  0.50291267070E+03  0.45405190369E+03 0.  0.
      99925    2    3    3    0    0  0.97559231340E+02 -0.55255019858E+02 -0.14222730482E+03  0.31934872768E+03  0.26302867296E+03 0.  0.
         25    1    3    3    0    0 -0.97559231340E+02  0.55255019858E+02 -0.74008730830E+02  0.18356394302E+03  0.12509000000E+03 0.  0.
         25    1    4    4    0    0  0.20990847379E+02  0.50405075967E+00 -0.44109178110E+02  0.13429071984E+03  0.12509000000E+03 0.  0.
         25    1    4    4    0    0  0.76568383961E+02 -0.55759070618E+02 -0.98118126708E+02  0.18505800784E+03  0.12509000000E+03 0.  0.
<mgrwt>
<rscale>  2 0.45405190E+03</rscale>
<asrwt>0</asrwt>
<pdfrwt beam="1">  1       21 0.21079165E-01 0.45405190E+03</pdfrwt>
<pdfrwt beam="2">  1       21 0.52878580E-01 0.45405190E+03</pdfrwt>
<totfact> 0.65558497E+04</totfact>
</mgrwt>
</event>
<event>
 7    0  0.4759581E-002  0.4508183E+03  0.7546771E-02  0.1027478E+00
         21   -1    0    0  502  501  0.00000000000E+00  0.00000000000E+00  0.22673744348E+02  0.22673744348E+02  0.00000000000E+00 0. -1.
         21   -1    0    0  501  502 -0.00000000000E+00 -0.00000000000E+00 -0.22408864257E+04  0.22408864257E+04  0.00000000000E+00 0. -1.
      99926    2    1    2    0    0  0.00000000000E+00  0.00000000000E+00 -0.22182126813E+04  0.22635601700E+04  0.45081830454E+03 0.  0.
      99925    2    3    3    0    0 -0.10044299149E+03 -0.40761395279E+02 -0.14686090726E+04  0.14958992005E+04  0.26296677338E+03 0.  0.
         25    1    3    3    0    0  0.10044299149E+03  0.40761395279E+02 -0.74960360869E+03  0.76766096953E+03  0.12509000000E+03 0.  0.
         25    1    4    4    0    0 -0.26011386651E+02 -0.34833012612E+02 -0.54419127005E+03  0.56007283232E+03  0.12509000000E+03 0.  0.
         25    1    4    4    0    0 -0.74431604842E+02 -0.59283826671E+01 -0.92441780256E+03  0.93582636815E+03  0.12509000000E+03 0.  0.
<mgrwt>
<rscale>  2 0.45081830E+03</rscale>
<asrwt>0</asrwt>
<pdfrwt beam="1">  1       21 0.33343761E-02 0.45081830E+03</pdfrwt>
<pdfrwt beam="2">  1       21 0.32954193E+00 0.45081830E+03</pdfrwt>
<totfact> 0.10191217E+04</totfact>
</mgrwt>
</event>
<event>
 7    0  0.4759581E-002  0.4502317E+03  0.7546771E-02  0.1027653E+00
         21   -1    0    0  502  501  0.00000000000E+00  0.00000000000E+00  0.20204813235E+03  0.20204813235E+03  0.00000000000E+00 0. -1.
         21   -1    0    0  501  502 -0.00000000000E+00 -0.00000000000E+00 -0.25081720158E+03  0.25081720158E+03  0.00000000000E+00 0. -1.
      99926    2    1    2    0    0  0.00000000000E+00  0.00000000000E+00 -0.48769069232E+02  0.45286533394E+03  0.45023170542E+03 0.  0.
      99925    2    3    3    0    0 -0.41591032202E+02 -0.95715070873E+02 -0.43175632710E+00  0.28293831233E+03  0.26298804806E+03 0.  0.
         25    1    4    4    0    0  0.14870272492E+02 -0.25546151907E+02  0.58798565010E+01  0.12866938911E+03  0.12509000000E+03 0.  0.
         25    1    4    4    0    0 -0.56461304694E+02 -0.70168918966E+02 -0.63116128281E+01  0.15426892323E+03  0.12509000000E+03 0.  0.
         25    1    3    3    0    0  0.41591032202E+02  0.95715070873E+02 -0.48337312905E+02  0.16992702160E+03  0.12509000000E+03 0.  0.
<mgrwt>
<rscale>  2 0.45023171E+03</rscale>
<asrwt>0</asrwt>
<pdfrwt beam="1">  1       21 0.29712961E-01 0.45023171E+03</pdfrwt>
<pdfrwt beam="2">  1       21 0.36884882E-01 0.45023171E+03</pdfrwt>
<totfact> 0.71379555E+04</totfact>
</mgrwt>
</event>
<event>
 7    0  0.4759581E-002  0.4531206E+03  0.7546771E-02  0.1026796E+00
         21   -1    0    0  502  501  0.00000000000E+00  0.00000000000E+00  0.18345785012E+03  0.18345785012E+03  0.00000000000E+00 0.  1.
         21   -1    0    0  501  502 -0.00000000000E+00 -0.00000000000E+00 -0.27978945847E+03  0.27978945847E+03  0.00000000000E+00 0.  1.
      99926    2    1    2    0    0  0.00000000000E+00  0.71054273576E-14 -0.96331608350E+02  0.46324730860E+03  0.45312061325E+03 0.  0.
      99925    2    3    3    0    0 -0.72148895489E+02 -0.60005859042E+02 -0.12205686838E+03  0.30476871905E+03  0.26302077248E+03 0.  0.
         25    1    4    4    0    0 -0.21595369602E+02 -0.68069559347E+02 -0.59793403974E+02  0.15595699457E+03  0.12509000000E+03 0.  0.
         25    1    4    4    0    0 -0.50553525888E+02  0.80637003051E+01 -0.62263464410E+02  0.14881172448E+03  0.12509000000E+03 0.  0.
         25    1    3    3    0    0  0.72148895489E+02  0.60005859042E+02  0.25725260035E+02  0.15847858954E+03  0.12509000000E+03 0.  0.
<mgrwt>
<rscale>  2 0.45312061E+03</rscale>
<asrwt>0</asrwt>
<pdfrwt beam="1">  1       21 0.26979096E-01 0.45312061E+03</pdfrwt>
<pdfrwt beam="2">  1       21 0.41145508E-01 0.45312061E+03</pdfrwt>
<totfact> 0.68964265E+04</totfact>
</mgrwt>
</event>
<event>
 7    0  0.4759581E-002  0.4471681E+03  0.7546771E-02  0.1028570E+00
         21   -1    0    0  502  501  0.00000000000E+00  0.00000000000E+00  0.65734391039E+02  0.65734391039E+02  0.00000000000E+00 0.  1.
         21   -1    0    0  501  502 -0.00000000000E+00 -0.00000000000E+00 -0.76048211313E+03  0.76048211313E+03  0.00000000000E+00 0.  1.
      99926    2    1    2    0    0 -0.35527136788E-14  0.00000000000E+00 -0.69474772209E+03  0.82621650417E+03  0.44716810531E+03 0.  0.
      99925    2    3    3    0    0  0.11832567937E+02  0.62539927400E+02 -0.59609383019E+03  0.65466082612E+03  0.26306214225E+03 0.  0.
         25    1    4    4    0    0  0.36723655951E+02  0.27792574536E+02 -0.23561323496E+03  0.27070677622E+03  0.12509000000E+03 0.  0.
         25    1    4    4    0    0 -0.24891088015E+02  0.34747352864E+02 -0.36048059523E+03  0.38395404990E+03  0.12509000000E+03 0.  0.
         25    1    3    3    0    0 -0.11832567937E+02 -0.62539927400E+02 -0.98653891899E+02  0.17155567805E+03  0.12509000000E+03 0.  0.
<mgrwt>
<rscale>  2 0.44716811E+03</rscale>
<asrwt>0</asrwt>
<pdfrwt beam="1">  1       21 0.96668228E-02 0.44716811E+03</pdfrwt>
<pdfrwt beam="2">  1       21 0.11183560E+00 0.44716811E+03</pdfrwt>
<totfact> 0.49494892E+04</totfact>
</mgrwt>
</event>
<event>
 7    0  0.4759581E-002  0.4542693E+03  0.7546771E-02  0.1026456E+00
         21   -1    0    0  502  501  0.00000000000E+00  0.00000000000E+00  0.62896918379E+03  0.62896918379E+03  0.00000000000E+00 0. -1.
         21   -1    0    0  501  502 -0.00000000000E+00 -0.00000000000E+00 -0.82023344784E+02  0.82023344784E+02  0.00000000000E+00 0. -1.
      99926    2    1    2    0    0  0.00000000000E+00  0.00000000000E+00  0.54694583900E+03  0.71099252857E+03  0.45426933077E+03 0.  0.
      99925    2    3    3    0    0 -0.76435736314E+02 -0.64657406206E+02  0.26410506012E+03  0.38592420304E+03  0.26298860384E+03 0.  0.
         25    1    3    3    0    0  0.76435736314E+02  0.64657406206E+02  0.28284077888E+03  0.32506832553E+03  0.12509000000E+03 0.  0.
         25    1    4    4    0    0 -0.63521628597E+02 -0.10120616718E+02  0.16477355805E+03  0.21664546548E+03  0.12509000000E+03 0.  0.
         25    1    4    4    0    0 -0.12914107718E+02 -0.54536789488E+02  0.99331502076E+02  0.16927873756E+03  0.12509000000E+03 0.  0.
<mgrwt>
<rscale>  2 0.45426933E+03</rscale>
<asrwt>0</asrwt>
<pdfrwt beam="1">  1       21 0.92495466E-01 0.45426933E+03</pdfrwt>
<pdfrwt beam="2">  1       21 0.12062257E-01 0.45426933E+03</pdfrwt>
<totfact> 0.52611998E+04</totfact>
</mgrwt>
</event>
<event>
 7    0  0.4759581E-002  0.4519068E+03  0.7546771E-02  0.1027155E+00
         21   -1    0    0  502  501  0.00000000000E+00  0.00000000000E+00  0.11768442446E+03  0.11768442446E+03  0.00000000000E+00 0.  1.
         21   -1    0    0  501  502 -0.00000000000E+00 -0.00000000000E+00 -0.43382926285E+03  0.43382926285E+03  0.00000000000E+00 0.  1.
      99926    2    1    2    0    0 -0.35527136788E-14 -0.71054273576E-14 -0.31614483840E+03  0.55151368731E+03  0.45190683602E+03 0.  0.
      99925    2    3    3    0    0  0.28391107409E+02  0.44234370593E+02 -0.81437972668E+02  0.28040936155E+03  0.26312455631E+03 0.  0.
         25    1    4    4    0    0  0.42263325684E+01  0.57619590170E+02 -0.60995805025E+02  0.15068468863E+03  0.12509000000E+03 0.  0.
         25    1    4    4    0    0  0.24164774841E+02 -0.13385219577E+02 -0.20442167642E+02  0.12972467292E+03  0.12509000000E+03 0.  0.
         25    1    3    3    0    0 -0.28391107409E+02 -0.44234370593E+02 -0.23470686573E+03  0.27110432575E+03  0.12509000000E+03 0.  0.
<mgrwt>
<rscale>  2 0.45190684E+03</rscale>
<asrwt>0</asrwt>
<pdfrwt beam="1">  1       21 0.17306533E-01 0.45190684E+03</pdfrwt>
<pdfrwt beam="2">  1       21 0.63798421E-01 0.45190684E+03</pdfrwt>
<totfact> 0.63301530E+04</totfact>
</mgrwt>
</event>
<event>
 7    0  0.4759581E-002  0.4554326E+03  0.7546771E-02  0.1026114E+00
         21   -1    0    0  502  501  0.00000000000E+00  0.00000000000E+00  0.26272148369E+03  0.26272148369E+03  0.00000000000E+00 0.  1.
         21   -1    0    0  501  502 -0.00000000000E+00 -0.00000000000E+00 -0.19737522560E+03  0.19737522560E+03  0.00000000000E+00 0.  1.
      99926    2    1    2    0    0 -0.35527136788E-14  0.71054273576E-14  0.65346258091E+02  0.46009670929E+03  0.45543259485E+03 0.  0.
      99925    2    3    3    0    0 -0.12839076102E+02 -0.42482483755E+02  0.14704909415E+03  0.30423630758E+03  0.26261510136E+03 0.  0.
         25    1    4    4    0    0 -0.20352773138E+02 -0.46072416576E+02  0.43674447188E+02  0.14174578788E+03  0.12509000000E+03 0.  0.
         25    1    3    3    0    0  0.12839076102E+02  0.42482483755E+02 -0.81702836057E+02  0.15586040171E+03  0.12509000000E+03 0.  0.
         25    1    4    4    0    0  0.75136970358E+01  0.35899328211E+01  0.10337464696E+03  0.16249051971E+03  0.12509000000E+03 0.  0.
<mgrwt>
<rscale>  2 0.45543259E+03</rscale>
<asrwt>0</asrwt>
<pdfrwt beam="1">  1       21 0.38635512E-01 0.45543259E+03</pdfrwt>
<pdfrwt beam="2">  1       21 0.29025769E-01 0.45543259E+03</pdfrwt>
<totfact> 0.67938849E+04</totfact>
</mgrwt>
</event>
<event>
 7    0  0.4759581E-002  0.4573022E+03  0.7546771E-02  0.1025567E+00
         21   -1    0    0  502  501  0.00000000000E+00  0.00000000000E+00  0.11613771271E+04  0.11613771271E+04  0.00000000000E+00 0. -1.
         21   -1    0    0  501  502 -0.00000000000E+00 -0.00000000000E+00 -0.45016662706E+02  0.45016662706E+02  0.00000000000E+00 0. -1.
      99926    2    1    2    0    0  0.00000000000E+00  0.71054273576E-14  0.11163604644E+04  0.12063937898E+04  0.45730218633E+03 0.  0.
      99925    2    3    3    0    0 -0.56625051682E+02 -0.62796520118E+02  0.49376886749E+03  0.56575535508E+03  0.26290992351E+03 0.  0.
         25    1    4    4    0    0 -0.24800019060E+02 -0.14769706181E+01  0.29071487571E+03  0.31745845311E+03  0.12509000000E+03 0.  0.
         25    1    3    3    0    0  0.56625051682E+02  0.62796520118E+02  0.62259159693E+03  0.64063843475E+03  0.12509000000E+03 0.  0.
         25    1    4    4    0    0 -0.31825032622E+02 -0.61319549500E+02  0.20305399178E+03  0.24829690197E+03  0.12509000000E+03 0.  0.
<mgrwt>
<rscale>  2 0.45730219E+03</rscale>
<asrwt>0</asrwt>
<pdfrwt beam="1">  1       21 0.17079073E+00 0.45730219E+03</pdfrwt>
<pdfrwt beam="2">  1       21 0.66200982E-02 0.45730219E+03</pdfrwt>
<totfact> 0.31387310E+04</totfact>
</mgrwt>
</event>
<event>
 7    0  0.4759581E-002  0.4381548E+03  0.7546771E-02  0.1031314E+00
         21   -1    0    0  502  501  0.00000000000E+00  0.00000000000E+00  0.19531149199E+03  0.19531149199E+03  0.00000000000E+00 0.  1.
         21   -1    0    0  501  502 -0.00000000000E+00 -0.00000000000E+00 -0.24573519826E+03  0.24573519826E+03  0.00000000000E+00 0.  1.
      99926    2    1    2    0    0  0.00000000000E+00  0.00000000000E+00 -0.50423706274E+02  0.44104669025E+03  0.43815480464E+03 0.  0.
      99925    2    3    3    0    0  0.68683966908E+02  0.57177339738E+02 -0.72491411043E+02  0.28573659018E+03  0.26154093141E+03 0.  0.
         25    1    4    4    0    0  0.39515742503E+02  0.34717673085E+02  0.17057640323E+01  0.13571008975E+03  0.12509000000E+03 0.  0.
         25    1    4    4    0    0  0.29168224405E+02  0.22459666653E+02 -0.74197175075E+02  0.15002650043E+03  0.12509000000E+03 0.  0.
         25    1    3    3    0    0 -0.68683966908E+02 -0.57177339738E+02  0.22067704768E+02  0.15531010007E+03  0.12509000000E+03 0.  0.
<mgrwt>
<rscale>  2 0.43815480E+03</rscale>
<asrwt>0</asrwt>
<pdfrwt beam="1">  1       21 0.28722278E-01 0.43815480E+03</pdfrwt>
<pdfrwt beam="2">  1       21 0.36137529E-01 0.43815480E+03</pdfrwt>
<totfact> 0.79774651E+04</totfact>
</mgrwt>
</event>
<event>
 7    0  0.4759581E-002  0.4490589E+03  0.7546771E-02  0.1028003E+00
         21   -1    0    0  502  501  0.00000000000E+00  0.00000000000E+00  0.12254460189E+03  0.12254460189E+03  0.00000000000E+00 0. -1.
         21   -1    0    0  501  502 -0.00000000000E+00 -0.00000000000E+00 -0.41138884518E+03  0.41138884518E+03  0.00000000000E+00 0. -1.
      99926    2    1    2    0    0  0.00000000000E+00  0.00000000000E+00 -0.28884424329E+03  0.53393344707E+03  0.44905893713E+03 0.  0.
      99925    2    3    3    0    0  0.99574278354E+02  0.60818249352E+01 -0.23028430619E+03  0.36355504516E+03  0.26303874939E+03 0.  0.
         25    1    3    3    0    0 -0.99574278354E+02 -0.60818249352E+01 -0.58559937102E+02  0.17037840191E+03  0.12509000000E+03 0.  0.
         25    1    4    4    0    0  0.81221961764E+02  0.27952263689E+02 -0.10748873211E+03  0.18595610167E+03  0.12509000000E+03 0.  0.
         25    1    4    4    0    0  0.18352316590E+02 -0.21870438754E+02 -0.12279557408E+03  0.17759894349E+03  0.12509000000E+03 0.  0.
<mgrwt>
<rscale>  2 0.44905894E+03</rscale>
<asrwt>0</asrwt>
<pdfrwt beam="1">  1       21 0.18021265E-01 0.44905894E+03</pdfrwt>
<pdfrwt beam="2">  1       21 0.60498359E-01 0.44905894E+03</pdfrwt>
<totfact> 0.65989623E+04</totfact>
</mgrwt>
</event>
<event>
 7    0  0.4759581E-002  0.4534728E+03  0.7546771E-02  0.1026691E+00
         21   -1    0    0  502  501  0.00000000000E+00  0.00000000000E+00  0.37570214954E+03  0.37570214954E+03  0.00000000000E+00 0. -1.
         21   -1    0    0  501  502 -0.00000000000E+00 -0.00000000000E+00 -0.13683548093E+03  0.13683548093E+03  0.00000000000E+00 0. -1.
      99926    2    1    2    0    0  0.00000000000E+00  0.00000000000E+00  0.23886666861E+03  0.51253763047E+03  0.45347275251E+03 0.  0.
      99925    2    3    3    0    0 -0.37714135707E+02  0.89142739015E+02  0.21351769383E+03  0.35235379054E+03  0.26304867264E+03 0.  0.
         25    1    4    4    0    0  0.37678876289E+01  0.78905112997E+02  0.10679949193E+03  0.18246603358E+03  0.12509000000E+03 0.  0.
         25    1    3    3    0    0  0.37714135707E+02 -0.89142739015E+02  0.25348974780E+02  0.16018383993E+03  0.12509000000E+03 0.  0.
         25    1    4    4    0    0 -0.41482023335E+02  0.10237626018E+02  0.10671820190E+03  0.16988775696E+03  0.12509000000E+03 0.  0.
<mgrwt>
<rscale>  2 0.45347275E+03</rscale>
<asrwt>0</asrwt>
<pdfrwt beam="1">  1       21 0.55250316E-01 0.45347275E+03</pdfrwt>
<pdfrwt beam="2">  1       21 0.20122865E-01 0.45347275E+03</pdfrwt>
<totfact> 0.65184959E+04</totfact>
</mgrwt>
</event>
<event>
 7    0  0.4759581E-002  0.4569685E+03  0.7546771E-02  0.1025664E+00
         21   -1    0    0  502  501  0.00000000000E+00  0.00000000000E+00  0.26573491231E+03  0.26573491231E+03  0.00000000000E+00 0.  1.
         21   -1    0    0  501  502 -0.00000000000E+00 -0.00000000000E+00 -0.19645538806E+03  0.19645538806E+03  0.00000000000E+00 0.  1.
      99926    2    1    2    0    0  0.00000000000E+00  0.00000000000E+00  0.69279524246E+02  0.46219030037E+03  0.45696851235E+03 0.  0.
      99925    2    3    3    0    0 -0.32773560202E+02  0.13906621619E+02 -0.67079290258E+02  0.27375268532E+03  0.26300836710E+03 0.  0.
         25    1    4    4    0    0 -0.52582082099E+00  0.42515453276E+02 -0.21772717412E+02  0.13390070791E+03  0.12509000000E+03 0.  0.
         25    1    3    3    0    0  0.32773560202E+02 -0.13906621619E+02  0.13635881450E+03  0.18843761505E+03  0.12509000000E+03 0.  0.
         25    1    4    4    0    0 -0.32247739381E+02 -0.28608831657E+02 -0.45306572846E+02  0.13985197742E+03  0.12509000000E+03 0.  0.
<mgrwt>
<rscale>  2 0.45696851E+03</rscale>
<asrwt>0</asrwt>
<pdfrwt beam="1">  1       21 0.39078664E-01 0.45696851E+03</pdfrwt>
<pdfrwt beam="2">  1       21 0.28890498E-01 0.45696851E+03</pdfrwt>
<totfact> 0.66963834E+04</totfact>
</mgrwt>
</event>
<event>
 7    0  0.4759581E-002  0.4531634E+03  0.7546771E-02  0.1026783E+00
         21   -1    0    0  502  501  0.00000000000E+00  0.00000000000E+00  0.28061434228E+02  0.28061434228E+02  0.00000000000E+00 0.  1.
         21   -1    0    0  501  502 -0.00000000000E+00 -0.00000000000E+00 -0.18295312653E+04  0.18295312653E+04  0.00000000000E+00 0.  1.
      99926    2    1    2    0    0  0.00000000000E+00  0.00000000000E+00 -0.18014698311E+04  0.18575926995E+04  0.45316341984E+03 0.  0.
      99925    2    3    3    0    0 -0.23057045831E+02 -0.42923593820E+02 -0.72277209802E+03  0.77057367041E+03  0.26269795124E+03 0.  0.
         25    1    3    3    0    0  0.23057045831E+02  0.42923593820E+02 -0.10786977331E+04  0.10870190291E+04  0.12509000000E+03 0.  0.
         25    1    4    4    0    0 -0.41363858193E+02 -0.24619562472E+02 -0.44681244713E+03  0.46648254269E+03  0.12509000000E+03 0.  0.
         25    1    4    4    0    0  0.18306812362E+02 -0.18304031348E+02 -0.27595965089E+03  0.30409112773E+03  0.12509000000E+03 0.  0.
<mgrwt>
<rscale>  2 0.45316342E+03</rscale>
<asrwt>0</asrwt>
<pdfrwt beam="1">  1       21 0.41266811E-02 0.45316342E+03</pdfrwt>
<pdfrwt beam="2">  1       21 0.26904874E+00 0.45316342E+03</pdfrwt>
<totfact> 0.16410074E+04</totfact>
</mgrwt>
</event>
<event>
 7    0  0.4759581E-002  0.4587318E+03  0.7546771E-02  0.1025150E+00
         21   -1    0    0  502  501  0.00000000000E+00  0.00000000000E+00  0.65761347593E+02  0.65761347593E+02  0.00000000000E+00 0. -1.
         21   -1    0    0  501  502 -0.00000000000E+00 -0.00000000000E+00 -0.79999464062E+03  0.79999464062E+03  0.00000000000E+00 0. -1.
      99926    2    1    2    0    0  0.17763568394E-14  0.00000000000E+00 -0.73423329303E+03  0.86575598822E+03  0.45873184165E+03 0.  0.
      99925    2    3    3    0    0  0.12587146351E+02 -0.10104046461E+03 -0.35335054289E+03  0.45212959980E+03  0.26305314503E+03 0.  0.
         25    1    3    3    0    0 -0.12587146351E+02  0.10104046461E+03 -0.38088275014E+03  0.41362638842E+03  0.12509000000E+03 0.  0.
         25    1    4    4    0    0  0.25337260211E+02 -0.15065817550E+02 -0.18288161715E+03  0.22352214567E+03  0.12509000000E+03 0.  0.
         25    1    4    4    0    0 -0.12750113860E+02 -0.85974647058E+02 -0.17046892574E+03  0.22860745413E+03  0.12509000000E+03 0.  0.
<mgrwt>
<rscale>  2 0.45873184E+03</rscale>
<asrwt>0</asrwt>
<pdfrwt beam="1">  1       21 0.96707859E-02 0.45873184E+03</pdfrwt>
<pdfrwt beam="2">  1       21 0.11764628E+00 0.45873184E+03</pdfrwt>
<totfact> 0.43456528E+04</totfact>
</mgrwt>
</event>
<event>
 7    0  0.4759581E-002  0.4564648E+03  0.7546771E-02  0.1025812E+00
         21   -1    0    0  502  501  0.00000000000E+00  0.00000000000E+00  0.76201908364E+03  0.76201908364E+03  0.00000000000E+00 0. -1.
         21   -1    0    0  501  502 -0.00000000000E+00 -0.00000000000E+00 -0.68357894632E+02  0.68357894632E+02  0.00000000000E+00 0. -1.
      99926    2    1    2    0    0  0.00000000000E+00  0.71054273576E-14  0.69366118900E+03  0.83037697827E+03  0.45646476415E+03 0.  0.
      99925    2    3    3    0    0  0.90531279843E+02 -0.63476007805E+02  0.48894231989E+03  0.56621331750E+03  0.26326376990E+03 0.  0.
         25    1    3    3    0    0 -0.90531279843E+02  0.63476007805E+02  0.20471886912E+03  0.26416366077E+03  0.12509000000E+03 0.  0.
         25    1    4    4    0    0  0.10297181245E+02 -0.15168664906E+02  0.17950687711E+03  0.21955943926E+03  0.12509000000E+03 0.  0.
         25    1    4    4    0    0  0.80234098599E+02 -0.48307342899E+02  0.30943544278E+03  0.34665387825E+03  0.12509000000E+03 0.  0.
<mgrwt>
<rscale>  2 0.45646476E+03</rscale>
<asrwt>0</asrwt>
<pdfrwt beam="1">  1       21 0.11206163E+00 0.45646476E+03</pdfrwt>
<pdfrwt beam="2">  1       21 0.10052632E-01 0.45646476E+03</pdfrwt>
<totfact> 0.45801694E+04</totfact>
</mgrwt>
</event>
<event>
 7    0  0.4759581E-002  0.4464770E+03  0.7546771E-02  0.1028778E+00
         21   -1    0    0  502  501  0.00000000000E+00  0.00000000000E+00  0.73931500073E+02  0.73931500073E+02  0.00000000000E+00 0.  1.
         21   -1    0    0  501  502 -0.00000000000E+00 -0.00000000000E+00 -0.67407561564E+03  0.67407561564E+03  0.00000000000E+00 0.  1.
      99926    2    1    2    0    0  0.00000000000E+00  0.00000000000E+00 -0.60014411556E+03  0.74800711571E+03  0.44647697108E+03 0.  0.
      99925    2    3    3    0    0 -0.19474821004E+02 -0.10213375608E+03 -0.36167701948E+03  0.45934704435E+03  0.26339868631E+03 0.  0.
         25    1    3    3    0    0  0.19474821004E+02  0.10213375608E+03 -0.23846709608E+03  0.28866007136E+03  0.12509000000E+03 0.  0.
         25    1    4    4    0    0  0.14319615870E+02 -0.54393857535E+02 -0.23424323159E+03  0.27144270626E+03  0.12509000000E+03 0.  0.
         25    1    4    4    0    0 -0.33794436873E+02 -0.47739898544E+02 -0.12743378789E+03  0.18790433809E+03  0.12509000000E+03 0.  0.
<mgrwt>
<rscale>  2 0.44647697E+03</rscale>
<asrwt>0</asrwt>
<pdfrwt beam="1">  1       21 0.10872279E-01 0.44647697E+03</pdfrwt>
<pdfrwt beam="2">  1       21 0.99128773E-01 0.44647697E+03</pdfrwt>
<totfact> 0.53893321E+04</totfact>
</mgrwt>
</event>
<event>
 7    0  0.4759581E-002  0.4573751E+03  0.7546771E-02  0.1025545E+00
         21   -1    0    0  502  501  0.00000000000E+00  0.00000000000E+00  0.23046046541E+04  0.23046046541E+04  0.00000000000E+00 0. -1.
         21   -1    0    0  501  502 -0.00000000000E+00 -0.00000000000E+00 -0.22692829566E+02  0.22692829566E+02  0.00000000000E+00 0. -1.
      99926    2    1    2    0    0  0.00000000000E+00  0.00000000000E+00  0.22819118246E+04  0.23272974837E+04  0.45737512233E+03 0.  0.
      99925    2    3    3    0    0  0.63817839194E+02 -0.37469035324E+02  0.18831797223E+04  0.19029020988E+04  0.26304730771E+03 0.  0.
         25    1    4    4    0    0  0.55339991916E+02 -0.34020833699E+02  0.78188960408E+03  0.79449278971E+03  0.12509000000E+03 0.  0.
         25    1    3    3    0    0 -0.63817839194E+02  0.37469035324E+02  0.39873210227E+03  0.42439538486E+03  0.12509000000E+03 0.  0.
         25    1    4    4    0    0  0.84778472782E+01 -0.34482016247E+01  0.11012901182E+04  0.11084093091E+04  0.12509000000E+03 0.  0.
<mgrwt>
<rscale>  2 0.45737512E+03</rscale>
<asrwt>0</asrwt>
<pdfrwt beam="1">  1       21 0.33891229E+00 0.45737512E+03</pdfrwt>
<pdfrwt beam="2">  1       21 0.33371824E-02 0.45737512E+03</pdfrwt>
<totfact> 0.88991006E+03</totfact>
</mgrwt>
</event>
<event>
 7    0  0.4759581E-002  0.4436922E+03  0.7546771E-02  0.1029620E+00
         21   -1    0    0  502  501  0.00000000000E+00  0.00000000000E+00  0.34255355625E+02  0.34255355625E+02  0.00000000000E+00 0.  1.
         21   -1    0    0  501  502 -0.00000000000E+00 -0.00000000000E+00 -0.14367297340E+04  0.14367297340E+04  0.00000000000E+00 0.  1.
      99926    2    1    2    0    0  0.00000000000E+00  0.14210854715E-13 -0.14024743784E+04  0.14709850896E+04  0.44369218148E+03 0.  0.
      99925    2    3    3    0    0 -0.70905817358E+02 -0.64641283303E+02 -0.77480038548E+03  0.82381565285E+03  0.26296475447E+03 0.  0.
         25    1    4    4    0    0 -0.60702405146E+02 -0.23784390122E+02 -0.30897168124E+03  0.33964906464E+03  0.12509000000E+03 0.  0.
         25    1    3    3    0    0  0.70905817358E+02  0.64641283303E+02 -0.62767399290E+03  0.64716943678E+03  0.12509000000E+03 0.  0.
         25    1    4    4    0    0 -0.10203412212E+02 -0.40856893181E+02 -0.46582870424E+03  0.48416658820E+03  0.12509000000E+03 0.  0.
<mgrwt>
<rscale>  2 0.44369218E+03</rscale>
<asrwt>0</asrwt>
<pdfrwt beam="1">  1       21 0.50375526E-02 0.44369218E+03</pdfrwt>
<pdfrwt beam="2">  1       21 0.21128377E+00 0.44369218E+03</pdfrwt>
<totfact> 0.26775152E+04</totfact>
</mgrwt>
</event>
<event>
 7    0  0.4759581E-002  0.4560201E+03  0.7546771E-02  0.1025942E+00
         21   -1    0    0  502  501  0.00000000000E+00  0.00000000000E+00  0.43533670722E+03  0.43533670722E+03  0.00000000000E+00 0. -1.
         21   -1    0    0  501  502 -0.00000000000E+00 -0.00000000000E+00 -0.11942156469E+03  0.11942156469E+03  0.00000000000E+00 0. -1.
      99926    2    1    2    0    0  0.00000000000E+00  0.00000000000E+00  0.31591514253E+03  0.55475827191E+03  0.45602013439E+03 0.  0.
      99925    2    3    3    0    0 -0.16274961398E+02  0.10190526997E+03  0.13918193504E+03  0.31490062007E+03  0.26294720204E+03 0.  0.
         25    1    4    4    0    0 -0.24529167526E+02  0.26691725987E+02  0.33405228694E+02  0.13445276382E+03  0.12509000000E+03 0.  0.
         25    1    3    3    0    0  0.16274961398E+02 -0.10190526997E+03  0.17673320749E+03  0.23985765184E+03  0.12509000000E+03 0.  0.
         25    1    4    4    0    0  0.82542061284E+01  0.75213543980E+02  0.10577670635E+03  0.18044785624E+03  0.12509000000E+03 0.  0.
<mgrwt>
<rscale>  2 0.45602013E+03</rscale>
<asrwt>0</asrwt>
<pdfrwt beam="1">  1       21 0.64020104E-01 0.45602013E+03</pdfrwt>
<pdfrwt beam="2">  1       21 0.17561995E-01 0.45602013E+03</pdfrwt>
<totfact> 0.61058918E+04</totfact>
</mgrwt>
</event>
<event>
 7    0  0.4759581E-002  0.4602592E+03  0.7546771E-02  0.1024706E+00
         21   -1    0    0  502  501  0.00000000000E+00  0.00000000000E+00  0.56320027756E+02  0.56320027756E+02  0.00000000000E+00 0. -1.
         21   -1    0    0  501  502 -0.00000000000E+00 -0.00000000000E+00 -0.94033395290E+03  0.94033395290E+03  0.00000000000E+00 0. -1.
      99926    2    1    2    0    0 -0.71054273576E-14  0.14210854715E-13 -0.88401392515E+03  0.99665398066E+03  0.46025920665E+03 0.  0.
      99925    2    3    3    0    0 -0.61381404275E+02  0.98502143352E+02 -0.50465760473E+03  0.58068634372E+03  0.26276792563E+03 0.  0.
         25    1    3    3    0    0  0.61381404275E+02 -0.98502143352E+02 -0.37935632042E+03  0.41596763694E+03  0.12509000000E+03 0.  0.
         25    1    4    4    0    0 -0.14329088054E+02  0.90788179604E+01 -0.21072638814E+03  0.24564377960E+03  0.12509000000E+03 0.  0.
         25    1    4    4    0    0 -0.47052316220E+02  0.89423325392E+02 -0.29393121659E+03  0.33504256412E+03  0.12509000000E+03 0.  0.
<mgrwt>
<rscale>  2 0.46025921E+03</rscale>
<asrwt>0</asrwt>
<pdfrwt beam="1">  1       21 0.82823577E-02 0.46025921E+03</pdfrwt>
<pdfrwt beam="2">  1       21 0.13828439E+00 0.46025921E+03</pdfrwt>
<totfact> 0.37723686E+04</totfact>
</mgrwt>
</event>
<event>
 7    0  0.4759581E-002  0.4575834E+03  0.7546771E-02  0.1025484E+00
         21   -1    0    0  502  501  0.00000000000E+00  0.00000000000E+00  0.57058208161E+03  0.57058208161E+03  0.00000000000E+00 0.  1.
         21   -1    0    0  501  502 -0.00000000000E+00 -0.00000000000E+00 -0.91740792462E+02  0.91740792462E+02  0.00000000000E+00 0.  1.
      99926    2    1    2    0    0 -0.71054273576E-14  0.14210854715E-13  0.47884128915E+03  0.66232287408E+03  0.45758344521E+03 0.  0.
      99925    2    3    3    0    0 -0.41002549023E+02  0.10742373504E+03  0.28396159541E+03  0.40377564240E+03  0.26301998755E+03 0.  0.
         25    1    4    4    0    0 -0.32696145104E+02  0.84818851731E+02  0.19270297810E+03  0.24707331175E+03  0.12509000000E+03 0.  0.
         25    1    3    3    0    0  0.41002549023E+02 -0.10742373504E+03  0.19487969374E+03  0.25854723168E+03  0.12509000000E+03 0.  0.
         25    1    4    4    0    0 -0.83064039197E+01  0.22604883305E+02  0.91258617310E+02  0.15670233064E+03  0.12509000000E+03 0.  0.
<mgrwt>
<rscale>  2 0.45758345E+03</rscale>
<asrwt>0</asrwt>
<pdfrwt beam="1">  1       21 0.83909128E-01 0.45758345E+03</pdfrwt>
<pdfrwt beam="2">  1       21 0.13491293E-01 0.45758345E+03</pdfrwt>
<totfact> 0.53890217E+04</totfact>
</mgrwt>
</event>
<event>
 7    0  0.4759581E-002  0.4500213E+03  0.7546771E-02  0.1027716E+00
         21   -1    0    0  502  501  0.00000000000E+00  0.00000000000E+00  0.40954387213E+03  0.40954387213E+03  0.00000000000E+00 0. -1.
         21   -1    0    0  501  502 -0.00000000000E+00 -0.00000000000E+00 -0.12362482400E+03  0.12362482400E+03  0.00000000000E+00 0. -1.
      99926    2    1    2    0    0 -0.14210854715E-13 -0.71054273576E-14  0.28591904813E+03  0.53316869613E+03  0.45002128444E+03 0.  0.
      99925    2    3    3    0    0 -0.99781452917E+02 -0.38778014912E+02  0.20125667820E+03  0.34803280612E+03  0.26298766289E+03 0.  0.
         25    1    3    3    0    0  0.99781452917E+02  0.38778014912E+02  0.84662369927E+02  0.18513589001E+03  0.12509000000E+03 0.  0.
         25    1    4    4    0    0 -0.18995107608E+02 -0.13922692852E+02  0.12692781287E+03  0.17975770712E+03  0.12509000000E+03 0.  0.
         25    1    4    4    0    0 -0.80786345308E+02 -0.24855322060E+02  0.74328865324E+02  0.16827509900E+03  0.12509000000E+03 0.  0.
<mgrwt>
<rscale>  2 0.45002128E+03</rscale>
<asrwt>0</asrwt>
<pdfrwt beam="1">  1       21 0.60227040E-01 0.45002128E+03</pdfrwt>
<pdfrwt beam="2">  1       21 0.18180121E-01 0.45002128E+03</pdfrwt>
<totfact> 0.65537369E+04</totfact>
</mgrwt>
</event>
<event>
 7    0  0.4759581E-002  0.4126034E+03  0.7546771E-02  0.1039501E+00
         21   -1    0    0  502  501  0.00000000000E+00  0.00000000000E+00  0.82266505814E+03  0.82266505814E+03  0.00000000000E+00 0. -1.
         21   -1    0    0  501  502 -0.00000000000E+00 -0.00000000000E+00 -0.51734782319E+02  0.51734782319E+02  0.00000000000E+00 0. -1.
      99926    2    1    2    0    0  0.00000000000E+00 -0.35527136788E-14  0.77093027582E+03  0.87439984046E+03  0.41260343045E+03 0.  0.
      99925    2    3    3    0    0  0.60907414565E+02  0.17771023921E+02  0.46781996247E+03  0.54041048045E+03  0.26298754277E+03 0.  0.
         25    1    3    3    0    0 -0.60907414565E+02 -0.17771023921E+02  0.30311031335E+03  0.33398936001E+03  0.12509000000E+03 0.  0.
         25    1    4    4    0    0  0.61327903617E+02 -0.15062985518E+02  0.21913250528E+03  0.26010491781E+03  0.12509000000E+03 0.  0.
         25    1    4    4    0    0 -0.42048905172E+00  0.32834009438E+02  0.24868745719E+03  0.28030556264E+03  0.12509000000E+03 0.  0.
<mgrwt>
<rscale>  2 0.41260343E+03</rscale>
<asrwt>0</asrwt>
<pdfrwt beam="1">  1       21 0.12098015E+00 0.41260343E+03</pdfrwt>
<pdfrwt beam="2">  1       21 0.76080567E-02 0.41260343E+03</pdfrwt>
<totfact> 0.62732560E+04</totfact>
</mgrwt>
</event>
<event>
 7    0  0.4759581E-002  0.4500395E+03  0.7546771E-02  0.1027710E+00
         21   -1    0    0  502  501  0.00000000000E+00  0.00000000000E+00  0.11543681337E+03  0.11543681337E+03  0.00000000000E+00 0.  1.
         21   -1    0    0  501  502 -0.00000000000E+00 -0.00000000000E+00 -0.43862863020E+03  0.43862863020E+03  0.00000000000E+00 0.  1.
      99926    2    1    2    0    0 -0.17763568394E-14  0.14210854715E-13 -0.32319181683E+03  0.55406544356E+03  0.45003951525E+03 0.  0.
      99925    2    3    3    0    0  0.12268485884E+02  0.94580055847E+02 -0.26781920622E+03  0.38730352700E+03  0.26302279767E+03 0.  0.
         25    1    4    4    0    0 -0.20163447681E+02  0.79192447566E+02 -0.13540037021E+03  0.20164021605E+03  0.12509000000E+03 0.  0.
         25    1    4    4    0    0  0.32431933565E+02  0.15387608281E+02 -0.13241883601E+03  0.18566331095E+03  0.12509000000E+03 0.  0.
         25    1    3    3    0    0 -0.12268485884E+02 -0.94580055847E+02 -0.55372610606E+02  0.16676191656E+03  0.12509000000E+03 0.  0.
<mgrwt>
<rscale>  2 0.45003952E+03</rscale>
<asrwt>0</asrwt>
<pdfrwt beam="1">  1       21 0.16976002E-01 0.45003952E+03</pdfrwt>
<pdfrwt beam="2">  1       21 0.64504210E-01 0.45003952E+03</pdfrwt>
<totfact> 0.64076398E+04</totfact>
</mgrwt>
</event>
<event>
 7    0  0.4759581E-002  0.4503830E+03  0.7546771E-02  0.1027608E+00
         21   -1    0    0  502  501  0.00000000000E+00  0.00000000000E+00  0.19878938515E+03  0.19878938515E+03  0.00000000000E+00 0. -1.
         21   -1    0    0  501  502 -0.00000000000E+00 -0.00000000000E+00 -0.25510018793E+03  0.25510018793E+03  0.00000000000E+00 0. -1.
      99926    2    1    2    0    0 -0.71054273576E-14  0.20816681712E-15 -0.56310802778E+02  0.45388957308E+03  0.45038299040E+03 0.  0.
      99925    2    3    3    0    0  0.57093089966E+02  0.43021038546E-01  0.57752373130E+02  0.27523476914E+03  0.26298140385E+03 0.  0.
         25    1    4    4    0    0  0.53361990682E+02  0.21999049933E+02  0.54451464532E+02  0.14813483836E+03  0.12509000000E+03 0.  0.
         25    1    4    4    0    0  0.37310992846E+01 -0.21956028894E+02  0.33009085984E+01  0.12709993078E+03  0.12509000000E+03 0.  0.
         25    1    3    3    0    0 -0.57093089966E+02 -0.43021038546E-01 -0.11406317591E+03  0.17865480394E+03  0.12509000000E+03 0.  0.
<mgrwt>
<rscale>  2 0.45038299E+03</rscale>
<asrwt>0</asrwt>
<pdfrwt beam="1">  1       21 0.29233733E-01 0.45038299E+03</pdfrwt>
<pdfrwt beam="2">  1       21 0.37514733E-01 0.45038299E+03</pdfrwt>
<totfact> 0.71214381E+04</totfact>
</mgrwt>
</event>
<event>
 7    0  0.4759581E-002  0.4510388E+03  0.7546771E-02  0.1027413E+00
         21   -1    0    0  502  501  0.00000000000E+00  0.00000000000E+00  0.22844366251E+03  0.22844366251E+03  0.00000000000E+00 0.  1.
         21   -1    0    0  501  502 -0.00000000000E+00 -0.00000000000E+00 -0.22263256686E+03  0.22263256686E+03  0.00000000000E+00 0.  1.
      99926    2    1    2    0    0  0.00000000000E+00  0.00000000000E+00  0.58110956493E+01  0.45107622938E+03  0.45103879642E+03 0.  0.
      99925    2    3    3    0    0  0.28343931179E+02 -0.65289326869E+02 -0.79526131520E+02  0.28375610184E+03  0.26292022573E+03 0.  0.
         25    1    4    4    0    0 -0.45040321873E+01 -0.47787777142E+02 -0.74156168552E+02  0.15313589842E+03  0.12509000000E+03 0.  0.
         25    1    4    4    0    0  0.32847963366E+02 -0.17501549728E+02 -0.53699629683E+01  0.13062020342E+03  0.12509000000E+03 0.  0.
         25    1    3    3    0    0 -0.28343931179E+02  0.65289326869E+02  0.85337227170E+02  0.16732012754E+03  0.12509000000E+03 0.  0.
<mgrwt>
<rscale>  2 0.45103880E+03</rscale>
<asrwt>0</asrwt>
<pdfrwt beam="1">  1       21 0.33594656E-01 0.45103880E+03</pdfrwt>
<pdfrwt beam="2">  1       21 0.32740083E-01 0.45103880E+03</pdfrwt>
<totfact> 0.71053526E+04</totfact>
</mgrwt>
</event>
<event>
 7    0  0.4759581E-002  0.4600303E+03  0.7546771E-02  0.1024772E+00
         21   -1    0    0  502  501  0.00000000000E+00  0.00000000000E+00  0.32840988729E+03  0.32840988729E+03  0.00000000000E+00 0.  1.
         21   -1    0    0  501  502 -0.00000000000E+00 -0.00000000000E+00 -0.16110041346E+03  0.16110041346E+03  0.00000000000E+00 0.  1.
      99926    2    1    2    0    0  0.00000000000E+00  0.00000000000E+00  0.16730947383E+03  0.48951030075E+03  0.46003029738E+03 0.  0.
      99925    2    3    3    0    0 -0.78721259283E+02  0.71346087900E+02  0.15902489956E+03  0.32518305653E+03  0.26299771986E+03 0.  0.
         25    1    4    4    0    0 -0.37474600192E+02  0.17308949737E+02  0.11844040074E+03  0.17714282946E+03  0.12509000000E+03 0.  0.
         25    1    3    3    0    0  0.78721259283E+02 -0.71346087900E+02  0.82845742752E+01  0.16432724422E+03  0.12509000000E+03 0.  0.
         25    1    4    4    0    0 -0.41246659090E+02  0.54037138163E+02  0.40584498811E+02  0.14804022707E+03  0.12509000000E+03 0.  0.
<mgrwt>
<rscale>  2 0.46003030E+03</rscale>
<asrwt>0</asrwt>
<pdfrwt beam="1">  1       21 0.48295572E-01 0.46003030E+03</pdfrwt>
<pdfrwt beam="2">  1       21 0.23691237E-01 0.46003030E+03</pdfrwt>
<totfact> 0.63442514E+04</totfact>
</mgrwt>
</event>
<event>
 7    0  0.4759581E-002  0.4570955E+03  0.7546771E-02  0.1025627E+00
         21   -1    0    0  502  501  0.00000000000E+00  0.00000000000E+00  0.14314443790E+04  0.14314443790E+04  0.00000000000E+00 0. -1.
         21   -1    0    0  501  502 -0.00000000000E+00 -0.00000000000E+00 -0.36490468519E+02  0.36490468519E+02  0.00000000000E+00 0. -1.
      99926    2    1    2    0    0  0.00000000000E+00  0.00000000000E+00  0.13949539105E+04  0.14679348475E+04  0.45709550883E+03 0.  0.
      99925    2    3    3    0    0  0.73347505718E+02  0.47343688087E+01  0.11612513578E+04  0.11928591087E+04  0.26268967704E+03 0.  0.
         25    1    4    4    0    0  0.70967200142E+02  0.88693779068E+01  0.52527919539E+03  0.54468408327E+03  0.12509000000E+03 0.  0.
         25    1    3    3    0    0 -0.73347505718E+02 -0.47343688087E+01  0.23370255264E+03  0.27507573876E+03  0.12509000000E+03 0.  0.
         25    1    4    4    0    0  0.23803055759E+01 -0.41350090982E+01  0.63597216243E+03  0.64817502546E+03  0.12509000000E+03 0.  0.
<mgrwt>
<rscale>  2 0.45709551E+03</rscale>
<asrwt>0</asrwt>
<pdfrwt beam="1">  1       21 0.21050649E+00 0.45709551E+03</pdfrwt>
<pdfrwt beam="2">  1       21 0.53662463E-02 0.45709551E+03</pdfrwt>
<totfact> 0.24180015E+04</totfact>
</mgrwt>
</event>
<event>
 7    0  0.4759581E-002  0.4099919E+03  0.7546771E-02  0.1040374E+00
         21   -1    0    0  502  501  0.00000000000E+00  0.00000000000E+00  0.33785683149E+03  0.33785683149E+03  0.00000000000E+00 0. -1.
         21   -1    0    0  501  502 -0.00000000000E+00 -0.00000000000E+00 -0.12438206331E+03  0.12438206331E+03  0.00000000000E+00 0. -1.
      99926    2    1    2    0    0  0.00000000000E+00 -0.35527136788E-14  0.21347476818E+03  0.46223889481E+03  0.40999185263E+03 0.  0.
      99925    2    3    3    0    0 -0.56811794115E+02  0.24115884813E+02  0.14856690660E+03  0.30838931097E+03  0.26310204396E+03 0.  0.
         25    1    4    4    0    0 -0.30296989835E+02  0.40490543278E+01  0.11962008882E+03  0.17575772013E+03  0.12509000000E+03 0.  0.
         25    1    4    4    0    0 -0.26514804280E+02  0.20066830485E+02  0.28946817775E+02  0.13263159085E+03  0.12509000000E+03 0.  0.
         25    1    3    3    0    0  0.56811794115E+02 -0.24115884813E+02  0.64907861581E+02  0.15384958383E+03  0.12509000000E+03 0.  0.
<mgrwt>
<rscale>  2 0.40999185E+03</rscale>
<asrwt>0</asrwt>
<pdfrwt beam="1">  1       21 0.49684828E-01 0.40999185E+03</pdfrwt>
<pdfrwt beam="2">  1       21 0.18291480E-01 0.40999185E+03</pdfrwt>
<totfact> 0.98898025E+04</totfact>
</mgrwt>
</event>
<event>
 7    0  0.4759581E-002  0.4558014E+03  0.7546771E-02  0.1026006E+00
         21   -1    0    0  502  501  0.00000000000E+00  0.00000000000E+00  0.82105768328E+02  0.82105768328E+02  0.00000000000E+00 0.  1.
         21   -1    0    0  501  502 -0.00000000000E+00 -0.00000000000E+00 -0.63258311062E+03  0.63258311062E+03  0.00000000000E+00 0.  1.
      99926    2    1    2    0    0  0.00000000000E+00  0.00000000000E+00 -0.55047734229E+03  0.71468887895E+03  0.45580137046E+03 0.  0.
      99925    2    3    3    0    0  0.91125195871E+02 -0.48111465663E+02 -0.26976177926E+03  0.39054809182E+03  0.26294082989E+03 0.  0.
         25    1    4    4    0    0  0.39399849134E+02  0.13206103366E+02 -0.15005967577E+03  0.19973022723E+03  0.12509000000E+03 0.  0.
         25    1    4    4    0    0  0.51725346738E+02 -0.61317569029E+02 -0.11970210349E+03  0.19081786459E+03  0.12509000000E+03 0.  0.
         25    1    3    3    0    0 -0.91125195871E+02  0.48111465663E+02 -0.28071556303E+03  0.32414078712E+03  0.12509000000E+03 0.  0.
<mgrwt>
<rscale>  2 0.45580137E+03</rscale>
<asrwt>0</asrwt>
<pdfrwt beam="1">  1       21 0.12074378E-01 0.45580137E+03</pdfrwt>
<pdfrwt beam="2">  1       21 0.93026929E-01 0.45580137E+03</pdfrwt>
<totfact> 0.51785483E+04</totfact>
</mgrwt>
</event>
<event>
 7    0  0.4759581E-002  0.4510318E+03  0.7546771E-02  0.1027415E+00
         21   -1    0    0  502  501  0.00000000000E+00  0.00000000000E+00  0.23859658000E+04  0.23859658000E+04  0.00000000000E+00 0.  1.
         21   -1    0    0  501  502 -0.00000000000E+00 -0.00000000000E+00 -0.21315237336E+02  0.21315237336E+02  0.00000000000E+00 0.  1.
      99926    2    1    2    0    0 -0.14210854715E-13  0.00000000000E+00  0.23646505627E+04  0.24072810373E+04  0.45103182727E+03 0.  0.
      99925    2    3    3    0    0 -0.10322730133E+03 -0.57393847597E+01  0.13025539226E+04  0.13328576583E+04  0.26300950551E+03 0.  0.
         25    1    4    4    0    0 -0.11421651757E+02 -0.90344268376E+01  0.51674461576E+03  0.53186895098E+03  0.12509000000E+03 0.  0.
         25    1    4    4    0    0 -0.91805649571E+02  0.32950420780E+01  0.78580930679E+03  0.80098870737E+03  0.12509000000E+03 0.  0.
         25    1    3    3    0    0  0.10322730133E+03  0.57393847597E+01  0.10620966401E+04  0.10744233790E+04  0.12509000000E+03 0.  0.
<mgrwt>
<rscale>  2 0.45103183E+03</rscale>
<asrwt>0</asrwt>
<pdfrwt beam="1">  1       21 0.35087714E+00 0.45103183E+03</pdfrwt>
<pdfrwt beam="2">  1       21 0.31345954E-02 0.45103183E+03</pdfrwt>
<totfact> 0.83830941E+03</totfact>
</mgrwt>
</event>
<event>
 7    0  0.4759581E-002  0.4718960E+03  0.7546771E-02  0.1021386E+00
         21   -1    0    0  502  501  0.00000000000E+00  0.00000000000E+00  0.69300493717E+02  0.69300493717E+02  0.00000000000E+00 0. -1.
         21   -1    0    0  501  502 -0.00000000000E+00 -0.00000000000E+00 -0.80333435071E+03  0.80333435071E+03  0.00000000000E+00 0. -1.
      99926    2    1    2    0    0  0.00000000000E+00  0.00000000000E+00 -0.73403385699E+03  0.87263484442E+03  0.47189603569E+03 0.  0.
      99925    2    3    3    0    0  0.17193433965E+02 -0.12293199878E+03 -0.39442577724E+03  0.49002662911E+03  0.26295724555E+03 0.  0.
         25    1    4    4    0    0  0.47003625810E+02 -0.50680655550E+02 -0.20637038088E+03  0.25102611794E+03  0.12509000000E+03 0.  0.
         25    1    4    4    0    0 -0.29810191845E+02 -0.72251343230E+02 -0.18805539637E+03  0.23900051117E+03  0.12509000000E+03 0.  0.
         25    1    3    3    0    0 -0.17193433965E+02  0.12293199878E+03 -0.33960807975E+03  0.38260821531E+03  0.12509000000E+03 0.  0.
<mgrwt>
<rscale>  2 0.47189604E+03</rscale>
<asrwt>0</asrwt>
<pdfrwt beam="1">  1       21 0.10191250E-01 0.47189604E+03</pdfrwt>
<pdfrwt beam="2">  1       21 0.11813740E+00 0.47189604E+03</pdfrwt>
<totfact> 0.39010977E+04</totfact>
</mgrwt>
</event>
<event>
 7    0  0.4759581E-002  0.4552375E+03  0.7546771E-02  0.1026172E+00
         21   -1    0    0  502  501  0.00000000000E+00  0.00000000000E+00  0.72527552662E+02  0.72527552662E+02  0.00000000000E+00 0. -1.
         21   -1    0    0  501  502 -0.00000000000E+00 -0.00000000000E+00 -0.71435317320E+03  0.71435317320E+03  0.00000000000E+00 0. -1.
      99926    2    1    2    0    0  0.00000000000E+00  0.00000000000E+00 -0.64182562054E+03  0.78688072586E+03  0.45523746502E+03 0.  0.
      99925    2    3    3    0    0  0.15034015990E+02  0.85787511044E+01 -0.21011109889E+03  0.33707570932E+03  0.26300901758E+03 0.  0.
         25    1    4    4    0    0 -0.16093171875E+02  0.17103223793E+02 -0.65416617605E+02  0.14310259398E+03  0.12509000000E+03 0.  0.
         25    1    4    4    0    0  0.31127187865E+02 -0.85244726884E+01 -0.14469448128E+03  0.19397311533E+03  0.12509000000E+03 0.  0.
         25    1    3    3    0    0 -0.15034015990E+02 -0.85787511044E+01 -0.43171452165E+03  0.44980501654E+03  0.12509000000E+03 0.  0.
<mgrwt>
<rscale>  2 0.45523747E+03</rscale>
<asrwt>0</asrwt>
<pdfrwt beam="1">  1       21 0.10665817E-01 0.45523747E+03</pdfrwt>
<pdfrwt beam="2">  1       21 0.10505194E+00 0.45523747E+03</pdfrwt>
<totfact> 0.48315836E+04</totfact>
</mgrwt>
</event>
<event>
 7    0  0.4759581E-002  0.4484255E+03  0.7546771E-02  0.1028193E+00
         21   -1    0    0  502  501  0.00000000000E+00  0.00000000000E+00  0.40932932220E+03  0.40932932220E+03  0.00000000000E+00 0.  1.
         21   -1    0    0  501  502 -0.00000000000E+00 -0.00000000000E+00 -0.12281397351E+03  0.12281397351E+03  0.00000000000E+00 0.  1.
      99926    2    1    2    0    0  0.00000000000E+00  0.00000000000E+00  0.28651534869E+03  0.53214329571E+03  0.44842551459E+03 0.  0.
      99925    2    3    3    0    0  0.39423635351E+02 -0.97451283530E+02  0.15843364838E+03  0.32452969852E+03  0.26299682241E+03 0.  0.
         25    1    4    4    0    0  0.27589891678E+02 -0.47279951395E+02  0.33998777973E+02  0.14071254717E+03  0.12509000000E+03 0.  0.
         25    1    4    4    0    0  0.11833743672E+02 -0.50171332135E+02  0.12443487041E+03  0.18381715135E+03  0.12509000000E+03 0.  0.
         25    1    3    3    0    0 -0.39423635351E+02  0.97451283530E+02  0.12808170030E+03  0.20761359719E+03  0.12509000000E+03 0.  0.
<mgrwt>
<rscale>  2 0.44842551E+03</rscale>
<asrwt>0</asrwt>
<pdfrwt beam="1">  1       21 0.60195488E-01 0.44842551E+03</pdfrwt>
<pdfrwt beam="2">  1       21 0.18060879E-01 0.44842551E+03</pdfrwt>
<totfact> 0.66453433E+04</totfact>
</mgrwt>
</event>
<event>
 7    0  0.4759581E-002  0.4519988E+03  0.7546771E-02  0.1027128E+00
         21   -1    0    0  502  501  0.00000000000E+00  0.00000000000E+00  0.18902995377E+03  0.18902995377E+03  0.00000000000E+00 0. -1.
         21   -1    0    0  501  502 -0.00000000000E+00 -0.00000000000E+00 -0.27019910062E+03  0.27019910062E+03  0.00000000000E+00 0. -1.
      99926    2    1    2    0    0  0.00000000000E+00  0.00000000000E+00 -0.81169146842E+02  0.45922905439E+03  0.45199877654E+03 0.  0.
      99925    2    3    3    0    0  0.66228460884E+02 -0.25115386527E+02 -0.13707432525E+03  0.30498934244E+03  0.26308199613E+03 0.  0.
         25    1    4    4    0    0  0.58664731153E+02 -0.78419526439E+01 -0.10708665663E+03  0.17498030469E+03  0.12509000000E+03 0.  0.
         25    1    3    3    0    0 -0.66228460884E+02  0.25115386527E+02  0.55905178406E+02  0.15423971196E+03  0.12509000000E+03 0.  0.
         25    1    4    4    0    0  0.75637297309E+01 -0.17273433883E+02 -0.29987668621E+02  0.13000903774E+03  0.12509000000E+03 0.  0.
<mgrwt>
<rscale>  2 0.45199878E+03</rscale>
<asrwt>0</asrwt>
<pdfrwt beam="1">  1       21 0.27798523E-01 0.45199878E+03</pdfrwt>
<pdfrwt beam="2">  1       21 0.39735162E-01 0.45199878E+03</pdfrwt>
<totfact> 0.69893336E+04</totfact>
</mgrwt>
</event>
<event>
 7    0  0.4759581E-002  0.4497401E+03  0.7546771E-02  0.1027800E+00
         21   -1    0    0  502  501  0.00000000000E+00  0.00000000000E+00  0.75786594334E+03  0.75786594334E+03  0.00000000000E+00 0.  1.
         21   -1    0    0  501  502 -0.00000000000E+00 -0.00000000000E+00 -0.66722282641E+02  0.66722282641E+02  0.00000000000E+00 0.  1.
      99926    2    1    2    0    0  0.00000000000E+00  0.88817841970E-15  0.69114366070E+03  0.82458822598E+03  0.44974012797E+03 0.  0.
      99925    2    3    3    0    0  0.77964236994E+02 -0.47401463369E+01  0.57378505402E+03  0.63611689686E+03  0.26327652198E+03 0.  0.
         25    1    3    3    0    0 -0.77964236994E+02  0.47401463369E+01  0.11735860668E+03  0.18847132912E+03  0.12509000000E+03 0.  0.
         25    1    4    4    0    0  0.81204318167E+02  0.37893058760E+01  0.31466334646E+03  0.34823703111E+03  0.12509000000E+03 0.  0.
         25    1    4    4    0    0 -0.32400811731E+01 -0.85294522129E+01  0.25912170755E+03  0.28787986575E+03  0.12509000000E+03 0.  0.
<mgrwt>
<rscale>  2 0.44974013E+03</rscale>
<asrwt>0</asrwt>
<pdfrwt beam="1">  1       21 0.11145087E+00 0.44974013E+03</pdfrwt>
<pdfrwt beam="2">  1       21 0.98121008E-02 0.44974013E+03</pdfrwt>
<totfact> 0.48572206E+04</totfact>
</mgrwt>
</event>
<event>
 7    0  0.4759581E-002  0.4530961E+03  0.7546771E-02  0.1026803E+00
         21   -1    0    0  502  501  0.00000000000E+00  0.00000000000E+00  0.17615163279E+03  0.17615163279E+03  0.00000000000E+00 0. -1.
         21   -1    0    0  501  502 -0.00000000000E+00 -0.00000000000E+00 -0.29136273841E+03  0.29136273841E+03  0.00000000000E+00 0. -1.
      99926    2    1    2    0    0  0.00000000000E+00  0.00000000000E+00 -0.11521110563E+03  0.46751437120E+03  0.45309611389E+03 0.  0.
      99925    2    3    3    0    0 -0.10960981062E+03  0.22792157085E+02 -0.77044577594E+02  0.29535750967E+03  0.26223348103E+03 0.  0.
         25    1    4    4    0    0 -0.62618337393E+02  0.42917248722E+02 -0.16394222219E+02  0.14723866693E+03  0.12509000000E+03 0.  0.
         25    1    3    3    0    0  0.10960981062E+03 -0.22792157085E+02 -0.38166528034E+02  0.17215686153E+03  0.12509000000E+03 0.  0.
         25    1    4    4    0    0 -0.46991473229E+02 -0.20125091637E+02 -0.60650355375E+02  0.14811884275E+03  0.12509000000E+03 0.  0.
<mgrwt>
<rscale>  2 0.45309611E+03</rscale>
<asrwt>0</asrwt>
<pdfrwt beam="1">  1       21 0.25904652E-01 0.45309611E+03</pdfrwt>
<pdfrwt beam="2">  1       21 0.42847461E-01 0.45309611E+03</pdfrwt>
<totfact> 0.68652070E+04</totfact>
</mgrwt>
</event>
<event>
 7    0  0.4759581E-002  0.4595097E+03  0.7546771E-02  0.1024924E+00
         21   -1    0    0  502  501  0.00000000000E+00  0.00000000000E+00  0.39782432771E+03  0.39782432771E+03  0.00000000000E+00 0. -1.
         21   -1    0    0  501  502 -0.00000000000E+00 -0.00000000000E+00 -0.13268992931E+03  0.13268992931E+03  0.00000000000E+00 0. -1.
      99926    2    1    2    0    0 -0.14210854715E-13  0.44408920985E-15  0.26513439840E+03  0.53051425701E+03  0.45950966005E+03 0.  0.
      99925    2    3    3    0    0  0.10320282753E+03  0.24272613937E+01  0.10166018505E+03  0.30023607363E+03  0.26296423993E+03 0.  0.
         25    1    4    4    0    0  0.49220754506E+02 -0.17517434866E+02  0.88550307714E+02  0.16192037640E+03  0.12509000000E+03 0.  0.
         25    1    4    4    0    0  0.53982073023E+02  0.19944696259E+02  0.13109877332E+02  0.13831569723E+03  0.12509000000E+03 0.  0.
         25    1    3    3    0    0 -0.10320282753E+03 -0.24272613937E+01  0.16347421336E+03  0.23027818338E+03  0.12509000000E+03 0.  0.
<mgrwt>
<rscale>  2 0.45950966E+03</rscale>
<asrwt>0</asrwt>
<pdfrwt beam="1">  1       21 0.58503577E-01 0.45950966E+03</pdfrwt>
<pdfrwt beam="2">  1       21 0.19513225E-01 0.45950966E+03</pdfrwt>
<totfact> 0.60963229E+04</totfact>
</mgrwt>
</event>
<event>
 7    0  0.4759581E-002  0.4582322E+03  0.7546771E-02  0.1025295E+00
         21   -1    0    0  502  501  0.00000000000E+00  0.00000000000E+00  0.19162260305E+03  0.19162260305E+03  0.00000000000E+00 0. -1.
         21   -1    0    0  501  502 -0.00000000000E+00 -0.00000000000E+00 -0.27394564481E+03  0.27394564481E+03  0.00000000000E+00 0. -1.
      99926    2    1    2    0    0 -0.71054273576E-14  0.00000000000E+00 -0.82323041763E+02  0.46556824787E+03  0.45823215755E+03 0.  0.
      99925    2    3    3    0    0  0.58869334554E+02 -0.72957628244E+02  0.17984719410E+02  0.27983303548E+03  0.26304878548E+03 0.  0.
         25    1    4    4    0    0 -0.81504967996E+01 -0.45025002791E+02 -0.54694638552E+01  0.13330830660E+03  0.12509000000E+03 0.  0.
         25    1    3    3    0    0 -0.58869334554E+02  0.72957628244E+02 -0.10030776117E+03  0.18573521239E+03  0.12509000000E+03 0.  0.
         25    1    4    4    0    0  0.67019831353E+02 -0.27932625452E+02  0.23454183265E+02  0.14652472888E+03  0.12509000000E+03 0.  0.
<mgrwt>
<rscale>  2 0.45823216E+03</rscale>
<asrwt>0</asrwt>
<pdfrwt beam="1">  1       21 0.28179795E-01 0.45823216E+03</pdfrwt>
<pdfrwt beam="2">  1       21 0.40286124E-01 0.45823216E+03</pdfrwt>
<totfact> 0.66054416E+04</totfact>
</mgrwt>
</event>
<event>
 7    0  0.4759581E-002  0.4496185E+03  0.7546771E-02  0.1027836E+00
         21   -1    0    0  502  501  0.00000000000E+00  0.00000000000E+00  0.43964889432E+02  0.43964889432E+02  0.00000000000E+00 0. -1.
         21   -1    0    0  501  502 -0.00000000000E+00 -0.00000000000E+00 -0.11495355147E+04  0.11495355147E+04  0.00000000000E+00 0. -1.
      99926    2    1    2    0    0  0.00000000000E+00  0.00000000000E+00 -0.11055706253E+04  0.11935004042E+04  0.44961851298E+03 0.  0.
      99925    2    3    3    0    0  0.68410213612E+02  0.69734562943E+02 -0.82254589172E+03  0.86901099831E+03  0.26278414069E+03 0.  0.
         25    1    3    3    0    0 -0.68410213612E+02 -0.69734562943E+02 -0.28302473358E+03  0.32448940586E+03  0.12509000000E+03 0.  0.
         25    1    4    4    0    0  0.36258170958E+02  0.31336943157E+02 -0.28618524372E+03  0.31598443125E+03  0.12509000000E+03 0.  0.
         25    1    4    4    0    0  0.32152042654E+02  0.38397619786E+02 -0.53636064799E+03  0.55302656706E+03  0.12509000000E+03 0.  0.
<mgrwt>
<rscale>  2 0.44961851E+03</rscale>
<asrwt>0</asrwt>
<pdfrwt beam="1">  1       21 0.64654249E-02 0.44961851E+03</pdfrwt>
<pdfrwt beam="2">  1       21 0.16904934E+00 0.44961851E+03</pdfrwt>
<totfact> 0.33755745E+04</totfact>
</mgrwt>
</event>
<event>
 7    0  0.4759581E-002  0.4483441E+03  0.7546771E-02  0.1028217E+00
         21   -1    0    0  502  501  0.00000000000E+00  0.00000000000E+00  0.80789435623E+03  0.80789435623E+03  0.00000000000E+00 0.  1.
         21   -1    0    0  501  502 -0.00000000000E+00 -0.00000000000E+00 -0.62202586132E+02  0.62202586132E+02  0.00000000000E+00 0.  1.
      99926    2    1    2    0    0  0.00000000000E+00  0.00000000000E+00  0.74569177010E+03  0.87009694236E+03  0.44834414585E+03 0.  0.
      99925    2    3    3    0    0 -0.50361286607E+02  0.83446318437E+02  0.55670203405E+03  0.62339028319E+03  0.26305653994E+03 0.  0.
         25    1    4    4    0    0  0.14319244705E+01  0.66935130054E+02  0.32323697783E+03  0.35300426906E+03  0.12509000000E+03 0.  0.
         25    1    4    4    0    0 -0.51793211077E+02  0.16511188384E+02  0.23346505623E+03  0.27038601413E+03  0.12509000000E+03 0.  0.
         25    1    3    3    0    0  0.50361286607E+02 -0.83446318437E+02  0.18898973604E+03  0.24670665917E+03  0.12509000000E+03 0.  0.
<mgrwt>
<rscale>  2 0.44834415E+03</rscale>
<asrwt>0</asrwt>
<pdfrwt beam="1">  1       21 0.11880799E+00 0.44834415E+03</pdfrwt>
<pdfrwt beam="2">  1       21 0.91474396E-02 0.44834415E+03</pdfrwt>
<totfact> 0.46952357E+04</totfact>
</mgrwt>
</event>
<event>
 7    0  0.4759581E-002  0.4567667E+03  0.7546771E-02  0.1025723E+00
         21   -1    0    0  502  501  0.00000000000E+00  0.00000000000E+00  0.12205873430E+03  0.12205873430E+03  0.00000000000E+00 0.  1.
         21   -1    0    0  501  502 -0.00000000000E+00 -0.00000000000E+00 -0.42732676399E+03  0.42732676399E+03  0.00000000000E+00 0.  1.
      99926    2    1    2    0    0  0.00000000000E+00 -0.14210854715E-13 -0.30526802969E+03  0.54938549829E+03  0.45676674111E+03 0.  0.
      99925    2    3    3    0    0 -0.10359067788E+02 -0.11433500079E+03 -0.19172513206E+03  0.34513246797E+03  0.26301728364E+03 0.  0.
         25    1    4    4    0    0 -0.11170979922E+01 -0.44347017580E+02 -0.45871488365E+02  0.14042651965E+03  0.12509000000E+03 0.  0.
         25    1    3    3    0    0  0.10359067788E+02  0.11433500079E+03 -0.11354289763E+03  0.20425303032E+03  0.12509000000E+03 0.  0.
         25    1    4    4    0    0 -0.92419697956E+01 -0.69987983213E+02 -0.14585364370E+03  0.20470594832E+03  0.12509000000E+03 0.  0.
<mgrwt>
<rscale>  2 0.45676674E+03</rscale>
<asrwt>0</asrwt>
<pdfrwt beam="1">  1       21 0.17949814E-01 0.45676674E+03</pdfrwt>
<pdfrwt beam="2">  1       21 0.62842172E-01 0.45676674E+03</pdfrwt>
<totfact> 0.61049270E+04</totfact>
</mgrwt>
</event>
<event>
 7    0  0.4759581E-002  0.4559555E+03  0.7546771E-02  0.1025961E+00
         21   -1    0    0  502  501  0.00000000000E+00  0.00000000000E+00  0.92399522650E+02  0.92399522650E+02  0.00000000000E+00 0.  1.
         21   -1    0    0  501  502 -0.00000000000E+00 -0.00000000000E+00 -0.56249049532E+03  0.56249049532E+03  0.00000000000E+00 0.  1.
      99926    2    1    2    0    0  0.00000000000E+00 -0.35527136788E-14 -0.47009097267E+03  0.65489001797E+03  0.45595549459E+03 0.  0.
      99925    2    3    3    0    0 -0.11002959384E+03  0.23885203688E+02 -0.26936883382E+03  0.39294746778E+03  0.26300404812E+03 0.  0.
         25    1    4    4    0    0 -0.82016994842E+02  0.21443349377E+02 -0.18756220079E+03  0.24086031624E+03  0.12509000000E+03 0.  0.
         25    1    4    4    0    0 -0.28012598997E+02  0.24418543111E+01 -0.81806633035E+02  0.15208715154E+03  0.12509000000E+03 0.  0.
         25    1    3    3    0    0  0.11002959384E+03 -0.23885203688E+02 -0.20072213885E+03  0.26194255019E+03  0.12509000000E+03 0.  0.
<mgrwt>
<rscale>  2 0.45595549E+03</rscale>
<asrwt>0</asrwt>
<pdfrwt beam="1">  1       21 0.13588165E-01 0.45595549E+03</pdfrwt>
<pdfrwt beam="2">  1       21 0.82719191E-01 0.45595549E+03</pdfrwt>
<totfact> 0.55004927E+04</totfact>
</mgrwt>
</event>
<event>
 7    0  0.4759581E-002  0.4487930E+03  0.7546771E-02  0.1028083E+00
         21   -1    0    0  502  501  0.00000000000E+00  0.00000000000E+00  0.56899632841E+03  0.56899632841E+03  0.00000000000E+00 0. -1.
         21   -1    0    0  501  502 -0.00000000000E+00 -0.00000000000E+00 -0.88495810344E+02  0.88495810344E+02  0.00000000000E+00 0. -1.
      99926    2    1    2    0    0  0.35527136788E-14  0.00000000000E+00  0.48050051807E+03  0.65749213875E+03  0.44879300870E+03 0.  0.
      99925    2    3    3    0    0  0.18602573496E+02 -0.92763677752E+02  0.37803880221E+03  0.47015002665E+03  0.26301436450E+03 0.  0.
         25    1    4    4    0    0  0.16138901534E+02 -0.23678179208E+02  0.12278831495E+03  0.17761080682E+03  0.12509000000E+03 0.  0.
         25    1    4    4    0    0  0.24636719619E+01 -0.69085498545E+02  0.25525048726E+03  0.29253921983E+03  0.12509000000E+03 0.  0.
         25    1    3    3    0    0 -0.18602573496E+02  0.92763677752E+02  0.10246171586E+03  0.18734211210E+03  0.12509000000E+03 0.  0.
<mgrwt>
<rscale>  2 0.44879301E+03</rscale>
<asrwt>0</asrwt>
<pdfrwt beam="1">  1       21 0.83675929E-01 0.44879301E+03</pdfrwt>
<pdfrwt beam="2">  1       21 0.13014090E-01 0.44879301E+03</pdfrwt>
<totfact> 0.58061963E+04</totfact>
</mgrwt>
</event>
<event>
 7    0  0.4759581E-002  0.4627523E+03  0.7546771E-02  0.1023986E+00
         21   -1    0    0  502  501  0.00000000000E+00  0.00000000000E+00  0.19035844859E+04  0.19035844859E+04  0.00000000000E+00 0.  1.
         21   -1    0    0  501  502 -0.00000000000E+00 -0.00000000000E+00 -0.28123219807E+02  0.28123219807E+02  0.00000000000E+00 0.  1.
      99926    2    1    2    0    0  0.00000000000E+00  0.00000000000E+00  0.18754612661E+04  0.19317077057E+04  0.46275230920E+03 0.  0.
      99925    2    3    3    0    0  0.39514010068E+02 -0.59350381467E+02  0.15767271625E+04  0.16000853338E+04  0.26290817000E+03 0.  0.
         25    1    4    4    0    0  0.39183531551E+00 -0.64624614254E+02  0.86140831585E+03  0.87283921144E+03  0.12509000000E+03 0.  0.
         25    1    3    3    0    0 -0.39514010068E+02  0.59350381467E+02  0.29873410364E+03  0.33162237191E+03  0.12509000000E+03 0.  0.
         25    1    4    4    0    0  0.39122174753E+02  0.52742327873E+01  0.71531884660E+03  0.72724612236E+03  0.12509000000E+03 0.  0.
<mgrwt>
<rscale>  2 0.46275231E+03</rscale>
<asrwt>0</asrwt>
<pdfrwt beam="1">  1       21 0.27993881E+00 0.46275231E+03</pdfrwt>
<pdfrwt beam="2">  1       21 0.41357689E-02 0.46275231E+03</pdfrwt>
<totfact> 0.13995842E+04</totfact>
</mgrwt>
</event>
<event>
 7    0  0.4759581E-002  0.4535296E+03  0.7546771E-02  0.1026675E+00
         21   -1    0    0  502  501  0.00000000000E+00  0.00000000000E+00  0.34746764576E+03  0.34746764576E+03  0.00000000000E+00 0. -1.
         21   -1    0    0  501  502 -0.00000000000E+00 -0.00000000000E+00 -0.14799152877E+03  0.14799152877E+03  0.00000000000E+00 0. -1.
      99926    2    1    2    0    0 -0.35527136788E-14 -0.71054273576E-14  0.19947611698E+03  0.49545917453E+03  0.45352957167E+03 0.  0.
      99925    2    3    3    0    0 -0.24273727142E+02  0.51092323097E+02  0.23109805544E+03  0.35457945846E+03  0.26290804824E+03 0.  0.
         25    1    4    4    0    0  0.25859354632E+02  0.12302594960E+02  0.10121949349E+03  0.16344098026E+03  0.12509000000E+03 0.  0.
         25    1    3    3    0    0  0.24273727142E+02 -0.51092323097E+02 -0.31621938451E+02  0.14087971607E+03  0.12509000000E+03 0.  0.
         25    1    4    4    0    0 -0.50133081774E+02  0.38789728137E+02  0.12987856195E+03  0.19113847821E+03  0.12509000000E+03 0.  0.
<mgrwt>
<rscale>  2 0.45352957E+03</rscale>
<asrwt>0</asrwt>
<pdfrwt beam="1">  1       21 0.51098183E-01 0.45352957E+03</pdfrwt>
<pdfrwt beam="2">  1       21 0.21763460E-01 0.45352957E+03</pdfrwt>
<totfact> 0.66362117E+04</totfact>
</mgrwt>
</event>
<event>
 7    0  0.4759581E-002  0.4525912E+03  0.7546771E-02  0.1026952E+00
         21   -1    0    0  502  501  0.00000000000E+00  0.00000000000E+00  0.18644762608E+03  0.18644762608E+03  0.00000000000E+00 0.  1.
         21   -1    0    0  501  502 -0.00000000000E+00 -0.00000000000E+00 -0.27465995591E+03  0.27465995591E+03  0.00000000000E+00 0.  1.
      99926    2    1    2    0    0 -0.14210854715E-13  0.71054273576E-14 -0.88212329830E+02  0.46110758200E+03  0.45259119196E+03 0.  0.
      99925    2    3    3    0    0 -0.79328519157E+02  0.43117741435E+02  0.99238097151E+01  0.27826786103E+03  0.26302541114E+03 0.  0.
         25    1    4    4    0    0 -0.75809907395E+02  0.36747459411E+02 -0.11068027038E+02  0.15122012814E+03  0.12509000000E+03 0.  0.
         25    1    3    3    0    0  0.79328519157E+02 -0.43117741435E+02 -0.98136139545E+02  0.18283972097E+03  0.12509000000E+03 0.  0.
         25    1    4    4    0    0 -0.35186117622E+01  0.63702820247E+01  0.20991836753E+02  0.12704773289E+03  0.12509000000E+03 0.  0.
<mgrwt>
<rscale>  2 0.45259119E+03</rscale>
<asrwt>0</asrwt>
<pdfrwt beam="1">  1       21 0.27418769E-01 0.45259119E+03</pdfrwt>
<pdfrwt beam="2">  1       21 0.40391169E-01 0.45259119E+03</pdfrwt>
<totfact> 0.69419898E+04</totfact>
</mgrwt>
</event>
<event>
 7    0  0.4759581E-002  0.4609700E+03  0.7546771E-02  0.1024500E+00
         21   -1    0    0  502  501  0.00000000000E+00  0.00000000000E+00  0.21988411366E+03  0.21988411366E+03  0.00000000000E+00 0. -1.
         21   -1    0    0  501  502 -0.00000000000E+00 -0.00000000000E+00 -0.24159693005E+03  0.24159693005E+03  0.00000000000E+00 0. -1.
      99926    2    1    2    0    0  0.71054273576E-14  0.00000000000E+00 -0.21712816387E+02  0.46148104371E+03  0.46096996357E+03 0.  0.
      99925    2    3    3    0    0  0.47008723177E+02  0.10890571515E+03 -0.16811322048E+02  0.28902291084E+03  0.26302347347E+03 0.  0.
         25    1    4    4    0    0  0.51513252811E+02  0.32711384118E+02  0.11938192654E+02  0.13969136842E+03  0.12509000000E+03 0.  0.
         25    1    4    4    0    0 -0.45045296347E+01  0.76194331029E+02 -0.28749514702E+02  0.14933154243E+03  0.12509000000E+03 0.  0.
         25    1    3    3    0    0 -0.47008723177E+02 -0.10890571515E+03 -0.49014943387E+01  0.17245813287E+03  0.12509000000E+03 0.  0.
<mgrwt>
<rscale>  2 0.46096996E+03</rscale>
<asrwt>0</asrwt>
<pdfrwt beam="1">  1       21 0.32335899E-01 0.46096996E+03</pdfrwt>
<pdfrwt beam="2">  1       21 0.35528960E-01 0.46096996E+03</pdfrwt>
<totfact> 0.64925423E+04</totfact>
</mgrwt>
</event>
<event>
 7    0  0.4759581E-002  0.4551784E+03  0.7546771E-02  0.1026189E+00
         21   -1    0    0  502  501  0.00000000000E+00  0.00000000000E+00  0.31922497391E+03  0.31922497391E+03  0.00000000000E+00 0.  1.
         21   -1    0    0  501  502 -0.00000000000E+00 -0.00000000000E+00 -0.16225812528E+03  0.16225812528E+03  0.00000000000E+00 0.  1.
      99926    2    1    2    0    0 -0.71054273576E-14  0.00000000000E+00  0.15696684863E+03  0.48148309919E+03  0.45517840814E+03 0.  0.
      99925    2    3    3    0    0  0.47091323646E+02  0.36139493677E+02 -0.17037747843E+01  0.27089456531E+03  0.26430532893E+03 0.  0.
         25    1    3    3    0    0 -0.47091323646E+02 -0.36139493677E+02  0.15867062341E+03  0.21058853388E+03  0.12509000000E+03 0.  0.
         25    1    4    4    0    0  0.54431987326E+02  0.18095577766E+02 -0.30747933785E+02  0.14100792428E+03  0.12509000000E+03 0.  0.
         25    1    4    4    0    0 -0.73406636799E+01  0.18043915911E+02  0.29044159001E+02  0.12988664102E+03  0.12509000000E+03 0.  0.
<mgrwt>
<rscale>  2 0.45517841E+03</rscale>
<asrwt>0</asrwt>
<pdfrwt beam="1">  1       21 0.46944849E-01 0.45517841E+03</pdfrwt>
<pdfrwt beam="2">  1       21 0.23861489E-01 0.45517841E+03</pdfrwt>
<totfact> 0.66498077E+04</totfact>
</mgrwt>
</event>
<event>
 7    0  0.4759581E-002  0.4565223E+03  0.7546771E-02  0.1025795E+00
         21   -1    0    0  502  501  0.00000000000E+00  0.00000000000E+00  0.33545930495E+03  0.33545930495E+03  0.00000000000E+00 0.  1.
         21   -1    0    0  501  502 -0.00000000000E+00 -0.00000000000E+00 -0.15531883864E+03  0.15531883864E+03  0.00000000000E+00 0.  1.
      99926    2    1    2    0    0  0.35527136788E-14  0.00000000000E+00  0.18014046631E+03  0.49077814359E+03  0.45652228710E+03 0.  0.
      99925    2    3    3    0    0 -0.59565441016E+01 -0.71113894391E+02  0.16560379986E+02  0.27283636436E+03  0.26281698792E+03 0.  0.
         25    1    4    4    0    0 -0.42932042085E+02 -0.40906020969E+02  0.93811931961E+01  0.13875149612E+03  0.12509000000E+03 0.  0.
         25    1    4    4    0    0  0.36975497983E+02 -0.30207873422E+02  0.71791867902E+01  0.13408486824E+03  0.12509000000E+03 0.  0.
         25    1    3    3    0    0  0.59565441016E+01  0.71113894391E+02  0.16358008633E+03  0.21794177923E+03  0.12509000000E+03 0.  0.
<mgrwt>
<rscale>  2 0.45652229E+03</rscale>
<asrwt>0</asrwt>
<pdfrwt beam="1">  1       21 0.49332251E-01 0.45652229E+03</pdfrwt>
<pdfrwt beam="2">  1       21 0.22841006E-01 0.45652229E+03</pdfrwt>
<totfact> 0.65132811E+04</totfact>
</mgrwt>
</event>
<event>
 7    0  0.4759581E-002  0.4574246E+03  0.7546771E-02  0.1025531E+00
         21   -1    0    0  502  501  0.00000000000E+00  0.00000000000E+00  0.10756650287E+03  0.10756650287E+03  0.00000000000E+00 0. -1.
         21   -1    0    0  501  502 -0.00000000000E+00 -0.00000000000E+00 -0.48629738996E+03  0.48629738996E+03  0.00000000000E+00 0. -1.
      99926    2    1    2    0    0 -0.35527136788E-14 -0.71054273576E-14 -0.37873088709E+03  0.59386389283E+03  0.45742457124E+03 0.  0.
      99925    2    3    3    0    0  0.20542911381E+02  0.46152288919E+02 -0.10309210355E+03  0.28698233250E+03  0.26301869206E+03 0.  0.
         25    1    3    3    0    0 -0.20542911381E+02 -0.46152288919E+02 -0.27563878355E+03  0.30688156034E+03  0.12509000000E+03 0.  0.
         25    1    4    4    0    0  0.37025174658E+02  0.15256948055E+02 -0.20197417224E+02  0.13288747791E+03  0.12509000000E+03 0.  0.
         25    1    4    4    0    0 -0.16482263277E+02  0.30895340864E+02 -0.82894686321E+02  0.15409485459E+03  0.12509000000E+03 0.  0.
<mgrwt>
<rscale>  2 0.45742457E+03</rscale>
<asrwt>0</asrwt>
<pdfrwt beam="1">  1       21 0.15818603E-01 0.45742457E+03</pdfrwt>
<pdfrwt beam="2">  1       21 0.71514322E-01 0.45742457E+03</pdfrwt>
<totfact> 0.57939389E+04</totfact>
</mgrwt>
</event>
<event>
 7    0  0.4759581E-002  0.4733569E+03  0.7546771E-02  0.1020977E+00
         21   -1    0    0  502  501  0.00000000000E+00  0.00000000000E+00  0.20719039152E+03  0.20719039152E+03  0.00000000000E+00 0. -1.
         21   -1    0    0  501  502 -0.00000000000E+00 -0.00000000000E+00 -0.27036333038E+03  0.27036333038E+03  0.00000000000E+00 0. -1.
      99926    2    1    2    0    0  0.14210854715E-13  0.00000000000E+00 -0.63172938862E+02  0.47755372191E+03  0.47335688133E+03 0.  0.
      99925    2    3    3    0    0  0.76184059897E+02  0.95904905582E+02  0.37120663067E+01  0.29014274594E+03  0.26299671421E+03 0.  0.
         25    1    4    4    0    0  0.75411969895E+02  0.63862052511E+02  0.17056593240E+02  0.16032392968E+03  0.12509000000E+03 0.  0.
         25    1    4    4    0    0  0.77209000235E+00  0.32042853071E+02 -0.13344526933E+02  0.12981881626E+03  0.12509000000E+03 0.  0.
         25    1    3    3    0    0 -0.76184059897E+02 -0.95904905582E+02 -0.66885005169E+02  0.18741097597E+03  0.12509000000E+03 0.  0.
<mgrwt>
<rscale>  2 0.47335688E+03</rscale>
<asrwt>0</asrwt>
<pdfrwt beam="1">  1       21 0.30469175E-01 0.47335688E+03</pdfrwt>
<pdfrwt beam="2">  1       21 0.39759313E-01 0.47335688E+03</pdfrwt>
<totfact> 0.57957816E+04</totfact>
</mgrwt>
</event>
<event>
 7    0  0.4759581E-002  0.4529729E+03  0.7546771E-02  0.1026839E+00
         21   -1    0    0  502  501  0.00000000000E+00  0.00000000000E+00  0.78572954948E+02  0.78572954948E+02  0.00000000000E+00 0.  1.
         21   -1    0    0  501  502 -0.00000000000E+00 -0.00000000000E+00 -0.65284706022E+03  0.65284706022E+03  0.00000000000E+00 0.  1.
      99926    2    1    2    0    0  0.00000000000E+00  0.00000000000E+00 -0.57427410527E+03  0.73142001517E+03  0.45297294688E+03 0.  0.
      99925    2    3    3    0    0 -0.84285063051E+02  0.65200407820E+02 -0.41069547584E+03  0.49955682029E+03  0.26368765194E+03 0.  0.
         25    1    3    3    0    0  0.84285063051E+02 -0.65200407820E+02 -0.16357862943E+03  0.23186319488E+03  0.12509000000E+03 0.  0.
         25    1    4    4    0    0 -0.52215958136E+02  0.10305559295E+02 -0.14293853915E+03  0.19726034805E+03  0.12509000000E+03 0.  0.
         25    1    4    4    0    0 -0.32069104914E+02  0.54894848525E+02 -0.26775693669E+03  0.30229647224E+03  0.12509000000E+03 0.  0.
<mgrwt>
<rscale>  2 0.45297295E+03</rscale>
<asrwt>0</asrwt>
<pdfrwt beam="1">  1       21 0.11554846E-01 0.45297295E+03</pdfrwt>
<pdfrwt beam="2">  1       21 0.96006923E-01 0.45297295E+03</pdfrwt>
<totfact> 0.52054823E+04</totfact>
</mgrwt>
</event>
<event>
 7    0  0.4759581E-002  0.4478345E+03  0.7546771E-02  0.1028370E+00
         21   -1    0    0  502  501  0.00000000000E+00  0.00000000000E+00  0.33272880557E+03  0.33272880557E+03  0.00000000000E+00 0.  1.
         21   -1    0    0  501  502 -0.00000000000E+00 -0.00000000000E+00 -0.15069010500E+03  0.15069010500E+03  0.00000000000E+00 0.  1.
      99926    2    1    2    0    0 -0.88817841970E-15 -0.28421709430E-13  0.18203870057E+03  0.48341891057E+03  0.44783451697E+03 0.  0.
      99925    2    3    3    0    0  0.51471740520E+01  0.10328139250E+03  0.88196887463E+02  0.29594268960E+03  0.26288751422E+03 0.  0.
         25    1    4    4    0    0  0.28187289244E+01  0.12574231257E+02  0.21267879783E+02  0.12753778787E+03  0.12509000000E+03 0.  0.
         25    1    3    3    0    0 -0.51471740520E+01 -0.10328139250E+03  0.93841813111E+02  0.18747622096E+03  0.12509000000E+03 0.  0.
         25    1    4    4    0    0  0.23284451277E+01  0.90707161248E+02  0.66929007681E+02  0.16840490173E+03  0.12509000000E+03 0.  0.
<mgrwt>
<rscale>  2 0.44783452E+03</rscale>
<asrwt>0</asrwt>
<pdfrwt beam="1">  1       21 0.48930707E-01 0.44783452E+03</pdfrwt>
<pdfrwt beam="2">  1       21 0.22160310E-01 0.44783452E+03</pdfrwt>
<totfact> 0.70370612E+04</totfact>
</mgrwt>
</event>
<event>
 6    0  0.4759581E-002  0.4524666E+03  0.7546771E-02  0.1026989E+00
         21   -1    0    0  502  501  0.00000000000E+00  0.00000000000E+00  0.94731870015E+03  0.94731870015E+03  0.00000000000E+00 0. -1.
         21   -1    0    0  501  502 -0.00000000000E+00 -0.00000000000E+00 -0.54027756429E+02  0.54027756429E+02  0.00000000000E+00 0. -1.
      99926    2    1    2    0    0  0.00000000000E+00  0.00000000000E+00  0.89329094372E+03  0.10013464566E+04  0.45246659100E+03 0.  0.
         25    1    3    3    0    0  0.40966080659E+02 -0.48866901103E+01  0.47410989474E+03  0.49206686527E+03  0.12509000000E+03 0.  0.
         25    1    3    3    0    0 -0.47276721337E+02 -0.28218799435E+02  0.11484366422E+03  0.17851600582E+03  0.12509000000E+03 0.  0.
         25    1    3    3    0    0  0.63106406781E+01  0.33105489546E+02  0.30433738476E+03  0.33076358549E+03  0.12509000000E+03 0.  0.
<mgrwt>
<rscale>  2 0.45246659E+03</rscale>
<asrwt>0</asrwt>
<pdfrwt beam="1">  1       21 0.13931156E+00 0.45246659E+03</pdfrwt>
<pdfrwt beam="2">  1       21 0.79452589E-02 0.45246659E+03</pdfrwt>
<totfact> 0.39898023E+04</totfact>
</mgrwt>
</event>
<event>
 7    0  0.4759581E-002  0.4529823E+03  0.7546771E-02  0.1026836E+00
         21   -1    0    0  502  501  0.00000000000E+00  0.00000000000E+00  0.12635885079E+03  0.12635885079E+03  0.00000000000E+00 0. -1.
         21   -1    0    0  501  502 -0.00000000000E+00 -0.00000000000E+00 -0.40597271052E+03  0.40597271052E+03  0.00000000000E+00 0. -1.
      99926    2    1    2    0    0  0.00000000000E+00  0.35527136788E-14 -0.27961385973E+03  0.53233156131E+03  0.45298231821E+03 0.  0.
      99925    2    3    3    0    0 -0.29847357688E+02  0.21396881746E+02 -0.54182675939E+02  0.27191762536E+03  0.26392184696E+03 0.  0.
         25    1    4    4    0    0 -0.40609813742E+02 -0.14180495563E+02 -0.47224833725E+01  0.13236333849E+03  0.12509000000E+03 0.  0.
         25    1    3    3    0    0  0.29847357688E+02 -0.21396881746E+02 -0.22543118379E+03  0.26041393594E+03  0.12509000000E+03 0.  0.
         25    1    4    4    0    0  0.10762456054E+02  0.35577377310E+02 -0.49460192567E+02  0.13955428688E+03  0.12509000000E+03 0.  0.
<mgrwt>
<rscale>  2 0.45298232E+03</rscale>
<asrwt>0</asrwt>
<pdfrwt beam="1">  1       21 0.18582184E-01 0.45298232E+03</pdfrwt>
<pdfrwt beam="2">  1       21 0.59701869E-01 0.45298232E+03</pdfrwt>
<totfact> 0.64066452E+04</totfact>
</mgrwt>
</event>
<event>
 7    0  0.4759581E-002  0.4658586E+03  0.7546771E-02  0.1023096E+00
         21   -1    0    0  502  501  0.00000000000E+00  0.00000000000E+00  0.72222396644E+02  0.72222396644E+02  0.00000000000E+00 0.  1.
         21   -1    0    0  501  502 -0.00000000000E+00 -0.00000000000E+00 -0.75123582207E+03  0.75123582207E+03  0.00000000000E+00 0.  1.
      99926    2    1    2    0    0  0.00000000000E+00  0.00000000000E+00 -0.67901342543E+03  0.82345821871E+03  0.46585856873E+03 0.  0.
      99925    2    3    3    0    0 -0.40826746847E+02  0.75778318345E+02 -0.26983093544E+03  0.38701006028E+03  0.26374016806E+03 0.  0.
         25    1    3    3    0    0  0.40826746847E+02 -0.75778318345E+02 -0.40918248999E+03  0.43644815844E+03  0.12509000000E+03 0.  0.
         25    1    4    4    0    0 -0.47107777141E+02  0.57001032300E+02 -0.10566005586E+03  0.17966584498E+03  0.12509000000E+03 0.  0.
         25    1    4    4    0    0  0.62810302942E+01  0.18777286045E+02 -0.16417087958E+03  0.20734421529E+03  0.12509000000E+03 0.  0.
<mgrwt>
<rscale>  2 0.46585857E+03</rscale>
<asrwt>0</asrwt>
<pdfrwt beam="1">  1       21 0.10620941E-01 0.46585857E+03</pdfrwt>
<pdfrwt beam="2">  1       21 0.11047585E+00 0.46585857E+03</pdfrwt>
<totfact> 0.42879199E+04</totfact>
</mgrwt>
</event>
<event>
 7    0  0.4759581E-002  0.4563695E+03  0.7546771E-02  0.1025839E+00
         21   -1    0    0  502  501  0.00000000000E+00  0.00000000000E+00  0.15105990309E+03  0.15105990309E+03  0.00000000000E+00 0. -1.
         21   -1    0    0  501  502 -0.00000000000E+00 -0.00000000000E+00 -0.34468637884E+03  0.34468637884E+03  0.00000000000E+00 0. -1.
      99926    2    1    2    0    0 -0.71054273576E-14  0.00000000000E+00 -0.19362647575E+03  0.49574628193E+03  0.45636954755E+03 0.  0.
      99925    2    3    3    0    0 -0.56508309849E+02  0.23248094182E+02 -0.16540800738E+02  0.27048974515E+03  0.26297802413E+03 0.  0.
         25    1    4    4    0    0 -0.17114009703E+02 -0.29592651173E+01  0.28320981197E+02  0.12942655313E+03  0.12509000000E+03 0.  0.
         25    1    4    4    0    0 -0.39394300146E+02  0.26207359299E+02 -0.44861781935E+02  0.14106319202E+03  0.12509000000E+03 0.  0.
         25    1    3    3    0    0  0.56508309849E+02 -0.23248094182E+02 -0.17708567502E+03  0.22525653678E+03  0.12509000000E+03 0.  0.
<mgrwt>
<rscale>  2 0.45636955E+03</rscale>
<asrwt>0</asrwt>
<pdfrwt beam="1">  1       21 0.22214692E-01 0.45636955E+03</pdfrwt>
<pdfrwt beam="2">  1       21 0.50689173E-01 0.45636955E+03</pdfrwt>
<totfact> 0.64862467E+04</totfact>
</mgrwt>
</event>
<event>
 7    0  0.4759581E-002  0.4540524E+03  0.7546771E-02  0.1026520E+00
         21   -1    0    0  502  501  0.00000000000E+00  0.00000000000E+00  0.31211454982E+03  0.31211454982E+03  0.00000000000E+00 0. -1.
         21   -1    0    0  501  502 -0.00000000000E+00 -0.00000000000E+00 -0.16513457280E+03  0.16513457280E+03  0.00000000000E+00 0. -1.
      99926    2    1    2    0    0  0.00000000000E+00  0.00000000000E+00  0.14697997703E+03  0.47724912262E+03  0.45405243243E+03 0.  0.
      99925    2    3    3    0    0  0.42343839829E+02  0.36386865030E+02  0.19502129006E+03  0.33208548883E+03  0.26292672666E+03 0.  0.
         25    1    3    3    0    0 -0.42343839829E+02 -0.36386865030E+02 -0.48041313036E+02  0.14516363379E+03  0.12509000000E+03 0.  0.
         25    1    4    4    0    0  0.11484356334E+02  0.16237642105E+02  0.14470539517E+03  0.19230889463E+03  0.12509000000E+03 0.  0.
         25    1    4    4    0    0  0.30859483495E+02  0.20149222925E+02  0.50315894890E+02  0.13977659419E+03  0.12509000000E+03 0.  0.
<mgrwt>
<rscale>  2 0.45405243E+03</rscale>
<asrwt>0</asrwt>
<pdfrwt beam="1">  1       21 0.45899199E-01 0.45405243E+03</pdfrwt>
<pdfrwt beam="2">  1       21 0.24284496E-01 0.45405243E+03</pdfrwt>
<totfact> 0.67406406E+04</totfact>
</mgrwt>
</event>
<event>
 7    0  0.4759581E-002  0.4538681E+03  0.7546771E-02  0.1026575E+00
         21   -1    0    0  502  501  0.00000000000E+00  0.00000000000E+00  0.22230158272E+03  0.22230158272E+03  0.00000000000E+00 0. -1.
         21   -1    0    0  501  502 -0.00000000000E+00 -0.00000000000E+00 -0.23166303493E+03  0.23166303493E+03  0.00000000000E+00 0. -1.
      99926    2    1    2    0    0  0.00000000000E+00  0.17763568394E-14 -0.93614522021E+01  0.45396461765E+03  0.45386808358E+03 0.  0.
      99925    2    3    3    0    0  0.11154633694E+03 -0.11260931552E+02 -0.84419758776E+01  0.28598322760E+03  0.26295578649E+03 0.  0.
         25    1    3    3    0    0 -0.11154633694E+03  0.11260931552E+02 -0.91947632449E+00  0.16798139005E+03  0.12509000000E+03 0.  0.
         25    1    4    4    0    0  0.38698801259E+02  0.31455526696E+02  0.21873688252E+01  0.13468236730E+03  0.12509000000E+03 0.  0.
         25    1    4    4    0    0  0.72847535685E+02 -0.42716458248E+02 -0.10629344703E+02  0.15130086031E+03  0.12509000000E+03 0.  0.
<mgrwt>
<rscale>  2 0.45386808E+03</rscale>
<asrwt>0</asrwt>
<pdfrwt beam="1">  1       21 0.32691409E-01 0.45386808E+03</pdfrwt>
<pdfrwt beam="2">  1       21 0.34068093E-01 0.45386808E+03</pdfrwt>
<totfact> 0.69244990E+04</totfact>
</mgrwt>
</event>
<event>
 7    0  0.4759581E-002  0.4556832E+03  0.7546771E-02  0.1026041E+00
         21   -1    0    0  502  501  0.00000000000E+00  0.00000000000E+00  0.58166081924E+03  0.58166081924E+03  0.00000000000E+00 0.  1.
         21   -1    0    0  501  502 -0.00000000000E+00 -0.00000000000E+00 -0.89247535679E+02  0.89247535679E+02  0.00000000000E+00 0.  1.
      99926    2    1    2    0    0  0.00000000000E+00 -0.35527136788E-14  0.49241328356E+03  0.67090835492E+03  0.45568320012E+03 0.  0.
      99925    2    3    3    0    0 -0.73370169692E+02  0.15471400572E+02  0.43592758224E+03  0.51450922260E+03  0.26280094586E+03 0.  0.
         25    1    4    4    0    0 -0.58965640395E+02 -0.25950607966E+02  0.22070348893E+03  0.26174017446E+03  0.12509000000E+03 0.  0.
         25    1    4    4    0    0 -0.14404529297E+02  0.41422008538E+02  0.21522409331E+03  0.25276904814E+03  0.12509000000E+03 0.  0.
         25    1    3    3    0    0  0.73370169692E+02 -0.15471400572E+02  0.56485701319E+02  0.15639913232E+03  0.12509000000E+03 0.  0.
<mgrwt>
<rscale>  2 0.45568320E+03</rscale>
<asrwt>0</asrwt>
<pdfrwt beam="1">  1       21 0.85538354E-01 0.45568320E+03</pdfrwt>
<pdfrwt beam="2">  1       21 0.13124638E-01 0.45568320E+03</pdfrwt>
<totfact> 0.54218626E+04</totfact>
</mgrwt>
</event>
<event>
 7    0  0.4759581E-002  0.4557379E+03  0.7546771E-02  0.1026025E+00
         21   -1    0    0  502  501  0.00000000000E+00  0.00000000000E+00  0.54325577564E+03  0.54325577564E+03  0.00000000000E+00 0.  1.
         21   -1    0    0  501  502 -0.00000000000E+00 -0.00000000000E+00 -0.95579762553E+02  0.95579762553E+02  0.00000000000E+00 0.  1.
      99926    2    1    2    0    0  0.00000000000E+00  0.00000000000E+00  0.44767601309E+03  0.63883553820E+03  0.45573789854E+03 0.  0.
      99925    2    3    3    0    0  0.37684830740E+02 -0.84035382252E+02  0.37539882591E+03  0.46750663864E+03  0.26297544892E+03 0.  0.
         25    1    4    4    0    0  0.29707200101E+02 -0.59098896438E+01  0.14554033111E+03  0.19428571902E+03  0.12509000000E+03 0.  0.
         25    1    3    3    0    0 -0.37684830740E+02  0.84035382252E+02  0.72277187179E+02  0.17132889956E+03  0.12509000000E+03 0.  0.
         25    1    4    4    0    0  0.79776306390E+01 -0.78125492608E+02  0.22985849480E+03  0.27322091962E+03  0.12509000000E+03 0.  0.
<mgrwt>
<rscale>  2 0.45573790E+03</rscale>
<asrwt>0</asrwt>
<pdfrwt beam="1">  1       21 0.79890554E-01 0.45573790E+03</pdfrwt>
<pdfrwt beam="2">  1       21 0.14055848E-01 0.45573790E+03</pdfrwt>
<totfact> 0.56022345E+04</totfact>
</mgrwt>
</event>
<event>
 7    0  0.4759581E-002  0.4539640E+03  0.7546771E-02  0.1026546E+00
         21   -1    0    0  502  501  0.00000000000E+00  0.00000000000E+00  0.34779446941E+02  0.34779446941E+02  0.00000000000E+00 0.  1.
         21   -1    0    0  501  502 -0.00000000000E+00 -0.00000000000E+00 -0.14813586201E+04  0.14813586201E+04  0.00000000000E+00 0.  1.
      99926    2    1    2    0    0 -0.14210854715E-13  0.00000000000E+00 -0.14465791732E+04  0.15161380671E+04  0.45396402293E+03 0.  0.
      99925    2    3    3    0    0  0.65566196792E+02 -0.88819588243E+02 -0.98019564109E+03  0.10208109504E+04  0.26283769931E+03 0.  0.
         25    1    3    3    0    0 -0.65566196792E+02  0.88819588243E+02 -0.46638353208E+03  0.49532711668E+03  0.12509000000E+03 0.  0.
         25    1    4    4    0    0 -0.46614721674E+01 -0.39339255662E+02 -0.51702169107E+03  0.53341188916E+03  0.12509000000E+03 0.  0.
         25    1    4    4    0    0  0.70227668960E+02 -0.49480332581E+02 -0.46317395002E+03  0.48739906121E+03  0.12509000000E+03 0.  0.
<mgrwt>
<rscale>  2 0.45396402E+03</rscale>
<asrwt>0</asrwt>
<pdfrwt beam="1">  1       21 0.51146236E-02 0.45396402E+03</pdfrwt>
<pdfrwt beam="2">  1       21 0.21784689E+00 0.45396402E+03</pdfrwt>
<totfact> 0.23575477E+04</totfact>
</mgrwt>
</event>
<event>
 7    0  0.4759581E-002  0.4613441E+03  0.7546771E-02  0.1024392E+00
         21   -1    0    0  502  501  0.00000000000E+00  0.00000000000E+00  0.56328019008E+03  0.56328019008E+03  0.00000000000E+00 0. -1.
         21   -1    0    0  501  502 -0.00000000000E+00 -0.00000000000E+00 -0.94463797540E+02  0.94463797540E+02  0.00000000000E+00 0. -1.
      99926    2    1    2    0    0 -0.14210854715E-13  0.00000000000E+00  0.46881639254E+03  0.65774398762E+03  0.46134406177E+03 0.  0.
      99925    2    3    3    0    0 -0.85556171203E+02 -0.80404020127E+02  0.32165627316E+03  0.43171683500E+03  0.26292965348E+03 0.  0.
         25    1    4    4    0    0 -0.69901819041E+02 -0.53081720924E+02  0.12963196690E+03  0.20038934189E+03  0.12509000000E+03 0.  0.
         25    1    4    4    0    0 -0.15654352162E+02 -0.27322299203E+02  0.19202430625E+03  0.23132749311E+03  0.12509000000E+03 0.  0.
         25    1    3    3    0    0  0.85556171203E+02  0.80404020127E+02  0.14716011938E+03  0.22602715262E+03  0.12509000000E+03 0.  0.
<mgrwt>
<rscale>  2 0.46134406E+03</rscale>
<asrwt>0</asrwt>
<pdfrwt beam="1">  1       21 0.82835320E-01 0.46134406E+03</pdfrwt>
<pdfrwt beam="2">  1       21 0.13891735E-01 0.46134406E+03</pdfrwt>
<totfact> 0.52576906E+04</totfact>
</mgrwt>
</event>
<event>
 7    0  0.4759581E-002  0.4165644E+03  0.7546771E-02  0.1038190E+00
         21   -1    0    0  502  501  0.00000000000E+00  0.00000000000E+00  0.54367201786E+02  0.54367201786E+02  0.00000000000E+00 0.  1.
         21   -1    0    0  501  502 -0.00000000000E+00 -0.00000000000E+00 -0.79793467398E+03  0.79793467398E+03  0.00000000000E+00 0.  1.
      99926    2    1    2    0    0 -0.26645352591E-14  0.00000000000E+00 -0.74356747219E+03  0.85230187576E+03  0.41656440286E+03 0.  0.
      99925    2    3    3    0    0  0.50740327767E+01  0.52509676977E+02 -0.38775306507E+03  0.47146803746E+03  0.26295752297E+03 0.  0.
         25    1    3    3    0    0 -0.50740327767E+01 -0.52509676977E+02 -0.35581440712E+03  0.38083383830E+03  0.12509000000E+03 0.  0.
         25    1    4    4    0    0  0.40947821015E+02  0.31013651968E+02 -0.21735975357E+03  0.25599090067E+03  0.12509000000E+03 0.  0.
         25    1    4    4    0    0 -0.35873788238E+02  0.21496025009E+02 -0.17039331151E+03  0.21547713679E+03  0.12509000000E+03 0.  0.
<mgrwt>
<rscale>  2 0.41656440E+03</rscale>
<asrwt>0</asrwt>
<pdfrwt beam="1">  1       21 0.79951769E-02 0.41656440E+03</pdfrwt>
<pdfrwt beam="2">  1       21 0.11734333E+00 0.41656440E+03</pdfrwt>
<totfact> 0.62020441E+04</totfact>
</mgrwt>
</event>
<event>
 7    0  0.4759581E-002  0.4568380E+03  0.7546771E-02  0.1025702E+00
         21   -1    0    0  502  501  0.00000000000E+00  0.00000000000E+00  0.31243899315E+03  0.31243899315E+03  0.00000000000E+00 0. -1.
         21   -1    0    0  501  502 -0.00000000000E+00 -0.00000000000E+00 -0.16699336581E+03  0.16699336581E+03  0.00000000000E+00 0. -1.
      99926    2    1    2    0    0  0.00000000000E+00  0.44408920985E-15  0.14544562734E+03  0.47943235896E+03  0.45683799788E+03 0.  0.
      99925    2    3    3    0    0  0.75814925087E+02 -0.90037249203E+00  0.60357211766E+00  0.27357939542E+03  0.26286233615E+03 0.  0.
         25    1    3    3    0    0 -0.75814925087E+02  0.90037249203E+00  0.14484205522E+03  0.20585296354E+03  0.12509000000E+03 0.  0.
         25    1    4    4    0    0 -0.27299543955E+01 -0.62548001733E+01  0.85197830611E+01  0.12556540120E+03  0.12509000000E+03 0.  0.
         25    1    4    4    0    0  0.78544879483E+02  0.53544276813E+01 -0.79162109435E+01  0.14801399422E+03  0.12509000000E+03 0.  0.
<mgrwt>
<rscale>  2 0.45683800E+03</rscale>
<asrwt>0</asrwt>
<pdfrwt beam="1">  1       21 0.45946911E-01 0.45683800E+03</pdfrwt>
<pdfrwt beam="2">  1       21 0.24557848E-01 0.45683800E+03</pdfrwt>
<totfact> 0.65776627E+04</totfact>
</mgrwt>
</event>
<event>
 7    0  0.4759581E-002  0.4561291E+03  0.7546771E-02  0.1025910E+00
         21   -1    0    0  502  501  0.00000000000E+00  0.00000000000E+00  0.74772710020E+02  0.74772710020E+02  0.00000000000E+00 0.  1.
         21   -1    0    0  501  502 -0.00000000000E+00 -0.00000000000E+00 -0.69562056700E+03  0.69562056700E+03  0.00000000000E+00 0.  1.
      99926    2    1    2    0    0  0.00000000000E+00  0.00000000000E+00 -0.62084785698E+03  0.77039327702E+03  0.45612908234E+03 0.  0.
      99925    2    3    3    0    0  0.91292511347E+02  0.67598920110E+02 -0.41027068822E+03  0.50040403884E+03  0.26301754285E+03 0.  0.
         25    1    4    4    0    0  0.35140327619E+02  0.65721982660E+02 -0.17072300340E+03  0.22438376416E+03  0.12509000000E+03 0.  0.
         25    1    4    4    0    0  0.56152183728E+02  0.18769374498E+01 -0.23954768482E+03  0.27602027468E+03  0.12509000000E+03 0.  0.
         25    1    3    3    0    0 -0.91292511347E+02 -0.67598920110E+02 -0.21057716876E+03  0.26998923818E+03  0.12509000000E+03 0.  0.
<mgrwt>
<rscale>  2 0.45612908E+03</rscale>
<asrwt>0</asrwt>
<pdfrwt beam="1">  1       21 0.10995986E-01 0.45612908E+03</pdfrwt>
<pdfrwt beam="2">  1       21 0.10229715E+00 0.45612908E+03</pdfrwt>
<totfact> 0.48796203E+04</totfact>
</mgrwt>
</event>
<event>
 7    0  0.4759581E-002  0.4462166E+03  0.7546771E-02  0.1028856E+00
         21   -1    0    0  502  501  0.00000000000E+00  0.00000000000E+00  0.64137326410E+03  0.64137326410E+03  0.00000000000E+00 0. -1.
         21   -1    0    0  501  502 -0.00000000000E+00 -0.00000000000E+00 -0.77610508550E+02  0.77610508550E+02  0.00000000000E+00 0. -1.
      99926    2    1    2    0    0  0.00000000000E+00  0.13322676296E-14  0.56376275555E+03  0.71898377265E+03  0.44621656266E+03 0.  0.
      99925    2    3    3    0    0  0.79364086119E+02  0.35359637068E+01  0.46732095359E+03  0.54217967069E+03  0.26317059190E+03 0.  0.
         25    1    3    3    0    0 -0.79364086119E+02 -0.35359637068E+01  0.96441801963E+02  0.17680410196E+03  0.12509000000E+03 0.  0.
         25    1    4    4    0    0  0.11161323925E+02 -0.15367955967E+02  0.26885443885E+03  0.29713795889E+03  0.12509000000E+03 0.  0.
         25    1    4    4    0    0  0.68202762195E+02  0.18903919674E+02  0.19846651474E+03  0.24504171180E+03  0.12509000000E+03 0.  0.
<mgrwt>
<rscale>  2 0.44621656E+03</rscale>
<asrwt>0</asrwt>
<pdfrwt beam="1">  1       21 0.94319595E-01 0.44621656E+03</pdfrwt>
<pdfrwt beam="2">  1       21 0.11413310E-01 0.44621656E+03</pdfrwt>
<totfact> 0.55629217E+04</totfact>
</mgrwt>
</event>
<event>
 7    0  0.4759581E-002  0.4639514E+03  0.7546771E-02  0.1023641E+00
         21   -1    0    0  502  501  0.00000000000E+00  0.00000000000E+00  0.12348414119E+03  0.12348414119E+03  0.00000000000E+00 0.  1.
         21   -1    0    0  501  502 -0.00000000000E+00 -0.00000000000E+00 -0.43578650038E+03  0.43578650038E+03  0.00000000000E+00 0.  1.
      99926    2    1    2    0    0  0.00000000000E+00  0.00000000000E+00 -0.31230235920E+03  0.55927064157E+03  0.46395138427E+03 0.  0.
      99925    2    3    3    0    0  0.36505645248E+02  0.24870639137E+02 -0.33120684747E+03  0.42527027365E+03  0.26306960869E+03 0.  0.
         25    1    4    4    0    0 -0.50190281183E+01  0.34563847152E+02 -0.20403206719E+03  0.24186037856E+03  0.12509000000E+03 0.  0.
         25    1    4    4    0    0  0.41524673367E+02 -0.96932080152E+01 -0.12717478028E+03  0.18340989509E+03  0.12509000000E+03 0.  0.
         25    1    3    3    0    0 -0.36505645248E+02 -0.24870639137E+02  0.18904488273E+02  0.13400036792E+03  0.12509000000E+03 0.  0.
<mgrwt>
<rscale>  2 0.46395138E+03</rscale>
<asrwt>0</asrwt>
<pdfrwt beam="1">  1       21 0.18159433E-01 0.46395138E+03</pdfrwt>
<pdfrwt beam="2">  1       21 0.64086250E-01 0.46395138E+03</pdfrwt>
<totfact> 0.57105808E+04</totfact>
</mgrwt>
</event>
<event>
 7    0  0.4759581E-002  0.4404172E+03  0.7546771E-02  0.1030619E+00
         21   -1    0    0  502  501  0.00000000000E+00  0.00000000000E+00  0.18195330838E+03  0.18195330838E+03  0.00000000000E+00 0.  1.
         21   -1    0    0  501  502 -0.00000000000E+00 -0.00000000000E+00 -0.26650694371E+03  0.26650694371E+03  0.00000000000E+00 0.  1.
      99926    2    1    2    0    0 -0.17763568394E-14  0.00000000000E+00 -0.84553635333E+02  0.44846025208E+03  0.44041716639E+03 0.  0.
      99925    2    3    3    0    0  0.58004086265E+01 -0.98347289596E+02 -0.46320910565E+02  0.28470713470E+03  0.26307164743E+03 0.  0.
         25    1    4    4    0    0  0.39126835506E+02 -0.34119018818E+02 -0.34217044962E+02  0.13969012480E+03  0.12509000000E+03 0.  0.
         25    1    4    4    0    0 -0.33326426880E+02 -0.64228270778E+02 -0.12103865603E+02  0.14501700989E+03  0.12509000000E+03 0.  0.
         25    1    3    3    0    0 -0.58004086265E+01  0.98347289596E+02 -0.38232724769E+02  0.16375311739E+03  0.12509000000E+03 0.  0.
<mgrwt>
<rscale>  2 0.44041717E+03</rscale>
<asrwt>0</asrwt>
<pdfrwt beam="1">  1       21 0.26757840E-01 0.44041717E+03</pdfrwt>
<pdfrwt beam="2">  1       21 0.39192197E-01 0.44041717E+03</pdfrwt>
<totfact> 0.77674508E+04</totfact>
</mgrwt>
</event>
<event>
 7    0  0.4759581E-002  0.4458322E+03  0.7546771E-02  0.1028972E+00
         21   -1    0    0  502  501  0.00000000000E+00  0.00000000000E+00  0.26464393148E+02  0.26464393148E+02  0.00000000000E+00 0.  1.
         21   -1    0    0  501  502 -0.00000000000E+00 -0.00000000000E+00 -0.18776771841E+04  0.18776771841E+04  0.00000000000E+00 0.  1.
      99926    2    1    2    0    0  0.00000000000E+00  0.00000000000E+00 -0.18512127909E+04  0.19041415772E+04  0.44583219805E+03 0.  0.
      99925    2    3    3    0    0  0.24365267899E+02 -0.75837241127E+02 -0.89663605804E+03  0.93811404113E+03  0.26411508886E+03 0.  0.
         25    1    3    3    0    0 -0.24365267899E+02  0.75837241127E+02 -0.95457673287E+03  0.96602753607E+03  0.12509000000E+03 0.  0.
         25    1    4    4    0    0  0.27044370270E+02 -0.64952555222E+02 -0.37379316434E+03  0.40039863911E+03  0.12509000000E+03 0.  0.
         25    1    4    4    0    0 -0.26791023702E+01 -0.10884685904E+02 -0.52284289370E+03  0.53771540202E+03  0.12509000000E+03 0.  0.
<mgrwt>
<rscale>  2 0.44583220E+03</rscale>
<asrwt>0</asrwt>
<pdfrwt beam="1">  1       21 0.38918221E-02 0.44583220E+03</pdfrwt>
<pdfrwt beam="2">  1       21 0.27612903E+00 0.44583220E+03</pdfrwt>
<totfact> 0.16480315E+04</totfact>
</mgrwt>
</event>
<event>
 7    0  0.4759581E-002  0.4169569E+03  0.7546771E-02  0.1038061E+00
         21   -1    0    0  502  501  0.00000000000E+00  0.00000000000E+00  0.86001310655E+03  0.86001310655E+03  0.00000000000E+00 0.  1.
         21   -1    0    0  501  502 -0.00000000000E+00 -0.00000000000E+00 -0.50537901751E+02  0.50537901751E+02  0.00000000000E+00 0.  1.
      99926    2    1    2    0    0  0.00000000000E+00  0.00000000000E+00  0.80947520480E+03  0.91055100830E+03  0.41695687011E+03 0.  0.
      99925    2    3    3    0    0 -0.56123255410E+02  0.32751371140E+02  0.46343736185E+03  0.53690389007E+03  0.26319028612E+03 0.  0.
         25    1    4    4    0    0  0.18213168877E+01  0.18416727554E+01  0.26779733013E+03  0.29558353654E+03  0.12509000000E+03 0.  0.
         25    1    3    3    0    0  0.56123255410E+02 -0.32751371140E+02  0.34603784295E+03  0.37364711823E+03  0.12509000000E+03 0.  0.
         25    1    4    4    0    0 -0.57944572298E+02  0.30909698384E+02  0.19564003172E+03  0.24132035353E+03  0.12509000000E+03 0.  0.
<mgrwt>
<rscale>  2 0.41695687E+03</rscale>
<asrwt>0</asrwt>
<pdfrwt beam="1">  1       21 0.12647251E+00 0.41695687E+03</pdfrwt>
<pdfrwt beam="2">  1       21 0.74320449E-02 0.41695687E+03</pdfrwt>
<totfact> 0.58290261E+04</totfact>
</mgrwt>
</event>
<event>
 7    0  0.4759581E-002  0.4583855E+03  0.7546771E-02  0.1025251E+00
         21   -1    0    0  502  501  0.00000000000E+00  0.00000000000E+00  0.39519947264E+03  0.39519947264E+03  0.00000000000E+00 0.  1.
         21   -1    0    0  501  502 -0.00000000000E+00 -0.00000000000E+00 -0.13291848178E+03  0.13291848178E+03  0.00000000000E+00 0.  1.
      99926    2    1    2    0    0  0.00000000000E+00  0.00000000000E+00  0.26228099086E+03  0.52811795442E+03  0.45838548800E+03 0.  0.
      99925    2    3    3    0    0  0.11065594421E+03 -0.32722441181E+02  0.18161720586E+03  0.33978407415E+03  0.26296941160E+03 0.  0.
         25    1    4    4    0    0  0.56082858026E+02 -0.57044971769E+02  0.90324973616E+02  0.17379736686E+03  0.12509000000E+03 0.  0.
         25    1    4    4    0    0  0.54573086184E+02  0.24322530589E+02  0.91292232239E+02  0.16598670729E+03  0.12509000000E+03 0.  0.
         25    1    3    3    0    0 -0.11065594421E+03  0.32722441181E+02  0.80663785007E+02  0.18833388027E+03  0.12509000000E+03 0.  0.
<mgrwt>
<rscale>  2 0.45838549E+03</rscale>
<asrwt>0</asrwt>
<pdfrwt beam="1">  1       21 0.58117569E-01 0.45838549E+03</pdfrwt>
<pdfrwt beam="2">  1       21 0.19546836E-01 0.45838549E+03</pdfrwt>
<totfact> 0.61662608E+04</totfact>
</mgrwt>
</event>
<event>
 7    0  0.4759581E-002  0.4543948E+03  0.7546771E-02  0.1026420E+00
         21   -1    0    0  502  501  0.00000000000E+00  0.00000000000E+00  0.89915236357E+02  0.89915236357E+02  0.00000000000E+00 0. -1.
         21   -1    0    0  501  502 -0.00000000000E+00 -0.00000000000E+00 -0.57408134710E+03  0.57408134710E+03  0.00000000000E+00 0. -1.
      99926    2    1    2    0    0  0.00000000000E+00  0.00000000000E+00 -0.48416611074E+03  0.66399658346E+03  0.45439480636E+03 0.  0.
      99925    2    3    3    0    0 -0.37913759327E+02  0.97020166817E+02 -0.36737423977E+03  0.46365134358E+03  0.26297979094E+03 0.  0.
         25    1    3    3    0    0  0.37913759327E+02 -0.97020166817E+02 -0.11679187097E+03  0.20034523988E+03  0.12509000000E+03 0.  0.
         25    1    4    4    0    0 -0.52865198591E+02  0.40213034808E+02 -0.21974007508E+03  0.26142881648E+03  0.12509000000E+03 0.  0.
         25    1    4    4    0    0  0.14951439265E+02  0.56807132009E+02 -0.14763416469E+03  0.20222252710E+03  0.12509000000E+03 0.  0.
<mgrwt>
<rscale>  2 0.45439481E+03</rscale>
<asrwt>0</asrwt>
<pdfrwt beam="1">  1       21 0.13222829E-01 0.45439481E+03</pdfrwt>
<pdfrwt beam="2">  1       21 0.84423725E-01 0.45439481E+03</pdfrwt>
<totfact> 0.55164167E+04</totfact>
</mgrwt>
</event>
<event>
 7    0  0.4759581E-002  0.4555506E+03  0.7546771E-02  0.1026080E+00
         21   -1    0    0  502  501  0.00000000000E+00  0.00000000000E+00  0.16783356617E+04  0.16783356617E+04  0.00000000000E+00 0.  1.
         21   -1    0    0  501  502 -0.00000000000E+00 -0.00000000000E+00 -0.30912521669E+02  0.30912521669E+02  0.00000000000E+00 0.  1.
      99926    2    1    2    0    0 -0.14210854715E-13  0.00000000000E+00  0.16474231401E+04  0.17092481834E+04  0.45555060097E+03 0.  0.
      99925    2    3    3    0    0 -0.10147807017E+03  0.20497603571E+02  0.86031692051E+03  0.90556811059E+03  0.26304077388E+03 0.  0.
         25    1    3    3    0    0  0.10147807017E+03 -0.20497603571E+02  0.78710621956E+03  0.80368007282E+03  0.12509000000E+03 0.  0.
         25    1    4    4    0    0 -0.48431221778E+02 -0.11382315548E+02  0.53302935954E+03  0.54976626541E+03  0.12509000000E+03 0.  0.
         25    1    4    4    0    0 -0.53046848393E+02  0.31879919119E+02  0.32728756097E+03  0.35580184518E+03  0.12509000000E+03 0.  0.
<mgrwt>
<rscale>  2 0.45555060E+03</rscale>
<asrwt>0</asrwt>
<pdfrwt beam="1">  1       21 0.24681401E+00 0.45555060E+03</pdfrwt>
<pdfrwt beam="2">  1       21 0.45459602E-02 0.45555060E+03</pdfrwt>
<totfact> 0.18988773E+04</totfact>
</mgrwt>
</event>
<event>
 6    0  0.4759581E-002  0.4647898E+03  0.7546771E-02  0.1023401E+00
         21   -1    0    0  502  501  0.00000000000E+00  0.00000000000E+00  0.10746166597E+03  0.10746166597E+03  0.00000000000E+00 0.  1.
         21   -1    0    0  501  502 -0.00000000000E+00 -0.00000000000E+00 -0.50257343236E+03  0.50257343236E+03  0.00000000000E+00 0.  1.
      99926    2    1    2    0    0  0.14210854715E-13  0.17763568394E-14 -0.39511176639E+03  0.61003509833E+03  0.46478975167E+03 0.  0.
         25    1    3    3    0    0  0.11026437997E+03  0.59998023135E+01 -0.22323981242E+03  0.27870728923E+03  0.12509000000E+03 0.  0.
         25    1    3    3    0    0 -0.60415623975E+02 -0.24688978897E+02 -0.52932819333E+02  0.15069500576E+03  0.12509000000E+03 0.  0.
         25    1    3    3    0    0 -0.49848755991E+02  0.18689176584E+02 -0.11893913463E+03  0.18063280334E+03  0.12509000000E+03 0.  0.
<mgrwt>
<rscale>  2 0.46478975E+03</rscale>
<asrwt>0</asrwt>
<pdfrwt beam="1">  1       21 0.15803186E-01 0.46478975E+03</pdfrwt>
<pdfrwt beam="2">  1       21 0.73907859E-01 0.46478975E+03</pdfrwt>
<totfact> 0.53783337E+04</totfact>
</mgrwt>
</event>
<event>
 7    0  0.4759581E-002  0.4568655E+03  0.7546771E-02  0.1025694E+00
         21   -1    0    0  502  501  0.00000000000E+00  0.00000000000E+00  0.34097411326E+02  0.34097411326E+02  0.00000000000E+00 0.  1.
         21   -1    0    0  501  502 -0.00000000000E+00 -0.00000000000E+00 -0.15303657775E+04  0.15303657775E+04  0.00000000000E+00 0.  1.
      99926    2    1    2    0    0  0.00000000000E+00  0.00000000000E+00 -0.14962683662E+04  0.15644631889E+04  0.45686545676E+03 0.  0.
      99925    2    3    3    0    0 -0.70447232369E+02  0.60400471316E+02 -0.11720281689E+04  0.12047546358E+04  0.26300698535E+03 0.  0.
         25    1    4    4    0    0 -0.21279856376E+02  0.39372715394E+02 -0.41970513185E+03  0.44023056323E+03  0.12509000000E+03 0.  0.
         25    1    3    3    0    0  0.70447232369E+02 -0.60400471316E+02 -0.32424019735E+03  0.35970855308E+03  0.12509000000E+03 0.  0.
         25    1    4    4    0    0 -0.49167375993E+02  0.21027755922E+02 -0.75232303702E+03  0.76452407255E+03  0.12509000000E+03 0.  0.
<mgrwt>
<rscale>  2 0.45686546E+03</rscale>
<asrwt>0</asrwt>
<pdfrwt beam="1">  1       21 0.50143257E-02 0.45686546E+03</pdfrwt>
<pdfrwt beam="2">  1       21 0.22505377E+00 0.45686546E+03</pdfrwt>
<totfact> 0.21923228E+04</totfact>
</mgrwt>
</event>
<event>
 7    0  0.4759581E-002  0.4554611E+03  0.7546771E-02  0.1026106E+00
         21   -1    0    0  502  501  0.00000000000E+00  0.00000000000E+00  0.22044331087E+03  0.22044331087E+03  0.00000000000E+00 0.  1.
         21   -1    0    0  501  502 -0.00000000000E+00 -0.00000000000E+00 -0.23525866819E+03  0.23525866819E+03  0.00000000000E+00 0.  1.
      99926    2    1    2    0    0  0.00000000000E+00  0.00000000000E+00 -0.14815357320E+02  0.45570197906E+03  0.45546108385E+03 0.  0.
      99925    2    3    3    0    0  0.65253173418E+02 -0.88156967380E+02 -0.38527994365E+02  0.28765607820E+03  0.26311971693E+03 0.  0.
         25    1    4    4    0    0  0.22276145273E+02 -0.78339368080E+02  0.96395878182E+00  0.14927062858E+03  0.12509000000E+03 0.  0.
         25    1    3    3    0    0 -0.65253173418E+02  0.88156967380E+02  0.23712637045E+02  0.16804590086E+03  0.12509000000E+03 0.  0.
         25    1    4    4    0    0  0.42977028145E+02 -0.98175992997E+01 -0.39491953147E+02  0.13838544962E+03  0.12509000000E+03 0.  0.
<mgrwt>
<rscale>  2 0.45546108E+03</rscale>
<asrwt>0</asrwt>
<pdfrwt beam="1">  1       21 0.32418134E-01 0.45546108E+03</pdfrwt>
<pdfrwt beam="2">  1       21 0.34596863E-01 0.45546108E+03</pdfrwt>
<totfact> 0.68243001E+04</totfact>
</mgrwt>
</event>
<event>
 7    0  0.4759581E-002  0.4326207E+03  0.7546771E-02  0.1033035E+00
         21   -1    0    0  502  501  0.00000000000E+00  0.00000000000E+00  0.38844950600E+03  0.38844950600E+03  0.00000000000E+00 0. -1.
         21   -1    0    0  501  502 -0.00000000000E+00 -0.00000000000E+00 -0.12045369104E+03  0.12045369104E+03  0.00000000000E+00 0. -1.
      99926    2    1    2    0    0  0.53290705182E-14  0.00000000000E+00  0.26799581497E+03  0.50890319704E+03  0.43262074282E+03 0.  0.
      99925    2    3    3    0    0 -0.15605951499E+02  0.27647232665E+02  0.72507884296E+02  0.27465769690E+03  0.26300483263E+03 0.  0.
         25    1    4    4    0    0  0.32069974412E+02  0.14954092467E+02  0.27664551908E+02  0.13290953191E+03  0.12509000000E+03 0.  0.
         25    1    3    3    0    0  0.15605951499E+02 -0.27647232665E+02  0.19548793067E+03  0.23424550014E+03  0.12509000000E+03 0.  0.
         25    1    4    4    0    0 -0.47675925911E+02  0.12693140198E+02  0.44843332388E+02  0.14174816499E+03  0.12509000000E+03 0.  0.
<mgrwt>
<rscale>  2 0.43262074E+03</rscale>
<asrwt>0</asrwt>
<pdfrwt beam="1">  1       21 0.57124927E-01 0.43262074E+03</pdfrwt>
<pdfrwt beam="2">  1       21 0.17713778E-01 0.43262074E+03</pdfrwt>
<totfact> 0.77519548E+04</totfact>
</mgrwt>
</event>
<event>
 7    0  0.4759581E-002  0.4523234E+03  0.7546771E-02  0.1027031E+00
         21   -1    0    0  502  501  0.00000000000E+00  0.00000000000E+00  0.16677284762E+03  0.16677284762E+03  0.00000000000E+00 0. -1.
         21   -1    0    0  501  502 -0.00000000000E+00 -0.00000000000E+00 -0.30669934505E+03  0.30669934505E+03  0.00000000000E+00 0. -1.
      99926    2    1    2    0    0  0.00000000000E+00  0.35527136788E-14 -0.13992649743E+03  0.47347219267E+03  0.45232343798E+03 0.  0.
      99925    2    3    3    0    0  0.45244404334E+02  0.21075492590E+01  0.16961817677E+02  0.26777107598E+03  0.26336694551E+03 0.  0.
         25    1    3    3    0    0 -0.45244404334E+02 -0.21075492590E+01 -0.15688831511E+03  0.20570111668E+03  0.12509000000E+03 0.  0.
         25    1    4    4    0    0  0.15602444632E+02 -0.37789826586E+02 -0.33491173292E+01  0.13164433888E+03  0.12509000000E+03 0.  0.
         25    1    4    4    0    0  0.29641959701E+02  0.39897375845E+02  0.20310935006E+02  0.13612673711E+03  0.12509000000E+03 0.  0.
<mgrwt>
<rscale>  2 0.45232344E+03</rscale>
<asrwt>0</asrwt>
<pdfrwt beam="1">  1       21 0.24525419E-01 0.45232344E+03</pdfrwt>
<pdfrwt beam="2">  1       21 0.45102845E-01 0.45232344E+03</pdfrwt>
<totfact> 0.68624535E+04</totfact>
</mgrwt>
</event>
<event>
 7    0  0.4759581E-002  0.4465591E+03  0.7546771E-02  0.1028753E+00
         21   -1    0    0  502  501  0.00000000000E+00  0.00000000000E+00  0.45937568130E+02  0.45937568130E+02  0.00000000000E+00 0. -1.
         21   -1    0    0  501  502 -0.00000000000E+00 -0.00000000000E+00 -0.10852501790E+04  0.10852501790E+04  0.00000000000E+00 0. -1.
      99926    2    1    2    0    0  0.00000000000E+00 -0.17763568394E-14 -0.10393126109E+04  0.11311877471E+04  0.44655908472E+03 0.  0.
      99925    2    3    3    0    0 -0.61969332896E+02 -0.10848727334E+02 -0.87234531519E+03  0.91328070495E+03  0.26293992471E+03 0.  0.
         25    1    4    4    0    0 -0.38660402111E+02 -0.16758403272E+02 -0.31449282219E+03  0.34106995482E+03  0.12509000000E+03 0.  0.
         25    1    3    3    0    0  0.61969332896E+02  0.10848727334E+02 -0.16696729570E+03  0.21790704219E+03  0.12509000000E+03 0.  0.
         25    1    4    4    0    0 -0.23308930785E+02  0.59096759379E+01 -0.55785249300E+03  0.57221075013E+03  0.12509000000E+03 0.  0.
<mgrwt>
<rscale>  2 0.44655908E+03</rscale>
<asrwt>0</asrwt>
<pdfrwt beam="1">  1       21 0.67555258E-02 0.44655908E+03</pdfrwt>
<pdfrwt beam="2">  1       21 0.15959559E+00 0.44655908E+03</pdfrwt>
<totfact> 0.36777700E+04</totfact>
</mgrwt>
</event>
<event>
 6    0  0.4759581E-002  0.4508160E+03  0.7546771E-02  0.1027479E+00
         21   -1    0    0  502  501  0.00000000000E+00  0.00000000000E+00  0.83378466615E+02  0.83378466615E+02  0.00000000000E+00 0.  1.
         21   -1    0    0  501  502 -0.00000000000E+00 -0.00000000000E+00 -0.60937504911E+03  0.60937504911E+03  0.00000000000E+00 0.  1.
      99926    2    1    2    0    0 -0.14210854715E-13 -0.14210854715E-13 -0.52599658250E+03  0.69275351573E+03  0.45081595885E+03 0.  0.
         25    1    3    3    0    0 -0.63252045994E+02 -0.12252400489E+02 -0.16448015164E+03  0.21645362326E+03  0.12509000000E+03 0.  0.
         25    1    3    3    0    0 -0.48504631037E+01 -0.54401130152E+02 -0.24546315407E+03  0.28086060254E+03  0.12509000000E+03 0.  0.
         25    1    3    3    0    0  0.68102509098E+02  0.66653530641E+02 -0.11605327679E+03  0.19543928992E+03  0.12509000000E+03 0.  0.
<mgrwt>
<rscale>  2 0.45081596E+03</rscale>
<asrwt>0</asrwt>
<pdfrwt beam="1">  1       21 0.12261539E-01 0.45081596E+03</pdfrwt>
<pdfrwt beam="2">  1       21 0.89613978E-01 0.45081596E+03</pdfrwt>
<totfact> 0.55090251E+04</totfact>
</mgrwt>
</event>
<event>
 7    0  0.4759581E-002  0.4357372E+03  0.7546771E-02  0.1032063E+00
         21   -1    0    0  502  501  0.00000000000E+00  0.00000000000E+00  0.74253940630E+03  0.74253940630E+03  0.00000000000E+00 0.  1.
         21   -1    0    0  501  502 -0.00000000000E+00 -0.00000000000E+00 -0.63924856497E+02  0.63924856497E+02  0.00000000000E+00 0.  1.
      99926    2    1    2    0    0  0.00000000000E+00  0.71054273576E-14  0.67861454980E+03  0.80646426279E+03  0.43573719139E+03 0.  0.
      99925    2    3    3    0    0 -0.70384712727E+02  0.58609918579E+02  0.39651636018E+03  0.48456982819E+03  0.26304669578E+03 0.  0.
         25    1    3    3    0    0  0.70384712727E+02 -0.58609918579E+02  0.28209818962E+03  0.32189443460E+03  0.12509000000E+03 0.  0.
         25    1    4    4    0    0  0.35143033639E+01  0.25115566429E+02  0.15563758032E+03  0.20128016920E+03  0.12509000000E+03 0.  0.
         25    1    4    4    0    0 -0.73899016091E+02  0.33494352150E+02  0.24087877986E+03  0.28328965899E+03  0.12509000000E+03 0.  0.
<mgrwt>
<rscale>  2 0.43573719E+03</rscale>
<asrwt>0</asrwt>
<pdfrwt beam="1">  1       21 0.10919697E+00 0.43573719E+03</pdfrwt>
<pdfrwt beam="2">  1       21 0.94007146E-02 0.43573719E+03</pdfrwt>
<totfact> 0.55359734E+04</totfact>
</mgrwt>
</event>
<event>
 7    0  0.4759581E-002  0.4528790E+03  0.7546771E-02  0.1026867E+00
         21   -1    0    0  502  501  0.00000000000E+00  0.00000000000E+00  0.21081633380E+02  0.21081633380E+02  0.00000000000E+00 0.  1.
         21   -1    0    0  501  502 -0.00000000000E+00 -0.00000000000E+00 -0.24322046381E+04  0.24322046381E+04  0.00000000000E+00 0.  1.
      99926    2    1    2    0    0 -0.71054273576E-14 -0.14210854715E-13 -0.24111230047E+04  0.24532862714E+04  0.45287899702E+03 0.  0.
      99925    2    3    3    0    0  0.35698488889E+02 -0.10361293408E+03 -0.14156049802E+04  0.14439728080E+04  0.26288778633E+03 0.  0.
         25    1    4    4    0    0 -0.19936764760E+02 -0.35944297010E+02 -0.69517443440E+03  0.70753407651E+03  0.12509000000E+03 0.  0.
         25    1    4    4    0    0  0.55635253649E+02 -0.67668637072E+02 -0.72043054580E+03  0.73643873154E+03  0.12509000000E+03 0.  0.
         25    1    3    3    0    0 -0.35698488889E+02  0.10361293408E+03 -0.99551802449E+03  0.10093134634E+04  0.12509000000E+03 0.  0.
<mgrwt>
<rscale>  2 0.45287900E+03</rscale>
<asrwt>0</asrwt>
<pdfrwt beam="1">  1       21 0.31002417E-02 0.45287900E+03</pdfrwt>
<pdfrwt beam="2">  1       21 0.35767698E+00 0.45287900E+03</pdfrwt>
<totfact> 0.77487029E+03</totfact>
</mgrwt>
</event>
<event>
 7    0  0.4759581E-002  0.4408078E+03  0.7546771E-02  0.1030499E+00
         21   -1    0    0  502  501  0.00000000000E+00  0.00000000000E+00  0.10946861835E+04  0.10946861835E+04  0.00000000000E+00 0.  1.
         21   -1    0    0  501  502 -0.00000000000E+00 -0.00000000000E+00 -0.44376083256E+02  0.44376083256E+02  0.00000000000E+00 0.  1.
      99926    2    1    2    0    0 -0.88817841970E-15  0.00000000000E+00  0.10503101002E+04  0.11390622667E+04  0.44080782759E+03 0.  0.
      99925    2    3    3    0    0  0.48972483201E+01 -0.85775546363E+02  0.54311769146E+03  0.60965403579E+03  0.26328651536E+03 0.  0.
         25    1    4    4    0    0  0.11208448362E+02 -0.34224903488E+02  0.35290412957E+03  0.37614599041E+03  0.12509000000E+03 0.  0.
         25    1    3    3    0    0 -0.48972483201E+01  0.85775546363E+02  0.50719240875E+03  0.52940823094E+03  0.12509000000E+03 0.  0.
         25    1    4    4    0    0 -0.63112000419E+01 -0.51550642875E+02  0.19021356190E+03  0.23350804538E+03  0.12509000000E+03 0.  0.
<mgrwt>
<rscale>  2 0.44080783E+03</rscale>
<asrwt>0</asrwt>
<pdfrwt beam="1">  1       21 0.16098324E+00 0.44080783E+03</pdfrwt>
<pdfrwt beam="2">  1       21 0.65258953E-02 0.44080783E+03</pdfrwt>
<totfact> 0.38204105E+04</totfact>
</mgrwt>
</event>
<event>
 7    0  0.4759581E-002  0.4321669E+03  0.7546771E-02  0.1033178E+00
         21   -1    0    0  502  501  0.00000000000E+00  0.00000000000E+00  0.24280864614E+03  0.24280864614E+03  0.00000000000E+00 0. -1.
         21   -1    0    0  501  502 -0.00000000000E+00 -0.00000000000E+00 -0.19229977883E+03  0.19229977883E+03  0.00000000000E+00 0. -1.
      99926    2    1    2    0    0 -0.35527136788E-14  0.00000000000E+00  0.50508867309E+02  0.43510842497E+03  0.43216686106E+03 0.  0.
      99925    2    3    3    0    0 -0.17032418789E+02  0.88255742084E+02  0.23536995407E+02  0.27873013595E+03  0.26278759338E+03 0.  0.
         25    1    4    4    0    0  0.16311804626E+02  0.14493014076E+02 -0.47656558851E+01  0.12706825726E+03  0.12509000000E+03 0.  0.
         25    1    3    3    0    0  0.17032418789E+02 -0.88255742084E+02  0.26971871902E+02  0.15637828901E+03  0.12509000000E+03 0.  0.
         25    1    4    4    0    0 -0.33344223415E+02  0.73762728008E+02  0.28302651292E+02  0.15166187869E+03  0.12509000000E+03 0.  0.
<mgrwt>
<rscale>  2 0.43216686E+03</rscale>
<asrwt>0</asrwt>
<pdfrwt beam="1">  1       21 0.35707154E-01 0.43216686E+03</pdfrwt>
<pdfrwt beam="2">  1       21 0.28279379E-01 0.43216686E+03</pdfrwt>
<totfact> 0.84384359E+04</totfact>
</mgrwt>
</event>
<event>
 7    0  0.4759581E-002  0.4520233E+03  0.7546771E-02  0.1027120E+00
         21   -1    0    0  502  501  0.00000000000E+00  0.00000000000E+00  0.22997846876E+03  0.22997846876E+03  0.00000000000E+00 0. -1.
         21   -1    0    0  501  502 -0.00000000000E+00 -0.00000000000E+00 -0.22211328022E+03  0.22211328022E+03  0.00000000000E+00 0. -1.
      99926    2    1    2    0    0  0.00000000000E+00  0.00000000000E+00  0.78651885382E+01  0.45209174899E+03  0.45202332718E+03 0.  0.
      99925    2    3    3    0    0 -0.74755311822E+02  0.32450762980E+02 -0.69473388649E+02  0.28395438763E+03  0.26298694618E+03 0.  0.
         25    1    3    3    0    0  0.74755311822E+02 -0.32450762980E+02  0.77338577187E+02  0.16813736136E+03  0.12509000000E+03 0.  0.
         25    1    4    4    0    0 -0.36675947727E+02 -0.24242933824E+02 -0.27887909537E+02  0.13549202405E+03  0.12509000000E+03 0.  0.
         25    1    4    4    0    0 -0.38079364095E+02  0.56693696804E+02 -0.41585479112E+02  0.14846236358E+03  0.12509000000E+03 0.  0.
<mgrwt>
<rscale>  2 0.45202333E+03</rscale>
<asrwt>0</asrwt>
<pdfrwt beam="1">  1       21 0.33820363E-01 0.45202333E+03</pdfrwt>
<pdfrwt beam="2">  1       21 0.32663718E-01 0.45202333E+03</pdfrwt>
<totfact> 0.70417030E+04</totfact>
</mgrwt>
</event>
<event>
 7    0  0.4759581E-002  0.4589004E+03  0.7546771E-02  0.1025101E+00
         21   -1    0    0  502  501  0.00000000000E+00  0.00000000000E+00  0.55628460678E+03  0.55628460678E+03  0.00000000000E+00 0.  1.
         21   -1    0    0  501  502 -0.00000000000E+00 -0.00000000000E+00 -0.94641094367E+02  0.94641094367E+02  0.00000000000E+00 0.  1.
      99926    2    1    2    0    0  0.00000000000E+00  0.00000000000E+00  0.46164351241E+03  0.65092570115E+03  0.45890035505E+03 0.  0.
      99925    2    3    3    0    0  0.12791203140E+02 -0.67886849769E+02  0.15569624239E+03  0.31325207265E+03  0.26289408870E+03 0.  0.
         25    1    4    4    0    0 -0.17592243038E+02 -0.46013601534E+02  0.11375501783E+03  0.17610920113E+03  0.12509000000E+03 0.  0.
         25    1    3    3    0    0 -0.12791203140E+02  0.67886849769E+02  0.30594727002E+03  0.33767362850E+03  0.12509000000E+03 0.  0.
         25    1    4    4    0    0  0.30383446178E+02 -0.21873248235E+02  0.41941224555E+02  0.13714287151E+03  0.12509000000E+03 0.  0.
<mgrwt>
<rscale>  2 0.45890036E+03</rscale>
<asrwt>0</asrwt>
<pdfrwt beam="1">  1       21 0.81806558E-01 0.45890036E+03</pdfrwt>
<pdfrwt beam="2">  1       21 0.13917808E-01 0.45890036E+03</pdfrwt>
<totfact> 0.53968327E+04</totfact>
</mgrwt>
</event>
<event>
 7    0  0.4759581E-002  0.4545242E+03  0.7546771E-02  0.1026381E+00
         21   -1    0    0  502  501  0.00000000000E+00  0.00000000000E+00  0.56800666952E+02  0.56800666952E+02  0.00000000000E+00 0.  1.
         21   -1    0    0  501  502 -0.00000000000E+00 -0.00000000000E+00 -0.90928624662E+03  0.90928624662E+03  0.00000000000E+00 0.  1.
      99926    2    1    2    0    0 -0.71054273576E-14  0.00000000000E+00 -0.85248557967E+03  0.96608691358E+03  0.45452421392E+03 0.  0.
      99925    2    3    3    0    0 -0.33043673945E+02  0.10241564511E+03 -0.60800478954E+03  0.67113062259E+03  0.26299361155E+03 0.  0.
         25    1    3    3    0    0  0.33043673945E+02 -0.10241564511E+03 -0.24448079013E+03  0.29495629099E+03  0.12509000000E+03 0.  0.
         25    1    4    4    0    0 -0.39582219294E+02  0.22540030361E+02 -0.33174279005E+03  0.35745711897E+03  0.12509000000E+03 0.  0.
         25    1    4    4    0    0  0.65385453499E+01  0.79875614752E+02 -0.27626199949E+03  0.31367350361E+03  0.12509000000E+03 0.  0.
<mgrwt>
<rscale>  2 0.45452421E+03</rscale>
<asrwt>0</asrwt>
<pdfrwt beam="1">  1       21 0.83530395E-02 0.45452421E+03</pdfrwt>
<pdfrwt beam="2">  1       21 0.13371856E+00 0.45452421E+03</pdfrwt>
<totfact> 0.40647195E+04</totfact>
</mgrwt>
</event>
<event>
 7    0  0.4759581E-002  0.4416209E+03  0.7546771E-02  0.1030251E+00
         21   -1    0    0  502  501  0.00000000000E+00  0.00000000000E+00  0.15487577000E+04  0.15487577000E+04  0.00000000000E+00 0. -1.
         21   -1    0    0  501  502 -0.00000000000E+00 -0.00000000000E+00 -0.31481524182E+02  0.31481524182E+02  0.00000000000E+00 0. -1.
      99926    2    1    2    0    0  0.00000000000E+00  0.00000000000E+00  0.15172761758E+04  0.15802392242E+04  0.44162089165E+03 0.  0.
      99925    2    3    3    0    0  0.53697971094E+02  0.81651526752E+02  0.10433915499E+04  0.10804746890E+04  0.26307638260E+03 0.  0.
         25    1    4    4    0    0  0.19340274969E+02  0.44086345221E+01  0.39834476231E+03  0.41799466510E+03  0.12509000000E+03 0.  0.
         25    1    3    3    0    0 -0.53697971094E+02 -0.81651526752E+02  0.47388462591E+03  0.49976453525E+03  0.12509000000E+03 0.  0.
         25    1    4    4    0    0  0.34357696126E+02  0.77242892230E+02  0.64504678761E+03  0.66248002385E+03  0.12509000000E+03 0.  0.
<mgrwt>
<rscale>  2 0.44162089E+03</rscale>
<asrwt>0</asrwt>
<pdfrwt beam="1">  1       21 0.22775843E+00 0.44162089E+03</pdfrwt>
<pdfrwt beam="2">  1       21 0.46296369E-02 0.44162089E+03</pdfrwt>
<totfact> 0.24308638E+04</totfact>
</mgrwt>
</event>
<event>
 7    0  0.4759581E-002  0.4562095E+03  0.7546771E-02  0.1025886E+00
         21   -1    0    0  502  501  0.00000000000E+00  0.00000000000E+00  0.10659901789E+03  0.10659901789E+03  0.00000000000E+00 0. -1.
         21   -1    0    0  501  502 -0.00000000000E+00 -0.00000000000E+00 -0.48810740566E+03  0.48810740566E+03  0.00000000000E+00 0. -1.
      99926    2    1    2    0    0  0.88817841970E-15  0.00000000000E+00 -0.38150838777E+03  0.59470642356E+03  0.45620946974E+03 0.  0.
      99925    2    3    3    0    0  0.61026087710E+01 -0.81466338335E+02 -0.34396492100E+03  0.44065764520E+03  0.26304616948E+03 0.  0.
         25    1    3    3    0    0 -0.61026087710E+01  0.81466338335E+02 -0.37543466769E+02  0.15404877835E+03  0.12509000000E+03 0.  0.
         25    1    4    4    0    0  0.12048158537E+02 -0.58612469682E+02 -0.12159081677E+03  0.18442454975E+03  0.12509000000E+03 0.  0.
         25    1    4    4    0    0 -0.59455497662E+01 -0.22853868654E+02 -0.22237410423E+03  0.25623309545E+03  0.12509000000E+03 0.  0.
<mgrwt>
<rscale>  2 0.45620947E+03</rscale>
<asrwt>0</asrwt>
<pdfrwt beam="1">  1       21 0.15676326E-01 0.45620947E+03</pdfrwt>
<pdfrwt beam="2">  1       21 0.71780502E-01 0.45620947E+03</pdfrwt>
<totfact> 0.58444676E+04</totfact>
</mgrwt>
</event>
<event>
 7    0  0.4759581E-002  0.4577121E+03  0.7546771E-02  0.1025447E+00
         21   -1    0    0  502  501  0.00000000000E+00  0.00000000000E+00  0.49335120573E+03  0.49335120573E+03  0.00000000000E+00 0.  1.
         21   -1    0    0  501  502 -0.00000000000E+00 -0.00000000000E+00 -0.10616186582E+03  0.10616186582E+03  0.00000000000E+00 0.  1.
      99926    2    1    2    0    0  0.14210854715E-13  0.00000000000E+00  0.38718933990E+03  0.59951307155E+03  0.45771206891E+03 0.  0.
      99925    2    3    3    0    0 -0.84041894635E+02  0.66249099538E+02  0.18543060814E+03  0.33911707084E+03  0.26299029270E+03 0.  0.
         25    1    4    4    0    0 -0.67756603534E+02  0.67846751598E+02  0.97302383107E+02  0.18522797003E+03  0.12509000000E+03 0.  0.
         25    1    3    3    0    0  0.84041894635E+02 -0.66249099538E+02  0.20175873176E+03  0.26039600071E+03  0.12509000000E+03 0.  0.
         25    1    4    4    0    0 -0.16285291101E+02 -0.15976520593E+01  0.88128225032E+02  0.15388910080E+03  0.12509000000E+03 0.  0.
<mgrwt>
<rscale>  2 0.45771207E+03</rscale>
<asrwt>0</asrwt>
<pdfrwt beam="1">  1       21 0.72551647E-01 0.45771207E+03</pdfrwt>
<pdfrwt beam="2">  1       21 0.15612039E-01 0.45771207E+03</pdfrwt>
<totfact> 0.57466836E+04</totfact>
</mgrwt>
</event>
<event>
 6    0  0.4759581E-002  0.4496796E+03  0.7546771E-02  0.1027818E+00
         21   -1    0    0  502  501  0.00000000000E+00  0.00000000000E+00  0.14345224706E+03  0.14345224706E+03  0.00000000000E+00 0. -1.
         21   -1    0    0  501  502 -0.00000000000E+00 -0.00000000000E+00 -0.35240259912E+03  0.35240259912E+03  0.00000000000E+00 0. -1.
      99926    2    1    2    0    0  0.00000000000E+00  0.00000000000E+00 -0.20895035206E+03  0.49585484617E+03  0.44967964024E+03 0.  0.
         25    1    3    3    0    0  0.42876665395E+02 -0.30024349353E+02 -0.18443848090E+03  0.22892123389E+03  0.12509000000E+03 0.  0.
         25    1    3    3    0    0  0.18970911380E+01 -0.40683388893E+01 -0.33181534490E+02  0.12949390977E+03  0.12509000000E+03 0.  0.
         25    1    3    3    0    0 -0.44773756533E+02  0.34092688243E+02  0.86696633260E+01  0.13743970252E+03  0.12509000000E+03 0.  0.
<mgrwt>
<rscale>  2 0.44967964E+03</rscale>
<asrwt>0</asrwt>
<pdfrwt beam="1">  1       21 0.21095919E-01 0.44967964E+03</pdfrwt>
<pdfrwt beam="2">  1       21 0.51823911E-01 0.44967964E+03</pdfrwt>
<totfact> 0.68406611E+04</totfact>
</mgrwt>
</event>
<event>
 7    0  0.4759581E-002  0.4574234E+03  0.7546771E-02  0.1025531E+00
         21   -1    0    0  502  501  0.00000000000E+00  0.00000000000E+00  0.41152565098E+03  0.41152565098E+03  0.00000000000E+00 0.  1.
         21   -1    0    0  501  502 -0.00000000000E+00 -0.00000000000E+00 -0.12711001648E+03  0.12711001648E+03  0.00000000000E+00 0.  1.
      99926    2    1    2    0    0  0.71054273576E-14 -0.17763568394E-14  0.28441563450E+03  0.53863566746E+03  0.45742335873E+03 0.  0.
      99925    2    3    3    0    0 -0.63900988155E+02 -0.13364371634E+02  0.66531406120E+02  0.27905333410E+03  0.26302545990E+03 0.  0.
         25    1    4    4    0    0 -0.16585252504E+02 -0.43380097819E+02  0.24295166880E+02  0.13562693951E+03  0.12509000000E+03 0.  0.
         25    1    3    3    0    0  0.63900988155E+02  0.13364371634E+02  0.21788422838E+03  0.25958233336E+03  0.12509000000E+03 0.  0.
         25    1    4    4    0    0 -0.47315735650E+02  0.30015726185E+02  0.42236239240E+02  0.14342639458E+03  0.12509000000E+03 0.  0.
<mgrwt>
<rscale>  2 0.45742336E+03</rscale>
<asrwt>0</asrwt>
<pdfrwt beam="1">  1       21 0.60518478E-01 0.45742336E+03</pdfrwt>
<pdfrwt beam="2">  1       21 0.18692650E-01 0.45742336E+03</pdfrwt>
<totfact> 0.61436970E+04</totfact>
</mgrwt>
</event>
<event>
 7    0  0.4759581E-002  0.4489358E+03  0.7546771E-02  0.1028040E+00
         21   -1    0    0  502  501  0.00000000000E+00  0.00000000000E+00  0.22611253593E+03  0.22611253593E+03  0.00000000000E+00 0. -1.
         21   -1    0    0  501  502 -0.00000000000E+00 -0.00000000000E+00 -0.22283524305E+03  0.22283524305E+03  0.00000000000E+00 0. -1.
      99926    2    1    2    0    0  0.35527136788E-14  0.00000000000E+00  0.32772928861E+01  0.44894777898E+03  0.44893581679E+03 0.  0.
      99925    2    3    3    0    0 -0.29504669548E+02  0.69231932625E+02  0.78654294839E+02  0.28465296304E+03  0.26301563689E+03 0.  0.
         25    1    3    3    0    0  0.29504669548E+02 -0.69231932625E+02 -0.75377001953E+02  0.16429481594E+03  0.12509000000E+03 0.  0.
         25    1    4    4    0    0  0.23392089974E+02  0.20830691439E+02  0.45171860563E+02  0.13663496136E+03  0.12509000000E+03 0.  0.
         25    1    4    4    0    0 -0.52896759522E+02  0.48401241186E+02  0.33482434277E+02  0.14801800168E+03  0.12509000000E+03 0.  0.
<mgrwt>
<rscale>  2 0.44893582E+03</rscale>
<asrwt>0</asrwt>
<pdfrwt beam="1">  1       21 0.33251844E-01 0.44893582E+03</pdfrwt>
<pdfrwt beam="2">  1       21 0.32769889E-01 0.44893582E+03</pdfrwt>
<totfact> 0.72433277E+04</totfact>
</mgrwt>
</event>
<event>
 7    0  0.4759581E-002  0.4205635E+03  0.7546771E-02  0.1036883E+00
         21   -1    0    0  502  501  0.00000000000E+00  0.00000000000E+00  0.39692950431E+03  0.39692950431E+03  0.00000000000E+00 0. -1.
         21   -1    0    0  501  502 -0.00000000000E+00 -0.00000000000E+00 -0.11140117343E+03  0.11140117343E+03  0.00000000000E+00 0. -1.
      99926    2    1    2    0    0 -0.17763568394E-14 -0.14210854715E-13  0.28552833088E+03  0.50833067774E+03  0.42056349128E+03 0.  0.
      99925    2    3    3    0    0 -0.11069112577E+02 -0.75494117332E+02  0.18977178516E+03  0.33329150740E+03  0.26315016902E+03 0.  0.
         25    1    4    4    0    0 -0.30954502774E+02 -0.67999852787E+02  0.84570196695E+02  0.16846895112E+03  0.12509000000E+03 0.  0.
         25    1    3    3    0    0  0.11069112577E+02  0.75494117332E+02  0.95756545722E+02  0.17503917034E+03  0.12509000000E+03 0.  0.
         25    1    4    4    0    0  0.19885390197E+02 -0.74942645449E+01  0.10520158846E+03  0.16482255628E+03  0.12509000000E+03 0.  0.
<mgrwt>
<rscale>  2 0.42056349E+03</rscale>
<asrwt>0</asrwt>
<pdfrwt beam="1">  1       21 0.58371985E-01 0.42056349E+03</pdfrwt>
<pdfrwt beam="2">  1       21 0.16382526E-01 0.42056349E+03</pdfrwt>
<totfact> 0.85828846E+04</totfact>
</mgrwt>
</event>
<event>
 7    0  0.4759581E-002  0.4637625E+03  0.7546771E-02  0.1023696E+00
         21   -1    0    0  502  501  0.00000000000E+00  0.00000000000E+00  0.34593538735E+03  0.34593538735E+03  0.00000000000E+00 0. -1.
         21   -1    0    0  501  502 -0.00000000000E+00 -0.00000000000E+00 -0.15543050316E+03  0.15543050316E+03  0.00000000000E+00 0. -1.
      99926    2    1    2    0    0  0.14210854715E-13  0.00000000000E+00  0.19050488419E+03  0.50136589051E+03  0.46376248799E+03 0.  0.
      99925    2    3    3    0    0 -0.75647675900E+02 -0.81217158686E+02  0.65278190478E+02  0.29244477943E+03  0.26257172188E+03 0.  0.
         25    1    4    4    0    0 -0.41671362138E+02 -0.49852624243E+02 -0.62771081563E+01  0.14109818125E+03  0.12509000000E+03 0.  0.
         25    1    3    3    0    0  0.75647675900E+02  0.81217158686E+02  0.12522669372E+03  0.20892111108E+03  0.12509000000E+03 0.  0.
         25    1    4    4    0    0 -0.33976313763E+02 -0.31364534443E+02  0.71555298634E+02  0.15134659818E+03  0.12509000000E+03 0.  0.
<mgrwt>
<rscale>  2 0.46376249E+03</rscale>
<asrwt>0</asrwt>
<pdfrwt beam="1">  1       21 0.50872851E-01 0.46376249E+03</pdfrwt>
<pdfrwt beam="2">  1       21 0.22857427E-01 0.46376249E+03</pdfrwt>
<totfact> 0.60831933E+04</totfact>
</mgrwt>
</event>
<event>
 7    0  0.4759581E-002  0.4549281E+03  0.7546771E-02  0.1026263E+00
         21   -1    0    0  502  501  0.00000000000E+00  0.00000000000E+00  0.22036379701E+02  0.22036379701E+02  0.00000000000E+00 0.  1.
         21   -1    0    0  501  502 -0.00000000000E+00 -0.00000000000E+00 -0.23479309410E+04  0.23479309410E+04  0.00000000000E+00 0.  1.
      99926    2    1    2    0    0  0.00000000000E+00  0.00000000000E+00 -0.23258945613E+04  0.23699673207E+04  0.45492811619E+03 0.  0.
      99925    2    3    3    0    0  0.38413972090E+02 -0.78357018356E+02 -0.18427145351E+04  0.18632860585E+04  0.26195920028E+03 0.  0.
         25    1    4    4    0    0  0.43299308389E+02 -0.24579739384E+02 -0.73560546390E+03  0.74782477915E+03  0.12509000000E+03 0.  0.
         25    1    4    4    0    0 -0.48853362996E+01 -0.53777278972E+02 -0.11071090712E+04  0.11154612794E+04  0.12509000000E+03 0.  0.
         25    1    3    3    0    0 -0.38413972090E+02  0.78357018356E+02 -0.48318002622E+03  0.50668126215E+03  0.12509000000E+03 0.  0.
<mgrwt>
<rscale>  2 0.45492812E+03</rscale>
<asrwt>0</asrwt>
<pdfrwt beam="1">  1       21 0.32406441E-02 0.45492812E+03</pdfrwt>
<pdfrwt beam="2">  1       21 0.34528396E+00 0.45492812E+03</pdfrwt>
<totfact> 0.85601514E+03</totfact>
</mgrwt>
</event>
<event>
 7    0  0.4759581E-002  0.4508216E+03  0.7546771E-02  0.1027477E+00
         21   -1    0    0  502  501  0.00000000000E+00  0.00000000000E+00  0.15022183732E+03  0.15022183732E+03  0.00000000000E+00 0. -1.
         21   -1    0    0  501  502 -0.00000000000E+00 -0.00000000000E+00 -0.33823329151E+03  0.33823329151E+03  0.00000000000E+00 0. -1.
      99926    2    1    2    0    0  0.00000000000E+00  0.00000000000E+00 -0.18801145419E+03  0.48845512884E+03  0.45082158997E+03 0.  0.
      99925    2    3    3    0    0 -0.60304478417E+02 -0.90927403934E+02 -0.11530867411E+03  0.30724358054E+03  0.26305532604E+03 0.  0.
         25    1    4    4    0    0 -0.45394618291E+02 -0.10692113649E+02 -0.36652375380E+02  0.13844095270E+03  0.12509000000E+03 0.  0.
         25    1    4    4    0    0 -0.14909860126E+02 -0.80235290285E+02 -0.78656298725E+02  0.16880262784E+03  0.12509000000E+03 0.  0.
         25    1    3    3    0    0  0.60304478417E+02  0.90927403934E+02 -0.72702780084E+02  0.18121154829E+03  0.12509000000E+03 0.  0.
<mgrwt>
<rscale>  2 0.45082159E+03</rscale>
<asrwt>0</asrwt>
<pdfrwt beam="1">  1       21 0.22091447E-01 0.45082159E+03</pdfrwt>
<pdfrwt beam="2">  1       21 0.49740189E-01 0.45082159E+03</pdfrwt>
<totfact> 0.68328132E+04</totfact>
</mgrwt>
</event>
<event>
 7    0  0.4759581E-002  0.4669821E+03  0.7546771E-02  0.1022775E+00
         21   -1    0    0  502  501  0.00000000000E+00  0.00000000000E+00  0.10067314313E+04  0.10067314313E+04  0.00000000000E+00 0. -1.
         21   -1    0    0  501  502 -0.00000000000E+00 -0.00000000000E+00 -0.54153547465E+02  0.54153547465E+02  0.00000000000E+00 0. -1.
      99926    2    1    2    0    0  0.00000000000E+00  0.00000000000E+00  0.95257788381E+03  0.10608849787E+04  0.46698213391E+03 0.  0.
      99925    2    3    3    0    0 -0.33924120041E+01 -0.65715145223E+02  0.83209123902E+03  0.87515795205E+03  0.26305060769E+03 0.  0.
         25    1    4    4    0    0  0.26338999403E+02 -0.41169206581E+01  0.42470723725E+03  0.44354755934E+03  0.12509000000E+03 0.  0.
         25    1    4    4    0    0 -0.29731411407E+02 -0.61598224565E+02  0.40738400177E+03  0.43161039271E+03  0.12509000000E+03 0.  0.
         25    1    3    3    0    0  0.33924120041E+01  0.65715145223E+02  0.12048664479E+03  0.18572702669E+03  0.12509000000E+03 0.  0.
<mgrwt>
<rscale>  2 0.46698213E+03</rscale>
<asrwt>0</asrwt>
<pdfrwt beam="1">  1       21 0.14804873E+00 0.46698213E+03</pdfrwt>
<pdfrwt beam="2">  1       21 0.79637576E-02 0.46698213E+03</pdfrwt>
<totfact> 0.33624357E+04</totfact>
</mgrwt>
</event>
<event>
 7    0  0.4759581E-002  0.4439787E+03  0.7546771E-02  0.1029533E+00
         21   -1    0    0  502  501  0.00000000000E+00  0.00000000000E+00  0.38445329293E+02  0.38445329293E+02  0.00000000000E+00 0. -1.
         21   -1    0    0  501  502 -0.00000000000E+00 -0.00000000000E+00 -0.12818015016E+04  0.12818015016E+04  0.00000000000E+00 0. -1.
      99926    2    1    2    0    0  0.71054273576E-14  0.00000000000E+00 -0.12433561723E+04  0.13202468309E+04  0.44397874191E+03 0.  0.
      99925    2    3    3    0    0 -0.49248098747E+02  0.32472355023E+02 -0.10394711638E+04  0.10738803684E+04  0.26313288676E+03 0.  0.
         25    1    4    4    0    0 -0.26006669509E+02  0.23424192959E+02 -0.68382857018E+03  0.69605607616E+03  0.12509000000E+03 0.  0.
         25    1    4    4    0    0 -0.23241429238E+02  0.90481620631E+01 -0.35564259363E+03  0.37782429220E+03  0.12509000000E+03 0.  0.
         25    1    3    3    0    0  0.49248098747E+02 -0.32472355023E+02 -0.20388500851E+03  0.24636646254E+03  0.12509000000E+03 0.  0.
<mgrwt>
<rscale>  2 0.44397874E+03</rscale>
<asrwt>0</asrwt>
<pdfrwt beam="1">  1       21 0.56537251E-02 0.44397874E+03</pdfrwt>
<pdfrwt beam="2">  1       21 0.18850021E+00 0.44397874E+03</pdfrwt>
<totfact> 0.31114677E+04</totfact>
</mgrwt>
</event>
<event>
 7    0  0.4759581E-002  0.4521610E+03  0.7546771E-02  0.1027080E+00
         21   -1    0    0  502  501  0.00000000000E+00  0.00000000000E+00  0.50682119018E+03  0.50682119018E+03  0.00000000000E+00 0.  1.
         21   -1    0    0  501  502 -0.00000000000E+00 -0.00000000000E+00 -0.10084896310E+03  0.10084896310E+03  0.00000000000E+00 0.  1.
      99926    2    1    2    0    0  0.00000000000E+00  0.00000000000E+00  0.40597222708E+03  0.60767015328E+03  0.45216099569E+03 0.  0.
      99925    2    3    3    0    0  0.62459602979E+02  0.79446078926E+02  0.31645665675E+03  0.42362280369E+03  0.26286609279E+03 0.  0.
         25    1    3    3    0    0 -0.62459602979E+02 -0.79446078926E+02  0.89515570327E+02  0.18404734959E+03  0.12509000000E+03 0.  0.
         25    1    4    4    0    0  0.71931389061E+02  0.45074026757E+02  0.18100895608E+03  0.23583371875E+03  0.12509000000E+03 0.  0.
         25    1    4    4    0    0 -0.94717860827E+01  0.34372052169E+02  0.13544770067E+03  0.18778908493E+03  0.12509000000E+03 0.  0.
<mgrwt>
<rscale>  2 0.45216100E+03</rscale>
<asrwt>0</asrwt>
<pdfrwt beam="1">  1       21 0.74532527E-01 0.45216100E+03</pdfrwt>
<pdfrwt beam="2">  1       21 0.14830730E-01 0.45216100E+03</pdfrwt>
<totfact> 0.59532521E+04</totfact>
</mgrwt>
</event>
<event>
 7    0  0.4759581E-002  0.4587165E+03  0.7546771E-02  0.1025154E+00
         21   -1    0    0  502  501  0.00000000000E+00  0.00000000000E+00  0.70169693900E+02  0.70169693900E+02  0.00000000000E+00 0.  1.
         21   -1    0    0  501  502 -0.00000000000E+00 -0.00000000000E+00 -0.74968546750E+03  0.74968546750E+03  0.00000000000E+00 0.  1.
      99926    2    1    2    0    0  0.00000000000E+00  0.00000000000E+00 -0.67951577360E+03  0.81985516140E+03  0.45871646919E+03 0.  0.
      99925    2    3    3    0    0 -0.10134077961E+03  0.48197422077E+02 -0.36964354517E+03  0.46734806763E+03  0.26303026580E+03 0.  0.
         25    1    4    4    0    0 -0.67955540394E+02  0.39107492564E+02 -0.25261233676E+03  0.29258819564E+03  0.12509000000E+03 0.  0.
         25    1    4    4    0    0 -0.33385239212E+02  0.90899295134E+01 -0.11703120841E+03  0.17475987199E+03  0.12509000000E+03 0.  0.
         25    1    3    3    0    0  0.10134077961E+03 -0.48197422077E+02 -0.30987222843E+03  0.35250709377E+03  0.12509000000E+03 0.  0.
<mgrwt>
<rscale>  2 0.45871647E+03</rscale>
<asrwt>0</asrwt>
<pdfrwt beam="1">  1       21 0.10319073E-01 0.45871647E+03</pdfrwt>
<pdfrwt beam="2">  1       21 0.11024786E+00 0.45871647E+03</pdfrwt>
<totfact> 0.45478575E+04</totfact>
</mgrwt>
</event>
<event>
 7    0  0.4759581E-002  0.4549658E+03  0.7546771E-02  0.1026251E+00
         21   -1    0    0  502  501  0.00000000000E+00  0.00000000000E+00  0.15741997661E+03  0.15741997661E+03  0.00000000000E+00 0.  1.
         21   -1    0    0  501  502 -0.00000000000E+00 -0.00000000000E+00 -0.32872874385E+03  0.32872874385E+03  0.00000000000E+00 0.  1.
      99926    2    1    2    0    0  0.00000000000E+00  0.00000000000E+00 -0.17130876724E+03  0.48614872046E+03  0.45496580605E+03 0.  0.
      99925    2    3    3    0    0  0.96547113104E+02  0.55792799099E+02 -0.12830719595E+03  0.31314344681E+03  0.26298650206E+03 0.  0.
         25    1    3    3    0    0 -0.96547113104E+02 -0.55792799099E+02 -0.43001571290E+02  0.17300527366E+03  0.12509000000E+03 0.  0.
         25    1    4    4    0    0  0.37968627668E+02 -0.66587576825E+01 -0.82745564070E+02  0.15485571418E+03  0.12509000000E+03 0.  0.
         25    1    4    4    0    0  0.58578485435E+02  0.62451556781E+02 -0.45561631882E+02  0.15828773263E+03  0.12509000000E+03 0.  0.
<mgrwt>
<rscale>  2 0.45496581E+03</rscale>
<asrwt>0</asrwt>
<pdfrwt beam="1">  1       21 0.23149997E-01 0.45496581E+03</pdfrwt>
<pdfrwt beam="2">  1       21 0.48342462E-01 0.45496581E+03</pdfrwt>
<totfact> 0.66273161E+04</totfact>
</mgrwt>
</event>
<event>
 7    0  0.4759581E-002  0.4781886E+03  0.7546771E-02  0.1019634E+00
         21   -1    0    0  502  501  0.00000000000E+00  0.00000000000E+00  0.13207097245E+03  0.13207097245E+03  0.00000000000E+00 0. -1.
         21   -1    0    0  501  502 -0.00000000000E+00 -0.00000000000E+00 -0.43284362428E+03  0.43284362428E+03  0.00000000000E+00 0. -1.
      99926    2    1    2    0    0  0.00000000000E+00  0.00000000000E+00 -0.30077265184E+03  0.56491459673E+03  0.47818857526E+03 0.  0.
      99925    2    3    3    0    0  0.79859875427E+02  0.33491851525E+02 -0.65177646887E+02  0.28446528174E+03  0.26300773190E+03 0.  0.
         25    1    3    3    0    0 -0.79859875427E+02 -0.33491851525E+02 -0.23559500495E+03  0.28044931499E+03  0.12509000000E+03 0.  0.
         25    1    4    4    0    0  0.50698727201E+02  0.38096396448E+01 -0.70904695632E+02  0.15251182989E+03  0.12509000000E+03 0.  0.
         25    1    4    4    0    0  0.29161148226E+02  0.29682211880E+02  0.57270487455E+01  0.13195345185E+03  0.12509000000E+03 0.  0.
<mgrwt>
<rscale>  2 0.47818858E+03</rscale>
<asrwt>0</asrwt>
<pdfrwt beam="1">  1       21 0.19422202E-01 0.47818858E+03</pdfrwt>
<pdfrwt beam="2">  1       21 0.63653475E-01 0.47818858E+03</pdfrwt>
<totfact> 0.50891708E+04</totfact>
</mgrwt>
</event>
<event>
 7    0  0.4759581E-002  0.4334859E+03  0.7546771E-02  0.1032764E+00
         21   -1    0    0  502  501  0.00000000000E+00  0.00000000000E+00  0.35771303223E+03  0.35771303223E+03  0.00000000000E+00 0.  1.
         21   -1    0    0  501  502 -0.00000000000E+00 -0.00000000000E+00 -0.13132735279E+03  0.13132735279E+03  0.00000000000E+00 0.  1.
      99926    2    1    2    0    0  0.00000000000E+00  0.00000000000E+00  0.22638567944E+03  0.48904038502E+03  0.43348589634E+03 0.  0.
      99925    2    3    3    0    0 -0.39402314133E+02  0.60663803211E+02  0.81962619179E+02  0.28474117353E+03  0.26292018862E+03 0.  0.
         25    1    3    3    0    0  0.39402314133E+02 -0.60663803211E+02  0.14442306026E+03  0.20429921149E+03  0.12509000000E+03 0.  0.
         25    1    4    4    0    0  0.14638143760E+02  0.20479998949E+02  0.17709127411E+02  0.12882091019E+03  0.12509000000E+03 0.  0.
         25    1    4    4    0    0 -0.54040457893E+02  0.40183804262E+02  0.64253491768E+02  0.15592026334E+03  0.12509000000E+03 0.  0.
<mgrwt>
<rscale>  2 0.43348590E+03</rscale>
<asrwt>0</asrwt>
<pdfrwt beam="1">  1       21 0.52604858E-01 0.43348590E+03</pdfrwt>
<pdfrwt beam="2">  1       21 0.19312846E-01 0.43348590E+03</pdfrwt>
<totfact> 0.78643931E+04</totfact>
</mgrwt>
</event>
<event>
 6    0  0.5235882E-002  0.4451240E+03  0.7546771E-02  0.1029186E+00
         21   -1    0    0  502  501  0.00000000000E+00  0.00000000000E+00  0.12002442079E+03  0.12002442079E+03  0.00000000000E+00 0.  1.
         21   -1    0    0  501  502 -0.00000000000E+00 -0.00000000000E+00 -0.41269808401E+03  0.41269808401E+03  0.00000000000E+00 0.  1.
      99926    2    1    2    0    0 -0.71054273576E-14  0.00000000000E+00 -0.29267366322E+03  0.53272250480E+03  0.44512402089E+03 0.  0.
         25    1    3    3    0    0 -0.71935709569E+02 -0.62535489953E+02 -0.99435878244E+02  0.18606567603E+03  0.12509000000E+03 0.  0.
         25    1    3    3    0    0  0.59111385614E+02  0.66267731390E+02 -0.14746122221E+03  0.21278601526E+03  0.12509000000E+03 0.  0.
         25    1    3    3    0    0  0.12824323956E+02 -0.37322414372E+01 -0.45776562757E+02  0.13387081351E+03  0.12509000000E+03 0.  0.
<mgrwt>
<rscale>  2 0.44512402E+03</rscale>
<asrwt>0</asrwt>
<pdfrwt beam="1">  1       21 0.17650650E-01 0.44512402E+03</pdfrwt>
<pdfrwt beam="2">  1       21 0.60690895E-01 0.44512402E+03</pdfrwt>
<totfact> 0.68199795E+04</totfact>
</mgrwt>
</event>
<event>
 7    0  0.4759581E-002  0.4560582E+03  0.7546771E-02  0.1025931E+00
         21   -1    0    0  502  501  0.00000000000E+00  0.00000000000E+00  0.46693764666E+03  0.46693764666E+03  0.00000000000E+00 0. -1.
         21   -1    0    0  501  502 -0.00000000000E+00 -0.00000000000E+00 -0.11135803888E+03  0.11135803888E+03  0.00000000000E+00 0. -1.
      99926    2    1    2    0    0  0.00000000000E+00  0.35527136788E-14  0.35557960778E+03  0.57829568554E+03  0.45605815687E+03 0.  0.
      99925    2    3    3    0    0  0.58224173570E+02 -0.26478862160E+01  0.34804067698E+03  0.44008783747E+03  0.26295993263E+03 0.  0.
         25    1    4    4    0    0  0.27097885659E+02 -0.37128694111E+02  0.20463072378E+03  0.24420089383E+03  0.12509000000E+03 0.  0.
         25    1    3    3    0    0 -0.58224173570E+02  0.26478862160E+01  0.75389307996E+01  0.13820784807E+03  0.12509000000E+03 0.  0.
         25    1    4    4    0    0  0.31126287910E+02  0.34480807895E+02  0.14340995320E+03  0.19588694364E+03  0.12509000000E+03 0.  0.
<mgrwt>
<rscale>  2 0.45605816E+03</rscale>
<asrwt>0</asrwt>
<pdfrwt beam="1">  1       21 0.68667300E-01 0.45605816E+03</pdfrwt>
<pdfrwt beam="2">  1       21 0.16376182E-01 0.45605816E+03</pdfrwt>
<totfact> 0.59534889E+04</totfact>
</mgrwt>
</event>
<event>
 7    0  0.4759581E-002  0.4575379E+03  0.7546771E-02  0.1025498E+00
         21   -1    0    0  502  501  0.00000000000E+00  0.00000000000E+00  0.16073999868E+03  0.16073999868E+03  0.00000000000E+00 0. -1.
         21   -1    0    0  501  502 -0.00000000000E+00 -0.00000000000E+00 -0.32558936132E+03  0.32558936132E+03  0.00000000000E+00 0. -1.
      99926    2    1    2    0    0 -0.71054273576E-14  0.14210854715E-13 -0.16484936265E+03  0.48632936000E+03  0.45753790448E+03 0.  0.
      99925    2    3    3    0    0 -0.59656345610E+02  0.98787957396E+02 -0.10819404899E+03  0.30695468853E+03  0.26305377488E+03 0.  0.
         25    1    4    4    0    0 -0.40499727423E+02  0.16457257851E+02 -0.25923450482E+02  0.13502074893E+03  0.12509000000E+03 0.  0.
         25    1    3    3    0    0  0.59656345610E+02 -0.98787957396E+02 -0.56655313660E+02  0.17937467147E+03  0.12509000000E+03 0.  0.
         25    1    4    4    0    0 -0.19156618188E+02  0.82330699545E+02 -0.82270598505E+02  0.17193393960E+03  0.12509000000E+03 0.  0.
<mgrwt>
<rscale>  2 0.45753790E+03</rscale>
<asrwt>0</asrwt>
<pdfrwt beam="1">  1       21 0.23638235E-01 0.45753790E+03</pdfrwt>
<pdfrwt beam="2">  1       21 0.47880788E-01 0.45753790E+03</pdfrwt>
<totfact> 0.64924275E+04</totfact>
</mgrwt>
</event>
<event>
 7    0  0.4759581E-002  0.4547027E+03  0.7546771E-02  0.1026329E+00
         21   -1    0    0  502  501  0.00000000000E+00  0.00000000000E+00  0.37826128312E+03  0.37826128312E+03  0.00000000000E+00 0. -1.
         21   -1    0    0  501  502 -0.00000000000E+00 -0.00000000000E+00 -0.13664799490E+03  0.13664799490E+03  0.00000000000E+00 0. -1.
      99926    2    1    2    0    0  0.35527136788E-14  0.00000000000E+00  0.24161328822E+03  0.51490927802E+03  0.45470274196E+03 0.  0.
      99925    2    3    3    0    0  0.23543656511E+02  0.52225695702E+02  0.42413114764E+02  0.27281416395E+03  0.26333793630E+03 0.  0.
         25    1    3    3    0    0 -0.23543656511E+02 -0.52225695702E+02  0.19920017346E+03  0.24209511407E+03  0.12509000000E+03 0.  0.
         25    1    4    4    0    0 -0.17520395044E+02  0.61917007280E+01 -0.18788572767E+01  0.12647663660E+03  0.12509000000E+03 0.  0.
         25    1    4    4    0    0  0.41064051555E+02  0.46033994974E+02  0.44291972040E+02  0.14633752735E+03  0.12509000000E+03 0.  0.
<mgrwt>
<rscale>  2 0.45470274E+03</rscale>
<asrwt>0</asrwt>
<pdfrwt beam="1">  1       21 0.55626659E-01 0.45470274E+03</pdfrwt>
<pdfrwt beam="2">  1       21 0.20095293E-01 0.45470274E+03</pdfrwt>
<totfact> 0.64387170E+04</totfact>
</mgrwt>
</event>
<event>
 7    0  0.4759581E-002  0.4592914E+03  0.7546771E-02  0.1024987E+00
         21   -1    0    0  502  501  0.00000000000E+00  0.00000000000E+00  0.28741935983E+02  0.28741935983E+02  0.00000000000E+00 0. -1.
         21   -1    0    0  501  502 -0.00000000000E+00 -0.00000000000E+00 -0.18348501925E+04  0.18348501925E+04  0.00000000000E+00 0. -1.
      99926    2    1    2    0    0  0.00000000000E+00  0.13322676296E-14 -0.18061082565E+04  0.18635921285E+04  0.45929139670E+03 0.  0.
      99925    2    3    3    0    0 -0.36675952238E+01  0.12150994721E+01 -0.16072492412E+04  0.16286296979E+04  0.26300122008E+03 0.  0.
         25    1    4    4    0    0  0.31565381252E+02 -0.11616207114E+02 -0.92117411618E+03  0.93023683542E+03  0.12509000000E+03 0.  0.
         25    1    3    3    0    0  0.36675952238E+01 -0.12150994721E+01 -0.19885901532E+03  0.23496243060E+03  0.12509000000E+03 0.  0.
         25    1    4    4    0    0 -0.35232976476E+02  0.12831306586E+02 -0.68607512500E+03  0.69839286244E+03  0.12509000000E+03 0.  0.
<mgrwt>
<rscale>  2 0.45929140E+03</rscale>
<asrwt>0</asrwt>
<pdfrwt beam="1">  1       21 0.42267554E-02 0.45929140E+03</pdfrwt>
<pdfrwt beam="2">  1       21 0.26983091E+00 0.45929140E+03</pdfrwt>
<totfact> 0.15543401E+04</totfact>
</mgrwt>
</event>
<event>
 7    0  0.4759581E-002  0.4498896E+03  0.7546771E-02  0.1027755E+00
         21   -1    0    0  502  501  0.00000000000E+00  0.00000000000E+00  0.34513390488E+02  0.34513390488E+02  0.00000000000E+00 0.  1.
         21   -1    0    0  501  502 -0.00000000000E+00 -0.00000000000E+00 -0.14661025526E+04  0.14661025526E+04  0.00000000000E+00 0.  1.
      99926    2    1    2    0    0 -0.14210854715E-13 -0.35527136788E-14 -0.14315891621E+04  0.15006159431E+04  0.44988963043E+03 0.  0.
      99925    2    3    3    0    0  0.10148643230E+03  0.17728919948E+02 -0.79334960331E+03  0.84212444499E+03  0.26297562100E+03 0.  0.
         25    1    3    3    0    0 -0.10148643230E+03 -0.17728919948E+02 -0.63823955878E+03  0.65849149807E+03  0.12509000000E+03 0.  0.
         25    1    4    4    0    0  0.77818835312E+02 -0.19367334381E+02 -0.37961277399E+03  0.40765700172E+03  0.12509000000E+03 0.  0.
         25    1    4    4    0    0  0.23667596985E+02  0.37096254329E+02 -0.41373682932E+03  0.43446744328E+03  0.12509000000E+03 0.  0.
<mgrwt>
<rscale>  2 0.44988963E+03</rscale>
<asrwt>0</asrwt>
<pdfrwt beam="1">  1       21 0.50754994E-02 0.44988963E+03</pdfrwt>
<pdfrwt beam="2">  1       21 0.21560328E+00 0.44988963E+03</pdfrwt>
<totfact> 0.24731252E+04</totfact>
</mgrwt>
</event>
<event>
 7    0  0.4759581E-002  0.4569705E+03  0.7546771E-02  0.1025664E+00
         21   -1    0    0  502  501  0.00000000000E+00  0.00000000000E+00  0.55845199058E+03  0.55845199058E+03  0.00000000000E+00 0.  1.
         21   -1    0    0  501  502 -0.00000000000E+00 -0.00000000000E+00 -0.93482537343E+02  0.93482537343E+02  0.00000000000E+00 0.  1.
      99926    2    1    2    0    0 -0.14210854715E-13  0.88817841970E-15  0.46496945324E+03  0.65193452792E+03  0.45697049823E+03 0.  0.
      99925    2    3    3    0    0 -0.74630631787E+02 -0.53739624313E+01  0.16641757567E+03  0.31970066094E+03  0.26251684220E+03 0.  0.
         25    1    4    4    0    0 -0.66224602422E+02  0.18374623751E+02  0.65614255553E+02  0.15708616551E+03  0.12509000000E+03 0.  0.
         25    1    4    4    0    0 -0.84060293657E+01 -0.23748586182E+02  0.10080332011E+03  0.16261449542E+03  0.12509000000E+03 0.  0.
         25    1    3    3    0    0  0.74630631787E+02  0.53739624313E+01  0.29855187757E+03  0.33223386699E+03  0.12509000000E+03 0.  0.
<mgrwt>
<rscale>  2 0.45697050E+03</rscale>
<asrwt>0</asrwt>
<pdfrwt beam="1">  1       21 0.82125291E-01 0.45697050E+03</pdfrwt>
<pdfrwt beam="2">  1       21 0.13747432E-01 0.45697050E+03</pdfrwt>
<totfact> 0.54734391E+04</totfact>
</mgrwt>
</event>
<event>
 7    0  0.4759581E-002  0.4578751E+03  0.7546771E-02  0.1025399E+00
         21   -1    0    0  502  501  0.00000000000E+00  0.00000000000E+00  0.41222476756E+03  0.41222476756E+03  0.00000000000E+00 0.  1.
         21   -1    0    0  501  502 -0.00000000000E+00 -0.00000000000E+00 -0.12714523074E+03  0.12714523074E+03  0.00000000000E+00 0.  1.
      99926    2    1    2    0    0  0.00000000000E+00  0.88817841970E-15  0.28507953682E+03  0.53936999830E+03  0.45787514975E+03 0.  0.
      99925    2    3    3    0    0 -0.11439635809E+03 -0.74847258969E+01  0.15881613844E+03  0.32786940318E+03  0.26293199091E+03 0.  0.
         25    1    4    4    0    0 -0.23203930530E+02  0.74803662409E+01  0.45028321669E+02  0.13516447804E+03  0.12509000000E+03 0.  0.
         25    1    3    3    0    0  0.11439635809E+03  0.74847258969E+01  0.12626339838E+03  0.21150059512E+03  0.12509000000E+03 0.  0.
         25    1    4    4    0    0 -0.91192427565E+02 -0.14965092138E+02  0.11378781677E+03  0.19270492514E+03  0.12509000000E+03 0.  0.
<mgrwt>
<rscale>  2 0.45787515E+03</rscale>
<asrwt>0</asrwt>
<pdfrwt beam="1">  1       21 0.60621289E-01 0.45787515E+03</pdfrwt>
<pdfrwt beam="2">  1       21 0.18697828E-01 0.45787515E+03</pdfrwt>
<totfact> 0.61170642E+04</totfact>
</mgrwt>
</event>
<event>
 7    0  0.4759581E-002  0.4600369E+03  0.7546771E-02  0.1024771E+00
         21   -1    0    0  502  501  0.00000000000E+00  0.00000000000E+00  0.39652839075E+03  0.39652839075E+03  0.00000000000E+00 0.  1.
         21   -1    0    0  501  502 -0.00000000000E+00 -0.00000000000E+00 -0.13342922531E+03  0.13342922531E+03  0.00000000000E+00 0.  1.
      99926    2    1    2    0    0  0.00000000000E+00  0.00000000000E+00  0.26309916544E+03  0.52995761606E+03  0.46003685066E+03 0.  0.
      99925    2    3    3    0    0  0.17528076332E+02  0.88874055502E+02  0.25159196005E+03  0.37508426433E+03  0.26302824902E+03 0.  0.
         25    1    4    4    0    0 -0.10933001009E+02  0.62831993558E+02  0.88571185939E+02  0.16601130384E+03  0.12509000000E+03 0.  0.
         25    1    4    4    0    0  0.28461077341E+02  0.26042061944E+02  0.16302077411E+03  0.20907296048E+03  0.12509000000E+03 0.  0.
         25    1    3    3    0    0 -0.17528076332E+02 -0.88874055502E+02  0.11507205392E+02  0.15487335173E+03  0.12509000000E+03 0.  0.
<mgrwt>
<rscale>  2 0.46003685E+03</rscale>
<asrwt>0</asrwt>
<pdfrwt beam="1">  1       21 0.58312999E-01 0.46003685E+03</pdfrwt>
<pdfrwt beam="2">  1       21 0.19621945E-01 0.46003685E+03</pdfrwt>
<totfact> 0.60747536E+04</totfact>
</mgrwt>
</event>
<event>
 7    0  0.4759581E-002  0.4534739E+03  0.7546771E-02  0.1026691E+00
         21   -1    0    0  502  501  0.00000000000E+00  0.00000000000E+00  0.20757741184E+04  0.20757741184E+04  0.00000000000E+00 0.  1.
         21   -1    0    0  501  502 -0.00000000000E+00 -0.00000000000E+00 -0.24766487398E+02  0.24766487398E+02  0.00000000000E+00 0.  1.
      99926    2    1    2    0    0 -0.14210854715E-13  0.00000000000E+00  0.20510076310E+04  0.21005406058E+04  0.45347385170E+03 0.  0.
      99925    2    3    3    0    0 -0.66602226570E+02 -0.72527686593E+02  0.10482318908E+04  0.10852067616E+04  0.26303516239E+03 0.  0.
         25    1    4    4    0    0 -0.70754640046E+02 -0.19935541078E+02  0.53641750144E+03  0.55569316069E+03  0.12509000000E+03 0.  0.
         25    1    4    4    0    0  0.41524134762E+01 -0.52592145515E+02  0.51181438933E+03  0.52951360089E+03  0.12509000000E+03 0.  0.
         25    1    3    3    0    0  0.66602226570E+02  0.72527686593E+02  0.10027757402E+04  0.10153338442E+04  0.12509000000E+03 0.  0.
<mgrwt>
<rscale>  2 0.45347385E+03</rscale>
<asrwt>0</asrwt>
<pdfrwt beam="1">  1       21 0.30526078E+00 0.45347385E+03</pdfrwt>
<pdfrwt beam="2">  1       21 0.36421319E-02 0.45347385E+03</pdfrwt>
<totfact> 0.12281735E+04</totfact>
</mgrwt>
</event>
<event>
 7    0  0.4759581E-002  0.4737993E+03  0.7546771E-02  0.1020853E+00
         21   -1    0    0  502  501  0.00000000000E+00  0.00000000000E+00  0.39391731546E+03  0.39391731546E+03  0.00000000000E+00 0. -1.
         21   -1    0    0  501  502 -0.00000000000E+00 -0.00000000000E+00 -0.14247009684E+03  0.14247009684E+03  0.00000000000E+00 0. -1.
      99926    2    1    2    0    0 -0.14210854715E-13  0.00000000000E+00  0.25144721862E+03  0.53638741230E+03  0.47379927429E+03 0.  0.
      99925    2    3    3    0    0  0.90870831866E+02 -0.44738494438E+02  0.63460737445E+02  0.28890919876E+03  0.26302512991E+03 0.  0.
         25    1    4    4    0    0  0.74726857690E+02 -0.32777398055E+02  0.51486424637E+01  0.14944054906E+03  0.12509000000E+03 0.  0.
         25    1    4    4    0    0  0.16143974175E+02 -0.11961096383E+02  0.58312094981E+02  0.13946864970E+03  0.12509000000E+03 0.  0.
         25    1    3    3    0    0 -0.90870831866E+02  0.44738494438E+02  0.18798648118E+03  0.24747821353E+03  0.12509000000E+03 0.  0.
<mgrwt>
<rscale>  2 0.47379927E+03</rscale>
<asrwt>0</asrwt>
<pdfrwt beam="1">  1       21 0.57929017E-01 0.47379927E+03</pdfrwt>
<pdfrwt beam="2">  1       21 0.20951485E-01 0.47379927E+03</pdfrwt>
<totfact> 0.54232318E+04</totfact>
</mgrwt>
</event>
<event>
 7    0  0.4759581E-002  0.4495882E+03  0.7546771E-02  0.1027845E+00
         21   -1    0    0  502  501  0.00000000000E+00  0.00000000000E+00  0.20587069634E+03  0.20587069634E+03  0.00000000000E+00 0. -1.
         21   -1    0    0  501  502 -0.00000000000E+00 -0.00000000000E+00 -0.24545688117E+03  0.24545688117E+03  0.00000000000E+00 0. -1.
      99926    2    1    2    0    0  0.00000000000E+00  0.00000000000E+00 -0.39586184826E+02  0.45132757751E+03  0.44958816287E+03 0.  0.
      99925    2    3    3    0    0  0.63809010178E+02  0.38060193098E+02  0.53694171514E+02  0.27850136116E+03  0.26298246336E+03 0.  0.
         25    1    4    4    0    0  0.34410815757E+02 -0.21509806138E+02  0.30210385811E+02  0.13493313719E+03  0.12509000000E+03 0.  0.
         25    1    3    3    0    0 -0.63809010178E+02 -0.38060193098E+02 -0.93280356340E+02  0.17282621635E+03  0.12509000000E+03 0.  0.
         25    1    4    4    0    0  0.29398194421E+02  0.59569999236E+02  0.23483785703E+02  0.14356822397E+03  0.12509000000E+03 0.  0.
<mgrwt>
<rscale>  2 0.44958816E+03</rscale>
<asrwt>0</asrwt>
<pdfrwt beam="1">  1       21 0.30275103E-01 0.44958816E+03</pdfrwt>
<pdfrwt beam="2">  1       21 0.36096600E-01 0.44958816E+03</pdfrwt>
<totfact> 0.71869169E+04</totfact>
</mgrwt>
</event>
<event>
 6    0  0.4759581E-002  0.4543586E+03  0.7546771E-02  0.1026430E+00
         21   -1    0    0  502  501  0.00000000000E+00  0.00000000000E+00  0.47602248364E+02  0.47602248364E+02  0.00000000000E+00 0. -1.
         21   -1    0    0  501  502 -0.00000000000E+00 -0.00000000000E+00 -0.10842017202E+04  0.10842017202E+04  0.00000000000E+00 0. -1.
      99926    2    1    2    0    0  0.00000000000E+00  0.00000000000E+00 -0.10365994719E+04  0.11318039686E+04  0.45435862295E+03 0.  0.
         25    1    3    3    0    0 -0.39759691100E+02 -0.73784624920E+02 -0.55321289970E+03  0.57333849026E+03  0.12509000000E+03 0.  0.
         25    1    3    3    0    0  0.54740159586E+02  0.66202925396E+01 -0.24722087210E+03  0.28249952398E+03  0.12509000000E+03 0.  0.
         25    1    3    3    0    0 -0.14980468487E+02  0.67164332381E+02 -0.23616570006E+03  0.27596595436E+03  0.12509000000E+03 0.  0.
<mgrwt>
<rscale>  2 0.45435862E+03</rscale>
<asrwt>0</asrwt>
<pdfrwt beam="1">  1       21 0.70003306E-02 0.45435862E+03</pdfrwt>
<pdfrwt beam="2">  1       21 0.15944143E+00 0.45435862E+03</pdfrwt>
<totfact> 0.34568241E+04</totfact>
</mgrwt>
</event>
<event>
 7    0  0.4759581E-002  0.4501561E+03  0.7546771E-02  0.1027676E+00
         21   -1    0    0  502  501  0.00000000000E+00  0.00000000000E+00  0.34714890526E+03  0.34714890526E+03  0.00000000000E+00 0.  1.
         21   -1    0    0  501  502 -0.00000000000E+00 -0.00000000000E+00 -0.14593197758E+03  0.14593197758E+03  0.00000000000E+00 0.  1.
      99926    2    1    2    0    0  0.00000000000E+00  0.00000000000E+00  0.20121692768E+03  0.49308088283E+03  0.45015608963E+03 0.  0.
      99925    2    3    3    0    0 -0.10213220477E+03  0.36228011171E+02  0.13236345309E+03  0.31382752831E+03  0.26310487979E+03 0.  0.
         25    1    4    4    0    0 -0.69738523396E+02 -0.26116965294E+01  0.10110052109E+03  0.17532571423E+03  0.12509000000E+03 0.  0.
         25    1    4    4    0    0 -0.32393681375E+02  0.38839707700E+02  0.31262931999E+02  0.13850181408E+03  0.12509000000E+03 0.  0.
         25    1    3    3    0    0  0.10213220477E+03 -0.36228011171E+02  0.68853474584E+02  0.17925335452E+03  0.12509000000E+03 0.  0.
<mgrwt>
<rscale>  2 0.45015609E+03</rscale>
<asrwt>0</asrwt>
<pdfrwt beam="1">  1       21 0.51051310E-01 0.45015609E+03</pdfrwt>
<pdfrwt beam="2">  1       21 0.21460585E-01 0.45015609E+03</pdfrwt>
<totfact> 0.68350249E+04</totfact>
</mgrwt>
</event>
<event>
 7    0  0.4759581E-002  0.4592416E+03  0.7546771E-02  0.1025001E+00
         21   -1    0    0  502  501  0.00000000000E+00  0.00000000000E+00  0.19339319612E+03  0.19339319612E+03  0.00000000000E+00 0.  1.
         21   -1    0    0  501  502 -0.00000000000E+00 -0.00000000000E+00 -0.27263472713E+03  0.27263472713E+03  0.00000000000E+00 0.  1.
      99926    2    1    2    0    0  0.00000000000E+00  0.00000000000E+00 -0.79241531012E+02  0.46602792325E+03  0.45924155410E+03 0.  0.
      99925    2    3    3    0    0  0.10386437506E+03 -0.49808196214E+02 -0.71068761199E+02  0.29578407730E+03  0.26299959458E+03 0.  0.
         25    1    3    3    0    0 -0.10386437506E+03  0.49808196214E+02 -0.81727698127E+01  0.17024384595E+03  0.12509000000E+03 0.  0.
         25    1    4    4    0    0  0.57035328831E+02  0.63678274996E+01 -0.83129704962E+01  0.13787745117E+03  0.12509000000E+03 0.  0.
         25    1    4    4    0    0  0.46829046231E+02 -0.56176023714E+02 -0.62755790703E+02  0.15790662614E+03  0.12509000000E+03 0.  0.
<mgrwt>
<rscale>  2 0.45924155E+03</rscale>
<asrwt>0</asrwt>
<pdfrwt beam="1">  1       21 0.28440176E-01 0.45924155E+03</pdfrwt>
<pdfrwt beam="2">  1       21 0.40093342E-01 0.45924155E+03</pdfrwt>
<totfact> 0.65497440E+04</totfact>
</mgrwt>
</event>
<event>
 7    0  0.4759581E-002  0.4439886E+03  0.7546771E-02  0.1029530E+00
         21   -1    0    0  502  501  0.00000000000E+00  0.00000000000E+00  0.20416349989E+03  0.20416349989E+03  0.00000000000E+00 0.  1.
         21   -1    0    0  501  502 -0.00000000000E+00 -0.00000000000E+00 -0.24138237549E+03  0.24138237549E+03  0.00000000000E+00 0.  1.
      99926    2    1    2    0    0 -0.35527136788E-14 -0.14210854715E-13 -0.37218875606E+02  0.44554587538E+03  0.44398860613E+03 0.  0.
      99925    2    3    3    0    0  0.27166410324E+02  0.88320397135E+02  0.20940231632E+02  0.27950824033E+03  0.26295980056E+03 0.  0.
         25    1    4    4    0    0 -0.88586767050E+01  0.78984559786E+02  0.99642958244E+01  0.14853899195E+03  0.12509000000E+03 0.  0.
         25    1    4    4    0    0  0.36025087029E+02  0.93358373487E+01  0.10975935807E+02  0.13096924838E+03  0.12509000000E+03 0.  0.
         25    1    3    3    0    0 -0.27166410324E+02 -0.88320397135E+02 -0.58159107238E+02  0.16603763506E+03  0.12509000000E+03 0.  0.
<mgrwt>
<rscale>  2 0.44398861E+03</rscale>
<asrwt>0</asrwt>
<pdfrwt beam="1">  1       21 0.30024044E-01 0.44398861E+03</pdfrwt>
<pdfrwt beam="2">  1       21 0.35497408E-01 0.44398861E+03</pdfrwt>
<totfact> 0.75677421E+04</totfact>
</mgrwt>
</event>
<event>
 7    0  0.4759581E-002  0.4641865E+03  0.7546771E-02  0.1023574E+00
         21   -1    0    0  502  501  0.00000000000E+00  0.00000000000E+00  0.13590833152E+03  0.13590833152E+03  0.00000000000E+00 0.  1.
         21   -1    0    0  501  502 -0.00000000000E+00 -0.00000000000E+00 -0.39635007172E+03  0.39635007172E+03  0.00000000000E+00 0.  1.
      99926    2    1    2    0    0  0.00000000000E+00  0.00000000000E+00 -0.26044174020E+03  0.53225840325E+03  0.46418650109E+03 0.  0.
      99925    2    3    3    0    0  0.41946266826E+02 -0.10288477673E+03 -0.10572013611E+03  0.30437455245E+03  0.26291130522E+03 0.  0.
         25    1    4    4    0    0  0.49711220745E+02 -0.44474001527E+02 -0.82922855226E+02  0.16423413256E+03  0.12509000000E+03 0.  0.
         25    1    4    4    0    0 -0.77649539185E+01 -0.58410775205E+02 -0.22797280883E+02  0.14014041988E+03  0.12509000000E+03 0.  0.
         25    1    3    3    0    0 -0.41946266826E+02  0.10288477673E+03 -0.15472160409E+03  0.22788385080E+03  0.12509000000E+03 0.  0.
<mgrwt>
<rscale>  2 0.46418650E+03</rscale>
<asrwt>0</asrwt>
<pdfrwt beam="1">  1       21 0.19986519E-01 0.46418650E+03</pdfrwt>
<pdfrwt beam="2">  1       21 0.58286775E-01 0.46418650E+03</pdfrwt>
<totfact> 0.58664206E+04</totfact>
</mgrwt>
</event>
<event>
 7    0  0.4759581E-002  0.4571511E+03  0.7546771E-02  0.1025611E+00
         21   -1    0    0  502  501  0.00000000000E+00  0.00000000000E+00  0.91040107595E+03  0.91040107595E+03  0.00000000000E+00 0. -1.
         21   -1    0    0  501  502 -0.00000000000E+00 -0.00000000000E+00 -0.57388756386E+02  0.57388756386E+02  0.00000000000E+00 0. -1.
      99926    2    1    2    0    0  0.00000000000E+00  0.14210854715E-13  0.85301231956E+03  0.96778983233E+03  0.45715111533E+03 0.  0.
      99925    2    3    3    0    0  0.73153918381E+02 -0.89000367578E+02  0.54814992070E+03  0.61870366597E+03  0.26278000214E+03 0.  0.
         25    1    4    4    0    0  0.36469628113E+02 -0.86741158359E+02  0.30244638533E+03  0.34055159143E+03  0.12509000000E+03 0.  0.
         25    1    3    3    0    0 -0.73153918381E+02  0.89000367578E+02  0.30486239887E+03  0.34908616636E+03  0.12509000000E+03 0.  0.
         25    1    4    4    0    0  0.36684290268E+02 -0.22592092191E+01  0.24570353536E+03  0.27815207454E+03  0.12509000000E+03 0.  0.
<mgrwt>
<rscale>  2 0.45715112E+03</rscale>
<asrwt>0</asrwt>
<pdfrwt beam="1">  1       21 0.13388250E+00 0.45715112E+03</pdfrwt>
<pdfrwt beam="2">  1       21 0.84395235E-02 0.45715112E+03</pdfrwt>
<totfact> 0.39755911E+04</totfact>
</mgrwt>
</event>
<event>
 7    0  0.4759581E-002  0.4568716E+03  0.7546771E-02  0.1025692E+00
         21   -1    0    0  502  501  0.00000000000E+00  0.00000000000E+00  0.26768587417E+03  0.26768587417E+03  0.00000000000E+00 0. -1.
         21   -1    0    0  501  502 -0.00000000000E+00 -0.00000000000E+00 -0.19494083803E+03  0.19494083803E+03  0.00000000000E+00 0. -1.
      99926    2    1    2    0    0  0.00000000000E+00  0.00000000000E+00  0.72745036144E+02  0.46262671221E+03  0.45687157338E+03 0.  0.
      99925    2    3    3    0    0 -0.52713206047E+02 -0.63123430346E+02  0.12711230600E+03  0.30335789014E+03  0.26287872037E+03 0.  0.
         25    1    4    4    0    0 -0.64125821221E+02 -0.16919459326E+02  0.67213799525E+02  0.15672776397E+03  0.12509000000E+03 0.  0.
         25    1    3    3    0    0  0.52713206047E+02  0.63123430346E+02 -0.54367269860E+02  0.15926882207E+03  0.12509000000E+03 0.  0.
         25    1    4    4    0    0  0.11412615175E+02 -0.46203971019E+02  0.59898506480E+02  0.14663012617E+03  0.12509000000E+03 0.  0.
<mgrwt>
<rscale>  2 0.45687157E+03</rscale>
<asrwt>0</asrwt>
<pdfrwt beam="1">  1       21 0.39365570E-01 0.45687157E+03</pdfrwt>
<pdfrwt beam="2">  1       21 0.28667770E-01 0.45687157E+03</pdfrwt>
<totfact> 0.66984195E+04</totfact>
</mgrwt>
</event>
<event>
 7    0  0.4759581E-002  0.4557857E+03  0.7546771E-02  0.1026011E+00
         21   -1    0    0  502  501  0.00000000000E+00  0.00000000000E+00  0.87609271615E+02  0.87609271615E+02  0.00000000000E+00 0.  1.
         21   -1    0    0  501  502 -0.00000000000E+00 -0.00000000000E+00 -0.59280420350E+03  0.59280420350E+03  0.00000000000E+00 0.  1.
      99926    2    1    2    0    0  0.88817841970E-15  0.88817841970E-15 -0.50519493188E+03  0.68041347511E+03  0.45578567103E+03 0.  0.
      99925    2    3    3    0    0 -0.74425902298E+01 -0.55861236888E+01 -0.48719158539E+03  0.55369242117E+03  0.26293166310E+03 0.  0.
         25    1    4    4    0    0  0.27428955298E+02 -0.20714052189E+02 -0.28173051716E+03  0.31016287971E+03  0.12509000000E+03 0.  0.
         25    1    3    3    0    0  0.74425902298E+01  0.55861236888E+01 -0.18003346491E+02  0.12672105394E+03  0.12509000000E+03 0.  0.
         25    1    4    4    0    0 -0.34871545528E+02  0.15127928500E+02 -0.20546106822E+03  0.24352954146E+03  0.12509000000E+03 0.  0.
<mgrwt>
<rscale>  2 0.45578567E+03</rscale>
<asrwt>0</asrwt>
<pdfrwt beam="1">  1       21 0.12883716E-01 0.45578567E+03</pdfrwt>
<pdfrwt beam="2">  1       21 0.87177089E-01 0.45578567E+03</pdfrwt>
<totfact> 0.53647081E+04</totfact>
</mgrwt>
</event>
<event>
 7    0  0.4759581E-002  0.4579433E+03  0.7546771E-02  0.1025379E+00
         21   -1    0    0  502  501  0.00000000000E+00  0.00000000000E+00  0.15490908901E+03  0.15490908901E+03  0.00000000000E+00 0. -1.
         21   -1    0    0  501  502 -0.00000000000E+00 -0.00000000000E+00 -0.33844379083E+03  0.33844379083E+03  0.00000000000E+00 0. -1.
      99926    2    1    2    0    0  0.00000000000E+00  0.14210854715E-13 -0.18353470182E+03  0.49335287984E+03  0.45794331230E+03 0.  0.
      99925    2    3    3    0    0 -0.91726935793E+02  0.63523289439E+02 -0.15031149429E+03  0.32247184324E+03  0.26257476139E+03 0.  0.
         25    1    3    3    0    0  0.91726935793E+02 -0.63523289439E+02 -0.33223207526E+02  0.17088103660E+03  0.12509000000E+03 0.  0.
         25    1    4    4    0    0 -0.26655280704E+02  0.46005734306E+02 -0.37367254266E+02  0.14096400736E+03  0.12509000000E+03 0.  0.
         25    1    4    4    0    0 -0.65071655089E+02  0.17517555132E+02 -0.11294424002E+03  0.18150783589E+03  0.12509000000E+03 0.  0.
<mgrwt>
<rscale>  2 0.45794331E+03</rscale>
<asrwt>0</asrwt>
<pdfrwt beam="1">  1       21 0.22780749E-01 0.45794331E+03</pdfrwt>
<pdfrwt beam="2">  1       21 0.49771145E-01 0.45794331E+03</pdfrwt>
<totfact> 0.64226325E+04</totfact>
</mgrwt>
</event>
<event>
 7    0  0.4759581E-002  0.4235240E+03  0.7546771E-02  0.1035925E+00
         21   -1    0    0  502  501  0.00000000000E+00  0.00000000000E+00  0.68304573986E+02  0.68304573986E+02  0.00000000000E+00 0.  1.
         21   -1    0    0  501  502 -0.00000000000E+00 -0.00000000000E+00 -0.65651740086E+03  0.65651740086E+03  0.00000000000E+00 0.  1.
      99926    2    1    2    0    0  0.00000000000E+00  0.00000000000E+00 -0.58821282687E+03  0.72482197484E+03  0.42352398459E+03 0.  0.
      99925    2    3    3    0    0  0.29543134952E+02 -0.68546470978E+02 -0.33196019250E+03  0.43006048443E+03  0.26302668184E+03 0.  0.
         25    1    4    4    0    0  0.35391908140E+02 -0.70704165001E+02 -0.18762753889E+03  0.23896289996E+03  0.12509000000E+03 0.  0.
         25    1    3    3    0    0 -0.29543134952E+02  0.68546470978E+02 -0.25625263437E+03  0.29476149041E+03  0.12509000000E+03 0.  0.
         25    1    4    4    0    0 -0.58487731881E+01  0.21576940239E+01 -0.14433265361E+03  0.19109758447E+03  0.12509000000E+03 0.  0.
<mgrwt>
<rscale>  2 0.42352398E+03</rscale>
<asrwt>0</asrwt>
<pdfrwt beam="1">  1       21 0.10044790E-01 0.42352398E+03</pdfrwt>
<pdfrwt beam="2">  1       21 0.96546681E-01 0.42352398E+03</pdfrwt>
<totfact> 0.66592087E+04</totfact>
</mgrwt>
</event>
<event>
 7    0  0.4759581E-002  0.4480700E+03  0.7546771E-02  0.1028299E+00
         21   -1    0    0  502  501  0.00000000000E+00  0.00000000000E+00  0.34876907739E+03  0.34876907739E+03  0.00000000000E+00 0. -1.
         21   -1    0    0  501  502 -0.00000000000E+00 -0.00000000000E+00 -0.14391091504E+03  0.14391091504E+03  0.00000000000E+00 0. -1.
      99926    2    1    2    0    0  0.00000000000E+00 -0.35527136788E-14  0.20485816235E+03  0.49267999244E+03  0.44806998144E+03 0.  0.
      99925    2    3    3    0    0 -0.25154439441E+02 -0.17741653736E+02  0.16931322119E+02  0.26483900078E+03  0.26249859917E+03 0.  0.
         25    1    4    4    0    0 -0.50184765492E+01 -0.32263837670E+02 -0.22772467201E+02  0.13127160276E+03  0.12509000000E+03 0.  0.
         25    1    4    4    0    0 -0.20135962892E+02  0.14522183934E+02  0.39703789320E+02  0.13356739802E+03  0.12509000000E+03 0.  0.
         25    1    3    3    0    0  0.25154439441E+02  0.17741653736E+02  0.18792684023E+03  0.22784099166E+03  0.12509000000E+03 0.  0.
<mgrwt>
<rscale>  2 0.44806998E+03</rscale>
<asrwt>0</asrwt>
<pdfrwt beam="1">  1       21 0.51289570E-01 0.44806998E+03</pdfrwt>
<pdfrwt beam="2">  1       21 0.21163370E-01 0.44806998E+03</pdfrwt>
<totfact> 0.69535382E+04</totfact>
</mgrwt>
</event>
<event>
 7    0  0.4759581E-002  0.4575928E+03  0.7546771E-02  0.1025482E+00
         21   -1    0    0  502  501  0.00000000000E+00  0.00000000000E+00  0.97599664849E+02  0.97599664849E+02  0.00000000000E+00 0.  1.
         21   -1    0    0  501  502 -0.00000000000E+00 -0.00000000000E+00 -0.53635227449E+03  0.53635227449E+03  0.00000000000E+00 0.  1.
      99926    2    1    2    0    0  0.14210854715E-13 -0.14210854715E-13 -0.43875260964E+03  0.63395193934E+03  0.45759284186E+03 0.  0.
      99925    2    3    3    0    0 -0.70639156148E+02  0.76919534349E+02 -0.34398633412E+03  0.44544554629E+03  0.26303731960E+03 0.  0.
         25    1    4    4    0    0 -0.35103903149E+02 -0.34780967223E+01 -0.16545110876E+03  0.21039476862E+03  0.12509000000E+03 0.  0.
         25    1    4    4    0    0 -0.35535253000E+02  0.80397631071E+02 -0.17853522535E+03  0.23505077766E+03  0.12509000000E+03 0.  0.
         25    1    3    3    0    0  0.70639156148E+02 -0.76919534349E+02 -0.94766275527E+02  0.18850639306E+03  0.12509000000E+03 0.  0.
<mgrwt>
<rscale>  2 0.45759284E+03</rscale>
<asrwt>0</asrwt>
<pdfrwt beam="1">  1       21 0.14352892E-01 0.45759284E+03</pdfrwt>
<pdfrwt beam="2">  1       21 0.78875334E-01 0.45759284E+03</pdfrwt>
<totfact> 0.55491195E+04</totfact>
</mgrwt>
</event>
<event>
 7    0  0.4759581E-002  0.4556458E+03  0.7546771E-02  0.1026052E+00
         21   -1    0    0  502  501  0.00000000000E+00  0.00000000000E+00  0.86488684389E+02  0.86488684389E+02  0.00000000000E+00 0.  1.
         21   -1    0    0  501  502 -0.00000000000E+00 -0.00000000000E+00 -0.60011641482E+03  0.60011641482E+03  0.00000000000E+00 0.  1.
      99926    2    1    2    0    0  0.17763568394E-14  0.00000000000E+00 -0.51362773043E+03  0.68660509920E+03  0.45564582385E+03 0.  0.
      99925    2    3    3    0    0  0.13139693307E+02 -0.10629191198E+03 -0.26508951804E+03  0.38846188997E+03  0.26298206269E+03 0.  0.
         25    1    4    4    0    0  0.36872665120E+02 -0.38979530092E+02 -0.16065392479E+03  0.21056160345E+03  0.12509000000E+03 0.  0.
         25    1    3    3    0    0 -0.13139693307E+02  0.10629191198E+03 -0.24853821239E+03  0.29814320923E+03  0.12509000000E+03 0.  0.
         25    1    4    4    0    0 -0.23732971814E+02 -0.67312381888E+02 -0.10443559325E+03  0.17790028652E+03  0.12509000000E+03 0.  0.
<mgrwt>
<rscale>  2 0.45564582E+03</rscale>
<asrwt>0</asrwt>
<pdfrwt beam="1">  1       21 0.12718924E-01 0.45564582E+03</pdfrwt>
<pdfrwt beam="2">  1       21 0.88252414E-01 0.45564582E+03</pdfrwt>
<totfact> 0.53364604E+04</totfact>
</mgrwt>
</event>
<event>
 7    0  0.4759581E-002  0.4246889E+03  0.7546771E-02  0.1035551E+00
         21   -1    0    0  502  501  0.00000000000E+00  0.00000000000E+00  0.70418042174E+03  0.70418042174E+03  0.00000000000E+00 0.  1.
         21   -1    0    0  501  502 -0.00000000000E+00 -0.00000000000E+00 -0.64032112800E+02  0.64032112800E+02  0.00000000000E+00 0.  1.
      99926    2    1    2    0    0  0.00000000000E+00 -0.17763568394E-14  0.64014830894E+03  0.76821253454E+03  0.42468887528E+03 0.  0.
      99925    2    3    3    0    0  0.33840755906E+02 -0.11382484505E+02  0.54766560600E+03  0.60860264714E+03  0.26303005226E+03 0.  0.
         25    1    4    4    0    0  0.42009714549E+02 -0.20379762016E+02  0.21615146068E+03  0.25406517445E+03  0.12509000000E+03 0.  0.
         25    1    3    3    0    0 -0.33840755906E+02  0.11382484505E+02  0.92482702936E+02  0.15960988740E+03  0.12509000000E+03 0.  0.
         25    1    4    4    0    0 -0.81689586424E+01  0.89972775109E+01  0.33151414532E+03  0.35453747268E+03  0.12509000000E+03 0.  0.
<mgrwt>
<rscale>  2 0.42468888E+03</rscale>
<asrwt>0</asrwt>
<pdfrwt beam="1">  1       21 0.10355594E+00 0.42468888E+03</pdfrwt>
<pdfrwt beam="2">  1       21 0.94164876E-02 0.42468888E+03</pdfrwt>
<totfact> 0.63060650E+04</totfact>
</mgrwt>
</event>
<event>
 6    0  0.4759581E-002  0.4536479E+03  0.7546771E-02  0.1026640E+00
         21   -1    0    0  502  501  0.00000000000E+00  0.00000000000E+00  0.63974349241E+03  0.63974349241E+03  0.00000000000E+00 0.  1.
         21   -1    0    0  501  502 -0.00000000000E+00 -0.00000000000E+00 -0.80421456991E+02  0.80421456991E+02  0.00000000000E+00 0.  1.
      99926    2    1    2    0    0  0.00000000000E+00  0.00000000000E+00  0.55932203542E+03  0.72016494940E+03  0.45364789765E+03 0.  0.
         25    1    3    3    0    0 -0.12320889894E+02  0.63005810543E+02  0.25597632176E+03  0.29204951959E+03  0.12509000000E+03 0.  0.
         25    1    3    3    0    0  0.44243137729E+02 -0.97766283083E+02  0.13438116191E+03  0.21265348838E+03  0.12509000000E+03 0.  0.
         25    1    3    3    0    0 -0.31922247836E+02  0.34760472540E+02  0.16896455174E+03  0.21546194143E+03  0.12509000000E+03 0.  0.
<mgrwt>
<rscale>  2 0.45364790E+03</rscale>
<asrwt>0</asrwt>
<pdfrwt beam="1">  1       21 0.94079923E-01 0.45364790E+03</pdfrwt>
<pdfrwt beam="2">  1       21 0.11826685E-01 0.45364790E+03</pdfrwt>
<totfact> 0.52376616E+04</totfact>
</mgrwt>
</event>
<event>
 7    0  0.4759581E-002  0.4552318E+03  0.7546771E-02  0.1026173E+00
         21   -1    0    0  502  501  0.00000000000E+00  0.00000000000E+00  0.31382473208E+03  0.31382473208E+03  0.00000000000E+00 0.  1.
         21   -1    0    0  501  502 -0.00000000000E+00 -0.00000000000E+00 -0.16508896322E+03  0.16508896322E+03  0.00000000000E+00 0.  1.
      99926    2    1    2    0    0  0.71054273576E-14 -0.71054273576E-14  0.14873576887E+03  0.47891369530E+03  0.45523180755E+03 0.  0.
      99925    2    3    3    0    0  0.43797299206E+02 -0.56499276210E+02  0.94295064585E+00  0.27251457503E+03  0.26296945225E+03 0.  0.
         25    1    4    4    0    0  0.51408322117E+02 -0.55892230231E+02 -0.10239008378E+02  0.14669390708E+03  0.12509000000E+03 0.  0.
         25    1    3    3    0    0 -0.43797299206E+02  0.56499276210E+02  0.14779281822E+03  0.20639912027E+03  0.12509000000E+03 0.  0.
         25    1    4    4    0    0 -0.76110229117E+01 -0.60704597923E+00  0.11181959024E+02  0.12582066795E+03  0.12509000000E+03 0.  0.
<mgrwt>
<rscale>  2 0.45523181E+03</rscale>
<asrwt>0</asrwt>
<pdfrwt beam="1">  1       21 0.46150696E-01 0.45523181E+03</pdfrwt>
<pdfrwt beam="2">  1       21 0.24277789E-01 0.45523181E+03</pdfrwt>
<totfact> 0.66656530E+04</totfact>
</mgrwt>
</event>
<event>
 7    0  0.4759581E-002  0.4654508E+03  0.7546771E-02  0.1023212E+00
         21   -1    0    0  502  501  0.00000000000E+00  0.00000000000E+00  0.50402809532E+03  0.50402809532E+03  0.00000000000E+00 0. -1.
         21   -1    0    0  501  502 -0.00000000000E+00 -0.00000000000E+00 -0.10745655588E+03  0.10745655588E+03  0.00000000000E+00 0. -1.
      99926    2    1    2    0    0 -0.71054273576E-14  0.00000000000E+00  0.39657153944E+03  0.61148465120E+03  0.46545084891E+03 0.  0.
      99925    2    3    3    0    0 -0.41755856298E+02  0.69420664711E+02  0.36842965076E+03  0.45981971054E+03  0.26292770570E+03 0.  0.
         25    1    3    3    0    0  0.41755856298E+02 -0.69420664711E+02  0.28141888679E+02  0.15166494065E+03  0.12509000000E+03 0.  0.
         25    1    4    4    0    0 -0.41106842169E+02  0.10059927825E+02  0.22189005970E+03  0.25821247319E+03  0.12509000000E+03 0.  0.
         25    1    4    4    0    0 -0.64901412856E+00  0.59360736885E+02  0.14653959106E+03  0.20160723735E+03  0.12509000000E+03 0.  0.
<mgrwt>
<rscale>  2 0.46545085E+03</rscale>
<asrwt>0</asrwt>
<pdfrwt beam="1">  1       21 0.74121778E-01 0.46545085E+03</pdfrwt>
<pdfrwt beam="2">  1       21 0.15802435E-01 0.46545085E+03</pdfrwt>
<totfact> 0.53427806E+04</totfact>
</mgrwt>
</event>
<event>
 7    0  0.4759581E-002  0.4736062E+03  0.7546771E-02  0.1020907E+00
         21   -1    0    0  502  501  0.00000000000E+00  0.00000000000E+00  0.52256839013E+03  0.52256839013E+03  0.00000000000E+00 0. -1.
         21   -1    0    0  501  502 -0.00000000000E+00 -0.00000000000E+00 -0.10730789533E+03  0.10730789533E+03  0.00000000000E+00 0. -1.
      99926    2    1    2    0    0 -0.14210854715E-13 -0.35527136788E-14  0.41526049480E+03  0.62987628547E+03  0.47360622510E+03 0.  0.
      99925    2    3    3    0    0 -0.64716952414E+02  0.20801636522E+02  0.40486018645E+03  0.48712942377E+03  0.26222569080E+03 0.  0.
         25    1    3    3    0    0  0.64716952414E+02 -0.20801636522E+02  0.10400308352E+02  0.14274686170E+03  0.12509000000E+03 0.  0.
         25    1    4    4    0    0 -0.47199191415E+02  0.47123605643E+02  0.21885623029E+03  0.26075650618E+03  0.12509000000E+03 0.  0.
         25    1    4    4    0    0 -0.17517760999E+02 -0.26321969121E+02  0.18600395616E+03  0.22637291758E+03  0.12509000000E+03 0.  0.
<mgrwt>
<rscale>  2 0.47360623E+03</rscale>
<asrwt>0</asrwt>
<pdfrwt beam="1">  1       21 0.76848292E-01 0.47360623E+03</pdfrwt>
<pdfrwt beam="2">  1       21 0.15780573E-01 0.47360623E+03</pdfrwt>
<totfact> 0.49234905E+04</totfact>
</mgrwt>
</event>
<event>
 7    0  0.4759581E-002  0.4481709E+03  0.7546771E-02  0.1028269E+00
         21   -1    0    0  502  501  0.00000000000E+00  0.00000000000E+00  0.47210077681E+03  0.47210077681E+03  0.00000000000E+00 0. -1.
         21   -1    0    0  501  502 -0.00000000000E+00 -0.00000000000E+00 -0.10636351403E+03  0.10636351403E+03  0.00000000000E+00 0. -1.
      99926    2    1    2    0    0 -0.17763568394E-14  0.00000000000E+00  0.36573726278E+03  0.57846429084E+03  0.44817093881E+03 0.  0.
      99925    2    3    3    0    0  0.15656375915E+02 -0.94812161876E+02  0.29130373816E+03  0.40404432113E+03  0.26298189562E+03 0.  0.
         25    1    3    3    0    0 -0.15656375915E+02  0.94812161876E+02  0.74433524619E+02  0.17441996971E+03  0.12509000000E+03 0.  0.
         25    1    4    4    0    0 -0.21684307681E+02 -0.63693766756E+02  0.11673375877E+03  0.18385152613E+03  0.12509000000E+03 0.  0.
         25    1    4    4    0    0  0.37340683597E+02 -0.31118395119E+02  0.17456997939E+03  0.22019279500E+03  0.12509000000E+03 0.  0.
<mgrwt>
<rscale>  2 0.44817094E+03</rscale>
<asrwt>0</asrwt>
<pdfrwt beam="1">  1       21 0.69426584E-01 0.44817094E+03</pdfrwt>
<pdfrwt beam="2">  1       21 0.15641693E-01 0.44817094E+03</pdfrwt>
<totfact> 0.63376831E+04</totfact>
</mgrwt>
</event>
<event>
 7    0  0.4759581E-002  0.4471241E+03  0.7546771E-02  0.1028583E+00
         21   -1    0    0  502  501  0.00000000000E+00  0.00000000000E+00  0.26471319017E+03  0.26471319017E+03  0.00000000000E+00 0.  1.
         21   -1    0    0  501  502 -0.00000000000E+00 -0.00000000000E+00 -0.18880810069E+03  0.18880810069E+03  0.00000000000E+00 0.  1.
      99926    2    1    2    0    0  0.00000000000E+00  0.71054273576E-14  0.75905089476E+02  0.45352129085E+03  0.44712411996E+03 0.  0.
      99925    2    3    3    0    0 -0.96088875556E+02 -0.40312947399E+02  0.30908720923E+02  0.28461188609E+03  0.26304062603E+03 0.  0.
         25    1    3    3    0    0  0.96088875556E+02  0.40312947399E+02  0.44996368553E+02  0.16890940476E+03  0.12509000000E+03 0.  0.
         25    1    4    4    0    0 -0.92163601258E+01 -0.34384040439E+02  0.22319177808E+02  0.13195778616E+03  0.12509000000E+03 0.  0.
         25    1    4    4    0    0 -0.86872515431E+02 -0.59289069606E+01  0.85895431148E+01  0.15265409993E+03  0.12509000000E+03 0.  0.
<mgrwt>
<rscale>  2 0.44712412E+03</rscale>
<asrwt>0</asrwt>
<pdfrwt beam="1">  1       21 0.38928410E-01 0.44712412E+03</pdfrwt>
<pdfrwt beam="2">  1       21 0.27765897E-01 0.44712412E+03</pdfrwt>
<totfact> 0.73142119E+04</totfact>
</mgrwt>
</event>
<event>
 7    0  0.4759581E-002  0.4372273E+03  0.7546771E-02  0.1031601E+00
         21   -1    0    0  502  501  0.00000000000E+00  0.00000000000E+00  0.16073044934E+03  0.16073044934E+03  0.00000000000E+00 0. -1.
         21   -1    0    0  501  502 -0.00000000000E+00 -0.00000000000E+00 -0.29734212490E+03  0.29734212490E+03  0.00000000000E+00 0. -1.
      99926    2    1    2    0    0 -0.35527136788E-14  0.00000000000E+00 -0.13661167556E+03  0.45807257424E+03  0.43722732460E+03 0.  0.
      99925    2    3    3    0    0 -0.23027658056E+02 -0.20182181492E+02  0.74409041038E+01  0.26484667719E+03  0.26296540053E+03 0.  0.
         25    1    4    4    0    0  0.22166175716E+02 -0.31508347014E+02 -0.33067850452E+01  0.13092959255E+03  0.12509000000E+03 0.  0.
         25    1    3    3    0    0  0.23027658056E+02  0.20182181492E+02 -0.14405257966E+03  0.19322589706E+03  0.12509000000E+03 0.  0.
         25    1    4    4    0    0 -0.45193833772E+02  0.11326165522E+02  0.10747689149E+02  0.13391708464E+03  0.12509000000E+03 0.  0.
<mgrwt>
<rscale>  2 0.43722732E+03</rscale>
<asrwt>0</asrwt>
<pdfrwt beam="1">  1       21 0.23636831E-01 0.43722732E+03</pdfrwt>
<pdfrwt beam="2">  1       21 0.43726783E-01 0.43722732E+03</pdfrwt>
<totfact> 0.78882660E+04</totfact>
</mgrwt>
</event>
<event>
 7    0  0.4759581E-002  0.4590083E+03  0.7546771E-02  0.1025069E+00
         21   -1    0    0  502  501  0.00000000000E+00  0.00000000000E+00  0.78210336240E+02  0.78210336240E+02  0.00000000000E+00 0. -1.
         21   -1    0    0  501  502 -0.00000000000E+00 -0.00000000000E+00 -0.67346792460E+03  0.67346792460E+03  0.00000000000E+00 0. -1.
      99926    2    1    2    0    0  0.71054273576E-14  0.00000000000E+00 -0.59525758836E+03  0.75167826084E+03  0.45900829112E+03 0.  0.
      99925    2    3    3    0    0 -0.35122002163E+02 -0.10552774658E+03 -0.31427039035E+03  0.42461408689E+03  0.26298590115E+03 0.  0.
         25    1    4    4    0    0 -0.44693127726E+02 -0.77854692030E+02 -0.20207286809E+03  0.25404680839E+03  0.12509000000E+03 0.  0.
         25    1    4    4    0    0  0.95711255622E+01 -0.27673054552E+02 -0.11219752226E+03  0.17056727850E+03  0.12509000000E+03 0.  0.
         25    1    3    3    0    0  0.35122002163E+02  0.10552774658E+03 -0.28098719801E+03  0.32706417395E+03  0.12509000000E+03 0.  0.
<mgrwt>
<rscale>  2 0.45900829E+03</rscale>
<asrwt>0</asrwt>
<pdfrwt beam="1">  1       21 0.11501520E-01 0.45900829E+03</pdfrwt>
<pdfrwt beam="2">  1       21 0.99039401E-01 0.45900829E+03</pdfrwt>
<totfact> 0.48635056E+04</totfact>
</mgrwt>
</event>
<event>
 7    0  0.4759581E-002  0.4846237E+03  0.7546771E-02  0.1017872E+00
         21   -1    0    0  502  501  0.00000000000E+00  0.00000000000E+00  0.14463666378E+03  0.14463666378E+03  0.00000000000E+00 0.  1.
         21   -1    0    0  501  502 -0.00000000000E+00 -0.00000000000E+00 -0.40594852889E+03  0.40594852889E+03  0.00000000000E+00 0.  1.
      99926    2    1    2    0    0  0.00000000000E+00  0.35527136788E-14 -0.26131186511E+03  0.55058519267E+03  0.48462373398E+03 0.  0.
      99925    2    3    3    0    0 -0.85186152799E+02  0.19986001865E+02 -0.28329063760E+03  0.39635583282E+03  0.26303657533E+03 0.  0.
         25    1    4    4    0    0 -0.48776813177E+02  0.49343625428E+02 -0.15969084330E+03  0.21438900253E+03  0.12509000000E+03 0.  0.
         25    1    4    4    0    0 -0.36409339622E+02 -0.29357623563E+02 -0.12359979430E+03  0.18196683028E+03  0.12509000000E+03 0.  0.
         25    1    3    3    0    0  0.85186152799E+02 -0.19986001865E+02  0.21978772487E+02  0.15422935985E+03  0.12509000000E+03 0.  0.
<mgrwt>
<rscale>  2 0.48462373E+03</rscale>
<asrwt>0</asrwt>
<pdfrwt beam="1">  1       21 0.21270098E-01 0.48462373E+03</pdfrwt>
<pdfrwt beam="2">  1       21 0.59698313E-01 0.48462373E+03</pdfrwt>
<totfact> 0.49222118E+04</totfact>
</mgrwt>
</event>
<event>
 7    0  0.4759581E-002  0.4560400E+03  0.7546771E-02  0.1025936E+00
         21   -1    0    0  502  501  0.00000000000E+00  0.00000000000E+00  0.64169535479E+02  0.64169535479E+02  0.00000000000E+00 0.  1.
         21   -1    0    0  501  502 -0.00000000000E+00 -0.00000000000E+00 -0.81024615181E+03  0.81024615181E+03  0.00000000000E+00 0.  1.
      99926    2    1    2    0    0  0.35527136788E-14  0.00000000000E+00 -0.74607661633E+03  0.87441568729E+03  0.45603999467E+03 0.  0.
      99925    2    3    3    0    0  0.31984493119E+02 -0.10960115652E+03 -0.46789623740E+03  0.54873600933E+03  0.26296177983E+03 0.  0.
         25    1    3    3    0    0 -0.31984493119E+02  0.10960115652E+03 -0.27818037893E+03  0.32567967795E+03  0.12509000000E+03 0.  0.
         25    1    4    4    0    0  0.17821455231E+02 -0.91458337207E+02 -0.29973112391E+03  0.33788827510E+03  0.12509000000E+03 0.  0.
         25    1    4    4    0    0  0.14163037888E+02 -0.18142819315E+02 -0.16816511349E+03  0.21084773423E+03  0.12509000000E+03 0.  0.
<mgrwt>
<rscale>  2 0.45603999E+03</rscale>
<asrwt>0</asrwt>
<pdfrwt beam="1">  1       21 0.94366962E-02 0.45603999E+03</pdfrwt>
<pdfrwt beam="2">  1       21 0.11915385E+00 0.45603999E+03</pdfrwt>
<totfact> 0.43998873E+04</totfact>
</mgrwt>
</event>
<event>
 7    0  0.4759581E-002  0.4579281E+03  0.7546771E-02  0.1025384E+00
         21   -1    0    0  502  501  0.00000000000E+00  0.00000000000E+00  0.14619482161E+03  0.14619482161E+03  0.00000000000E+00 0. -1.
         21   -1    0    0  501  502 -0.00000000000E+00 -0.00000000000E+00 -0.35859367890E+03  0.35859367890E+03  0.00000000000E+00 0. -1.
      99926    2    1    2    0    0 -0.71054273576E-14  0.00000000000E+00 -0.21239885729E+03  0.50478850051E+03  0.45792811190E+03 0.  0.
      99925    2    3    3    0    0  0.38245394063E+02  0.92252939514E+02 -0.68649224653E+02  0.28964952217E+03  0.26307948349E+03 0.  0.
         25    1    3    3    0    0 -0.38245394063E+02 -0.92252939514E+02 -0.14374963264E+03  0.21513897834E+03  0.12509000000E+03 0.  0.
         25    1    4    4    0    0  0.44506951982E+02  0.80170041700E+02 -0.29568183135E+02  0.15789201979E+03  0.12509000000E+03 0.  0.
         25    1    4    4    0    0 -0.62615579192E+01  0.12082897814E+02 -0.39081041519E+02  0.13175750238E+03  0.12509000000E+03 0.  0.
<mgrwt>
<rscale>  2 0.45792811E+03</rscale>
<asrwt>0</asrwt>
<pdfrwt beam="1">  1       21 0.21499239E-01 0.45792811E+03</pdfrwt>
<pdfrwt beam="2">  1       21 0.52734364E-01 0.45792811E+03</pdfrwt>
<totfact> 0.63448005E+04</totfact>
</mgrwt>
</event>
<event>
 7    0  0.4759581E-002  0.4452590E+03  0.7546771E-02  0.1029145E+00
         21   -1    0    0  502  501  0.00000000000E+00  0.00000000000E+00  0.30713703158E+02  0.30713703158E+02  0.00000000000E+00 0. -1.
         21   -1    0    0  501  502 -0.00000000000E+00 -0.00000000000E+00 -0.16137386514E+04  0.16137386514E+04  0.00000000000E+00 0. -1.
      99926    2    1    2    0    0  0.00000000000E+00  0.66613381478E-15 -0.15830249482E+04  0.16444523545E+04  0.44525898043E+03 0.  0.
      99925    2    3    3    0    0 -0.77762107916E+02  0.19776733086E+01 -0.75182094839E+03  0.80029688660E+03  0.26303899262E+03 0.  0.
         25    1    3    3    0    0  0.77762107916E+02 -0.19776733086E+01 -0.83120399983E+03  0.84415546794E+03  0.12509000000E+03 0.  0.
         25    1    4    4    0    0 -0.49423197174E+01 -0.17353199275E+02 -0.30242838154E+03  0.32777430361E+03  0.12509000000E+03 0.  0.
         25    1    4    4    0    0 -0.72819788199E+02  0.19330872583E+02 -0.44939256686E+03  0.47252258299E+03  0.12509000000E+03 0.  0.
<mgrwt>
<rscale>  2 0.44525898E+03</rscale>
<asrwt>0</asrwt>
<pdfrwt beam="1">  1       21 0.45167214E-02 0.44525898E+03</pdfrwt>
<pdfrwt beam="2">  1       21 0.23731449E+00 0.44525898E+03</pdfrwt>
<totfact> 0.22066026E+04</totfact>
</mgrwt>
</event>
<event>
 7    0  0.4759581E-002  0.4466050E+03  0.7546771E-02  0.1028739E+00
         21   -1    0    0  502  501  0.00000000000E+00  0.00000000000E+00  0.10629240989E+04  0.10629240989E+04  0.00000000000E+00 0.  1.
         21   -1    0    0  501  502 -0.00000000000E+00 -0.00000000000E+00 -0.46912110663E+02  0.46912110663E+02  0.00000000000E+00 0.  1.
      99926    2    1    2    0    0  0.71054273576E-14  0.00000000000E+00  0.10160119883E+04  0.11098362096E+04  0.44660502888E+03 0.  0.
      99925    2    3    3    0    0  0.35604404924E+02  0.91019799079E+02  0.54831365247E+03  0.61593184751E+03  0.26300551671E+03 0.  0.
         25    1    4    4    0    0 -0.16716897560E+02  0.20876050774E+02  0.25076793360E+03  0.28150902078E+03  0.12509000000E+03 0.  0.
         25    1    4    4    0    0  0.52321302484E+02  0.70143748305E+02  0.29754571887E+03  0.33442282673E+03  0.12509000000E+03 0.  0.
         25    1    3    3    0    0 -0.35604404924E+02 -0.91019799079E+02  0.46769833579E+03  0.49390436207E+03  0.12509000000E+03 0.  0.
<mgrwt>
<rscale>  2 0.44660503E+03</rscale>
<asrwt>0</asrwt>
<pdfrwt beam="1">  1       21 0.15631235E+00 0.44660503E+03</pdfrwt>
<pdfrwt beam="2">  1       21 0.68988405E-02 0.44660503E+03</pdfrwt>
<totfact> 0.37550256E+04</totfact>
</mgrwt>
</event>
<event>
 7    0  0.4759581E-002  0.4543077E+03  0.7546771E-02  0.1026445E+00
         21   -1    0    0  502  501  0.00000000000E+00  0.00000000000E+00  0.52335233652E+03  0.52335233652E+03  0.00000000000E+00 0.  1.
         21   -1    0    0  501  502 -0.00000000000E+00 -0.00000000000E+00 -0.98593005776E+02  0.98593005776E+02  0.00000000000E+00 0.  1.
      99926    2    1    2    0    0  0.00000000000E+00  0.00000000000E+00  0.42475933075E+03  0.62194534230E+03  0.45430773684E+03 0.  0.
      99925    2    3    3    0    0  0.26105338315E+02 -0.10512459572E+03  0.22417902775E+03  0.36192104466E+03  0.26267458340E+03 0.  0.
         25    1    4    4    0    0  0.28858364763E+02 -0.30405422228E+02  0.68411232268E+02  0.14860989105E+03  0.12509000000E+03 0.  0.
         25    1    4    4    0    0 -0.27530264480E+01 -0.74719173497E+02  0.15576779548E+03  0.21331115361E+03  0.12509000000E+03 0.  0.
         25    1    3    3    0    0 -0.26105338315E+02  0.10512459572E+03  0.20058030299E+03  0.26002429764E+03  0.12509000000E+03 0.  0.
<mgrwt>
<rscale>  2 0.45430774E+03</rscale>
<asrwt>0</asrwt>
<pdfrwt beam="1">  1       21 0.76963578E-01 0.45430774E+03</pdfrwt>
<pdfrwt beam="2">  1       21 0.14498972E-01 0.45430774E+03</pdfrwt>
<totfact> 0.57661948E+04</totfact>
</mgrwt>
</event>
<event>
 7    0  0.4759581E-002  0.4593571E+03  0.7546771E-02  0.1024968E+00
         21   -1    0    0  502  501  0.00000000000E+00  0.00000000000E+00  0.42636103574E+03  0.42636103574E+03  0.00000000000E+00 0. -1.
         21   -1    0    0  501  502 -0.00000000000E+00 -0.00000000000E+00 -0.12372667124E+03  0.12372667124E+03  0.00000000000E+00 0. -1.
      99926    2    1    2    0    0  0.00000000000E+00  0.00000000000E+00  0.30263436450E+03  0.55008770698E+03  0.45935707983E+03 0.  0.
      99925    2    3    3    0    0  0.83774255913E+02 -0.80661854861E+02  0.20671130248E+03  0.35419691416E+03  0.26306164799E+03 0.  0.
         25    1    3    3    0    0 -0.83774255913E+02  0.80661854861E+02  0.95923062022E+02  0.19589079282E+03  0.12509000000E+03 0.  0.
         25    1    4    4    0    0  0.41533770996E+02 -0.36503720751E+02  0.15237285274E+03  0.20475001859E+03  0.12509000000E+03 0.  0.
         25    1    4    4    0    0  0.42240484917E+02 -0.44158134110E+02  0.54338449737E+02  0.14944689556E+03  0.12509000000E+03 0.  0.
<mgrwt>
<rscale>  2 0.45935708E+03</rscale>
<asrwt>0</asrwt>
<pdfrwt beam="1">  1       21 0.62700152E-01 0.45935708E+03</pdfrwt>
<pdfrwt beam="2">  1       21 0.18195099E-01 0.45935708E+03</pdfrwt>
<totfact> 0.59773340E+04</totfact>
</mgrwt>
</event>
<event>
 7    0  0.4759581E-002  0.4600441E+03  0.7546771E-02  0.1024768E+00
         21   -1    0    0  502  501  0.00000000000E+00  0.00000000000E+00  0.43493814616E+02  0.43493814616E+02  0.00000000000E+00 0.  1.
         21   -1    0    0  501  502 -0.00000000000E+00 -0.00000000000E+00 -0.12164979910E+04  0.12164979910E+04  0.00000000000E+00 0.  1.
      99926    2    1    2    0    0 -0.14210854715E-13  0.35527136788E-14 -0.11730041764E+04  0.12599918056E+04  0.46004407659E+03 0.  0.
      99925    2    3    3    0    0  0.95113954262E+02  0.23934402104E+02 -0.91358844108E+03  0.95574921865E+03  0.26304602141E+03 0.  0.
         25    1    4    4    0    0  0.52677303087E+02 -0.20367551615E+02 -0.53546429655E+03  0.55277414592E+03  0.12509000000E+03 0.  0.
         25    1    3    3    0    0 -0.95113954262E+02 -0.23934402104E+02 -0.25941573531E+03  0.30424258697E+03  0.12509000000E+03 0.  0.
         25    1    4    4    0    0  0.42436651175E+02  0.44301953719E+02 -0.37812414453E+03  0.40297507273E+03  0.12509000000E+03 0.  0.
<mgrwt>
<rscale>  2 0.46004408E+03</rscale>
<asrwt>0</asrwt>
<pdfrwt beam="1">  1       21 0.63961490E-02 0.46004408E+03</pdfrwt>
<pdfrwt beam="2">  1       21 0.17889677E+00 0.46004408E+03</pdfrwt>
<totfact> 0.29138167E+04</totfact>
</mgrwt>
</event>
<event>
 7    0  0.4759581E-002  0.4525865E+03  0.7546771E-02  0.1026954E+00
         21   -1    0    0  502  501  0.00000000000E+00  0.00000000000E+00  0.35811211786E+03  0.35811211786E+03  0.00000000000E+00 0.  1.
         21   -1    0    0  501  502 -0.00000000000E+00 -0.00000000000E+00 -0.14299610398E+03  0.14299610398E+03  0.00000000000E+00 0.  1.
      99926    2    1    2    0    0  0.00000000000E+00  0.00000000000E+00  0.21511601388E+03  0.50110822185E+03  0.45258651170E+03 0.  0.
      99925    2    3    3    0    0  0.88358243082E+02 -0.61031510407E+02  0.16614526982E+03  0.32912663487E+03  0.26303624601E+03 0.  0.
         25    1    4    4    0    0  0.81937039211E+02 -0.48311818405E+02  0.10633608080E+03  0.18974345936E+03  0.12509000000E+03 0.  0.
         25    1    3    3    0    0 -0.88358243082E+02  0.61031510407E+02  0.48970744059E+02  0.17198158697E+03  0.12509000000E+03 0.  0.
         25    1    4    4    0    0  0.64212038710E+01 -0.12719692002E+02  0.59809189024E+02  0.13938317551E+03  0.12509000000E+03 0.  0.
<mgrwt>
<rscale>  2 0.45258651E+03</rscale>
<asrwt>0</asrwt>
<pdfrwt beam="1">  1       21 0.52663547E-01 0.45258651E+03</pdfrwt>
<pdfrwt beam="2">  1       21 0.21028839E-01 0.45258651E+03</pdfrwt>
<totfact> 0.66456932E+04</totfact>
</mgrwt>
</event>
<event>
 7    0  0.4759581E-002  0.4565249E+03  0.7546771E-02  0.1025794E+00
         21   -1    0    0  502  501  0.00000000000E+00  0.00000000000E+00  0.52302034444E+03  0.52302034444E+03  0.00000000000E+00 0. -1.
         21   -1    0    0  501  502 -0.00000000000E+00 -0.00000000000E+00 -0.99620876916E+02  0.99620876916E+02  0.00000000000E+00 0. -1.
      99926    2    1    2    0    0 -0.71054273576E-14  0.00000000000E+00  0.42339946753E+03  0.62264122136E+03  0.45652489684E+03 0.  0.
      99925    2    3    3    0    0  0.56277901055E+02  0.99402151115E+02  0.25452095759E+03  0.38344371090E+03  0.26305925526E+03 0.  0.
         25    1    3    3    0    0 -0.56277901055E+02 -0.99402151115E+02  0.16887850994E+03  0.23919751046E+03  0.12509000000E+03 0.  0.
         25    1    4    4    0    0  0.61070852997E+02  0.36631730447E+02  0.15574775072E+03  0.21207640773E+03  0.12509000000E+03 0.  0.
         25    1    4    4    0    0 -0.47929519417E+01  0.62770420668E+02  0.98773206874E+02  0.17136730317E+03  0.12509000000E+03 0.  0.
<mgrwt>
<rscale>  2 0.45652490E+03</rscale>
<asrwt>0</asrwt>
<pdfrwt beam="1">  1       21 0.76914755E-01 0.45652490E+03</pdfrwt>
<pdfrwt beam="2">  1       21 0.14650129E-01 0.45652490E+03</pdfrwt>
<totfact> 0.56621012E+04</totfact>
</mgrwt>
</event>
<event>
 7    0  0.4759581E-002  0.4592048E+03  0.7546771E-02  0.1025012E+00
         21   -1    0    0  502  501  0.00000000000E+00  0.00000000000E+00  0.56147679613E+03  0.56147679613E+03  0.00000000000E+00 0. -1.
         21   -1    0    0  501  502 -0.00000000000E+00 -0.00000000000E+00 -0.93890371159E+02  0.93890371159E+02  0.00000000000E+00 0. -1.
      99926    2    1    2    0    0  0.14210854715E-13  0.00000000000E+00  0.46758642498E+03  0.65536716729E+03  0.45920481176E+03 0.  0.
      99925    2    3    3    0    0  0.11383804495E+03  0.27072013476E+02  0.29527156021E+03  0.41240232393E+03  0.26305586501E+03 0.  0.
         25    1    4    4    0    0  0.93426845363E+02  0.10754081406E+02  0.19459701546E+03  0.24971930687E+03  0.12509000000E+03 0.  0.
         25    1    4    4    0    0  0.20411199591E+02  0.16317932070E+02  0.10067454475E+03  0.16268301705E+03  0.12509000000E+03 0.  0.
         25    1    3    3    0    0 -0.11383804495E+03 -0.27072013476E+02  0.17231486477E+03  0.24296484337E+03  0.12509000000E+03 0.  0.
<mgrwt>
<rscale>  2 0.45920481E+03</rscale>
<asrwt>0</asrwt>
<pdfrwt beam="1">  1       21 0.82570115E-01 0.45920481E+03</pdfrwt>
<pdfrwt beam="2">  1       21 0.13807408E-01 0.45920481E+03</pdfrwt>
<totfact> 0.53593571E+04</totfact>
</mgrwt>
</event>
<event>
 7    0  0.4759581E-002  0.4632622E+03  0.7546771E-02  0.1023839E+00
         21   -1    0    0  502  501  0.00000000000E+00  0.00000000000E+00  0.64341193534E+02  0.64341193534E+02  0.00000000000E+00 0.  1.
         21   -1    0    0  501  502 -0.00000000000E+00 -0.00000000000E+00 -0.83388201389E+03  0.83388201389E+03  0.00000000000E+00 0.  1.
      99926    2    1    2    0    0  0.00000000000E+00  0.00000000000E+00 -0.76954082036E+03  0.89822320743E+03  0.46326218944E+03 0.  0.
      99925    2    3    3    0    0  0.86156696514E+02 -0.83715937964E+02 -0.50400628798E+03  0.58106799210E+03  0.26303296086E+03 0.  0.
         25    1    4    4    0    0  0.93810910548E+01 -0.15203793903E+02 -0.19918682925E+03  0.23588569534E+03  0.12509000000E+03 0.  0.
         25    1    3    3    0    0 -0.86156696514E+02  0.83715937964E+02 -0.26553453238E+03  0.31715521533E+03  0.12509000000E+03 0.  0.
         25    1    4    4    0    0  0.76775605460E+02 -0.68512144061E+02 -0.30481945873E+03  0.34518229676E+03  0.12509000000E+03 0.  0.
<mgrwt>
<rscale>  2 0.46326219E+03</rscale>
<asrwt>0</asrwt>
<pdfrwt beam="1">  1       21 0.94619396E-02 0.46326219E+03</pdfrwt>
<pdfrwt beam="2">  1       21 0.12262972E+00 0.46326219E+03</pdfrwt>
<totfact> 0.40618494E+04</totfact>
</mgrwt>
</event>
<event>
 7    0  0.4759581E-002  0.4245253E+03  0.7546771E-02  0.1035603E+00
         21   -1    0    0  502  501  0.00000000000E+00  0.00000000000E+00  0.11971611313E+03  0.11971611313E+03  0.00000000000E+00 0. -1.
         21   -1    0    0  501  502 -0.00000000000E+00 -0.00000000000E+00 -0.37635232073E+03  0.37635232073E+03  0.00000000000E+00 0. -1.
      99926    2    1    2    0    0  0.35527136788E-14  0.00000000000E+00 -0.25663620760E+03  0.49606843386E+03  0.42452532083E+03 0.  0.
      99925    2    3    3    0    0  0.27517035348E+02  0.72794777851E+02 -0.19416414002E+03  0.33604801565E+03  0.26300625209E+03 0.  0.
         25    1    4    4    0    0 -0.14595992891E+02  0.52801870252E+02 -0.68777175123E+02  0.15290156451E+03  0.12509000000E+03 0.  0.
         25    1    3    3    0    0 -0.27517035348E+02 -0.72794777851E+02 -0.62472067586E+02  0.16002041821E+03  0.12509000000E+03 0.  0.
         25    1    4    4    0    0  0.42113028239E+02  0.19992907598E+02 -0.12538696489E+03  0.18314645114E+03  0.12509000000E+03 0.  0.
<mgrwt>
<rscale>  2 0.42452532E+03</rscale>
<asrwt>0</asrwt>
<pdfrwt beam="1">  1       21 0.17605311E-01 0.42452532E+03</pdfrwt>
<pdfrwt beam="2">  1       21 0.55345930E-01 0.42452532E+03</pdfrwt>
<totfact> 0.84115616E+04</totfact>
</mgrwt>
</event>
<event>
 7    0  0.4759581E-002  0.4513209E+03  0.7546771E-02  0.1027329E+00
         21   -1    0    0  502  501  0.00000000000E+00  0.00000000000E+00  0.23087578136E+02  0.23087578136E+02  0.00000000000E+00 0. -1.
         21   -1    0    0  501  502 -0.00000000000E+00 -0.00000000000E+00 -0.22056291459E+04  0.22056291459E+04  0.00000000000E+00 0. -1.
      99926    2    1    2    0    0  0.00000000000E+00  0.14210854715E-13 -0.21825415677E+04  0.22287167240E+04  0.45132088471E+03 0.  0.
      99925    2    3    3    0    0  0.79288447048E+02 -0.73769991909E+02 -0.14628828327E+04  0.14902826561E+04  0.26303525145E+03 0.  0.
         25    1    4    4    0    0  0.33943064585E+02 -0.12414113577E+02 -0.51837927087E+03  0.53448182235E+03  0.12509000000E+03 0.  0.
         25    1    3    3    0    0 -0.79288447048E+02  0.73769991909E+02 -0.71965873506E+03  0.73843406787E+03  0.12509000000E+03 0.  0.
         25    1    4    4    0    0  0.45345382463E+02 -0.61355878332E+02 -0.94450356181E+03  0.95580083380E+03  0.12509000000E+03 0.  0.
<mgrwt>
<rscale>  2 0.45132088E+03</rscale>
<asrwt>0</asrwt>
<pdfrwt beam="1">  1       21 0.33952340E-02 0.45132088E+03</pdfrwt>
<pdfrwt beam="2">  1       21 0.32435704E+00 0.45132088E+03</pdfrwt>
<totfact> 0.10622516E+04</totfact>
</mgrwt>
</event>
<event>
 7    0  0.4759581E-002  0.4536159E+03  0.7546771E-02  0.1026649E+00
         21   -1    0    0  502  501  0.00000000000E+00  0.00000000000E+00  0.94629336291E+02  0.94629336291E+02  0.00000000000E+00 0. -1.
         21   -1    0    0  501  502 -0.00000000000E+00 -0.00000000000E+00 -0.54361426206E+03  0.54361426206E+03  0.00000000000E+00 0. -1.
      99926    2    1    2    0    0 -0.71054273576E-14 -0.14210854715E-13 -0.44898492577E+03  0.63824359835E+03  0.45361594688E+03 0.  0.
      99925    2    3    3    0    0  0.58176783134E+02  0.64440398902E+02 -0.38213355663E+03  0.47194953122E+03  0.26300798811E+03 0.  0.
         25    1    3    3    0    0 -0.58176783134E+02 -0.64440398902E+02 -0.66851369141E+02  0.16629406713E+03  0.12509000000E+03 0.  0.
         25    1    4    4    0    0  0.36631300198E+02  0.26523031814E+02 -0.25865098645E+03  0.29084904033E+03  0.12509000000E+03 0.  0.
         25    1    4    4    0    0  0.21545482935E+02  0.37917367088E+02 -0.12348257017E+03  0.18110049089E+03  0.12509000000E+03 0.  0.
<mgrwt>
<rscale>  2 0.45361595E+03</rscale>
<asrwt>0</asrwt>
<pdfrwt beam="1">  1       21 0.13916078E-01 0.45361595E+03</pdfrwt>
<pdfrwt beam="2">  1       21 0.79943276E-01 0.45361595E+03</pdfrwt>
<totfact> 0.57004003E+04</totfact>
</mgrwt>
</event>
<event>
 7    0  0.4759581E-002  0.4451553E+03  0.7546771E-02  0.1029177E+00
         21   -1    0    0  502  501  0.00000000000E+00  0.00000000000E+00  0.29707872624E+03  0.29707872624E+03  0.00000000000E+00 0. -1.
         21   -1    0    0  501  502 -0.00000000000E+00 -0.00000000000E+00 -0.16675984783E+03  0.16675984783E+03  0.00000000000E+00 0. -1.
      99926    2    1    2    0    0 -0.88817841970E-15  0.14210854715E-13  0.13031887842E+03  0.46383857407E+03  0.44515526811E+03 0.  0.
      99925    2    3    3    0    0  0.46538463131E+01 -0.72453018204E+02  0.15996589362E+03  0.31619863455E+03  0.26290947346E+03 0.  0.
         25    1    4    4    0    0  0.24013144127E+02 -0.71006858445E+02  0.77823769441E+02  0.16529565096E+03  0.12509000000E+03 0.  0.
         25    1    3    3    0    0 -0.46538463131E+01  0.72453018204E+02 -0.29647015202E+02  0.14763993952E+03  0.12509000000E+03 0.  0.
         25    1    4    4    0    0 -0.19359297813E+02 -0.14461597585E+01  0.82142124178E+02  0.15090298358E+03  0.12509000000E+03 0.  0.
<mgrwt>
<rscale>  2 0.44515527E+03</rscale>
<asrwt>0</asrwt>
<pdfrwt beam="1">  1       21 0.43688048E-01 0.44515527E+03</pdfrwt>
<pdfrwt beam="2">  1       21 0.24523507E-01 0.44515527E+03</pdfrwt>
<totfact> 0.73469379E+04</totfact>
</mgrwt>
</event>
<event>
 7    0  0.4759581E-002  0.4758268E+03  0.7546771E-02  0.1020288E+00
         21   -1    0    0  502  501  0.00000000000E+00  0.00000000000E+00  0.90256230233E+03  0.90256230233E+03  0.00000000000E+00 0.  1.
         21   -1    0    0  501  502 -0.00000000000E+00 -0.00000000000E+00 -0.62713433349E+02  0.62713433349E+02  0.00000000000E+00 0.  1.
      99926    2    1    2    0    0  0.00000000000E+00  0.00000000000E+00  0.83984886898E+03  0.96527573568E+03  0.47582677853E+03 0.  0.
      99925    2    3    3    0    0 -0.10357466753E+03  0.72127476867E+02  0.59586826068E+03  0.66344112865E+03  0.26299251401E+03 0.  0.
         25    1    3    3    0    0  0.10357466753E+03 -0.72127476867E+02  0.24398060830E+03  0.30183460703E+03  0.12509000000E+03 0.  0.
         25    1    4    4    0    0 -0.70214393442E+02  0.14483973485E+02  0.36631424249E+03  0.39366671041E+03  0.12509000000E+03 0.  0.
         25    1    4    4    0    0 -0.33360274091E+02  0.57643503382E+02  0.22955401820E+03  0.26977441824E+03  0.12509000000E+03 0.  0.
<mgrwt>
<rscale>  2 0.47582678E+03</rscale>
<asrwt>0</asrwt>
<pdfrwt beam="1">  1       21 0.13272974E+00 0.47582678E+03</pdfrwt>
<pdfrwt beam="2">  1       21 0.92225643E-02 0.47582678E+03</pdfrwt>
<totfact> 0.34548264E+04</totfact>
</mgrwt>
</event>
<event>
 7    0  0.4759581E-002  0.4554870E+03  0.7546771E-02  0.1026098E+00
         21   -1    0    0  502  501  0.00000000000E+00  0.00000000000E+00  0.31239104782E+02  0.31239104782E+02  0.00000000000E+00 0. -1.
         21   -1    0    0  501  502 -0.00000000000E+00 -0.00000000000E+00 -0.16603262155E+04  0.16603262155E+04  0.00000000000E+00 0. -1.
      99926    2    1    2    0    0  0.00000000000E+00 -0.71054273576E-14 -0.16290871107E+04  0.16915653203E+04  0.45548701241E+03 0.  0.
      99925    2    3    3    0    0 -0.57629864671E+02 -0.63496586356E+02 -0.74767693192E+03  0.79720273767E+03  0.26297983316E+03 0.  0.
         25    1    4    4    0    0 -0.18061596357E+02 -0.70161099441E+02 -0.36364873529E+03  0.39132686072E+03  0.12509000000E+03 0.  0.
         25    1    4    4    0    0 -0.39568268314E+02  0.66645130844E+01 -0.38402819662E+03  0.40587587696E+03  0.12509000000E+03 0.  0.
         25    1    3    3    0    0  0.57629864671E+02  0.63496586356E+02 -0.88141017881E+03  0.89436258262E+03  0.12509000000E+03 0.  0.
<mgrwt>
<rscale>  2 0.45548701E+03</rscale>
<asrwt>0</asrwt>
<pdfrwt beam="1">  1       21 0.45939848E-02 0.45548701E+03</pdfrwt>
<pdfrwt beam="2">  1       21 0.24416568E+00 0.45548701E+03</pdfrwt>
<totfact> 0.19364308E+04</totfact>
</mgrwt>
</event>
<event>
 7    0  0.4759581E-002  0.4508261E+03  0.7546771E-02  0.1027476E+00
         21   -1    0    0  502  501  0.00000000000E+00  0.00000000000E+00  0.25936377057E+03  0.25936377057E+03  0.00000000000E+00 0. -1.
         21   -1    0    0  501  502 -0.00000000000E+00 -0.00000000000E+00 -0.19590650305E+03  0.19590650305E+03  0.00000000000E+00 0. -1.
      99926    2    1    2    0    0  0.00000000000E+00  0.00000000000E+00  0.63457267521E+02  0.45527027362E+03  0.45082612750E+03 0.  0.
      99925    2    3    3    0    0 -0.64188947476E+02  0.77277337431E+02  0.82263629363E+02  0.29373639109E+03  0.26348008440E+03 0.  0.
         25    1    4    4    0    0 -0.32063988447E+02  0.31171441885E+02 -0.18624861059E+01  0.13285606911E+03  0.12509000000E+03 0.  0.
         25    1    4    4    0    0 -0.32124959029E+02  0.46105895547E+02  0.84126115469E+02  0.16088032198E+03  0.12509000000E+03 0.  0.
         25    1    3    3    0    0  0.64188947476E+02 -0.77277337431E+02 -0.18806361842E+02  0.16153388253E+03  0.12509000000E+03 0.  0.
<mgrwt>
<rscale>  2 0.45082613E+03</rscale>
<asrwt>0</asrwt>
<pdfrwt beam="1">  1       21 0.38141731E-01 0.45082613E+03</pdfrwt>
<pdfrwt beam="2">  1       21 0.28809780E-01 0.45082613E+03</pdfrwt>
<totfact> 0.70855915E+04</totfact>
</mgrwt>
</event>
<event>
 7    0  0.4759581E-002  0.4544006E+03  0.7546771E-02  0.1026418E+00
         21   -1    0    0  502  501  0.00000000000E+00  0.00000000000E+00  0.13443410158E+03  0.13443410158E+03  0.00000000000E+00 0.  1.
         21   -1    0    0  501  502 -0.00000000000E+00 -0.00000000000E+00 -0.38397982434E+03  0.38397982434E+03  0.00000000000E+00 0.  1.
      99926    2    1    2    0    0  0.14210854715E-13 -0.71054273576E-14 -0.24954572276E+03  0.51841392593E+03  0.45440062813E+03 0.  0.
      99925    2    3    3    0    0 -0.89948826760E+02  0.49313617008E+02 -0.21003346384E+03  0.35188659795E+03  0.26303516424E+03 0.  0.
         25    1    4    4    0    0 -0.21904802229E+02  0.29850803518E+02 -0.58295333320E+02  0.14288717514E+03  0.12509000000E+03 0.  0.
         25    1    4    4    0    0 -0.68044024532E+02  0.19462813490E+02 -0.15173813052E+03  0.20899942282E+03  0.12509000000E+03 0.  0.
         25    1    3    3    0    0  0.89948826760E+02 -0.49313617008E+02 -0.39512258921E+02  0.16652732798E+03  0.12509000000E+03 0.  0.
<mgrwt>
<rscale>  2 0.45440063E+03</rscale>
<asrwt>0</asrwt>
<pdfrwt beam="1">  1       21 0.19769721E-01 0.45440063E+03</pdfrwt>
<pdfrwt beam="2">  1       21 0.56467621E-01 0.45440063E+03</pdfrwt>
<totfact> 0.64300699E+04</totfact>
</mgrwt>
</event>
<event>
 7    0  0.4759581E-002  0.4580179E+03  0.7546771E-02  0.1025358E+00
         21   -1    0    0  502  501  0.00000000000E+00  0.00000000000E+00  0.52094703481E+03  0.52094703481E+03  0.00000000000E+00 0.  1.
         21   -1    0    0  501  502 -0.00000000000E+00 -0.00000000000E+00 -0.10067259882E+03  0.10067259882E+03  0.00000000000E+00 0.  1.
      99926    2    1    2    0    0  0.14210854715E-13  0.00000000000E+00  0.42027443599E+03  0.62161963364E+03  0.45801786796E+03 0.  0.
      99925    2    3    3    0    0 -0.11366799693E+03  0.13529359491E+02  0.28654206177E+03  0.40566752527E+03  0.26335590140E+03 0.  0.
         25    1    4    4    0    0 -0.99305134257E+02  0.18779740762E+02  0.15109260357E+03  0.22065962772E+03  0.12509000000E+03 0.  0.
         25    1    3    3    0    0  0.11366799693E+03 -0.13529359491E+02  0.13373237422E+03  0.21595210837E+03  0.12509000000E+03 0.  0.
         25    1    4    4    0    0 -0.14362862669E+02 -0.52503812701E+01  0.13544945821E+03  0.18500789755E+03  0.12509000000E+03 0.  0.
<mgrwt>
<rscale>  2 0.45801787E+03</rscale>
<asrwt>0</asrwt>
<pdfrwt beam="1">  1       21 0.76609857E-01 0.45801787E+03</pdfrwt>
<pdfrwt beam="2">  1       21 0.14804794E-01 0.45801787E+03</pdfrwt>
<totfact> 0.56019939E+04</totfact>
</mgrwt>
</event>
<event>
 7    0  0.4759581E-002  0.4604822E+03  0.7546771E-02  0.1024641E+00
         21   -1    0    0  502  501  0.00000000000E+00  0.00000000000E+00  0.59927417676E+03  0.59927417676E+03  0.00000000000E+00 0. -1.
         21   -1    0    0  501  502 -0.00000000000E+00 -0.00000000000E+00 -0.88458618571E+02  0.88458618571E+02  0.00000000000E+00 0. -1.
      99926    2    1    2    0    0  0.00000000000E+00  0.00000000000E+00  0.51081555819E+03  0.68773279533E+03  0.46048220735E+03 0.  0.
      99925    2    3    3    0    0  0.11003802788E+03  0.19474144807E+02  0.26256435625E+03  0.38812675857E+03  0.26308692414E+03 0.  0.
         25    1    4    4    0    0  0.43088422100E+02 -0.60492466876E+01  0.77177833806E+02  0.15328774131E+03  0.12509000000E+03 0.  0.
         25    1    4    4    0    0  0.66949605779E+02  0.25523391494E+02  0.18538652244E+03  0.23483901726E+03  0.12509000000E+03 0.  0.
         25    1    3    3    0    0 -0.11003802788E+03 -0.19474144807E+02  0.24825120195E+03  0.29960603676E+03  0.12509000000E+03 0.  0.
<mgrwt>
<rscale>  2 0.46048221E+03</rscale>
<asrwt>0</asrwt>
<pdfrwt beam="1">  1       21 0.88128553E-01 0.46048221E+03</pdfrwt>
<pdfrwt beam="2">  1       21 0.13008621E-01 0.46048221E+03</pdfrwt>
<totfact> 0.51322553E+04</totfact>
</mgrwt>
</event>
<event>
 7    0  0.4759581E-002  0.4534186E+03  0.7546771E-02  0.1026707E+00
         21   -1    0    0  502  501  0.00000000000E+00  0.00000000000E+00  0.50788676490E+02  0.50788676490E+02  0.00000000000E+00 0. -1.
         21   -1    0    0  501  502 -0.00000000000E+00 -0.00000000000E+00 -0.10119796560E+04  0.10119796560E+04  0.00000000000E+00 0. -1.
      99926    2    1    2    0    0  0.14210854715E-13  0.71054273576E-14 -0.96119097949E+03  0.10627683325E+04  0.45341860289E+03 0.  0.
      99925    2    3    3    0    0 -0.92411670351E+02  0.41172332404E+02 -0.49121471246E+03  0.56601861939E+03  0.26239303723E+03 0.  0.
         25    1    3    3    0    0  0.92411670351E+02 -0.41172332404E+02 -0.46997626703E+03  0.49674971308E+03  0.12509000000E+03 0.  0.
         25    1    4    4    0    0 -0.19869027864E+02  0.77375177484E+01 -0.16966392504E+03  0.21186789047E+03  0.12509000000E+03 0.  0.
         25    1    4    4    0    0 -0.72542642487E+02  0.33434814655E+02 -0.32155078742E+03  0.35415072893E+03  0.12509000000E+03 0.  0.
<mgrwt>
<rscale>  2 0.45341860E+03</rscale>
<asrwt>0</asrwt>
<pdfrwt beam="1">  1       21 0.74689225E-02 0.45341860E+03</pdfrwt>
<pdfrwt beam="2">  1       21 0.14882055E+00 0.45341860E+03</pdfrwt>
<totfact> 0.37270190E+04</totfact>
</mgrwt>
</event>
<event>
 7    0  0.4759581E-002  0.4575380E+03  0.7546771E-02  0.1025498E+00
         21   -1    0    0  502  501  0.00000000000E+00  0.00000000000E+00  0.13870650032E+03  0.13870650032E+03  0.00000000000E+00 0.  1.
         21   -1    0    0  501  502 -0.00000000000E+00 -0.00000000000E+00 -0.37730938158E+03  0.37730938158E+03  0.00000000000E+00 0.  1.
      99926    2    1    2    0    0  0.00000000000E+00  0.00000000000E+00 -0.23860288126E+03  0.51601588189E+03  0.45753803713E+03 0.  0.
      99925    2    3    3    0    0  0.53641880733E+02 -0.98854838598E+02 -0.12022525509E+03  0.31032071676E+03  0.26304962422E+03 0.  0.
         25    1    3    3    0    0 -0.53641880733E+02  0.98854838598E+02 -0.11837762617E+03  0.20569516514E+03  0.12509000000E+03 0.  0.
         25    1    4    4    0    0  0.64578019039E+02 -0.57535949835E+02 -0.81673613758E+02  0.17262327001E+03  0.12509000000E+03 0.  0.
         25    1    4    4    0    0 -0.10936138306E+02 -0.41318888763E+02 -0.38551641330E+02  0.13769744674E+03  0.12509000000E+03 0.  0.
<mgrwt>
<rscale>  2 0.45753804E+03</rscale>
<asrwt>0</asrwt>
<pdfrwt beam="1">  1       21 0.20398015E-01 0.45753804E+03</pdfrwt>
<pdfrwt beam="2">  1       21 0.55486673E-01 0.45753804E+03</pdfrwt>
<totfact> 0.62883486E+04</totfact>
</mgrwt>
</event>
<event>
 7    0  0.4759581E-002  0.4541216E+03  0.7546771E-02  0.1026500E+00
         21   -1    0    0  502  501  0.00000000000E+00  0.00000000000E+00  0.36094885646E+02  0.36094885646E+02  0.00000000000E+00 0. -1.
         21   -1    0    0  501  502 -0.00000000000E+00 -0.00000000000E+00 -0.14283633919E+04  0.14283633919E+04  0.00000000000E+00 0. -1.
      99926    2    1    2    0    0 -0.14210854715E-13  0.00000000000E+00 -0.13922685063E+04  0.14644582776E+04  0.45412162817E+03 0.  0.
      99925    2    3    3    0    0 -0.78447124817E+02  0.57426379662E+02 -0.69511382053E+03  0.74952897727E+03  0.26298046277E+03 0.  0.
         25    1    3    3    0    0  0.78447124817E+02 -0.57426379662E+02 -0.69715468577E+03  0.71492930032E+03  0.12509000000E+03 0.  0.
         25    1    4    4    0    0 -0.77285891299E+02  0.12967575039E+02 -0.36808887312E+03  0.39658314842E+03  0.12509000000E+03 0.  0.
         25    1    4    4    0    0 -0.11612335180E+01  0.44458804623E+02 -0.32702494741E+03  0.35294582885E+03  0.12509000000E+03 0.  0.
<mgrwt>
<rscale>  2 0.45412163E+03</rscale>
<asrwt>0</asrwt>
<pdfrwt beam="1">  1       21 0.53080712E-02 0.45412163E+03</pdfrwt>
<pdfrwt beam="2">  1       21 0.21005345E+00 0.45412163E+03</pdfrwt>
<totfact> 0.24832636E+04</totfact>
</mgrwt>
</event>
<event>
 7    0  0.4759581E-002  0.4500723E+03  0.7546771E-02  0.1027700E+00
         21   -1    0    0  502  501  0.00000000000E+00  0.00000000000E+00  0.14565373643E+02  0.14565373643E+02  0.00000000000E+00 0.  1.
         21   -1    0    0  501  502 -0.00000000000E+00 -0.00000000000E+00 -0.34768254650E+04  0.34768254650E+04  0.00000000000E+00 0.  1.
      99926    2    1    2    0    0  0.71054273576E-14  0.00000000000E+00 -0.34622600913E+04  0.34913908386E+04  0.45007226971E+03 0.  0.
      99925    2    3    3    0    0 -0.60689668815E+02 -0.27864574477E+02 -0.28520976170E+04  0.28649681191E+04  0.26291031902E+03 0.  0.
         25    1    3    3    0    0  0.60689668815E+02  0.27864574477E+02 -0.61016247428E+03  0.62642271952E+03  0.12509000000E+03 0.  0.
         25    1    4    4    0    0 -0.41895661746E+02  0.16856228194E+02 -0.16680966768E+04  0.16733897963E+04  0.12509000000E+03 0.  0.
         25    1    4    4    0    0 -0.18794007068E+02 -0.44720802671E+02 -0.11840009402E+04  0.11915783228E+04  0.12509000000E+03 0.  0.
<mgrwt>
<rscale>  2 0.45007227E+03</rscale>
<asrwt>0</asrwt>
<pdfrwt beam="1">  1       21 0.21419653E-02 0.45007227E+03</pdfrwt>
<pdfrwt beam="2">  1       21 0.51129820E+00 0.45007227E+03</pdfrwt>
<totfact> 0.13617479E+03</totfact>
</mgrwt>
</event>
<event>
 7    0  0.4759581E-002  0.4546940E+03  0.7546771E-02  0.1026331E+00
         21   -1    0    0  502  501  0.00000000000E+00  0.00000000000E+00  0.12826599999E+03  0.12826599999E+03  0.00000000000E+00 0.  1.
         21   -1    0    0  501  502 -0.00000000000E+00 -0.00000000000E+00 -0.40296460389E+03  0.40296460389E+03  0.00000000000E+00 0.  1.
      99926    2    1    2    0    0  0.14210854715E-13  0.00000000000E+00 -0.27469860389E+03  0.53123060388E+03  0.45469399767E+03 0.  0.
      99925    2    3    3    0    0  0.10628842594E+03  0.33146746133E+02 -0.15116040502E+03  0.32313175490E+03  0.26299948044E+03 0.  0.
         25    1    3    3    0    0 -0.10628842594E+03 -0.33146746133E+02 -0.12353819888E+03  0.20809884899E+03  0.12509000000E+03 0.  0.
         25    1    4    4    0    0  0.11985846483E+02  0.34182531723E+01 -0.75526238063E+02  0.14665287487E+03  0.12509000000E+03 0.  0.
         25    1    4    4    0    0  0.94302579457E+02  0.29728492960E+02 -0.75634166953E+02  0.17647888003E+03  0.12509000000E+03 0.  0.
<mgrwt>
<rscale>  2 0.45469400E+03</rscale>
<asrwt>0</asrwt>
<pdfrwt beam="1">  1       21 0.18862647E-01 0.45469400E+03</pdfrwt>
<pdfrwt beam="2">  1       21 0.59259500E-01 0.45469400E+03</pdfrwt>
<totfact> 0.63276606E+04</totfact>
</mgrwt>
</event>
<event>
 7    0  0.4759581E-002  0.4540356E+03  0.7546771E-02  0.1026525E+00
         21   -1    0    0  502  501  0.00000000000E+00  0.00000000000E+00  0.73938616999E+03  0.73938616999E+03  0.00000000000E+00 0. -1.
         21   -1    0    0  501  502 -0.00000000000E+00 -0.00000000000E+00 -0.69702527588E+02  0.69702527588E+02  0.00000000000E+00 0. -1.
      99926    2    1    2    0    0  0.00000000000E+00  0.00000000000E+00  0.66968364240E+03  0.80908869757E+03  0.45403561495E+03 0.  0.
      99925    2    3    3    0    0  0.27056778656E+02 -0.10617859389E+03  0.46558153977E+03  0.54581860913E+03  0.26295592944E+03 0.  0.
         25    1    3    3    0    0 -0.27056778656E+02  0.10617859389E+03  0.20410210263E+03  0.26327008844E+03  0.12509000000E+03 0.  0.
         25    1    4    4    0    0  0.20085836112E+02 -0.54409201251E+02  0.31114427819E+03  0.34032641970E+03  0.12509000000E+03 0.  0.
         25    1    4    4    0    0  0.69709425444E+01 -0.51769392639E+02  0.15443726158E+03  0.20549218943E+03  0.12509000000E+03 0.  0.
<mgrwt>
<rscale>  2 0.45403561E+03</rscale>
<asrwt>0</asrwt>
<pdfrwt beam="1">  1       21 0.10873326E+00 0.45403561E+03</pdfrwt>
<pdfrwt beam="2">  1       21 0.10250372E-01 0.45403561E+03</pdfrwt>
<totfact> 0.47688212E+04</totfact>
</mgrwt>
</event>
<event>
 7    0  0.4759581E-002  0.4527030E+03  0.7546771E-02  0.1026919E+00
         21   -1    0    0  502  501  0.00000000000E+00  0.00000000000E+00  0.12836800746E+03  0.12836800746E+03  0.00000000000E+00 0. -1.
         21   -1    0    0  501  502 -0.00000000000E+00 -0.00000000000E+00 -0.39912586662E+03  0.39912586662E+03  0.00000000000E+00 0. -1.
      99926    2    1    2    0    0 -0.14210854715E-13  0.00000000000E+00 -0.27075785916E+03  0.52749387409E+03  0.45270295880E+03 0.  0.
      99925    2    3    3    0    0  0.85274441541E+02  0.60901217007E+02 -0.21325461381E+03  0.35447705427E+03  0.26305087546E+03 0.  0.
         25    1    4    4    0    0  0.16628212793E+02  0.20843770802E+02 -0.13837543326E+03  0.18843096580E+03  0.12509000000E+03 0.  0.
         25    1    4    4    0    0  0.68646228748E+02  0.40057446205E+02 -0.74879180547E+02  0.16604608847E+03  0.12509000000E+03 0.  0.
         25    1    3    3    0    0 -0.85274441541E+02 -0.60901217007E+02 -0.57503245347E+02  0.17301681981E+03  0.12509000000E+03 0.  0.
<mgrwt>
<rscale>  2 0.45270296E+03</rscale>
<asrwt>0</asrwt>
<pdfrwt beam="1">  1       21 0.18877648E-01 0.45270296E+03</pdfrwt>
<pdfrwt beam="2">  1       21 0.58694980E-01 0.45270296E+03</pdfrwt>
<totfact> 0.64543670E+04</totfact>
</mgrwt>
</event>
<event>
 7    0  0.4759581E-002  0.4538831E+03  0.7546771E-02  0.1026570E+00
         21   -1    0    0  502  501  0.00000000000E+00  0.00000000000E+00  0.17704105363E+03  0.17704105363E+03  0.00000000000E+00 0.  1.
         21   -1    0    0  501  502 -0.00000000000E+00 -0.00000000000E+00 -0.29090694498E+03  0.29090694498E+03  0.00000000000E+00 0.  1.
      99926    2    1    2    0    0 -0.35527136788E-14  0.00000000000E+00 -0.11386589135E+03  0.46794799860E+03  0.45388312172E+03 0.  0.
      99925    2    3    3    0    0 -0.17500179062E+02  0.10889543177E+03 -0.92414149629E+02  0.29980473632E+03  0.26301717347E+03 0.  0.
         25    1    4    4    0    0 -0.21446200618E+02  0.37639504951E+02 -0.81322714527E+02  0.15536268488E+03  0.12509000000E+03 0.  0.
         25    1    4    4    0    0  0.39460215556E+01  0.71255926821E+02 -0.11091435102E+02  0.14444205145E+03  0.12509000000E+03 0.  0.
         25    1    3    3    0    0  0.17500179062E+02 -0.10889543177E+03 -0.21451741723E+02  0.16814326228E+03  0.12509000000E+03 0.  0.
<mgrwt>
<rscale>  2 0.45388312E+03</rscale>
<asrwt>0</asrwt>
<pdfrwt beam="1">  1       21 0.26035449E-01 0.45388312E+03</pdfrwt>
<pdfrwt beam="2">  1       21 0.42780433E-01 0.45388312E+03</pdfrwt>
<totfact> 0.68190841E+04</totfact>
</mgrwt>
</event>
<event>
 7    0  0.4759581E-002  0.4494846E+03  0.7546771E-02  0.1027876E+00
         21   -1    0    0  502  501  0.00000000000E+00  0.00000000000E+00  0.31254394915E+03  0.31254394915E+03  0.00000000000E+00 0. -1.
         21   -1    0    0  501  502 -0.00000000000E+00 -0.00000000000E+00 -0.16160639163E+03  0.16160639163E+03  0.00000000000E+00 0. -1.
      99926    2    1    2    0    0  0.00000000000E+00  0.00000000000E+00  0.15093755752E+03  0.47415034078E+03  0.44948459305E+03 0.  0.
      99925    2    3    3    0    0  0.53585625291E+02 -0.89222733750E+02  0.65535294364E+02  0.29037555985E+03  0.26304177519E+03 0.  0.
         25    1    4    4    0    0  0.54736728329E+02 -0.76035119855E+02  0.25373637268E+02  0.15833123017E+03  0.12509000000E+03 0.  0.
         25    1    3    3    0    0 -0.53585625291E+02  0.89222733750E+02  0.85402263157E+02  0.18377478094E+03  0.12509000000E+03 0.  0.
         25    1    4    4    0    0 -0.11511030383E+01 -0.13187613895E+02  0.40161657097E+02  0.13204432967E+03  0.12509000000E+03 0.  0.
<mgrwt>
<rscale>  2 0.44948459E+03</rscale>
<asrwt>0</asrwt>
<pdfrwt beam="1">  1       21 0.45962345E-01 0.44948459E+03</pdfrwt>
<pdfrwt beam="2">  1       21 0.23765646E-01 0.44948459E+03</pdfrwt>
<totfact> 0.70149217E+04</totfact>
</mgrwt>
</event>
<event>
 7    0  0.4759581E-002  0.4561070E+03  0.7546771E-02  0.1025916E+00
         21   -1    0    0  502  501  0.00000000000E+00  0.00000000000E+00  0.30469626039E+03  0.30469626039E+03  0.00000000000E+00 0.  1.
         21   -1    0    0  501  502 -0.00000000000E+00 -0.00000000000E+00 -0.17068934037E+03  0.17068934037E+03  0.00000000000E+00 0.  1.
      99926    2    1    2    0    0  0.00000000000E+00  0.00000000000E+00  0.13400692002E+03  0.47538560076E+03  0.45610702121E+03 0.  0.
      99925    2    3    3    0    0  0.11271654912E+03 -0.13249539827E+02  0.95487525112E+02  0.30214639436E+03  0.26323754561E+03 0.  0.
         25    1    4    4    0    0  0.10067642781E+03 -0.11338041984E+02  0.54669271034E+02  0.17000156354E+03  0.12509000000E+03 0.  0.
         25    1    3    3    0    0 -0.11271654912E+03  0.13249539827E+02  0.38519394904E+02  0.17323920640E+03  0.12509000000E+03 0.  0.
         25    1    4    4    0    0  0.12040121316E+02 -0.19114978429E+01  0.40818254077E+02  0.13214483082E+03  0.12509000000E+03 0.  0.
<mgrwt>
<rscale>  2 0.45610702E+03</rscale>
<asrwt>0</asrwt>
<pdfrwt beam="1">  1       21 0.44808273E-01 0.45610702E+03</pdfrwt>
<pdfrwt beam="2">  1       21 0.25101374E-01 0.45610702E+03</pdfrwt>
<totfact> 0.66451866E+04</totfact>
</mgrwt>
</event>
<event>
 7    0  0.4759581E-002  0.4316326E+03  0.7546771E-02  0.1033345E+00
         21   -1    0    0  502  501  0.00000000000E+00  0.00000000000E+00  0.38234888117E+03  0.38234888117E+03  0.00000000000E+00 0. -1.
         21   -1    0    0  501  502 -0.00000000000E+00 -0.00000000000E+00 -0.12181720197E+03  0.12181720197E+03  0.00000000000E+00 0. -1.
      99926    2    1    2    0    0  0.13322676296E-14 -0.14210854715E-13  0.26053167921E+03  0.50416608314E+03  0.43163257931E+03 0.  0.
      99925    2    3    3    0    0  0.28736629590E+01  0.88601717178E+02  0.15394476712E+03  0.31743954472E+03  0.26307860232E+03 0.  0.
         25    1    4    4    0    0 -0.19679079679E+02  0.56421538503E+02  0.11649780614E+03  0.18107982527E+03  0.12509000000E+03 0.  0.
         25    1    4    4    0    0  0.22552742638E+02  0.32180178675E+02  0.37446960980E+02  0.13635971944E+03  0.12509000000E+03 0.  0.
         25    1    3    3    0    0 -0.28736629590E+01 -0.88601717178E+02  0.10658691208E+03  0.18672653843E+03  0.12509000000E+03 0.  0.
<mgrwt>
<rscale>  2 0.43163258E+03</rscale>
<asrwt>0</asrwt>
<pdfrwt beam="1">  1       21 0.56227776E-01 0.43163258E+03</pdfrwt>
<pdfrwt beam="2">  1       21 0.17914295E-01 0.43163258E+03</pdfrwt>
<totfact> 0.78560566E+04</totfact>
</mgrwt>
</event>
<event>
 7    0  0.4759581E-002  0.4563575E+03  0.7546771E-02  0.1025843E+00
         21   -1    0    0  502  501  0.00000000000E+00  0.00000000000E+00  0.70817221834E+02  0.70817221834E+02  0.00000000000E+00 0.  1.
         21   -1    0    0  501  502 -0.00000000000E+00 -0.00000000000E+00 -0.73521008476E+03  0.73521008476E+03  0.00000000000E+00 0.  1.
      99926    2    1    2    0    0  0.00000000000E+00  0.00000000000E+00 -0.66439286293E+03  0.80602730659E+03  0.45635747246E+03 0.  0.
      99925    2    3    3    0    0  0.83245195133E+02 -0.14976355631E+02 -0.55142167557E+03  0.61744297264E+03  0.26460518973E+03 0.  0.
         25    1    3    3    0    0 -0.83245195133E+02  0.14976355631E+02 -0.11297118736E+03  0.18858433396E+03  0.12509000000E+03 0.  0.
         25    1    4    4    0    0  0.70286640845E+02 -0.28229989862E+02 -0.35373892368E+03  0.38277392601E+03  0.12509000000E+03 0.  0.
         25    1    4    4    0    0  0.12958554288E+02  0.13253634232E+02 -0.19768275189E+03  0.23466904662E+03  0.12509000000E+03 0.  0.
<mgrwt>
<rscale>  2 0.45635747E+03</rscale>
<asrwt>0</asrwt>
<pdfrwt beam="1">  1       21 0.10414297E-01 0.45635747E+03</pdfrwt>
<pdfrwt beam="2">  1       21 0.10811913E+00 0.45635747E+03</pdfrwt>
<totfact> 0.46972270E+04</totfact>
</mgrwt>
</event>
<event>
 7    0  0.4759581E-002  0.4554009E+03  0.7546771E-02  0.1026124E+00
         21   -1    0    0  502  501  0.00000000000E+00  0.00000000000E+00  0.11467906275E+03  0.11467906275E+03  0.00000000000E+00 0. -1.
         21   -1    0    0  501  502 -0.00000000000E+00 -0.00000000000E+00 -0.45210945847E+03  0.45210945847E+03  0.00000000000E+00 0. -1.
      99926    2    1    2    0    0  0.00000000000E+00 -0.14210854715E-13 -0.33743039573E+03  0.56678852122E+03  0.45540087376E+03 0.  0.
      99925    2    3    3    0    0 -0.39239473222E+02  0.68181602548E+02 -0.31418726037E+03  0.41720169484E+03  0.26297367247E+03 0.  0.
         25    1    3    3    0    0  0.39239473222E+02 -0.68181602548E+02 -0.23243135357E+02  0.14958682638E+03  0.12509000000E+03 0.  0.
         25    1    4    4    0    0 -0.32399603806E+02  0.25429412083E+02 -0.99789996499E+02  0.16523298952E+03  0.12509000000E+03 0.  0.
         25    1    4    4    0    0 -0.68398694157E+01  0.42752190465E+02 -0.21439726387E+03  0.25196870532E+03  0.12509000000E+03 0.  0.
<mgrwt>
<rscale>  2 0.45540087E+03</rscale>
<asrwt>0</asrwt>
<pdfrwt beam="1">  1       21 0.16864568E-01 0.45540087E+03</pdfrwt>
<pdfrwt beam="2">  1       21 0.66486685E-01 0.45540087E+03</pdfrwt>
<totfact> 0.60578276E+04</totfact>
</mgrwt>
</event>
<event>
 7    0  0.4759581E-002  0.4435428E+03  0.7546771E-02  0.1029665E+00
         21   -1    0    0  502  501  0.00000000000E+00  0.00000000000E+00  0.51121683390E+02  0.51121683390E+02  0.00000000000E+00 0.  1.
         21   -1    0    0  501  502 -0.00000000000E+00 -0.00000000000E+00 -0.96206821247E+03  0.96206821247E+03  0.00000000000E+00 0.  1.
      99926    2    1    2    0    0  0.00000000000E+00  0.00000000000E+00 -0.91094652908E+03  0.10131898959E+04  0.44354276708E+03 0.  0.
      99925    2    3    3    0    0  0.32795558634E+02  0.33217178251E+02 -0.37085687811E+03  0.45684174157E+03  0.26266066170E+03 0.  0.
         25    1    3    3    0    0 -0.32795558634E+02 -0.33217178251E+02 -0.54008965096E+03  0.55634815428E+03  0.12509000000E+03 0.  0.
         25    1    4    4    0    0 -0.24277297170E+01 -0.18170390976E+02 -0.16084382846E+03  0.20458324036E+03  0.12509000000E+03 0.  0.
         25    1    4    4    0    0  0.35223288351E+02  0.51387569227E+02 -0.21001304965E+03  0.25225850122E+03  0.12509000000E+03 0.  0.
<mgrwt>
<rscale>  2 0.44354277E+03</rscale>
<asrwt>0</asrwt>
<pdfrwt beam="1">  1       21 0.75178951E-02 0.44354277E+03</pdfrwt>
<pdfrwt beam="2">  1       21 0.14148061E+00 0.44354277E+03</pdfrwt>
<totfact> 0.42318694E+04</totfact>
</mgrwt>
</event>
<event>
 7    0  0.4759581E-002  0.4554112E+03  0.7546771E-02  0.1026121E+00
         21   -1    0    0  502  501  0.00000000000E+00  0.00000000000E+00  0.15472248151E+03  0.15472248151E+03  0.00000000000E+00 0. -1.
         21   -1    0    0  501  502 -0.00000000000E+00 -0.00000000000E+00 -0.33511505711E+03  0.33511505711E+03  0.00000000000E+00 0. -1.
      99926    2    1    2    0    0  0.00000000000E+00  0.00000000000E+00 -0.18039257560E+03  0.48983753863E+03  0.45541116907E+03 0.  0.
      99925    2    3    3    0    0  0.75915444766E+02  0.51511509642E+02 -0.41460938565E+02  0.28159225477E+03  0.26298022386E+03 0.  0.
         25    1    4    4    0    0  0.23588135692E+02  0.18259185195E+01  0.11386603965E+02  0.12781587137E+03  0.12509000000E+03 0.  0.
         25    1    3    3    0    0 -0.75915444766E+02 -0.51511509642E+02 -0.13893163704E+03  0.20824528386E+03  0.12509000000E+03 0.  0.
         25    1    4    4    0    0  0.52327309074E+02  0.49685591123E+02 -0.52847542530E+02  0.15377638340E+03  0.12509000000E+03 0.  0.
<mgrwt>
<rscale>  2 0.45541117E+03</rscale>
<asrwt>0</asrwt>
<pdfrwt beam="1">  1       21 0.22753306E-01 0.45541117E+03</pdfrwt>
<pdfrwt beam="2">  1       21 0.49281626E-01 0.45541117E+03</pdfrwt>
<totfact> 0.65775707E+04</totfact>
</mgrwt>
</event>
<event>
 7    0  0.4759581E-002  0.4557678E+03  0.7546771E-02  0.1026016E+00
         21   -1    0    0  502  501  0.00000000000E+00  0.00000000000E+00  0.21790353101E+03  0.21790353101E+03  0.00000000000E+00 0. -1.
         21   -1    0    0  501  502 -0.00000000000E+00 -0.00000000000E+00 -0.23832140527E+03  0.23832140527E+03  0.00000000000E+00 0. -1.
      99926    2    1    2    0    0  0.00000000000E+00  0.00000000000E+00 -0.20417874260E+02  0.45622493628E+03  0.45576781687E+03 0.  0.
      99925    2    3    3    0    0  0.59478515133E+02 -0.71547706552E+02  0.53157237117E+02  0.28383707943E+03  0.26283269912E+03 0.  0.
         25    1    4    4    0    0 -0.28861117665E+01 -0.57732156631E+02  0.17339604710E+02  0.13888664998E+03  0.12509000000E+03 0.  0.
         25    1    3    3    0    0 -0.59478515133E+02  0.71547706552E+02 -0.73575111377E+02  0.17238785685E+03  0.12509000000E+03 0.  0.
         25    1    4    4    0    0  0.62364626899E+02 -0.13815549921E+02  0.35817632407E+02  0.14495042945E+03  0.12509000000E+03 0.  0.
<mgrwt>
<rscale>  2 0.45576782E+03</rscale>
<asrwt>0</asrwt>
<pdfrwt beam="1">  1       21 0.32044637E-01 0.45576782E+03</pdfrwt>
<pdfrwt beam="2">  1       21 0.35047265E-01 0.45576782E+03</pdfrwt>
<totfact> 0.68038390E+04</totfact>
</mgrwt>
</event>
<event>
 7    0  0.4759581E-002  0.4544492E+03  0.7546771E-02  0.1026404E+00
         21   -1    0    0  502  501  0.00000000000E+00  0.00000000000E+00  0.96928141172E+03  0.96928141172E+03  0.00000000000E+00 0.  1.
         21   -1    0    0  501  502 -0.00000000000E+00 -0.00000000000E+00 -0.53267309259E+02  0.53267309259E+02  0.00000000000E+00 0.  1.
      99926    2    1    2    0    0  0.35527136788E-14  0.00000000000E+00  0.91601410246E+03  0.10225487210E+04  0.45444917303E+03 0.  0.
      99925    2    3    3    0    0  0.26315986739E+02 -0.99787367855E+02  0.67855366378E+03  0.73499869406E+03  0.26294097379E+03 0.  0.
         25    1    4    4    0    0  0.39866078305E+02 -0.72532171336E+02  0.42386543936E+03  0.44962166192E+03  0.12509000000E+03 0.  0.
         25    1    4    4    0    0 -0.13550091565E+02 -0.27255196519E+02  0.25468822442E+03  0.28537703214E+03  0.12509000000E+03 0.  0.
         25    1    3    3    0    0 -0.26315986739E+02  0.99787367855E+02  0.23746043868E+03  0.28755002692E+03  0.12509000000E+03 0.  0.
<mgrwt>
<rscale>  2 0.45444917E+03</rscale>
<asrwt>0</asrwt>
<pdfrwt beam="1">  1       21 0.14254137E+00 0.45444917E+03</pdfrwt>
<pdfrwt beam="2">  1       21 0.78334284E-02 0.45444917E+03</pdfrwt>
<totfact> 0.38466217E+04</totfact>
</mgrwt>
</event>
<event>
 7    0  0.4759581E-002  0.4579300E+03  0.7546771E-02  0.1025383E+00
         21   -1    0    0  502  501  0.00000000000E+00  0.00000000000E+00  0.61009346053E+02  0.61009346053E+02  0.00000000000E+00 0. -1.
         21   -1    0    0  501  502 -0.00000000000E+00 -0.00000000000E+00 -0.85929419877E+03  0.85929419877E+03  0.00000000000E+00 0. -1.
      99926    2    1    2    0    0 -0.35527136788E-14 -0.71054273576E-14 -0.79828485271E+03  0.92030354482E+03  0.45793002581E+03 0.  0.
      99925    2    3    3    0    0 -0.16618779231E+02 -0.63415019144E+02 -0.30865489588E+03  0.41071287457E+03  0.26290601384E+03 0.  0.
         25    1    4    4    0    0 -0.38594788736E+02 -0.39193435819E+02 -0.19773793238E+03  0.24036114730E+03  0.12509000000E+03 0.  0.
         25    1    4    4    0    0  0.21976009505E+02 -0.24221583325E+02 -0.11091696350E+03  0.17035172728E+03  0.12509000000E+03 0.  0.
         25    1    3    3    0    0  0.16618779231E+02  0.63415019144E+02 -0.48962995683E+03  0.50959067025E+03  0.12509000000E+03 0.  0.
<mgrwt>
<rscale>  2 0.45793003E+03</rscale>
<asrwt>0</asrwt>
<pdfrwt beam="1">  1       21 0.89719627E-02 0.45793003E+03</pdfrwt>
<pdfrwt beam="2">  1       21 0.12636679E+00 0.45793003E+03</pdfrwt>
<totfact> 0.41409727E+04</totfact>
</mgrwt>
</event>
<event>
 7    0  0.4759581E-002  0.4259355E+03  0.7546771E-02  0.1035152E+00
         21   -1    0    0  502  501  0.00000000000E+00  0.00000000000E+00  0.40000737599E+02  0.40000737599E+02  0.00000000000E+00 0. -1.
         21   -1    0    0  501  502 -0.00000000000E+00 -0.00000000000E+00 -0.11338604753E+04  0.11338604753E+04  0.00000000000E+00 0. -1.
      99926    2    1    2    0    0  0.17763568394E-14 -0.44408920985E-15 -0.10938597377E+04  0.11738612129E+04  0.42593546622E+03 0.  0.
      99925    2    3    3    0    0  0.11974377997E+02  0.34174442670E+01 -0.48267395044E+03  0.54988153430E+03  0.26313588634E+03 0.  0.
         25    1    4    4    0    0  0.19892381273E+02  0.30801544239E+02 -0.19104835123E+03  0.23128212764E+03  0.12509000000E+03 0.  0.
         25    1    3    3    0    0 -0.11974377997E+02 -0.34174442670E+01 -0.61118578725E+03  0.62397967859E+03  0.12509000000E+03 0.  0.
         25    1    4    4    0    0 -0.79180032761E+01 -0.27384099972E+02 -0.29162559921E+03  0.31859940666E+03  0.12509000000E+03 0.  0.
<mgrwt>
<rscale>  2 0.42593547E+03</rscale>
<asrwt>0</asrwt>
<pdfrwt beam="1">  1       21 0.58824623E-02 0.42593547E+03</pdfrwt>
<pdfrwt beam="2">  1       21 0.16674416E+00 0.42593547E+03</pdfrwt>
<totfact> 0.41658976E+04</totfact>
</mgrwt>
</event>
<event>
 7    0  0.4759581E-002  0.4523799E+03  0.7546771E-02  0.1027015E+00
         21   -1    0    0  502  501  0.00000000000E+00  0.00000000000E+00  0.15371826324E+03  0.15371826324E+03  0.00000000000E+00 0.  1.
         21   -1    0    0  501  502 -0.00000000000E+00 -0.00000000000E+00 -0.33282898210E+03  0.33282898210E+03  0.00000000000E+00 0.  1.
      99926    2    1    2    0    0  0.00000000000E+00  0.00000000000E+00 -0.17911071886E+03  0.48654724534E+03  0.45237989824E+03 0.  0.
      99925    2    3    3    0    0  0.67855711053E+02  0.35658942709E+02 -0.19899836392E+03  0.33849663155E+03  0.26287575584E+03 0.  0.
         25    1    4    4    0    0  0.32462883071E+01  0.30649529206E+02 -0.12438559651E+03  0.17907880039E+03  0.12509000000E+03 0.  0.
         25    1    4    4    0    0  0.64609422746E+02  0.50094135027E+01 -0.74612767410E+02  0.15941783116E+03  0.12509000000E+03 0.  0.
         25    1    3    3    0    0 -0.67855711053E+02 -0.35658942709E+02  0.19887645058E+02  0.14805061379E+03  0.12509000000E+03 0.  0.
<mgrwt>
<rscale>  2 0.45237990E+03</rscale>
<asrwt>0</asrwt>
<pdfrwt beam="1">  1       21 0.22605627E-01 0.45237990E+03</pdfrwt>
<pdfrwt beam="2">  1       21 0.48945438E-01 0.45237990E+03</pdfrwt>
<totfact> 0.67622143E+04</totfact>
</mgrwt>
</event>
<event>
 7    0  0.4759581E-002  0.4544060E+03  0.7546771E-02  0.1026416E+00
         21   -1    0    0  502  501  0.00000000000E+00  0.00000000000E+00  0.33661046850E+03  0.33661046850E+03  0.00000000000E+00 0.  1.
         21   -1    0    0  501  502 -0.00000000000E+00 -0.00000000000E+00 -0.15335593420E+03  0.15335593420E+03  0.00000000000E+00 0.  1.
      99926    2    1    2    0    0  0.00000000000E+00 -0.71054273576E-14  0.18325453429E+03  0.48996640270E+03  0.45440604247E+03 0.  0.
      99925    2    3    3    0    0 -0.83608540388E+02  0.49180390240E+02  0.17696855627E+03  0.33154885181E+03  0.26305450466E+03 0.  0.
         25    1    4    4    0    0 -0.29883719024E+02 -0.15667937764E+02  0.80193983875E+02  0.15237159869E+03  0.12509000000E+03 0.  0.
         25    1    3    3    0    0  0.83608540388E+02 -0.49180390240E+02  0.62859780275E+01  0.15841755089E+03  0.12509000000E+03 0.  0.
         25    1    4    4    0    0 -0.53724821365E+02  0.64848328005E+02  0.96774572392E+02  0.17917725312E+03  0.12509000000E+03 0.  0.
<mgrwt>
<rscale>  2 0.45440604E+03</rscale>
<asrwt>0</asrwt>
<pdfrwt beam="1">  1       21 0.49501539E-01 0.45440604E+03</pdfrwt>
<pdfrwt beam="2">  1       21 0.22552343E-01 0.45440604E+03</pdfrwt>
<totfact> 0.66293500E+04</totfact>
</mgrwt>
</event>
<event>
 7    0  0.4759581E-002  0.4505902E+03  0.7546771E-02  0.1027546E+00
         21   -1    0    0  502  501  0.00000000000E+00  0.00000000000E+00  0.40571096358E+02  0.40571096358E+02  0.00000000000E+00 0.  1.
         21   -1    0    0  501  502 -0.00000000000E+00 -0.00000000000E+00 -0.12510849847E+04  0.12510849847E+04  0.00000000000E+00 0.  1.
      99926    2    1    2    0    0  0.00000000000E+00 -0.71054273576E-14 -0.12105138883E+04  0.12916560810E+04  0.45059023276E+03 0.  0.
      99925    2    3    3    0    0  0.50011978780E+02 -0.42022157278E+02 -0.51512583258E+03  0.58209345809E+03  0.26308004643E+03 0.  0.
         25    1    4    4    0    0  0.39498216521E+02 -0.15647727086E+02 -0.34198079178E+03  0.36661059794E+03  0.12509000000E+03 0.  0.
         25    1    4    4    0    0  0.10513762259E+02 -0.26374430192E+02 -0.17314504080E+03  0.21548286015E+03  0.12509000000E+03 0.  0.
         25    1    3    3    0    0 -0.50011978780E+02  0.42022157278E+02 -0.69538805574E+03  0.70956262295E+03  0.12509000000E+03 0.  0.
<mgrwt>
<rscale>  2 0.45059023E+03</rscale>
<asrwt>0</asrwt>
<pdfrwt beam="1">  1       21 0.59663370E-02 0.45059023E+03</pdfrwt>
<pdfrwt beam="2">  1       21 0.18398311E+00 0.45059023E+03</pdfrwt>
<totfact> 0.30386902E+04</totfact>
</mgrwt>
</event>
<event>
 7    0  0.4759581E-002  0.4548595E+03  0.7546771E-02  0.1026283E+00
         21   -1    0    0  502  501  0.00000000000E+00  0.00000000000E+00  0.73064848246E+02  0.73064848246E+02  0.00000000000E+00 0. -1.
         21   -1    0    0  501  502 -0.00000000000E+00 -0.00000000000E+00 -0.70792298565E+03  0.70792298565E+03  0.00000000000E+00 0. -1.
      99926    2    1    2    0    0  0.00000000000E+00  0.00000000000E+00 -0.63485813741E+03  0.78098783390E+03  0.45485947508E+03 0.  0.
      99925    2    3    3    0    0 -0.75853773234E+02  0.91722243865E+01 -0.54261895139E+03  0.60780151760E+03  0.26296279924E+03 0.  0.
         25    1    4    4    0    0 -0.36427032848E+02  0.14138411959E+02 -0.18383845375E+03  0.22576737717E+03  0.12509000000E+03 0.  0.
         25    1    3    3    0    0  0.75853773234E+02 -0.91722243865E+01 -0.92239186020E+02  0.17318631629E+03  0.12509000000E+03 0.  0.
         25    1    4    4    0    0 -0.39426740386E+02 -0.49661875727E+01 -0.35878049764E+03  0.38203414044E+03  0.12509000000E+03 0.  0.
<mgrwt>
<rscale>  2 0.45485948E+03</rscale>
<asrwt>0</asrwt>
<pdfrwt beam="1">  1       21 0.10744830E-01 0.45485948E+03</pdfrwt>
<pdfrwt beam="2">  1       21 0.10410632E+00 0.45485948E+03</pdfrwt>
<totfact> 0.48751943E+04</totfact>
</mgrwt>
</event>
<event>
 7    0  0.4759581E-002  0.4778366E+03  0.7546771E-02  0.1019731E+00
         21   -1    0    0  502  501  0.00000000000E+00  0.00000000000E+00  0.97858280792E+02  0.97858280792E+02  0.00000000000E+00 0.  1.
         21   -1    0    0  501  502 -0.00000000000E+00 -0.00000000000E+00 -0.58331253530E+03  0.58331253530E+03  0.00000000000E+00 0.  1.
      99926    2    1    2    0    0  0.17763568394E-14  0.17763568394E-14 -0.48545425451E+03  0.68117081609E+03  0.47783663262E+03 0.  0.
      99925    2    3    3    0    0 -0.98152493369E+01  0.27050640173E+01 -0.10987237774E+03  0.28517471668E+03  0.26296201846E+03 0.  0.
         25    1    4    4    0    0 -0.23763638056E+02  0.25987960018E+02 -0.27114410601E+02  0.13275083398E+03  0.12509000000E+03 0.  0.
         25    1    3    3    0    0  0.98152493369E+01 -0.27050640173E+01 -0.37558187677E+03  0.39599609941E+03  0.12509000000E+03 0.  0.
         25    1    4    4    0    0  0.13948388719E+02 -0.23282896001E+02 -0.82757967138E+02  0.15242388270E+03  0.12509000000E+03 0.  0.
<mgrwt>
<rscale>  2 0.47783663E+03</rscale>
<asrwt>0</asrwt>
<pdfrwt beam="1">  1       21 0.14390924E-01 0.47783663E+03</pdfrwt>
<pdfrwt beam="2">  1       21 0.85781254E-01 0.47783663E+03</pdfrwt>
<totfact> 0.45230275E+04</totfact>
</mgrwt>
</event>
<event>
 7    0  0.4759581E-002  0.4515408E+03  0.7546771E-02  0.1027264E+00
         21   -1    0    0  502  501  0.00000000000E+00  0.00000000000E+00  0.50102705272E+03  0.50102705272E+03  0.00000000000E+00 0. -1.
         21   -1    0    0  501  502 -0.00000000000E+00 -0.00000000000E+00 -0.10173558508E+03  0.10173558508E+03  0.00000000000E+00 0. -1.
      99926    2    1    2    0    0  0.00000000000E+00  0.00000000000E+00  0.39929146764E+03  0.60276263779E+03  0.45154083026E+03 0.  0.
      99925    2    3    3    0    0  0.56096841393E+02  0.75294684924E+02  0.17567697391E+03  0.32987604029E+03  0.26294421006E+03 0.  0.
         25    1    3    3    0    0 -0.56096841393E+02 -0.75294684924E+02  0.22361449373E+03  0.27288659751E+03  0.12509000000E+03 0.  0.
         25    1    4    4    0    0 -0.63968608967E+01  0.24179367598E+02  0.58140245887E+02  0.14019043455E+03  0.12509000000E+03 0.  0.
         25    1    4    4    0    0  0.62493702289E+02  0.51115317325E+02  0.11753672802E+03  0.18968560574E+03  0.12509000000E+03 0.  0.
<mgrwt>
<rscale>  2 0.45154083E+03</rscale>
<asrwt>0</asrwt>
<pdfrwt beam="1">  1       21 0.73680448E-01 0.45154083E+03</pdfrwt>
<pdfrwt beam="2">  1       21 0.14961116E-01 0.45154083E+03</pdfrwt>
<totfact> 0.60135211E+04</totfact>
</mgrwt>
</event>
<event>
 7    0  0.4759581E-002  0.4081524E+03  0.7546771E-02  0.1040993E+00
         21   -1    0    0  502  501  0.00000000000E+00  0.00000000000E+00  0.47060470069E+03  0.47060470069E+03  0.00000000000E+00 0. -1.
         21   -1    0    0  501  502 -0.00000000000E+00 -0.00000000000E+00 -0.88496966001E+02  0.88496966001E+02  0.00000000000E+00 0. -1.
      99926    2    1    2    0    0  0.13322676296E-14  0.35527136788E-14  0.38210773469E+03  0.55910166669E+03  0.40815236467E+03 0.  0.
      99925    2    3    3    0    0  0.36495716262E+01  0.20462402786E+02  0.17604489490E+03  0.31714830064E+03  0.26298138770E+03 0.  0.
         25    1    4    4    0    0  0.33968024606E+02  0.22086857016E+02  0.11500787949E+03  0.17468822626E+03  0.12509000000E+03 0.  0.
         25    1    3    3    0    0 -0.36495716262E+01 -0.20462402786E+02  0.20606283979E+03  0.24195336605E+03  0.12509000000E+03 0.  0.
         25    1    4    4    0    0 -0.30318452980E+02 -0.16244542297E+01  0.61037015405E+02  0.14246007438E+03  0.12509000000E+03 0.  0.
<mgrwt>
<rscale>  2 0.40815236E+03</rscale>
<asrwt>0</asrwt>
<pdfrwt beam="1">  1       21 0.69206572E-01 0.40815236E+03</pdfrwt>
<pdfrwt beam="2">  1       21 0.13014260E-01 0.40815236E+03</pdfrwt>
<totfact> 0.90388172E+04</totfact>
</mgrwt>
</event>
<event>
 7    0  0.4759581E-002  0.4453000E+03  0.7546771E-02  0.1029133E+00
         21   -1    0    0  502  501  0.00000000000E+00  0.00000000000E+00  0.24383747386E+03  0.24383747386E+03  0.00000000000E+00 0.  1.
         21   -1    0    0  501  502 -0.00000000000E+00 -0.00000000000E+00 -0.20330351493E+03  0.20330351493E+03  0.00000000000E+00 0.  1.
      99926    2    1    2    0    0  0.00000000000E+00  0.00000000000E+00  0.40533958935E+02  0.44714098879E+03  0.44529996859E+03 0.  0.
      99925    2    3    3    0    0  0.24178039458E+02 -0.98780579271E+02  0.42643592891E+02  0.28591400876E+03  0.26379189517E+03 0.  0.
         25    1    4    4    0    0 -0.14647300200E+01 -0.67601832071E+02  0.58015420375E+02  0.15357555220E+03  0.12509000000E+03 0.  0.
         25    1    4    4    0    0  0.25642769478E+02 -0.31178747199E+02 -0.15371827483E+02  0.13233845656E+03  0.12509000000E+03 0.  0.
         25    1    3    3    0    0 -0.24178039458E+02  0.98780579271E+02 -0.21096339564E+01  0.16122698003E+03  0.12509000000E+03 0.  0.
<mgrwt>
<rscale>  2 0.44529997E+03</rscale>
<asrwt>0</asrwt>
<pdfrwt beam="1">  1       21 0.35858452E-01 0.44529997E+03</pdfrwt>
<pdfrwt beam="2">  1       21 0.29897576E-01 0.44529997E+03</pdfrwt>
<totfact> 0.74744795E+04</totfact>
</mgrwt>
</event>
<event>
 7    0  0.4759581E-002  0.4551691E+03  0.7546771E-02  0.1026192E+00
         21   -1    0    0  502  501  0.00000000000E+00  0.00000000000E+00  0.13801772234E+04  0.13801772234E+04  0.00000000000E+00 0. -1.
         21   -1    0    0  501  502 -0.00000000000E+00 -0.00000000000E+00 -0.37527594883E+02  0.37527594883E+02  0.00000000000E+00 0. -1.
      99926    2    1    2    0    0 -0.71054273576E-14  0.00000000000E+00  0.13426496285E+04  0.14177048183E+04  0.45516911893E+03 0.  0.
      99925    2    3    3    0    0  0.50814237070E+02  0.48384744405E+02  0.11219333772E+04  0.11544818294E+04  0.26300308243E+03 0.  0.
         25    1    4    4    0    0 -0.24258152016E+01  0.29239308058E+02  0.41861863828E+03  0.43789256003E+03  0.12509000000E+03 0.  0.
         25    1    4    4    0    0  0.53240052272E+02  0.19145436347E+02  0.70331473893E+03  0.71658926938E+03  0.12509000000E+03 0.  0.
         25    1    3    3    0    0 -0.50814237070E+02 -0.48384744405E+02  0.22071625134E+03  0.26322298890E+03  0.12509000000E+03 0.  0.
<mgrwt>
<rscale>  2 0.45516912E+03</rscale>
<asrwt>0</asrwt>
<pdfrwt beam="1">  1       21 0.20296721E+00 0.45516912E+03</pdfrwt>
<pdfrwt beam="2">  1       21 0.55187649E-02 0.45516912E+03</pdfrwt>
<totfact> 0.25830052E+04</totfact>
</mgrwt>
</event>
<event>
 7    0  0.4759581E-002  0.4523591E+03  0.7546771E-02  0.1027021E+00
         21   -1    0    0  502  501  0.00000000000E+00  0.00000000000E+00  0.23030187755E+03  0.23030187755E+03  0.00000000000E+00 0. -1.
         21   -1    0    0  501  502 -0.00000000000E+00 -0.00000000000E+00 -0.22213097954E+03  0.22213097954E+03  0.00000000000E+00 0. -1.
      99926    2    1    2    0    0  0.00000000000E+00  0.00000000000E+00  0.81708980141E+01  0.45243285708E+03  0.45235906821E+03 0.  0.
      99925    2    3    3    0    0 -0.49936124118E+02  0.37914462625E+02  0.96382874802E+02  0.28702432068E+03  0.26298703226E+03 0.  0.
         25    1    4    4    0    0 -0.55406598377E+02  0.53181946776E+01  0.24746096142E+02  0.13913321571E+03  0.12509000000E+03 0.  0.
         25    1    4    4    0    0  0.54704742587E+01  0.32596267947E+02  0.71636778660E+02  0.14789110497E+03  0.12509000000E+03 0.  0.
         25    1    3    3    0    0  0.49936124118E+02 -0.37914462625E+02 -0.88211976788E+02  0.16540853641E+03  0.12509000000E+03 0.  0.
<mgrwt>
<rscale>  2 0.45235907E+03</rscale>
<asrwt>0</asrwt>
<pdfrwt beam="1">  1       21 0.33867923E-01 0.45235907E+03</pdfrwt>
<pdfrwt beam="2">  1       21 0.32666320E-01 0.45235907E+03</pdfrwt>
<totfact> 0.70201936E+04</totfact>
</mgrwt>
</event>
<event>
 7    0  0.4759581E-002  0.4603550E+03  0.7546771E-02  0.1024678E+00
         21   -1    0    0  502  501  0.00000000000E+00  0.00000000000E+00  0.73054261537E+02  0.73054261537E+02  0.00000000000E+00 0.  1.
         21   -1    0    0  501  502 -0.00000000000E+00 -0.00000000000E+00 -0.72523728522E+03  0.72523728522E+03  0.00000000000E+00 0.  1.
      99926    2    1    2    0    0  0.00000000000E+00  0.00000000000E+00 -0.65218302368E+03  0.79829154675E+03  0.46035496874E+03 0.  0.
      99925    2    3    3    0    0  0.11557000407E+03 -0.19928685574E+02 -0.43054023838E+03  0.51806554738E+03  0.26319847297E+03 0.  0.
         25    1    3    3    0    0 -0.11557000407E+03  0.19928685574E+02 -0.22164278530E+03  0.28022599937E+03  0.12509000000E+03 0.  0.
         25    1    4    4    0    0  0.36880668223E+02  0.21057850915E+01 -0.26307706648E+03  0.29363526530E+03  0.12509000000E+03 0.  0.
         25    1    4    4    0    0  0.78689335843E+02 -0.22034470665E+02 -0.16746317189E+03  0.22443028208E+03  0.12509000000E+03 0.  0.
<mgrwt>
<rscale>  2 0.46035497E+03</rscale>
<asrwt>0</asrwt>
<pdfrwt beam="1">  1       21 0.10743274E-01 0.46035497E+03</pdfrwt>
<pdfrwt beam="2">  1       21 0.10665254E+00 0.46035497E+03</pdfrwt>
<totfact> 0.45888481E+04</totfact>
</mgrwt>
</event>
<event>
 7    0  0.4759581E-002  0.4451103E+03  0.7546771E-02  0.1029190E+00
         21   -1    0    0  502  501  0.00000000000E+00  0.00000000000E+00  0.23987264741E+03  0.23987264741E+03  0.00000000000E+00 0.  1.
         21   -1    0    0  501  502 -0.00000000000E+00 -0.00000000000E+00 -0.20648783975E+03  0.20648783975E+03  0.00000000000E+00 0.  1.
      99926    2    1    2    0    0  0.00000000000E+00  0.00000000000E+00  0.33384807659E+02  0.44636048716E+03  0.44511025501E+03 0.  0.
      99925    2    3    3    0    0 -0.63468168262E+02 -0.14267929019E+02  0.10205673936E+03  0.28953215909E+03  0.26302378394E+03 0.  0.
         25    1    4    4    0    0 -0.59634535329E+02 -0.31874297122E+02  0.34901522466E+02  0.14641677838E+03  0.12509000000E+03 0.  0.
         25    1    4    4    0    0 -0.38336329329E+01  0.17606368102E+02  0.67155216898E+02  0.14311538071E+03  0.12509000000E+03 0.  0.
         25    1    3    3    0    0  0.63468168262E+02  0.14267929019E+02 -0.68671931704E+02  0.15682832807E+03  0.12509000000E+03 0.  0.
<mgrwt>
<rscale>  2 0.44511026E+03</rscale>
<asrwt>0</asrwt>
<pdfrwt beam="1">  1       21 0.35275390E-01 0.44511026E+03</pdfrwt>
<pdfrwt beam="2">  1       21 0.30365859E-01 0.44511026E+03</pdfrwt>
<totfact> 0.74923201E+04</totfact>
</mgrwt>
</event>
<event>
 7    0  0.4759581E-002  0.4450819E+03  0.7546771E-02  0.1029199E+00
         21   -1    0    0  502  501  0.00000000000E+00  0.00000000000E+00  0.59835762093E+03  0.59835762093E+03  0.00000000000E+00 0.  1.
         21   -1    0    0  501  502 -0.00000000000E+00 -0.00000000000E+00 -0.82767333461E+02  0.82767333461E+02  0.00000000000E+00 0.  1.
      99926    2    1    2    0    0  0.00000000000E+00  0.00000000000E+00  0.51559028747E+03  0.68112495439E+03  0.44508185647E+03 0.  0.
      99925    2    3    3    0    0 -0.73834390665E+02 -0.32409311940E+02  0.42716410195E+03  0.50801060163E+03  0.26287586544E+03 0.  0.
         25    1    4    4    0    0 -0.74157455780E+02 -0.35497144766E+02  0.24091874191E+03  0.28363484243E+03  0.12509000000E+03 0.  0.
         25    1    4    4    0    0  0.32306511535E+00  0.30878328259E+01  0.18624536004E+03  0.22437575920E+03  0.12509000000E+03 0.  0.
         25    1    3    3    0    0  0.73834390665E+02  0.32409311940E+02  0.88426185513E+02  0.17311435275E+03  0.12509000000E+03 0.  0.
<mgrwt>
<rscale>  2 0.44508186E+03</rscale>
<asrwt>0</asrwt>
<pdfrwt beam="1">  1       21 0.87993766E-01 0.44508186E+03</pdfrwt>
<pdfrwt beam="2">  1       21 0.12171667E-01 0.44508186E+03</pdfrwt>
<totfact> 0.58366314E+04</totfact>
</mgrwt>
</event>
<event>
 7    0  0.4759581E-002  0.4515998E+03  0.7546771E-02  0.1027246E+00
         21   -1    0    0  502  501  0.00000000000E+00  0.00000000000E+00  0.16383609699E+03  0.16383609699E+03  0.00000000000E+00 0. -1.
         21   -1    0    0  501  502 -0.00000000000E+00 -0.00000000000E+00 -0.31119871992E+03  0.31119871992E+03  0.00000000000E+00 0. -1.
      99926    2    1    2    0    0  0.00000000000E+00  0.14210854715E-13 -0.14736262293E+03  0.47503481691E+03  0.45159975048E+03 0.  0.
      99925    2    3    3    0    0  0.17830944395E+02 -0.10498381819E+03 -0.12175684288E+03  0.30877385116E+03  0.26301524235E+03 0.  0.
         25    1    3    3    0    0 -0.17830944395E+02  0.10498381819E+03 -0.25605780041E+02  0.16626096575E+03  0.12509000000E+03 0.  0.
         25    1    4    4    0    0 -0.10466644670E+02 -0.83491768222E+02 -0.87449795324E+02  0.17428540046E+03  0.12509000000E+03 0.  0.
         25    1    4    4    0    0  0.28297589065E+02 -0.21492049969E+02 -0.34307047560E+02  0.13448845070E+03  0.12509000000E+03 0.  0.
<mgrwt>
<rscale>  2 0.45159975E+03</rscale>
<asrwt>0</asrwt>
<pdfrwt beam="1">  1       21 0.24093544E-01 0.45159975E+03</pdfrwt>
<pdfrwt beam="2">  1       21 0.45764517E-01 0.45159975E+03</pdfrwt>
<totfact> 0.68904115E+04</totfact>
</mgrwt>
</event>
<event>
 7    0  0.4759581E-002  0.4602454E+03  0.7546771E-02  0.1024710E+00
         21   -1    0    0  502  501  0.00000000000E+00  0.00000000000E+00  0.15053326418E+03  0.15053326418E+03  0.00000000000E+00 0.  1.
         21   -1    0    0  501  502 -0.00000000000E+00 -0.00000000000E+00 -0.35179238869E+03  0.35179238869E+03  0.00000000000E+00 0.  1.
      99926    2    1    2    0    0 -0.13322676296E-14  0.00000000000E+00 -0.20125912450E+03  0.50232565287E+03  0.46024539795E+03 0.  0.
      99925    2    3    3    0    0 -0.29707112772E+00 -0.11611235253E+03 -0.14921400001E+03  0.32389255688E+03  0.26298175591E+03 0.  0.
         25    1    3    3    0    0  0.29707112772E+00  0.11611235253E+03 -0.52045124492E+02  0.17843309599E+03  0.12509000000E+03 0.  0.
         25    1    4    4    0    0  0.12547303509E+02 -0.81254457835E+02 -0.11563258409E+03  0.18915106224E+03  0.12509000000E+03 0.  0.
         25    1    4    4    0    0 -0.12844374636E+02 -0.34857894697E+02 -0.33581415925E+02  0.13474149464E+03  0.12509000000E+03 0.  0.
<mgrwt>
<rscale>  2 0.46024540E+03</rscale>
<asrwt>0</asrwt>
<pdfrwt beam="1">  1       21 0.22137245E-01 0.46024540E+03</pdfrwt>
<pdfrwt beam="2">  1       21 0.51734173E-01 0.46024540E+03</pdfrwt>
<totfact> 0.62465796E+04</totfact>
</mgrwt>
</event>
<event>
 7    0  0.4759581E-002  0.4326495E+03  0.7546771E-02  0.1033026E+00
         21   -1    0    0  502  501  0.00000000000E+00  0.00000000000E+00  0.18275335003E+04  0.18275335003E+04  0.00000000000E+00 0.  1.
         21   -1    0    0  501  502 -0.00000000000E+00 -0.00000000000E+00 -0.25606315996E+02  0.25606315996E+02  0.00000000000E+00 0.  1.
      99926    2    1    2    0    0  0.00000000000E+00  0.00000000000E+00  0.18019271844E+04  0.18531398163E+04  0.43264951313E+03 0.  0.
      99925    2    3    3    0    0 -0.48452973222E+02 -0.76492375322E+02  0.11479902969E+04  0.11812173989E+04  0.26304761501E+03 0.  0.
         25    1    3    3    0    0  0.48452973222E+02  0.76492375322E+02  0.65393688747E+03  0.67192241739E+03  0.12509000000E+03 0.  0.
         25    1    4    4    0    0 -0.21827432664E+01 -0.80333733355E+01  0.43897243842E+03  0.45652339398E+03  0.12509000000E+03 0.  0.
         25    1    4    4    0    0 -0.46270229956E+02 -0.68459001987E+02  0.70901785846E+03  0.72469400497E+03  0.12509000000E+03 0.  0.
<mgrwt>
<rscale>  2 0.43264951E+03</rscale>
<asrwt>0</asrwt>
<pdfrwt beam="1">  1       21 0.26875484E+00 0.43264951E+03</pdfrwt>
<pdfrwt beam="2">  1       21 0.37656359E-02 0.43264951E+03</pdfrwt>
<totfact> 0.19414990E+04</totfact>
</mgrwt>
</event>
<event>
 7    0  0.4759581E-002  0.4543125E+03  0.7546771E-02  0.1026444E+00
         21   -1    0    0  502  501  0.00000000000E+00  0.00000000000E+00  0.81541404401E+02  0.81541404401E+02  0.00000000000E+00 0.  1.
         21   -1    0    0  501  502 -0.00000000000E+00 -0.00000000000E+00 -0.63280675115E+03  0.63280675115E+03  0.00000000000E+00 0.  1.
      99926    2    1    2    0    0  0.00000000000E+00  0.00000000000E+00 -0.55126534675E+03  0.71434815555E+03  0.45431245285E+03 0.  0.
      99925    2    3    3    0    0 -0.11085536343E+02  0.10926901750E+03 -0.30780220411E+03  0.41941694794E+03  0.26287976730E+03 0.  0.
         25    1    4    4    0    0 -0.39566677047E+02  0.38595773843E+02 -0.12600423720E+03  0.18595626255E+03  0.12509000000E+03 0.  0.
         25    1    4    4    0    0  0.28481140704E+02  0.70673243660E+02 -0.18179796692E+03  0.23346068538E+03  0.12509000000E+03 0.  0.
         25    1    3    3    0    0  0.11085536343E+02 -0.10926901750E+03 -0.24346314263E+03  0.29493120761E+03  0.12509000000E+03 0.  0.
<mgrwt>
<rscale>  2 0.45431245E+03</rscale>
<asrwt>0</asrwt>
<pdfrwt beam="1">  1       21 0.11991383E-01 0.45431245E+03</pdfrwt>
<pdfrwt beam="2">  1       21 0.93059817E-01 0.45431245E+03</pdfrwt>
<totfact> 0.52413803E+04</totfact>
</mgrwt>
</event>
<event>
 7    0  0.4759581E-002  0.4577501E+03  0.7546771E-02  0.1025436E+00
         21   -1    0    0  502  501  0.00000000000E+00  0.00000000000E+00  0.68999389840E+03  0.68999389840E+03  0.00000000000E+00 0. -1.
         21   -1    0    0  501  502 -0.00000000000E+00 -0.00000000000E+00 -0.75919206459E+02  0.75919206459E+02  0.00000000000E+00 0. -1.
      99926    2    1    2    0    0 -0.39968028887E-14  0.14210854715E-13  0.61407469194E+03  0.76591310485E+03  0.45775010312E+03 0.  0.
      99925    2    3    3    0    0  0.38370565548E+01 -0.10003236188E+03  0.28858715826E+03  0.40313102274E+03  0.26307960231E+03 0.  0.
         25    1    4    4    0    0  0.34450950229E+02 -0.25526185964E+02  0.12425078085E+03  0.18145032043E+03  0.12509000000E+03 0.  0.
         25    1    4    4    0    0 -0.30613893674E+02 -0.74506175920E+02  0.16433637741E+03  0.22168070231E+03  0.12509000000E+03 0.  0.
         25    1    3    3    0    0 -0.38370565548E+01  0.10003236188E+03  0.32548753367E+03  0.36278208211E+03  0.12509000000E+03 0.  0.
<mgrwt>
<rscale>  2 0.45775010E+03</rscale>
<asrwt>0</asrwt>
<pdfrwt beam="1">  1       21 0.10146969E+00 0.45775010E+03</pdfrwt>
<pdfrwt beam="2">  1       21 0.11164590E-01 0.45775010E+03</pdfrwt>
<totfact> 0.48404051E+04</totfact>
</mgrwt>
</event>
<event>
 7    0  0.4759581E-002  0.4514241E+03  0.7546771E-02  0.1027298E+00
         21   -1    0    0  502  501  0.00000000000E+00  0.00000000000E+00  0.78133801292E+02  0.78133801292E+02  0.00000000000E+00 0. -1.
         21   -1    0    0  501  502 -0.00000000000E+00 -0.00000000000E+00 -0.65203453875E+03  0.65203453875E+03  0.00000000000E+00 0. -1.
      99926    2    1    2    0    0  0.17763568394E-14  0.00000000000E+00 -0.57390073746E+03  0.73016834004E+03  0.45142413354E+03 0.  0.
      99925    2    3    3    0    0  0.13351334519E+02  0.10888149704E+03 -0.36367409786E+03  0.46207099461E+03  0.26309183962E+03 0.  0.
         25    1    4    4    0    0  0.17867110197E+02  0.76270687844E+02 -0.13856629539E+03  0.20244648125E+03  0.12509000000E+03 0.  0.
         25    1    3    3    0    0 -0.13351334519E+02 -0.10888149704E+03 -0.21022663960E+03  0.26809734543E+03  0.12509000000E+03 0.  0.
         25    1    4    4    0    0 -0.45157756777E+01  0.32610809196E+02 -0.22510780246E+03  0.25962451336E+03  0.12509000000E+03 0.  0.
<mgrwt>
<rscale>  2 0.45142413E+03</rscale>
<asrwt>0</asrwt>
<pdfrwt beam="1">  1       21 0.11490265E-01 0.45142413E+03</pdfrwt>
<pdfrwt beam="2">  1       21 0.95887430E-01 0.45142413E+03</pdfrwt>
<totfact> 0.52763526E+04</totfact>
</mgrwt>
</event>
<event>
 7    0  0.4759581E-002  0.4533374E+03  0.7546771E-02  0.1026731E+00
         21   -1    0    0  502  501  0.00000000000E+00  0.00000000000E+00  0.25919526315E+03  0.25919526315E+03  0.00000000000E+00 0.  1.
         21   -1    0    0  501  502 -0.00000000000E+00 -0.00000000000E+00 -0.19822394374E+03  0.19822394374E+03  0.00000000000E+00 0.  1.
      99926    2    1    2    0    0 -0.35527136788E-14  0.00000000000E+00  0.60971319405E+02  0.45741920689E+03  0.45333743397E+03 0.  0.
      99925    2    3    3    0    0 -0.29125645566E+02  0.10059682281E+03  0.77263343881E+02  0.29346506040E+03  0.26302869307E+03 0.  0.
         25    1    4    4    0    0 -0.39839334622E+02  0.72734791909E+02  0.15748241132E+02  0.15090738132E+03  0.12509000000E+03 0.  0.
         25    1    4    4    0    0  0.10713689056E+02  0.27862030902E+02  0.61515102749E+02  0.14255767908E+03  0.12509000000E+03 0.  0.
         25    1    3    3    0    0  0.29125645566E+02 -0.10059682281E+03 -0.16292024476E+02  0.16395414649E+03  0.12509000000E+03 0.  0.
<mgrwt>
<rscale>  2 0.45333743E+03</rscale>
<asrwt>0</asrwt>
<pdfrwt beam="1">  1       21 0.38116951E-01 0.45333743E+03</pdfrwt>
<pdfrwt beam="2">  1       21 0.29150580E-01 0.45333743E+03</pdfrwt>
<totfact> 0.69283110E+04</totfact>
</mgrwt>
</event>
<event>
 7    0  0.4759581E-002  0.4544633E+03  0.7546771E-02  0.1026399E+00
         21   -1    0    0  502  501  0.00000000000E+00  0.00000000000E+00  0.55815704768E+02  0.55815704768E+02  0.00000000000E+00 0. -1.
         21   -1    0    0  501  502 -0.00000000000E+00 -0.00000000000E+00 -0.92508399571E+03  0.92508399571E+03  0.00000000000E+00 0. -1.
      99926    2    1    2    0    0 -0.14210854715E-13  0.00000000000E+00 -0.86926829094E+03  0.98089970048E+03  0.45446326668E+03 0.  0.
      99925    2    3    3    0    0  0.10478069765E+03  0.17937081350E+02 -0.62782730881E+03  0.68893739223E+03  0.26299594527E+03 0.  0.
         25    1    3    3    0    0 -0.10478069765E+03 -0.17937081350E+02 -0.24144098213E+03  0.29196230825E+03  0.12509000000E+03 0.  0.
         25    1    4    4    0    0  0.60191475734E+02  0.53082950897E+01 -0.22333353056E+03  0.26301438310E+03  0.12509000000E+03 0.  0.
         25    1    4    4    0    0  0.44589221920E+02  0.12628786260E+02 -0.40449377826E+03  0.42592300912E+03  0.12509000000E+03 0.  0.
<mgrwt>
<rscale>  2 0.45446327E+03</rscale>
<asrwt>0</asrwt>
<pdfrwt beam="1">  1       21 0.82081921E-02 0.45446327E+03</pdfrwt>
<pdfrwt beam="2">  1       21 0.13604176E+00 0.45446327E+03</pdfrwt>
<totfact> 0.40082017E+04</totfact>
</mgrwt>
</event>
<event>
 7    0  0.4759581E-002  0.4605523E+03  0.7546771E-02  0.1024621E+00
         21   -1    0    0  502  501  0.00000000000E+00  0.00000000000E+00  0.76119278692E+02  0.76119278692E+02  0.00000000000E+00 0. -1.
         21   -1    0    0  501  502 -0.00000000000E+00 -0.00000000000E+00 -0.69663163973E+03  0.69663163973E+03  0.00000000000E+00 0. -1.
      99926    2    1    2    0    0  0.00000000000E+00  0.00000000000E+00 -0.62051236104E+03  0.77275091842E+03  0.46055226818E+03 0.  0.
      99925    2    3    3    0    0  0.17218617449E+01  0.11627255368E+03 -0.42468111618E+03  0.51290547184E+03  0.26305075756E+03 0.  0.
         25    1    3    3    0    0 -0.17218617449E+01 -0.11627255368E+03 -0.19583124486E+03  0.25984544659E+03  0.12509000000E+03 0.  0.
         25    1    4    4    0    0 -0.11157135059E+02  0.47530827062E+02 -0.13885513988E+03  0.19316293422E+03  0.12509000000E+03 0.  0.
         25    1    4    4    0    0  0.12878996804E+02  0.68741726622E+02 -0.28582597630E+03  0.31974253762E+03  0.12509000000E+03 0.  0.
<mgrwt>
<rscale>  2 0.46055227E+03</rscale>
<asrwt>0</asrwt>
<pdfrwt beam="1">  1       21 0.11194011E-01 0.46055227E+03</pdfrwt>
<pdfrwt beam="2">  1       21 0.10244583E+00 0.46055227E+03</pdfrwt>
<totfact> 0.47027642E+04</totfact>
</mgrwt>
</event>
<event>
 7    0  0.4759581E-002  0.4696104E+03  0.7546771E-02  0.1022030E+00
         21   -1    0    0  502  501  0.00000000000E+00  0.00000000000E+00  0.10301028265E+03  0.10301028265E+03  0.00000000000E+00 0.  1.
         21   -1    0    0  501  502 -0.00000000000E+00 -0.00000000000E+00 -0.53522299113E+03  0.53522299113E+03  0.00000000000E+00 0.  1.
      99926    2    1    2    0    0 -0.71054273576E-14  0.71054273576E-14 -0.43221270848E+03  0.63823327377E+03  0.46961035591E+03 0.  0.
      99925    2    3    3    0    0  0.33923649126E+02 -0.61983544212E+02 -0.41069937416E+03  0.49296419456E+03  0.26333808585E+03 0.  0.
         25    1    4    4    0    0 -0.34491467066E+01 -0.66161598052E+02 -0.19893839500E+03  0.24415824126E+03  0.12509000000E+03 0.  0.
         25    1    3    3    0    0 -0.33923649126E+02  0.61983544212E+02 -0.21513334322E+02  0.14526907922E+03  0.12509000000E+03 0.  0.
         25    1    4    4    0    0  0.37372795833E+02  0.41780538400E+01 -0.21176097916E+03  0.24880595330E+03  0.12509000000E+03 0.  0.
<mgrwt>
<rscale>  2 0.46961036E+03</rscale>
<asrwt>0</asrwt>
<pdfrwt beam="1">  1       21 0.15148571E-01 0.46961036E+03</pdfrwt>
<pdfrwt beam="2">  1       21 0.78709264E-01 0.46961036E+03</pdfrwt>
<totfact> 0.50325150E+04</totfact>
</mgrwt>
</event>
<event>
 7    0  0.4759581E-002  0.4610844E+03  0.7546771E-02  0.1024467E+00
         21   -1    0    0  502  501  0.00000000000E+00  0.00000000000E+00  0.41446839919E+03  0.41446839919E+03  0.00000000000E+00 0. -1.
         21   -1    0    0  501  502 -0.00000000000E+00 -0.00000000000E+00 -0.12823582726E+03  0.12823582726E+03  0.00000000000E+00 0. -1.
      99926    2    1    2    0    0  0.00000000000E+00  0.00000000000E+00  0.28623257193E+03  0.54270422644E+03  0.46108436556E+03 0.  0.
      99925    2    3    3    0    0  0.32823188689E+02  0.10755044268E+03  0.22091193605E+03  0.36226378472E+03  0.26417514417E+03 0.  0.
         25    1    4    4    0    0 -0.16164514415E+02  0.22831890841E+02  0.93706434090E+02  0.15877969220E+03  0.12509000000E+03 0.  0.
         25    1    3    3    0    0 -0.32823188689E+02 -0.10755044268E+03  0.65320635882E+02  0.18044044172E+03  0.12509000000E+03 0.  0.
         25    1    4    4    0    0  0.48987703103E+02  0.84718551837E+02  0.12720550196E+03  0.20348409252E+03  0.12509000000E+03 0.  0.
<mgrwt>
<rscale>  2 0.46108437E+03</rscale>
<asrwt>0</asrwt>
<pdfrwt beam="1">  1       21 0.60951235E-01 0.46108437E+03</pdfrwt>
<pdfrwt beam="2">  1       21 0.18858210E-01 0.46108437E+03</pdfrwt>
<totfact> 0.59436694E+04</totfact>
</mgrwt>
</event>
<event>
 7    0  0.4759581E-002  0.4525202E+03  0.7546771E-02  0.1026973E+00
         21   -1    0    0  502  501  0.00000000000E+00  0.00000000000E+00  0.60341933896E+03  0.60341933896E+03  0.00000000000E+00 0. -1.
         21   -1    0    0  501  502 -0.00000000000E+00 -0.00000000000E+00 -0.84839231039E+02  0.84839231039E+02  0.00000000000E+00 0. -1.
      99926    2    1    2    0    0  0.00000000000E+00  0.00000000000E+00  0.51858010793E+03  0.68825857000E+03  0.45252019938E+03 0.  0.
      99925    2    3    3    0    0 -0.25306303236E+02 -0.71395553467E+02  0.45000596508E+03  0.52674183649E+03  0.26308527070E+03 0.  0.
         25    1    4    4    0    0 -0.44364856342E+01 -0.10828241735E+02  0.27461552531E+03  0.30199027809E+03  0.12509000000E+03 0.  0.
         25    1    3    3    0    0  0.25306303236E+02  0.71395553467E+02  0.68574142845E+02  0.16151673351E+03  0.12509000000E+03 0.  0.
         25    1    4    4    0    0 -0.20869817602E+02 -0.60567311732E+02  0.17539043977E+03  0.22475155840E+03  0.12509000000E+03 0.  0.
<mgrwt>
<rscale>  2 0.45252020E+03</rscale>
<asrwt>0</asrwt>
<pdfrwt beam="1">  1       21 0.88738136E-01 0.45252020E+03</pdfrwt>
<pdfrwt beam="2">  1       21 0.12476358E-01 0.45252020E+03</pdfrwt>
<totfact> 0.54603400E+04</totfact>
</mgrwt>
</event>
<event>
 7    0  0.4759581E-002  0.4763618E+03  0.7546771E-02  0.1020140E+00
         21   -1    0    0  502  501  0.00000000000E+00  0.00000000000E+00  0.21335849789E+03  0.21335849789E+03  0.00000000000E+00 0. -1.
         21   -1    0    0  501  502 -0.00000000000E+00 -0.00000000000E+00 -0.26589115324E+03  0.26589115324E+03  0.00000000000E+00 0. -1.
      99926    2    1    2    0    0  0.00000000000E+00  0.00000000000E+00 -0.52532655348E+02  0.47924965112E+03  0.47636178292E+03 0.  0.
      99925    2    3    3    0    0  0.78164740007E+02  0.71150547949E+02 -0.11232779310E+03  0.30490776387E+03  0.26301917100E+03 0.  0.
         25    1    4    4    0    0  0.99092899013E+01  0.17693251300E+02 -0.78271090527E+02  0.14894669140E+03  0.12509000000E+03 0.  0.
         25    1    3    3    0    0 -0.78164740007E+02 -0.71150547949E+02  0.59795137749E+02  0.17434188726E+03  0.12509000000E+03 0.  0.
         25    1    4    4    0    0  0.68255450105E+02  0.53457296649E+02 -0.34056702569E+02  0.15596107246E+03  0.12509000000E+03 0.  0.
<mgrwt>
<rscale>  2 0.47636178E+03</rscale>
<asrwt>0</asrwt>
<pdfrwt beam="1">  1       21 0.31376250E-01 0.47636178E+03</pdfrwt>
<pdfrwt beam="2">  1       21 0.39101640E-01 0.47636178E+03</pdfrwt>
<totfact> 0.56536578E+04</totfact>
</mgrwt>
</event>
<event>
 7    0  0.4759581E-002  0.4331727E+03  0.7546771E-02  0.1032862E+00
         21   -1    0    0  502  501  0.00000000000E+00  0.00000000000E+00  0.14848280415E+04  0.14848280415E+04  0.00000000000E+00 0.  1.
         21   -1    0    0  501  502 -0.00000000000E+00 -0.00000000000E+00 -0.31592641761E+02  0.31592641761E+02  0.00000000000E+00 0.  1.
      99926    2    1    2    0    0  0.00000000000E+00 -0.35527136788E-14  0.14532353998E+04  0.15164206833E+04  0.43317266946E+03 0.  0.
      99925    2    3    3    0    0 -0.62110262665E+02 -0.27626799237E+02  0.11456196673E+04  0.11774577476E+04  0.26332755396E+03 0.  0.
         25    1    3    3    0    0  0.62110262665E+02  0.27626799237E+02  0.30761573249E+03  0.33896293564E+03  0.12509000000E+03 0.  0.
         25    1    4    4    0    0 -0.18993621344E+02 -0.20616385718E+02  0.73181798022E+03  0.74296087197E+03  0.12509000000E+03 0.  0.
         25    1    4    4    0    0 -0.43116641321E+02 -0.70104135197E+01  0.41380168705E+03  0.43449687566E+03  0.12509000000E+03 0.  0.
<mgrwt>
<rscale>  2 0.43317267E+03</rscale>
<asrwt>0</asrwt>
<pdfrwt beam="1">  1       21 0.21835702E+00 0.43317267E+03</pdfrwt>
<pdfrwt beam="2">  1       21 0.46459777E-02 0.43317267E+03</pdfrwt>
<totfact> 0.27802931E+04</totfact>
</mgrwt>
</event>
<event>
 7    0  0.4759581E-002  0.4510742E+03  0.7546771E-02  0.1027402E+00
         21   -1    0    0  502  501  0.00000000000E+00  0.00000000000E+00  0.10019610772E+03  0.10019610772E+03  0.00000000000E+00 0. -1.
         21   -1    0    0  501  502 -0.00000000000E+00 -0.00000000000E+00 -0.50767416814E+03  0.50767416814E+03  0.00000000000E+00 0. -1.
      99926    2    1    2    0    0  0.00000000000E+00  0.00000000000E+00 -0.40747806042E+03  0.60787027585E+03  0.45107416523E+03 0.  0.
      99925    2    3    3    0    0 -0.92470796962E+02 -0.57209921616E+02 -0.27312050554E+03  0.39450841404E+03  0.26309362360E+03 0.  0.
         25    1    4    4    0    0 -0.56004952202E+02 -0.64749266483E+02 -0.12012932484E+03  0.19341040553E+03  0.12509000000E+03 0.  0.
         25    1    4    4    0    0 -0.36465844760E+02  0.75393448672E+01 -0.15299118069E+03  0.20109800851E+03  0.12509000000E+03 0.  0.
         25    1    3    3    0    0  0.92470796962E+02  0.57209921616E+02 -0.13435755488E+03  0.21336186181E+03  0.12509000000E+03 0.  0.
<mgrwt>
<rscale>  2 0.45107417E+03</rscale>
<asrwt>0</asrwt>
<pdfrwt beam="1">  1       21 0.14734722E-01 0.45107417E+03</pdfrwt>
<pdfrwt beam="2">  1       21 0.74657965E-01 0.45107417E+03</pdfrwt>
<totfact> 0.60036690E+04</totfact>
</mgrwt>
</event>
<event>
 7    0  0.4759581E-002  0.4519101E+03  0.7546771E-02  0.1027154E+00
         21   -1    0    0  502  501  0.00000000000E+00  0.00000000000E+00  0.49447056979E+03  0.49447056979E+03  0.00000000000E+00 0.  1.
         21   -1    0    0  501  502 -0.00000000000E+00 -0.00000000000E+00 -0.10325325401E+03  0.10325325401E+03  0.00000000000E+00 0.  1.
      99926    2    1    2    0    0 -0.88817841970E-15  0.00000000000E+00  0.39121731578E+03  0.59772382380E+03  0.45191014746E+03 0.  0.
      99925    2    3    3    0    0 -0.57776777281E+01 -0.96260512249E+02  0.17749858559E+03  0.33197455943E+03  0.26344238923E+03 0.  0.
         25    1    4    4    0    0  0.24930281676E+02 -0.59666002284E+02  0.12451688837E+03  0.18797211060E+03  0.12509000000E+03 0.  0.
         25    1    4    4    0    0 -0.30707959404E+02 -0.36594509965E+02  0.52981697219E+02  0.14400244884E+03  0.12509000000E+03 0.  0.
         25    1    3    3    0    0  0.57776777281E+01  0.96260512249E+02  0.21371873020E+03  0.26574926437E+03  0.12509000000E+03 0.  0.
<mgrwt>
<rscale>  2 0.45191015E+03</rscale>
<asrwt>0</asrwt>
<pdfrwt beam="1">  1       21 0.72716259E-01 0.45191015E+03</pdfrwt>
<pdfrwt beam="2">  1       21 0.15184302E-01 0.45191015E+03</pdfrwt>
<totfact> 0.60276823E+04</totfact>
</mgrwt>
</event>
<event>
 7    0  0.4759581E-002  0.4482776E+03  0.7546771E-02  0.1028237E+00
         21   -1    0    0  502  501  0.00000000000E+00  0.00000000000E+00  0.12334612931E+03  0.12334612931E+03  0.00000000000E+00 0.  1.
         21   -1    0    0  501  502 -0.00000000000E+00 -0.00000000000E+00 -0.40729446751E+03  0.40729446751E+03  0.00000000000E+00 0.  1.
      99926    2    1    2    0    0  0.00000000000E+00  0.17763568394E-14 -0.28394833820E+03  0.53064059682E+03  0.44827757498E+03 0.  0.
      99925    2    3    3    0    0  0.99131903649E+02 -0.88564955528E+01 -0.22507833239E+03  0.36029166809E+03  0.26314303820E+03 0.  0.
         25    1    3    3    0    0 -0.99131903649E+02  0.88564955528E+01 -0.58870005812E+02  0.17034892873E+03  0.12509000000E+03 0.  0.
         25    1    4    4    0    0  0.10636963596E+02 -0.17828362813E+02 -0.86466041339E+02  0.15347599135E+03  0.12509000000E+03 0.  0.
         25    1    4    4    0    0  0.88494940053E+02  0.89718672602E+01 -0.13861229105E+03  0.20681567675E+03  0.12509000000E+03 0.  0.
<mgrwt>
<rscale>  2 0.44827757E+03</rscale>
<asrwt>0</asrwt>
<pdfrwt beam="1">  1       21 0.18139137E-01 0.44827757E+03</pdfrwt>
<pdfrwt beam="2">  1       21 0.59896245E-01 0.44827757E+03</pdfrwt>
<totfact> 0.66640153E+04</totfact>
</mgrwt>
</event>
<event>
 7    0  0.4759581E-002  0.4633621E+03  0.7546771E-02  0.1023811E+00
         21   -1    0    0  502  501  0.00000000000E+00  0.00000000000E+00  0.42044041168E+03  0.42044041168E+03  0.00000000000E+00 0.  1.
         21   -1    0    0  501  502 -0.00000000000E+00 -0.00000000000E+00 -0.12766637533E+03  0.12766637533E+03  0.00000000000E+00 0.  1.
      99926    2    1    2    0    0  0.00000000000E+00  0.71054273576E-14  0.29277403635E+03  0.54810678700E+03  0.46336207613E+03 0.  0.
      99925    2    3    3    0    0  0.98694096985E+02 -0.63476180988E+02  0.14911659877E+03  0.32437766998E+03  0.26308812672E+03 0.  0.
         25    1    4    4    0    0  0.24577177972E+02  0.44382303167E+01  0.68535272635E+02  0.14480444489E+03  0.12509000000E+03 0.  0.
         25    1    4    4    0    0  0.74116919013E+02 -0.67914411305E+02  0.80581326139E+02  0.17957322509E+03  0.12509000000E+03 0.  0.
         25    1    3    3    0    0 -0.98694096985E+02  0.63476180988E+02  0.14365743758E+03  0.22372911702E+03  0.12509000000E+03 0.  0.
<mgrwt>
<rscale>  2 0.46336208E+03</rscale>
<asrwt>0</asrwt>
<pdfrwt beam="1">  1       21 0.61829472E-01 0.46336208E+03</pdfrwt>
<pdfrwt beam="2">  1       21 0.18774467E-01 0.46336208E+03</pdfrwt>
<totfact> 0.58054063E+04</totfact>
</mgrwt>
</event>
<event>
 7    0  0.4759581E-002  0.4565503E+03  0.7546771E-02  0.1025786E+00
         21   -1    0    0  502  501  0.00000000000E+00  0.00000000000E+00  0.16702119973E+02  0.16702119973E+02  0.00000000000E+00 0.  1.
         21   -1    0    0  501  502 -0.00000000000E+00 -0.00000000000E+00 -0.31199363340E+04  0.31199363340E+04  0.00000000000E+00 0.  1.
      99926    2    1    2    0    0  0.00000000000E+00 -0.14210854715E-13 -0.31032342140E+04  0.31366384540E+04  0.45655033001E+03 0.  0.
      99925    2    3    3    0    0  0.29240861889E+02  0.10384458610E+03 -0.16858672512E+04  0.17096782788E+04  0.26308307115E+03 0.  0.
         25    1    4    4    0    0  0.42832148879E+02  0.21700476838E+02 -0.81604128787E+03  0.82696819484E+03  0.12509000000E+03 0.  0.
         25    1    4    4    0    0 -0.13591286990E+02  0.82144109257E+02 -0.86982596333E+03  0.88271008397E+03  0.12509000000E+03 0.  0.
         25    1    3    3    0    0 -0.29240861889E+02 -0.10384458610E+03 -0.14173669628E+04  0.14269601752E+04  0.12509000000E+03 0.  0.
<mgrwt>
<rscale>  2 0.45655033E+03</rscale>
<asrwt>0</asrwt>
<pdfrwt beam="1">  1       21 0.24561912E-02 0.45655033E+03</pdfrwt>
<pdfrwt beam="2">  1       21 0.45881472E+00 0.45655033E+03</pdfrwt>
<totfact> 0.25254531E+03</totfact>
</mgrwt>
</event>
<event>
 7    0  0.4759581E-002  0.4541576E+03  0.7546771E-02  0.1026489E+00
         21   -1    0    0  502  501  0.00000000000E+00  0.00000000000E+00  0.30984014957E+03  0.30984014957E+03  0.00000000000E+00 0. -1.
         21   -1    0    0  501  502 -0.00000000000E+00 -0.00000000000E+00 -0.16642383040E+03  0.16642383040E+03  0.00000000000E+00 0. -1.
      99926    2    1    2    0    0  0.00000000000E+00  0.00000000000E+00  0.14341631917E+03  0.47626397996E+03  0.45415761362E+03 0.  0.
      99925    2    3    3    0    0 -0.10002247882E+02  0.78124208608E+02  0.17460504725E+03  0.32518889336E+03  0.26278785532E+03 0.  0.
         25    1    4    4    0    0 -0.48828356495E+01  0.16860008743E+02  0.42835235112E+02  0.13338091110E+03  0.12509000000E+03 0.  0.
         25    1    3    3    0    0  0.10002247882E+02 -0.78124208608E+02 -0.31188728083E+02  0.15107508660E+03  0.12509000000E+03 0.  0.
         25    1    4    4    0    0 -0.51194122320E+01  0.61264199865E+02  0.13176981214E+03  0.19180798226E+03  0.12509000000E+03 0.  0.
<mgrwt>
<rscale>  2 0.45415761E+03</rscale>
<asrwt>0</asrwt>
<pdfrwt beam="1">  1       21 0.45564728E-01 0.45415761E+03</pdfrwt>
<pdfrwt beam="2">  1       21 0.24474092E-01 0.45415761E+03</pdfrwt>
<totfact> 0.67422706E+04</totfact>
</mgrwt>
</event>
<event>
 7    0  0.4759581E-002  0.4627320E+03  0.7546771E-02  0.1023992E+00
         21   -1    0    0  502  501  0.00000000000E+00  0.00000000000E+00  0.17061248473E+03  0.17061248473E+03  0.00000000000E+00 0. -1.
         21   -1    0    0  501  502 -0.00000000000E+00 -0.00000000000E+00 -0.31375332128E+03  0.31375332128E+03  0.00000000000E+00 0. -1.
      99926    2    1    2    0    0  0.00000000000E+00 -0.35527136788E-14 -0.14314083655E+03  0.48436580600E+03  0.46273203362E+03 0.  0.
      99925    2    3    3    0    0  0.96262290092E+01  0.10996038753E+02  0.35524993479E+02  0.26577357358E+03  0.26298287036E+03 0.  0.
         25    1    4    4    0    0  0.29165173342E+02  0.30365976512E+02  0.39062494303E+02  0.13764478351E+03  0.12509000000E+03 0.  0.
         25    1    4    4    0    0 -0.19538944333E+02 -0.19369937759E+02 -0.35375008243E+01  0.12812879008E+03  0.12509000000E+03 0.  0.
         25    1    3    3    0    0 -0.96262290092E+01 -0.10996038753E+02 -0.17866583003E+03  0.21859223242E+03  0.12509000000E+03 0.  0.
<mgrwt>
<rscale>  2 0.46273203E+03</rscale>
<asrwt>0</asrwt>
<pdfrwt beam="1">  1       21 0.25090072E-01 0.46273203E+03</pdfrwt>
<pdfrwt beam="2">  1       21 0.46140193E-01 0.46273203E+03</pdfrwt>
<totfact> 0.62461347E+04</totfact>
</mgrwt>
</event>
<event>
 7    0  0.4759581E-002  0.4528838E+03  0.7546771E-02  0.1026866E+00
         21   -1    0    0  502  501  0.00000000000E+00  0.00000000000E+00  0.28765068879E+03  0.28765068879E+03  0.00000000000E+00 0. -1.
         21   -1    0    0  501  502 -0.00000000000E+00 -0.00000000000E+00 -0.17825763863E+03  0.17825763863E+03  0.00000000000E+00 0. -1.
      99926    2    1    2    0    0  0.00000000000E+00  0.00000000000E+00  0.10939305016E+03  0.46590832742E+03  0.45288379319E+03 0.  0.
      99925    2    3    3    0    0 -0.96629265834E+02  0.42690487953E+02  0.10454900932E+03  0.30210763875E+03  0.26301870136E+03 0.  0.
         25    1    4    4    0    0 -0.13698311858E+02  0.16958480923E+02  0.73456814672E+02  0.14669234999E+03  0.12509000000E+03 0.  0.
         25    1    3    3    0    0  0.96629265834E+02 -0.42690487953E+02  0.48440408366E+01  0.16380068867E+03  0.12509000000E+03 0.  0.
         25    1    4    4    0    0 -0.82930953977E+02  0.25732007030E+02  0.31092194650E+02  0.15541528876E+03  0.12509000000E+03 0.  0.
<mgrwt>
<rscale>  2 0.45288379E+03</rscale>
<asrwt>0</asrwt>
<pdfrwt beam="1">  1       21 0.42301572E-01 0.45288379E+03</pdfrwt>
<pdfrwt beam="2">  1       21 0.26214359E-01 0.45288379E+03</pdfrwt>
<totfact> 0.68890578E+04</totfact>
</mgrwt>
</event>
<event>
 7    0  0.4759581E-002  0.4500853E+03  0.7546771E-02  0.1027697E+00
         21   -1    0    0  502  501  0.00000000000E+00  0.00000000000E+00  0.10495111173E+03  0.10495111173E+03  0.00000000000E+00 0. -1.
         21   -1    0    0  501  502 -0.00000000000E+00 -0.00000000000E+00 -0.48255037824E+03  0.48255037824E+03  0.00000000000E+00 0. -1.
      99926    2    1    2    0    0  0.00000000000E+00 -0.35527136788E-14 -0.37759926651E+03  0.58750148997E+03  0.45008531930E+03 0.  0.
      99925    2    3    3    0    0 -0.10555300432E+03  0.25030307280E+02 -0.23598377924E+03  0.36962444359E+03  0.26299416768E+03 0.  0.
         25    1    4    4    0    0 -0.69050761708E+02  0.47482034276E+02 -0.14566035441E+03  0.20949223904E+03  0.12509000000E+03 0.  0.
         25    1    3    3    0    0  0.10555300432E+03 -0.25030307280E+02 -0.14161548727E+03  0.21787704638E+03  0.12509000000E+03 0.  0.
         25    1    4    4    0    0 -0.36502242615E+02 -0.22451726996E+02 -0.90323424824E+02  0.16013220455E+03  0.12509000000E+03 0.  0.
<mgrwt>
<rscale>  2 0.45008532E+03</rscale>
<asrwt>0</asrwt>
<pdfrwt beam="1">  1       21 0.15433987E-01 0.45008532E+03</pdfrwt>
<pdfrwt beam="2">  1       21 0.70963291E-01 0.45008532E+03</pdfrwt>
<totfact> 0.61820931E+04</totfact>
</mgrwt>
</event>
<event>
 7    0  0.4759581E-002  0.4614122E+03  0.7546771E-02  0.1024372E+00
         21   -1    0    0  502  501  0.00000000000E+00  0.00000000000E+00  0.38397730871E+03  0.38397730871E+03  0.00000000000E+00 0. -1.
         21   -1    0    0  501  502 -0.00000000000E+00 -0.00000000000E+00 -0.13861577827E+03  0.13861577827E+03  0.00000000000E+00 0. -1.
      99926    2    1    2    0    0  0.00000000000E+00  0.00000000000E+00  0.24536153044E+03  0.52259308699E+03  0.46141223862E+03 0.  0.
      99925    2    3    3    0    0 -0.44313103489E+02 -0.17861636565E+02  0.30006999874E+02  0.26900331760E+03  0.26302029511E+03 0.  0.
         25    1    4    4    0    0 -0.45722023206E+02 -0.29880414752E+02  0.41865693214E+02  0.14277109988E+03  0.12509000000E+03 0.  0.
         25    1    3    3    0    0  0.44313103489E+02  0.17861636565E+02  0.21535453057E+03  0.25358976939E+03  0.12509000000E+03 0.  0.
         25    1    4    4    0    0  0.14089197167E+01  0.12018778187E+02 -0.11858693340E+02  0.12623221772E+03  0.12509000000E+03 0.  0.
<mgrwt>
<rscale>  2 0.46141224E+03</rscale>
<asrwt>0</asrwt>
<pdfrwt beam="1">  1       21 0.56467251E-01 0.46141224E+03</pdfrwt>
<pdfrwt beam="2">  1       21 0.20384673E-01 0.46141224E+03</pdfrwt>
<totfact> 0.60570238E+04</totfact>
</mgrwt>
</event>
<event>
 7    0  0.4759581E-002  0.4563305E+03  0.7546771E-02  0.1025851E+00
         21   -1    0    0  502  501  0.00000000000E+00  0.00000000000E+00  0.52795924732E+03  0.52795924732E+03  0.00000000000E+00 0. -1.
         21   -1    0    0  501  502 -0.00000000000E+00 -0.00000000000E+00 -0.98604932106E+02  0.98604932106E+02  0.00000000000E+00 0. -1.
      99926    2    1    2    0    0  0.17763568394E-14 -0.17763568394E-14  0.42935431522E+03  0.62656417943E+03  0.45633051941E+03 0.  0.
      99925    2    3    3    0    0  0.66861681823E+01  0.11192581941E+02  0.11388990283E+03  0.28695369326E+03  0.26306184324E+03 0.  0.
         25    1    3    3    0    0 -0.66861681823E+01 -0.11192581941E+02  0.31546441239E+03  0.33961048617E+03  0.12509000000E+03 0.  0.
         25    1    4    4    0    0 -0.87758947092E+01 -0.28912605439E+02  0.75614940911E+02  0.14925844187E+03  0.12509000000E+03 0.  0.
         25    1    4    4    0    0  0.15462062892E+02  0.40105187379E+02  0.38274961918E+02  0.13769525138E+03  0.12509000000E+03 0.  0.
<mgrwt>
<rscale>  2 0.45633052E+03</rscale>
<asrwt>0</asrwt>
<pdfrwt beam="1">  1       21 0.77641065E-01 0.45633052E+03</pdfrwt>
<pdfrwt beam="2">  1       21 0.14500726E-01 0.45633052E+03</pdfrwt>
<totfact> 0.56476657E+04</totfact>
</mgrwt>
</event>
<event>
 7    0  0.4759581E-002  0.4563591E+03  0.7546771E-02  0.1025842E+00
         21   -1    0    0  502  501  0.00000000000E+00  0.00000000000E+00  0.10782257012E+03  0.10782257012E+03  0.00000000000E+00 0. -1.
         21   -1    0    0  501  502 -0.00000000000E+00 -0.00000000000E+00 -0.48288501227E+03  0.48288501227E+03  0.00000000000E+00 0. -1.
      99926    2    1    2    0    0  0.17763568394E-14  0.14210854715E-13 -0.37506244215E+03  0.59070758240E+03  0.45635908273E+03 0.  0.
      99925    2    3    3    0    0 -0.14023176429E+02  0.10866533174E+03 -0.27860153292E+03  0.39846549827E+03  0.26296603463E+03 0.  0.
         25    1    4    4    0    0  0.23682718110E+02  0.25039365981E+02 -0.12825104652E+03  0.18243815396E+03  0.12509000000E+03 0.  0.
         25    1    3    3    0    0  0.14023176429E+02 -0.10866533174E+03 -0.96460909227E+02  0.19224208412E+03  0.12509000000E+03 0.  0.
         25    1    4    4    0    0 -0.37705894539E+02  0.83625965755E+02 -0.15035048641E+03  0.21602734432E+03  0.12509000000E+03 0.  0.
<mgrwt>
<rscale>  2 0.45635908E+03</rscale>
<asrwt>0</asrwt>
<pdfrwt beam="1">  1       21 0.15856261E-01 0.45635908E+03</pdfrwt>
<pdfrwt beam="2">  1       21 0.71012501E-01 0.45635908E+03</pdfrwt>
<totfact> 0.58621695E+04</totfact>
</mgrwt>
</event>
<event>
 7    0  0.4759581E-002  0.4610511E+03  0.7546771E-02  0.1024477E+00
         21   -1    0    0  502  501  0.00000000000E+00  0.00000000000E+00  0.81073123080E+03  0.81073123080E+03  0.00000000000E+00 0. -1.
         21   -1    0    0  501  502 -0.00000000000E+00 -0.00000000000E+00 -0.65548259406E+02  0.65548259406E+02  0.00000000000E+00 0. -1.
      99926    2    1    2    0    0  0.00000000000E+00  0.00000000000E+00  0.74518297139E+03  0.87627949020E+03  0.46105106452E+03 0.  0.
      99925    2    3    3    0    0 -0.27099049289E+02  0.39998721975E+02  0.67259951136E+03  0.72379958005E+03  0.26298569002E+03 0.  0.
         25    1    4    4    0    0 -0.19978808576E+02  0.60487540573E+02  0.36045404560E+03  0.38682363223E+03  0.12509000000E+03 0.  0.
         25    1    4    4    0    0 -0.71202407128E+01 -0.20488818597E+02  0.31214546576E+03  0.33697594782E+03  0.12509000000E+03 0.  0.
         25    1    3    3    0    0  0.27099049289E+02 -0.39998721975E+02  0.72583460031E+02  0.15247991016E+03  0.12509000000E+03 0.  0.
<mgrwt>
<rscale>  2 0.46105106E+03</rscale>
<asrwt>0</asrwt>
<pdfrwt beam="1">  1       21 0.11922518E+00 0.46105106E+03</pdfrwt>
<pdfrwt beam="2">  1       21 0.96394504E-02 0.46105106E+03</pdfrwt>
<totfact> 0.42237509E+04</totfact>
</mgrwt>
</event>
<event>
 7    0  0.4759581E-002  0.4507691E+03  0.7546771E-02  0.1027493E+00
         21   -1    0    0  502  501  0.00000000000E+00  0.00000000000E+00  0.17514444228E+04  0.17514444228E+04  0.00000000000E+00 0. -1.
         21   -1    0    0  501  502 -0.00000000000E+00 -0.00000000000E+00 -0.29003601154E+02  0.29003601154E+02  0.00000000000E+00 0. -1.
      99926    2    1    2    0    0  0.00000000000E+00 -0.71054273576E-14  0.17224408216E+04  0.17804480239E+04  0.45076910046E+03 0.  0.
      99925    2    3    3    0    0  0.83531711922E+02 -0.62268975949E+02  0.12180585297E+04  0.12504442723E+04  0.26284848113E+03 0.  0.
         25    1    3    3    0    0 -0.83531711922E+02  0.62268975949E+02  0.50438229191E+03  0.53000375164E+03  0.12509000000E+03 0.  0.
         25    1    4    4    0    0  0.31791377816E+02 -0.24427035230E+02  0.76124974731E+03  0.77249987549E+03  0.12509000000E+03 0.  0.
         25    1    4    4    0    0  0.51740334105E+02 -0.37841940718E+02  0.45680878240E+03  0.47794439679E+03  0.12509000000E+03 0.  0.
<mgrwt>
<rscale>  2 0.45076910E+03</rscale>
<asrwt>0</asrwt>
<pdfrwt beam="1">  1       21 0.25756528E+00 0.45076910E+03</pdfrwt>
<pdfrwt beam="2">  1       21 0.42652367E-02 0.45076910E+03</pdfrwt>
<totfact> 0.18229653E+04</totfact>
</mgrwt>
</event>
<event>
 7    0  0.4759581E-002  0.4522390E+03  0.7546771E-02  0.1027056E+00
         21   -1    0    0  502  501  0.00000000000E+00  0.00000000000E+00  0.47540844949E+03  0.47540844949E+03  0.00000000000E+00 0.  1.
         21   -1    0    0  501  502 -0.00000000000E+00 -0.00000000000E+00 -0.10754970727E+03  0.10754970727E+03  0.00000000000E+00 0.  1.
      99926    2    1    2    0    0  0.14210854715E-13  0.14210854715E-13  0.36785874222E+03  0.58295815676E+03  0.45223904996E+03 0.  0.
      99925    2    3    3    0    0  0.67487180352E+02  0.82147204821E+02  0.27097903825E+03  0.39233846231E+03  0.26305350609E+03 0.  0.
         25    1    4    4    0    0  0.68996829154E+02  0.66389345647E+02  0.15586575916E+03  0.22160719895E+03  0.12509000000E+03 0.  0.
         25    1    4    4    0    0 -0.15096488020E+01  0.15757859174E+02  0.11511327909E+03  0.17073126336E+03  0.12509000000E+03 0.  0.
         25    1    3    3    0    0 -0.67487180352E+02 -0.82147204821E+02  0.96879703972E+02  0.19061969445E+03  0.12509000000E+03 0.  0.
<mgrwt>
<rscale>  2 0.45223905E+03</rscale>
<asrwt>0</asrwt>
<pdfrwt beam="1">  1       21 0.69913006E-01 0.45223905E+03</pdfrwt>
<pdfrwt beam="2">  1       21 0.15816134E-01 0.45223905E+03</pdfrwt>
<totfact> 0.61061504E+04</totfact>
</mgrwt>
</event>
<event>
 7    0  0.4759581E-002  0.4552240E+03  0.7546771E-02  0.1026176E+00
         21   -1    0    0  502  501  0.00000000000E+00  0.00000000000E+00  0.20240819142E+03  0.20240819142E+03  0.00000000000E+00 0. -1.
         21   -1    0    0  501  502 -0.00000000000E+00 -0.00000000000E+00 -0.25595422687E+03  0.25595422687E+03  0.00000000000E+00 0. -1.
      99926    2    1    2    0    0  0.00000000000E+00 -0.14210854715E-13 -0.53546035444E+02  0.45836241829E+03  0.45522404219E+03 0.  0.
      99925    2    3    3    0    0  0.73740886900E+02 -0.76169231260E+02 -0.74069075226E+02  0.29311056972E+03  0.26303632446E+03 0.  0.
         25    1    4    4    0    0  0.45957514978E+01 -0.53892086942E+02 -0.55970880218E+02  0.14732863096E+03  0.12509000000E+03 0.  0.
         25    1    4    4    0    0  0.69145135402E+02 -0.22277144319E+02 -0.18098195008E+02  0.14578193877E+03  0.12509000000E+03 0.  0.
         25    1    3    3    0    0 -0.73740886900E+02  0.76169231260E+02  0.20523039783E+02  0.16525184856E+03  0.12509000000E+03 0.  0.
<mgrwt>
<rscale>  2 0.45522404E+03</rscale>
<asrwt>0</asrwt>
<pdfrwt beam="1">  1       21 0.29765911E-01 0.45522404E+03</pdfrwt>
<pdfrwt beam="2">  1       21 0.37640327E-01 0.45522404E+03</pdfrwt>
<totfact> 0.68178112E+04</totfact>
</mgrwt>
</event>
<event>
 7    0  0.4759581E-002  0.4555731E+03  0.7546771E-02  0.1026073E+00
         21   -1    0    0  502  501  0.00000000000E+00  0.00000000000E+00  0.22866939067E+02  0.22866939067E+02  0.00000000000E+00 0. -1.
         21   -1    0    0  501  502 -0.00000000000E+00 -0.00000000000E+00 -0.22690707679E+04  0.22690707679E+04  0.00000000000E+00 0. -1.
      99926    2    1    2    0    0  0.00000000000E+00  0.00000000000E+00 -0.22462038289E+04  0.22919377070E+04  0.45557305885E+03 0.  0.
      99925    2    3    3    0    0  0.33847884868E+02  0.10817451415E+03 -0.13779709503E+04  0.14074473201E+04  0.26316651466E+03 0.  0.
         25    1    3    3    0    0 -0.33847884868E+02 -0.10817451415E+03 -0.86823287863E+03  0.88449038686E+03  0.12509000000E+03 0.  0.
         25    1    4    4    0    0  0.70902916791E+00  0.21275222327E+02 -0.50694585814E+03  0.52258468117E+03  0.12509000000E+03 0.  0.
         25    1    4    4    0    0  0.33138855700E+02  0.86899291824E+02 -0.87102509211E+03  0.88486263898E+03  0.12509000000E+03 0.  0.
<mgrwt>
<rscale>  2 0.45557306E+03</rscale>
<asrwt>0</asrwt>
<pdfrwt beam="1">  1       21 0.33627841E-02 0.45557306E+03</pdfrwt>
<pdfrwt beam="2">  1       21 0.33368698E+00 0.45557306E+03</pdfrwt>
<totfact> 0.94598741E+03</totfact>
</mgrwt>
</event>
<event>
 7    0  0.4759581E-002  0.4694067E+03  0.7546771E-02  0.1022088E+00
         21   -1    0    0  502  501  0.00000000000E+00  0.00000000000E+00  0.59282175296E+03  0.59282175296E+03  0.00000000000E+00 0.  1.
         21   -1    0    0  501  502 -0.00000000000E+00 -0.00000000000E+00 -0.92921133756E+02  0.92921133756E+02  0.00000000000E+00 0.  1.
      99926    2    1    2    0    0  0.00000000000E+00  0.14210854715E-13  0.49990061921E+03  0.68574288672E+03  0.46940672940E+03 0.  0.
      99925    2    3    3    0    0 -0.49587258677E+02  0.11551997042E+03  0.32323557179E+03  0.43541948217E+03  0.26325867657E+03 0.  0.
         25    1    4    4    0    0 -0.32050646830E+02  0.98915357908E+02  0.20414586482E+03  0.26102592632E+03  0.12509000000E+03 0.  0.
         25    1    4    4    0    0 -0.17536611848E+02  0.16604612508E+02  0.11908970698E+03  0.17439355584E+03  0.12509000000E+03 0.  0.
         25    1    3    3    0    0  0.49587258677E+02 -0.11551997042E+03  0.17666504741E+03  0.25032340455E+03  0.12509000000E+03 0.  0.
<mgrwt>
<rscale>  2 0.46940673E+03</rscale>
<asrwt>0</asrwt>
<pdfrwt beam="1">  1       21 0.87179668E-01 0.46940673E+03</pdfrwt>
<pdfrwt beam="2">  1       21 0.13664873E-01 0.46940673E+03</pdfrwt>
<totfact> 0.47999414E+04</totfact>
</mgrwt>
</event>
<event>
 7    0  0.4759581E-002  0.4514477E+03  0.7546771E-02  0.1027291E+00
         21   -1    0    0  502  501  0.00000000000E+00  0.00000000000E+00  0.13759519383E+03  0.13759519383E+03  0.00000000000E+00 0. -1.
         21   -1    0    0  501  502 -0.00000000000E+00 -0.00000000000E+00 -0.37029828447E+03  0.37029828447E+03  0.00000000000E+00 0. -1.
      99926    2    1    2    0    0  0.00000000000E+00  0.00000000000E+00 -0.23270309063E+03  0.50789347830E+03  0.45144773441E+03 0.  0.
      99925    2    3    3    0    0 -0.76021260774E+02  0.65800207422E+02 -0.19656131174E+03  0.34338622718E+03  0.26299971932E+03 0.  0.
         25    1    4    4    0    0  0.24278033338E+01  0.36564126610E+02 -0.10328357346E+03  0.16630644675E+03  0.12509000000E+03 0.  0.
         25    1    3    3    0    0  0.76021260774E+02 -0.65800207422E+02 -0.36141778897E+02  0.16450725111E+03  0.12509000000E+03 0.  0.
         25    1    4    4    0    0 -0.78449064107E+02  0.29236080812E+02 -0.93277738277E+02  0.17707978043E+03  0.12509000000E+03 0.  0.
<mgrwt>
<rscale>  2 0.45144773E+03</rscale>
<asrwt>0</asrwt>
<pdfrwt beam="1">  1       21 0.20234587E-01 0.45144773E+03</pdfrwt>
<pdfrwt beam="2">  1       21 0.54455630E-01 0.45144773E+03</pdfrwt>
<totfact> 0.66576820E+04</totfact>
</mgrwt>
</event>
<event>
 7    0  0.4759581E-002  0.4548046E+03  0.7546771E-02  0.1026299E+00
         21   -1    0    0  502  501  0.00000000000E+00  0.00000000000E+00  0.36554285104E+02  0.36554285104E+02  0.00000000000E+00 0.  1.
         21   -1    0    0  501  502 -0.00000000000E+00 -0.00000000000E+00 -0.14146575641E+04  0.14146575641E+04  0.00000000000E+00 0.  1.
      99926    2    1    2    0    0  0.74940054162E-15  0.71054273576E-14 -0.13781032790E+04  0.14512118492E+04  0.45480455548E+03 0.  0.
      99925    2    3    3    0    0  0.17582534267E+00  0.41188296900E+02 -0.53132008037E+03  0.59424872264E+03  0.26293347037E+03 0.  0.
         25    1    4    4    0    0 -0.23527722909E+02  0.44326346292E+02 -0.22163244155E+03  0.25939704310E+03  0.12509000000E+03 0.  0.
         25    1    3    3    0    0 -0.17582534267E+00 -0.41188296900E+02 -0.84678319861E+03  0.85696312654E+03  0.12509000000E+03 0.  0.
         25    1    4    4    0    0  0.23703548251E+02 -0.31380493913E+01 -0.30968763882E+03  0.33485167954E+03  0.12509000000E+03 0.  0.
<mgrwt>
<rscale>  2 0.45480456E+03</rscale>
<asrwt>0</asrwt>
<pdfrwt beam="1">  1       21 0.53756309E-02 0.45480456E+03</pdfrwt>
<pdfrwt beam="2">  1       21 0.20803785E+00 0.45480456E+03</pdfrwt>
<totfact> 0.25036650E+04</totfact>
</mgrwt>
</event>
<event>
 7    0  0.4759581E-002  0.4464780E+03  0.7546771E-02  0.1028778E+00
         21   -1    0    0  502  501  0.00000000000E+00  0.00000000000E+00  0.26808224684E+03  0.26808224684E+03  0.00000000000E+00 0. -1.
         21   -1    0    0  501  502 -0.00000000000E+00 -0.00000000000E+00 -0.18589690999E+03  0.18589690999E+03  0.00000000000E+00 0. -1.
      99926    2    1    2    0    0  0.00000000000E+00  0.35527136788E-14  0.82185336850E+02  0.45397915683E+03  0.44647804565E+03 0.  0.
      99925    2    3    3    0    0 -0.54991011313E+02  0.24856347208E+02  0.13946464174E+03  0.30374508549E+03  0.26299969837E+03 0.  0.
         25    1    3    3    0    0  0.54991011313E+02 -0.24856347208E+02 -0.57279304895E+02  0.15023407134E+03  0.12509000000E+03 0.  0.
         25    1    4    4    0    0 -0.39198126428E+02  0.50297250582E+02  0.61059904488E+02  0.15310821849E+03  0.12509000000E+03 0.  0.
         25    1    4    4    0    0 -0.15792884884E+02 -0.25440903375E+02  0.78404737257E+02  0.15063686701E+03  0.12509000000E+03 0.  0.
<mgrwt>
<rscale>  2 0.44647805E+03</rscale>
<asrwt>0</asrwt>
<pdfrwt beam="1">  1       21 0.39423860E-01 0.44647805E+03</pdfrwt>
<pdfrwt beam="2">  1       21 0.27337781E-01 0.44647805E+03</pdfrwt>
<totfact> 0.73489839E+04</totfact>
</mgrwt>
</event>
<event>
 7    0  0.4759581E-002  0.4514581E+03  0.7546771E-02  0.1027288E+00
         21   -1    0    0  502  501  0.00000000000E+00  0.00000000000E+00  0.67526286907E+03  0.67526286907E+03  0.00000000000E+00 0.  1.
         21   -1    0    0  501  502 -0.00000000000E+00 -0.00000000000E+00 -0.75457436737E+02  0.75457436737E+02  0.00000000000E+00 0.  1.
      99926    2    1    2    0    0  0.00000000000E+00 -0.88817841970E-15  0.59980543234E+03  0.75072030581E+03  0.45145810536E+03 0.  0.
      99925    2    3    3    0    0  0.10427913017E+03  0.57726820001E+01  0.32218453306E+03  0.42880675738E+03  0.26299220708E+03 0.  0.
         25    1    4    4    0    0  0.92244981497E+02  0.19079400707E+02  0.18006597395E+03  0.23863030658E+03  0.12509000000E+03 0.  0.
         25    1    3    3    0    0 -0.10427913017E+03 -0.57726820001E+01  0.27762089928E+03  0.32191354843E+03  0.12509000000E+03 0.  0.
         25    1    4    4    0    0  0.12034148673E+02 -0.13306718707E+02  0.14211855910E+03  0.19017645080E+03  0.12509000000E+03 0.  0.
<mgrwt>
<rscale>  2 0.45145811E+03</rscale>
<asrwt>0</asrwt>
<pdfrwt beam="1">  1       21 0.99303360E-01 0.45145811E+03</pdfrwt>
<pdfrwt beam="2">  1       21 0.11096682E-01 0.45145811E+03</pdfrwt>
<totfact> 0.51657203E+04</totfact>
</mgrwt>
</event>
<event>
 7    0  0.4759581E-002  0.4460759E+03  0.7546771E-02  0.1028899E+00
         21   -1    0    0  502  501  0.00000000000E+00  0.00000000000E+00  0.72882934181E+02  0.72882934181E+02  0.00000000000E+00 0. -1.
         21   -1    0    0  501  502 -0.00000000000E+00 -0.00000000000E+00 -0.68254560142E+03  0.68254560142E+03  0.00000000000E+00 0. -1.
      99926    2    1    2    0    0  0.00000000000E+00 -0.14210854715E-13 -0.60966266724E+03  0.75542853560E+03  0.44607589553E+03 0.  0.
      99925    2    3    3    0    0  0.25747678205E+02  0.10081914674E+03 -0.36813796946E+03  0.46420846243E+03  0.26293818427E+03 0.  0.
         25    1    4    4    0    0  0.49391209437E+02  0.70275419484E+02 -0.20434000311E+03  0.25452008001E+03  0.12509000000E+03 0.  0.
         25    1    4    4    0    0 -0.23643531233E+02  0.30543727255E+02 -0.16379796635E+03  0.20968838242E+03  0.12509000000E+03 0.  0.
         25    1    3    3    0    0 -0.25747678205E+02 -0.10081914674E+03 -0.24152469778E+03  0.29122007317E+03  0.12509000000E+03 0.  0.
<mgrwt>
<rscale>  2 0.44607590E+03</rscale>
<asrwt>0</asrwt>
<pdfrwt beam="1">  1       21 0.10718078E-01 0.44607590E+03</pdfrwt>
<pdfrwt beam="2">  1       21 0.10037436E+00 0.44607590E+03</pdfrwt>
<totfact> 0.53657713E+04</totfact>
</mgrwt>
</event>
<event>
 7    0  0.4759581E-002  0.4518866E+03  0.7546771E-02  0.1027161E+00
         21   -1    0    0  502  501  0.00000000000E+00  0.00000000000E+00  0.16220248068E+04  0.16220248068E+04  0.00000000000E+00 0. -1.
         21   -1    0    0  501  502 -0.00000000000E+00 -0.00000000000E+00 -0.31473245390E+02  0.31473245390E+02  0.00000000000E+00 0. -1.
      99926    2    1    2    0    0 -0.14210854715E-13  0.35527136788E-14  0.15905515614E+04  0.16534980522E+04  0.45188664408E+03 0.  0.
      99925    2    3    3    0    0 -0.87710820455E+02  0.30428043933E+02  0.78605880390E+03  0.83406217376E+03  0.26296808289E+03 0.  0.
         25    1    4    4    0    0 -0.30598766433E+02  0.12972959164E+02  0.49561814904E+03  0.51223963136E+03  0.12509000000E+03 0.  0.
         25    1    3    3    0    0  0.87710820455E+02 -0.30428043933E+02  0.80449275751E+03  0.81943587844E+03  0.12509000000E+03 0.  0.
         25    1    4    4    0    0 -0.57112054021E+02  0.17455084769E+02  0.29044065486E+03  0.32182254240E+03  0.12509000000E+03 0.  0.
<mgrwt>
<rscale>  2 0.45188664E+03</rscale>
<asrwt>0</asrwt>
<pdfrwt beam="1">  1       21 0.23853300E+00 0.45188664E+03</pdfrwt>
<pdfrwt beam="2">  1       21 0.46284195E-02 0.45188664E+03</pdfrwt>
<totfact> 0.20744373E+04</totfact>
</mgrwt>
</event>
<event>
 7    0  0.4759581E-002  0.4431075E+03  0.7546771E-02  0.1029798E+00
         21   -1    0    0  502  501  0.00000000000E+00  0.00000000000E+00  0.51850242109E+03  0.51850242109E+03  0.00000000000E+00 0. -1.
         21   -1    0    0  501  502 -0.00000000000E+00 -0.00000000000E+00 -0.94668912566E+02  0.94668912566E+02  0.00000000000E+00 0. -1.
      99926    2    1    2    0    0  0.00000000000E+00  0.35527136788E-14  0.42383350852E+03  0.61317133365E+03  0.44310748297E+03 0.  0.
      99925    2    3    3    0    0 -0.79974112013E+02  0.26602224508E+02  0.19108563723E+03  0.33582206534E+03  0.26298137172E+03 0.  0.
         25    1    4    4    0    0 -0.67490115108E+02  0.34382949157E+02  0.74165577044E+02  0.16396689833E+03  0.12509000000E+03 0.  0.
         25    1    3    3    0    0  0.79974112013E+02 -0.26602224508E+02  0.23274787129E+03  0.27734926831E+03  0.12509000000E+03 0.  0.
         25    1    4    4    0    0 -0.12483996905E+02 -0.77807246484E+01  0.11692006018E+03  0.17185516701E+03  0.12509000000E+03 0.  0.
<mgrwt>
<rscale>  2 0.44310748E+03</rscale>
<asrwt>0</asrwt>
<pdfrwt beam="1">  1       21 0.76250355E-01 0.44310748E+03</pdfrwt>
<pdfrwt beam="2">  1       21 0.13921899E-01 0.44310748E+03</pdfrwt>
<totfact> 0.63645144E+04</totfact>
</mgrwt>
</event>
<event>
 7    0  0.4759581E-002  0.4548205E+03  0.7546771E-02  0.1026294E+00
         21   -1    0    0  502  501  0.00000000000E+00  0.00000000000E+00  0.28550228502E+03  0.28550228502E+03  0.00000000000E+00 0. -1.
         21   -1    0    0  501  502 -0.00000000000E+00 -0.00000000000E+00 -0.18113834548E+03  0.18113834548E+03  0.00000000000E+00 0. -1.
      99926    2    1    2    0    0 -0.35527136788E-14  0.35527136788E-14  0.10436393955E+03  0.46664063050E+03  0.45482045485E+03 0.  0.
      99925    2    3    3    0    0 -0.66723048534E+01  0.30587719607E+02 -0.45696593045E+02  0.26878765532E+03  0.26301805413E+03 0.  0.
         25    1    3    3    0    0  0.66723048534E+01 -0.30587719607E+02  0.15006053259E+03  0.19785297517E+03  0.12509000000E+03 0.  0.
         25    1    4    4    0    0  0.29826025286E+02  0.37798239940E+02 -0.16417566270E+02  0.13503830312E+03  0.12509000000E+03 0.  0.
         25    1    4    4    0    0 -0.36498330140E+02 -0.72105203339E+01 -0.29279026775E+02  0.13374935221E+03  0.12509000000E+03 0.  0.
<mgrwt>
<rscale>  2 0.45482045E+03</rscale>
<asrwt>0</asrwt>
<pdfrwt beam="1">  1       21 0.41985630E-01 0.45482045E+03</pdfrwt>
<pdfrwt beam="2">  1       21 0.26637992E-01 0.45482045E+03</pdfrwt>
<totfact> 0.67783155E+04</totfact>
</mgrwt>
</event>
<event>
 7    0  0.4759581E-002  0.4601771E+03  0.7546771E-02  0.1024730E+00
         21   -1    0    0  502  501  0.00000000000E+00  0.00000000000E+00  0.24351206544E+03  0.24351206544E+03  0.00000000000E+00 0.  1.
         21   -1    0    0  501  502 -0.00000000000E+00 -0.00000000000E+00 -0.21740502589E+03  0.21740502589E+03  0.00000000000E+00 0.  1.
      99926    2    1    2    0    0  0.00000000000E+00 -0.17763568394E-14  0.26107039549E+02  0.46091709134E+03  0.46017712630E+03 0.  0.
      99925    2    3    3    0    0 -0.44096063980E+02  0.97872850792E+01  0.12555409198E+03  0.29485241073E+03  0.26293318598E+03 0.  0.
         25    1    4    4    0    0 -0.23223907577E+02 -0.27420933101E+02  0.35435087490E+02  0.13488665976E+03  0.12509000000E+03 0.  0.
         25    1    4    4    0    0 -0.20872156402E+02  0.37208218180E+02  0.90119004492E+02  0.15996575097E+03  0.12509000000E+03 0.  0.
         25    1    3    3    0    0  0.44096063980E+02 -0.97872850792E+01 -0.99447052433E+02  0.16606468061E+03  0.12509000000E+03 0.  0.
<mgrwt>
<rscale>  2 0.46017713E+03</rscale>
<asrwt>0</asrwt>
<pdfrwt beam="1">  1       21 0.35810598E-01 0.46017713E+03</pdfrwt>
<pdfrwt beam="2">  1       21 0.31971327E-01 0.46017713E+03</pdfrwt>
<totfact> 0.65372125E+04</totfact>
</mgrwt>
</event>
<event>
 7    0  0.4759581E-002  0.4829145E+03  0.7546771E-02  0.1018337E+00
         21   -1    0    0  502  501  0.00000000000E+00  0.00000000000E+00  0.22897871395E+03  0.22897871395E+03  0.00000000000E+00 0. -1.
         21   -1    0    0  501  502 -0.00000000000E+00 -0.00000000000E+00 -0.25461578683E+03  0.25461578683E+03  0.00000000000E+00 0. -1.
      99926    2    1    2    0    0  0.00000000000E+00  0.00000000000E+00 -0.25637072878E+02  0.48359450078E+03  0.48291446622E+03 0.  0.
      99925    2    3    3    0    0 -0.39099756425E+02 -0.22327024320E+02  0.11454226306E+03  0.29039760305E+03  0.26302766178E+03 0.  0.
         25    1    3    3    0    0  0.39099756425E+02  0.22327024320E+02 -0.14017933594E+03  0.19319689773E+03  0.12509000000E+03 0.  0.
         25    1    4    4    0    0  0.17121290265E+02 -0.28862816579E+02  0.58150077618E+02  0.14196880076E+03  0.12509000000E+03 0.  0.
         25    1    4    4    0    0 -0.56221046690E+02  0.65357922588E+01  0.56392185446E+02  0.14842880230E+03  0.12509000000E+03 0.  0.
<mgrwt>
<rscale>  2 0.48291447E+03</rscale>
<asrwt>0</asrwt>
<pdfrwt beam="1">  1       21 0.33673340E-01 0.48291447E+03</pdfrwt>
<pdfrwt beam="2">  1       21 0.37443498E-01 0.48291447E+03</pdfrwt>
<totfact> 0.53543198E+04</totfact>
</mgrwt>
</event>
<event>
 7    0  0.4759581E-002  0.4200711E+03  0.7546771E-02  0.1037043E+00
         21   -1    0    0  502  501  0.00000000000E+00  0.00000000000E+00  0.15077624525E+03  0.15077624525E+03  0.00000000000E+00 0. -1.
         21   -1    0    0  501  502 -0.00000000000E+00 -0.00000000000E+00 -0.29258537725E+03  0.29258537725E+03  0.00000000000E+00 0. -1.
      99926    2    1    2    0    0  0.00000000000E+00  0.00000000000E+00 -0.14180913200E+03  0.44336162251E+03  0.42007106351E+03 0.  0.
      99925    2    3    3    0    0  0.24397836857E+02 -0.64658524292E+02 -0.12578924215E+03  0.29955576666E+03  0.26293486777E+03 0.  0.
         25    1    4    4    0    0  0.28447544375E+02 -0.68792667188E+02 -0.54304389789E+02  0.15536463140E+03  0.12509000000E+03 0.  0.
         25    1    3    3    0    0 -0.24397836857E+02  0.64658524292E+02 -0.16019889845E+02  0.14380585585E+03  0.12509000000E+03 0.  0.
         25    1    4    4    0    0 -0.40497075174E+01  0.41341428957E+01 -0.71484852365E+02  0.14419113526E+03  0.12509000000E+03 0.  0.
<mgrwt>
<rscale>  2 0.42007106E+03</rscale>
<asrwt>0</asrwt>
<pdfrwt beam="1">  1       21 0.22172977E-01 0.42007106E+03</pdfrwt>
<pdfrwt beam="2">  1       21 0.43027262E-01 0.42007106E+03</pdfrwt>
<totfact> 0.92586890E+04</totfact>
</mgrwt>
</event>
<event>
 7    0  0.4759581E-002  0.4574454E+03  0.7546771E-02  0.1025525E+00
         21   -1    0    0  502  501  0.00000000000E+00  0.00000000000E+00  0.29381234756E+03  0.29381234756E+03  0.00000000000E+00 0.  1.
         21   -1    0    0  501  502 -0.00000000000E+00 -0.00000000000E+00 -0.17805263956E+03  0.17805263956E+03  0.00000000000E+00 0.  1.
      99926    2    1    2    0    0  0.00000000000E+00  0.00000000000E+00  0.11575970801E+03  0.47186498712E+03  0.45744535856E+03 0.  0.
      99925    2    3    3    0    0  0.32534460466E+02 -0.10344052234E+03  0.31182436578E+02  0.28596378830E+03  0.26276322248E+03 0.  0.
         25    1    3    3    0    0 -0.32534460466E+02  0.10344052234E+03  0.84577271430E+02  0.18590119882E+03  0.12509000000E+03 0.  0.
         25    1    4    4    0    0  0.56170690556E+02 -0.52872600708E+02  0.93995160782E+01  0.14726342854E+03  0.12509000000E+03 0.  0.
         25    1    4    4    0    0 -0.23636230090E+02 -0.50567921635E+02  0.21782920500E+02  0.13870035976E+03  0.12509000000E+03 0.  0.
<mgrwt>
<rscale>  2 0.45744536E+03</rscale>
<asrwt>0</asrwt>
<pdfrwt beam="1">  1       21 0.43207698E-01 0.45744536E+03</pdfrwt>
<pdfrwt beam="2">  1       21 0.26184212E-01 0.45744536E+03</pdfrwt>
<totfact> 0.66007452E+04</totfact>
</mgrwt>
</event>
<event>
 7    0  0.4759581E-002  0.4561829E+03  0.7546771E-02  0.1025894E+00
         21   -1    0    0  502  501  0.00000000000E+00  0.00000000000E+00  0.20115417273E+03  0.20115417273E+03  0.00000000000E+00 0.  1.
         21   -1    0    0  501  502 -0.00000000000E+00 -0.00000000000E+00 -0.25863603268E+03  0.25863603268E+03  0.00000000000E+00 0.  1.
      99926    2    1    2    0    0  0.00000000000E+00  0.35527136788E-14 -0.57481859946E+02  0.45979020541E+03  0.45618293345E+03 0.  0.
      99925    2    3    3    0    0 -0.44696479618E+02 -0.19411599743E+02 -0.14031571222E+03  0.30204502901E+03  0.26299831741E+03 0.  0.
         25    1    4    4    0    0 -0.48344413722E+01 -0.41782981366E+02 -0.89700573452E+02  0.15957095705E+03  0.12509000000E+03 0.  0.
         25    1    3    3    0    0  0.44696479618E+02  0.19411599743E+02  0.82833852275E+02  0.15774517640E+03  0.12509000000E+03 0.  0.
         25    1    4    4    0    0 -0.39862038246E+02  0.22371381623E+02 -0.50615138769E+02  0.14247407196E+03  0.12509000000E+03 0.  0.
<mgrwt>
<rscale>  2 0.45618293E+03</rscale>
<asrwt>0</asrwt>
<pdfrwt beam="1">  1       21 0.29581496E-01 0.45618293E+03</pdfrwt>
<pdfrwt beam="2">  1       21 0.38034711E-01 0.45618293E+03</pdfrwt>
<totfact> 0.67556270E+04</totfact>
</mgrwt>
</event>
<event>
 7    0  0.4759581E-002  0.4839517E+03  0.7546771E-02  0.1018055E+00
         21   -1    0    0  502  501  0.00000000000E+00  0.00000000000E+00  0.68820161010E+03  0.68820161010E+03  0.00000000000E+00 0. -1.
         21   -1    0    0  501  502 -0.00000000000E+00 -0.00000000000E+00 -0.85080184287E+02  0.85080184287E+02  0.00000000000E+00 0. -1.
      99926    2    1    2    0    0  0.00000000000E+00  0.00000000000E+00  0.60312142581E+03  0.77328179439E+03  0.48395173236E+03 0.  0.
      99925    2    3    3    0    0  0.94435689981E+02  0.11492402772E+02  0.20955229919E+03  0.34949606976E+03  0.26303072410E+03 0.  0.
         25    1    3    3    0    0 -0.94435689981E+02 -0.11492402772E+02  0.39356912662E+03  0.42378572462E+03  0.12509000000E+03 0.  0.
         25    1    4    4    0    0  0.47776334596E+02  0.19721402762E+02  0.15298906720E+03  0.20426618579E+03  0.12509000000E+03 0.  0.
         25    1    4    4    0    0  0.46659355385E+02 -0.82289999898E+01  0.56563231987E+02  0.14522988397E+03  0.12509000000E+03 0.  0.
<mgrwt>
<rscale>  2 0.48395173E+03</rscale>
<asrwt>0</asrwt>
<pdfrwt beam="1">  1       21 0.10120612E+00 0.48395173E+03</pdfrwt>
<pdfrwt beam="2">  1       21 0.12511792E-01 0.48395173E+03</pdfrwt>
<totfact> 0.39349887E+04</totfact>
</mgrwt>
</event>
<event>
 7    0  0.4759581E-002  0.4674888E+03  0.7546771E-02  0.1022631E+00
         21   -1    0    0  502  501  0.00000000000E+00  0.00000000000E+00  0.24743959702E+03  0.24743959702E+03  0.00000000000E+00 0.  1.
         21   -1    0    0  501  502 -0.00000000000E+00 -0.00000000000E+00 -0.22080722603E+03  0.22080722603E+03  0.00000000000E+00 0.  1.
      99926    2    1    2    0    0  0.00000000000E+00  0.71054273576E-14  0.26632370982E+02  0.46824682305E+03  0.46748882779E+03 0.  0.
      99925    2    3    3    0    0 -0.11226231255E+03  0.52257704673E+02  0.30250159324E+02  0.29219486762E+03  0.26292408412E+03 0.  0.
         25    1    4    4    0    0 -0.54694074554E+02  0.24890745373E+00  0.46218033834E+02  0.14413576412E+03  0.12509000000E+03 0.  0.
         25    1    3    3    0    0  0.11226231255E+03 -0.52257704673E+02 -0.36177883417E+01  0.17605195543E+03  0.12509000000E+03 0.  0.
         25    1    4    4    0    0 -0.57568237999E+02  0.52008797220E+02 -0.15967874510E+02  0.14805910351E+03  0.12509000000E+03 0.  0.
<mgrwt>
<rscale>  2 0.46748883E+03</rscale>
<asrwt>0</asrwt>
<pdfrwt beam="1">  1       21 0.36388176E-01 0.46748883E+03</pdfrwt>
<pdfrwt beam="2">  1       21 0.32471651E-01 0.46748883E+03</pdfrwt>
<totfact> 0.61251260E+04</totfact>
</mgrwt>
</event>
<event>
 7    0  0.4759581E-002  0.4545673E+03  0.7546771E-02  0.1026369E+00
         21   -1    0    0  502  501  0.00000000000E+00  0.00000000000E+00  0.94271146680E+03  0.94271146680E+03  0.00000000000E+00 0.  1.
         21   -1    0    0  501  502 -0.00000000000E+00 -0.00000000000E+00 -0.54797101500E+02  0.54797101500E+02  0.00000000000E+00 0.  1.
      99926    2    1    2    0    0  0.00000000000E+00  0.00000000000E+00  0.88791436530E+03  0.99750856830E+03  0.45456729285E+03 0.  0.
      99925    2    3    3    0    0 -0.89146902066E+02  0.43009760962E+02  0.67808891873E+03  0.73393460181E+03  0.26278966558E+03 0.  0.
         25    1    3    3    0    0  0.89146902066E+02 -0.43009760962E+02  0.20982544657E+03  0.26357396650E+03  0.12509000000E+03 0.  0.
         25    1    4    4    0    0 -0.58202006094E+02  0.30057471694E+02  0.25521317255E+03  0.29167138472E+03  0.12509000000E+03 0.  0.
         25    1    4    4    0    0 -0.30944895972E+02  0.12952289268E+02  0.42287574618E+03  0.44226321709E+03  0.12509000000E+03 0.  0.
<mgrwt>
<rscale>  2 0.45456729E+03</rscale>
<asrwt>0</asrwt>
<pdfrwt beam="1">  1       21 0.13863403E+00 0.45456729E+03</pdfrwt>
<pdfrwt beam="2">  1       21 0.80583979E-02 0.45456729E+03</pdfrwt>
<totfact> 0.39396813E+04</totfact>
</mgrwt>
</event>
<event>
 7    0  0.4759581E-002  0.4086910E+03  0.7546771E-02  0.1040811E+00
         21   -1    0    0  502  501  0.00000000000E+00  0.00000000000E+00  0.18141102230E+04  0.18141102230E+04  0.00000000000E+00 0.  1.
         21   -1    0    0  501  502 -0.00000000000E+00 -0.00000000000E+00 -0.23017945343E+02  0.23017945343E+02  0.00000000000E+00 0.  1.
      99926    2    1    2    0    0 -0.35527136788E-14  0.00000000000E+00  0.17910922777E+04  0.18371281683E+04  0.40869103224E+03 0.  0.
      99925    2    3    3    0    0  0.29257375061E+02 -0.27318197860E+02  0.97931231979E+03  0.10147921750E+04  0.26296056876E+03 0.  0.
         25    1    3    3    0    0 -0.29257375061E+02  0.27318197860E+02  0.81177995786E+03  0.82233599339E+03  0.12509000000E+03 0.  0.
         25    1    4    4    0    0 -0.93218852667E+01 -0.45830989261E+02  0.47076220832E+03  0.48933826950E+03  0.12509000000E+03 0.  0.
         25    1    4    4    0    0  0.38579260328E+02  0.18512791400E+02  0.50855011148E+03  0.52545390545E+03  0.12509000000E+03 0.  0.
<mgrwt>
<rscale>  2 0.40869103E+03</rscale>
<asrwt>0</asrwt>
<pdfrwt beam="1">  1       21 0.26678082E+00 0.40869103E+03</pdfrwt>
<pdfrwt beam="2">  1       21 0.33849932E-02 0.40869103E+03</pdfrwt>
<totfact> 0.24134925E+04</totfact>
</mgrwt>
</event>
<event>
 7    0  0.4759581E-002  0.4558596E+03  0.7546771E-02  0.1025989E+00
         21   -1    0    0  502  501  0.00000000000E+00  0.00000000000E+00  0.10249296115E+03  0.10249296115E+03  0.00000000000E+00 0.  1.
         21   -1    0    0  501  502 -0.00000000000E+00 -0.00000000000E+00 -0.50688362353E+03  0.50688362353E+03  0.00000000000E+00 0.  1.
      99926    2    1    2    0    0  0.00000000000E+00  0.14210854715E-13 -0.40439066238E+03  0.60937658468E+03  0.45585964302E+03 0.  0.
      99925    2    3    3    0    0 -0.82231736120E+01  0.10539148596E+03 -0.31077704060E+03  0.42073405454E+03  0.26317254755E+03 0.  0.
         25    1    3    3    0    0  0.82231736120E+01 -0.10539148596E+03 -0.93613621778E+02  0.18864253015E+03  0.12509000000E+03 0.  0.
         25    1    4    4    0    0  0.19153170083E+02  0.88512175480E+02 -0.16665640628E+03  0.22720720716E+03  0.12509000000E+03 0.  0.
         25    1    4    4    0    0 -0.27376343695E+02  0.16879310484E+02 -0.14412063432E+03  0.19352684737E+03  0.12509000000E+03 0.  0.
<mgrwt>
<rscale>  2 0.45585964E+03</rscale>
<asrwt>0</asrwt>
<pdfrwt beam="1">  1       21 0.15072494E-01 0.45585964E+03</pdfrwt>
<pdfrwt beam="2">  1       21 0.74541709E-01 0.45585964E+03</pdfrwt>
<totfact> 0.57711909E+04</totfact>
</mgrwt>
</event>
<event>
 7    0  0.4759581E-002  0.4536914E+03  0.7546771E-02  0.1026627E+00
         21   -1    0    0  502  501  0.00000000000E+00  0.00000000000E+00  0.37540437600E+03  0.37540437600E+03  0.00000000000E+00 0.  1.
         21   -1    0    0  501  502 -0.00000000000E+00 -0.00000000000E+00 -0.13707609598E+03  0.13707609598E+03  0.00000000000E+00 0.  1.
      99926    2    1    2    0    0  0.00000000000E+00  0.00000000000E+00  0.23832828003E+03  0.51248047198E+03  0.45369137649E+03 0.  0.
      99925    2    3    3    0    0 -0.75413492289E+02  0.52164261720E+02  0.77855171462E+02  0.28930468545E+03  0.26311113295E+03 0.  0.
         25    1    4    4    0    0 -0.75097581612E+02  0.47116345694E+02  0.38641437766E+02  0.15811472293E+03  0.12509000000E+03 0.  0.
         25    1    3    3    0    0  0.75413492289E+02 -0.52164261720E+02  0.16047310856E+03  0.22317578653E+03  0.12509000000E+03 0.  0.
         25    1    4    4    0    0 -0.31591067697E+00  0.50479160260E+01  0.39213733696E+02  0.13118996252E+03  0.12509000000E+03 0.  0.
<mgrwt>
<rscale>  2 0.45369138E+03</rscale>
<asrwt>0</asrwt>
<pdfrwt beam="1">  1       21 0.55206525E-01 0.45369138E+03</pdfrwt>
<pdfrwt beam="2">  1       21 0.20158250E-01 0.45369138E+03</pdfrwt>
<totfact> 0.65075631E+04</totfact>
</mgrwt>
</event>
<event>
 7    0  0.4759581E-002  0.4570117E+03  0.7546771E-02  0.1025651E+00
         21   -1    0    0  502  501  0.00000000000E+00  0.00000000000E+00  0.66488658521E+03  0.66488658521E+03  0.00000000000E+00 0. -1.
         21   -1    0    0  501  502 -0.00000000000E+00 -0.00000000000E+00 -0.78532085021E+02  0.78532085021E+02  0.00000000000E+00 0. -1.
      99926    2    1    2    0    0  0.35527136788E-14  0.00000000000E+00  0.58635450019E+03  0.74341867023E+03  0.45701172781E+03 0.  0.
      99925    2    3    3    0    0  0.30480925248E+02  0.46848429695E+02  0.53194657173E+03  0.59600227716E+03  0.26292146551E+03 0.  0.
         25    1    4    4    0    0 -0.16804625187E+02 -0.13618219217E+01  0.23357444092E+03  0.26549722699E+03  0.12509000000E+03 0.  0.
         25    1    4    4    0    0  0.47285550436E+02  0.48210251617E+02  0.29837213081E+03  0.33050505017E+03  0.12509000000E+03 0.  0.
         25    1    3    3    0    0 -0.30480925248E+02 -0.46848429695E+02  0.54407928456E+02  0.14741639308E+03  0.12509000000E+03 0.  0.
<mgrwt>
<rscale>  2 0.45701173E+03</rscale>
<asrwt>0</asrwt>
<pdfrwt beam="1">  1       21 0.97777436E-01 0.45701173E+03</pdfrwt>
<pdfrwt beam="2">  1       21 0.11548836E-01 0.45701173E+03</pdfrwt>
<totfact> 0.49815722E+04</totfact>
</mgrwt>
</event>
<event>
 7    0  0.4759581E-002  0.4293952E+03  0.7546771E-02  0.1034051E+00
         21   -1    0    0  502  501  0.00000000000E+00  0.00000000000E+00  0.10255867816E+03  0.10255867816E+03  0.00000000000E+00 0. -1.
         21   -1    0    0  501  502 -0.00000000000E+00 -0.00000000000E+00 -0.44945049758E+03  0.44945049758E+03  0.00000000000E+00 0. -1.
      99926    2    1    2    0    0  0.00000000000E+00  0.00000000000E+00 -0.34689181942E+03  0.55200917574E+03  0.42939515102E+03 0.  0.
      99925    2    3    3    0    0 -0.80750847878E+02  0.29238971711E+02 -0.24152423450E+03  0.36727841774E+03  0.26302825587E+03 0.  0.
         25    1    3    3    0    0  0.80750847878E+02 -0.29238971711E+02 -0.10536758492E+03  0.18473075800E+03  0.12509000000E+03 0.  0.
         25    1    4    4    0    0 -0.82737902453E+02  0.18175760653E+02 -0.12939436679E+03  0.19891286795E+03  0.12509000000E+03 0.  0.
         25    1    4    4    0    0  0.19870545752E+01  0.11063211058E+02 -0.11212986771E+03  0.16836554979E+03  0.12509000000E+03 0.  0.
<mgrwt>
<rscale>  2 0.42939515E+03</rscale>
<asrwt>0</asrwt>
<pdfrwt beam="1">  1       21 0.15082158E-01 0.42939515E+03</pdfrwt>
<pdfrwt beam="2">  1       21 0.66095662E-01 0.42939515E+03</pdfrwt>
<totfact> 0.75997891E+04</totfact>
</mgrwt>
</event>
<event>
 7    0  0.4759581E-002  0.4614042E+03  0.7546771E-02  0.1024375E+00
         21   -1    0    0  502  501  0.00000000000E+00  0.00000000000E+00  0.12892340482E+03  0.12892340482E+03  0.00000000000E+00 0.  1.
         21   -1    0    0  501  502 -0.00000000000E+00 -0.00000000000E+00 -0.41283001407E+03  0.41283001407E+03  0.00000000000E+00 0.  1.
      99926    2    1    2    0    0  0.00000000000E+00  0.00000000000E+00 -0.28390660925E+03  0.54175341889E+03  0.46140416568E+03 0.  0.
      99925    2    3    3    0    0  0.37906744756E+02  0.82537804969E+02 -0.26806191856E+03  0.38635723853E+03  0.26299299048E+03 0.  0.
         25    1    3    3    0    0 -0.37906744756E+02 -0.82537804969E+02 -0.15844690694E+02  0.15539618036E+03  0.12509000000E+03 0.  0.
         25    1    4    4    0    0  0.39200532805E+02  0.36509560320E+02 -0.86965275279E+02  0.16149333414E+03  0.12509000000E+03 0.  0.
         25    1    4    4    0    0 -0.12937880486E+01  0.46028244649E+02 -0.18109664328E+03  0.22486390440E+03  0.12509000000E+03 0.  0.
<mgrwt>
<rscale>  2 0.46140417E+03</rscale>
<asrwt>0</asrwt>
<pdfrwt beam="1">  1       21 0.18959324E-01 0.46140417E+03</pdfrwt>
<pdfrwt beam="2">  1       21 0.60710297E-01 0.46140417E+03</pdfrwt>
<totfact> 0.59348163E+04</totfact>
</mgrwt>
</event>
<event>
 7    0  0.4759581E-002  0.4639833E+03  0.7546771E-02  0.1023632E+00
         21   -1    0    0  502  501  0.00000000000E+00  0.00000000000E+00  0.39435873228E+02  0.39435873228E+02  0.00000000000E+00 0.  1.
         21   -1    0    0  501  502 -0.00000000000E+00 -0.00000000000E+00 -0.13647504883E+04  0.13647504883E+04  0.00000000000E+00 0.  1.
      99926    2    1    2    0    0  0.17763568394E-14  0.00000000000E+00 -0.13253146151E+04  0.14041863616E+04  0.46398330679E+03 0.  0.
      99925    2    3    3    0    0  0.63853799097E+01 -0.11412170925E+03 -0.70286524987E+03  0.75908539428E+03  0.26291926279E+03 0.  0.
         25    1    3    3    0    0 -0.63853799097E+01  0.11412170925E+03 -0.62244936524E+03  0.64510096728E+03  0.12509000000E+03 0.  0.
         25    1    4    4    0    0 -0.15970865060E+02 -0.86480901787E+02 -0.43997799758E+03  0.46579197219E+03  0.12509000000E+03 0.  0.
         25    1    4    4    0    0  0.22356244969E+02 -0.27640807462E+02 -0.26288725229E+03  0.29329342209E+03  0.12509000000E+03 0.  0.
<mgrwt>
<rscale>  2 0.46398331E+03</rscale>
<asrwt>0</asrwt>
<pdfrwt beam="1">  1       21 0.57993938E-02 0.46398331E+03</pdfrwt>
<pdfrwt beam="2">  1       21 0.20069858E+00 0.46398331E+03</pdfrwt>
<totfact> 0.24467508E+04</totfact>
</mgrwt>
</event>
<event>
 7    0  0.4759581E-002  0.4399681E+03  0.7546771E-02  0.1030757E+00
         21   -1    0    0  502  501  0.00000000000E+00  0.00000000000E+00  0.28820724921E+03  0.28820724921E+03  0.00000000000E+00 0. -1.
         21   -1    0    0  501  502 -0.00000000000E+00 -0.00000000000E+00 -0.16791035095E+03  0.16791035095E+03  0.00000000000E+00 0. -1.
      99926    2    1    2    0    0  0.35527136788E-14  0.71054273576E-14  0.12029689826E+03  0.45611760016E+03  0.43996809140E+03 0.  0.
      99925    2    3    3    0    0  0.78543758115E+01  0.32436095278E+02 -0.19242257678E+02  0.26576929931E+03  0.26296247733E+03 0.  0.
         25    1    4    4    0    0  0.33097763603E+02  0.30725339069E+02 -0.34071271025E+02  0.13728753777E+03  0.12509000000E+03 0.  0.
         25    1    4    4    0    0 -0.25243387792E+02  0.17107562089E+01  0.14829013346E+02  0.12848176155E+03  0.12509000000E+03 0.  0.
         25    1    3    3    0    0 -0.78543758115E+01 -0.32436095278E+02  0.13953915593E+03  0.19034830085E+03  0.12509000000E+03 0.  0.
<mgrwt>
<rscale>  2 0.43996809E+03</rscale>
<asrwt>0</asrwt>
<pdfrwt beam="1">  1       21 0.42383419E-01 0.43996809E+03</pdfrwt>
<pdfrwt beam="2">  1       21 0.24692699E-01 0.43996809E+03</pdfrwt>
<totfact> 0.77296068E+04</totfact>
</mgrwt>
</event>
<event>
 7    0  0.4759581E-002  0.4410344E+03  0.7546771E-02  0.1030430E+00
         21   -1    0    0  502  501  0.00000000000E+00  0.00000000000E+00  0.73251082331E+02  0.73251082331E+02  0.00000000000E+00 0.  1.
         21   -1    0    0  501  502 -0.00000000000E+00 -0.00000000000E+00 -0.66385156765E+03  0.66385156765E+03  0.00000000000E+00 0.  1.
      99926    2    1    2    0    0 -0.71054273576E-14 -0.71054273576E-14 -0.59060048532E+03  0.73710264998E+03  0.44103444690E+03 0.  0.
      99925    2    3    3    0    0  0.63549002582E+02 -0.58566236142E+02 -0.45891180079E+03  0.53596116377E+03  0.26303202925E+03 0.  0.
         25    1    4    4    0    0 -0.88686604735E+01 -0.22826136077E+02 -0.19555931898E+03  0.23343230489E+03  0.12509000000E+03 0.  0.
         25    1    4    4    0    0  0.72417663056E+02 -0.35740100066E+02 -0.26335248182E+03  0.30252885888E+03  0.12509000000E+03 0.  0.
         25    1    3    3    0    0 -0.63549002582E+02  0.58566236142E+02 -0.13168868453E+03  0.20114148622E+03  0.12509000000E+03 0.  0.
<mgrwt>
<rscale>  2 0.44103445E+03</rscale>
<asrwt>0</asrwt>
<pdfrwt beam="1">  1       21 0.10772218E-01 0.44103445E+03</pdfrwt>
<pdfrwt beam="2">  1       21 0.97625229E-01 0.44103445E+03</pdfrwt>
<totfact> 0.56932632E+04</totfact>
</mgrwt>
</event>
<event>
 7    0  0.4759581E-002  0.4387387E+03  0.7546771E-02  0.1031134E+00
         21   -1    0    0  502  501  0.00000000000E+00  0.00000000000E+00  0.45372813379E+03  0.45372813379E+03  0.00000000000E+00 0.  1.
         21   -1    0    0  501  502 -0.00000000000E+00 -0.00000000000E+00 -0.10606113241E+03  0.10606113241E+03  0.00000000000E+00 0.  1.
      99926    2    1    2    0    0  0.00000000000E+00  0.00000000000E+00  0.34766700137E+03  0.55978926620E+03  0.43873873628E+03 0.  0.
      99925    2    3    3    0    0 -0.72942508515E+02  0.56352849689E+02  0.26152597845E+03  0.38212656008E+03  0.26292321559E+03 0.  0.
         25    1    3    3    0    0  0.72942508515E+02 -0.56352849689E+02  0.86141022920E+02  0.17766270612E+03  0.12509000000E+03 0.  0.
         25    1    4    4    0    0 -0.76927518930E+02  0.30379622061E+02  0.15582546440E+03  0.21626337661E+03  0.12509000000E+03 0.  0.
         25    1    4    4    0    0  0.39850104149E+01  0.25973227627E+02  0.10570051405E+03  0.16586318347E+03  0.12509000000E+03 0.  0.
<mgrwt>
<rscale>  2 0.43873874E+03</rscale>
<asrwt>0</asrwt>
<pdfrwt beam="1">  1       21 0.66724725E-01 0.43873874E+03</pdfrwt>
<pdfrwt beam="2">  1       21 0.15597226E-01 0.43873874E+03</pdfrwt>
<totfact> 0.69775010E+04</totfact>
</mgrwt>
</event>
<event>
 7    0  0.4759581E-002  0.4619246E+03  0.7546771E-02  0.1024225E+00
         21   -1    0    0  502  501  0.00000000000E+00  0.00000000000E+00  0.30795920459E+03  0.30795920459E+03  0.00000000000E+00 0. -1.
         21   -1    0    0  501  502 -0.00000000000E+00 -0.00000000000E+00 -0.17321636998E+03  0.17321636998E+03  0.00000000000E+00 0. -1.
      99926    2    1    2    0    0  0.71054273576E-14 -0.17763568394E-14  0.13474283461E+03  0.48117557457E+03  0.46192456320E+03 0.  0.
      99925    2    3    3    0    0 -0.41508120858E+02  0.12801663716E+02 -0.31748737715E+02  0.26844626665E+03  0.26299925673E+03 0.  0.
         25    1    4    4    0    0 -0.45743618622E+02  0.34813792513E+02 -0.32117819862E+02  0.14136315378E+03  0.12509000000E+03 0.  0.
         25    1    4    4    0    0  0.42354977642E+01 -0.22012128797E+02  0.36908214731E+00  0.12708311287E+03  0.12509000000E+03 0.  0.
         25    1    3    3    0    0  0.41508120858E+02 -0.12801663716E+02  0.16649157233E+03  0.21272930792E+03  0.12509000000E+03 0.  0.
<mgrwt>
<rscale>  2 0.46192456E+03</rscale>
<asrwt>0</asrwt>
<pdfrwt beam="1">  1       21 0.45288118E-01 0.46192456E+03</pdfrwt>
<pdfrwt beam="2">  1       21 0.25472996E-01 0.46192456E+03</pdfrwt>
<totfact> 0.63076197E+04</totfact>
</mgrwt>
</event>
<event>
 7    0  0.4759581E-002  0.4558357E+03  0.7546771E-02  0.1025996E+00
         21   -1    0    0  502  501  0.00000000000E+00  0.00000000000E+00  0.27143505114E+03  0.27143505114E+03  0.00000000000E+00 0.  1.
         21   -1    0    0  501  502 -0.00000000000E+00 -0.00000000000E+00 -0.19137741061E+03  0.19137741061E+03  0.00000000000E+00 0.  1.
      99926    2    1    2    0    0  0.00000000000E+00 -0.49960036108E-15  0.80057640537E+02  0.46281246175E+03  0.45583566002E+03 0.  0.
      99925    2    3    3    0    0  0.11374764020E+03  0.32539627746E+00  0.45647273395E+02  0.29027199403E+03  0.26312644378E+03 0.  0.
         25    1    3    3    0    0 -0.11374764020E+03 -0.32539627746E+00  0.34410367143E+02  0.17254046772E+03  0.12509000000E+03 0.  0.
         25    1    4    4    0    0  0.68518288444E+02  0.37775860195E+02  0.35234210203E+02  0.15169287766E+03  0.12509000000E+03 0.  0.
         25    1    4    4    0    0  0.45229351757E+02 -0.37450463918E+02  0.10413063192E+02  0.13857911637E+03  0.12509000000E+03 0.  0.
<mgrwt>
<rscale>  2 0.45583566E+03</rscale>
<asrwt>0</asrwt>
<pdfrwt beam="1">  1       21 0.39916919E-01 0.45583566E+03</pdfrwt>
<pdfrwt beam="2">  1       21 0.28143737E-01 0.45583566E+03</pdfrwt>
<totfact> 0.67523130E+04</totfact>
</mgrwt>
</event>
<event>
 7    0  0.4759581E-002  0.4567866E+03  0.7546771E-02  0.1025717E+00
         21   -1    0    0  502  501  0.00000000000E+00  0.00000000000E+00  0.11299923907E+04  0.11299923907E+04  0.00000000000E+00 0. -1.
         21   -1    0    0  501  502 -0.00000000000E+00 -0.00000000000E+00 -0.46162709658E+02  0.46162709658E+02  0.00000000000E+00 0. -1.
      99926    2    1    2    0    0  0.71054273576E-14  0.00000000000E+00  0.10838296811E+04  0.11761551004E+04  0.45678664888E+03 0.  0.
      99925    2    3    3    0    0  0.58663262058E+02  0.59001721097E+02  0.47733407243E+03  0.55132951447E+03  0.26304721139E+03 0.  0.
         25    1    3    3    0    0 -0.58663262058E+02 -0.59001721097E+02  0.60649560863E+03  0.62482558590E+03  0.12509000000E+03 0.  0.
         25    1    4    4    0    0  0.69720893109E+02  0.21841202894E+02  0.25678219514E+03  0.29482646577E+03  0.12509000000E+03 0.  0.
         25    1    4    4    0    0 -0.11057631051E+02  0.37160518203E+02  0.22055187729E+03  0.25650304870E+03  0.12509000000E+03 0.  0.
<mgrwt>
<rscale>  2 0.45678665E+03</rscale>
<asrwt>0</asrwt>
<pdfrwt beam="1">  1       21 0.16617533E+00 0.45678665E+03</pdfrwt>
<pdfrwt beam="2">  1       21 0.67886345E-02 0.45678665E+03</pdfrwt>
<totfact> 0.32466676E+04</totfact>
</mgrwt>
</event>
<event>
 7    0  0.4759581E-002  0.4576507E+03  0.7546771E-02  0.1025465E+00
         21   -1    0    0  502  501  0.00000000000E+00  0.00000000000E+00  0.56356459938E+02  0.56356459938E+02  0.00000000000E+00 0.  1.
         21   -1    0    0  501  502 -0.00000000000E+00 -0.00000000000E+00 -0.92910447456E+03  0.92910447456E+03  0.00000000000E+00 0.  1.
      99926    2    1    2    0    0 -0.17763568394E-14  0.00000000000E+00 -0.87274801462E+03  0.98546093450E+03  0.45765069255E+03 0.  0.
      99925    2    3    3    0    0  0.13272387650E+02  0.11223781147E+03 -0.60068209072E+03  0.66539710079E+03  0.26298449580E+03 0.  0.
         25    1    4    4    0    0  0.25043519853E+02  0.89065836689E+02 -0.37619975517E+03  0.40710399782E+03  0.12509000000E+03 0.  0.
         25    1    4    4    0    0 -0.11771132203E+02  0.23171974782E+02 -0.22448233555E+03  0.25829310297E+03  0.12509000000E+03 0.  0.
         25    1    3    3    0    0 -0.13272387650E+02 -0.11223781147E+03 -0.27206592390E+03  0.32006383370E+03  0.12509000000E+03 0.  0.
<mgrwt>
<rscale>  2 0.45765069E+03</rscale>
<asrwt>0</asrwt>
<pdfrwt beam="1">  1       21 0.82877157E-02 0.45765069E+03</pdfrwt>
<pdfrwt beam="2">  1       21 0.13663299E+00 0.45765069E+03</pdfrwt>
<totfact> 0.38924221E+04</totfact>
</mgrwt>
</event>
<event>
 7    0  0.4759581E-002  0.4537390E+03  0.7546771E-02  0.1026613E+00
         21   -1    0    0  502  501  0.00000000000E+00  0.00000000000E+00  0.30951315327E+03  0.30951315327E+03  0.00000000000E+00 0.  1.
         21   -1    0    0  501  502 -0.00000000000E+00 -0.00000000000E+00 -0.16629269802E+03  0.16629269802E+03  0.00000000000E+00 0.  1.
      99926    2    1    2    0    0  0.00000000000E+00  0.00000000000E+00  0.14322045525E+03  0.47580585129E+03  0.45373903217E+03 0.  0.
      99925    2    3    3    0    0  0.13847192891E+02 -0.10031741551E+03  0.39233967854E+02  0.28419158703E+03  0.26262182944E+03 0.  0.
         25    1    3    3    0    0 -0.13847192891E+02  0.10031741551E+03  0.10398648740E+03  0.19161426426E+03  0.12509000000E+03 0.  0.
         25    1    4    4    0    0 -0.85473080723E+01 -0.88776477819E+02  0.27267249904E+02  0.15602990260E+03  0.12509000000E+03 0.  0.
         25    1    4    4    0    0  0.22394500963E+02 -0.11540937691E+02  0.11966717950E+02  0.12816168443E+03  0.12509000000E+03 0.  0.
<mgrwt>
<rscale>  2 0.45373903E+03</rscale>
<asrwt>0</asrwt>
<pdfrwt beam="1">  1       21 0.45516640E-01 0.45373903E+03</pdfrwt>
<pdfrwt beam="2">  1       21 0.24454809E-01 0.45373903E+03</pdfrwt>
<totfact> 0.67681484E+04</totfact>
</mgrwt>
</event>
<event>
 7    0  0.4759581E-002  0.4831960E+03  0.7546771E-02  0.1018261E+00
         21   -1    0    0  502  501  0.00000000000E+00  0.00000000000E+00  0.32998659745E+03  0.32998659745E+03  0.00000000000E+00 0. -1.
         21   -1    0    0  501  502 -0.00000000000E+00 -0.00000000000E+00 -0.17688473167E+03  0.17688473167E+03  0.00000000000E+00 0. -1.
      99926    2    1    2    0    0 -0.71054273576E-14 -0.14210854715E-13  0.15310186578E+03  0.50687132912E+03  0.48319598816E+03 0.  0.
      99925    2    3    3    0    0 -0.54477564264E+02 -0.12487165864E+03  0.71191500709E+02  0.30459045472E+03  0.26295699115E+03 0.  0.
         25    1    4    4    0    0 -0.57285464711E+02 -0.71758829593E+02  0.65824921432E+02  0.16855676336E+03  0.12509000000E+03 0.  0.
         25    1    3    3    0    0  0.54477564264E+02  0.12487165864E+03  0.81910365073E+02  0.20228087439E+03  0.12509000000E+03 0.  0.
         25    1    4    4    0    0  0.28079004476E+01 -0.53112829042E+02  0.53665792777E+01  0.13603369137E+03  0.12509000000E+03 0.  0.
<mgrwt>
<rscale>  2 0.48319599E+03</rscale>
<asrwt>0</asrwt>
<pdfrwt beam="1">  1       21 0.48527441E-01 0.48319599E+03</pdfrwt>
<pdfrwt beam="2">  1       21 0.26012460E-01 0.48319599E+03</pdfrwt>
<totfact> 0.52112677E+04</totfact>
</mgrwt>
</event>
<event>
 7    0  0.4759581E-002  0.4545570E+03  0.7546771E-02  0.1026372E+00
         21   -1    0    0  502  501  0.00000000000E+00  0.00000000000E+00  0.51292821719E+02  0.51292821719E+02  0.00000000000E+00 0.  1.
         21   -1    0    0  501  502 -0.00000000000E+00 -0.00000000000E+00 -0.10070708977E+04  0.10070708977E+04  0.00000000000E+00 0.  1.
      99926    2    1    2    0    0  0.00000000000E+00  0.00000000000E+00 -0.95577807594E+03  0.10583637194E+04  0.45455696238E+03 0.  0.
      99925    2    3    3    0    0 -0.72489212728E+02  0.43594067199E+02 -0.42813312533E+03  0.50953603179E+03  0.26300925085E+03 0.  0.
         25    1    4    4    0    0 -0.31848422157E+02  0.16422106524E+01 -0.14242757328E+03  0.19222419353E+03  0.12509000000E+03 0.  0.
         25    1    4    4    0    0 -0.40640790571E+02  0.41951856547E+02 -0.28570555205E+03  0.31731183826E+03  0.12509000000E+03 0.  0.
         25    1    3    3    0    0  0.72489212728E+02 -0.43594067199E+02 -0.52764495062E+03  0.54882768759E+03  0.12509000000E+03 0.  0.
<mgrwt>
<rscale>  2 0.45455696E+03</rscale>
<asrwt>0</asrwt>
<pdfrwt beam="1">  1       21 0.75430633E-02 0.45455696E+03</pdfrwt>
<pdfrwt beam="2">  1       21 0.14809864E+00 0.45455696E+03</pdfrwt>
<totfact> 0.37100108E+04</totfact>
</mgrwt>
</event>
<event>
 7    0  0.4759581E-002  0.4505887E+03  0.7546771E-02  0.1027547E+00
         21   -1    0    0  502  501  0.00000000000E+00  0.00000000000E+00  0.12649370809E+03  0.12649370809E+03  0.00000000000E+00 0. -1.
         21   -1    0    0  501  502 -0.00000000000E+00 -0.00000000000E+00 -0.40126531766E+03  0.40126531766E+03  0.00000000000E+00 0. -1.
      99926    2    1    2    0    0 -0.14210854715E-13  0.00000000000E+00 -0.27477160957E+03  0.52775902575E+03  0.45058867256E+03 0.  0.
      99925    2    3    3    0    0 -0.93308346078E+02  0.55275837139E+02 -0.16059480669E+03  0.32664782260E+03  0.26295673114E+03 0.  0.
         25    1    4    4    0    0 -0.64946762099E+02  0.59291482533E+02 -0.62793392540E+02  0.16529996992E+03  0.12509000000E+03 0.  0.
         25    1    4    4    0    0 -0.28361583979E+02 -0.40156453941E+01 -0.97801414150E+02  0.16134785268E+03  0.12509000000E+03 0.  0.
         25    1    3    3    0    0  0.93308346078E+02 -0.55275837139E+02 -0.11417680288E+03  0.20111120316E+03  0.12509000000E+03 0.  0.
<mgrwt>
<rscale>  2 0.45058867E+03</rscale>
<asrwt>0</asrwt>
<pdfrwt beam="1">  1       21 0.18602016E-01 0.45058867E+03</pdfrwt>
<pdfrwt beam="2">  1       21 0.59009605E-01 0.45058867E+03</pdfrwt>
<totfact> 0.65622351E+04</totfact>
</mgrwt>
</event>
<event>
 7    0  0.4759581E-002  0.4544903E+03  0.7546771E-02  0.1026391E+00
         21   -1    0    0  502  501  0.00000000000E+00  0.00000000000E+00  0.18831846466E+03  0.18831846466E+03  0.00000000000E+00 0. -1.
         21   -1    0    0  501  502 -0.00000000000E+00 -0.00000000000E+00 -0.27421822904E+03  0.27421822904E+03  0.00000000000E+00 0. -1.
      99926    2    1    2    0    0  0.71054273576E-14  0.00000000000E+00 -0.85899764385E+02  0.46253669370E+03  0.45449028977E+03 0.  0.
      99925    2    3    3    0    0  0.59016065046E+02  0.80180914334E+02 -0.55071156239E+00  0.28130798771E+03  0.26310075202E+03 0.  0.
         25    1    4    4    0    0  0.42518717728E+02  0.15900554345E+02 -0.30613819513E+02  0.13654809787E+03  0.12509000000E+03 0.  0.
         25    1    3    3    0    0 -0.59016065046E+02 -0.80180914334E+02 -0.85349052823E+02  0.18122870599E+03  0.12509000000E+03 0.  0.
         25    1    4    4    0    0  0.16497347318E+02  0.64280359988E+02  0.30063107950E+02  0.14475988985E+03  0.12509000000E+03 0.  0.
<mgrwt>
<rscale>  2 0.45449029E+03</rscale>
<asrwt>0</asrwt>
<pdfrwt beam="1">  1       21 0.27693892E-01 0.45449029E+03</pdfrwt>
<pdfrwt beam="2">  1       21 0.40326210E-01 0.45449029E+03</pdfrwt>
<totfact> 0.68269611E+04</totfact>
</mgrwt>
</event>
<event>
 7    0  0.4759581E-002  0.5032614E+03  0.7546771E-02  0.1012931E+00
         21   -1    0    0  502  501  0.00000000000E+00  0.00000000000E+00  0.82231884673E+02  0.82231884673E+02  0.00000000000E+00 0.  1.
         21   -1    0    0  501  502 -0.00000000000E+00 -0.00000000000E+00 -0.76999338474E+03  0.76999338474E+03  0.00000000000E+00 0.  1.
      99926    2    1    2    0    0  0.00000000000E+00  0.00000000000E+00 -0.68776150007E+03  0.85222526942E+03  0.50326139217E+03 0.  0.
      99925    2    3    3    0    0  0.90408903926E+02 -0.43363265399E+02 -0.61457109915E+03  0.67599109117E+03  0.26308207224E+03 0.  0.
         25    1    4    4    0    0  0.77622435079E+02 -0.49313054386E+02 -0.35729919308E+03  0.38957315261E+03  0.12509000000E+03 0.  0.
         25    1    3    3    0    0 -0.90408903926E+02  0.43363265399E+02 -0.73190400918E+02  0.17623417824E+03  0.12509000000E+03 0.  0.
         25    1    4    4    0    0  0.12786468847E+02  0.59497889874E+01 -0.25727190607E+03  0.28641793856E+03  0.12509000000E+03 0.  0.
<mgrwt>
<rscale>  2 0.50326139E+03</rscale>
<asrwt>0</asrwt>
<pdfrwt beam="1">  1       21 0.12092925E-01 0.50326139E+03</pdfrwt>
<pdfrwt beam="2">  1       21 0.11323431E+00 0.50326139E+03</pdfrwt>
<totfact> 0.31577076E+04</totfact>
</mgrwt>
</event>
<event>
 7    0  0.4759581E-002  0.4554805E+03  0.7546771E-02  0.1026100E+00
         21   -1    0    0  502  501  0.00000000000E+00  0.00000000000E+00  0.23867125495E+03  0.23867125495E+03  0.00000000000E+00 0. -1.
         21   -1    0    0  501  502 -0.00000000000E+00 -0.00000000000E+00 -0.21730990512E+03  0.21730990512E+03  0.00000000000E+00 0. -1.
      99926    2    1    2    0    0 -0.88817841970E-15  0.00000000000E+00  0.21361349831E+02  0.45598116006E+03  0.45548052765E+03 0.  0.
      99925    2    3    3    0    0  0.65658541417E+01  0.43640400813E+02 -0.91378888547E+02  0.28189651263E+03  0.26299799911E+03 0.  0.
         25    1    4    4    0    0  0.28196491560E+02  0.47922291583E+02 -0.27130908809E+02  0.13955351117E+03  0.12509000000E+03 0.  0.
         25    1    3    3    0    0 -0.65658541417E+01 -0.43640400813E+02  0.11274023838E+03  0.17408464744E+03  0.12509000000E+03 0.  0.
         25    1    4    4    0    0 -0.21630637418E+02 -0.42818907694E+01 -0.64247979738E+02  0.14234300146E+03  0.12509000000E+03 0.  0.
<mgrwt>
<rscale>  2 0.45548053E+03</rscale>
<asrwt>0</asrwt>
<pdfrwt beam="1">  1       21 0.35098714E-01 0.45548053E+03</pdfrwt>
<pdfrwt beam="2">  1       21 0.31957339E-01 0.45548053E+03</pdfrwt>
<totfact> 0.68212093E+04</totfact>
</mgrwt>
</event>
<event>
 7    0  0.4759581E-002  0.4229990E+03  0.7546771E-02  0.1036095E+00
         21   -1    0    0  502  501  0.00000000000E+00  0.00000000000E+00  0.21347234996E+03  0.21347234996E+03  0.00000000000E+00 0.  1.
         21   -1    0    0  501  502 -0.00000000000E+00 -0.00000000000E+00 -0.20954486819E+03  0.20954486819E+03  0.00000000000E+00 0.  1.
      99926    2    1    2    0    0  0.00000000000E+00  0.00000000000E+00  0.39274817696E+01  0.42301721815E+03  0.42299898550E+03 0.  0.
      99925    2    3    3    0    0 -0.33011373431E+02 -0.18240552581E+02  0.72550297224E+02  0.27543989118E+03  0.26302303985E+03 0.  0.
         25    1    3    3    0    0  0.33011373431E+02  0.18240552581E+02 -0.68622815455E+02  0.14757732697E+03  0.12509000000E+03 0.  0.
         25    1    4    4    0    0 -0.25868241806E+01 -0.36777799021E+02  0.63533564924E+02  0.14506315911E+03  0.12509000000E+03 0.  0.
         25    1    4    4    0    0 -0.30424549251E+02  0.18537246440E+02  0.90167323003E+01  0.13037673207E+03  0.12509000000E+03 0.  0.
<mgrwt>
<rscale>  2 0.42299899E+03</rscale>
<asrwt>0</asrwt>
<pdfrwt beam="1">  1       21 0.31392993E-01 0.42299899E+03</pdfrwt>
<pdfrwt beam="2">  1       21 0.30815422E-01 0.42299899E+03</pdfrwt>
<totfact> 0.92385600E+04</totfact>
</mgrwt>
</event>
<event>
 7    0  0.4759581E-002  0.4651851E+03  0.7546771E-02  0.1023288E+00
         21   -1    0    0  502  501  0.00000000000E+00  0.00000000000E+00  0.25560201088E+03  0.25560201088E+03  0.00000000000E+00 0. -1.
         21   -1    0    0  501  502 -0.00000000000E+00 -0.00000000000E+00 -0.21165439331E+03  0.21165439331E+03  0.00000000000E+00 0. -1.
      99926    2    1    2    0    0  0.00000000000E+00  0.00000000000E+00  0.43947617565E+02  0.46725640419E+03  0.46518507518E+03 0.  0.
      99925    2    3    3    0    0 -0.65108373441E+02  0.84528487046E+02 -0.33018583014E+02  0.28571999036E+03  0.26298578033E+03 0.  0.
         25    1    4    4    0    0  0.47637958911E+01  0.51709551646E+02 -0.18158393831E+01  0.13545248929E+03  0.12509000000E+03 0.  0.
         25    1    3    3    0    0  0.65108373441E+02 -0.84528487046E+02  0.76966200579E+02  0.18153641383E+03  0.12509000000E+03 0.  0.
         25    1    4    4    0    0 -0.69872169332E+02  0.32818935400E+02 -0.31202743631E+02  0.15026750107E+03  0.12509000000E+03 0.  0.
<mgrwt>
<rscale>  2 0.46518508E+03</rscale>
<asrwt>0</asrwt>
<pdfrwt beam="1">  1       21 0.37588531E-01 0.46518508E+03</pdfrwt>
<pdfrwt beam="2">  1       21 0.31125646E-01 0.46518508E+03</pdfrwt>
<totfact> 0.62427685E+04</totfact>
</mgrwt>
</event>
<event>
 7    0  0.4759581E-002  0.4295834E+03  0.7546771E-02  0.1033992E+00
         21   -1    0    0  502  501  0.00000000000E+00  0.00000000000E+00  0.46567139595E+03  0.46567139595E+03  0.00000000000E+00 0. -1.
         21   -1    0    0  501  502 -0.00000000000E+00 -0.00000000000E+00 -0.99073036348E+02  0.99073036348E+02  0.00000000000E+00 0. -1.
      99926    2    1    2    0    0  0.00000000000E+00 -0.35527136788E-14  0.36659835960E+03  0.56474443230E+03  0.42958342211E+03 0.  0.
      99925    2    3    3    0    0  0.64330327449E+02  0.29888160369E+02  0.16955702144E+03  0.32080901010E+03  0.26293943082E+03 0.  0.
         25    1    4    4    0    0  0.27769445310E+02  0.55088710679E+02  0.81989122455E+02  0.16178885140E+03  0.12509000000E+03 0.  0.
         25    1    3    3    0    0 -0.64330327449E+02 -0.29888160369E+02  0.19704133817E+03  0.24393542220E+03  0.12509000000E+03 0.  0.
         25    1    4    4    0    0  0.36560882139E+02 -0.25200550310E+02  0.87567898983E+02  0.15902015869E+03  0.12509000000E+03 0.  0.
<mgrwt>
<rscale>  2 0.42958342E+03</rscale>
<asrwt>0</asrwt>
<pdfrwt beam="1">  1       21 0.68481087E-01 0.42958342E+03</pdfrwt>
<pdfrwt beam="2">  1       21 0.14569564E-01 0.42958342E+03</pdfrwt>
<totfact> 0.74851397E+04</totfact>
</mgrwt>
</event>
<event>
 7    0  0.4759581E-002  0.4579252E+03  0.7546771E-02  0.1025385E+00
         21   -1    0    0  502  501  0.00000000000E+00  0.00000000000E+00  0.16484860650E+03  0.16484860650E+03  0.00000000000E+00 0.  1.
         21   -1    0    0  501  502 -0.00000000000E+00 -0.00000000000E+00 -0.31801216397E+03  0.31801216397E+03  0.00000000000E+00 0.  1.
      99926    2    1    2    0    0  0.00000000000E+00  0.00000000000E+00 -0.15316355748E+03  0.48286077047E+03  0.45792515580E+03 0.  0.
      99925    2    3    3    0    0  0.79265354169E+02  0.81262599477E+02 -0.12071234055E+03  0.31085147995E+03  0.26300297903E+03 0.  0.
         25    1    4    4    0    0  0.27537060720E+02  0.77001150269E+02 -0.79558362350E+02  0.16930595966E+03  0.12509000000E+03 0.  0.
         25    1    3    3    0    0 -0.79265354169E+02 -0.81262599477E+02 -0.32451216929E+02  0.17200929052E+03  0.12509000000E+03 0.  0.
         25    1    4    4    0    0  0.51728293449E+02  0.42614492075E+01 -0.41153978197E+02  0.14154552029E+03  0.12509000000E+03 0.  0.
<mgrwt>
<rscale>  2 0.45792516E+03</rscale>
<asrwt>0</asrwt>
<pdfrwt beam="1">  1       21 0.24242442E-01 0.45792516E+03</pdfrwt>
<pdfrwt beam="2">  1       21 0.46766494E-01 0.45792516E+03</pdfrwt>
<totfact> 0.64970726E+04</totfact>
</mgrwt>
</event>
<event>
 7    0  0.4759581E-002  0.4542389E+03  0.7546771E-02  0.1026465E+00
         21   -1    0    0  502  501  0.00000000000E+00  0.00000000000E+00  0.15868894127E+02  0.15868894127E+02  0.00000000000E+00 0. -1.
         21   -1    0    0  501  502 -0.00000000000E+00 -0.00000000000E+00 -0.32505887116E+04  0.32505887116E+04  0.00000000000E+00 0. -1.
      99926    2    1    2    0    0  0.00000000000E+00  0.00000000000E+00 -0.32347198175E+04  0.32664576057E+04  0.45423891562E+03 0.  0.
      99925    2    3    3    0    0  0.84987954723E+02 -0.62870989830E+02 -0.17711539883E+04  0.17937566319E+04  0.26344010799E+03 0.  0.
         25    1    4    4    0    0  0.17702354686E+02 -0.62625761203E+02 -0.81446280959E+03  0.82657881393E+03  0.12509000000E+03 0.  0.
         25    1    3    3    0    0 -0.84987954723E+02  0.62870989830E+02 -0.14635658292E+04  0.14727009739E+04  0.12509000000E+03 0.  0.
         25    1    4    4    0    0  0.67285600037E+02 -0.24522862770E+00 -0.95669117866E+03  0.96717781795E+03  0.12509000000E+03 0.  0.
<mgrwt>
<rscale>  2 0.45423892E+03</rscale>
<asrwt>0</asrwt>
<pdfrwt beam="1">  1       21 0.23336611E-02 0.45423892E+03</pdfrwt>
<pdfrwt beam="2">  1       21 0.47802771E+00 0.45423892E+03</pdfrwt>
<totfact> 0.20289961E+03</totfact>
</mgrwt>
</event>
<event>
 7    0  0.4759581E-002  0.4460559E+03  0.7546771E-02  0.1028905E+00
         21   -1    0    0  502  501  0.00000000000E+00  0.00000000000E+00  0.21423076421E+03  0.21423076421E+03  0.00000000000E+00 0.  1.
         21   -1    0    0  501  502 -0.00000000000E+00 -0.00000000000E+00 -0.23218639110E+03  0.23218639110E+03  0.00000000000E+00 0.  1.
      99926    2    1    2    0    0  0.00000000000E+00 -0.14210854715E-13 -0.17955626893E+02  0.44641715531E+03  0.44605590683E+03 0.  0.
      99925    2    3    3    0    0 -0.11559782748E+02  0.10385639538E+03 -0.11639113922E+02  0.28330006278E+03  0.26306591790E+03 0.  0.
         25    1    4    4    0    0 -0.53571858887E+01  0.58664033376E+02 -0.46127589112E+02  0.14575812440E+03  0.12509000000E+03 0.  0.
         25    1    3    3    0    0  0.11559782748E+02 -0.10385639538E+03 -0.63165129715E+01  0.16311709253E+03  0.12509000000E+03 0.  0.
         25    1    4    4    0    0 -0.62025968589E+01  0.45192362005E+02  0.34488475190E+02  0.13754193838E+03  0.12509000000E+03 0.  0.
<mgrwt>
<rscale>  2 0.44605591E+03</rscale>
<asrwt>0</asrwt>
<pdfrwt beam="1">  1       21 0.31504524E-01 0.44605591E+03</pdfrwt>
<pdfrwt beam="2">  1       21 0.34145057E-01 0.44605591E+03</pdfrwt>
<totfact> 0.74344775E+04</totfact>
</mgrwt>
</event>
<event>
 7    0  0.4759581E-002  0.4557315E+03  0.7546771E-02  0.1026027E+00
         21   -1    0    0  502  501  0.00000000000E+00  0.00000000000E+00  0.28315870424E+03  0.28315870424E+03  0.00000000000E+00 0.  1.
         21   -1    0    0  501  502 -0.00000000000E+00 -0.00000000000E+00 -0.18336992226E+03  0.18336992226E+03  0.00000000000E+00 0.  1.
      99926    2    1    2    0    0  0.14210854715E-13  0.00000000000E+00  0.99788781985E+02  0.46652862650E+03  0.45573145419E+03 0.  0.
      99925    2    3    3    0    0 -0.71850537546E+02  0.59930666349E+02  0.12913153792E+03  0.30758621574E+03  0.26302118073E+03 0.  0.
         25    1    3    3    0    0  0.71850537546E+02 -0.59930666349E+02 -0.29342755930E+02  0.15894241077E+03  0.12509000000E+03 0.  0.
         25    1    4    4    0    0 -0.22763504146E+02 -0.75789876779E+01  0.43854845830E+02  0.13470847701E+03  0.12509000000E+03 0.  0.
         25    1    4    4    0    0 -0.49087033401E+02  0.67509654027E+02  0.85276692085E+02  0.17287773873E+03  0.12509000000E+03 0.  0.
<mgrwt>
<rscale>  2 0.45573145E+03</rscale>
<asrwt>0</asrwt>
<pdfrwt beam="1">  1       21 0.41640986E-01 0.45573145E+03</pdfrwt>
<pdfrwt beam="2">  1       21 0.26966165E-01 0.45573145E+03</pdfrwt>
<totfact> 0.67303911E+04</totfact>
</mgrwt>
</event>
<event>
 7    0  0.4759581E-002  0.4560506E+03  0.7546771E-02  0.1025933E+00
         21   -1    0    0  502  501  0.00000000000E+00  0.00000000000E+00  0.61278169912E+02  0.61278169912E+02  0.00000000000E+00 0. -1.
         21   -1    0    0  501  502 -0.00000000000E+00 -0.00000000000E+00 -0.84851662511E+03  0.84851662511E+03  0.00000000000E+00 0. -1.
      99926    2    1    2    0    0 -0.71054273576E-14  0.00000000000E+00 -0.78723845520E+03  0.90979479502E+03  0.45605063722E+03 0.  0.
      99925    2    3    3    0    0 -0.39388640887E+02  0.95962027855E+02 -0.58982636544E+03  0.65410119498E+03  0.26304573002E+03 0.  0.
         25    1    4    4    0    0 -0.55314392368E+02  0.56913518304E+02 -0.26732724964E+03  0.30563081826E+03  0.12509000000E+03 0.  0.
         25    1    4    4    0    0  0.15925751481E+02  0.39048509551E+02 -0.32249911580E+03  0.34847037672E+03  0.12509000000E+03 0.  0.
         25    1    3    3    0    0  0.39388640887E+02 -0.95962027855E+02 -0.19741208975E+03  0.25569360004E+03  0.12509000000E+03 0.  0.
<mgrwt>
<rscale>  2 0.45605064E+03</rscale>
<asrwt>0</asrwt>
<pdfrwt beam="1">  1       21 0.90114967E-02 0.45605064E+03</pdfrwt>
<pdfrwt beam="2">  1       21 0.12478184E+00 0.45605064E+03</pdfrwt>
<totfact> 0.42462633E+04</totfact>
</mgrwt>
</event>
<event>
 7    0  0.4759581E-002  0.4241158E+03  0.7546771E-02  0.1035735E+00
         21   -1    0    0  502  501  0.00000000000E+00  0.00000000000E+00  0.61710986563E+03  0.61710986563E+03  0.00000000000E+00 0. -1.
         21   -1    0    0  501  502 -0.00000000000E+00 -0.00000000000E+00 -0.72869615841E+02  0.72869615841E+02  0.00000000000E+00 0. -1.
      99926    2    1    2    0    0  0.00000000000E+00  0.00000000000E+00  0.54424024979E+03  0.68997948147E+03  0.42411582777E+03 0.  0.
      99925    2    3    3    0    0  0.66786627999E+02 -0.30134197547E+02  0.29751088929E+03  0.40381273118E+03  0.26302750631E+03 0.  0.
         25    1    4    4    0    0  0.36045047188E+02  0.25600435656E+02  0.14677625359E+03  0.19785197611E+03  0.12509000000E+03 0.  0.
         25    1    3    3    0    0 -0.66786627999E+02  0.30134197547E+02  0.24672936050E+03  0.28616675030E+03  0.12509000000E+03 0.  0.
         25    1    4    4    0    0  0.30741580811E+02 -0.55734633203E+02  0.15073463570E+03  0.20596075507E+03  0.12509000000E+03 0.  0.
<mgrwt>
<rscale>  2 0.42411583E+03</rscale>
<asrwt>0</asrwt>
<pdfrwt beam="1">  1       21 0.90751448E-01 0.42411583E+03</pdfrwt>
<pdfrwt beam="2">  1       21 0.10716120E-01 0.42411583E+03</pdfrwt>
<totfact> 0.68687262E+04</totfact>
</mgrwt>
</event>
<event>
 7    0  0.4759581E-002  0.4579094E+03  0.7546771E-02  0.1025389E+00
         21   -1    0    0  502  501  0.00000000000E+00  0.00000000000E+00  0.26264735668E+03  0.26264735668E+03  0.00000000000E+00 0.  1.
         21   -1    0    0  501  502 -0.00000000000E+00 -0.00000000000E+00 -0.19958416442E+03  0.19958416442E+03  0.00000000000E+00 0.  1.
      99926    2    1    2    0    0  0.00000000000E+00  0.71054273576E-14  0.63063192254E+02  0.46223152110E+03  0.45790939375E+03 0.  0.
      99925    2    3    3    0    0  0.21331401900E+02  0.49162205066E+02 -0.64101432659E+02  0.27597819618E+03  0.26302665261E+03 0.  0.
         25    1    4    4    0    0  0.39980541182E+02  0.39304552128E+02 -0.81225991257E+01  0.13731997745E+03  0.12509000000E+03 0.  0.
         25    1    3    3    0    0 -0.21331401900E+02 -0.49162205066E+02  0.12716462491E+03  0.18625332492E+03  0.12509000000E+03 0.  0.
         25    1    4    4    0    0 -0.18649139282E+02  0.98576529374E+01 -0.55978833533E+02  0.13865821873E+03  0.12509000000E+03 0.  0.
<mgrwt>
<rscale>  2 0.45790939E+03</rscale>
<asrwt>0</asrwt>
<pdfrwt beam="1">  1       21 0.38624612E-01 0.45790939E+03</pdfrwt>
<pdfrwt beam="2">  1       21 0.29350612E-01 0.45790939E+03</pdfrwt>
<totfact> 0.66462758E+04</totfact>
</mgrwt>
</event>
<event>
 7    0  0.4759581E-002  0.4675207E+03  0.7546771E-02  0.1022622E+00
         21   -1    0    0  502  501  0.00000000000E+00  0.00000000000E+00  0.48012208188E+03  0.48012208188E+03  0.00000000000E+00 0. -1.
         21   -1    0    0  501  502 -0.00000000000E+00 -0.00000000000E+00 -0.11381250485E+03  0.11381250485E+03  0.00000000000E+00 0. -1.
      99926    2    1    2    0    0  0.00000000000E+00  0.00000000000E+00  0.36630957703E+03  0.59393458673E+03  0.46752068092E+03 0.  0.
      99925    2    3    3    0    0  0.22314266609E+02 -0.56789613481E+02  0.89945045433E+02  0.28450309331E+03  0.26292377643E+03 0.  0.
         25    1    3    3    0    0 -0.22314266609E+02  0.56789613481E+02  0.27636453159E+03  0.30943149341E+03  0.12509000000E+03 0.  0.
         25    1    4    4    0    0  0.33417599091E+02 -0.18369037066E+02  0.78854888958E+02  0.15270808448E+03  0.12509000000E+03 0.  0.
         25    1    4    4    0    0 -0.11103332481E+02 -0.38420576415E+02  0.11090156475E+02  0.13179500884E+03  0.12509000000E+03 0.  0.
<mgrwt>
<rscale>  2 0.46752068E+03</rscale>
<asrwt>0</asrwt>
<pdfrwt beam="1">  1       21 0.70606188E-01 0.46752068E+03</pdfrwt>
<pdfrwt beam="2">  1       21 0.16737133E-01 0.46752068E+03</pdfrwt>
<totfact> 0.53553887E+04</totfact>
</mgrwt>
</event>
<event>
 7    0  0.4759581E-002  0.4569339E+03  0.7546771E-02  0.1025674E+00
         21   -1    0    0  502  501  0.00000000000E+00  0.00000000000E+00  0.70981695029E+03  0.70981695029E+03  0.00000000000E+00 0. -1.
         21   -1    0    0  501  502 -0.00000000000E+00 -0.00000000000E+00 -0.73536081103E+02  0.73536081103E+02  0.00000000000E+00 0. -1.
      99926    2    1    2    0    0  0.00000000000E+00  0.00000000000E+00  0.63628086919E+03  0.78335303139E+03  0.45693394194E+03 0.  0.
      99925    2    3    3    0    0  0.39935644070E+02  0.63001187410E+02  0.24980009339E+03  0.37034104192E+03  0.26303687079E+03 0.  0.
         25    1    4    4    0    0  0.49153871182E+02  0.26488526796E+02  0.89853937157E+02  0.16382607615E+03  0.12509000000E+03 0.  0.
         25    1    4    4    0    0 -0.92182271117E+01  0.36512660613E+02  0.15994615623E+03  0.20651496577E+03  0.12509000000E+03 0.  0.
         25    1    3    3    0    0 -0.39935644070E+02 -0.63001187410E+02  0.38648077580E+03  0.41301198947E+03  0.12509000000E+03 0.  0.
<mgrwt>
<rscale>  2 0.45693394E+03</rscale>
<asrwt>0</asrwt>
<pdfrwt beam="1">  1       21 0.10438484E+00 0.45693394E+03</pdfrwt>
<pdfrwt beam="2">  1       21 0.10814130E-01 0.45693394E+03</pdfrwt>
<totfact> 0.47850105E+04</totfact>
</mgrwt>
</event>
<event>
 7    0  0.4759581E-002  0.4481502E+03  0.7546771E-02  0.1028275E+00
         21   -1    0    0  502  501  0.00000000000E+00  0.00000000000E+00  0.10158395413E+04  0.10158395413E+04  0.00000000000E+00 0. -1.
         21   -1    0    0  501  502 -0.00000000000E+00 -0.00000000000E+00 -0.49426744289E+02  0.49426744289E+02  0.00000000000E+00 0. -1.
      99926    2    1    2    0    0  0.00000000000E+00 -0.14210854715E-13  0.96641279697E+03  0.10652662855E+04  0.44815015896E+03 0.  0.
      99925    2    3    3    0    0 -0.41656896737E+02  0.72866166666E+02  0.45618750969E+03  0.53326804573E+03  0.26310262125E+03 0.  0.
         25    1    4    4    0    0  0.68423473693E+01  0.12504994860E+02  0.17072908227E+03  0.21212996075E+03  0.12509000000E+03 0.  0.
         25    1    4    4    0    0 -0.48499244106E+02  0.60361171806E+02  0.28545842743E+03  0.32113808499E+03  0.12509000000E+03 0.  0.
         25    1    3    3    0    0  0.41656896737E+02 -0.72866166666E+02  0.51022528727E+03  0.53199823981E+03  0.12509000000E+03 0.  0.
<mgrwt>
<rscale>  2 0.44815016E+03</rscale>
<asrwt>0</asrwt>
<pdfrwt beam="1">  1       21 0.14938815E+00 0.44815016E+03</pdfrwt>
<pdfrwt beam="2">  1       21 0.72686395E-02 0.44815016E+03</pdfrwt>
<totfact> 0.38752643E+04</totfact>
</mgrwt>
</event>
<event>
 7    0  0.4759581E-002  0.4518229E+03  0.7546771E-02  0.1027180E+00
         21   -1    0    0  502  501  0.00000000000E+00  0.00000000000E+00  0.75107162547E+02  0.75107162547E+02  0.00000000000E+00 0.  1.
         21   -1    0    0  501  502 -0.00000000000E+00 -0.00000000000E+00 -0.67950876368E+03  0.67950876368E+03  0.00000000000E+00 0.  1.
      99926    2    1    2    0    0 -0.14210854715E-13 -0.71054273576E-14 -0.60440160113E+03  0.75461592623E+03  0.45182286426E+03 0.  0.
      99925    2    3    3    0    0 -0.67279840184E+02  0.52680009208E+02 -0.49759448215E+03  0.56925943449E+03  0.26297200387E+03 0.  0.
         25    1    3    3    0    0  0.67279840184E+02 -0.52680009208E+02 -0.10680711898E+03  0.18535649174E+03  0.12509000000E+03 0.  0.
         25    1    4    4    0    0 -0.13482771205E+01  0.18414145738E+01 -0.20062708156E+03  0.23644014594E+03  0.12509000000E+03 0.  0.
         25    1    4    4    0    0 -0.65931563064E+02  0.50838594634E+02 -0.29696740060E+03  0.33281928855E+03  0.12509000000E+03 0.  0.
<mgrwt>
<rscale>  2 0.45182286E+03</rscale>
<asrwt>0</asrwt>
<pdfrwt beam="1">  1       21 0.11045171E-01 0.45182286E+03</pdfrwt>
<pdfrwt beam="2">  1       21 0.99927757E-01 0.45182286E+03</pdfrwt>
<totfact> 0.51305001E+04</totfact>
</mgrwt>
</event>
<event>
 7    0  0.4759581E-002  0.4545448E+03  0.7546771E-02  0.1026375E+00
         21   -1    0    0  502  501  0.00000000000E+00  0.00000000000E+00  0.50633267518E+02  0.50633267518E+02  0.00000000000E+00 0. -1.
         21   -1    0    0  501  502 -0.00000000000E+00 -0.00000000000E+00 -0.10201346164E+04  0.10201346164E+04  0.00000000000E+00 0. -1.
      99926    2    1    2    0    0  0.00000000000E+00 -0.17763568394E-14 -0.96950134886E+03  0.10707678839E+04  0.45454482259E+03 0.  0.
      99925    2    3    3    0    0 -0.11215661791E+03  0.11358052824E+02 -0.61675043804E+03  0.67988577188E+03  0.26297423387E+03 0.  0.
         25    1    4    4    0    0 -0.42595760544E+02  0.28459326041E+02 -0.22531371781E+03  0.26275104489E+03  0.12509000000E+03 0.  0.
         25    1    4    4    0    0 -0.69560857370E+02 -0.17101273217E+02 -0.39143672023E+03  0.41713472699E+03  0.12509000000E+03 0.  0.
         25    1    3    3    0    0  0.11215661791E+03 -0.11358052824E+02 -0.35275091082E+03  0.39088211201E+03  0.12509000000E+03 0.  0.
<mgrwt>
<rscale>  2 0.45454482E+03</rscale>
<asrwt>0</asrwt>
<pdfrwt beam="1">  1       21 0.74460687E-02 0.45454482E+03</pdfrwt>
<pdfrwt beam="2">  1       21 0.15001980E+00 0.45454482E+03</pdfrwt>
<totfact> 0.36654490E+04</totfact>
</mgrwt>
</event>
<event>
 7    0  0.4759581E-002  0.4569656E+03  0.7546771E-02  0.1025665E+00
         21   -1    0    0  502  501  0.00000000000E+00  0.00000000000E+00  0.78963687611E+03  0.78963687611E+03  0.00000000000E+00 0. -1.
         21   -1    0    0  501  502 -0.00000000000E+00 -0.00000000000E+00 -0.66111894661E+02  0.66111894661E+02  0.00000000000E+00 0. -1.
      99926    2    1    2    0    0  0.00000000000E+00  0.00000000000E+00  0.72352498145E+03  0.85574877077E+03  0.45696560034E+03 0.  0.
      99925    2    3    3    0    0  0.45791392933E+02  0.43070791264E+02  0.63486793981E+03  0.69003961635E+03  0.26295517946E+03 0.  0.
         25    1    4    4    0    0  0.14309499714E+02  0.24600119568E+02  0.21446759714E+03  0.24990755488E+03  0.12509000000E+03 0.  0.
         25    1    3    3    0    0 -0.45791392933E+02 -0.43070791264E+02  0.88657041638E+02  0.16570915442E+03  0.12509000000E+03 0.  0.
         25    1    4    4    0    0  0.31481893219E+02  0.18470671696E+02  0.42040034267E+03  0.44013206146E+03  0.12509000000E+03 0.  0.
<mgrwt>
<rscale>  2 0.45696560E+03</rscale>
<asrwt>0</asrwt>
<pdfrwt beam="1">  1       21 0.11612306E+00 0.45696560E+03</pdfrwt>
<pdfrwt beam="2">  1       21 0.97223379E-02 0.45696560E+03</pdfrwt>
<totfact> 0.44493306E+04</totfact>
</mgrwt>
</event>
<event>
 7    0  0.4759581E-002  0.4506273E+03  0.7546771E-02  0.1027535E+00
         21   -1    0    0  502  501  0.00000000000E+00  0.00000000000E+00  0.10662596743E+03  0.10662596743E+03  0.00000000000E+00 0.  1.
         21   -1    0    0  501  502 -0.00000000000E+00 -0.00000000000E+00 -0.47611508336E+03  0.47611508336E+03  0.00000000000E+00 0.  1.
      99926    2    1    2    0    0  0.00000000000E+00  0.00000000000E+00 -0.36948911593E+03  0.58274105080E+03  0.45062725782E+03 0.  0.
      99925    2    3    3    0    0 -0.24168421789E+02  0.89503270303E+02 -0.30758666462E+03  0.41518697121E+03  0.26301276928E+03 0.  0.
         25    1    3    3    0    0  0.24168421789E+02 -0.89503270303E+02 -0.61902451311E+02  0.16755407958E+03  0.12509000000E+03 0.  0.
         25    1    4    4    0    0  0.42707277479E+01  0.17440758257E+02 -0.10215185458E+03  0.16249593428E+03  0.12509000000E+03 0.  0.
         25    1    4    4    0    0 -0.28439149537E+02  0.72062512047E+02 -0.20543481004E+03  0.25269103693E+03  0.12509000000E+03 0.  0.
<mgrwt>
<rscale>  2 0.45062726E+03</rscale>
<asrwt>0</asrwt>
<pdfrwt beam="1">  1       21 0.15680289E-01 0.45062726E+03</pdfrwt>
<pdfrwt beam="2">  1       21 0.70016924E-01 0.45062726E+03</pdfrwt>
<totfact> 0.61864235E+04</totfact>
</mgrwt>
</event>
<event>
 7    0  0.4759581E-002  0.4543794E+03  0.7546771E-02  0.1026424E+00
         21   -1    0    0  502  501  0.00000000000E+00  0.00000000000E+00  0.97611274290E+03  0.97611274290E+03  0.00000000000E+00 0. -1.
         21   -1    0    0  501  502 -0.00000000000E+00 -0.00000000000E+00 -0.52878271383E+02  0.52878271383E+02  0.00000000000E+00 0. -1.
      99926    2    1    2    0    0  0.00000000000E+00  0.00000000000E+00  0.92323447152E+03  0.10289910143E+04  0.45437937682E+03 0.  0.
      99925    2    3    3    0    0 -0.10370610650E+03 -0.24154227713E+02  0.49908663539E+03  0.57414238207E+03  0.26308481905E+03 0.  0.
         25    1    4    4    0    0 -0.28163915209E+02 -0.27455209355E+02  0.29772190687E+03  0.32531959143E+03  0.12509000000E+03 0.  0.
         25    1    3    3    0    0  0.10370610650E+03  0.24154227713E+02  0.42414783613E+03  0.45484863222E+03  0.12509000000E+03 0.  0.
         25    1    4    4    0    0 -0.75542191291E+02  0.33009816413E+01  0.20136472852E+03  0.24882279063E+03  0.12509000000E+03 0.  0.
<mgrwt>
<rscale>  2 0.45437938E+03</rscale>
<asrwt>0</asrwt>
<pdfrwt beam="1">  1       21 0.14354598E+00 0.45437938E+03</pdfrwt>
<pdfrwt beam="2">  1       21 0.77762170E-02 0.45437938E+03</pdfrwt>
<totfact> 0.38242809E+04</totfact>
</mgrwt>
</event>
<event>
 7    0  0.4759581E-002  0.4578181E+03  0.7546771E-02  0.1025416E+00
         21   -1    0    0  502  501  0.00000000000E+00  0.00000000000E+00  0.10189278462E+03  0.10189278462E+03  0.00000000000E+00 0.  1.
         21   -1    0    0  501  502 -0.00000000000E+00 -0.00000000000E+00 -0.51425977863E+03  0.51425977863E+03  0.00000000000E+00 0.  1.
      99926    2    1    2    0    0  0.00000000000E+00  0.00000000000E+00 -0.41236699402E+03  0.61615256325E+03  0.45781813359E+03 0.  0.
      99925    2    3    3    0    0  0.19562279289E+02 -0.95603549090E+02 -0.34303076146E+03  0.44301174595E+03  0.26280521756E+03 0.  0.
         25    1    3    3    0    0 -0.19562279289E+02  0.95603549090E+02 -0.69336232558E+02  0.17314081730E+03  0.12509000000E+03 0.  0.
         25    1    4    4    0    0  0.31351075320E+02 -0.77971254322E+02 -0.15502925832E+03  0.21620357412E+03  0.12509000000E+03 0.  0.
         25    1    4    4    0    0 -0.11788796031E+02 -0.17632294768E+02 -0.18800150313E+03  0.22680817183E+03  0.12509000000E+03 0.  0.
<mgrwt>
<rscale>  2 0.45781813E+03</rscale>
<asrwt>0</asrwt>
<pdfrwt beam="1">  1       21 0.14984233E-01 0.45781813E+03</pdfrwt>
<pdfrwt beam="2">  1       21 0.75626436E-01 0.45781813E+03</pdfrwt>
<totfact> 0.56428468E+04</totfact>
</mgrwt>
</event>
<event>
 7    0  0.4759581E-002  0.4519246E+03  0.7546771E-02  0.1027150E+00
         21   -1    0    0  502  501  0.00000000000E+00  0.00000000000E+00  0.11430243856E+04  0.11430243856E+04  0.00000000000E+00 0.  1.
         21   -1    0    0  501  502 -0.00000000000E+00 -0.00000000000E+00 -0.44670045337E+02  0.44670045337E+02  0.00000000000E+00 0.  1.
      99926    2    1    2    0    0  0.00000000000E+00 -0.14210854715E-13  0.10983543402E+04  0.11876944309E+04  0.45192455620E+03 0.  0.
      99925    2    3    3    0    0  0.65542089059E+02  0.88512368333E+02  0.67354456163E+03  0.73136005692E+03  0.26285937603E+03 0.  0.
         25    1    4    4    0    0 -0.19506664046E+01  0.21799698744E+02  0.27103973422E+03  0.29931434578E+03  0.12509000000E+03 0.  0.
         25    1    4    4    0    0  0.67492755464E+02  0.66712669588E+02  0.40250482741E+03  0.43204571114E+03  0.12509000000E+03 0.  0.
         25    1    3    3    0    0 -0.65542089059E+02 -0.88512368333E+02  0.42480977859E+03  0.45633437398E+03  0.12509000000E+03 0.  0.
<mgrwt>
<rscale>  2 0.45192456E+03</rscale>
<asrwt>0</asrwt>
<pdfrwt beam="1">  1       21 0.16809180E+00 0.45192456E+03</pdfrwt>
<pdfrwt beam="2">  1       21 0.65691250E-02 0.45192456E+03</pdfrwt>
<totfact> 0.33340120E+04</totfact>
</mgrwt>
</event>
<event>
 7    0  0.4759581E-002  0.4448765E+03  0.7546771E-02  0.1029261E+00
         21   -1    0    0  502  501  0.00000000000E+00  0.00000000000E+00  0.56202960676E+03  0.56202960676E+03  0.00000000000E+00 0.  1.
         21   -1    0    0  501  502 -0.00000000000E+00 -0.00000000000E+00 -0.88035884161E+02  0.88035884161E+02  0.00000000000E+00 0.  1.
      99926    2    1    2    0    0  0.14210854715E-13 -0.26645352591E-14  0.47399372260E+03  0.65006549092E+03  0.44487649233E+03 0.  0.
      99925    2    3    3    0    0  0.79062604395E+02 -0.42707955371E+01  0.20392043824E+03  0.34207811759E+03  0.26299193579E+03 0.  0.
         25    1    4    4    0    0  0.45199240142E+02  0.15691484347E+02  0.14779658805E+03  0.19945057916E+03  0.12509000000E+03 0.  0.
         25    1    4    4    0    0  0.33863364253E+02 -0.19962279884E+02  0.56123850194E+02  0.14262753843E+03  0.12509000000E+03 0.  0.
         25    1    3    3    0    0 -0.79062604395E+02  0.42707955371E+01  0.27007328436E+03  0.30798737334E+03  0.12509000000E+03 0.  0.
<mgrwt>
<rscale>  2 0.44487649E+03</rscale>
<asrwt>0</asrwt>
<pdfrwt beam="1">  1       21 0.82651411E-01 0.44487649E+03</pdfrwt>
<pdfrwt beam="2">  1       21 0.12946454E-01 0.44487649E+03</pdfrwt>
<totfact> 0.60376666E+04</totfact>
</mgrwt>
</event>
<event>
 7    0  0.4759581E-002  0.4560126E+03  0.7546771E-02  0.1025944E+00
         21   -1    0    0  502  501  0.00000000000E+00  0.00000000000E+00  0.27010176915E+03  0.27010176915E+03  0.00000000000E+00 0.  1.
         21   -1    0    0  501  502 -0.00000000000E+00 -0.00000000000E+00 -0.19247144854E+03  0.19247144854E+03  0.00000000000E+00 0.  1.
      99926    2    1    2    0    0  0.14210854715E-13  0.71054273576E-14  0.77630320612E+02  0.46257321769E+03  0.45601262597E+03 0.  0.
      99925    2    3    3    0    0 -0.10704407538E+03 -0.36833231662E+02  0.63650323533E+02  0.29328627357E+03  0.26296454808E+03 0.  0.
         25    1    4    4    0    0 -0.65610900980E+02 -0.19289080813E+02 -0.70135359364E+01  0.14273596867E+03  0.12509000000E+03 0.  0.
         25    1    3    3    0    0  0.10704407538E+03  0.36833231662E+02  0.13979997079E+02  0.16928694412E+03  0.12509000000E+03 0.  0.
         25    1    4    4    0    0 -0.41433174404E+02 -0.17544150849E+02  0.70663859469E+02  0.15055030490E+03  0.12509000000E+03 0.  0.
<mgrwt>
<rscale>  2 0.45601263E+03</rscale>
<asrwt>0</asrwt>
<pdfrwt beam="1">  1       21 0.39720849E-01 0.45601263E+03</pdfrwt>
<pdfrwt beam="2">  1       21 0.28304625E-01 0.45601263E+03</pdfrwt>
<totfact> 0.67446053E+04</totfact>
</mgrwt>
</event>
<event>
 7    0  0.4759581E-002  0.4432827E+03  0.7546771E-02  0.1029744E+00
         21   -1    0    0  502  501  0.00000000000E+00  0.00000000000E+00  0.18914974774E+03  0.18914974774E+03  0.00000000000E+00 0. -1.
         21   -1    0    0  501  502 -0.00000000000E+00 -0.00000000000E+00 -0.25971424072E+03  0.25971424072E+03  0.00000000000E+00 0. -1.
      99926    2    1    2    0    0 -0.14210854715E-13  0.00000000000E+00 -0.70564492980E+02  0.44886398847E+03  0.44328267784E+03 0.  0.
      99925    2    3    3    0    0  0.81713428400E+02 -0.41994293870E+02 -0.35899678144E+00  0.27852043885E+03  0.26293136154E+03 0.  0.
         25    1    3    3    0    0 -0.81713428400E+02  0.41994293870E+02 -0.70205496199E+02  0.17034354961E+03  0.12509000000E+03 0.  0.
         25    1    4    4    0    0  0.55612694138E+01 -0.22414253886E+02 -0.22320219102E+02  0.12914730650E+03  0.12509000000E+03 0.  0.
         25    1    4    4    0    0  0.76152158986E+02 -0.19580039984E+02  0.21961222321E+02  0.14937313236E+03  0.12509000000E+03 0.  0.
<mgrwt>
<rscale>  2 0.44328268E+03</rscale>
<asrwt>0</asrwt>
<pdfrwt beam="1">  1       21 0.27816139E-01 0.44328268E+03</pdfrwt>
<pdfrwt beam="2">  1       21 0.38193271E-01 0.44328268E+03</pdfrwt>
<totfact> 0.75842660E+04</totfact>
</mgrwt>
</event>
<event>
 7    0  0.4759581E-002  0.4466167E+03  0.7546771E-02  0.1028736E+00
         21   -1    0    0  502  501  0.00000000000E+00  0.00000000000E+00  0.10030821043E+04  0.10030821043E+04  0.00000000000E+00 0. -1.
         21   -1    0    0  501  502 -0.00000000000E+00 -0.00000000000E+00 -0.49713408237E+02  0.49713408237E+02  0.00000000000E+00 0. -1.
      99926    2    1    2    0    0  0.00000000000E+00 -0.71054273576E-14  0.95336869602E+03  0.10527955125E+04  0.44661674910E+03 0.  0.
      99925    2    3    3    0    0 -0.98481730745E+02 -0.32113139682E+02  0.64625728436E+03  0.70538389453E+03  0.26303622570E+03 0.  0.
         25    1    4    4    0    0 -0.57391848801E+02 -0.25480382891E+02  0.23512178559E+03  0.27362901232E+03  0.12509000000E+03 0.  0.
         25    1    4    4    0    0 -0.41089881944E+02 -0.66327567908E+01  0.41113549877E+03  0.43175488221E+03  0.12509000000E+03 0.  0.
         25    1    3    3    0    0  0.98481730745E+02  0.32113139682E+02  0.30711141165E+03  0.34741161797E+03  0.12509000000E+03 0.  0.
<mgrwt>
<rscale>  2 0.44661675E+03</rscale>
<asrwt>0</asrwt>
<pdfrwt beam="1">  1       21 0.14751206E+00 0.44661675E+03</pdfrwt>
<pdfrwt beam="2">  1       21 0.73107960E-02 0.44661675E+03</pdfrwt>
<totfact> 0.39710326E+04</totfact>
</mgrwt>
</event>
<event>
 7    0  0.4759581E-002  0.4446419E+03  0.7546771E-02  0.1029332E+00
         21   -1    0    0  502  501  0.00000000000E+00  0.00000000000E+00  0.12502339212E+03  0.12502339212E+03  0.00000000000E+00 0.  1.
         21   -1    0    0  501  502 -0.00000000000E+00 -0.00000000000E+00 -0.39533893521E+03  0.39533893521E+03  0.00000000000E+00 0.  1.
      99926    2    1    2    0    0  0.00000000000E+00 -0.14210854715E-13 -0.27031554309E+03  0.52036232734E+03  0.44464194457E+03 0.  0.
      99925    2    3    3    0    0 -0.57075350235E+02  0.85138068254E+02 -0.18514443756E+03  0.33758456177E+03  0.26301860640E+03 0.  0.
         25    1    3    3    0    0  0.57075350235E+02 -0.85138068254E+02 -0.85171105529E+02  0.18277776557E+03  0.12509000000E+03 0.  0.
         25    1    4    4    0    0 -0.44611338239E+02  0.55386159331E+01 -0.76663627651E+02  0.15344597639E+03  0.12509000000E+03 0.  0.
         25    1    4    4    0    0 -0.12464011996E+02  0.79599452320E+02 -0.10848080991E+03  0.18413858537E+03  0.12509000000E+03 0.  0.
<mgrwt>
<rscale>  2 0.44464194E+03</rscale>
<asrwt>0</asrwt>
<pdfrwt beam="1">  1       21 0.18385793E-01 0.44464194E+03</pdfrwt>
<pdfrwt beam="2">  1       21 0.58138078E-01 0.44464194E+03</pdfrwt>
<totfact> 0.69386354E+04</totfact>
</mgrwt>
</event>
<event>
 7    0  0.4759581E-002  0.4664113E+03  0.7546771E-02  0.1022938E+00
         21   -1    0    0  502  501  0.00000000000E+00  0.00000000000E+00  0.27546304423E+03  0.27546304423E+03  0.00000000000E+00 0.  1.
         21   -1    0    0  501  502 -0.00000000000E+00 -0.00000000000E+00 -0.19743072448E+03  0.19743072448E+03  0.00000000000E+00 0.  1.
      99926    2    1    2    0    0  0.14210854715E-13  0.14210854715E-13  0.78032319758E+02  0.47289376871E+03  0.46641127083E+03 0.  0.
      99925    2    3    3    0    0 -0.95611179871E+02 -0.78250488252E+02  0.46048705380E+02  0.29418983390E+03  0.26298771544E+03 0.  0.
         25    1    4    4    0    0 -0.77114529364E+02 -0.42995030842E+02 -0.53739575673E+01  0.15320447394E+03  0.12509000000E+03 0.  0.
         25    1    4    4    0    0 -0.18496650507E+02 -0.35255457409E+02  0.51422662948E+02  0.14098535996E+03  0.12509000000E+03 0.  0.
         25    1    3    3    0    0  0.95611179871E+02  0.78250488252E+02  0.31983614377E+02  0.17870393481E+03  0.12509000000E+03 0.  0.
<mgrwt>
<rscale>  2 0.46641127E+03</rscale>
<asrwt>0</asrwt>
<pdfrwt beam="1">  1       21 0.40509271E-01 0.46641127E+03</pdfrwt>
<pdfrwt beam="2">  1       21 0.29033930E-01 0.46641127E+03</pdfrwt>
<totfact> 0.61460810E+04</totfact>
</mgrwt>
</event>
<event>
 7    0  0.4759581E-002  0.4338460E+03  0.7546771E-02  0.1032652E+00
         21   -1    0    0  502  501  0.00000000000E+00  0.00000000000E+00  0.62341189726E+02  0.62341189726E+02  0.00000000000E+00 0. -1.
         21   -1    0    0  501  502 -0.00000000000E+00 -0.00000000000E+00 -0.75480740839E+03  0.75480740839E+03  0.00000000000E+00 0. -1.
      99926    2    1    2    0    0  0.00000000000E+00  0.71054273576E-14 -0.69246621867E+03  0.81714859812E+03  0.43384601809E+03 0.  0.
      99925    2    3    3    0    0 -0.54289585428E+02 -0.62470384247E+02 -0.52006066070E+03  0.58862924990E+03  0.26300455325E+03 0.  0.
         25    1    3    3    0    0  0.54289585428E+02  0.62470384247E+02 -0.17240555796E+03  0.22851934822E+03  0.12509000000E+03 0.  0.
         25    1    4    4    0    0 -0.65624476869E+02 -0.38875781745E+02 -0.24793475114E+03  0.28798792908E+03  0.12509000000E+03 0.  0.
         25    1    4    4    0    0  0.11334891441E+02 -0.23594602503E+02 -0.27212590956E+03  0.30064132082E+03  0.12509000000E+03 0.  0.
<mgrwt>
<rscale>  2 0.43384602E+03</rscale>
<asrwt>0</asrwt>
<pdfrwt beam="1">  1       21 0.91678223E-02 0.43384602E+03</pdfrwt>
<pdfrwt beam="2">  1       21 0.11100109E+00 0.43384602E+03</pdfrwt>
<totfact> 0.55620111E+04</totfact>
</mgrwt>
</event>
<event>
 7    0  0.4759581E-002  0.4496698E+03  0.7546771E-02  0.1027821E+00
         21   -1    0    0  502  501  0.00000000000E+00  0.00000000000E+00  0.70889952862E+03  0.70889952862E+03  0.00000000000E+00 0.  1.
         21   -1    0    0  501  502 -0.00000000000E+00 -0.00000000000E+00 -0.71308740115E+02  0.71308740115E+02  0.00000000000E+00 0.  1.
      99926    2    1    2    0    0  0.00000000000E+00  0.17763568394E-14  0.63759078851E+03  0.78020826874E+03  0.44966979998E+03 0.  0.
      99925    2    3    3    0    0  0.83031457276E+02  0.13448280538E+02  0.28469182641E+03  0.39646321705E+03  0.26278996804E+03 0.  0.
         25    1    4    4    0    0  0.23462860554E+02  0.18863975455E+02  0.18644239722E+03  0.22652732942E+03  0.12509000000E+03 0.  0.
         25    1    4    4    0    0  0.59568596722E+02 -0.54156949171E+01  0.98249429197E+02  0.16993588763E+03  0.12509000000E+03 0.  0.
         25    1    3    3    0    0 -0.83031457276E+02 -0.13448280538E+02  0.35289896209E+03  0.38374505169E+03  0.12509000000E+03 0.  0.
<mgrwt>
<rscale>  2 0.44966980E+03</rscale>
<asrwt>0</asrwt>
<pdfrwt beam="1">  1       21 0.10424993E+00 0.44966980E+03</pdfrwt>
<pdfrwt beam="2">  1       21 0.10486580E-01 0.44966980E+03</pdfrwt>
<totfact> 0.50830571E+04</totfact>
</mgrwt>
</event>
<event>
 7    0  0.4759581E-002  0.4563379E+03  0.7546771E-02  0.1025849E+00
         21   -1    0    0  502  501  0.00000000000E+00  0.00000000000E+00  0.86853873430E+02  0.86853873430E+02  0.00000000000E+00 0.  1.
         21   -1    0    0  501  502 -0.00000000000E+00 -0.00000000000E+00 -0.59940988888E+03  0.59940988888E+03  0.00000000000E+00 0.  1.
      99926    2    1    2    0    0 -0.35527136788E-14 -0.14210854715E-13 -0.51255601545E+03  0.68626376231E+03  0.45633790384E+03 0.  0.
      99925    2    3    3    0    0 -0.28588782374E+02  0.76423082065E+02 -0.20588758497E+03  0.34516137255E+03  0.26474302541E+03 0.  0.
         25    1    4    4    0    0 -0.17839035917E+02  0.82360390406E+02 -0.10181329599E+03  0.18197505447E+03  0.12509000000E+03 0.  0.
         25    1    3    3    0    0  0.28588782374E+02 -0.76423082065E+02 -0.30666843048E+03  0.34110238976E+03  0.12509000000E+03 0.  0.
         25    1    4    4    0    0 -0.10749746457E+02 -0.59373083411E+01 -0.10407428898E+03  0.16318631807E+03  0.12509000000E+03 0.  0.
<mgrwt>
<rscale>  2 0.45633790E+03</rscale>
<asrwt>0</asrwt>
<pdfrwt beam="1">  1       21 0.12772628E-01 0.45633790E+03</pdfrwt>
<pdfrwt beam="2">  1       21 0.88148517E-01 0.45633790E+03</pdfrwt>
<totfact> 0.53093846E+04</totfact>
</mgrwt>
</event>
<event>
 7    0  0.4759581E-002  0.4667264E+03  0.7546771E-02  0.1022848E+00
         21   -1    0    0  502  501  0.00000000000E+00  0.00000000000E+00  0.65826692142E+03  0.65826692142E+03  0.00000000000E+00 0.  1.
         21   -1    0    0  501  502 -0.00000000000E+00 -0.00000000000E+00 -0.82729951297E+02  0.82729951297E+02  0.00000000000E+00 0.  1.
      99926    2    1    2    0    0  0.00000000000E+00  0.00000000000E+00  0.57553697013E+03  0.74099687272E+03  0.46672643101E+03 0.  0.
      99925    2    3    3    0    0  0.98301069807E+02 -0.53001622145E+02  0.44359639259E+03  0.52762373389E+03  0.26293872436E+03 0.  0.
         25    1    3    3    0    0 -0.98301069807E+02  0.53001622145E+02  0.13194057753E+03  0.21337313883E+03  0.12509000000E+03 0.  0.
         25    1    4    4    0    0  0.55174278107E+02 -0.91668315042E+01  0.15339850212E+03  0.20568626672E+03  0.12509000000E+03 0.  0.
         25    1    4    4    0    0  0.43126791700E+02 -0.43834790641E+02  0.29019789047E+03  0.32193746717E+03  0.12509000000E+03 0.  0.
<mgrwt>
<rscale>  2 0.46672643E+03</rscale>
<asrwt>0</asrwt>
<pdfrwt beam="1">  1       21 0.96803956E-01 0.46672643E+03</pdfrwt>
<pdfrwt beam="2">  1       21 0.12166170E-01 0.46672643E+03</pdfrwt>
<totfact> 0.46313485E+04</totfact>
</mgrwt>
</event>
<event>
 7    0  0.4759581E-002  0.4585726E+03  0.7546771E-02  0.1025196E+00
         21   -1    0    0  502  501  0.00000000000E+00  0.00000000000E+00  0.18052536698E+04  0.18052536698E+04  0.00000000000E+00 0.  1.
         21   -1    0    0  501  502 -0.00000000000E+00 -0.00000000000E+00 -0.29121781120E+02  0.29121781120E+02  0.00000000000E+00 0.  1.
      99926    2    1    2    0    0  0.00000000000E+00  0.00000000000E+00  0.17761318886E+04  0.18343754509E+04  0.45857257762E+03 0.  0.
      99925    2    3    3    0    0 -0.47277293616E+02  0.10229771109E+03  0.12347042317E+04  0.12673733521E+04  0.26275598894E+03 0.  0.
         25    1    4    4    0    0 -0.36236296388E+02  0.81624555514E+02  0.79020887612E+03  0.80501752356E+03  0.12509000000E+03 0.  0.
         25    1    4    4    0    0 -0.11040997227E+02  0.20673155580E+02  0.44449535557E+03  0.46235582856E+03  0.12509000000E+03 0.  0.
         25    1    3    3    0    0  0.47277293616E+02 -0.10229771109E+03  0.54142765695E+03  0.56700209875E+03  0.12509000000E+03 0.  0.
<mgrwt>
<rscale>  2 0.45857258E+03</rscale>
<asrwt>0</asrwt>
<pdfrwt beam="1">  1       21 0.26547841E+00 0.45857258E+03</pdfrwt>
<pdfrwt beam="2">  1       21 0.42826161E-02 0.45857258E+03</pdfrwt>
<totfact> 0.16155461E+04</totfact>
</mgrwt>
</event>
<event>
 7    0  0.4759581E-002  0.4530678E+03  0.7546771E-02  0.1026811E+00
         21   -1    0    0  502  501  0.00000000000E+00  0.00000000000E+00  0.49613982402E+03  0.49613982402E+03  0.00000000000E+00 0. -1.
         21   -1    0    0  501  502 -0.00000000000E+00 -0.00000000000E+00 -0.10343378161E+03  0.10343378161E+03  0.00000000000E+00 0. -1.
      99926    2    1    2    0    0  0.00000000000E+00  0.00000000000E+00  0.39270604242E+03  0.59957360563E+03  0.45306784571E+03 0.  0.
      99925    2    3    3    0    0 -0.99699092400E+02 -0.48367552716E+02  0.26201409886E+03  0.38742455097E+03  0.26299632224E+03 0.  0.
         25    1    4    4    0    0 -0.48858806868E+02  0.39711097850E+00  0.82678556014E+02  0.15770412940E+03  0.12509000000E+03 0.  0.
         25    1    3    3    0    0  0.99699092400E+02  0.48367552716E+02  0.13069194355E+03  0.21214905466E+03  0.12509000000E+03 0.  0.
         25    1    4    4    0    0 -0.50840285533E+02 -0.48764663694E+02  0.17933554285E+03  0.22972042157E+03  0.12509000000E+03 0.  0.
<mgrwt>
<rscale>  2 0.45306785E+03</rscale>
<asrwt>0</asrwt>
<pdfrwt beam="1">  1       21 0.72961738E-01 0.45306785E+03</pdfrwt>
<pdfrwt beam="2">  1       21 0.15210850E-01 0.45306785E+03</pdfrwt>
<totfact> 0.59609348E+04</totfact>
</mgrwt>
</event>
<event>
 7    0  0.4759581E-002  0.4484153E+03  0.7546771E-02  0.1028196E+00
         21   -1    0    0  502  501  0.00000000000E+00  0.00000000000E+00  0.73731473643E+03  0.73731473643E+03  0.00000000000E+00 0. -1.
         21   -1    0    0  501  502 -0.00000000000E+00 -0.00000000000E+00 -0.68178585123E+02  0.68178585123E+02  0.00000000000E+00 0. -1.
      99926    2    1    2    0    0  0.14210854715E-13 -0.71054273576E-14  0.66913615130E+03  0.80549332155E+03  0.44841532320E+03 0.  0.
      99925    2    3    3    0    0  0.70361154877E+02 -0.48068516847E+02  0.53928146142E+03  0.60606658560E+03  0.26311772483E+03 0.  0.
         25    1    3    3    0    0 -0.70361154877E+02  0.48068516847E+02  0.12985468988E+03  0.19942673595E+03  0.12509000000E+03 0.  0.
         25    1    4    4    0    0  0.30743250040E+02 -0.25383694015E+02  0.35662666540E+03  0.38002574376E+03  0.12509000000E+03 0.  0.
         25    1    4    4    0    0  0.39617904836E+02 -0.22684822832E+02  0.18265479602E+03  0.22604084184E+03  0.12509000000E+03 0.  0.
<mgrwt>
<rscale>  2 0.44841532E+03</rscale>
<asrwt>0</asrwt>
<pdfrwt beam="1">  1       21 0.10842863E+00 0.44841532E+03</pdfrwt>
<pdfrwt beam="2">  1       21 0.10026263E-01 0.44841532E+03</pdfrwt>
<totfact> 0.50036114E+04</totfact>
</mgrwt>
</event>
<event>
 7    0  0.4759581E-002  0.4583034E+03  0.7546771E-02  0.1025274E+00
         21   -1    0    0  502  501  0.00000000000E+00  0.00000000000E+00  0.41174710279E+02  0.41174710279E+02  0.00000000000E+00 0.  1.
         21   -1    0    0  501  502 -0.00000000000E+00 -0.00000000000E+00 -0.12753096077E+04  0.12753096077E+04  0.00000000000E+00 0.  1.
      99926    2    1    2    0    0 -0.88817841970E-15  0.00000000000E+00 -0.12341348974E+04  0.13164843180E+04  0.45830340873E+03 0.  0.
      99925    2    3    3    0    0  0.56512033358E+01 -0.91998524449E+02 -0.97766052183E+03  0.10166138826E+04  0.26303616802E+03 0.  0.
         25    1    3    3    0    0 -0.56512033358E+01  0.91998524449E+02 -0.25647437562E+03  0.29987043543E+03  0.12509000000E+03 0.  0.
         25    1    4    4    0    0  0.61396779785E+01 -0.10592104502E+02 -0.53123568806E+03  0.54590177934E+03  0.12509000000E+03 0.  0.
         25    1    4    4    0    0 -0.48847464276E+00 -0.81406419947E+02 -0.44642483378E+03  0.47071210323E+03  0.12509000000E+03 0.  0.
<mgrwt>
<rscale>  2 0.45830341E+03</rscale>
<asrwt>0</asrwt>
<pdfrwt beam="1">  1       21 0.60551044E-02 0.45830341E+03</pdfrwt>
<pdfrwt beam="2">  1       21 0.18754553E+00 0.45830341E+03</pdfrwt>
<totfact> 0.27915676E+04</totfact>
</mgrwt>
</event>
<event>
 7    0  0.4759581E-002  0.4462781E+03  0.7546771E-02  0.1028838E+00
         21   -1    0    0  502  501  0.00000000000E+00  0.00000000000E+00  0.64258041388E+03  0.64258041388E+03  0.00000000000E+00 0. -1.
         21   -1    0    0  501  502 -0.00000000000E+00 -0.00000000000E+00 -0.77486077177E+02  0.77486077177E+02  0.00000000000E+00 0. -1.
      99926    2    1    2    0    0 -0.14210854715E-13  0.00000000000E+00  0.56509433670E+03  0.72006649105E+03  0.44627809958E+03 0.  0.
      99925    2    3    3    0    0  0.91886245411E+02  0.17469125588E+02  0.43521079875E+03  0.51692739099E+03  0.26278743456E+03 0.  0.
         25    1    4    4    0    0  0.68559349050E+02  0.21704795427E+01  0.29038001698E+03  0.32353231320E+03  0.12509000000E+03 0.  0.
         25    1    3    3    0    0 -0.91886245411E+02 -0.17469125588E+02  0.12988353795E+03  0.20313910006E+03  0.12509000000E+03 0.  0.
         25    1    4    4    0    0  0.23326896362E+02  0.15298646045E+02  0.14483078178E+03  0.19339507779E+03  0.12509000000E+03 0.  0.
<mgrwt>
<rscale>  2 0.44627810E+03</rscale>
<asrwt>0</asrwt>
<pdfrwt beam="1">  1       21 0.94497117E-01 0.44627810E+03</pdfrwt>
<pdfrwt beam="2">  1       21 0.11395012E-01 0.44627810E+03</pdfrwt>
<totfact> 0.55540239E+04</totfact>
</mgrwt>
</event>
<event>
 7    0  0.4759581E-002  0.4545198E+03  0.7546771E-02  0.1026383E+00
         21   -1    0    0  502  501  0.00000000000E+00  0.00000000000E+00  0.42303111951E+03  0.42303111951E+03  0.00000000000E+00 0.  1.
         21   -1    0    0  501  502 -0.00000000000E+00 -0.00000000000E+00 -0.12208807018E+03  0.12208807018E+03  0.00000000000E+00 0.  1.
      99926    2    1    2    0    0  0.00000000000E+00 -0.17763568394E-14  0.30094304933E+03  0.54511918970E+03  0.45451975979E+03 0.  0.
      99925    2    3    3    0    0  0.11206969818E+03  0.62694422706E+01  0.17597094766E+03  0.33568075614E+03  0.26290087954E+03 0.  0.
         25    1    4    4    0    0  0.90916756389E+02 -0.13977839502E+02  0.11647838582E+03  0.19410295993E+03  0.12509000000E+03 0.  0.
         25    1    3    3    0    0 -0.11206969818E+03 -0.62694422706E+01  0.12497210167E+03  0.20943843356E+03  0.12509000000E+03 0.  0.
         25    1    4    4    0    0  0.21152941789E+02  0.20247281773E+02  0.59492561835E+02  0.14157779621E+03  0.12509000000E+03 0.  0.
<mgrwt>
<rscale>  2 0.45451976E+03</rscale>
<asrwt>0</asrwt>
<pdfrwt beam="1">  1       21 0.62210458E-01 0.45451976E+03</pdfrwt>
<pdfrwt beam="2">  1       21 0.17954128E-01 0.45451976E+03</pdfrwt>
<totfact> 0.62427087E+04</totfact>
</mgrwt>
</event>
<event>
 6    0  0.4759581E-002  0.4539539E+03  0.7546771E-02  0.1026549E+00
         21   -1    0    0  502  501  0.00000000000E+00  0.00000000000E+00  0.46880970521E+03  0.46880970521E+03  0.00000000000E+00 0.  1.
         21   -1    0    0  501  502 -0.00000000000E+00 -0.00000000000E+00 -0.10989221674E+03  0.10989221674E+03  0.00000000000E+00 0.  1.
      99926    2    1    2    0    0  0.00000000000E+00  0.00000000000E+00  0.35891748847E+03  0.57870192195E+03  0.45395390839E+03 0.  0.
         25    1    3    3    0    0 -0.62950591317E+02 -0.41481619736E+02  0.23394907655E+03  0.27579554065E+03  0.12509000000E+03 0.  0.
         25    1    3    3    0    0  0.17066900728E+02  0.52537974363E+02  0.33116964307E+02  0.14069740323E+03  0.12509000000E+03 0.  0.
         25    1    3    3    0    0  0.45883690589E+02 -0.11056354627E+02  0.91851447610E+02  0.16220897807E+03  0.12509000000E+03 0.  0.
<mgrwt>
<rscale>  2 0.45395391E+03</rscale>
<asrwt>0</asrwt>
<pdfrwt beam="1">  1       21 0.68942603E-01 0.45395391E+03</pdfrwt>
<pdfrwt beam="2">  1       21 0.16160620E-01 0.45395391E+03</pdfrwt>
<totfact> 0.60507621E+04</totfact>
</mgrwt>
</event>
<event>
 7    0  0.4759581E-002  0.4806814E+03  0.7546771E-02  0.1018948E+00
         21   -1    0    0  502  501  0.00000000000E+00  0.00000000000E+00  0.14416251895E+03  0.14416251895E+03  0.00000000000E+00 0.  1.
         21   -1    0    0  501  502 -0.00000000000E+00 -0.00000000000E+00 -0.40068420575E+03  0.40068420575E+03  0.00000000000E+00 0.  1.
      99926    2    1    2    0    0 -0.35527136788E-14  0.00000000000E+00 -0.25652168681E+03  0.54484672470E+03  0.48068136807E+03 0.  0.
      99925    2    3    3    0    0  0.24900645236E+02 -0.13179060840E+03 -0.18215024844E+03  0.34693910600E+03  0.26305745317E+03 0.  0.
         25    1    3    3    0    0 -0.24900645236E+02  0.13179060840E+03 -0.74371438365E+02  0.19790761870E+03  0.12509000000E+03 0.  0.
         25    1    4    4    0    0  0.45891793062E+02 -0.85532884199E+02 -0.78471678332E+02  0.17671231805E+03  0.12509000000E+03 0.  0.
         25    1    4    4    0    0 -0.20991147827E+02 -0.46257724200E+02 -0.10367857011E+03  0.17022678795E+03  0.12509000000E+03 0.  0.
<mgrwt>
<rscale>  2 0.48068137E+03</rscale>
<asrwt>0</asrwt>
<pdfrwt beam="1">  1       21 0.21200370E-01 0.48068137E+03</pdfrwt>
<pdfrwt beam="2">  1       21 0.58924149E-01 0.48068137E+03</pdfrwt>
<totfact> 0.51010965E+04</totfact>
</mgrwt>
</event>
<event>
 7    0  0.4759581E-002  0.4283114E+03  0.7546771E-02  0.1034395E+00
         21   -1    0    0  502  501  0.00000000000E+00  0.00000000000E+00  0.42647284049E+02  0.42647284049E+02  0.00000000000E+00 0. -1.
         21   -1    0    0  501  502 -0.00000000000E+00 -0.00000000000E+00 -0.10753948097E+04  0.10753948097E+04  0.00000000000E+00 0. -1.
      99926    2    1    2    0    0  0.00000000000E+00  0.00000000000E+00 -0.10327475256E+04  0.11180420937E+04  0.42831141901E+03 0.  0.
      99925    2    3    3    0    0  0.76101255666E+02 -0.17359344678E+02 -0.57391741655E+03  0.63610296369E+03  0.26296963976E+03 0.  0.
         25    1    3    3    0    0 -0.76101255666E+02  0.17359344678E+02 -0.45883010907E+03  0.48193913002E+03  0.12509000000E+03 0.  0.
         25    1    4    4    0    0  0.67794240918E+02 -0.20030842869E+02 -0.24403750450E+03  0.28319446582E+03  0.12509000000E+03 0.  0.
         25    1    4    4    0    0  0.83070147482E+01  0.26714981911E+01 -0.32987991205E+03  0.35290849787E+03  0.12509000000E+03 0.  0.
<mgrwt>
<rscale>  2 0.42831142E+03</rscale>
<asrwt>0</asrwt>
<pdfrwt beam="1">  1       21 0.62716587E-02 0.42831142E+03</pdfrwt>
<pdfrwt beam="2">  1       21 0.15814631E+00 0.42831142E+03</pdfrwt>
<totfact> 0.43175613E+04</totfact>
</mgrwt>
</event>
<event>
 7    0  0.4759581E-002  0.4505949E+03  0.7546771E-02  0.1027545E+00
         21   -1    0    0  502  501  0.00000000000E+00  0.00000000000E+00  0.98882070454E+03  0.98882070454E+03  0.00000000000E+00 0.  1.
         21   -1    0    0  501  502 -0.00000000000E+00 -0.00000000000E+00 -0.51332815761E+02  0.51332815761E+02  0.00000000000E+00 0.  1.
      99926    2    1    2    0    0  0.00000000000E+00  0.00000000000E+00  0.93748788878E+03  0.10401535203E+04  0.45059494470E+03 0.  0.
      99925    2    3    3    0    0  0.78376941541E+02  0.74562977317E+02  0.56126426871E+03  0.62918599975E+03  0.26297311725E+03 0.  0.
         25    1    4    4    0    0  0.78283915586E+01  0.78675704748E+01  0.23119120195E+03  0.26309705878E+03  0.12509000000E+03 0.  0.
         25    1    4    4    0    0  0.70548549982E+02  0.66695406842E+02  0.33007306676E+03  0.36608894097E+03  0.12509000000E+03 0.  0.
         25    1    3    3    0    0 -0.78376941541E+02 -0.74562977317E+02  0.37622362007E+03  0.41096752055E+03  0.12509000000E+03 0.  0.
<mgrwt>
<rscale>  2 0.45059494E+03</rscale>
<asrwt>0</asrwt>
<pdfrwt beam="1">  1       21 0.14541480E+00 0.45059494E+03</pdfrwt>
<pdfrwt beam="2">  1       21 0.75489442E-02 0.45059494E+03</pdfrwt>
<totfact> 0.38963430E+04</totfact>
</mgrwt>
</event>
<event>
 7    0  0.4759581E-002  0.4544593E+03  0.7546771E-02  0.1026401E+00
         21   -1    0    0  502  501  0.00000000000E+00  0.00000000000E+00  0.79544945627E+02  0.79544945627E+02  0.00000000000E+00 0. -1.
         21   -1    0    0  501  502 -0.00000000000E+00 -0.00000000000E+00 -0.64910862935E+03  0.64910862935E+03  0.00000000000E+00 0. -1.
      99926    2    1    2    0    0  0.00000000000E+00 -0.71054273576E-14 -0.56956368373E+03  0.72865357498E+03  0.45445928587E+03 0.  0.
      99925    2    3    3    0    0 -0.22936834261E+02 -0.45847965808E+02 -0.19770190611E+03  0.33298095262E+03  0.26298695176E+03 0.  0.
         25    1    4    4    0    0 -0.16049303883E+02  0.15853254748E+02 -0.10983311315E+03  0.16798728132E+03  0.12509000000E+03 0.  0.
         25    1    3    3    0    0  0.22936834261E+02  0.45847965808E+02 -0.37186177761E+03  0.39567262236E+03  0.12509000000E+03 0.  0.
         25    1    4    4    0    0 -0.68875303781E+01 -0.61701220556E+02 -0.87868792963E+02  0.16499367130E+03  0.12509000000E+03 0.  0.
<mgrwt>
<rscale>  2 0.45445929E+03</rscale>
<asrwt>0</asrwt>
<pdfrwt beam="1">  1       21 0.11697786E-01 0.45445929E+03</pdfrwt>
<pdfrwt beam="2">  1       21 0.95457149E-01 0.45445929E+03</pdfrwt>
<totfact> 0.51593781E+04</totfact>
</mgrwt>
</event>
<event>
 7    0  0.4759581E-002  0.4507495E+03  0.7546771E-02  0.1027499E+00
         21   -1    0    0  502  501  0.00000000000E+00  0.00000000000E+00  0.23691006838E+03  0.23691006838E+03  0.00000000000E+00 0. -1.
         21   -1    0    0  501  502 -0.00000000000E+00 -0.00000000000E+00 -0.21440109537E+03  0.21440109537E+03  0.00000000000E+00 0. -1.
      99926    2    1    2    0    0  0.71054273576E-14  0.00000000000E+00  0.22508973011E+02  0.45131116375E+03  0.45074950101E+03 0.  0.
      99925    2    3    3    0    0  0.43431659456E+02  0.86118418662E+02  0.65417388917E+02  0.28763058661E+03  0.26296240892E+03 0.  0.
         25    1    3    3    0    0 -0.43431659456E+02 -0.86118418662E+02 -0.42908415906E+02  0.16368057714E+03  0.12509000000E+03 0.  0.
         25    1    4    4    0    0  0.58831114880E+02  0.62201277822E+02  0.29678499707E+02  0.15446171204E+03  0.12509000000E+03 0.  0.
         25    1    4    4    0    0 -0.15399455423E+02  0.23917140840E+02  0.35738889210E+02  0.13316887457E+03  0.12509000000E+03 0.  0.
<mgrwt>
<rscale>  2 0.45074950E+03</rscale>
<asrwt>0</asrwt>
<pdfrwt beam="1">  1       21 0.34839716E-01 0.45074950E+03</pdfrwt>
<pdfrwt beam="2">  1       21 0.31529573E-01 0.45074950E+03</pdfrwt>
<totfact> 0.71201170E+04</totfact>
</mgrwt>
</event>
<event>
 7    0  0.4759581E-002  0.4586048E+03  0.7546771E-02  0.1025187E+00
         21   -1    0    0  502  501  0.00000000000E+00  0.00000000000E+00  0.65666311623E+02  0.65666311623E+02  0.00000000000E+00 0. -1.
         21   -1    0    0  501  502 -0.00000000000E+00 -0.00000000000E+00 -0.80070872656E+03  0.80070872656E+03  0.00000000000E+00 0. -1.
      99926    2    1    2    0    0  0.00000000000E+00  0.00000000000E+00 -0.73504241494E+03  0.86637503819E+03  0.45860479177E+03 0.  0.
      99925    2    3    3    0    0 -0.10789340446E+03  0.21103747597E+02 -0.38838780809E+03  0.48179308406E+03  0.26304587335E+03 0.  0.
         25    1    3    3    0    0  0.10789340446E+03 -0.21103747597E+02 -0.34665460685E+03  0.38458195413E+03  0.12509000000E+03 0.  0.
         25    1    4    4    0    0 -0.55288183088E+02  0.71740674416E+01 -0.12615715261E+03  0.18620253942E+03  0.12509000000E+03 0.  0.
         25    1    4    4    0    0 -0.52605221375E+02  0.13929680156E+02 -0.26223065548E+03  0.29559054463E+03  0.12509000000E+03 0.  0.
<mgrwt>
<rscale>  2 0.45860479E+03</rscale>
<asrwt>0</asrwt>
<pdfrwt beam="1">  1       21 0.96568113E-02 0.45860479E+03</pdfrwt>
<pdfrwt beam="2">  1       21 0.11775127E+00 0.45860479E+03</pdfrwt>
<totfact> 0.43473242E+04</totfact>
</mgrwt>
</event>
<event>
 7    0  0.4759581E-002  0.4435932E+03  0.7546771E-02  0.1029650E+00
         21   -1    0    0  502  501  0.00000000000E+00  0.00000000000E+00  0.61871235767E+03  0.61871235767E+03  0.00000000000E+00 0.  1.
         21   -1    0    0  501  502 -0.00000000000E+00 -0.00000000000E+00 -0.79509867277E+02  0.79509867277E+02  0.00000000000E+00 0.  1.
      99926    2    1    2    0    0  0.00000000000E+00  0.00000000000E+00  0.53920249040E+03  0.69822222495E+03  0.44359322556E+03 0.  0.
      99925    2    3    3    0    0 -0.33069762279E+02 -0.95575064273E+02  0.36660687663E+03  0.46228800513E+03  0.26283339897E+03 0.  0.
         25    1    4    4    0    0 -0.27942038292E+02 -0.54325215228E+02  0.12515595806E+03  0.18719911445E+03  0.12509000000E+03 0.  0.
         25    1    4    4    0    0 -0.51277239869E+01 -0.41249849045E+02  0.24145091857E+03  0.27508889068E+03  0.12509000000E+03 0.  0.
         25    1    3    3    0    0  0.33069762279E+02  0.95575064273E+02  0.17259561377E+03  0.23593421982E+03  0.12509000000E+03 0.  0.
<mgrwt>
<rscale>  2 0.44359323E+03</rscale>
<asrwt>0</asrwt>
<pdfrwt beam="1">  1       21 0.90987109E-01 0.44359323E+03</pdfrwt>
<pdfrwt beam="2">  1       21 0.11692628E-01 0.44359323E+03</pdfrwt>
<totfact> 0.58036773E+04</totfact>
</mgrwt>
</event>
<event>
 7    0  0.4759581E-002  0.4554151E+03  0.7546771E-02  0.1026119E+00
         21   -1    0    0  502  501  0.00000000000E+00  0.00000000000E+00  0.59033821326E+03  0.59033821326E+03  0.00000000000E+00 0.  1.
         21   -1    0    0  501  502 -0.00000000000E+00 -0.00000000000E+00 -0.87832249394E+02  0.87832249394E+02  0.00000000000E+00 0.  1.
      99926    2    1    2    0    0  0.00000000000E+00 -0.35527136788E-14  0.50250596386E+03  0.67817046265E+03  0.45541512128E+03 0.  0.
      99925    2    3    3    0    0  0.10324621343E+03  0.15869543040E+02  0.38174038590E+03  0.47533196555E+03  0.26325488080E+03 0.  0.
         25    1    4    4    0    0  0.26545483857E+02  0.40659844515E+02  0.17154574232E+03  0.21779195457E+03  0.12509000000E+03 0.  0.
         25    1    4    4    0    0  0.76700729576E+02 -0.24790301475E+02  0.21019464358E+03  0.25754001098E+03  0.12509000000E+03 0.  0.
         25    1    3    3    0    0 -0.10324621343E+03 -0.15869543040E+02  0.12076557796E+03  0.20283849710E+03  0.12509000000E+03 0.  0.
<mgrwt>
<rscale>  2 0.45541512E+03</rscale>
<asrwt>0</asrwt>
<pdfrwt beam="1">  1       21 0.86814441E-01 0.45541512E+03</pdfrwt>
<pdfrwt beam="2">  1       21 0.12916508E-01 0.45541512E+03</pdfrwt>
<totfact> 0.53928264E+04</totfact>
</mgrwt>
</event>
<event>
 7    0  0.4759581E-002  0.4553957E+03  0.7546771E-02  0.1026125E+00
         21   -1    0    0  502  501  0.00000000000E+00  0.00000000000E+00  0.14823752774E+03  0.14823752774E+03  0.00000000000E+00 0.  1.
         21   -1    0    0  501  502 -0.00000000000E+00 -0.00000000000E+00 -0.34975152515E+03  0.34975152515E+03  0.00000000000E+00 0.  1.
      99926    2    1    2    0    0  0.00000000000E+00  0.00000000000E+00 -0.20151399741E+03  0.49798905289E+03  0.45539565835E+03 0.  0.
      99925    2    3    3    0    0 -0.33819066736E+02 -0.96539652522E+02 -0.18047457790E+03  0.33503568822E+03  0.26308592765E+03 0.  0.
         25    1    4    4    0    0 -0.47563890678E+02 -0.66512256016E+02 -0.12262765948E+03  0.19331646300E+03  0.12509000000E+03 0.  0.
         25    1    3    3    0    0  0.33819066736E+02  0.96539652522E+02 -0.21039419502E+02  0.16295336467E+03  0.12509000000E+03 0.  0.
         25    1    4    4    0    0  0.13744823943E+02 -0.30027396505E+02 -0.57846918426E+02  0.14171922522E+03  0.12509000000E+03 0.  0.
<mgrwt>
<rscale>  2 0.45539566E+03</rscale>
<asrwt>0</asrwt>
<pdfrwt beam="1">  1       21 0.21799637E-01 0.45539566E+03</pdfrwt>
<pdfrwt beam="2">  1       21 0.51434047E-01 0.45539566E+03</pdfrwt>
<totfact> 0.65207119E+04</totfact>
</mgrwt>
</event>
<event>
 7    0  0.4759581E-002  0.4542563E+03  0.7546771E-02  0.1026460E+00
         21   -1    0    0  502  501  0.00000000000E+00  0.00000000000E+00  0.31286241146E+03  0.31286241146E+03  0.00000000000E+00 0.  1.
         21   -1    0    0  501  502 -0.00000000000E+00 -0.00000000000E+00 -0.16488782898E+03  0.16488782898E+03  0.00000000000E+00 0.  1.
      99926    2    1    2    0    0 -0.71054273576E-14  0.00000000000E+00  0.14797458248E+03  0.47775024044E+03  0.45425633202E+03 0.  0.
      99925    2    3    3    0    0  0.59340315863E+02 -0.67294494428E+02  0.16454320539E+03  0.32292178881E+03  0.26297184865E+03 0.  0.
         25    1    4    4    0    0  0.16205073529E+02 -0.49081296752E+00  0.50368953157E+02  0.13582115022E+03  0.12509000000E+03 0.  0.
         25    1    4    4    0    0  0.43135242334E+02 -0.66803681461E+02  0.11417425224E+03  0.18710063859E+03  0.12509000000E+03 0.  0.
         25    1    3    3    0    0 -0.59340315863E+02  0.67294494428E+02 -0.16568622910E+02  0.15482845162E+03  0.12509000000E+03 0.  0.
<mgrwt>
<rscale>  2 0.45425633E+03</rscale>
<asrwt>0</asrwt>
<pdfrwt beam="1">  1       21 0.46009179E-01 0.45425633E+03</pdfrwt>
<pdfrwt beam="2">  1       21 0.24248210E-01 0.45425633E+03</pdfrwt>
<totfact> 0.67260353E+04</totfact>
</mgrwt>
</event>
<event>
 7    0  0.4759581E-002  0.4593454E+03  0.7546771E-02  0.1024971E+00
         21   -1    0    0  502  501  0.00000000000E+00  0.00000000000E+00  0.36052029743E+03  0.36052029743E+03  0.00000000000E+00 0.  1.
         21   -1    0    0  501  502 -0.00000000000E+00 -0.00000000000E+00 -0.14631509192E+03  0.14631509192E+03  0.00000000000E+00 0.  1.
      99926    2    1    2    0    0  0.00000000000E+00 -0.35527136788E-14  0.21420520551E+03  0.50683538935E+03  0.45934544934E+03 0.  0.
      99925    2    3    3    0    0 -0.98228066635E+02 -0.25635431157E+02  0.19844033519E+03  0.34496517084E+03  0.26328021964E+03 0.  0.
         25    1    4    4    0    0 -0.30799027222E+02 -0.47726145275E+02  0.11131983846E+03  0.17682188653E+03  0.12509000000E+03 0.  0.
         25    1    4    4    0    0 -0.67429039414E+02  0.22090714118E+02  0.87120496732E+02  0.16814328431E+03  0.12509000000E+03 0.  0.
         25    1    3    3    0    0  0.98228066635E+02  0.25635431157E+02  0.15764870316E+02  0.16187021851E+03  0.12509000000E+03 0.  0.
<mgrwt>
<rscale>  2 0.45934545E+03</rscale>
<asrwt>0</asrwt>
<pdfrwt beam="1">  1       21 0.53017691E-01 0.45934545E+03</pdfrwt>
<pdfrwt beam="2">  1       21 0.21516925E-01 0.45934545E+03</pdfrwt>
<totfact> 0.62605680E+04</totfact>
</mgrwt>
</event>
<event>
 7    0  0.4759581E-002  0.4453286E+03  0.7546771E-02  0.1029124E+00
         21   -1    0    0  502  501  0.00000000000E+00  0.00000000000E+00  0.65911011394E+03  0.65911011394E+03  0.00000000000E+00 0. -1.
         21   -1    0    0  501  502 -0.00000000000E+00 -0.00000000000E+00 -0.75221726221E+02  0.75221726221E+02  0.00000000000E+00 0. -1.
      99926    2    1    2    0    0  0.00000000000E+00  0.00000000000E+00  0.58388838772E+03  0.73433184016E+03  0.44532864512E+03 0.  0.
      99925    2    3    3    0    0  0.62415570574E+02 -0.29107523268E+02  0.24283288413E+03  0.36458961105E+03  0.26308710251E+03 0.  0.
         25    1    4    4    0    0  0.59722611052E+02 -0.27357672906E+02  0.16499769931E+03  0.21722564631E+03  0.12509000000E+03 0.  0.
         25    1    4    4    0    0  0.26929595217E+01 -0.17498503617E+01  0.77835184821E+02  0.14736396474E+03  0.12509000000E+03 0.  0.
         25    1    3    3    0    0 -0.62415570574E+02  0.29107523268E+02  0.34105550359E+03  0.36974222911E+03  0.12509000000E+03 0.  0.
<mgrwt>
<rscale>  2 0.44532865E+03</rscale>
<asrwt>0</asrwt>
<pdfrwt beam="1">  1       21 0.96927955E-01 0.44532865E+03</pdfrwt>
<pdfrwt beam="2">  1       21 0.11062019E-01 0.44532865E+03</pdfrwt>
<totfact> 0.55154180E+04</totfact>
</mgrwt>
</event>
<event>
 7    0  0.4759581E-002  0.4522639E+03  0.7546771E-02  0.1027049E+00
         21   -1    0    0  502  501  0.00000000000E+00  0.00000000000E+00  0.12457246528E+03  0.12457246528E+03  0.00000000000E+00 0.  1.
         21   -1    0    0  501  502 -0.00000000000E+00 -0.00000000000E+00 -0.41048924133E+03  0.41048924133E+03  0.00000000000E+00 0.  1.
      99926    2    1    2    0    0  0.00000000000E+00  0.00000000000E+00 -0.28591677605E+03  0.53506170661E+03  0.45226389094E+03 0.  0.
      99925    2    3    3    0    0 -0.23497454655E+02  0.72055020493E+02 -0.27542790660E+03  0.38842753311E+03  0.26319452957E+03 0.  0.
         25    1    4    4    0    0 -0.23518420932E+02  0.53172154451E+02 -0.19377224140E+03  0.23785622499E+03  0.12509000000E+03 0.  0.
         25    1    3    3    0    0  0.23497454655E+02 -0.72055020493E+02 -0.10488869452E+02  0.14663417349E+03  0.12509000000E+03 0.  0.
         25    1    4    4    0    0  0.20966276743E-01  0.18882866042E+02 -0.81655665207E+02  0.15057130812E+03  0.12509000000E+03 0.  0.
<mgrwt>
<rscale>  2 0.45226389E+03</rscale>
<asrwt>0</asrwt>
<pdfrwt beam="1">  1       21 0.18319480E-01 0.45226389E+03</pdfrwt>
<pdfrwt beam="2">  1       21 0.60366066E-01 0.45226389E+03</pdfrwt>
<totfact> 0.64244586E+04</totfact>
</mgrwt>
</event>
<event>
 7    0  0.4759581E-002  0.4518576E+03  0.7546771E-02  0.1027170E+00
         21   -1    0    0  502  501  0.00000000000E+00  0.00000000000E+00  0.48389048125E+03  0.48389048125E+03  0.00000000000E+00 0.  1.
         21   -1    0    0  501  502 -0.00000000000E+00 -0.00000000000E+00 -0.10548629412E+03  0.10548629412E+03  0.00000000000E+00 0.  1.
      99926    2    1    2    0    0  0.00000000000E+00  0.26645352591E-14  0.37840418713E+03  0.58937677537E+03  0.45185755998E+03 0.  0.
      99925    2    3    3    0    0  0.98392600352E+02  0.28254552773E+01  0.17417164226E+03  0.33044140219E+03  0.26299557470E+03 0.  0.
         25    1    3    3    0    0 -0.98392600352E+02 -0.28254552773E+01  0.20423254487E+03  0.25893537318E+03  0.12509000000E+03 0.  0.
         25    1    4    4    0    0  0.62644314858E+02 -0.26983446375E+02  0.59223461504E+02  0.15429628335E+03  0.12509000000E+03 0.  0.
         25    1    4    4    0    0  0.35748285494E+02  0.29808901653E+02  0.11494818076E+03  0.17614511885E+03  0.12509000000E+03 0.  0.
<mgrwt>
<rscale>  2 0.45185756E+03</rscale>
<asrwt>0</asrwt>
<pdfrwt beam="1">  1       21 0.71160364E-01 0.45185756E+03</pdfrwt>
<pdfrwt beam="2">  1       21 0.15512690E-01 0.45185756E+03</pdfrwt>
<totfact> 0.60833841E+04</totfact>
</mgrwt>
</event>
<event>
 7    0  0.4759581E-002  0.4515409E+03  0.7546771E-02  0.1027264E+00
         21   -1    0    0  502  501  0.00000000000E+00  0.00000000000E+00  0.13871265425E+03  0.13871265425E+03  0.00000000000E+00 0. -1.
         21   -1    0    0  501  502 -0.00000000000E+00 -0.00000000000E+00 -0.36746681494E+03  0.36746681494E+03  0.00000000000E+00 0. -1.
      99926    2    1    2    0    0  0.88817841970E-15 -0.14210854715E-13 -0.22875416069E+03  0.50617946920E+03  0.45154090512E+03 0.  0.
      99925    2    3    3    0    0  0.35313592995E+01  0.10810630624E+03 -0.12347741804E+03  0.31014338937E+03  0.26314027677E+03 0.  0.
         25    1    4    4    0    0  0.32427354450E+02  0.29715210245E+02 -0.73663070770E+02  0.15168481510E+03  0.12509000000E+03 0.  0.
         25    1    3    3    0    0 -0.35313592995E+01 -0.10810630624E+03 -0.10527674265E+03  0.19603607982E+03  0.12509000000E+03 0.  0.
         25    1    4    4    0    0 -0.28895995150E+02  0.78391095998E+02 -0.49814347270E+02  0.15845857428E+03  0.12509000000E+03 0.  0.
<mgrwt>
<rscale>  2 0.45154091E+03</rscale>
<asrwt>0</asrwt>
<pdfrwt beam="1">  1       21 0.20398920E-01 0.45154091E+03</pdfrwt>
<pdfrwt beam="2">  1       21 0.54039237E-01 0.45154091E+03</pdfrwt>
<totfact> 0.66649753E+04</totfact>
</mgrwt>
</event>
<event>
 7    0  0.4759581E-002  0.4526777E+03  0.7546771E-02  0.1026927E+00
         21   -1    0    0  502  501  0.00000000000E+00  0.00000000000E+00  0.61616471131E+03  0.61616471131E+03  0.00000000000E+00 0. -1.
         21   -1    0    0  501  502 -0.00000000000E+00 -0.00000000000E+00 -0.83142174272E+02  0.83142174272E+02  0.00000000000E+00 0. -1.
      99926    2    1    2    0    0  0.14210854715E-13 -0.35527136788E-14  0.53302253704E+03  0.69930688559E+03  0.45267769465E+03 0.  0.
      99925    2    3    3    0    0  0.10806281690E+03 -0.20072769317E+02  0.31209807383E+03  0.42265617619E+03  0.26296871890E+03 0.  0.
         25    1    4    4    0    0  0.46991058195E+02 -0.25339287751E+02  0.99630140499E+02  0.16859392649E+03  0.12509000000E+03 0.  0.
         25    1    3    3    0    0 -0.10806281690E+03  0.20072769317E+02  0.22092446321E+03  0.27665070939E+03  0.12509000000E+03 0.  0.
         25    1    4    4    0    0  0.61071758702E+02  0.52665184343E+01  0.21246793333E+03  0.25406224970E+03  0.12509000000E+03 0.  0.
<mgrwt>
<rscale>  2 0.45267769E+03</rscale>
<asrwt>0</asrwt>
<pdfrwt beam="1">  1       21 0.90612455E-01 0.45267769E+03</pdfrwt>
<pdfrwt beam="2">  1       21 0.12226791E-01 0.45267769E+03</pdfrwt>
<totfact> 0.53919316E+04</totfact>
</mgrwt>
</event>
<event>
 7    0  0.4759581E-002  0.4662139E+03  0.7546771E-02  0.1022994E+00
         21   -1    0    0  502  501  0.00000000000E+00  0.00000000000E+00  0.47591081675E+02  0.47591081675E+02  0.00000000000E+00 0.  1.
         21   -1    0    0  501  502 -0.00000000000E+00 -0.00000000000E+00 -0.11417864453E+04  0.11417864453E+04  0.00000000000E+00 0.  1.
      99926    2    1    2    0    0  0.00000000000E+00  0.00000000000E+00 -0.10941953636E+04  0.11893775270E+04  0.46621390788E+03 0.  0.
      99925    2    3    3    0    0  0.66916325209E+02  0.40556816557E+02 -0.43842132791E+03  0.51720958370E+03  0.26300160219E+03 0.  0.
         25    1    3    3    0    0 -0.66916325209E+02 -0.40556816557E+02 -0.65577403574E+03  0.67216794330E+03  0.12509000000E+03 0.  0.
         25    1    4    4    0    0 -0.50320312097E+01  0.12352782023E+02 -0.17488929361E+03  0.21543371528E+03  0.12509000000E+03 0.  0.
         25    1    4    4    0    0  0.71948356419E+02  0.28204034533E+02 -0.26353203430E+03  0.30177586842E+03  0.12509000000E+03 0.  0.
<mgrwt>
<rscale>  2 0.46621391E+03</rscale>
<asrwt>0</asrwt>
<pdfrwt beam="1">  1       21 0.69986875E-02 0.46621391E+03</pdfrwt>
<pdfrwt beam="2">  1       21 0.16790979E+00 0.46621391E+03</pdfrwt>
<totfact> 0.29804193E+04</totfact>
</mgrwt>
</event>
<event>
 7    0  0.4759581E-002  0.4594114E+03  0.7546771E-02  0.1024952E+00
         21   -1    0    0  502  501  0.00000000000E+00  0.00000000000E+00  0.62765947040E+03  0.62765947040E+03  0.00000000000E+00 0.  1.
         21   -1    0    0  501  502 -0.00000000000E+00 -0.00000000000E+00 -0.84065814489E+02  0.84065814489E+02  0.00000000000E+00 0.  1.
      99926    2    1    2    0    0  0.00000000000E+00  0.00000000000E+00  0.54359365591E+03  0.71172528489E+03  0.45941138254E+03 0.  0.
      99925    2    3    3    0    0  0.77567075653E+02 -0.76321671544E+02  0.27279748784E+03  0.39420407062E+03  0.26293864521E+03 0.  0.
         25    1    4    4    0    0  0.26407579819E+02 -0.74231054767E+02  0.16308591779E+03  0.22011845549E+03  0.12509000000E+03 0.  0.
         25    1    4    4    0    0  0.51159495834E+02 -0.20906167764E+01  0.10971157005E+03  0.17408561513E+03  0.12509000000E+03 0.  0.
         25    1    3    3    0    0 -0.77567075653E+02  0.76321671544E+02  0.27079616807E+03  0.31752121427E+03  0.12509000000E+03 0.  0.
<mgrwt>
<rscale>  2 0.45941138E+03</rscale>
<asrwt>0</asrwt>
<pdfrwt beam="1">  1       21 0.92302861E-01 0.45941138E+03</pdfrwt>
<pdfrwt beam="2">  1       21 0.12362620E-01 0.45941138E+03</pdfrwt>
<totfact> 0.50495530E+04</totfact>
</mgrwt>
</event>
<event>
 6    0  0.4759581E-002  0.4549386E+03  0.7546771E-02  0.1026259E+00
         21   -1    0    0  502  501  0.00000000000E+00  0.00000000000E+00  0.19645443194E+03  0.19645443194E+03  0.00000000000E+00 0.  1.
         21   -1    0    0  501  502 -0.00000000000E+00 -0.00000000000E+00 -0.26338056937E+03  0.26338056937E+03  0.00000000000E+00 0.  1.
      99926    2    1    2    0    0  0.88817841970E-15  0.00000000000E+00 -0.66926137432E+02  0.45983500131E+03  0.45493858987E+03 0.  0.
         25    1    3    3    0    0  0.17241052989E+02 -0.40597542333E+02 -0.11112464863E+03  0.17303644121E+03  0.12509000000E+03 0.  0.
         25    1    3    3    0    0  0.51619124870E+01  0.81410044899E+02  0.32343559999E+02  0.15280004818E+03  0.12509000000E+03 0.  0.
         25    1    3    3    0    0 -0.22402965476E+02 -0.40812502566E+02  0.11854951204E+02  0.13399851192E+03  0.12509000000E+03 0.  0.
<mgrwt>
<rscale>  2 0.45493859E+03</rscale>
<asrwt>0</asrwt>
<pdfrwt beam="1">  1       21 0.28890358E-01 0.45493859E+03</pdfrwt>
<pdfrwt beam="2">  1       21 0.38732436E-01 0.45493859E+03</pdfrwt>
<totfact> 0.68226005E+04</totfact>
</mgrwt>
</event>
<event>
 7    0  0.4759581E-002  0.4341516E+03  0.7546771E-02  0.1032556E+00
         21   -1    0    0  502  501  0.00000000000E+00  0.00000000000E+00  0.48306023943E+03  0.48306023943E+03  0.00000000000E+00 0.  1.
         21   -1    0    0  501  502 -0.00000000000E+00 -0.00000000000E+00 -0.97548694577E+02  0.97548694577E+02  0.00000000000E+00 0.  1.
      99926    2    1    2    0    0  0.35527136788E-14 -0.14210854715E-13  0.38551154485E+03  0.58060893400E+03  0.43415156689E+03 0.  0.
      99925    2    3    3    0    0  0.22060748562E+02  0.71949255711E+02  0.17633287242E+03  0.32552738406E+03  0.26308064134E+03 0.  0.
         25    1    3    3    0    0 -0.22060748562E+02 -0.71949255711E+02  0.20917867243E+03  0.25508154994E+03  0.12509000000E+03 0.  0.
         25    1    4    4    0    0  0.41833681778E+02  0.18555023268E+02  0.11082898370E+03  0.17327699659E+03  0.12509000000E+03 0.  0.
         25    1    4    4    0    0 -0.19772933216E+02  0.53394232443E+02  0.65503888725E+02  0.15225038747E+03  0.12509000000E+03 0.  0.
<mgrwt>
<rscale>  2 0.43415157E+03</rscale>
<asrwt>0</asrwt>
<pdfrwt beam="1">  1       21 0.71038269E-01 0.43415157E+03</pdfrwt>
<pdfrwt beam="2">  1       21 0.14345397E-01 0.43415157E+03</pdfrwt>
<totfact> 0.70864652E+04</totfact>
</mgrwt>
</event>
<event>
 7    0  0.4759581E-002  0.4338342E+03  0.7546771E-02  0.1032656E+00
         21   -1    0    0  502  501  0.00000000000E+00  0.00000000000E+00  0.97891247679E+02  0.97891247679E+02  0.00000000000E+00 0. -1.
         21   -1    0    0  501  502 -0.00000000000E+00 -0.00000000000E+00 -0.48066641462E+03  0.48066641462E+03  0.00000000000E+00 0. -1.
      99926    2    1    2    0    0  0.71054273576E-14  0.00000000000E+00 -0.38277516694E+03  0.57855766230E+03  0.43383423122E+03 0.  0.
      99925    2    3    3    0    0 -0.57700582814E+02  0.57120863957E+02 -0.30333104104E+03  0.40958716902E+03  0.26298246751E+03 0.  0.
         25    1    3    3    0    0  0.57700582814E+02 -0.57120863957E+02 -0.79444125900E+02  0.16897049327E+03  0.12509000000E+03 0.  0.
         25    1    4    4    0    0  0.99334660440E+01  0.22925770291E+02 -0.12074155767E+03  0.17564252486E+03  0.12509000000E+03 0.  0.
         25    1    4    4    0    0 -0.67634048858E+02  0.34195093666E+02 -0.18258948337E+03  0.23394464417E+03  0.12509000000E+03 0.  0.
<mgrwt>
<rscale>  2 0.43383423E+03</rscale>
<asrwt>0</asrwt>
<pdfrwt beam="1">  1       21 0.14395772E-01 0.43383423E+03</pdfrwt>
<pdfrwt beam="2">  1       21 0.70686237E-01 0.43383423E+03</pdfrwt>
<totfact> 0.71205195E+04</totfact>
</mgrwt>
</event>
<event>
 7    0  0.4759581E-002  0.4567726E+03  0.7546771E-02  0.1025721E+00
         21   -1    0    0  502  501  0.00000000000E+00  0.00000000000E+00  0.82625975541E+02  0.82625975541E+02  0.00000000000E+00 0. -1.
         21   -1    0    0  501  502 -0.00000000000E+00 -0.00000000000E+00 -0.63128226402E+03  0.63128226402E+03  0.00000000000E+00 0. -1.
      99926    2    1    2    0    0 -0.71054273576E-14  0.00000000000E+00 -0.54865628847E+03  0.71390823956E+03  0.45677264763E+03 0.  0.
      99925    2    3    3    0    0 -0.45713431226E+02 -0.35168023834E+02 -0.18946581443E+03  0.32921119974E+03  0.26297568615E+03 0.  0.
         25    1    3    3    0    0  0.45713431226E+02  0.35168023834E+02 -0.35919047405E+03  0.38469703981E+03  0.12509000000E+03 0.  0.
         25    1    4    4    0    0 -0.40848025612E+02 -0.12622857108E+02 -0.14049921252E+03  0.19291302325E+03  0.12509000000E+03 0.  0.
         25    1    4    4    0    0 -0.48654056140E+01 -0.22545166726E+02 -0.48966601901E+02  0.13629817650E+03  0.12509000000E+03 0.  0.
<mgrwt>
<rscale>  2 0.45677265E+03</rscale>
<asrwt>0</asrwt>
<pdfrwt beam="1">  1       21 0.12150879E-01 0.45677265E+03</pdfrwt>
<pdfrwt beam="2">  1       21 0.92835626E-01 0.45677265E+03</pdfrwt>
<totfact> 0.51433341E+04</totfact>
</mgrwt>
</event>
<event>
 7    0  0.4759581E-002  0.4528559E+03  0.7546771E-02  0.1026874E+00
         21   -1    0    0  502  501  0.00000000000E+00  0.00000000000E+00  0.17359655484E+03  0.17359655484E+03  0.00000000000E+00 0. -1.
         21   -1    0    0  501  502 -0.00000000000E+00 -0.00000000000E+00 -0.29533776359E+03  0.29533776359E+03  0.00000000000E+00 0. -1.
      99926    2    1    2    0    0  0.00000000000E+00  0.00000000000E+00 -0.12174120875E+03  0.46893431842E+03  0.45285590764E+03 0.  0.
      99925    2    3    3    0    0 -0.17612147800E+02  0.54930269460E+02  0.21863410286E+02  0.26994357250E+03  0.26280030703E+03 0.  0.
         25    1    4    4    0    0  0.27746005063E+02  0.43167919449E+02  0.49345542976E+01  0.13529659269E+03  0.12509000000E+03 0.  0.
         25    1    4    4    0    0 -0.45358152863E+02  0.11762350011E+02  0.16928855988E+02  0.13464697982E+03  0.12509000000E+03 0.  0.
         25    1    3    3    0    0  0.17612147800E+02 -0.54930269460E+02 -0.14360461904E+03  0.19899074592E+03  0.12509000000E+03 0.  0.
<mgrwt>
<rscale>  2 0.45285591E+03</rscale>
<asrwt>0</asrwt>
<pdfrwt beam="1">  1       21 0.25528905E-01 0.45285591E+03</pdfrwt>
<pdfrwt beam="2">  1       21 0.43432023E-01 0.45285591E+03</pdfrwt>
<totfact> 0.68675778E+04</totfact>
</mgrwt>
</event>
<event>
 7    0  0.4759581E-002  0.4523905E+03  0.7546771E-02  0.1027012E+00
         21   -1    0    0  502  501  0.00000000000E+00  0.00000000000E+00  0.28468912759E+03  0.28468912759E+03  0.00000000000E+00 0.  1.
         21   -1    0    0  501  502 -0.00000000000E+00 -0.00000000000E+00 -0.17971984464E+03  0.17971984464E+03  0.00000000000E+00 0.  1.
      99926    2    1    2    0    0  0.00000000000E+00 -0.35527136788E-14  0.10496928295E+03  0.46440897224E+03  0.45239047639E+03 0.  0.
      99925    2    3    3    0    0 -0.86615188281E+02  0.22269685860E+02  0.13296530076E+03  0.30810985240E+03  0.26316112971E+03 0.  0.
         25    1    3    3    0    0  0.86615188281E+02 -0.22269685860E+02 -0.27996017808E+02  0.15629911984E+03  0.12509000000E+03 0.  0.
         25    1    4    4    0    0 -0.69232588193E+02  0.43559035973E+02  0.63257877662E+02  0.16229481837E+03  0.12509000000E+03 0.  0.
         25    1    4    4    0    0 -0.17382600088E+02 -0.21289350113E+02  0.69707423098E+02  0.14581503403E+03  0.12509000000E+03 0.  0.
<mgrwt>
<rscale>  2 0.45239048E+03</rscale>
<asrwt>0</asrwt>
<pdfrwt beam="1">  1       21 0.41866048E-01 0.45239048E+03</pdfrwt>
<pdfrwt beam="2">  1       21 0.26429389E-01 0.45239048E+03</pdfrwt>
<totfact> 0.69276997E+04</totfact>
</mgrwt>
</event>
<event>
 7    0  0.4759581E-002  0.4511885E+03  0.7546771E-02  0.1027368E+00
         21   -1    0    0  502  501  0.00000000000E+00  0.00000000000E+00  0.50050376867E+02  0.50050376867E+02  0.00000000000E+00 0.  1.
         21   -1    0    0  501  502 -0.00000000000E+00 -0.00000000000E+00 -0.10168309982E+04  0.10168309982E+04  0.00000000000E+00 0.  1.
      99926    2    1    2    0    0  0.14210854715E-13  0.14210854715E-13 -0.96678062138E+03  0.10668813751E+04  0.45118854007E+03 0.  0.
      99925    2    3    3    0    0  0.87960363122E+02  0.63286360567E+02 -0.57391624020E+03  0.64058087194E+03  0.26310038731E+03 0.  0.
         25    1    4    4    0    0  0.85593241846E+02  0.28670689664E+02 -0.32991129826E+03  0.36419388286E+03  0.12509000000E+03 0.  0.
         25    1    3    3    0    0 -0.87960363122E+02 -0.63286360567E+02 -0.39286438118E+03  0.42630050318E+03  0.12509000000E+03 0.  0.
         25    1    4    4    0    0  0.23671212760E+01  0.34615670903E+02 -0.24400494195E+03  0.27638698908E+03  0.12509000000E+03 0.  0.
<mgrwt>
<rscale>  2 0.45118854E+03</rscale>
<asrwt>0</asrwt>
<pdfrwt beam="1">  1       21 0.73603505E-02 0.45118854E+03</pdfrwt>
<pdfrwt beam="2">  1       21 0.14953395E+00 0.45118854E+03</pdfrwt>
<totfact> 0.37775139E+04</totfact>
</mgrwt>
</event>
<event>
 7    0  0.4759581E-002  0.4540351E+03  0.7546771E-02  0.1026526E+00
         21   -1    0    0  502  501  0.00000000000E+00  0.00000000000E+00  0.17273058292E+03  0.17273058292E+03  0.00000000000E+00 0. -1.
         21   -1    0    0  501  502 -0.00000000000E+00 -0.00000000000E+00 -0.29836615183E+03  0.29836615183E+03  0.00000000000E+00 0. -1.
      99926    2    1    2    0    0  0.00000000000E+00  0.00000000000E+00 -0.12563556890E+03  0.47109673475E+03  0.45403506177E+03 0.  0.
      99925    2    3    3    0    0  0.63210359186E+02 -0.72568144512E+02 -0.19036377452E+02  0.28064311618E+03  0.26293818644E+03 0.  0.
         25    1    4    4    0    0  0.18240836803E+02 -0.30084368716E+01  0.13375481546E+02  0.12715419940E+03  0.12509000000E+03 0.  0.
         25    1    3    3    0    0 -0.63210359186E+02  0.72568144512E+02 -0.10659919145E+03  0.19045361857E+03  0.12509000000E+03 0.  0.
         25    1    4    4    0    0  0.44969522383E+02 -0.69559707641E+02 -0.32411858997E+02  0.15348891678E+03  0.12509000000E+03 0.  0.
<mgrwt>
<rscale>  2 0.45403506E+03</rscale>
<asrwt>0</asrwt>
<pdfrwt beam="1">  1       21 0.25401557E-01 0.45403506E+03</pdfrwt>
<pdfrwt beam="2">  1       21 0.43877375E-01 0.45403506E+03</pdfrwt>
<totfact> 0.67872359E+04</totfact>
</mgrwt>
</event>
<event>
 6    0  0.4759581E-002  0.4542633E+03  0.7546771E-02  0.1026458E+00
         21   -1    0    0  502  501  0.00000000000E+00  0.00000000000E+00  0.51246630618E+03  0.51246630618E+03  0.00000000000E+00 0. -1.
         21   -1    0    0  501  502 -0.00000000000E+00 -0.00000000000E+00 -0.10066765284E+03  0.10066765284E+03  0.00000000000E+00 0. -1.
      99926    2    1    2    0    0  0.00000000000E+00  0.00000000000E+00  0.41179865334E+03  0.61313395902E+03  0.45426327257E+03 0.  0.
         25    1    3    3    0    0  0.31841002236E+02 -0.66583234271E+01  0.13474693749E+03  0.18671483058E+03  0.12509000000E+03 0.  0.
         25    1    3    3    0    0 -0.10233807649E+03 -0.50859739026E+02  0.14826403321E+03  0.22514334678E+03  0.12509000000E+03 0.  0.
         25    1    3    3    0    0  0.70497074251E+02  0.57518062453E+02  0.12878768264E+03  0.20127578167E+03  0.12509000000E+03 0.  0.
<mgrwt>
<rscale>  2 0.45426327E+03</rscale>
<asrwt>0</asrwt>
<pdfrwt beam="1">  1       21 0.75362691E-01 0.45426327E+03</pdfrwt>
<pdfrwt beam="2">  1       21 0.14804067E-01 0.45426327E+03</pdfrwt>
<totfact> 0.58215039E+04</totfact>
</mgrwt>
</event>
<event>
 7    0  0.4759581E-002  0.4455891E+03  0.7546771E-02  0.1029046E+00
         21   -1    0    0  502  501  0.00000000000E+00  0.00000000000E+00  0.84009162458E+03  0.84009162458E+03  0.00000000000E+00 0.  1.
         21   -1    0    0  501  502 -0.00000000000E+00 -0.00000000000E+00 -0.59085699888E+02  0.59085699888E+02  0.00000000000E+00 0.  1.
      99926    2    1    2    0    0  0.44408920985E-15 -0.53290705182E-14  0.78100592469E+03  0.89917732447E+03  0.44558905556E+03 0.  0.
      99925    2    3    3    0    0  0.36184157114E+01  0.21244286210E+01  0.28647879804E+03  0.38905754125E+03  0.26320726159E+03 0.  0.
         25    1    4    4    0    0 -0.16775005408E+01 -0.39679424759E+02  0.14233663843E+03  0.19360913588E+03  0.12509000000E+03 0.  0.
         25    1    3    3    0    0 -0.36184157114E+01 -0.21244286210E+01  0.49452712666E+03  0.51011978322E+03  0.12509000000E+03 0.  0.
         25    1    4    4    0    0  0.52959162522E+01  0.41803853380E+02  0.14414215960E+03  0.19544840537E+03  0.12509000000E+03 0.  0.
<mgrwt>
<rscale>  2 0.44558906E+03</rscale>
<asrwt>0</asrwt>
<pdfrwt beam="1">  1       21 0.12354288E+00 0.44558906E+03</pdfrwt>
<pdfrwt beam="2">  1       21 0.86890740E-02 0.44558906E+03</pdfrwt>
<totfact> 0.46608719E+04</totfact>
</mgrwt>
</event>
<event>
 7    0  0.4759581E-002  0.4592576E+03  0.7546771E-02  0.1024997E+00
         21   -1    0    0  502  501  0.00000000000E+00  0.00000000000E+00  0.64619596688E+03  0.64619596688E+03  0.00000000000E+00 0.  1.
         21   -1    0    0  501  502 -0.00000000000E+00 -0.00000000000E+00 -0.81599679543E+02  0.81599679543E+02  0.00000000000E+00 0.  1.
      99926    2    1    2    0    0  0.00000000000E+00  0.00000000000E+00  0.56459628734E+03  0.72779564643E+03  0.45925759142E+03 0.  0.
      99925    2    3    3    0    0 -0.38975375387E+02 -0.27618000053E+02  0.18452226330E+03  0.32482467270E+03  0.26302237268E+03 0.  0.
         25    1    4    4    0    0  0.11753727459E+02 -0.54647943772E+01  0.57990143033E+02  0.13848602412E+03  0.12509000000E+03 0.  0.
         25    1    3    3    0    0  0.38975375387E+02  0.27618000053E+02  0.38007402404E+03  0.40297097373E+03  0.12509000000E+03 0.  0.
         25    1    4    4    0    0 -0.50729102846E+02 -0.22153205676E+02  0.12653212027E+03  0.18633864858E+03  0.12509000000E+03 0.  0.
<mgrwt>
<rscale>  2 0.45925759E+03</rscale>
<asrwt>0</asrwt>
<pdfrwt beam="1">  1       21 0.95028816E-01 0.45925759E+03</pdfrwt>
<pdfrwt beam="2">  1       21 0.11999953E-01 0.45925759E+03</pdfrwt>
<totfact> 0.49733514E+04</totfact>
</mgrwt>
</event>
<event>
 7    0  0.4759581E-002  0.4691038E+03  0.7546771E-02  0.1022173E+00
         21   -1    0    0  502  501  0.00000000000E+00  0.00000000000E+00  0.71798303329E+03  0.71798303329E+03  0.00000000000E+00 0.  1.
         21   -1    0    0  501  502 -0.00000000000E+00 -0.00000000000E+00 -0.76623793006E+02  0.76623793006E+02  0.00000000000E+00 0.  1.
      99926    2    1    2    0    0  0.00000000000E+00  0.00000000000E+00  0.64135924029E+03  0.79460682630E+03  0.46910375537E+03 0.  0.
      99925    2    3    3    0    0 -0.38530916358E+02 -0.85175097179E+02  0.54304690776E+03  0.61007430472E+03  0.26182300233E+03 0.  0.
         25    1    4    4    0    0 -0.72847965539E+01 -0.27413293209E+02  0.18457839971E+03  0.22476932764E+03  0.12509000000E+03 0.  0.
         25    1    3    3    0    0  0.38530916358E+02  0.85175097179E+02  0.98312332527E+02  0.18453252158E+03  0.12509000000E+03 0.  0.
         25    1    4    4    0    0 -0.31246119804E+02 -0.57761803970E+02  0.35846850805E+03  0.38530497708E+03  0.12509000000E+03 0.  0.
<mgrwt>
<rscale>  2 0.46910376E+03</rscale>
<asrwt>0</asrwt>
<pdfrwt beam="1">  1       21 0.10558574E+00 0.46910376E+03</pdfrwt>
<pdfrwt beam="2">  1       21 0.11268205E-01 0.46910376E+03</pdfrwt>
<totfact> 0.43059167E+04</totfact>
</mgrwt>
</event>
<event>
 7    0  0.4759581E-002  0.4524265E+03  0.7546771E-02  0.1027001E+00
         21   -1    0    0  502  501  0.00000000000E+00  0.00000000000E+00  0.73438677300E+03  0.73438677300E+03  0.00000000000E+00 0.  1.
         21   -1    0    0  501  502 -0.00000000000E+00 -0.00000000000E+00 -0.69680484089E+02  0.69680484089E+02  0.00000000000E+00 0.  1.
      99926    2    1    2    0    0  0.00000000000E+00  0.35527136788E-14  0.66470628891E+03  0.80406725709E+03  0.45242646187E+03 0.  0.
      99925    2    3    3    0    0 -0.10431368492E+03 -0.17573201812E+02  0.36156044656E+03  0.45948769862E+03  0.26308330692E+03 0.  0.
         25    1    4    4    0    0 -0.46215426135E+02 -0.47737367455E+02  0.16460242861E+03  0.21715475926E+03  0.12509000000E+03 0.  0.
         25    1    4    4    0    0 -0.58098258782E+02  0.30164165643E+02  0.19695801795E+03  0.24233293936E+03  0.12509000000E+03 0.  0.
         25    1    3    3    0    0  0.10431368492E+03  0.17573201812E+02  0.30314584235E+03  0.34457955847E+03  0.12509000000E+03 0.  0.
<mgrwt>
<rscale>  2 0.45242646E+03</rscale>
<asrwt>0</asrwt>
<pdfrwt beam="1">  1       21 0.10799805E+00 0.45242646E+03</pdfrwt>
<pdfrwt beam="2">  1       21 0.10247130E-01 0.45242646E+03</pdfrwt>
<totfact> 0.48541657E+04</totfact>
</mgrwt>
</event>
<event>
 7    0  0.4759581E-002  0.4396918E+03  0.7546771E-02  0.1030841E+00
         21   -1    0    0  502  501  0.00000000000E+00  0.00000000000E+00  0.11536155285E+03  0.11536155285E+03  0.00000000000E+00 0. -1.
         21   -1    0    0  501  502 -0.00000000000E+00 -0.00000000000E+00 -0.41896292158E+03  0.41896292158E+03  0.00000000000E+00 0. -1.
      99926    2    1    2    0    0  0.00000000000E+00  0.12212453271E-14 -0.30360136873E+03  0.53432447443E+03  0.43969177031E+03 0.  0.
      99925    2    3    3    0    0 -0.79517118619E+02  0.57724411630E+00 -0.26385120914E+03  0.38086148654E+03  0.26289675921E+03 0.  0.
         25    1    4    4    0    0 -0.74441623175E+02 -0.12433304562E+02 -0.16809955023E+03  0.22271306475E+03  0.12509000000E+03 0.  0.
         25    1    4    4    0    0 -0.50754954442E+01  0.13010548679E+02 -0.95751658905E+02  0.15814842179E+03  0.12509000000E+03 0.  0.
         25    1    3    3    0    0  0.79517118619E+02 -0.57724411630E+00 -0.39750159586E+02  0.15346298789E+03  0.12509000000E+03 0.  0.
<mgrwt>
<rscale>  2 0.43969177E+03</rscale>
<asrwt>0</asrwt>
<pdfrwt beam="1">  1       21 0.16964934E-01 0.43969177E+03</pdfrwt>
<pdfrwt beam="2">  1       21 0.61612195E-01 0.43969177E+03</pdfrwt>
<totfact> 0.71151361E+04</totfact>
</mgrwt>
</event>
<event>
 7    0  0.4759581E-002  0.4250676E+03  0.7546771E-02  0.1035429E+00
         21   -1    0    0  502  501  0.00000000000E+00  0.00000000000E+00  0.11953296985E+03  0.11953296985E+03  0.00000000000E+00 0. -1.
         21   -1    0    0  501  502 -0.00000000000E+00 -0.00000000000E+00 -0.37789253691E+03  0.37789253691E+03  0.00000000000E+00 0. -1.
      99926    2    1    2    0    0  0.00000000000E+00  0.00000000000E+00 -0.25835956706E+03  0.49742550677E+03  0.42506760508E+03 0.  0.
      99925    2    3    3    0    0  0.32420150785E+02  0.68294297435E+02 -0.12958299968E+03  0.30262794609E+03  0.26282454739E+03 0.  0.
         25    1    4    4    0    0  0.33996305961E+02 -0.26604981288E+01 -0.60511860871E+02  0.14308046853E+03  0.12509000000E+03 0.  0.
         25    1    3    3    0    0 -0.32420150785E+02 -0.68294297435E+02 -0.12877656738E+03  0.19479756068E+03  0.12509000000E+03 0.  0.
         25    1    4    4    0    0 -0.15761551755E+01  0.70954795563E+02 -0.69071138807E+02  0.15954747756E+03  0.12509000000E+03 0.  0.
<mgrwt>
<rscale>  2 0.42506761E+03</rscale>
<asrwt>0</asrwt>
<pdfrwt beam="1">  1       21 0.17578378E-01 0.42506761E+03</pdfrwt>
<pdfrwt beam="2">  1       21 0.55572431E-01 0.42506761E+03</pdfrwt>
<totfact> 0.83608010E+04</totfact>
</mgrwt>
</event>
<event>
 7    0  0.4759581E-002  0.4505719E+03  0.7546771E-02  0.1027552E+00
         21   -1    0    0  502  501  0.00000000000E+00  0.00000000000E+00  0.30832716435E+03  0.30832716435E+03  0.00000000000E+00 0. -1.
         21   -1    0    0  501  502 -0.00000000000E+00 -0.00000000000E+00 -0.16461010876E+03  0.16461010876E+03  0.00000000000E+00 0. -1.
      99926    2    1    2    0    0  0.00000000000E+00  0.35527136788E-14  0.14371705559E+03  0.47293727311E+03  0.45057193901E+03 0.  0.
      99925    2    3    3    0    0  0.10659256408E+03 -0.21266924034E+02  0.81157892953E+02  0.29580620947E+03  0.26286965058E+03 0.  0.
         25    1    4    4    0    0  0.50315606681E+02 -0.45919257288E+02  0.61176038379E+02  0.15501694823E+03  0.12509000000E+03 0.  0.
         25    1    4    4    0    0  0.56276957400E+02  0.24652333254E+02  0.19981854574E+02  0.14078926124E+03  0.12509000000E+03 0.  0.
         25    1    3    3    0    0 -0.10659256408E+03  0.21266924034E+02  0.62559162642E+02  0.17713106364E+03  0.12509000000E+03 0.  0.
<mgrwt>
<rscale>  2 0.45057194E+03</rscale>
<asrwt>0</asrwt>
<pdfrwt beam="1">  1       21 0.45342230E-01 0.45057194E+03</pdfrwt>
<pdfrwt beam="2">  1       21 0.24207369E-01 0.45057194E+03</pdfrwt>
<totfact> 0.69632922E+04</totfact>
</mgrwt>
</event>
<event>
 7    0  0.4759581E-002  0.4500131E+03  0.7546771E-02  0.1027718E+00
         21   -1    0    0  502  501  0.00000000000E+00  0.00000000000E+00  0.65809852188E+03  0.65809852188E+03  0.00000000000E+00 0. -1.
         21   -1    0    0  501  502 -0.00000000000E+00 -0.00000000000E+00 -0.76930656372E+02  0.76930656372E+02  0.00000000000E+00 0. -1.
      99926    2    1    2    0    0  0.57731597281E-14  0.71054273576E-14  0.58116786551E+03  0.73502917825E+03  0.45001311646E+03 0.  0.
      99925    2    3    3    0    0  0.22985460026E+01  0.39357559740E+02  0.53232925298E+03  0.59507554666E+03  0.26303264405E+03 0.  0.
         25    1    4    4    0    0  0.36640775406E+02  0.22526915210E+02  0.22390409811E+03  0.26005876563E+03  0.12509000000E+03 0.  0.
         25    1    3    3    0    0 -0.22985460026E+01 -0.39357559740E+02  0.48838612535E+02  0.13995363160E+03  0.12509000000E+03 0.  0.
         25    1    4    4    0    0 -0.34342229403E+02  0.16830644531E+02  0.30842515487E+03  0.33501678103E+03  0.12509000000E+03 0.  0.
<mgrwt>
<rscale>  2 0.45001312E+03</rscale>
<asrwt>0</asrwt>
<pdfrwt beam="1">  1       21 0.96779191E-01 0.45001312E+03</pdfrwt>
<pdfrwt beam="2">  1       21 0.11313332E-01 0.45001312E+03</pdfrwt>
<totfact> 0.53093361E+04</totfact>
</mgrwt>
</event>
<event>
 7    0  0.4759581E-002  0.4385455E+03  0.7546771E-02  0.1031194E+00
         21   -1    0    0  502  501  0.00000000000E+00  0.00000000000E+00  0.54772754518E+02  0.54772754518E+02  0.00000000000E+00 0. -1.
         21   -1    0    0  501  502 -0.00000000000E+00 -0.00000000000E+00 -0.87781868051E+03  0.87781868051E+03  0.00000000000E+00 0. -1.
      99926    2    1    2    0    0  0.00000000000E+00  0.00000000000E+00 -0.82304592600E+03  0.93259143503E+03  0.43854553743E+03 0.  0.
      99925    2    3    3    0    0 -0.34696172155E+02  0.64947108167E+02 -0.66031451070E+03  0.71452957948E+03  0.26289791877E+03 0.  0.
         25    1    4    4    0    0 -0.33217396382E+02  0.64021469095E+02 -0.29615360390E+03  0.32947930000E+03  0.12509000000E+03 0.  0.
         25    1    3    3    0    0  0.34696172155E+02 -0.64947108167E+02 -0.16273141530E+03  0.21806185555E+03  0.12509000000E+03 0.  0.
         25    1    4    4    0    0 -0.14787757732E+01  0.92563907210E+00 -0.36416090680E+03  0.38505027948E+03  0.12509000000E+03 0.  0.
<mgrwt>
<rscale>  2 0.43854554E+03</rscale>
<asrwt>0</asrwt>
<pdfrwt beam="1">  1       21 0.80548167E-02 0.43854554E+03</pdfrwt>
<pdfrwt beam="2">  1       21 0.12909099E+00 0.43854554E+03</pdfrwt>
<totfact> 0.47703419E+04</totfact>
</mgrwt>
</event>
<event>
 7    0  0.4759581E-002  0.4466973E+03  0.7546771E-02  0.1028712E+00
         21   -1    0    0  502  501  0.00000000000E+00  0.00000000000E+00  0.49700254515E+02  0.49700254515E+02  0.00000000000E+00 0. -1.
         21   -1    0    0  501  502 -0.00000000000E+00 -0.00000000000E+00 -0.10037096205E+04  0.10037096205E+04  0.00000000000E+00 0. -1.
      99926    2    1    2    0    0  0.00000000000E+00  0.00000000000E+00 -0.95400936594E+03  0.10534098750E+04  0.44669731853E+03 0.  0.
      99925    2    3    3    0    0  0.40485717970E+02  0.40009369435E+02 -0.39561677349E+03  0.47835367041E+03  0.26281126217E+03 0.  0.
         25    1    3    3    0    0 -0.40485717970E+02 -0.40009369435E+02 -0.55839259245E+03  0.57505620456E+03  0.12509000000E+03 0.  0.
         25    1    4    4    0    0  0.27524885062E+02 -0.62233257794E+01 -0.24665634771E+03  0.27799858102E+03  0.12509000000E+03 0.  0.
         25    1    4    4    0    0  0.12960832908E+02  0.46232695214E+02 -0.14896042578E+03  0.20035508939E+03  0.12509000000E+03 0.  0.
<mgrwt>
<rscale>  2 0.44669732E+03</rscale>
<asrwt>0</asrwt>
<pdfrwt beam="1">  1       21 0.73088606E-02 0.44669732E+03</pdfrwt>
<pdfrwt beam="2">  1       21 0.14760436E+00 0.44669732E+03</pdfrwt>
<totfact> 0.39660947E+04</totfact>
</mgrwt>
</event>
<event>
 7    0  0.4759581E-002  0.4539665E+03  0.7546771E-02  0.1026546E+00
         21   -1    0    0  502  501  0.00000000000E+00  0.00000000000E+00  0.17904232760E+03  0.17904232760E+03  0.00000000000E+00 0.  1.
         21   -1    0    0  501  502 -0.00000000000E+00 -0.00000000000E+00 -0.28776098170E+03  0.28776098170E+03  0.00000000000E+00 0.  1.
      99926    2    1    2    0    0  0.00000000000E+00  0.00000000000E+00 -0.10871865410E+03  0.46680330930E+03  0.45396650077E+03 0.  0.
      99925    2    3    3    0    0 -0.81550760376E+02  0.77081181134E+02 -0.68180641614E+02  0.29393667411E+03  0.26297934044E+03 0.  0.
         25    1    3    3    0    0  0.81550760376E+02 -0.77081181134E+02 -0.40538012482E+02  0.17286663518E+03  0.12509000000E+03 0.  0.
         25    1    4    4    0    0 -0.51832217476E+02  0.29751407714E+02 -0.73331108524E+02  0.15683330197E+03  0.12509000000E+03 0.  0.
         25    1    4    4    0    0 -0.29718542900E+02  0.47329773420E+02  0.51504669099E+01  0.13710337214E+03  0.12509000000E+03 0.  0.
<mgrwt>
<rscale>  2 0.45396650E+03</rscale>
<asrwt>0</asrwt>
<pdfrwt beam="1">  1       21 0.26329754E-01 0.45396650E+03</pdfrwt>
<pdfrwt beam="2">  1       21 0.42317791E-01 0.45396650E+03</pdfrwt>
<totfact> 0.68232020E+04</totfact>
</mgrwt>
</event>
<event>
 7    0  0.4759581E-002  0.4469774E+03  0.7546771E-02  0.1028627E+00
         21   -1    0    0  502  501  0.00000000000E+00  0.00000000000E+00  0.13359579610E+04  0.13359579610E+04  0.00000000000E+00 0.  1.
         21   -1    0    0  501  502 -0.00000000000E+00 -0.00000000000E+00 -0.37386804819E+02  0.37386804819E+02  0.00000000000E+00 0.  1.
      99926    2    1    2    0    0  0.00000000000E+00  0.00000000000E+00  0.12985711561E+04  0.13733447658E+04  0.44697740226E+03 0.  0.
      99925    2    3    3    0    0  0.60250885047E+02  0.26952157656E+02  0.10759643245E+04  0.11096064531E+04  0.26300316604E+03 0.  0.
         25    1    4    4    0    0  0.49759237879E+02 -0.17172408046E+02  0.46976660649E+03  0.48897755166E+03  0.12509000000E+03 0.  0.
         25    1    4    4    0    0  0.10491647168E+02  0.44124565701E+02  0.60619771799E+03  0.62062890148E+03  0.12509000000E+03 0.  0.
         25    1    3    3    0    0 -0.60250885047E+02 -0.26952157656E+02  0.22260683166E+03  0.26373831264E+03  0.12509000000E+03 0.  0.
<mgrwt>
<rscale>  2 0.44697740E+03</rscale>
<asrwt>0</asrwt>
<pdfrwt beam="1">  1       21 0.19646438E+00 0.44697740E+03</pdfrwt>
<pdfrwt beam="2">  1       21 0.54980604E-02 0.44697740E+03</pdfrwt>
<totfact> 0.28805797E+04</totfact>
</mgrwt>
</event>
<event>
 7    0  0.4759581E-002  0.4538340E+03  0.7546771E-02  0.1026585E+00
         21   -1    0    0  502  501  0.00000000000E+00  0.00000000000E+00  0.22975508462E+03  0.22975508462E+03  0.00000000000E+00 0.  1.
         21   -1    0    0  501  502 -0.00000000000E+00 -0.00000000000E+00 -0.22411401562E+03  0.22411401562E+03  0.00000000000E+00 0.  1.
      99926    2    1    2    0    0  0.00000000000E+00 -0.14210854715E-13  0.56410689958E+01  0.45386910024E+03  0.45383404290E+03 0.  0.
      99925    2    3    3    0    0  0.59439419685E+02 -0.70803396811E+02 -0.59777582030E+02  0.28512884537E+03  0.26301888437E+03 0.  0.
         25    1    3    3    0    0 -0.59439419685E+02  0.70803396811E+02  0.65418651025E+02  0.16874025487E+03  0.12509000000E+03 0.  0.
         25    1    4    4    0    0  0.47301647282E+02 -0.35349784800E+02 -0.68295699193E+02  0.15426880355E+03  0.12509000000E+03 0.  0.
         25    1    4    4    0    0  0.12137772403E+02 -0.35453612012E+02  0.85181171632E+01  0.13086004181E+03  0.12509000000E+03 0.  0.
<mgrwt>
<rscale>  2 0.45383404E+03</rscale>
<asrwt>0</asrwt>
<pdfrwt beam="1">  1       21 0.33787513E-01 0.45383404E+03</pdfrwt>
<pdfrwt beam="2">  1       21 0.32957943E-01 0.45383404E+03</pdfrwt>
<totfact> 0.69270916E+04</totfact>
</mgrwt>
</event>
<event>
 7    0  0.4759581E-002  0.4481017E+03  0.7546771E-02  0.1028290E+00
         21   -1    0    0  502  501  0.00000000000E+00  0.00000000000E+00  0.29365232548E+03  0.29365232548E+03  0.00000000000E+00 0.  1.
         21   -1    0    0  501  502 -0.00000000000E+00 -0.00000000000E+00 -0.17094628496E+03  0.17094628496E+03  0.00000000000E+00 0.  1.
      99926    2    1    2    0    0  0.00000000000E+00  0.00000000000E+00  0.12270604052E+03  0.46459861043E+03  0.44810165860E+03 0.  0.
      99925    2    3    3    0    0  0.70424263295E+02  0.62256965947E+01  0.16026621166E+03  0.31608392862E+03  0.26310730733E+03 0.  0.
         25    1    4    4    0    0  0.43934435025E+02  0.21685781757E+02  0.12264607495E+03  0.18190677698E+03  0.12509000000E+03 0.  0.
         25    1    3    3    0    0 -0.70424263295E+02 -0.62256965947E+01 -0.37560171138E+02  0.14851468182E+03  0.12509000000E+03 0.  0.
         25    1    4    4    0    0  0.26489828270E+02 -0.15460085162E+02  0.37620136708E+02  0.13417715164E+03  0.12509000000E+03 0.  0.
<mgrwt>
<rscale>  2 0.44810166E+03</rscale>
<asrwt>0</asrwt>
<pdfrwt beam="1">  1       21 0.43184166E-01 0.44810166E+03</pdfrwt>
<pdfrwt beam="2">  1       21 0.25139160E-01 0.44810166E+03</pdfrwt>
<totfact> 0.71682770E+04</totfact>
</mgrwt>
</event>
<event>
 7    0  0.4759581E-002  0.4261227E+03  0.7546771E-02  0.1035092E+00
         21   -1    0    0  502  501  0.00000000000E+00  0.00000000000E+00  0.50800346576E+03  0.50800346576E+03  0.00000000000E+00 0. -1.
         21   -1    0    0  501  502 -0.00000000000E+00 -0.00000000000E+00 -0.89359903740E+02  0.89359903740E+02  0.00000000000E+00 0. -1.
      99926    2    1    2    0    0  0.00000000000E+00 -0.17763568394E-14  0.41864356202E+03  0.59736336950E+03  0.42612270909E+03 0.  0.
      99925    2    3    3    0    0  0.80328724171E+02  0.75194751016E+01  0.30120190282E+03  0.40776036887E+03  0.26274833154E+03 0.  0.
         25    1    4    4    0    0  0.19422475039E+02  0.30681301530E+02  0.11209252751E+03  0.17184533052E+03  0.12509000000E+03 0.  0.
         25    1    4    4    0    0  0.60906249132E+02 -0.23161826428E+02  0.18910937531E+03  0.23591503835E+03  0.12509000000E+03 0.  0.
         25    1    3    3    0    0 -0.80328724171E+02 -0.75194751016E+01  0.11744165920E+03  0.18960300063E+03  0.12509000000E+03 0.  0.
<mgrwt>
<rscale>  2 0.42612271E+03</rscale>
<asrwt>0</asrwt>
<pdfrwt beam="1">  1       21 0.74706391E-01 0.42612271E+03</pdfrwt>
<pdfrwt beam="2">  1       21 0.13141163E-01 0.42612271E+03</pdfrwt>
<totfact> 0.74421761E+04</totfact>
</mgrwt>
</event>
<event>
 7    0  0.4759581E-002  0.4818720E+03  0.7546771E-02  0.1018622E+00
         21   -1    0    0  502  501  0.00000000000E+00  0.00000000000E+00  0.49438136346E+02  0.49438136346E+02  0.00000000000E+00 0. -1.
         21   -1    0    0  501  502 -0.00000000000E+00 -0.00000000000E+00 -0.11741980084E+04  0.11741980084E+04  0.00000000000E+00 0. -1.
      99926    2    1    2    0    0  0.00000000000E+00  0.00000000000E+00 -0.11247598720E+04  0.12236361447E+04  0.48187202133E+03 0.  0.
      99925    2    3    3    0    0  0.10004437387E+03 -0.25704115910E+02 -0.46427527212E+03  0.54352071839E+03  0.26304688688E+03 0.  0.
         25    1    4    4    0    0  0.10658636047E+02 -0.22669947861E+02 -0.23616289313E+03  0.26841749803E+03  0.12509000000E+03 0.  0.
         25    1    3    3    0    0 -0.10004437387E+03  0.25704115910E+02 -0.66048459991E+03  0.68011542633E+03  0.12509000000E+03 0.  0.
         25    1    4    4    0    0  0.89385737823E+02 -0.30341680487E+01 -0.22811237899E+03  0.27510322036E+03  0.12509000000E+03 0.  0.
<mgrwt>
<rscale>  2 0.48187202E+03</rscale>
<asrwt>0</asrwt>
<pdfrwt beam="1">  1       21 0.72703145E-02 0.48187202E+03</pdfrwt>
<pdfrwt beam="2">  1       21 0.17267617E+00 0.48187202E+03</pdfrwt>
<totfact> 0.25618915E+04</totfact>
</mgrwt>
</event>
<event>
 7    0  0.4759581E-002  0.4460456E+03  0.7546771E-02  0.1028908E+00
         21   -1    0    0  502  501  0.00000000000E+00  0.00000000000E+00  0.12601994576E+04  0.12601994576E+04  0.00000000000E+00 0. -1.
         21   -1    0    0  501  502 -0.00000000000E+00 -0.00000000000E+00 -0.39469283042E+02  0.39469283042E+02  0.00000000000E+00 0. -1.
      99926    2    1    2    0    0  0.00000000000E+00  0.00000000000E+00  0.12207301745E+04  0.12996687406E+04  0.44604559892E+03 0.  0.
      99925    2    3    3    0    0 -0.78060008967E+02 -0.54378806894E+02  0.90075189768E+03  0.94318027601E+03  0.26302971741E+03 0.  0.
         25    1    4    4    0    0 -0.12831473314E+02 -0.22881230903E+02  0.31696057594E+03  0.34175972881E+03  0.12509000000E+03 0.  0.
         25    1    4    4    0    0 -0.65228535653E+02 -0.31497575991E+02  0.58379132174E+03  0.60142054720E+03  0.12509000000E+03 0.  0.
         25    1    3    3    0    0  0.78060008967E+02  0.54378806894E+02  0.31997827683E+03  0.35648846458E+03  0.12509000000E+03 0.  0.
<mgrwt>
<rscale>  2 0.44604560E+03</rscale>
<asrwt>0</asrwt>
<pdfrwt beam="1">  1       21 0.18532342E+00 0.44604560E+03</pdfrwt>
<pdfrwt beam="2">  1       21 0.58043071E-02 0.44604560E+03</pdfrwt>
<totfact> 0.31244132E+04</totfact>
</mgrwt>
</event>
<event>
 7    0  0.4759581E-002  0.4557554E+03  0.7546771E-02  0.1026020E+00
         21   -1    0    0  502  501  0.00000000000E+00  0.00000000000E+00  0.88983623828E+02  0.88983623828E+02  0.00000000000E+00 0. -1.
         21   -1    0    0  501  502 -0.00000000000E+00 -0.00000000000E+00 -0.58357069281E+03  0.58357069281E+03  0.00000000000E+00 0. -1.
      99926    2    1    2    0    0  0.17763568394E-14  0.00000000000E+00 -0.49458706898E+03  0.67255431664E+03  0.45575535107E+03 0.  0.
      99925    2    3    3    0    0 -0.84783919424E+01  0.69245644008E+02 -0.44383837700E+03  0.52060109956E+03  0.26299459617E+03 0.  0.
         25    1    4    4    0    0 -0.40329969031E-01  0.47941894236E+02 -0.30033423077E+03  0.32885648104E+03  0.12509000000E+03 0.  0.
         25    1    4    4    0    0 -0.84380619734E+01  0.21303749772E+02 -0.14350414623E+03  0.19174461852E+03  0.12509000000E+03 0.  0.
         25    1    3    3    0    0  0.84783919424E+01 -0.69245644008E+02 -0.50748691980E+02  0.15195321708E+03  0.12509000000E+03 0.  0.
<mgrwt>
<rscale>  2 0.45575535E+03</rscale>
<asrwt>0</asrwt>
<pdfrwt beam="1">  1       21 0.13085827E-01 0.45575535E+03</pdfrwt>
<pdfrwt beam="2">  1       21 0.85819218E-01 0.45575535E+03</pdfrwt>
<totfact> 0.54095989E+04</totfact>
</mgrwt>
</event>
<event>
 7    0  0.4759581E-002  0.4471139E+03  0.7546771E-02  0.1028586E+00
         21   -1    0    0  502  501  0.00000000000E+00  0.00000000000E+00  0.47253049906E+03  0.47253049906E+03  0.00000000000E+00 0. -1.
         21   -1    0    0  501  502 -0.00000000000E+00 -0.00000000000E+00 -0.10576608164E+03  0.10576608164E+03  0.00000000000E+00 0. -1.
      99926    2    1    2    0    0  0.00000000000E+00  0.14210854715E-13  0.36676441742E+03  0.57829658070E+03  0.44711385280E+03 0.  0.
      99925    2    3    3    0    0 -0.49092631557E+02 -0.88360044979E+02  0.19250061066E+03  0.34116166874E+03  0.26290153117E+03 0.  0.
         25    1    3    3    0    0  0.49092631557E+02  0.88360044979E+02  0.17426380675E+03  0.23713491195E+03  0.12509000000E+03 0.  0.
         25    1    4    4    0    0  0.41374360945E+00 -0.76286506645E+02  0.10412304988E+03  0.17974682166E+03  0.12509000000E+03 0.  0.
         25    1    4    4    0    0 -0.49506375166E+02 -0.12073538335E+02  0.88377560781E+02  0.16141484709E+03  0.12509000000E+03 0.  0.
<mgrwt>
<rscale>  2 0.44711385E+03</rscale>
<asrwt>0</asrwt>
<pdfrwt beam="1">  1       21 0.69489778E-01 0.44711385E+03</pdfrwt>
<pdfrwt beam="2">  1       21 0.15553836E-01 0.44711385E+03</pdfrwt>
<totfact> 0.63927909E+04</totfact>
</mgrwt>
</event>
<event>
 7    0  0.4759581E-002  0.4630163E+03  0.7546771E-02  0.1023910E+00
         21   -1    0    0  502  501  0.00000000000E+00  0.00000000000E+00  0.90697850090E+03  0.90697850090E+03  0.00000000000E+00 0. -1.
         21   -1    0    0  501  502 -0.00000000000E+00 -0.00000000000E+00 -0.59092935733E+02  0.59092935733E+02  0.00000000000E+00 0. -1.
      99926    2    1    2    0    0  0.00000000000E+00  0.00000000000E+00  0.84788556517E+03  0.96607143663E+03  0.46301629459E+03 0.  0.
      99925    2    3    3    0    0 -0.68672660259E+02 -0.61677977835E+02  0.69148591408E+03  0.74555280663E+03  0.26301351845E+03 0.  0.
         25    1    4    4    0    0  0.10961528906E+01 -0.16381650741E+02  0.36432106576E+03  0.38554754193E+03  0.12509000000E+03 0.  0.
         25    1    4    4    0    0 -0.69768813150E+02 -0.45296327095E+02  0.32716484832E+03  0.36000526470E+03  0.12509000000E+03 0.  0.
         25    1    3    3    0    0  0.68672660259E+02  0.61677977835E+02  0.15639965108E+03  0.22051863000E+03  0.12509000000E+03 0.  0.
<mgrwt>
<rscale>  2 0.46301629E+03</rscale>
<asrwt>0</asrwt>
<pdfrwt beam="1">  1       21 0.13337918E+00 0.46301629E+03</pdfrwt>
<pdfrwt beam="2">  1       21 0.86901381E-02 0.46301629E+03</pdfrwt>
<totfact> 0.38055126E+04</totfact>
</mgrwt>
</event>
<event>
 7    0  0.4759581E-002  0.4575017E+03  0.7546771E-02  0.1025508E+00
         21   -1    0    0  502  501  0.00000000000E+00  0.00000000000E+00  0.40971012000E+03  0.40971012000E+03  0.00000000000E+00 0. -1.
         21   -1    0    0  501  502 -0.00000000000E+00 -0.00000000000E+00 -0.12771699399E+03  0.12771699399E+03  0.00000000000E+00 0. -1.
      99926    2    1    2    0    0 -0.71054273576E-14  0.00000000000E+00  0.28199312601E+03  0.53742711398E+03  0.45750167183E+03 0.  0.
      99925    2    3    3    0    0 -0.48259620619E+02  0.95149013075E+02  0.22886765167E+03  0.36464936717E+03  0.26307115639E+03 0.  0.
         25    1    3    3    0    0  0.48259620619E+02 -0.95149013075E+02  0.53125474337E+02  0.17277774682E+03  0.12509000000E+03 0.  0.
         25    1    4    4    0    0  0.13819186008E+02  0.40151162656E+02  0.87377859929E+02  0.15838397732E+03  0.12509000000E+03 0.  0.
         25    1    4    4    0    0 -0.62078806627E+02  0.54997850419E+02  0.14148979174E+03  0.20626538985E+03  0.12509000000E+03 0.  0.
<mgrwt>
<rscale>  2 0.45750167E+03</rscale>
<asrwt>0</asrwt>
<pdfrwt beam="1">  1       21 0.60251488E-01 0.45750167E+03</pdfrwt>
<pdfrwt beam="2">  1       21 0.18781911E-01 0.45750167E+03</pdfrwt>
<totfact> 0.61478526E+04</totfact>
</mgrwt>
</event>
<event>
 7    0  0.4759581E-002  0.4534869E+03  0.7546771E-02  0.1026687E+00
         21   -1    0    0  502  501  0.00000000000E+00  0.00000000000E+00  0.49644235944E+03  0.49644235944E+03  0.00000000000E+00 0. -1.
         21   -1    0    0  501  502 -0.00000000000E+00 -0.00000000000E+00 -0.10356207553E+03  0.10356207553E+03  0.00000000000E+00 0. -1.
      99926    2    1    2    0    0  0.00000000000E+00  0.14210854715E-13  0.39288028391E+03  0.60000443497E+03  0.45348693972E+03 0.  0.
      99925    2    3    3    0    0  0.29991813233E+02  0.70052759301E+02  0.35565888203E+03  0.44887588438E+03  0.26303882083E+03 0.  0.
         25    1    4    4    0    0  0.88030438351E+01  0.42186178381E+02  0.11455539776E+03  0.17500746979E+03  0.12509000000E+03 0.  0.
         25    1    4    4    0    0  0.21188769398E+02  0.27866580920E+02  0.24110348427E+03  0.27386841459E+03  0.12509000000E+03 0.  0.
         25    1    3    3    0    0 -0.29991813233E+02 -0.70052759301E+02  0.37221401882E+02  0.15112855059E+03  0.12509000000E+03 0.  0.
<mgrwt>
<rscale>  2 0.45348694E+03</rscale>
<asrwt>0</asrwt>
<pdfrwt beam="1">  1       21 0.73006228E-01 0.45348694E+03</pdfrwt>
<pdfrwt beam="2">  1       21 0.15229717E-01 0.45348694E+03</pdfrwt>
<totfact> 0.59384761E+04</totfact>
</mgrwt>
</event>
<event>
 7    0  0.4759581E-002  0.4654685E+03  0.7546771E-02  0.1023207E+00
         21   -1    0    0  502  501  0.00000000000E+00  0.00000000000E+00  0.80783110162E+02  0.80783110162E+02  0.00000000000E+00 0.  1.
         21   -1    0    0  501  502 -0.00000000000E+00 -0.00000000000E+00 -0.67050197711E+03  0.67050197711E+03  0.00000000000E+00 0.  1.
      99926    2    1    2    0    0  0.00000000000E+00  0.00000000000E+00 -0.58971886695E+03  0.75128508727E+03  0.46546851701E+03 0.  0.
      99925    2    3    3    0    0 -0.65376916192E+02 -0.73562477761E+02 -0.48609366600E+03  0.56136070843E+03  0.26296998602E+03 0.  0.
         25    1    3    3    0    0  0.65376916192E+02  0.73562477761E+02 -0.10362520095E+03  0.18992437884E+03  0.12509000000E+03 0.  0.
         25    1    4    4    0    0 -0.93904902206E+01 -0.67843290666E+00 -0.20925893668E+03  0.24397838482E+03  0.12509000000E+03 0.  0.
         25    1    4    4    0    0 -0.55986425972E+02 -0.72884044855E+02 -0.27683472931E+03  0.31738232361E+03  0.12509000000E+03 0.  0.
<mgrwt>
<rscale>  2 0.46546852E+03</rscale>
<asrwt>0</asrwt>
<pdfrwt beam="1">  1       21 0.11879869E-01 0.46546852E+03</pdfrwt>
<pdfrwt beam="2">  1       21 0.98603232E-01 0.46546852E+03</pdfrwt>
<totfact> 0.46278599E+04</totfact>
</mgrwt>
</event>
<event>
 7    0  0.4759581E-002  0.4580338E+03  0.7546771E-02  0.1025353E+00
         21   -1    0    0  502  501  0.00000000000E+00  0.00000000000E+00  0.19322581886E+03  0.19322581886E+03  0.00000000000E+00 0.  1.
         21   -1    0    0  501  502 -0.00000000000E+00 -0.00000000000E+00 -0.27143750707E+03  0.27143750707E+03  0.00000000000E+00 0.  1.
      99926    2    1    2    0    0  0.22204460493E-15  0.00000000000E+00 -0.78211688202E+02  0.46466332593E+03  0.45803377419E+03 0.  0.
      99925    2    3    3    0    0  0.65618272338E+00  0.59665335375E+02  0.52396872376E+02  0.27422570618E+03  0.26247651871E+03 0.  0.
         25    1    4    4    0    0  0.13921375316E+02  0.50777283279E+02 -0.46923663670E+01  0.13580008686E+03  0.12509000000E+03 0.  0.
         25    1    4    4    0    0 -0.13265192592E+02  0.88880520962E+01  0.57089238743E+02  0.13842561932E+03  0.12509000000E+03 0.  0.
         25    1    3    3    0    0 -0.65618272338E+00 -0.59665335375E+02 -0.13060856058E+03  0.19043761975E+03  0.12509000000E+03 0.  0.
<mgrwt>
<rscale>  2 0.45803377E+03</rscale>
<asrwt>0</asrwt>
<pdfrwt beam="1">  1       21 0.28415562E-01 0.45803377E+03</pdfrwt>
<pdfrwt beam="2">  1       21 0.39917281E-01 0.45803377E+03</pdfrwt>
<totfact> 0.66223545E+04</totfact>
</mgrwt>
</event>
<event>
 7    0  0.4759581E-002  0.4679724E+03  0.7546771E-02  0.1022494E+00
         21   -1    0    0  502  501  0.00000000000E+00  0.00000000000E+00  0.20647446322E+03  0.20647446322E+03  0.00000000000E+00 0. -1.
         21   -1    0    0  501  502 -0.00000000000E+00 -0.00000000000E+00 -0.26516370535E+03  0.26516370535E+03  0.00000000000E+00 0. -1.
      99926    2    1    2    0    0  0.22204460493E-15  0.00000000000E+00 -0.58689242134E+02  0.47163816857E+03  0.46797236554E+03 0.  0.
      99925    2    3    3    0    0 -0.12061859491E+01 -0.12309509402E+03 -0.58079986068E+02  0.29613393401E+03  0.26299841261E+03 0.  0.
         25    1    4    4    0    0 -0.27522072675E+02 -0.90927575764E+02 -0.46493637327E+02  0.16381225513E+03  0.12509000000E+03 0.  0.
         25    1    3    3    0    0  0.12061859491E+01  0.12309509402E+03 -0.60925606623E+00  0.17550423456E+03  0.12509000000E+03 0.  0.
         25    1    4    4    0    0  0.26315886726E+02 -0.32167518253E+02 -0.11586348741E+02  0.13232167888E+03  0.12509000000E+03 0.  0.
<mgrwt>
<rscale>  2 0.46797237E+03</rscale>
<asrwt>0</asrwt>
<pdfrwt beam="1">  1       21 0.30363892E-01 0.46797237E+03</pdfrwt>
<pdfrwt beam="2">  1       21 0.38994662E-01 0.46797237E+03</pdfrwt>
<totfact> 0.60802622E+04</totfact>
</mgrwt>
</event>
<event>
 7    0  0.4759581E-002  0.4481532E+03  0.7546771E-02  0.1028274E+00
         21   -1    0    0  502  501  0.00000000000E+00  0.00000000000E+00  0.65971344540E+03  0.65971344540E+03  0.00000000000E+00 0.  1.
         21   -1    0    0  501  502 -0.00000000000E+00 -0.00000000000E+00 -0.76109277077E+02  0.76109277077E+02  0.00000000000E+00 0.  1.
      99926    2    1    2    0    0  0.00000000000E+00 -0.26645352591E-14  0.58360416832E+03  0.73582272247E+03  0.44815315867E+03 0.  0.
      99925    2    3    3    0    0  0.88142449470E+02 -0.35050379634E+01  0.27120240357E+03  0.38793804703E+03  0.26299012898E+03 0.  0.
         25    1    4    4    0    0  0.14954847855E+02  0.25846391654E+02  0.14192269668E+03  0.19152347994E+03  0.12509000000E+03 0.  0.
         25    1    4    4    0    0  0.73187601615E+02 -0.29351429618E+02  0.12927970689E+03  0.19641456709E+03  0.12509000000E+03 0.  0.
         25    1    3    3    0    0 -0.88142449470E+02  0.35050379634E+01  0.31240176475E+03  0.34788467545E+03  0.12509000000E+03 0.  0.
<mgrwt>
<rscale>  2 0.44815316E+03</rscale>
<asrwt>0</asrwt>
<pdfrwt beam="1">  1       21 0.97016680E-01 0.44815316E+03</pdfrwt>
<pdfrwt beam="2">  1       21 0.11192541E-01 0.44815316E+03</pdfrwt>
<totfact> 0.53841164E+04</totfact>
</mgrwt>
</event>
<event>
 7    0  0.4759581E-002  0.4543726E+03  0.7546771E-02  0.1026426E+00
         21   -1    0    0  502  501  0.00000000000E+00  0.00000000000E+00  0.26248815470E+03  0.26248815470E+03  0.00000000000E+00 0.  1.
         21   -1    0    0  501  502 -0.00000000000E+00 -0.00000000000E+00 -0.19663213702E+03  0.19663213702E+03  0.00000000000E+00 0.  1.
      99926    2    1    2    0    0  0.17763568394E-14  0.00000000000E+00  0.65856017684E+02  0.45912029172E+03  0.45437256431E+03 0.  0.
      99925    2    3    3    0    0 -0.11403907833E+02 -0.90454470204E+02  0.10821330313E+03  0.29864067300E+03  0.26299063158E+03 0.  0.
         25    1    4    4    0    0 -0.22063945739E+02 -0.14621692538E+02  0.25913892004E+02  0.13045937871E+03  0.12509000000E+03 0.  0.
         25    1    4    4    0    0  0.10660037906E+02 -0.75832777666E+02  0.82299411129E+02  0.16818129429E+03  0.12509000000E+03 0.  0.
         25    1    3    3    0    0  0.11403907833E+02  0.90454470204E+02 -0.42357285449E+02  0.16047961872E+03  0.12509000000E+03 0.  0.
<mgrwt>
<rscale>  2 0.45437256E+03</rscale>
<asrwt>0</asrwt>
<pdfrwt beam="1">  1       21 0.38601199E-01 0.45437256E+03</pdfrwt>
<pdfrwt beam="2">  1       21 0.28916491E-01 0.45437256E+03</pdfrwt>
<totfact> 0.68587276E+04</totfact>
</mgrwt>
</event>
<event>
 7    0  0.4759581E-002  0.4566195E+03  0.7546771E-02  0.1025766E+00
         21   -1    0    0  502  501  0.00000000000E+00  0.00000000000E+00  0.60680619842E+03  0.60680619842E+03  0.00000000000E+00 0.  1.
         21   -1    0    0  501  502 -0.00000000000E+00 -0.00000000000E+00 -0.85901137491E+02  0.85901137491E+02  0.00000000000E+00 0.  1.
      99926    2    1    2    0    0  0.88817841970E-15  0.00000000000E+00  0.52090506093E+03  0.69270733592E+03  0.45661950322E+03 0.  0.
      99925    2    3    3    0    0  0.58908959456E+01  0.11457428352E+03  0.30966694134E+03  0.42172574914E+03  0.26229186764E+03 0.  0.
         25    1    4    4    0    0  0.36603351870E+02  0.60773180819E+02  0.12722377401E+03  0.19200672292E+03  0.12509000000E+03 0.  0.
         25    1    4    4    0    0 -0.30712455924E+02  0.53801102705E+02  0.18244316733E+03  0.22971902622E+03  0.12509000000E+03 0.  0.
         25    1    3    3    0    0 -0.58908959456E+01 -0.11457428352E+03  0.21123811960E+03  0.27098158678E+03  0.12509000000E+03 0.  0.
<mgrwt>
<rscale>  2 0.45661950E+03</rscale>
<asrwt>0</asrwt>
<pdfrwt beam="1">  1       21 0.89236203E-01 0.45661950E+03</pdfrwt>
<pdfrwt beam="2">  1       21 0.12632521E-01 0.45661950E+03</pdfrwt>
<totfact> 0.52626663E+04</totfact>
</mgrwt>
</event>
<event>
 7    0  0.4759581E-002  0.4498102E+03  0.7546771E-02  0.1027779E+00
         21   -1    0    0  502  501  0.00000000000E+00  0.00000000000E+00  0.12455508464E+03  0.12455508464E+03  0.00000000000E+00 0. -1.
         21   -1    0    0  501  502 -0.00000000000E+00 -0.00000000000E+00 -0.40610379922E+03  0.40610379922E+03  0.00000000000E+00 0. -1.
      99926    2    1    2    0    0  0.00000000000E+00  0.00000000000E+00 -0.28154871458E+03  0.53065888387E+03  0.44981015145E+03 0.  0.
      99925    2    3    3    0    0 -0.20986388613E+02 -0.96051003450E+02 -0.12502551774E+03  0.30747007810E+03  0.26313541204E+03 0.  0.
         25    1    3    3    0    0  0.20986388613E+02  0.96051003450E+02 -0.15652319684E+03  0.22318880577E+03  0.12509000000E+03 0.  0.
         25    1    4    4    0    0 -0.18964114364E+02 -0.90691782247E+02 -0.67703400730E+02  0.16975245380E+03  0.12509000000E+03 0.  0.
         25    1    4    4    0    0 -0.20222742489E+01 -0.53592212030E+01 -0.57322117012E+02  0.13771762430E+03  0.12509000000E+03 0.  0.
<mgrwt>
<rscale>  2 0.44981015E+03</rscale>
<asrwt>0</asrwt>
<pdfrwt beam="1">  1       21 0.18316924E-01 0.44981015E+03</pdfrwt>
<pdfrwt beam="2">  1       21 0.59721147E-01 0.44981015E+03</pdfrwt>
<totfact> 0.65825791E+04</totfact>
</mgrwt>
</event>
<event>
 7    0  0.4759581E-002  0.4536885E+03  0.7546771E-02  0.1026628E+00
         21   -1    0    0  502  501  0.00000000000E+00  0.00000000000E+00  0.14846783400E+03  0.14846783400E+03  0.00000000000E+00 0. -1.
         21   -1    0    0  501  502 -0.00000000000E+00 -0.00000000000E+00 -0.34659567084E+03  0.34659567084E+03  0.00000000000E+00 0. -1.
      99926    2    1    2    0    0  0.00000000000E+00  0.00000000000E+00 -0.19812783683E+03  0.49506350484E+03  0.45368847692E+03 0.  0.
      99925    2    3    3    0    0  0.10586637762E+03  0.32024739746E+02 -0.10597180081E+03  0.30434508165E+03  0.26298789381E+03 0.  0.
         25    1    4    4    0    0  0.59897316763E+02  0.55946752196E+02 -0.63141488321E+02  0.16233324762E+03  0.12509000000E+03 0.  0.
         25    1    3    3    0    0 -0.10586637762E+03 -0.32024739746E+02 -0.92156036020E+02  0.19071842318E+03  0.12509000000E+03 0.  0.
         25    1    4    4    0    0  0.45969060860E+02 -0.23922012451E+02 -0.42830312492E+02  0.14201183403E+03  0.12509000000E+03 0.  0.
<mgrwt>
<rscale>  2 0.45368848E+03</rscale>
<asrwt>0</asrwt>
<pdfrwt beam="1">  1       21 0.21833505E-01 0.45368848E+03</pdfrwt>
<pdfrwt beam="2">  1       21 0.50969952E-01 0.45368848E+03</pdfrwt>
<totfact> 0.66306536E+04</totfact>
</mgrwt>
</event>
<event>
 7    0  0.4759581E-002  0.4599403E+03  0.7546771E-02  0.1024799E+00
         21   -1    0    0  502  501  0.00000000000E+00  0.00000000000E+00  0.87984072749E+02  0.87984072749E+02  0.00000000000E+00 0. -1.
         21   -1    0    0  501  502 -0.00000000000E+00 -0.00000000000E+00 -0.60108925513E+03  0.60108925513E+03  0.00000000000E+00 0. -1.
      99926    2    1    2    0    0  0.00000000000E+00  0.00000000000E+00 -0.51310518239E+03  0.68907332788E+03  0.45994034723E+03 0.  0.
      99925    2    3    3    0    0  0.61609016238E+02 -0.38951380439E+02 -0.18237732796E+03  0.32804520888E+03  0.26275328427E+03 0.  0.
         25    1    4    4    0    0  0.16222438400E+02 -0.42927584149E+01 -0.45876473056E+02  0.13428981407E+03  0.12509000000E+03 0.  0.
         25    1    3    3    0    0 -0.61609016238E+02  0.38951380439E+02 -0.33072785442E+03  0.36102811900E+03  0.12509000000E+03 0.  0.
         25    1    4    4    0    0  0.45386577838E+02 -0.34658622024E+02 -0.13650085491E+03  0.19375539481E+03  0.12509000000E+03 0.  0.
<mgrwt>
<rscale>  2 0.45994035E+03</rscale>
<asrwt>0</asrwt>
<pdfrwt beam="1">  1       21 0.12938834E-01 0.45994035E+03</pdfrwt>
<pdfrwt beam="2">  1       21 0.88395478E-01 0.45994035E+03</pdfrwt>
<totfact> 0.51469094E+04</totfact>
</mgrwt>
</event>
<event>
 7    0  0.4759581E-002  0.4599101E+03  0.7546771E-02  0.1024807E+00
         21   -1    0    0  502  501  0.00000000000E+00  0.00000000000E+00  0.69128925999E+03  0.69128925999E+03  0.00000000000E+00 0. -1.
         21   -1    0    0  501  502 -0.00000000000E+00 -0.00000000000E+00 -0.76493783755E+02  0.76493783755E+02  0.00000000000E+00 0. -1.
      99926    2    1    2    0    0  0.00000000000E+00  0.00000000000E+00  0.61479547623E+03  0.76778304374E+03  0.45991012672E+03 0.  0.
      99925    2    3    3    0    0 -0.79561536682E+02  0.50744584985E+02  0.50244940694E+03  0.57497692763E+03  0.26313116453E+03 0.  0.
         25    1    4    4    0    0 -0.56242968819E+01  0.43260111012E+02  0.20926925081E+03  0.24767760770E+03  0.12509000000E+03 0.  0.
         25    1    3    3    0    0  0.79561536682E+02 -0.50744584985E+02  0.11234606929E+03  0.19280611611E+03  0.12509000000E+03 0.  0.
         25    1    4    4    0    0 -0.73937239800E+02  0.74844739729E+01  0.29318015613E+03  0.32729931994E+03  0.12509000000E+03 0.  0.
<mgrwt>
<rscale>  2 0.45991013E+03</rscale>
<asrwt>0</asrwt>
<pdfrwt beam="1">  1       21 0.10166018E+00 0.45991013E+03</pdfrwt>
<pdfrwt beam="2">  1       21 0.11249086E-01 0.45991013E+03</pdfrwt>
<totfact> 0.47504714E+04</totfact>
</mgrwt>
</event>
<event>
 7    0  0.4759581E-002  0.4596798E+03  0.7546771E-02  0.1024874E+00
         21   -1    0    0  502  501  0.00000000000E+00  0.00000000000E+00  0.45989229840E+03  0.45989229840E+03  0.00000000000E+00 0. -1.
         21   -1    0    0  501  502 -0.00000000000E+00 -0.00000000000E+00 -0.11486687276E+03  0.11486687276E+03  0.00000000000E+00 0. -1.
      99926    2    1    2    0    0 -0.71054273576E-14  0.00000000000E+00  0.34502542563E+03  0.57475917116E+03  0.45967984565E+03 0.  0.
      99925    2    3    3    0    0 -0.36560876019E+02 -0.11102112366E+03  0.20133711484E+03  0.35125027579E+03  0.26301660570E+03 0.  0.
         25    1    4    4    0    0 -0.13266314697E+02 -0.31810037114E+02  0.52340309199E+02  0.13991029138E+03  0.12509000000E+03 0.  0.
         25    1    4    4    0    0 -0.23294561322E+02 -0.79211086541E+02  0.14899680565E+03  0.21133998441E+03  0.12509000000E+03 0.  0.
         25    1    3    3    0    0  0.36560876019E+02  0.11102112366E+03  0.14368831079E+03  0.22350889537E+03  0.12509000000E+03 0.  0.
<mgrwt>
<rscale>  2 0.45967985E+03</rscale>
<asrwt>0</asrwt>
<pdfrwt beam="1">  1       21 0.67631220E-01 0.45967985E+03</pdfrwt>
<pdfrwt beam="2">  1       21 0.16892187E-01 0.45967985E+03</pdfrwt>
<totfact> 0.58080262E+04</totfact>
</mgrwt>
</event>
<event>
 7    0  0.4759581E-002  0.4760594E+03  0.7546771E-02  0.1020224E+00
         21   -1    0    0  502  501  0.00000000000E+00  0.00000000000E+00  0.66695517431E+03  0.66695517431E+03  0.00000000000E+00 0. -1.
         21   -1    0    0  501  502 -0.00000000000E+00 -0.00000000000E+00 -0.84950440933E+02  0.84950440933E+02  0.00000000000E+00 0. -1.
      99926    2    1    2    0    0  0.71054273576E-14  0.00000000000E+00  0.58200473338E+03  0.75190561525E+03  0.47605939184E+03 0.  0.
      99925    2    3    3    0    0 -0.53834021123E+02 -0.34429808644E+02  0.17743270765E+03  0.32364220839E+03  0.26301786964E+03 0.  0.
         25    1    3    3    0    0  0.53834021123E+02  0.34429808644E+02  0.40457202573E+03  0.42826340686E+03  0.12509000000E+03 0.  0.
         25    1    4    4    0    0 -0.45953563915E+01 -0.24192437567E+01  0.47334280027E+02  0.13384697309E+03  0.12509000000E+03 0.  0.
         25    1    4    4    0    0 -0.49238664732E+02 -0.32010564887E+02  0.13009842762E+03  0.18979523529E+03  0.12509000000E+03 0.  0.
<mgrwt>
<rscale>  2 0.47605939E+03</rscale>
<asrwt>0</asrwt>
<pdfrwt beam="1">  1       21 0.98081640E-01 0.47605939E+03</pdfrwt>
<pdfrwt beam="2">  1       21 0.12492712E-01 0.47605939E+03</pdfrwt>
<totfact> 0.42661718E+04</totfact>
</mgrwt>
</event>
<event>
 6    0  0.4759581E-002  0.4547744E+03  0.7546771E-02  0.1026308E+00
         21   -1    0    0  502  501  0.00000000000E+00  0.00000000000E+00  0.64588429429E+03  0.64588429429E+03  0.00000000000E+00 0. -1.
         21   -1    0    0  501  502 -0.00000000000E+00 -0.00000000000E+00 -0.80052931980E+02  0.80052931980E+02  0.00000000000E+00 0. -1.
      99926    2    1    2    0    0  0.00000000000E+00  0.71054273576E-14  0.56583136231E+03  0.72593722627E+03  0.45477436813E+03 0.  0.
         25    1    3    3    0    0 -0.76970044873E+01 -0.72628107661E+02  0.20051223814E+03  0.24735955943E+03  0.12509000000E+03 0.  0.
         25    1    3    3    0    0 -0.34192887034E+02  0.24931544024E+02  0.65153814231E+02  0.14725237866E+03  0.12509000000E+03 0.  0.
         25    1    3    3    0    0  0.41889891522E+02  0.47696563637E+02  0.30016530994E+03  0.33132528818E+03  0.12509000000E+03 0.  0.
<mgrwt>
<rscale>  2 0.45477437E+03</rscale>
<asrwt>0</asrwt>
<pdfrwt beam="1">  1       21 0.94982982E-01 0.45477437E+03</pdfrwt>
<pdfrwt beam="2">  1       21 0.11772490E-01 0.45477437E+03</pdfrwt>
<totfact> 0.51608815E+04</totfact>
</mgrwt>
</event>
<event>
 7    0  0.4759581E-002  0.4517248E+03  0.7546771E-02  0.1027209E+00
         21   -1    0    0  502  501  0.00000000000E+00  0.00000000000E+00  0.37092340837E+03  0.37092340837E+03  0.00000000000E+00 0.  1.
         21   -1    0    0  501  502 -0.00000000000E+00 -0.00000000000E+00 -0.13753198585E+03  0.13753198585E+03  0.00000000000E+00 0.  1.
      99926    2    1    2    0    0  0.00000000000E+00  0.00000000000E+00  0.23339142252E+03  0.50845539422E+03  0.45172484081E+03 0.  0.
      99925    2    3    3    0    0 -0.44344174385E+02 -0.64144600692E+02  0.23471878076E+03  0.36104370683E+03  0.26301847198E+03 0.  0.
         25    1    3    3    0    0  0.44344174385E+02  0.64144600692E+02 -0.13273582360E+01  0.14741168739E+03  0.12509000000E+03 0.  0.
         25    1    4    4    0    0 -0.17853996705E+02 -0.72664646319E+02  0.11485062341E+03  0.18557233043E+03  0.12509000000E+03 0.  0.
         25    1    4    4    0    0 -0.26490177680E+02  0.85200456264E+01  0.11986815734E+03  0.17547137640E+03  0.12509000000E+03 0.  0.
<mgrwt>
<rscale>  2 0.45172484E+03</rscale>
<asrwt>0</asrwt>
<pdfrwt beam="1">  1       21 0.54547560E-01 0.45172484E+03</pdfrwt>
<pdfrwt beam="2">  1       21 0.20225292E-01 0.45172484E+03</pdfrwt>
<totfact> 0.66389544E+04</totfact>
</mgrwt>
</event>
<event>
 7    0  0.4759581E-002  0.4570032E+03  0.7546771E-02  0.1025654E+00
         21   -1    0    0  502  501  0.00000000000E+00  0.00000000000E+00  0.82124771317E+03  0.82124771317E+03  0.00000000000E+00 0.  1.
         21   -1    0    0  501  502 -0.00000000000E+00 -0.00000000000E+00 -0.63577632309E+02  0.63577632309E+02  0.00000000000E+00 0.  1.
      99926    2    1    2    0    0  0.00000000000E+00  0.00000000000E+00  0.75767008086E+03  0.88482534548E+03  0.45700321724E+03 0.  0.
      99925    2    3    3    0    0 -0.82733771239E+02 -0.79303891664E+02  0.45594980899E+03  0.53867997906E+03  0.26296750253E+03 0.  0.
         25    1    4    4    0    0 -0.22552945625E+02 -0.18131738926E+02  0.15192826905E+03  0.19891481179E+03  0.12509000000E+03 0.  0.
         25    1    4    4    0    0 -0.60180825615E+02 -0.61172152738E+02  0.30402153994E+03  0.33976516727E+03  0.12509000000E+03 0.  0.
         25    1    3    3    0    0  0.82733771239E+02  0.79303891664E+02  0.30172027187E+03  0.34614536642E+03  0.12509000000E+03 0.  0.
<mgrwt>
<rscale>  2 0.45700322E+03</rscale>
<asrwt>0</asrwt>
<pdfrwt beam="1">  1       21 0.12077172E+00 0.45700322E+03</pdfrwt>
<pdfrwt beam="2">  1       21 0.93496523E-02 0.45700322E+03</pdfrwt>
<totfact> 0.43214373E+04</totfact>
</mgrwt>
</event>
<event>
 6    0  0.4759581E-002  0.4570149E+03  0.7546771E-02  0.1025651E+00
         21   -1    0    0  502  501  0.00000000000E+00  0.00000000000E+00  0.11490402909E+04  0.11490402909E+04  0.00000000000E+00 0. -1.
         21   -1    0    0  501  502 -0.00000000000E+00 -0.00000000000E+00 -0.45442849949E+02  0.45442849949E+02  0.00000000000E+00 0. -1.
      99926    2    1    2    0    0  0.00000000000E+00  0.00000000000E+00  0.11035974409E+04  0.11944831408E+04  0.45701494734E+03 0.  0.
         25    1    3    3    0    0 -0.82429233591E+00 -0.76188251759E+02  0.27303799039E+03  0.30984283348E+03  0.12509000000E+03 0.  0.
         25    1    3    3    0    0  0.55693857470E+02  0.72201944694E+02  0.56712053857E+03  0.58786745100E+03  0.12509000000E+03 0.  0.
         25    1    3    3    0    0 -0.54869565134E+02  0.39863070650E+01  0.26343891194E+03  0.29677285632E+03  0.12509000000E+03 0.  0.
<mgrwt>
<rscale>  2 0.45701495E+03</rscale>
<asrwt>0</asrwt>
<pdfrwt beam="1">  1       21 0.16897649E+00 0.45701495E+03</pdfrwt>
<pdfrwt beam="2">  1       21 0.66827728E-02 0.45701495E+03</pdfrwt>
<totfact> 0.31828726E+04</totfact>
</mgrwt>
</event>
<event>
 7    0  0.4759581E-002  0.4521122E+03  0.7546771E-02  0.1027094E+00
         21   -1    0    0  502  501  0.00000000000E+00  0.00000000000E+00  0.24949435841E+02  0.24949435841E+02  0.00000000000E+00 0. -1.
         21   -1    0    0  501  502 -0.00000000000E+00 -0.00000000000E+00 -0.20481968221E+04  0.20481968221E+04  0.00000000000E+00 0. -1.
      99926    2    1    2    0    0 -0.71054273576E-14  0.71054273576E-14 -0.20232473863E+04  0.20731462580E+04  0.45211217725E+03 0.  0.
      99925    2    3    3    0    0  0.35655189017E+02 -0.52544200214E+02 -0.16907822213E+04  0.17122961790E+04  0.26302376165E+03 0.  0.
         25    1    4    4    0    0  0.29150960945E+02 -0.23325786842E+01 -0.10213823925E+04  0.10294293172E+04  0.12509000000E+03 0.  0.
         25    1    4    4    0    0  0.65042280715E+01 -0.50211621530E+02 -0.66939982882E+03  0.68286686172E+03  0.12509000000E+03 0.  0.
         25    1    3    3    0    0 -0.35655189017E+02  0.52544200214E+02 -0.33246516501E+03  0.36085007901E+03  0.12509000000E+03 0.  0.
<mgrwt>
<rscale>  2 0.45211218E+03</rscale>
<asrwt>0</asrwt>
<pdfrwt beam="1">  1       21 0.36690344E-02 0.45211218E+03</pdfrwt>
<pdfrwt beam="2">  1       21 0.30120544E+00 0.45211218E+03</pdfrwt>
<totfact> 0.12837603E+04</totfact>
</mgrwt>
</event>
<event>
 7    0  0.4759581E-002  0.4532979E+03  0.7546771E-02  0.1026743E+00
         21   -1    0    0  502  501  0.00000000000E+00  0.00000000000E+00  0.81943082186E+03  0.81943082186E+03  0.00000000000E+00 0.  1.
         21   -1    0    0  501  502 -0.00000000000E+00 -0.00000000000E+00 -0.62689559609E+02  0.62689559609E+02  0.00000000000E+00 0.  1.
      99926    2    1    2    0    0  0.00000000000E+00  0.71054273576E-14  0.75674126225E+03  0.88212038146E+03  0.45329794772E+03 0.  0.
      99925    2    3    3    0    0 -0.95573035516E+02 -0.39596691972E+02  0.39593497083E+03  0.48648065752E+03  0.26305289561E+03 0.  0.
         25    1    3    3    0    0  0.95573035516E+02  0.39596691972E+02  0.36080629142E+03  0.39563972394E+03  0.12509000000E+03 0.  0.
         25    1    4    4    0    0 -0.26522684866E+02 -0.18134992748E+02  0.12667620937E+03  0.18090522628E+03  0.12509000000E+03 0.  0.
         25    1    4    4    0    0 -0.69050350650E+02 -0.21461699225E+02  0.26925876146E+03  0.30557543125E+03  0.12509000000E+03 0.  0.
<mgrwt>
<rscale>  2 0.45329795E+03</rscale>
<asrwt>0</asrwt>
<pdfrwt beam="1">  1       21 0.12050453E+00 0.45329795E+03</pdfrwt>
<pdfrwt beam="2">  1       21 0.92190533E-02 0.45329795E+03</pdfrwt>
<totfact> 0.44607439E+04</totfact>
</mgrwt>
</event>
<event>
 7    0  0.4759581E-002  0.4534026E+03  0.7546771E-02  0.1026712E+00
         21   -1    0    0  502  501  0.00000000000E+00  0.00000000000E+00  0.73867594834E+02  0.73867594834E+02  0.00000000000E+00 0. -1.
         21   -1    0    0  501  502 -0.00000000000E+00 -0.00000000000E+00 -0.69575141068E+03  0.69575141068E+03  0.00000000000E+00 0. -1.
      99926    2    1    2    0    0 -0.14210854715E-13  0.00000000000E+00 -0.62188381585E+03  0.76961900551E+03  0.45340261715E+03 0.  0.
      99925    2    3    3    0    0  0.11068847747E+03 -0.13780003025E+02 -0.40080388024E+03  0.49219212586E+03  0.26299716883E+03 0.  0.
         25    1    3    3    0    0 -0.11068847747E+03  0.13780003025E+02 -0.22107993561E+03  0.27742687966E+03  0.12509000000E+03 0.  0.
         25    1    4    4    0    0  0.18964845318E+02 -0.27421587574E+02 -0.16748573346E+03  0.21168511482E+03  0.12509000000E+03 0.  0.
         25    1    4    4    0    0  0.91723632156E+02  0.13641584549E+02 -0.23331814678E+03  0.28050701104E+03  0.12509000000E+03 0.  0.
<mgrwt>
<rscale>  2 0.45340262E+03</rscale>
<asrwt>0</asrwt>
<pdfrwt beam="1">  1       21 0.10862882E-01 0.45340262E+03</pdfrwt>
<pdfrwt beam="2">  1       21 0.10231638E+00 0.45340262E+03</pdfrwt>
<totfact> 0.49892046E+04</totfact>
</mgrwt>
</event>
<event>
 7    0  0.4759581E-002  0.4534073E+03  0.7546771E-02  0.1026711E+00
         21   -1    0    0  502  501  0.00000000000E+00  0.00000000000E+00  0.93421933347E+02  0.93421933347E+02  0.00000000000E+00 0.  1.
         21   -1    0    0  501  502 -0.00000000000E+00 -0.00000000000E+00 -0.55013359224E+03  0.55013359224E+03  0.00000000000E+00 0.  1.
      99926    2    1    2    0    0  0.71054273576E-14  0.00000000000E+00 -0.45671165889E+03  0.64355552559E+03  0.45340729498E+03 0.  0.
      99925    2    3    3    0    0  0.35212949642E+02  0.48291999154E+02 -0.42172141799E+03  0.50057337963E+03  0.26296898105E+03 0.  0.
         25    1    4    4    0    0 -0.69276587800E+01 -0.84682028560E+01 -0.21071280989E+03  0.24528982708E+03  0.12509000000E+03 0.  0.
         25    1    3    3    0    0 -0.35212949642E+02 -0.48291999154E+02 -0.34990240903E+02  0.14298214596E+03  0.12509000000E+03 0.  0.
         25    1    4    4    0    0  0.42140608422E+02  0.56760202010E+02 -0.21100860810E+03  0.25528355255E+03  0.12509000000E+03 0.  0.
<mgrwt>
<rscale>  2 0.45340729E+03</rscale>
<asrwt>0</asrwt>
<pdfrwt beam="1">  1       21 0.13738520E-01 0.45340729E+03</pdfrwt>
<pdfrwt beam="2">  1       21 0.80901999E-01 0.45340729E+03</pdfrwt>
<totfact> 0.56784557E+04</totfact>
</mgrwt>
</event>
<event>
 7    0  0.4759581E-002  0.4542515E+03  0.7546771E-02  0.1026462E+00
         21   -1    0    0  502  501  0.00000000000E+00  0.00000000000E+00  0.11725267006E+03  0.11725267006E+03  0.00000000000E+00 0. -1.
         21   -1    0    0  501  502 -0.00000000000E+00 -0.00000000000E+00 -0.43995674312E+03  0.43995674312E+03  0.00000000000E+00 0. -1.
      99926    2    1    2    0    0 -0.14210854715E-13  0.00000000000E+00 -0.32270407306E+03  0.55720941318E+03  0.45425148472E+03 0.  0.
      99925    2    3    3    0    0 -0.71583356466E+02  0.82710141573E+02 -0.17116793698E+03  0.33231865508E+03  0.26300585815E+03 0.  0.
         25    1    3    3    0    0  0.71583356466E+02 -0.82710141573E+02 -0.15153613608E+03  0.22489075810E+03  0.12509000000E+03 0.  0.
         25    1    4    4    0    0 -0.16913800349E+00  0.59980456753E+02 -0.91033296997E+02  0.16592845766E+03  0.12509000000E+03 0.  0.
         25    1    4    4    0    0 -0.71414218462E+02  0.22729684820E+02 -0.80134639979E+02  0.16639019741E+03  0.12509000000E+03 0.  0.
<mgrwt>
<rscale>  2 0.45425148E+03</rscale>
<asrwt>0</asrwt>
<pdfrwt beam="1">  1       21 0.17243040E-01 0.45425148E+03</pdfrwt>
<pdfrwt beam="2">  1       21 0.64699520E-01 0.45425148E+03</pdfrwt>
<totfact> 0.61757467E+04</totfact>
</mgrwt>
</event>
<event>
 7    0  0.4759581E-002  0.4479529E+03  0.7546771E-02  0.1028334E+00
         21   -1    0    0  502  501  0.00000000000E+00  0.00000000000E+00  0.87356552186E+03  0.87356552186E+03  0.00000000000E+00 0.  1.
         21   -1    0    0  501  502 -0.00000000000E+00 -0.00000000000E+00 -0.57426090878E+02  0.57426090878E+02  0.00000000000E+00 0.  1.
      99926    2    1    2    0    0 -0.17763568394E-14  0.00000000000E+00  0.81613943098E+03  0.93099161274E+03  0.44795291291E+03 0.  0.
      99925    2    3    3    0    0 -0.93517344184E+01  0.98624494330E+02  0.59772997836E+03  0.66050234694E+03  0.26299805600E+03 0.  0.
         25    1    4    4    0    0  0.78985269620E+01  0.78417946391E+02  0.25597432912E+03  0.29560467911E+03  0.12509000000E+03 0.  0.
         25    1    3    3    0    0  0.93517344184E+01 -0.98624494330E+02  0.21840945263E+03  0.27048926580E+03  0.12509000000E+03 0.  0.
         25    1    4    4    0    0 -0.17250261380E+02  0.20206547939E+02  0.34175564923E+03  0.36489766782E+03  0.12509000000E+03 0.  0.
<mgrwt>
<rscale>  2 0.44795291E+03</rscale>
<asrwt>0</asrwt>
<pdfrwt beam="1">  1       21 0.12846551E+00 0.44795291E+03</pdfrwt>
<pdfrwt beam="2">  1       21 0.84450139E-02 0.44795291E+03</pdfrwt>
<totfact> 0.44312728E+04</totfact>
</mgrwt>
</event>
<event>
 7    0  0.4759581E-002  0.4491451E+03  0.7546771E-02  0.1027977E+00
         21   -1    0    0  502  501  0.00000000000E+00  0.00000000000E+00  0.43957592268E+03  0.43957592268E+03  0.00000000000E+00 0. -1.
         21   -1    0    0  501  502 -0.00000000000E+00 -0.00000000000E+00 -0.11473062296E+03  0.11473062296E+03  0.00000000000E+00 0. -1.
      99926    2    1    2    0    0  0.00000000000E+00  0.71054273576E-14  0.32484529972E+03  0.55430654564E+03  0.44914505206E+03 0.  0.
      99925    2    3    3    0    0 -0.14930690819E+02 -0.56273122561E+02  0.31709255973E+03  0.41611391585E+03  0.26308460555E+03 0.  0.
         25    1    4    4    0    0  0.16879531878E+02  0.33250899821E+01  0.16724132408E+03  0.20955463106E+03  0.12509000000E+03 0.  0.
         25    1    4    4    0    0 -0.31810222698E+02 -0.59598212543E+02  0.14985123565E+03  0.20655928479E+03  0.12509000000E+03 0.  0.
         25    1    3    3    0    0  0.14930690819E+02  0.56273122561E+02  0.77527399860E+01  0.13819262979E+03  0.12509000000E+03 0.  0.
<mgrwt>
<rscale>  2 0.44914505E+03</rscale>
<asrwt>0</asrwt>
<pdfrwt beam="1">  1       21 0.64643517E-01 0.44914505E+03</pdfrwt>
<pdfrwt beam="2">  1       21 0.16872151E-01 0.44914505E+03</pdfrwt>
<totfact> 0.64519736E+04</totfact>
</mgrwt>
</event>
<event>
 7    0  0.4759581E-002  0.4194707E+03  0.7546771E-02  0.1037239E+00
         21   -1    0    0  502  501  0.00000000000E+00  0.00000000000E+00  0.22453032974E+03  0.22453032974E+03  0.00000000000E+00 0.  1.
         21   -1    0    0  501  502 -0.00000000000E+00 -0.00000000000E+00 -0.19591522069E+03  0.19591522069E+03  0.00000000000E+00 0.  1.
      99926    2    1    2    0    0 -0.35527136788E-14 -0.71054273576E-14  0.28615109052E+02  0.42044555043E+03  0.41947066216E+03 0.  0.
      99925    2    3    3    0    0 -0.11413893517E+02 -0.51318842259E+02 -0.35391356479E+02  0.27041809872E+03  0.26288685678E+03 0.  0.
         25    1    4    4    0    0 -0.37900808963E+02 -0.26919780599E+02  0.66840299834E+01  0.13361635478E+03  0.12509000000E+03 0.  0.
         25    1    3    3    0    0  0.11413893517E+02  0.51318842259E+02  0.64006465531E+02  0.15002745171E+03  0.12509000000E+03 0.  0.
         25    1    4    4    0    0  0.26486915446E+02 -0.24399061660E+02 -0.42075386463E+02  0.13680174394E+03  0.12509000000E+03 0.  0.
<mgrwt>
<rscale>  2 0.41947066E+03</rscale>
<asrwt>0</asrwt>
<pdfrwt beam="1">  1       21 0.33019166E-01 0.41947066E+03</pdfrwt>
<pdfrwt beam="2">  1       21 0.28811062E-01 0.41947066E+03</pdfrwt>
<totfact> 0.95486061E+04</totfact>
</mgrwt>
</event>
<event>
 7    0  0.4759581E-002  0.4551834E+03  0.7546771E-02  0.1026187E+00
         21   -1    0    0  502  501  0.00000000000E+00  0.00000000000E+00  0.63108694605E+02  0.63108694605E+02  0.00000000000E+00 0.  1.
         21   -1    0    0  501  502 -0.00000000000E+00 -0.00000000000E+00 -0.82077413717E+03  0.82077413717E+03  0.00000000000E+00 0.  1.
      99926    2    1    2    0    0  0.14210854715E-13  0.00000000000E+00 -0.75766544257E+03  0.88388283178E+03  0.45518341078E+03 0.  0.
      99925    2    3    3    0    0  0.66002271249E+02  0.77900420232E+02 -0.38139536433E+03  0.47443020307E+03  0.26305288131E+03 0.  0.
         25    1    4    4    0    0  0.65623584287E+02  0.14743880918E+02 -0.18936092241E+03  0.23670425403E+03  0.12509000000E+03 0.  0.
         25    1    3    3    0    0 -0.66002271249E+02 -0.77900420232E+02 -0.37627007824E+03  0.40945262871E+03  0.12509000000E+03 0.  0.
         25    1    4    4    0    0  0.37868696193E+00  0.63156539314E+02 -0.19203444192E+03  0.23772594904E+03  0.12509000000E+03 0.  0.
<mgrwt>
<rscale>  2 0.45518341E+03</rscale>
<asrwt>0</asrwt>
<pdfrwt beam="1">  1       21 0.92806903E-02 0.45518341E+03</pdfrwt>
<pdfrwt beam="2">  1       21 0.12070208E+00 0.45518341E+03</pdfrwt>
<totfact> 0.43874840E+04</totfact>
</mgrwt>
</event>
<event>
 7    0  0.4759581E-002  0.4376947E+03  0.7546771E-02  0.1031456E+00
         21   -1    0    0  502  501  0.00000000000E+00  0.00000000000E+00  0.26881160080E+03  0.26881160080E+03  0.00000000000E+00 0.  1.
         21   -1    0    0  501  502 -0.00000000000E+00 -0.00000000000E+00 -0.17816998496E+03  0.17816998496E+03  0.00000000000E+00 0.  1.
      99926    2    1    2    0    0  0.00000000000E+00  0.00000000000E+00  0.90641615838E+02  0.44698158575E+03  0.43769468295E+03 0.  0.
      99925    2    3    3    0    0 -0.47160416748E+02  0.82233733508E+02  0.42291802465E+02  0.28275094188E+03  0.26300761727E+03 0.  0.
         25    1    3    3    0    0  0.47160416748E+02 -0.82233733508E+02  0.48349813373E+02  0.16423064388E+03  0.12509000000E+03 0.  0.
         25    1    4    4    0    0  0.10238214548E+02  0.40293036482E+02  0.43677649819E+02  0.13886538453E+03  0.12509000000E+03 0.  0.
         25    1    4    4    0    0 -0.57398631296E+02  0.41940697026E+02 -0.13858473536E+01  0.14388555735E+03  0.12509000000E+03 0.  0.
<mgrwt>
<rscale>  2 0.43769468E+03</rscale>
<asrwt>0</asrwt>
<pdfrwt beam="1">  1       21 0.39531118E-01 0.43769468E+03</pdfrwt>
<pdfrwt beam="2">  1       21 0.26201468E-01 0.43769468E+03</pdfrwt>
<totfact> 0.79559032E+04</totfact>
</mgrwt>
</event>
<event>
 7    0  0.4759581E-002  0.4300810E+03  0.7546771E-02  0.1033834E+00
         21   -1    0    0  502  501  0.00000000000E+00  0.00000000000E+00  0.69939693106E+03  0.69939693106E+03  0.00000000000E+00 0.  1.
         21   -1    0    0  501  502 -0.00000000000E+00 -0.00000000000E+00 -0.66117551663E+02  0.66117551663E+02  0.00000000000E+00 0.  1.
      99926    2    1    2    0    0  0.00000000000E+00  0.14210854715E-13  0.63327937940E+03  0.76551448272E+03  0.43008098178E+03 0.  0.
      99925    2    3    3    0    0 -0.37506900777E+02  0.76799530058E+02  0.37479215225E+03  0.46590124850E+03  0.26322971060E+03 0.  0.
         25    1    4    4    0    0 -0.14137448714E+02  0.75946208124E+02  0.23169177839E+03  0.27440168050E+03  0.12509000000E+03 0.  0.
         25    1    3    3    0    0  0.37506900777E+02 -0.76799530058E+02  0.25848722714E+03  0.29961323422E+03  0.12509000000E+03 0.  0.
         25    1    4    4    0    0 -0.23369452062E+02  0.85332193344E+00  0.14310037386E+03  0.19149956801E+03  0.12509000000E+03 0.  0.
<mgrwt>
<rscale>  2 0.43008098E+03</rscale>
<asrwt>0</asrwt>
<pdfrwt beam="1">  1       21 0.10285249E+00 0.43008098E+03</pdfrwt>
<pdfrwt beam="2">  1       21 0.97231698E-02 0.43008098E+03</pdfrwt>
<totfact> 0.60468147E+04</totfact>
</mgrwt>
</event>
<event>
 7    0  0.4759581E-002  0.4504023E+03  0.7546771E-02  0.1027602E+00
         21   -1    0    0  502  501  0.00000000000E+00  0.00000000000E+00  0.84045349338E+02  0.84045349338E+02  0.00000000000E+00 0. -1.
         21   -1    0    0  501  502 -0.00000000000E+00 -0.00000000000E+00 -0.60343080765E+03  0.60343080765E+03  0.00000000000E+00 0. -1.
      99926    2    1    2    0    0  0.00000000000E+00  0.14210854715E-13 -0.51938545831E+03  0.68747615699E+03  0.45040227810E+03 0.  0.
      99925    2    3    3    0    0 -0.16230969699E+02  0.81652302288E+02 -0.22120867896E+03  0.35357880347E+03  0.26297176230E+03 0.  0.
         25    1    4    4    0    0  0.20800409615E+02  0.57728134750E+02 -0.83738360696E+02  0.16255711530E+03  0.12509000000E+03 0.  0.
         25    1    4    4    0    0 -0.37031379315E+02  0.23924167538E+02 -0.13747031827E+03  0.19102168817E+03  0.12509000000E+03 0.  0.
         25    1    3    3    0    0  0.16230969699E+02 -0.81652302288E+02 -0.29817677934E+03  0.33389735352E+03  0.12509000000E+03 0.  0.
<mgrwt>
<rscale>  2 0.45040228E+03</rscale>
<asrwt>0</asrwt>
<pdfrwt beam="1">  1       21 0.12359610E-01 0.45040228E+03</pdfrwt>
<pdfrwt beam="2">  1       21 0.88739823E-01 0.45040228E+03</pdfrwt>
<totfact> 0.55572680E+04</totfact>
</mgrwt>
</event>
<event>
 7    0  0.4759581E-002  0.4544523E+03  0.7546771E-02  0.1026403E+00
         21   -1    0    0  502  501  0.00000000000E+00  0.00000000000E+00  0.61892814789E+03  0.61892814789E+03  0.00000000000E+00 0.  1.
         21   -1    0    0  501  502 -0.00000000000E+00 -0.00000000000E+00 -0.83421183125E+02  0.83421183125E+02  0.00000000000E+00 0.  1.
      99926    2    1    2    0    0  0.00000000000E+00  0.00000000000E+00  0.53550696476E+03  0.70234933101E+03  0.45445227853E+03 0.  0.
      99925    2    3    3    0    0  0.61930815443E+02  0.33367947189E+02  0.20102861829E+03  0.33838213722E+03  0.26294699012E+03 0.  0.
         25    1    4    4    0    0  0.20990101122E+02 -0.11939139090E+02  0.62147405128E+02  0.14174955186E+03  0.12509000000E+03 0.  0.
         25    1    3    3    0    0 -0.61930815443E+02 -0.33367947189E+02  0.33447834647E+03  0.36396719379E+03  0.12509000000E+03 0.  0.
         25    1    4    4    0    0  0.40940714321E+02  0.45307086280E+02  0.13888121316E+03  0.19663258536E+03  0.12509000000E+03 0.  0.
<mgrwt>
<rscale>  2 0.45445228E+03</rscale>
<asrwt>0</asrwt>
<pdfrwt beam="1">  1       21 0.91018843E-01 0.45445228E+03</pdfrwt>
<pdfrwt beam="2">  1       21 0.12267821E-01 0.45445228E+03</pdfrwt>
<totfact> 0.53003671E+04</totfact>
</mgrwt>
</event>
<event>
 7    0  0.4759581E-002  0.4536760E+03  0.7546771E-02  0.1026631E+00
         21   -1    0    0  502  501  0.00000000000E+00  0.00000000000E+00  0.36986456542E+02  0.36986456542E+02  0.00000000000E+00 0. -1.
         21   -1    0    0  501  502 -0.00000000000E+00 -0.00000000000E+00 -0.13911980105E+04  0.13911980105E+04  0.00000000000E+00 0. -1.
      99926    2    1    2    0    0  0.00000000000E+00  0.17763568394E-14 -0.13542115540E+04  0.14281844670E+04  0.45367602871E+03 0.  0.
      99925    2    3    3    0    0 -0.71545566415E+02 -0.36118324662E+01 -0.11238138499E+04  0.11564080451E+04  0.26304027079E+03 0.  0.
         25    1    3    3    0    0  0.71545566415E+02  0.36118324662E+01 -0.23039770406E+03  0.27177642198E+03  0.12509000000E+03 0.  0.
         25    1    4    4    0    0 -0.67918741542E+02 -0.19239763762E+02 -0.51409674177E+03  0.53378468689E+03  0.12509000000E+03 0.  0.
         25    1    4    4    0    0 -0.36268248729E+01  0.15627931296E+02 -0.60971710813E+03  0.62262335817E+03  0.12509000000E+03 0.  0.
<mgrwt>
<rscale>  2 0.45367603E+03</rscale>
<asrwt>0</asrwt>
<pdfrwt beam="1">  1       21 0.54391849E-02 0.45367603E+03</pdfrwt>
<pdfrwt beam="2">  1       21 0.20458794E+00 0.45367603E+03</pdfrwt>
<totfact> 0.25855512E+04</totfact>
</mgrwt>
</event>
<event>
 7    0  0.4759581E-002  0.4498231E+03  0.7546771E-02  0.1027775E+00
         21   -1    0    0  502  501  0.00000000000E+00  0.00000000000E+00  0.50352155916E+03  0.50352155916E+03  0.00000000000E+00 0. -1.
         21   -1    0    0  501  502 -0.00000000000E+00 -0.00000000000E+00 -0.10046285579E+03  0.10046285579E+03  0.00000000000E+00 0. -1.
      99926    2    1    2    0    0  0.00000000000E+00  0.00000000000E+00  0.40305870337E+03  0.60398441495E+03  0.44982313763E+03 0.  0.
      99925    2    3    3    0    0  0.99233952541E+02 -0.38379486219E+02  0.28154087197E+03  0.39969429344E+03  0.26300171734E+03 0.  0.
         25    1    4    4    0    0  0.61790305410E+02 -0.11728121289E+02  0.90317185095E+02  0.16661420316E+03  0.12509000000E+03 0.  0.
         25    1    4    4    0    0  0.37443647130E+02 -0.26651364929E+02  0.19122368688E+03  0.23308009028E+03  0.12509000000E+03 0.  0.
         25    1    3    3    0    0 -0.99233952541E+02  0.38379486219E+02  0.12151783140E+03  0.20429012151E+03  0.12509000000E+03 0.  0.
<mgrwt>
<rscale>  2 0.44982314E+03</rscale>
<asrwt>0</asrwt>
<pdfrwt beam="1">  1       21 0.74047287E-01 0.44982314E+03</pdfrwt>
<pdfrwt beam="2">  1       21 0.14773950E-01 0.44982314E+03</pdfrwt>
<totfact> 0.60885840E+04</totfact>
</mgrwt>
</event>
<event>
 7    0  0.4759581E-002  0.4565446E+03  0.7546771E-02  0.1025788E+00
         21   -1    0    0  502  501  0.00000000000E+00  0.00000000000E+00  0.15654011212E+03  0.15654011212E+03  0.00000000000E+00 0. -1.
         21   -1    0    0  501  502 -0.00000000000E+00 -0.00000000000E+00 -0.33287471028E+03  0.33287471028E+03  0.00000000000E+00 0. -1.
      99926    2    1    2    0    0  0.00000000000E+00  0.14210854715E-13 -0.17633459816E+03  0.48941482240E+03  0.45654460666E+03 0.  0.
      99925    2    3    3    0    0 -0.53504434219E+02  0.70776081611E+02 -0.18861325547E+03  0.33556342742E+03  0.26297504725E+03 0.  0.
         25    1    4    4    0    0 -0.25224483161E+02  0.22414701959E+02 -0.45284679926E+02  0.13724760016E+03  0.12509000000E+03 0.  0.
         25    1    4    4    0    0 -0.28279951059E+02  0.48361379653E+02 -0.14332857555E+03  0.19831582726E+03  0.12509000000E+03 0.  0.
         25    1    3    3    0    0  0.53504434219E+02 -0.70776081611E+02  0.12278657313E+02  0.15385139497E+03  0.12509000000E+03 0.  0.
<mgrwt>
<rscale>  2 0.45654461E+03</rscale>
<asrwt>0</asrwt>
<pdfrwt beam="1">  1       21 0.23020605E-01 0.45654461E+03</pdfrwt>
<pdfrwt beam="2">  1       21 0.48952163E-01 0.45654461E+03</pdfrwt>
<totfact> 0.65217515E+04</totfact>
</mgrwt>
</event>
<event>
 7    0  0.4759581E-002  0.4604421E+03  0.7546771E-02  0.1024653E+00
         21   -1    0    0  502  501  0.00000000000E+00  0.00000000000E+00  0.10346054969E+03  0.10346054969E+03  0.00000000000E+00 0. -1.
         21   -1    0    0  501  502 -0.00000000000E+00 -0.00000000000E+00 -0.51228920250E+03  0.51228920250E+03  0.00000000000E+00 0. -1.
      99926    2    1    2    0    0  0.71054273576E-14 -0.14210854715E-13 -0.40882865280E+03  0.61574975219E+03  0.46044205930E+03 0.  0.
      99925    2    3    3    0    0 -0.42254338622E+02  0.10364854139E+03 -0.20512433512E+03  0.35179633507E+03  0.26297570087E+03 0.  0.
         25    1    4    4    0    0 -0.29170465839E+02  0.73619722660E+02 -0.15145170711E+03  0.21179213235E+03  0.12509000000E+03 0.  0.
         25    1    3    3    0    0  0.42254338622E+02 -0.10364854139E+03 -0.20370431769E+03  0.26395341712E+03  0.12509000000E+03 0.  0.
         25    1    4    4    0    0 -0.13083872783E+02  0.30028818729E+02 -0.53672628010E+02  0.14000420272E+03  0.12509000000E+03 0.  0.
<mgrwt>
<rscale>  2 0.46044206E+03</rscale>
<asrwt>0</asrwt>
<pdfrwt beam="1">  1       21 0.15214787E-01 0.46044206E+03</pdfrwt>
<pdfrwt beam="2">  1       21 0.75336648E-01 0.46044206E+03</pdfrwt>
<totfact> 0.55303580E+04</totfact>
</mgrwt>
</event>
<event>
 7    0  0.4759581E-002  0.5342391E+03  0.7546771E-02  0.1005209E+00
         21   -1    0    0  502  501  0.00000000000E+00  0.00000000000E+00  0.39395896303E+02  0.39395896303E+02  0.00000000000E+00 0. -1.
         21   -1    0    0  501  502 -0.00000000000E+00 -0.00000000000E+00 -0.18111744982E+04  0.18111744982E+04  0.00000000000E+00 0. -1.
      99926    2    1    2    0    0  0.00000000000E+00  0.00000000000E+00 -0.17717786019E+04  0.18505703945E+04  0.53423905780E+03 0.  0.
      99925    2    3    3    0    0 -0.15362618627E+03  0.87946886695E+02 -0.10898229409E+04  0.11349960157E+04  0.26299477766E+03 0.  0.
         25    1    4    4    0    0 -0.11673468151E+03  0.27853253954E+02 -0.58380221659E+03  0.60899534138E+03  0.12509000000E+03 0.  0.
         25    1    4    4    0    0 -0.36891504759E+02  0.60093632740E+02 -0.50602072435E+03  0.52600067433E+03  0.12509000000E+03 0.  0.
         25    1    3    3    0    0  0.15362618627E+03 -0.87946886695E+02 -0.68195566098E+03  0.71557437882E+03  0.12509000000E+03 0.  0.
<mgrwt>
<rscale>  2 0.53423906E+03</rscale>
<asrwt>0</asrwt>
<pdfrwt beam="1">  1       21 0.57935132E-02 0.53423906E+03</pdfrwt>
<pdfrwt beam="2">  1       21 0.26634924E+00 0.53423906E+03</pdfrwt>
<totfact> 0.92116289E+03</totfact>
</mgrwt>
</event>
<event>
 7    0  0.4759581E-002  0.4585977E+03  0.7546771E-02  0.1025189E+00
         21   -1    0    0  502  501  0.00000000000E+00  0.00000000000E+00  0.38933508011E+03  0.38933508011E+03  0.00000000000E+00 0. -1.
         21   -1    0    0  501  502 -0.00000000000E+00 -0.00000000000E+00 -0.13504555802E+03  0.13504555802E+03  0.00000000000E+00 0. -1.
      99926    2    1    2    0    0  0.00000000000E+00  0.00000000000E+00  0.25428952210E+03  0.52438063813E+03  0.45859774595E+03 0.  0.
      99925    2    3    3    0    0 -0.65261731252E+02 -0.22576321568E+02  0.26679039907E+03  0.38094924726E+03  0.26301412146E+03 0.  0.
         25    1    3    3    0    0  0.65261731252E+02  0.22576321568E+02 -0.12500876976E+02  0.14343139087E+03  0.12509000000E+03 0.  0.
         25    1    4    4    0    0 -0.34107066062E+02  0.16969576273E+02  0.90600419156E+02  0.15908237654E+03  0.12509000000E+03 0.  0.
         25    1    4    4    0    0 -0.31154665190E+02 -0.39545897841E+02  0.17618997992E+03  0.22186687072E+03  0.12509000000E+03 0.  0.
<mgrwt>
<rscale>  2 0.45859775E+03</rscale>
<asrwt>0</asrwt>
<pdfrwt beam="1">  1       21 0.57255158E-01 0.45859775E+03</pdfrwt>
<pdfrwt beam="2">  1       21 0.19859641E-01 0.45859775E+03</pdfrwt>
<totfact> 0.61806678E+04</totfact>
</mgrwt>
</event>
<event>
 7    0  0.4759581E-002  0.4524668E+03  0.7546771E-02  0.1026989E+00
         21   -1    0    0  502  501  0.00000000000E+00  0.00000000000E+00  0.52238984761E+02  0.52238984761E+02  0.00000000000E+00 0.  1.
         21   -1    0    0  501  502 -0.00000000000E+00 -0.00000000000E+00 -0.97975762494E+03  0.97975762494E+03  0.00000000000E+00 0.  1.
      99926    2    1    2    0    0  0.35527136788E-14  0.00000000000E+00 -0.92751864017E+03  0.10319966097E+04  0.45246676624E+03 0.  0.
      99925    2    3    3    0    0  0.10914012998E+02 -0.52931462860E+02 -0.80571748692E+03  0.84922931373E+03  0.26284768047E+03 0.  0.
         25    1    3    3    0    0 -0.10914012998E+02  0.52931462860E+02 -0.12180115325E+03  0.18276729596E+03  0.12509000000E+03 0.  0.
         25    1    4    4    0    0  0.27324458051E+02  0.76319585887E+01 -0.37192928380E+03  0.39342568936E+03  0.12509000000E+03 0.  0.
         25    1    4    4    0    0 -0.16410445053E+02 -0.60563421449E+02 -0.43378820312E+03  0.45580362437E+03  0.12509000000E+03 0.  0.
<mgrwt>
<rscale>  2 0.45246677E+03</rscale>
<asrwt>0</asrwt>
<pdfrwt beam="1">  1       21 0.76822036E-02 0.45246677E+03</pdfrwt>
<pdfrwt beam="2">  1       21 0.14408200E+00 0.45246677E+03</pdfrwt>
<totfact> 0.38704799E+04</totfact>
</mgrwt>
</event>
<event>
 7    0  0.4759581E-002  0.4566924E+03  0.7546771E-02  0.1025745E+00
         21   -1    0    0  502  501  0.00000000000E+00  0.00000000000E+00  0.44087549500E+03  0.44087549500E+03  0.00000000000E+00 0.  1.
         21   -1    0    0  501  502 -0.00000000000E+00 -0.00000000000E+00 -0.11826917313E+03  0.11826917313E+03  0.00000000000E+00 0.  1.
      99926    2    1    2    0    0  0.00000000000E+00  0.00000000000E+00  0.32260632186E+03  0.55914466813E+03  0.45669237019E+03 0.  0.
      99925    2    3    3    0    0 -0.33865813196E+02 -0.71234946689E+02  0.30475614841E+03  0.41019015250E+03  0.26297973360E+03 0.  0.
         25    1    3    3    0    0  0.33865813196E+02  0.71234946689E+02  0.17850173451E+02  0.14895451563E+03  0.12509000000E+03 0.  0.
         25    1    4    4    0    0 -0.61136424948E+00 -0.20075240541E+02  0.94548924663E+02  0.15808351054E+03  0.12509000000E+03 0.  0.
         25    1    4    4    0    0 -0.33254448947E+02 -0.51159706148E+02  0.21020722375E+03  0.25210664197E+03  0.12509000000E+03 0.  0.
<mgrwt>
<rscale>  2 0.45669237E+03</rscale>
<asrwt>0</asrwt>
<pdfrwt beam="1">  1       21 0.64834631E-01 0.45669237E+03</pdfrwt>
<pdfrwt beam="2">  1       21 0.17392526E-01 0.45669237E+03</pdfrwt>
<totfact> 0.60452896E+04</totfact>
</mgrwt>
</event>
<event>
 7    0  0.4759581E-002  0.4559353E+03  0.7546771E-02  0.1025967E+00
         21   -1    0    0  502  501  0.00000000000E+00  0.00000000000E+00  0.44217101003E+03  0.44217101003E+03  0.00000000000E+00 0.  1.
         21   -1    0    0  501  502 -0.00000000000E+00 -0.00000000000E+00 -0.11753203598E+03  0.11753203598E+03  0.00000000000E+00 0.  1.
      99926    2    1    2    0    0 -0.14210854715E-13 -0.71054273576E-14  0.32463897405E+03  0.55970304602E+03  0.45593534218E+03 0.  0.
      99925    2    3    3    0    0 -0.74121887882E+02 -0.39804359052E+02  0.29858579588E+03  0.40671704190E+03  0.26303390164E+03 0.  0.
         25    1    4    4    0    0 -0.43857103847E+02  0.13001966045E+02  0.18000575221E+03  0.22392426311E+03  0.12509000000E+03 0.  0.
         25    1    3    3    0    0  0.74121887882E+02  0.39804359052E+02  0.26053178173E+02  0.15298600412E+03  0.12509000000E+03 0.  0.
         25    1    4    4    0    0 -0.30264784035E+02 -0.52806325097E+02  0.11858004366E+03  0.18279277879E+03  0.12509000000E+03 0.  0.
<mgrwt>
<rscale>  2 0.45593534E+03</rscale>
<asrwt>0</asrwt>
<pdfrwt beam="1">  1       21 0.65025148E-01 0.45593534E+03</pdfrwt>
<pdfrwt beam="2">  1       21 0.17284123E-01 0.45593534E+03</pdfrwt>
<totfact> 0.60778921E+04</totfact>
</mgrwt>
</event>
<event>
 7    0  0.4759581E-002  0.4482415E+03  0.7546771E-02  0.1028248E+00
         21   -1    0    0  502  501  0.00000000000E+00  0.00000000000E+00  0.23955111041E+02  0.23955111041E+02  0.00000000000E+00 0.  1.
         21   -1    0    0  501  502 -0.00000000000E+00 -0.00000000000E+00 -0.20968436091E+04  0.20968436091E+04  0.00000000000E+00 0.  1.
      99926    2    1    2    0    0 -0.71054273576E-14  0.00000000000E+00 -0.20728884981E+04  0.21207987202E+04  0.44824154869E+03 0.  0.
      99925    2    3    3    0    0 -0.60804695942E+02  0.83888792534E+02 -0.14333791192E+04  0.14609848871E+04  0.26299543786E+03 0.  0.
         25    1    4    4    0    0 -0.68782885859E+02  0.59375339708E+02 -0.82043874268E+03  0.83487948528E+03  0.12509000000E+03 0.  0.
         25    1    4    4    0    0  0.79781899163E+01  0.24513452826E+02 -0.61294037653E+03  0.62610540180E+03  0.12509000000E+03 0.  0.
         25    1    3    3    0    0  0.60804695942E+02 -0.83888792534E+02 -0.63950937886E+03  0.65981383308E+03  0.12509000000E+03 0.  0.
<mgrwt>
<rscale>  2 0.44824155E+03</rscale>
<asrwt>0</asrwt>
<pdfrwt beam="1">  1       21 0.35228095E-02 0.44824155E+03</pdfrwt>
<pdfrwt beam="2">  1       21 0.30835944E+00 0.44824155E+03</pdfrwt>
<totfact> 0.12478062E+04</totfact>
</mgrwt>
</event>
<event>
 7    0  0.4759581E-002  0.4523410E+03  0.7546771E-02  0.1027026E+00
         21   -1    0    0  502  501  0.00000000000E+00  0.00000000000E+00  0.79874982574E+02  0.79874982574E+02  0.00000000000E+00 0.  1.
         21   -1    0    0  501  502 -0.00000000000E+00 -0.00000000000E+00 -0.64041447071E+03  0.64041447071E+03  0.00000000000E+00 0.  1.
      99926    2    1    2    0    0  0.00000000000E+00  0.00000000000E+00 -0.56053948814E+03  0.72028945328E+03  0.45234099831E+03 0.  0.
      99925    2    3    3    0    0 -0.65029111571E+02 -0.37078331382E+02 -0.22380862102E+03  0.35335788885E+03  0.26299792919E+03 0.  0.
         25    1    4    4    0    0 -0.73217879971E+02 -0.17262326773E+02 -0.10838601816E+03  0.18180726857E+03  0.12509000000E+03 0.  0.
         25    1    3    3    0    0  0.65029111571E+02  0.37078331382E+02 -0.33673086712E+03  0.36693156443E+03  0.12509000000E+03 0.  0.
         25    1    4    4    0    0  0.81887684001E+01 -0.19816004609E+02 -0.11542260286E+03  0.17155062028E+03  0.12509000000E+03 0.  0.
<mgrwt>
<rscale>  2 0.45234100E+03</rscale>
<asrwt>0</asrwt>
<pdfrwt beam="1">  1       21 0.11746321E-01 0.45234100E+03</pdfrwt>
<pdfrwt beam="2">  1       21 0.94178596E-01 0.45234100E+03</pdfrwt>
<totfact> 0.52913209E+04</totfact>
</mgrwt>
</event>
<event>
 7    0  0.4759581E-002  0.4513754E+03  0.7546771E-02  0.1027313E+00
         21   -1    0    0  502  501  0.00000000000E+00  0.00000000000E+00  0.13199317296E+04  0.13199317296E+04  0.00000000000E+00 0.  1.
         21   -1    0    0  501  502 -0.00000000000E+00 -0.00000000000E+00 -0.38589070703E+02  0.38589070703E+02  0.00000000000E+00 0.  1.
      99926    2    1    2    0    0 -0.88817841970E-15  0.00000000000E+00  0.12813426589E+04  0.13585208003E+04  0.45137540402E+03 0.  0.
      99925    2    3    3    0    0 -0.59500227456E+01  0.98093708118E+02  0.95702492791E+03  0.99729057306E+03  0.26274321330E+03 0.  0.
         25    1    4    4    0    0  0.30445773594E+01  0.86207181841E+02  0.45500906378E+03  0.47971002062E+03  0.12509000000E+03 0.  0.
         25    1    4    4    0    0 -0.89946001050E+01  0.11886526277E+02  0.50201586412E+03  0.51758055244E+03  0.12509000000E+03 0.  0.
         25    1    3    3    0    0  0.59500227456E+01 -0.98093708118E+02  0.32431773104E+03  0.36123022729E+03  0.12509000000E+03 0.  0.
<mgrwt>
<rscale>  2 0.45137540E+03</rscale>
<asrwt>0</asrwt>
<pdfrwt beam="1">  1       21 0.19410758E+00 0.45137540E+03</pdfrwt>
<pdfrwt beam="2">  1       21 0.56748642E-02 0.45137540E+03</pdfrwt>
<totfact> 0.28246086E+04</totfact>
</mgrwt>
</event>
<event>
 7    0  0.4759581E-002  0.4573637E+03  0.7546771E-02  0.1025549E+00
         21   -1    0    0  502  501  0.00000000000E+00  0.00000000000E+00  0.36616563420E+03  0.36616563420E+03  0.00000000000E+00 0.  1.
         21   -1    0    0  501  502 -0.00000000000E+00 -0.00000000000E+00 -0.14281892187E+03  0.14281892187E+03  0.00000000000E+00 0.  1.
      99926    2    1    2    0    0  0.00000000000E+00  0.00000000000E+00  0.22334671233E+03  0.50898455608E+03  0.45736366757E+03 0.  0.
      99925    2    3    3    0    0 -0.84797127980E+02  0.66585991773E+02  0.94526298252E+02  0.29954135519E+03  0.26299345086E+03 0.  0.
         25    1    3    3    0    0  0.84797127980E+02 -0.66585991773E+02  0.12882041408E+03  0.20944320089E+03  0.12509000000E+03 0.  0.
         25    1    4    4    0    0 -0.39718257075E+02  0.49855703056E+02  0.87320746933E+02  0.16533466671E+03  0.12509000000E+03 0.  0.
         25    1    4    4    0    0 -0.45078870905E+02  0.16730288717E+02  0.72055513190E+01  0.13420668848E+03  0.12509000000E+03 0.  0.
<mgrwt>
<rscale>  2 0.45736367E+03</rscale>
<asrwt>0</asrwt>
<pdfrwt beam="1">  1       21 0.53847887E-01 0.45736367E+03</pdfrwt>
<pdfrwt beam="2">  1       21 0.21002783E-01 0.45736367E+03</pdfrwt>
<totfact> 0.63445355E+04</totfact>
</mgrwt>
</event>
<event>
 7    0  0.4759581E-002  0.4574636E+03  0.7546771E-02  0.1025519E+00
         21   -1    0    0  502  501  0.00000000000E+00  0.00000000000E+00  0.11314383793E+04  0.11314383793E+04  0.00000000000E+00 0.  1.
         21   -1    0    0  501  502 -0.00000000000E+00 -0.00000000000E+00 -0.46240474615E+02  0.46240474615E+02  0.00000000000E+00 0.  1.
      99926    2    1    2    0    0  0.00000000000E+00  0.00000000000E+00  0.10851979046E+04  0.11776788539E+04  0.45746364950E+03 0.  0.
      99925    2    3    3    0    0 -0.10029110950E+03  0.26715314597E+02  0.81185282195E+03  0.85965832464E+03  0.26293614423E+03 0.  0.
         25    1    4    4    0    0 -0.63151783759E+02  0.40149323333E+02  0.51249151129E+03  0.53281814271E+03  0.12509000000E+03 0.  0.
         25    1    4    4    0    0 -0.37139325740E+02 -0.13434008736E+02  0.29936131065E+03  0.32684018193E+03  0.12509000000E+03 0.  0.
         25    1    3    3    0    0  0.10029110950E+03 -0.26715314597E+02  0.27334508270E+03  0.31802052924E+03  0.12509000000E+03 0.  0.
<mgrwt>
<rscale>  2 0.45746365E+03</rscale>
<asrwt>0</asrwt>
<pdfrwt beam="1">  1       21 0.16638798E+00 0.45746365E+03</pdfrwt>
<pdfrwt beam="2">  1       21 0.68000705E-02 0.45746365E+03</pdfrwt>
<totfact> 0.32248061E+04</totfact>
</mgrwt>
</event>
<event>
 7    0  0.4759581E-002  0.4593010E+03  0.7546771E-02  0.1024984E+00
         21   -1    0    0  502  501  0.00000000000E+00  0.00000000000E+00  0.13699001548E+04  0.13699001548E+04  0.00000000000E+00 0.  1.
         21   -1    0    0  501  502 -0.00000000000E+00 -0.00000000000E+00 -0.38498687309E+02  0.38498687309E+02  0.00000000000E+00 0.  1.
      99926    2    1    2    0    0 -0.71054273576E-14  0.00000000000E+00  0.13314014675E+04  0.14083988421E+04  0.45930102419E+03 0.  0.
      99925    2    3    3    0    0 -0.49223671422E+02 -0.10618159412E+03  0.82292231236E+03  0.87183937657E+03  0.26306893697E+03 0.  0.
         25    1    4    4    0    0  0.30949205127E+01 -0.37626166841E+02  0.29836945209E+03  0.32572556701E+03  0.12509000000E+03 0.  0.
         25    1    4    4    0    0 -0.52318591935E+02 -0.68555427283E+02  0.52455286027E+03  0.54611380956E+03  0.12509000000E+03 0.  0.
         25    1    3    3    0    0  0.49223671422E+02  0.10618159412E+03  0.50847915515E+03  0.53655946556E+03  0.12509000000E+03 0.  0.
<mgrwt>
<rscale>  2 0.45930102E+03</rscale>
<asrwt>0</asrwt>
<pdfrwt beam="1">  1       21 0.20145587E+00 0.45930102E+03</pdfrwt>
<pdfrwt beam="2">  1       21 0.56615726E-02 0.45930102E+03</pdfrwt>
<totfact> 0.25254379E+04</totfact>
</mgrwt>
</event>
<event>
 7    0  0.4759581E-002  0.4571692E+03  0.7546771E-02  0.1025605E+00
         21   -1    0    0  502  501  0.00000000000E+00  0.00000000000E+00  0.72154838806E+03  0.72154838806E+03  0.00000000000E+00 0. -1.
         21   -1    0    0  501  502 -0.00000000000E+00 -0.00000000000E+00 -0.72414990682E+02  0.72414990682E+02  0.00000000000E+00 0. -1.
      99926    2    1    2    0    0 -0.88817841970E-15  0.00000000000E+00  0.64913339738E+03  0.79396337874E+03  0.45716920193E+03 0.  0.
      99925    2    3    3    0    0  0.68452634727E+01  0.78576083102E+02  0.26173120140E+03  0.37929600841E+03  0.26294710826E+03 0.  0.
         25    1    4    4    0    0 -0.14898959625E+02  0.76275627158E+02  0.13215997411E+03  0.19787298238E+03  0.12509000000E+03 0.  0.
         25    1    4    4    0    0  0.21744223098E+02  0.23004559435E+01  0.12957122729E+03  0.18142302604E+03  0.12509000000E+03 0.  0.
         25    1    3    3    0    0 -0.68452634727E+01 -0.78576083102E+02  0.38740219598E+03  0.41466737033E+03  0.12509000000E+03 0.  0.
<mgrwt>
<rscale>  2 0.45716920E+03</rscale>
<asrwt>0</asrwt>
<pdfrwt beam="1">  1       21 0.10611005E+00 0.45716920E+03</pdfrwt>
<pdfrwt beam="2">  1       21 0.10649264E-01 0.45716920E+03</pdfrwt>
<totfact> 0.47248667E+04</totfact>
</mgrwt>
</event>
<event>
 7    0  0.4759581E-002  0.4307423E+03  0.7546771E-02  0.1033626E+00
         21   -1    0    0  502  501  0.00000000000E+00  0.00000000000E+00  0.63752316169E+02  0.63752316169E+02  0.00000000000E+00 0. -1.
         21   -1    0    0  501  502 -0.00000000000E+00 -0.00000000000E+00 -0.72757718581E+03  0.72757718581E+03  0.00000000000E+00 0. -1.
      99926    2    1    2    0    0  0.00000000000E+00  0.00000000000E+00 -0.66382486965E+03  0.79132950198E+03  0.43074229320E+03 0.  0.
      99925    2    3    3    0    0  0.21864805084E+02 -0.82539067477E+02 -0.38489624070E+03  0.47393470759E+03  0.26301753477E+03 0.  0.
         25    1    3    3    0    0 -0.21864805084E+02  0.82539067477E+02 -0.27892862894E+03  0.31739479439E+03  0.12509000000E+03 0.  0.
         25    1    4    4    0    0  0.12775488507E+02 -0.66844842662E+02 -0.14773874988E+03  0.20519671638E+03  0.12509000000E+03 0.  0.
         25    1    4    4    0    0  0.90893165768E+01 -0.15694224815E+02 -0.23715749083E+03  0.26873799122E+03  0.12509000000E+03 0.  0.
<mgrwt>
<rscale>  2 0.43074229E+03</rscale>
<asrwt>0</asrwt>
<pdfrwt beam="1">  1       21 0.93753407E-02 0.43074229E+03</pdfrwt>
<pdfrwt beam="2">  1       21 0.10699664E+00 0.43074229E+03</pdfrwt>
<totfact> 0.58566589E+04</totfact>
</mgrwt>
</event>
<event>
 7    0  0.4759581E-002  0.4489057E+03  0.7546771E-02  0.1028049E+00
         21   -1    0    0  502  501  0.00000000000E+00  0.00000000000E+00  0.59324226553E+02  0.59324226553E+02  0.00000000000E+00 0.  1.
         21   -1    0    0  501  502 -0.00000000000E+00 -0.00000000000E+00 -0.84921605432E+03  0.84921605432E+03  0.00000000000E+00 0.  1.
      99926    2    1    2    0    0  0.00000000000E+00  0.00000000000E+00 -0.78989182777E+03  0.90854028087E+03  0.44890571660E+03 0.  0.
      99925    2    3    3    0    0 -0.32164137656E+02  0.50932767448E+02 -0.67980484238E+03  0.73135300424E+03  0.26289525391E+03 0.  0.
         25    1    4    4    0    0 -0.10588580891E+02  0.49557826911E+02 -0.43697936785E+03  0.45734732127E+03  0.12509000000E+03 0.  0.
         25    1    3    3    0    0  0.32164137656E+02 -0.50932767448E+02 -0.11008698538E+03  0.17718727664E+03  0.12509000000E+03 0.  0.
         25    1    4    4    0    0 -0.21575556764E+02  0.13749405366E+01 -0.24282547454E+03  0.27400568296E+03  0.12509000000E+03 0.  0.
<mgrwt>
<rscale>  2 0.44890572E+03</rscale>
<asrwt>0</asrwt>
<pdfrwt beam="1">  1       21 0.87241514E-02 0.44890572E+03</pdfrwt>
<pdfrwt beam="2">  1       21 0.12488471E+00 0.44890572E+03</pdfrwt>
<totfact> 0.44973176E+04</totfact>
</mgrwt>
</event>
<event>
 7    0  0.4759581E-002  0.4549667E+03  0.7546771E-02  0.1026251E+00
         21   -1    0    0  502  501  0.00000000000E+00  0.00000000000E+00  0.28130412593E+02  0.28130412593E+02  0.00000000000E+00 0. -1.
         21   -1    0    0  501  502 -0.00000000000E+00 -0.00000000000E+00 -0.18395991078E+04  0.18395991078E+04  0.00000000000E+00 0. -1.
      99926    2    1    2    0    0  0.00000000000E+00  0.00000000000E+00 -0.18114686952E+04  0.18677295204E+04  0.45496673245E+03 0.  0.
      99925    2    3    3    0    0  0.55089519514E+02  0.74277638269E+02 -0.87201539881E+03  0.91548373967E+03  0.26295931077E+03 0.  0.
         25    1    4    4    0    0  0.14060185938E+02  0.27504518960E+01 -0.46590299554E+03  0.48261616547E+03  0.12509000000E+03 0.  0.
         25    1    4    4    0    0  0.41029333576E+02  0.71527186373E+02 -0.40611240327E+03  0.43286757420E+03  0.12509000000E+03 0.  0.
         25    1    3    3    0    0 -0.55089519514E+02 -0.74277638269E+02 -0.93945329642E+03  0.95224578076E+03  0.12509000000E+03 0.  0.
<mgrwt>
<rscale>  2 0.45496673E+03</rscale>
<asrwt>0</asrwt>
<pdfrwt beam="1">  1       21 0.41368270E-02 0.45496673E+03</pdfrwt>
<pdfrwt beam="2">  1       21 0.27052917E+00 0.45496673E+03</pdfrwt>
<totfact> 0.15996118E+04</totfact>
</mgrwt>
</event>
<event>
 7    0  0.4759581E-002  0.4586893E+03  0.7546771E-02  0.1025162E+00
         21   -1    0    0  502  501  0.00000000000E+00  0.00000000000E+00  0.28692255844E+03  0.28692255844E+03  0.00000000000E+00 0.  1.
         21   -1    0    0  501  502 -0.00000000000E+00 -0.00000000000E+00 -0.18332110918E+03  0.18332110918E+03  0.00000000000E+00 0.  1.
      99926    2    1    2    0    0 -0.14210854715E-13  0.00000000000E+00  0.10360144926E+03  0.47024366763E+03  0.45868927026E+03 0.  0.
      99925    2    3    3    0    0 -0.65698196437E+02  0.94554175300E+02  0.84634840185E+02  0.29917647193E+03  0.26284360389E+03 0.  0.
         25    1    3    3    0    0  0.65698196437E+02 -0.94554175300E+02  0.18966609078E+02  0.17106719569E+03  0.12509000000E+03 0.  0.
         25    1    4    4    0    0 -0.37791273836E+02  0.85498969942E+02  0.27505407099E+02  0.15856326737E+03  0.12509000000E+03 0.  0.
         25    1    4    4    0    0 -0.27906922601E+02  0.90552053583E+01  0.57129433086E+02  0.14061320456E+03  0.12509000000E+03 0.  0.
<mgrwt>
<rscale>  2 0.45868927E+03</rscale>
<asrwt>0</asrwt>
<pdfrwt beam="1">  1       21 0.42194494E-01 0.45868927E+03</pdfrwt>
<pdfrwt beam="2">  1       21 0.26958987E-01 0.45868927E+03</pdfrwt>
<totfact> 0.65480521E+04</totfact>
</mgrwt>
</event>
<event>
 6    0  0.4759581E-002  0.4548310E+03  0.7546771E-02  0.1026291E+00
         21   -1    0    0  502  501  0.00000000000E+00  0.00000000000E+00  0.24059361437E+03  0.24059361437E+03  0.00000000000E+00 0. -1.
         21   -1    0    0  501  502 -0.00000000000E+00 -0.00000000000E+00 -0.21495920692E+03  0.21495920692E+03  0.00000000000E+00 0. -1.
      99926    2    1    2    0    0 -0.14210854715E-13 -0.71054273576E-14  0.25634407455E+02  0.45555282129E+03  0.45483101273E+03 0.  0.
         25    1    3    3    0    0  0.87792033922E+01 -0.70074984038E+01  0.30999031715E+02  0.12936238833E+03  0.12509000000E+03 0.  0.
         25    1    3    3    0    0  0.87039122068E+02  0.46922796244E+02  0.23263738495E+02  0.16114052006E+03  0.12509000000E+03 0.  0.
         25    1    3    3    0    0 -0.95818325460E+02 -0.39915297840E+02 -0.28628362755E+02  0.16504991290E+03  0.12509000000E+03 0.  0.
<mgrwt>
<rscale>  2 0.45483101E+03</rscale>
<asrwt>0</asrwt>
<pdfrwt beam="1">  1       21 0.35381414E-01 0.45483101E+03</pdfrwt>
<pdfrwt beam="2">  1       21 0.31611648E-01 0.45483101E+03</pdfrwt>
<totfact> 0.68597789E+04</totfact>
</mgrwt>
</event>
<event>
 7    0  0.4759581E-002  0.4528194E+03  0.7546771E-02  0.1026885E+00
         21   -1    0    0  502  501  0.00000000000E+00  0.00000000000E+00  0.88582643923E+02  0.88582643923E+02  0.00000000000E+00 0.  1.
         21   -1    0    0  501  502 -0.00000000000E+00 -0.00000000000E+00 -0.57868398258E+03  0.57868398258E+03  0.00000000000E+00 0.  1.
      99926    2    1    2    0    0 -0.17763568394E-14  0.00000000000E+00 -0.49010133866E+03  0.66726662650E+03  0.45281942173E+03 0.  0.
      99925    2    3    3    0    0  0.97589439731E+01 -0.35527476754E+02 -0.46350483327E+03  0.53417898324E+03  0.26296961245E+03 0.  0.
         25    1    4    4    0    0 -0.34110018963E+02 -0.20955436664E+02 -0.25122827896E+03  0.28348858878E+03  0.12509000000E+03 0.  0.
         25    1    3    3    0    0 -0.97589439731E+01  0.35527476754E+02 -0.26596505384E+02  0.13308764327E+03  0.12509000000E+03 0.  0.
         25    1    4    4    0    0  0.43868962936E+02 -0.14572040089E+02 -0.21227655432E+03  0.25069039446E+03  0.12509000000E+03 0.  0.
<mgrwt>
<rscale>  2 0.45281942E+03</rscale>
<asrwt>0</asrwt>
<pdfrwt beam="1">  1       21 0.13026859E-01 0.45281942E+03</pdfrwt>
<pdfrwt beam="2">  1       21 0.85100586E-01 0.45281942E+03</pdfrwt>
<totfact> 0.55667179E+04</totfact>
</mgrwt>
</event>
<event>
 7    0  0.4759581E-002  0.4548750E+03  0.7546771E-02  0.1026278E+00
         21   -1    0    0  502  501  0.00000000000E+00  0.00000000000E+00  0.43392328595E+03  0.43392328595E+03  0.00000000000E+00 0.  1.
         21   -1    0    0  501  502 -0.00000000000E+00 -0.00000000000E+00 -0.11920961362E+03  0.11920961362E+03  0.00000000000E+00 0.  1.
      99926    2    1    2    0    0  0.00000000000E+00  0.00000000000E+00  0.31471367233E+03  0.55313289957E+03  0.45487504772E+03 0.  0.
      99925    2    3    3    0    0 -0.56902113349E+02 -0.93872161216E+02  0.23079991054E+03  0.36674926115E+03  0.26303343646E+03 0.  0.
         25    1    4    4    0    0 -0.34749503622E+02 -0.42414087250E+02  0.63918252505E+02  0.15079633252E+03  0.12509000000E+03 0.  0.
         25    1    3    3    0    0  0.56902113349E+02  0.93872161216E+02  0.83913761790E+02  0.18638363843E+03  0.12509000000E+03 0.  0.
         25    1    4    4    0    0 -0.22152609727E+02 -0.51458073966E+02  0.16688165803E+03  0.21595292862E+03  0.12509000000E+03 0.  0.
<mgrwt>
<rscale>  2 0.45487505E+03</rscale>
<asrwt>0</asrwt>
<pdfrwt beam="1">  1       21 0.63812247E-01 0.45487505E+03</pdfrwt>
<pdfrwt beam="2">  1       21 0.17530826E-01 0.45487505E+03</pdfrwt>
<totfact> 0.61720952E+04</totfact>
</mgrwt>
</event>
<event>
 7    0  0.4759581E-002  0.4489411E+03  0.7546771E-02  0.1028038E+00
         21   -1    0    0  502  501  0.00000000000E+00  0.00000000000E+00  0.12305193570E+03  0.12305193570E+03  0.00000000000E+00 0.  1.
         21   -1    0    0  501  502 -0.00000000000E+00 -0.00000000000E+00 -0.40947765774E+03  0.40947765774E+03  0.00000000000E+00 0.  1.
      99926    2    1    2    0    0  0.00000000000E+00  0.00000000000E+00 -0.28642572204E+03  0.53252959344E+03  0.44894105810E+03 0.  0.
      99925    2    3    3    0    0 -0.10100442612E+03 -0.17949933047E+02 -0.14374057761E+03  0.31681994430E+03  0.26303883603E+03 0.  0.
         25    1    3    3    0    0  0.10100442612E+03  0.17949933047E+02 -0.14268514443E+03  0.21570964915E+03  0.12509000000E+03 0.  0.
         25    1    4    4    0    0 -0.51769828912E+02 -0.12361445340E+02 -0.26806137253E+02  0.13856044750E+03  0.12509000000E+03 0.  0.
         25    1    4    4    0    0 -0.49234597213E+02 -0.55884877070E+01 -0.11693444035E+03  0.17825949680E+03  0.12509000000E+03 0.  0.
<mgrwt>
<rscale>  2 0.44894106E+03</rscale>
<asrwt>0</asrwt>
<pdfrwt beam="1">  1       21 0.18095873E-01 0.44894106E+03</pdfrwt>
<pdfrwt beam="2">  1       21 0.60217302E-01 0.44894106E+03</pdfrwt>
<totfact> 0.66151867E+04</totfact>
</mgrwt>
</event>
<event>
 7    0  0.4759581E-002  0.4528730E+03  0.7546771E-02  0.1026869E+00
         21   -1    0    0  502  501  0.00000000000E+00  0.00000000000E+00  0.11480388277E+04  0.11480388277E+04  0.00000000000E+00 0. -1.
         21   -1    0    0  501  502 -0.00000000000E+00 -0.00000000000E+00 -0.44661801122E+02  0.44661801122E+02  0.00000000000E+00 0. -1.
      99926    2    1    2    0    0  0.71054273576E-14  0.71054273576E-14  0.11033770266E+04  0.11927006289E+04  0.45287297029E+03 0.  0.
      99925    2    3    3    0    0  0.53392630314E+02  0.46149901338E+02  0.46786331194E+03  0.54115955110E+03  0.26263471729E+03 0.  0.
         25    1    3    3    0    0 -0.53392630314E+02 -0.46149901338E+02  0.63551371469E+03  0.65154107777E+03  0.12509000000E+03 0.  0.
         25    1    4    4    0    0  0.63327686490E+02  0.11684308713E+02  0.21838187607E+03  0.25977888837E+03  0.12509000000E+03 0.  0.
         25    1    4    4    0    0 -0.99350561759E+01  0.34465592625E+02  0.24948143587E+03  0.28138066273E+03  0.12509000000E+03 0.  0.
<mgrwt>
<rscale>  2 0.45287297E+03</rscale>
<asrwt>0</asrwt>
<pdfrwt beam="1">  1       21 0.16882922E+00 0.45287297E+03</pdfrwt>
<pdfrwt beam="2">  1       21 0.65679126E-02 0.45287297E+03</pdfrwt>
<totfact> 0.32930454E+04</totfact>
</mgrwt>
</event>
<event>
 7    0  0.4759581E-002  0.4503329E+03  0.7546771E-02  0.1027623E+00
         21   -1    0    0  502  501  0.00000000000E+00  0.00000000000E+00  0.28893770632E+03  0.28893770632E+03  0.00000000000E+00 0. -1.
         21   -1    0    0  501  502 -0.00000000000E+00 -0.00000000000E+00 -0.17547013272E+03  0.17547013272E+03  0.00000000000E+00 0. -1.
      99926    2    1    2    0    0  0.00000000000E+00 -0.71054273576E-14  0.11346757360E+03  0.46440783903E+03  0.45033293317E+03 0.  0.
      99925    2    3    3    0    0 -0.41247366243E+02 -0.58379521122E+02 -0.12731797291E+02  0.27287898214E+03  0.26304244244E+03 0.  0.
         25    1    4    4    0    0 -0.36292241419E+02 -0.57266937806E+02 -0.32992748829E+02  0.14605703861E+03  0.12509000000E+03 0.  0.
         25    1    4    4    0    0 -0.49551248247E+01 -0.11125833162E+01  0.20260951537E+02  0.12682194353E+03  0.12509000000E+03 0.  0.
         25    1    3    3    0    0  0.41247366243E+02  0.58379521122E+02  0.12619937089E+03  0.19152885689E+03  0.12509000000E+03 0.  0.
<mgrwt>
<rscale>  2 0.45033293E+03</rscale>
<asrwt>0</asrwt>
<pdfrwt beam="1">  1       21 0.42490839E-01 0.45033293E+03</pdfrwt>
<pdfrwt beam="2">  1       21 0.25804431E-01 0.45033293E+03</pdfrwt>
<totfact> 0.70425324E+04</totfact>
</mgrwt>
</event>
<event>
 7    0  0.4759581E-002  0.4543558E+03  0.7546771E-02  0.1026431E+00
         21   -1    0    0  502  501  0.00000000000E+00  0.00000000000E+00  0.14837285002E+03  0.14837285002E+03  0.00000000000E+00 0. -1.
         21   -1    0    0  501  502 -0.00000000000E+00 -0.00000000000E+00 -0.34783849321E+03  0.34783849321E+03  0.00000000000E+00 0. -1.
      99926    2    1    2    0    0 -0.71054273576E-14 -0.14210854715E-13 -0.19946564319E+03  0.49621134323E+03  0.45435575747E+03 0.  0.
      99925    2    3    3    0    0 -0.51298641631E+02 -0.97377365420E+02 -0.15159782412E+03  0.32285408745E+03  0.26294288273E+03 0.  0.
         25    1    4    4    0    0 -0.14003021993E+02 -0.32332778995E+02 -0.30983509602E+02  0.13360007182E+03  0.12509000000E+03 0.  0.
         25    1    4    4    0    0 -0.37295619638E+02 -0.65044586425E+02 -0.12061431452E+03  0.18925401564E+03  0.12509000000E+03 0.  0.
         25    1    3    3    0    0  0.51298641631E+02  0.97377365420E+02 -0.47867819065E+02  0.17335725578E+03  0.12509000000E+03 0.  0.
<mgrwt>
<rscale>  2 0.45435576E+03</rscale>
<asrwt>0</asrwt>
<pdfrwt beam="1">  1       21 0.21819537E-01 0.45435576E+03</pdfrwt>
<pdfrwt beam="2">  1       21 0.51152719E-01 0.45435576E+03</pdfrwt>
<totfact> 0.65873902E+04</totfact>
</mgrwt>
</event>
<event>
 7    0  0.4759581E-002  0.4432530E+03  0.7546771E-02  0.1029753E+00
         21   -1    0    0  502  501  0.00000000000E+00  0.00000000000E+00  0.13799465809E+04  0.13799465809E+04  0.00000000000E+00 0. -1.
         21   -1    0    0  501  502 -0.00000000000E+00 -0.00000000000E+00 -0.35594351449E+02  0.35594351449E+02  0.00000000000E+00 0. -1.
      99926    2    1    2    0    0  0.00000000000E+00  0.00000000000E+00  0.13443522294E+04  0.14155409323E+04  0.44325299133E+03 0.  0.
      99925    2    3    3    0    0  0.50653803223E+02 -0.68033925724E+02  0.10344161918E+04  0.10707188356E+04  0.26311127749E+03 0.  0.
         25    1    4    4    0    0  0.61604575207E+02 -0.55949065116E+02  0.57279172914E+03  0.59216829926E+03  0.12509000000E+03 0.  0.
         25    1    3    3    0    0 -0.50653803223E+02  0.68033925724E+02  0.30993603764E+03  0.34482209668E+03  0.12509000000E+03 0.  0.
         25    1    4    4    0    0 -0.10950771984E+02 -0.12084860609E+02  0.46162446265E+03  0.47855053639E+03  0.12509000000E+03 0.  0.
<mgrwt>
<rscale>  2 0.44325299E+03</rscale>
<asrwt>0</asrwt>
<pdfrwt beam="1">  1       21 0.20293329E+00 0.44325299E+03</pdfrwt>
<pdfrwt beam="2">  1       21 0.52344644E-02 0.44325299E+03</pdfrwt>
<totfact> 0.28428673E+04</totfact>
</mgrwt>
</event>
<event>
 7    0  0.4759581E-002  0.4587657E+03  0.7546771E-02  0.1025140E+00
         21   -1    0    0  502  501  0.00000000000E+00  0.00000000000E+00  0.71660817032E+02  0.71660817032E+02  0.00000000000E+00 0.  1.
         21   -1    0    0  501  502 -0.00000000000E+00 -0.00000000000E+00 -0.73424344326E+03  0.73424344326E+03  0.00000000000E+00 0.  1.
      99926    2    1    2    0    0  0.00000000000E+00  0.88817841970E-15 -0.66258262622E+03  0.80590426029E+03  0.45876567022E+03 0.  0.
      99925    2    3    3    0    0  0.10209693985E+03 -0.54952638711E+01 -0.51411976559E+03  0.58648978460E+03  0.26305351361E+03 0.  0.
         25    1    3    3    0    0 -0.10209693985E+03  0.54952638711E+01 -0.14846286063E+03  0.21941447568E+03  0.12509000000E+03 0.  0.
         25    1    4    4    0    0  0.50677620199E+02  0.37625284308E+02 -0.24552257100E+03  0.28268838706E+03  0.12509000000E+03 0.  0.
         25    1    4    4    0    0  0.51419319649E+02 -0.43120548180E+02 -0.26859719459E+03  0.30380139754E+03  0.12509000000E+03 0.  0.
<mgrwt>
<rscale>  2 0.45876567E+03</rscale>
<asrwt>0</asrwt>
<pdfrwt beam="1">  1       21 0.10538355E-01 0.45876567E+03</pdfrwt>
<pdfrwt beam="2">  1       21 0.10797698E+00 0.45876567E+03</pdfrwt>
<totfact> 0.46102990E+04</totfact>
</mgrwt>
</event>
<event>
 7    0  0.4759581E-002  0.4403106E+03  0.7546771E-02  0.1030652E+00
         21   -1    0    0  502  501  0.00000000000E+00  0.00000000000E+00  0.22159285780E+03  0.22159285780E+03  0.00000000000E+00 0. -1.
         21   -1    0    0  501  502 -0.00000000000E+00 -0.00000000000E+00 -0.21872703342E+03  0.21872703342E+03  0.00000000000E+00 0. -1.
      99926    2    1    2    0    0 -0.35527136788E-14 -0.71054273576E-14  0.28658243819E+01  0.44031989122E+03  0.44031056500E+03 0.  0.
      99925    2    3    3    0    0 -0.17893672863E+02 -0.42873631814E+02 -0.85312105190E+02  0.28037869203E+03  0.26301278262E+03 0.  0.
         25    1    4    4    0    0  0.90884523893E+01  0.96252904542E+01 -0.19822257094E+02  0.12734078749E+03  0.12509000000E+03 0.  0.
         25    1    4    4    0    0 -0.26982125252E+02 -0.52498922268E+02 -0.65489848096E+02  0.15303790454E+03  0.12509000000E+03 0.  0.
         25    1    3    3    0    0  0.17893672863E+02  0.42873631814E+02  0.88177929571E+02  0.15994119919E+03  0.12509000000E+03 0.  0.
<mgrwt>
<rscale>  2 0.44031057E+03</rscale>
<asrwt>0</asrwt>
<pdfrwt beam="1">  1       21 0.32587185E-01 0.44031057E+03</pdfrwt>
<pdfrwt beam="2">  1       21 0.32165740E-01 0.44031057E+03</pdfrwt>
<totfact> 0.78432404E+04</totfact>
</mgrwt>
</event>
<event>
 7    0  0.4759581E-002  0.4502840E+03  0.7546771E-02  0.1027637E+00
         21   -1    0    0  502  501  0.00000000000E+00  0.00000000000E+00  0.15292713607E+03  0.15292713607E+03  0.00000000000E+00 0.  1.
         21   -1    0    0  501  502 -0.00000000000E+00 -0.00000000000E+00 -0.33145798091E+03  0.33145798091E+03  0.00000000000E+00 0.  1.
      99926    2    1    2    0    0  0.14210854715E-13  0.00000000000E+00 -0.17853084484E+03  0.48438511697E+03  0.45028399815E+03 0.  0.
      99925    2    3    3    0    0  0.10246491831E+03  0.21895731745E+02 -0.14399003345E+03  0.31759465471E+03  0.26297291193E+03 0.  0.
         25    1    4    4    0    0  0.47585062832E+02  0.26664029934E+02 -0.11363319101E+03  0.17758186533E+03  0.12509000000E+03 0.  0.
         25    1    3    3    0    0 -0.10246491831E+03 -0.21895731745E+02 -0.34540811384E+02  0.16679046227E+03  0.12509000000E+03 0.  0.
         25    1    4    4    0    0  0.54879855475E+02 -0.47682981886E+01 -0.30356842448E+02  0.14001278937E+03  0.12509000000E+03 0.  0.
<mgrwt>
<rscale>  2 0.45028400E+03</rscale>
<asrwt>0</asrwt>
<pdfrwt beam="1">  1       21 0.22489285E-01 0.45028400E+03</pdfrwt>
<pdfrwt beam="2">  1       21 0.48743819E-01 0.45028400E+03</pdfrwt>
<totfact> 0.68926837E+04</totfact>
</mgrwt>
</event>
<event>
 7    0  0.4759581E-002  0.4639427E+03  0.7546771E-02  0.1023644E+00
         21   -1    0    0  502  501  0.00000000000E+00  0.00000000000E+00  0.43740180600E+02  0.43740180600E+02  0.00000000000E+00 0. -1.
         21   -1    0    0  501  502 -0.00000000000E+00 -0.00000000000E+00 -0.12302354042E+04  0.12302354042E+04  0.00000000000E+00 0. -1.
      99926    2    1    2    0    0  0.00000000000E+00  0.71054273576E-14 -0.11864952236E+04  0.12739755848E+04  0.46394274974E+03 0.  0.
      99925    2    3    3    0    0  0.10847448333E+03  0.48080788840E+02 -0.66952405495E+03  0.72901212445E+03  0.26290253263E+03 0.  0.
         25    1    4    4    0    0  0.12655667249E+02  0.14817618142E+02 -0.32174153559E+03  0.34575258718E+03  0.12509000000E+03 0.  0.
         25    1    4    4    0    0  0.95818816078E+02  0.33263170698E+02 -0.34778251936E+03  0.38325953727E+03  0.12509000000E+03 0.  0.
         25    1    3    3    0    0 -0.10847448333E+03 -0.48080788840E+02 -0.51697116861E+03  0.54496346030E+03  0.12509000000E+03 0.  0.
<mgrwt>
<rscale>  2 0.46394275E+03</rscale>
<asrwt>0</asrwt>
<pdfrwt beam="1">  1       21 0.64323800E-02 0.46394275E+03</pdfrwt>
<pdfrwt beam="2">  1       21 0.18091696E+00 0.46394275E+03</pdfrwt>
<totfact> 0.27887874E+04</totfact>
</mgrwt>
</event>
<event>
 7    0  0.4759581E-002  0.4532965E+03  0.7546771E-02  0.1026744E+00
         21   -1    0    0  502  501  0.00000000000E+00  0.00000000000E+00  0.52894779749E+02  0.52894779749E+02  0.00000000000E+00 0.  1.
         21   -1    0    0  501  502 -0.00000000000E+00 -0.00000000000E+00 -0.97116253816E+03  0.97116253816E+03  0.00000000000E+00 0.  1.
      99926    2    1    2    0    0  0.35527136788E-14  0.00000000000E+00 -0.91826775841E+03  0.10240573179E+04  0.45329649704E+03 0.  0.
      99925    2    3    3    0    0 -0.29204155031E+02 -0.14406619386E+01 -0.33560818943E+03  0.42740445435E+03  0.26303374803E+03 0.  0.
         25    1    4    4    0    0 -0.23282333674E+02  0.15486778589E+01 -0.10502190916E+03  0.16498962079E+03  0.12509000000E+03 0.  0.
         25    1    3    3    0    0  0.29204155031E+02  0.14406619386E+01 -0.58265956897E+03  0.59665286356E+03  0.12509000000E+03 0.  0.
         25    1    4    4    0    0 -0.59218213567E+01 -0.29893397976E+01 -0.23058628027E+03  0.26241483356E+03  0.12509000000E+03 0.  0.
<mgrwt>
<rscale>  2 0.45329650E+03</rscale>
<asrwt>0</asrwt>
<pdfrwt beam="1">  1       21 0.77786443E-02 0.45329650E+03</pdfrwt>
<pdfrwt beam="2">  1       21 0.14281802E+00 0.45329650E+03</pdfrwt>
<totfact> 0.38756842E+04</totfact>
</mgrwt>
</event>
<event>
 7    0  0.4759581E-002  0.4630997E+03  0.7546771E-02  0.1023886E+00
         21   -1    0    0  502  501  0.00000000000E+00  0.00000000000E+00  0.39826208687E+03  0.39826208687E+03  0.00000000000E+00 0.  1.
         21   -1    0    0  501  502 -0.00000000000E+00 -0.00000000000E+00 -0.13462326059E+03  0.13462326059E+03  0.00000000000E+00 0.  1.
      99926    2    1    2    0    0 -0.14210854715E-13  0.00000000000E+00  0.26363882629E+03  0.53288534746E+03  0.46309973312E+03 0.  0.
      99925    2    3    3    0    0  0.91829715516E+02 -0.76569884327E+02  0.14770726031E+03  0.32459881423E+03  0.26315643942E+03 0.  0.
         25    1    3    3    0    0 -0.91829715516E+02  0.76569884327E+02  0.11593156598E+03  0.20828653324E+03  0.12509000000E+03 0.  0.
         25    1    4    4    0    0  0.11878959014E+02 -0.17481461793E+02  0.44787062883E+02  0.13453661314E+03  0.12509000000E+03 0.  0.
         25    1    4    4    0    0  0.79950756503E+02 -0.59088422533E+02  0.10292019743E+03  0.19006220108E+03  0.12509000000E+03 0.  0.
<mgrwt>
<rscale>  2 0.46309973E+03</rscale>
<asrwt>0</asrwt>
<pdfrwt beam="1">  1       21 0.58567954E-01 0.46309973E+03</pdfrwt>
<pdfrwt beam="2">  1       21 0.19797538E-01 0.46309973E+03</pdfrwt>
<totfact> 0.59123595E+04</totfact>
</mgrwt>
</event>
<event>
 7    0  0.4759581E-002  0.4387858E+03  0.7546771E-02  0.1031120E+00
         21   -1    0    0  502  501  0.00000000000E+00  0.00000000000E+00  0.31389825782E+02  0.31389825782E+02  0.00000000000E+00 0. -1.
         21   -1    0    0  501  502 -0.00000000000E+00 -0.00000000000E+00 -0.15334027765E+04  0.15334027765E+04  0.00000000000E+00 0. -1.
      99926    2    1    2    0    0  0.00000000000E+00  0.00000000000E+00 -0.15020129507E+04  0.15647926023E+04  0.43878580655E+03 0.  0.
      99925    2    3    3    0    0 -0.55437360307E+02  0.36979760981E+02 -0.12124671172E+04  0.12424184385E+04  0.26284265731E+03 0.  0.
         25    1    4    4    0    0 -0.61952961367E+02  0.90312485150E+01 -0.54067529742E+03  0.55847741066E+03  0.12509000000E+03 0.  0.
         25    1    3    3    0    0  0.55437360307E+02 -0.36979760981E+02 -0.28954583356E+03  0.32237416378E+03  0.12509000000E+03 0.  0.
         25    1    4    4    0    0  0.65156010592E+01  0.27948512466E+02 -0.67179181974E+03  0.68394102785E+03  0.12509000000E+03 0.  0.
<mgrwt>
<rscale>  2 0.43878581E+03</rscale>
<asrwt>0</asrwt>
<pdfrwt beam="1">  1       21 0.46161514E-02 0.43878581E+03</pdfrwt>
<pdfrwt beam="2">  1       21 0.22550038E+00 0.43878581E+03</pdfrwt>
<totfact> 0.25270477E+04</totfact>
</mgrwt>
</event>
<event>
 7    0  0.4759581E-002  0.4608740E+03  0.7546771E-02  0.1024528E+00
         21   -1    0    0  502  501  0.00000000000E+00  0.00000000000E+00  0.23644952496E+03  0.23644952496E+03  0.00000000000E+00 0. -1.
         21   -1    0    0  501  502 -0.00000000000E+00 -0.00000000000E+00 -0.22457736571E+03  0.22457736571E+03  0.00000000000E+00 0. -1.
      99926    2    1    2    0    0  0.35527136788E-14  0.00000000000E+00  0.11872159252E+02  0.46102689066E+03  0.46087400203E+03 0.  0.
      99925    2    3    3    0    0  0.30302005554E+02  0.11189022848E+03 -0.17553426106E+02  0.28796329558E+03  0.26301540271E+03 0.  0.
         25    1    3    3    0    0 -0.30302005554E+02 -0.11189022848E+03  0.29425585358E+02  0.17306359508E+03  0.12509000000E+03 0.  0.
         25    1    4    4    0    0  0.49757833987E+02  0.50089195403E+02 -0.29311975821E+02  0.14659969156E+03  0.12509000000E+03 0.  0.
         25    1    4    4    0    0 -0.19455828434E+02  0.61801033078E+02  0.11758549715E+02  0.14136360402E+03  0.12509000000E+03 0.  0.
<mgrwt>
<rscale>  2 0.46087400E+03</rscale>
<asrwt>0</asrwt>
<pdfrwt beam="1">  1       21 0.34771989E-01 0.46087400E+03</pdfrwt>
<pdfrwt beam="2">  1       21 0.33026083E-01 0.46087400E+03</pdfrwt>
<totfact> 0.65005952E+04</totfact>
</mgrwt>
</event>
<event>
 7    0  0.4759581E-002  0.4469463E+03  0.7546771E-02  0.1028637E+00
         21   -1    0    0  502  501  0.00000000000E+00  0.00000000000E+00  0.13639775037E+03  0.13639775037E+03  0.00000000000E+00 0. -1.
         21   -1    0    0  501  502 -0.00000000000E+00 -0.00000000000E+00 -0.36613687055E+03  0.36613687055E+03  0.00000000000E+00 0. -1.
      99926    2    1    2    0    0 -0.14210854715E-13  0.00000000000E+00 -0.22973912018E+03  0.50253462092E+03  0.44694628523E+03 0.  0.
      99925    2    3    3    0    0  0.99834598801E+02  0.23270352045E+02 -0.11485869124E+03  0.30415751172E+03  0.26231815907E+03 0.  0.
         25    1    4    4    0    0  0.84511957747E+02  0.21470170114E+02 -0.40298371452E+02  0.15771717106E+03  0.12509000000E+03 0.  0.
         25    1    4    4    0    0  0.15322641054E+02  0.18001819307E+01 -0.74560319792E+02  0.14644034066E+03  0.12509000000E+03 0.  0.
         25    1    3    3    0    0 -0.99834598801E+02 -0.23270352045E+02 -0.11488042893E+03  0.19837710920E+03  0.12509000000E+03 0.  0.
<mgrwt>
<rscale>  2 0.44694629E+03</rscale>
<asrwt>0</asrwt>
<pdfrwt beam="1">  1       21 0.20058493E-01 0.44694629E+03</pdfrwt>
<pdfrwt beam="2">  1       21 0.53843657E-01 0.44694629E+03</pdfrwt>
<totfact> 0.69425729E+04</totfact>
</mgrwt>
</event>
<event>
 7    0  0.4759581E-002  0.4498267E+03  0.7546771E-02  0.1027774E+00
         21   -1    0    0  502  501  0.00000000000E+00  0.00000000000E+00  0.88162415448E+02  0.88162415448E+02  0.00000000000E+00 0. -1.
         21   -1    0    0  501  502 -0.00000000000E+00 -0.00000000000E+00 -0.57378221090E+03  0.57378221090E+03  0.00000000000E+00 0. -1.
      99926    2    1    2    0    0  0.00000000000E+00 -0.14210854715E-13 -0.48561979545E+03  0.66194462635E+03  0.44982674733E+03 0.  0.
      99925    2    3    3    0    0  0.74976771593E+02  0.70480454688E+02 -0.25771233559E+03  0.38234074738E+03  0.26302050951E+03 0.  0.
         25    1    3    3    0    0 -0.74976771593E+02 -0.70480454688E+02 -0.22790745987E+03  0.27960387897E+03  0.12509000000E+03 0.  0.
         25    1    4    4    0    0  0.41943699702E+02 -0.60549427072E+01 -0.12371149721E+03  0.18096402659E+03  0.12509000000E+03 0.  0.
         25    1    4    4    0    0  0.33033071891E+02  0.76535397395E+02 -0.13400083837E+03  0.20137672079E+03  0.12509000000E+03 0.  0.
<mgrwt>
<rscale>  2 0.44982675E+03</rscale>
<asrwt>0</asrwt>
<pdfrwt beam="1">  1       21 0.12965061E-01 0.44982675E+03</pdfrwt>
<pdfrwt beam="2">  1       21 0.84379737E-01 0.44982675E+03</pdfrwt>
<totfact> 0.57320455E+04</totfact>
</mgrwt>
</event>
<event>
 6    0  0.4759581E-002  0.4564201E+03  0.7546771E-02  0.1025825E+00
         21   -1    0    0  502  501  0.00000000000E+00  0.00000000000E+00  0.38011032946E+02  0.38011032946E+02  0.00000000000E+00 0.  1.
         21   -1    0    0  501  502 -0.00000000000E+00 -0.00000000000E+00 -0.13701237263E+04  0.13701237263E+04  0.00000000000E+00 0.  1.
      99926    2    1    2    0    0  0.00000000000E+00  0.00000000000E+00 -0.13321126933E+04  0.14081347592E+04  0.45642006135E+03 0.  0.
         25    1    3    3    0    0 -0.86681424061E+02  0.24731875261E+02 -0.54124288304E+03  0.56277588920E+03  0.12509000000E+03 0.  0.
         25    1    3    3    0    0  0.10964780916E+03 -0.37396296579E+02 -0.47021243148E+03  0.50016833554E+03  0.12509000000E+03 0.  0.
         25    1    3    3    0    0 -0.22966385098E+02  0.12664421317E+02 -0.32065737883E+03  0.34519053450E+03  0.12509000000E+03 0.  0.
<mgrwt>
<rscale>  2 0.45642006E+03</rscale>
<asrwt>0</asrwt>
<pdfrwt beam="1">  1       21 0.55898568E-02 0.45642006E+03</pdfrwt>
<pdfrwt beam="2">  1       21 0.20148882E+00 0.45642006E+03</pdfrwt>
<totfact> 0.25829811E+04</totfact>
</mgrwt>
</event>
<event>
 7    0  0.4759581E-002  0.4543980E+03  0.7546771E-02  0.1026419E+00
         21   -1    0    0  502  501  0.00000000000E+00  0.00000000000E+00  0.26324169574E+02  0.26324169574E+02  0.00000000000E+00 0. -1.
         21   -1    0    0  501  502 -0.00000000000E+00 -0.00000000000E+00 -0.19609119652E+04  0.19609119652E+04  0.00000000000E+00 0. -1.
      99926    2    1    2    0    0  0.14210854715E-13  0.71054273576E-14 -0.19345877956E+04  0.19872361347E+04  0.45439797135E+03 0.  0.
      99925    2    3    3    0    0  0.97866438838E+02  0.48182786206E+02 -0.13384822319E+04  0.13684560673E+04  0.26313096015E+03 0.  0.
         25    1    4    4    0    0  0.47135703461E+02  0.51319626800E+02 -0.54121621512E+03  0.55983745699E+03  0.12509000000E+03 0.  0.
         25    1    3    3    0    0 -0.97866438838E+02 -0.48182786206E+02 -0.59610556368E+03  0.61878006747E+03  0.12509000000E+03 0.  0.
         25    1    4    4    0    0  0.50730735377E+02 -0.31368405938E+01 -0.79726601679E+03  0.80861861029E+03  0.12509000000E+03 0.  0.
<mgrwt>
<rscale>  2 0.45439797E+03</rscale>
<asrwt>0</asrwt>
<pdfrwt beam="1">  1       21 0.38711996E-02 0.45439797E+03</pdfrwt>
<pdfrwt beam="2">  1       21 0.28836954E+00 0.45439797E+03</pdfrwt>
<totfact> 0.13984453E+04</totfact>
</mgrwt>
</event>
<event>
 7    0  0.4759581E-002  0.4586246E+03  0.7546771E-02  0.1025181E+00
         21   -1    0    0  502  501  0.00000000000E+00  0.00000000000E+00  0.12004833460E+03  0.12004833460E+03  0.00000000000E+00 0.  1.
         21   -1    0    0  501  502 -0.00000000000E+00 -0.00000000000E+00 -0.43802461233E+03  0.43802461233E+03  0.00000000000E+00 0.  1.
      99926    2    1    2    0    0 -0.35527136788E-14 -0.14210854715E-13 -0.31797627773E+03  0.55807294693E+03  0.45862457512E+03 0.  0.
      99925    2    3    3    0    0  0.23503951861E+02  0.10765778937E+03 -0.15293195748E+03  0.32348869530E+03  0.26289563900E+03 0.  0.
         25    1    3    3    0    0 -0.23503951861E+02 -0.10765778937E+03 -0.16504432025E+03  0.23458425163E+03  0.12509000000E+03 0.  0.
         25    1    4    4    0    0 -0.75944821019E+00  0.39709128720E+02 -0.11421340667E+03  0.17398161405E+03  0.12509000000E+03 0.  0.
         25    1    4    4    0    0  0.24263400071E+02  0.67948660652E+02 -0.38718550810E+02  0.14950708125E+03  0.12509000000E+03 0.  0.
<mgrwt>
<rscale>  2 0.45862458E+03</rscale>
<asrwt>0</asrwt>
<pdfrwt beam="1">  1       21 0.17654167E-01 0.45862458E+03</pdfrwt>
<pdfrwt beam="2">  1       21 0.64415383E-01 0.45862458E+03</pdfrwt>
<totfact> 0.59608628E+04</totfact>
</mgrwt>
</event>
<event>
 7    0  0.4759581E-002  0.4604911E+03  0.7546771E-02  0.1024639E+00
         21   -1    0    0  502  501  0.00000000000E+00  0.00000000000E+00  0.20196689571E+03  0.20196689571E+03  0.00000000000E+00 0.  1.
         21   -1    0    0  501  502 -0.00000000000E+00 -0.00000000000E+00 -0.26248371637E+03  0.26248371637E+03  0.00000000000E+00 0.  1.
      99926    2    1    2    0    0  0.14210854715E-13  0.00000000000E+00 -0.60516820657E+02  0.46445061207E+03  0.46049113507E+03 0.  0.
      99925    2    3    3    0    0  0.10011296068E+03  0.28391420196E+02  0.18717250034E+02  0.28346933212E+03  0.26301302091E+03 0.  0.
         25    1    3    3    0    0 -0.10011296068E+03 -0.28391420196E+02 -0.79234070691E+02  0.18098127996E+03  0.12509000000E+03 0.  0.
         25    1    4    4    0    0  0.66040741798E+02 -0.18775510128E+02 -0.81133649359E+01  0.14292387536E+03  0.12509000000E+03 0.  0.
         25    1    4    4    0    0  0.34072218877E+02  0.47166930324E+02  0.26830614970E+02  0.14054545676E+03  0.12509000000E+03 0.  0.
<mgrwt>
<rscale>  2 0.46049114E+03</rscale>
<asrwt>0</asrwt>
<pdfrwt beam="1">  1       21 0.29701014E-01 0.46049114E+03</pdfrwt>
<pdfrwt beam="2">  1       21 0.38600547E-01 0.46049114E+03</pdfrwt>
<totfact> 0.64965563E+04</totfact>
</mgrwt>
</event>
<event>
 7    0  0.4759581E-002  0.4527759E+03  0.7546771E-02  0.1026897E+00
         21   -1    0    0  502  501  0.00000000000E+00  0.00000000000E+00  0.58995789628E+02  0.58995789628E+02  0.00000000000E+00 0.  1.
         21   -1    0    0  501  502 -0.00000000000E+00 -0.00000000000E+00 -0.86873155336E+03  0.86873155336E+03  0.00000000000E+00 0.  1.
      99926    2    1    2    0    0  0.00000000000E+00 -0.71054273576E-14 -0.80973576373E+03  0.92772734299E+03  0.45277590027E+03 0.  0.
      99925    2    3    3    0    0 -0.18624331225E+02  0.60936283684E+02 -0.32427230173E+03  0.42237362783E+03  0.26303395111E+03 0.  0.
         25    1    3    3    0    0  0.18624331225E+02 -0.60936283684E+02 -0.48546346201E+03  0.50535371516E+03  0.12509000000E+03 0.  0.
         25    1    4    4    0    0 -0.14694688143E+01  0.70887684079E+02 -0.18054022874E+03  0.23080187475E+03  0.12509000000E+03 0.  0.
         25    1    4    4    0    0 -0.17154862411E+02 -0.99514003954E+01 -0.14373207299E+03  0.19157175308E+03  0.12509000000E+03 0.  0.
<mgrwt>
<rscale>  2 0.45277590E+03</rscale>
<asrwt>0</asrwt>
<pdfrwt beam="1">  1       21 0.86758514E-02 0.45277590E+03</pdfrwt>
<pdfrwt beam="2">  1       21 0.12775464E+00 0.45277590E+03</pdfrwt>
<totfact> 0.42795783E+04</totfact>
</mgrwt>
</event>
<event>
 7    0  0.4759581E-002  0.4549730E+03  0.7546771E-02  0.1026249E+00
         21   -1    0    0  502  501  0.00000000000E+00  0.00000000000E+00  0.52768651429E+02  0.52768651429E+02  0.00000000000E+00 0.  1.
         21   -1    0    0  501  502 -0.00000000000E+00 -0.00000000000E+00 -0.98069798707E+03  0.98069798707E+03  0.00000000000E+00 0.  1.
      99926    2    1    2    0    0  0.44408920985E-15  0.00000000000E+00 -0.92792933564E+03  0.10334666385E+04  0.45497301123E+03 0.  0.
      99925    2    3    3    0    0 -0.51437222698E+00  0.99256819183E+02 -0.46008052048E+03  0.53911635512E+03  0.26290716669E+03 0.  0.
         25    1    4    4    0    0  0.31339136478E+02  0.35526942783E+02 -0.18061243664E+03  0.22475022916E+03  0.12509000000E+03 0.  0.
         25    1    3    3    0    0  0.51437222698E+00 -0.99256819183E+02 -0.46784881516E+03  0.49435028338E+03  0.12509000000E+03 0.  0.
         25    1    4    4    0    0 -0.31853508705E+02  0.63729876400E+02 -0.27946808384E+03  0.31436612595E+03  0.12509000000E+03 0.  0.
<mgrwt>
<rscale>  2 0.45497301E+03</rscale>
<asrwt>0</asrwt>
<pdfrwt beam="1">  1       21 0.77600958E-02 0.45497301E+03</pdfrwt>
<pdfrwt beam="2">  1       21 0.14422029E+00 0.45497301E+03</pdfrwt>
<totfact> 0.37897949E+04</totfact>
</mgrwt>
</event>
<event>
 7    0  0.4759581E-002  0.4537362E+03  0.7546771E-02  0.1026614E+00
         21   -1    0    0  502  501  0.00000000000E+00  0.00000000000E+00  0.40371905606E+03  0.40371905606E+03  0.00000000000E+00 0.  1.
         21   -1    0    0  501  502 -0.00000000000E+00 -0.00000000000E+00 -0.12748748920E+03  0.12748748920E+03  0.00000000000E+00 0.  1.
      99926    2    1    2    0    0 -0.88817841970E-15  0.00000000000E+00  0.27623156686E+03  0.53120654526E+03  0.45373617355E+03 0.  0.
      99925    2    3    3    0    0  0.78414349875E+01  0.34899563669E+02  0.29884683352E+03  0.39915191250E+03  0.26217046305E+03 0.  0.
         25    1    4    4    0    0 -0.14309977635E+02 -0.13729512033E+02  0.12017552251E+03  0.17459364041E+03  0.12509000000E+03 0.  0.
         25    1    4    4    0    0  0.22151412623E+02  0.48629075702E+02  0.17867131101E+03  0.22455827209E+03  0.12509000000E+03 0.  0.
         25    1    3    3    0    0 -0.78414349875E+01 -0.34899563669E+02 -0.22615266660E+02  0.13205463276E+03  0.12509000000E+03 0.  0.
<mgrwt>
<rscale>  2 0.45373617E+03</rscale>
<asrwt>0</asrwt>
<pdfrwt beam="1">  1       21 0.59370449E-01 0.45373617E+03</pdfrwt>
<pdfrwt beam="2">  1       21 0.18748160E-01 0.45373617E+03</pdfrwt>
<totfact> 0.63761168E+04</totfact>
</mgrwt>
</event>
<event>
 7    0  0.4759581E-002  0.4550683E+03  0.7546771E-02  0.1026221E+00
         21   -1    0    0  502  501  0.00000000000E+00  0.00000000000E+00  0.65372636714E+03  0.65372636714E+03  0.00000000000E+00 0.  1.
         21   -1    0    0  501  502 -0.00000000000E+00 -0.00000000000E+00 -0.79194876998E+02  0.79194876998E+02  0.00000000000E+00 0.  1.
      99926    2    1    2    0    0  0.00000000000E+00  0.00000000000E+00  0.57453149014E+03  0.73292124414E+03  0.45506825526E+03 0.  0.
      99925    2    3    3    0    0  0.44079758815E+02  0.42614281791E+02  0.20838378037E+03  0.34116793449E+03  0.26308317592E+03 0.  0.
         25    1    4    4    0    0  0.34174028384E+02  0.89940889360E+01  0.15074244494E+03  0.19904660423E+03  0.12509000000E+03 0.  0.
         25    1    4    4    0    0  0.99057304311E+01  0.33620192855E+02  0.57641335433E+02  0.14212133026E+03  0.12509000000E+03 0.  0.
         25    1    3    3    0    0 -0.44079758815E+02 -0.42614281791E+02  0.36614770977E+03  0.39175330965E+03  0.12509000000E+03 0.  0.
<mgrwt>
<rscale>  2 0.45506826E+03</rscale>
<asrwt>0</asrwt>
<pdfrwt beam="1">  1       21 0.96136228E-01 0.45506826E+03</pdfrwt>
<pdfrwt beam="2">  1       21 0.11646306E-01 0.45506826E+03</pdfrwt>
<totfact> 0.51124313E+04</totfact>
</mgrwt>
</event>
<event>
 7    0  0.4759581E-002  0.4565505E+03  0.7546771E-02  0.1025786E+00
         21   -1    0    0  502  501  0.00000000000E+00  0.00000000000E+00  0.36089719051E+03  0.36089719051E+03  0.00000000000E+00 0. -1.
         21   -1    0    0  501  502 -0.00000000000E+00 -0.00000000000E+00 -0.14438902851E+03  0.14438902851E+03  0.00000000000E+00 0. -1.
      99926    2    1    2    0    0  0.00000000000E+00  0.00000000000E+00  0.21650816200E+03  0.50528621902E+03  0.45655052176E+03 0.  0.
      99925    2    3    3    0    0  0.24803637244E+02 -0.87968007682E+02  0.21252767610E+03  0.35031221099E+03  0.26305330499E+03 0.  0.
         25    1    3    3    0    0 -0.24803637244E+02  0.87968007682E+02  0.39804858974E+01  0.15497400803E+03  0.12509000000E+03 0.  0.
         25    1    4    4    0    0  0.22901870986E+02 -0.29516572384E+01  0.95104092883E+02  0.15882539016E+03  0.12509000000E+03 0.  0.
         25    1    4    4    0    0  0.19017662574E+01 -0.85016350444E+02  0.11742358322E+03  0.19148682083E+03  0.12509000000E+03 0.  0.
<mgrwt>
<rscale>  2 0.45655052E+03</rscale>
<asrwt>0</asrwt>
<pdfrwt beam="1">  1       21 0.53073116E-01 0.45655052E+03</pdfrwt>
<pdfrwt beam="2">  1       21 0.21233681E-01 0.45655052E+03</pdfrwt>
<totfact> 0.64108236E+04</totfact>
</mgrwt>
</event>
<event>
 7    0  0.4759581E-002  0.4526644E+03  0.7546771E-02  0.1026930E+00
         21   -1    0    0  502  501  0.00000000000E+00  0.00000000000E+00  0.12499623945E+04  0.12499623945E+04  0.00000000000E+00 0. -1.
         21   -1    0    0  501  502 -0.00000000000E+00 -0.00000000000E+00 -0.40982251765E+02  0.40982251765E+02  0.00000000000E+00 0. -1.
      99926    2    1    2    0    0  0.00000000000E+00  0.00000000000E+00  0.12089801428E+04  0.12909446463E+04  0.45266443885E+03 0.  0.
      99925    2    3    3    0    0  0.36975706463E+02 -0.18554386639E+02  0.10559487805E+04  0.10890100676E+04  0.26306583243E+03 0.  0.
         25    1    3    3    0    0 -0.36975706463E+02  0.18554386639E+02  0.15303136228E+03  0.20193457870E+03  0.12509000000E+03 0.  0.
         25    1    4    4    0    0  0.51984436850E+02 -0.14910493412E+02  0.64168117894E+03  0.65599310057E+03  0.12509000000E+03 0.  0.
         25    1    4    4    0    0 -0.15008730387E+02 -0.36438932261E+01  0.41426760153E+03  0.43301696702E+03  0.12509000000E+03 0.  0.
<mgrwt>
<rscale>  2 0.45266444E+03</rscale>
<asrwt>0</asrwt>
<pdfrwt beam="1">  1       21 0.18381797E+00 0.45266444E+03</pdfrwt>
<pdfrwt beam="2">  1       21 0.60268025E-02 0.45266444E+03</pdfrwt>
<totfact> 0.29918648E+04</totfact>
</mgrwt>
</event>
<event>
 7    0  0.4759581E-002  0.4570862E+03  0.7546771E-02  0.1025630E+00
         21   -1    0    0  502  501  0.00000000000E+00  0.00000000000E+00  0.26730868659E+03  0.26730868659E+03  0.00000000000E+00 0.  1.
         21   -1    0    0  501  502 -0.00000000000E+00 -0.00000000000E+00 -0.19539935445E+03  0.19539935445E+03  0.00000000000E+00 0.  1.
      99926    2    1    2    0    0  0.00000000000E+00  0.00000000000E+00  0.71909332136E+02  0.46270804104E+03  0.45708618355E+03 0.  0.
      99925    2    3    3    0    0 -0.90939829082E+02  0.26134467874E+02  0.11153394545E+03  0.30093449251E+03  0.26299940089E+03 0.  0.
         25    1    3    3    0    0  0.90939829082E+02 -0.26134467874E+02 -0.39624613312E+02  0.16177354853E+03  0.12509000000E+03 0.  0.
         25    1    4    4    0    0 -0.61871606539E+02  0.29529199023E+02  0.21968179886E+02  0.14432663759E+03  0.12509000000E+03 0.  0.
         25    1    4    4    0    0 -0.29068222543E+02 -0.33947311494E+01  0.89565765561E+02  0.15660785492E+03  0.12509000000E+03 0.  0.
<mgrwt>
<rscale>  2 0.45708618E+03</rscale>
<asrwt>0</asrwt>
<pdfrwt beam="1">  1       21 0.39310101E-01 0.45708618E+03</pdfrwt>
<pdfrwt beam="2">  1       21 0.28735199E-01 0.45708618E+03</pdfrwt>
<totfact> 0.66864310E+04</totfact>
</mgrwt>
</event>
<event>
 7    0  0.4759581E-002  0.4540981E+03  0.7546771E-02  0.1026507E+00
         21   -1    0    0  502  501  0.00000000000E+00  0.00000000000E+00  0.11815741949E+04  0.11815741949E+04  0.00000000000E+00 0. -1.
         21   -1    0    0  501  502 -0.00000000000E+00 -0.00000000000E+00 -0.43629320308E+02  0.43629320308E+02  0.00000000000E+00 0. -1.
      99926    2    1    2    0    0 -0.14210854715E-13  0.00000000000E+00  0.11379448745E+04  0.12252035152E+04  0.45409813484E+03 0.  0.
      99925    2    3    3    0    0 -0.89357302971E+02 -0.28256977119E+02  0.54955931051E+03  0.61641105101E+03  0.26299042508E+03 0.  0.
         25    1    4    4    0    0 -0.80196752729E+02 -0.10254454283E+02  0.34512790897E+03  0.37589553686E+03  0.12509000000E+03 0.  0.
         25    1    3    3    0    0  0.89357302971E+02  0.28256977119E+02  0.58838556403E+03  0.60879246415E+03  0.12509000000E+03 0.  0.
         25    1    4    4    0    0 -0.91605502419E+01 -0.18002522836E+02  0.20443140155E+03  0.24051551415E+03  0.12509000000E+03 0.  0.
<mgrwt>
<rscale>  2 0.45409813E+03</rscale>
<asrwt>0</asrwt>
<pdfrwt beam="1">  1       21 0.17376089E+00 0.45409813E+03</pdfrwt>
<pdfrwt beam="2">  1       21 0.64160773E-02 0.45409813E+03</pdfrwt>
<totfact> 0.31587869E+04</totfact>
</mgrwt>
</event>
<event>
 7    0  0.4759581E-002  0.4456180E+03  0.7546771E-02  0.1029037E+00
         21   -1    0    0  502  501  0.00000000000E+00  0.00000000000E+00  0.36736105612E+02  0.36736105612E+02  0.00000000000E+00 0. -1.
         21   -1    0    0  501  502 -0.00000000000E+00 -0.00000000000E+00 -0.13513637319E+04  0.13513637319E+04  0.00000000000E+00 0. -1.
      99926    2    1    2    0    0 -0.71054273576E-14  0.00000000000E+00 -0.13146276263E+04  0.13880998375E+04  0.44561795645E+03 0.  0.
      99925    2    3    3    0    0  0.63423067909E+02 -0.48189572805E+02 -0.10432083754E+04  0.10788092972E+04  0.26306095259E+03 0.  0.
         25    1    4    4    0    0 -0.60072054369E+01 -0.35418028286E+02 -0.54368895610E+03  0.55904893554E+03  0.12509000000E+03 0.  0.
         25    1    4    4    0    0  0.69430273346E+02 -0.12771544519E+02 -0.49951941927E+03  0.51976036164E+03  0.12509000000E+03 0.  0.
         25    1    3    3    0    0 -0.63423067909E+02  0.48189572805E+02 -0.27141925094E+03  0.30929054035E+03  0.12509000000E+03 0.  0.
<mgrwt>
<rscale>  2 0.44561796E+03</rscale>
<asrwt>0</asrwt>
<pdfrwt beam="1">  1       21 0.54023691E-02 0.44561796E+03</pdfrwt>
<pdfrwt beam="2">  1       21 0.19872994E+00 0.44561796E+03</pdfrwt>
<totfact> 0.28686181E+04</totfact>
</mgrwt>
</event>
<event>
 7    0  0.4759581E-002  0.4603473E+03  0.7546771E-02  0.1024681E+00
         21   -1    0    0  502  501  0.00000000000E+00  0.00000000000E+00  0.81956478809E+02  0.81956478809E+02  0.00000000000E+00 0. -1.
         21   -1    0    0  501  502 -0.00000000000E+00 -0.00000000000E+00 -0.64643952170E+03  0.64643952170E+03  0.00000000000E+00 0. -1.
      99926    2    1    2    0    0  0.00000000000E+00 -0.17763568394E-14 -0.56448304289E+03  0.72839600051E+03  0.46034729047E+03 0.  0.
      99925    2    3    3    0    0 -0.86245565925E+02 -0.15978246408E+02 -0.47941828649E+03  0.55353284578E+03  0.26241782702E+03 0.  0.
         25    1    3    3    0    0  0.86245565925E+02  0.15978246408E+02 -0.85064756402E+02  0.17486315473E+03  0.12509000000E+03 0.  0.
         25    1    4    4    0    0 -0.17479139331E+02 -0.11506975661E+02 -0.28816354066E+03  0.31483910981E+03  0.12509000000E+03 0.  0.
         25    1    4    4    0    0 -0.68766426593E+02 -0.44712707465E+01 -0.19125474583E+03  0.23869373597E+03  0.12509000000E+03 0.  0.
<mgrwt>
<rscale>  2 0.46034729E+03</rscale>
<asrwt>0</asrwt>
<pdfrwt beam="1">  1       21 0.12052423E-01 0.46034729E+03</pdfrwt>
<pdfrwt beam="2">  1       21 0.95064635E-01 0.46034729E+03</pdfrwt>
<totfact> 0.49282934E+04</totfact>
</mgrwt>
</event>
<event>
 7    0  0.4759581E-002  0.4475418E+03  0.7546771E-02  0.1028458E+00
         21   -1    0    0  502  501  0.00000000000E+00  0.00000000000E+00  0.27565512203E+02  0.27565512203E+02  0.00000000000E+00 0.  1.
         21   -1    0    0  501  502 -0.00000000000E+00 -0.00000000000E+00 -0.18165240109E+04  0.18165240109E+04  0.00000000000E+00 0.  1.
      99926    2    1    2    0    0  0.00000000000E+00  0.00000000000E+00 -0.17889584987E+04  0.18440895231E+04  0.44754179598E+03 0.  0.
      99925    2    3    3    0    0 -0.13409843773E+02  0.98220572885E+02 -0.97866901988E+03  0.10182301813E+04  0.26300674289E+03 0.  0.
         25    1    3    3    0    0  0.13409843773E+02 -0.98220572885E+02 -0.81028947878E+03  0.82585934175E+03  0.12509000000E+03 0.  0.
         25    1    4    4    0    0 -0.25299293371E+02  0.41798951278E+02 -0.61156848301E+03  0.62613954043E+03  0.12509000000E+03 0.  0.
         25    1    4    4    0    0  0.11889449598E+02  0.56421621607E+02 -0.36710053686E+03  0.39209064088E+03  0.12509000000E+03 0.  0.
<mgrwt>
<rscale>  2 0.44754180E+03</rscale>
<asrwt>0</asrwt>
<pdfrwt beam="1">  1       21 0.40537523E-02 0.44754180E+03</pdfrwt>
<pdfrwt beam="2">  1       21 0.26713585E+00 0.44754180E+03</pdfrwt>
<totfact> 0.17413157E+04</totfact>
</mgrwt>
</event>
<event>
 7    0  0.4759581E-002  0.4519373E+03  0.7546771E-02  0.1027146E+00
         21   -1    0    0  502  501  0.00000000000E+00  0.00000000000E+00  0.46866859307E+03  0.46866859307E+03  0.00000000000E+00 0.  1.
         21   -1    0    0  501  502 -0.00000000000E+00 -0.00000000000E+00 -0.10895081756E+03  0.10895081756E+03  0.00000000000E+00 0.  1.
      99926    2    1    2    0    0  0.00000000000E+00 -0.14210854715E-13  0.35971777551E+03  0.57761941063E+03  0.45193728051E+03 0.  0.
      99925    2    3    3    0    0 -0.75986966676E+02 -0.63233587622E+02  0.28865989706E+03  0.40306501825E+03  0.26337115837E+03 0.  0.
         25    1    4    4    0    0 -0.49312235748E+02 -0.66615428165E+00  0.10457332292E+03  0.17033856969E+03  0.12509000000E+03 0.  0.
         25    1    3    3    0    0  0.75986966676E+02  0.63233587622E+02  0.71057878452E+02  0.17455439238E+03  0.12509000000E+03 0.  0.
         25    1    4    4    0    0 -0.26674730928E+02 -0.62567433341E+02  0.18408657414E+03  0.23272644857E+03  0.12509000000E+03 0.  0.
<mgrwt>
<rscale>  2 0.45193728E+03</rscale>
<asrwt>0</asrwt>
<pdfrwt beam="1">  1       21 0.68921851E-01 0.45193728E+03</pdfrwt>
<pdfrwt beam="2">  1       21 0.16022179E-01 0.45193728E+03</pdfrwt>
<totfact> 0.61554453E+04</totfact>
</mgrwt>
</event>
<event>
 7    0  0.4759581E-002  0.4506130E+03  0.7546771E-02  0.1027539E+00
         21   -1    0    0  502  501  0.00000000000E+00  0.00000000000E+00  0.14773717853E+04  0.14773717853E+04  0.00000000000E+00 0. -1.
         21   -1    0    0  501  502 -0.00000000000E+00 -0.00000000000E+00 -0.34360360887E+02  0.34360360887E+02  0.00000000000E+00 0. -1.
      99926    2    1    2    0    0  0.00000000000E+00  0.00000000000E+00  0.14430114244E+04  0.15117321462E+04  0.45061303890E+03 0.  0.
      99925    2    3    3    0    0 -0.49723545022E+02  0.73329607530E+02  0.69888231719E+03  0.75197870027E+03  0.26303195643E+03 0.  0.
         25    1    4    4    0    0 -0.30934500541E+01  0.30887811612E+02  0.42849683295E+03  0.44746024437E+03  0.12509000000E+03 0.  0.
         25    1    4    4    0    0 -0.46630094968E+02  0.42441795918E+02  0.27038548424E+03  0.30451845590E+03  0.12509000000E+03 0.  0.
         25    1    3    3    0    0  0.49723545022E+02 -0.73329607530E+02  0.74412910723E+03  0.75975344593E+03  0.12509000000E+03 0.  0.
<mgrwt>
<rscale>  2 0.45061304E+03</rscale>
<asrwt>0</asrwt>
<pdfrwt beam="1">  1       21 0.21726052E+00 0.45061304E+03</pdfrwt>
<pdfrwt beam="2">  1       21 0.50529952E-02 0.45061304E+03</pdfrwt>
<totfact> 0.24310928E+04</totfact>
</mgrwt>
</event>
<event>
 7    0  0.4759581E-002  0.4765452E+03  0.7546771E-02  0.1020089E+00
         21   -1    0    0  502  501  0.00000000000E+00  0.00000000000E+00  0.29476987474E+03  0.29476987474E+03  0.00000000000E+00 0.  1.
         21   -1    0    0  501  502 -0.00000000000E+00 -0.00000000000E+00 -0.19260391165E+03  0.19260391165E+03  0.00000000000E+00 0.  1.
      99926    2    1    2    0    0  0.14210854715E-13  0.00000000000E+00  0.10216596309E+03  0.48737378639E+03  0.47654519581E+03 0.  0.
      99925    2    3    3    0    0  0.11286947204E+03 -0.91605218327E+01  0.13204416856E+03  0.31601554136E+03  0.26383086827E+03 0.  0.
         25    1    3    3    0    0 -0.11286947204E+03  0.91605218327E+01 -0.29878205472E+02  0.17135824503E+03  0.12509000000E+03 0.  0.
         25    1    4    4    0    0  0.57773758398E+02  0.10171199925E+02  0.22926784360E+02  0.14005144058E+03  0.12509000000E+03 0.  0.
         25    1    4    4    0    0  0.55095713638E+02 -0.19331721758E+02  0.10911738420E+03  0.17596410078E+03  0.12509000000E+03 0.  0.
<mgrwt>
<rscale>  2 0.47654520E+03</rscale>
<asrwt>0</asrwt>
<pdfrwt beam="1">  1       21 0.43348511E-01 0.47654520E+03</pdfrwt>
<pdfrwt beam="2">  1       21 0.28324105E-01 0.47654520E+03</pdfrwt>
<totfact> 0.55964474E+04</totfact>
</mgrwt>
</event>
<event>
 7    0  0.4759581E-002  0.4548248E+03  0.7546771E-02  0.1026293E+00
         21   -1    0    0  502  501  0.00000000000E+00  0.00000000000E+00  0.15502289643E+03  0.15502289643E+03  0.00000000000E+00 0. -1.
         21   -1    0    0  501  502 -0.00000000000E+00 -0.00000000000E+00 -0.33360493961E+03  0.33360493961E+03  0.00000000000E+00 0. -1.
      99926    2    1    2    0    0  0.00000000000E+00  0.14210854715E-13 -0.17858204318E+03  0.48862783604E+03  0.45482481903E+03 0.  0.
      99925    2    3    3    0    0 -0.81396325387E+02  0.72635891791E+02 -0.14377924235E+03  0.31903987182E+03  0.26308294265E+03 0.  0.
         25    1    3    3    0    0  0.81396325387E+02 -0.72635891791E+02 -0.34802800823E+02  0.16958796422E+03  0.12509000000E+03 0.  0.
         25    1    4    4    0    0 -0.31542857359E+02 -0.54933878924E+01 -0.65231305629E+02  0.14466430277E+03  0.12509000000E+03 0.  0.
         25    1    4    4    0    0 -0.49853468028E+02  0.78129279683E+02 -0.78547936725E+02  0.17437556905E+03  0.12509000000E+03 0.  0.
<mgrwt>
<rscale>  2 0.45482482E+03</rscale>
<asrwt>0</asrwt>
<pdfrwt beam="1">  1       21 0.22797485E-01 0.45482482E+03</pdfrwt>
<pdfrwt beam="2">  1       21 0.49059549E-01 0.45482482E+03</pdfrwt>
<totfact> 0.66169191E+04</totfact>
</mgrwt>
</event>
<event>
 7    0  0.4759581E-002  0.4548538E+03  0.7546771E-02  0.1026284E+00
         21   -1    0    0  502  501  0.00000000000E+00  0.00000000000E+00  0.14037433958E+03  0.14037433958E+03  0.00000000000E+00 0. -1.
         21   -1    0    0  501  502 -0.00000000000E+00 -0.00000000000E+00 -0.36846477656E+03  0.36846477656E+03  0.00000000000E+00 0. -1.
      99926    2    1    2    0    0  0.00000000000E+00 -0.14210854715E-13 -0.22809043699E+03  0.50883911614E+03  0.45485382121E+03 0.  0.
      99925    2    3    3    0    0  0.15286621965E+02 -0.10073001114E+03 -0.88155258002E+02  0.29527512485E+03  0.26274671052E+03 0.  0.
         25    1    4    4    0    0  0.32664358049E-01 -0.33933821926E+02 -0.80223284957E+02  0.15242961945E+03  0.12509000000E+03 0.  0.
         25    1    4    4    0    0  0.15253957607E+02 -0.66796189216E+02 -0.79319730454E+01  0.14284550540E+03  0.12509000000E+03 0.  0.
         25    1    3    3    0    0 -0.15286621965E+02  0.10073001114E+03 -0.13993517898E+03  0.21356399128E+03  0.12509000000E+03 0.  0.
<mgrwt>
<rscale>  2 0.45485382E+03</rscale>
<asrwt>0</asrwt>
<pdfrwt beam="1">  1       21 0.20643286E-01 0.45485382E+03</pdfrwt>
<pdfrwt beam="2">  1       21 0.54185995E-01 0.45485382E+03</pdfrwt>
<totfact> 0.64729104E+04</totfact>
</mgrwt>
</event>
<event>
 7    0  0.4759581E-002  0.4546570E+03  0.7546771E-02  0.1026342E+00
         21   -1    0    0  502  501  0.00000000000E+00  0.00000000000E+00  0.12893910016E+03  0.12893910016E+03  0.00000000000E+00 0.  1.
         21   -1    0    0  501  502 -0.00000000000E+00 -0.00000000000E+00 -0.40079575479E+03  0.40079575479E+03  0.00000000000E+00 0.  1.
      99926    2    1    2    0    0  0.00000000000E+00  0.00000000000E+00 -0.27185665463E+03  0.52973485495E+03  0.45465698706E+03 0.  0.
      99925    2    3    3    0    0 -0.56813202670E+02 -0.83681146061E+02 -0.22943805938E+03  0.36337043710E+03  0.26299425329E+03 0.  0.
         25    1    3    3    0    0  0.56813202670E+02  0.83681146061E+02 -0.42418595250E+02  0.16636441785E+03  0.12509000000E+03 0.  0.
         25    1    4    4    0    0 -0.93057130587E+01 -0.29288989579E+01 -0.10017248464E+03  0.16055282471E+03  0.12509000000E+03 0.  0.
         25    1    4    4    0    0 -0.47507489611E+02 -0.80752247103E+02 -0.12926557474E+03  0.20281761239E+03  0.12509000000E+03 0.  0.
<mgrwt>
<rscale>  2 0.45465699E+03</rscale>
<asrwt>0</asrwt>
<pdfrwt beam="1">  1       21 0.18961633E-01 0.45465699E+03</pdfrwt>
<pdfrwt beam="2">  1       21 0.58940551E-01 0.45465699E+03</pdfrwt>
<totfact> 0.63396666E+04</totfact>
</mgrwt>
</event>
<event>
 7    0  0.4759581E-002  0.4656562E+03  0.7546771E-02  0.1023153E+00
         21   -1    0    0  502  501  0.00000000000E+00  0.00000000000E+00  0.36634728671E+03  0.36634728671E+03  0.00000000000E+00 0. -1.
         21   -1    0    0  501  502 -0.00000000000E+00 -0.00000000000E+00 -0.14797141641E+03  0.14797141641E+03  0.00000000000E+00 0. -1.
      99926    2    1    2    0    0  0.35527136788E-14 -0.71054273576E-14  0.21837587030E+03  0.51431870312E+03  0.46565621186E+03 0.  0.
      99925    2    3    3    0    0  0.23245259812E+02 -0.52995625547E+02  0.16335262193E+02  0.26974398272E+03  0.26295645456E+03 0.  0.
         25    1    3    3    0    0 -0.23245259812E+02  0.52995625547E+02  0.20204060811E+03  0.24457472039E+03  0.12509000000E+03 0.  0.
         25    1    4    4    0    0  0.27687834239E+02 -0.57459367268E+02  0.30531187168E+02  0.14369362039E+03  0.12509000000E+03 0.  0.
         25    1    4    4    0    0 -0.44425744263E+01  0.44637417208E+01 -0.14195924975E+02  0.12605036233E+03  0.12509000000E+03 0.  0.
<mgrwt>
<rscale>  2 0.46565621E+03</rscale>
<asrwt>0</asrwt>
<pdfrwt beam="1">  1       21 0.53874601E-01 0.46565621E+03</pdfrwt>
<pdfrwt beam="2">  1       21 0.21760503E-01 0.46565621E+03</pdfrwt>
<totfact> 0.59115846E+04</totfact>
</mgrwt>
</event>
<event>
 7    0  0.4759581E-002  0.4483158E+03  0.7546771E-02  0.1028225E+00
         21   -1    0    0  502  501  0.00000000000E+00  0.00000000000E+00  0.11257948174E+04  0.11257948174E+04  0.00000000000E+00 0.  1.
         21   -1    0    0  501  502 -0.00000000000E+00 -0.00000000000E+00 -0.44632253632E+02  0.44632253632E+02  0.00000000000E+00 0.  1.
      99926    2    1    2    0    0  0.00000000000E+00  0.35527136788E-14  0.10811625638E+04  0.11704270711E+04  0.44831578080E+03 0.  0.
      99925    2    3    3    0    0 -0.76140458258E+02  0.29652285721E+02  0.86448121173E+03  0.90722573393E+03  0.26278154320E+03 0.  0.
         25    1    4    4    0    0 -0.25543564270E+02 -0.14029240692E+02  0.32627147283E+03  0.35064209011E+03  0.12509000000E+03 0.  0.
         25    1    3    3    0    0  0.76140458258E+02 -0.29652285721E+02  0.21668135206E+03  0.26320133712E+03  0.12509000000E+03 0.  0.
         25    1    4    4    0    0 -0.50596893988E+02  0.43681526413E+02  0.53820973890E+03  0.55658364383E+03  0.12509000000E+03 0.  0.
<mgrwt>
<rscale>  2 0.44831578E+03</rscale>
<asrwt>0</asrwt>
<pdfrwt beam="1">  1       21 0.16555804E+00 0.44831578E+03</pdfrwt>
<pdfrwt beam="2">  1       21 0.65635674E-02 0.44831578E+03</pdfrwt>
<totfact> 0.34889712E+04</totfact>
</mgrwt>
</event>
<event>
 7    0  0.4759581E-002  0.4544276E+03  0.7546771E-02  0.1026410E+00
         21   -1    0    0  502  501  0.00000000000E+00  0.00000000000E+00  0.37965535805E+03  0.37965535805E+03  0.00000000000E+00 0. -1.
         21   -1    0    0  501  502 -0.00000000000E+00 -0.00000000000E+00 -0.13598151624E+03  0.13598151624E+03  0.00000000000E+00 0. -1.
      99926    2    1    2    0    0  0.00000000000E+00 -0.14210854715E-13  0.24367384181E+03  0.51563687429E+03  0.45442760144E+03 0.  0.
      99925    2    3    3    0    0 -0.89817235460E+02  0.64910134429E+02  0.17576096508E+03  0.33524804908E+03  0.26309480464E+03 0.  0.
         25    1    4    4    0    0 -0.29594428323E+02  0.67209255706E+02  0.72189980015E+02  0.16202412029E+03  0.12509000000E+03 0.  0.
         25    1    3    3    0    0  0.89817235460E+02 -0.64910134429E+02  0.67912876727E+02  0.18038882522E+03  0.12509000000E+03 0.  0.
         25    1    4    4    0    0 -0.60222807137E+02 -0.22991212764E+01  0.10357098506E+03  0.17322392879E+03  0.12509000000E+03 0.  0.
<mgrwt>
<rscale>  2 0.45442760E+03</rscale>
<asrwt>0</asrwt>
<pdfrwt beam="1">  1       21 0.55831670E-01 0.45442760E+03</pdfrwt>
<pdfrwt beam="2">  1       21 0.19997282E-01 0.45442760E+03</pdfrwt>
<totfact> 0.64477863E+04</totfact>
</mgrwt>
</event>
<event>
 7    0  0.4759581E-002  0.4612793E+03  0.7546771E-02  0.1024411E+00
         21   -1    0    0  502  501  0.00000000000E+00  0.00000000000E+00  0.13104929660E+04  0.13104929660E+04  0.00000000000E+00 0. -1.
         21   -1    0    0  501  502 -0.00000000000E+00 -0.00000000000E+00 -0.40591333549E+02  0.40591333549E+02  0.00000000000E+00 0. -1.
      99926    2    1    2    0    0  0.00000000000E+00 -0.14210854715E-13  0.12699016324E+04  0.13510842995E+04  0.46127933878E+03 0.  0.
      99925    2    3    3    0    0 -0.39011532146E+02 -0.11105241350E+03  0.74063294351E+03  0.79464257629E+03  0.26280245216E+03 0.  0.
         25    1    4    4    0    0 -0.14445114115E+02 -0.49787661637E+02  0.47215691027E+03  0.49118950375E+03  0.12509000000E+03 0.  0.
         25    1    3    3    0    0  0.39011532146E+02  0.11105241350E+03  0.52926868892E+03  0.55644172324E+03  0.12509000000E+03 0.  0.
         25    1    4    4    0    0 -0.24566418030E+02 -0.61264751861E+02  0.26847603324E+03  0.30345307255E+03  0.12509000000E+03 0.  0.
<mgrwt>
<rscale>  2 0.46127934E+03</rscale>
<asrwt>0</asrwt>
<pdfrwt beam="1">  1       21 0.19271953E+00 0.46127934E+03</pdfrwt>
<pdfrwt beam="2">  1       21 0.59693146E-02 0.46127934E+03</pdfrwt>
<totfact> 0.26355086E+04</totfact>
</mgrwt>
</event>
<event>
 7    0  0.4759581E-002  0.4521124E+03  0.7546771E-02  0.1027094E+00
         21   -1    0    0  502  501  0.00000000000E+00  0.00000000000E+00  0.29371706328E+03  0.29371706328E+03  0.00000000000E+00 0.  1.
         21   -1    0    0  501  502 -0.00000000000E+00 -0.00000000000E+00 -0.17398175679E+03  0.17398175679E+03  0.00000000000E+00 0.  1.
      99926    2    1    2    0    0  0.71054273576E-14  0.00000000000E+00  0.11973530649E+03  0.46769882007E+03  0.45211242261E+03 0.  0.
      99925    2    3    3    0    0  0.42919252896E+02  0.97351833296E+02  0.10643637481E+03  0.30294502983E+03  0.26292118115E+03 0.  0.
         25    1    4    4    0    0  0.72489355936E+01  0.79788683784E+02  0.31663595905E+02  0.15188440517E+03  0.12509000000E+03 0.  0.
         25    1    3    3    0    0 -0.42919252896E+02 -0.97351833296E+02  0.13298931679E+02  0.16475379024E+03  0.12509000000E+03 0.  0.
         25    1    4    4    0    0  0.35670317303E+02  0.17563149512E+02  0.74772778909E+02  0.15106062466E+03  0.12509000000E+03 0.  0.
<mgrwt>
<rscale>  2 0.45211242E+03</rscale>
<asrwt>0</asrwt>
<pdfrwt beam="1">  1       21 0.43193686E-01 0.45211242E+03</pdfrwt>
<pdfrwt beam="2">  1       21 0.25585553E-01 0.45211242E+03</pdfrwt>
<totfact> 0.69178394E+04</totfact>
</mgrwt>
</event>
<event>
 7    0  0.4759581E-002  0.4649999E+03  0.7546771E-02  0.1023341E+00
         21   -1    0    0  502  501  0.00000000000E+00  0.00000000000E+00  0.27538097490E+03  0.27538097490E+03  0.00000000000E+00 0.  1.
         21   -1    0    0  501  502 -0.00000000000E+00 -0.00000000000E+00 -0.19629616451E+03  0.19629616451E+03  0.00000000000E+00 0.  1.
      99926    2    1    2    0    0  0.00000000000E+00 -0.71054273576E-14  0.79084810385E+02  0.47167713941E+03  0.46499991033E+03 0.  0.
      99925    2    3    3    0    0  0.60298447222E+02  0.48710440767E+02  0.14528959267E+03  0.31031050384E+03  0.26301127976E+03 0.  0.
         25    1    4    4    0    0  0.75390821350E+01  0.22948881138E+02  0.10842738314E+03  0.16729463357E+03  0.12509000000E+03 0.  0.
         25    1    3    3    0    0 -0.60298447222E+02 -0.48710440767E+02 -0.66204782282E+02  0.16136663557E+03  0.12509000000E+03 0.  0.
         25    1    4    4    0    0  0.52759365087E+02  0.25761559628E+02  0.36862209523E+02  0.14301587027E+03  0.12509000000E+03 0.  0.
<mgrwt>
<rscale>  2 0.46499991E+03</rscale>
<asrwt>0</asrwt>
<pdfrwt beam="1">  1       21 0.40497202E-01 0.46499991E+03</pdfrwt>
<pdfrwt beam="2">  1       21 0.28867083E-01 0.46499991E+03</pdfrwt>
<totfact> 0.62222063E+04</totfact>
</mgrwt>
</event>
<event>
 7    0  0.4759581E-002  0.4549341E+03  0.7546771E-02  0.1026261E+00
         21   -1    0    0  502  501  0.00000000000E+00  0.00000000000E+00  0.18417869532E+03  0.18417869532E+03  0.00000000000E+00 0. -1.
         21   -1    0    0  501  502 -0.00000000000E+00 -0.00000000000E+00 -0.28092962123E+03  0.28092962123E+03  0.00000000000E+00 0. -1.
      99926    2    1    2    0    0  0.00000000000E+00  0.00000000000E+00 -0.96750925915E+02  0.46510831655E+03  0.45493406605E+03 0.  0.
      99925    2    3    3    0    0  0.27303973708E+02 -0.10095360142E+03 -0.16405264418E+02  0.28333903960E+03  0.26282074126E+03 0.  0.
         25    1    4    4    0    0  0.40330451523E+02 -0.61798532602E+02  0.20185188199E+02  0.14663067167E+03  0.12509000000E+03 0.  0.
         25    1    3    3    0    0 -0.27303973708E+02  0.10095360142E+03 -0.80345661496E+02  0.18176927695E+03  0.12509000000E+03 0.  0.
         25    1    4    4    0    0 -0.13026477815E+02 -0.39155068822E+02 -0.36590452617E+02  0.13670836793E+03  0.12509000000E+03 0.  0.
<mgrwt>
<rscale>  2 0.45493407E+03</rscale>
<asrwt>0</asrwt>
<pdfrwt beam="1">  1       21 0.27085102E-01 0.45493407E+03</pdfrwt>
<pdfrwt beam="2">  1       21 0.41313179E-01 0.45493407E+03</pdfrwt>
<totfact> 0.67837392E+04</totfact>
</mgrwt>
</event>
<event>
 7    0  0.4759581E-002  0.4518249E+03  0.7546771E-02  0.1027179E+00
         21   -1    0    0  502  501  0.00000000000E+00  0.00000000000E+00  0.32365132475E+03  0.32365132475E+03  0.00000000000E+00 0. -1.
         21   -1    0    0  501  502 -0.00000000000E+00 -0.00000000000E+00 -0.15768954007E+03  0.15768954007E+03  0.00000000000E+00 0. -1.
      99926    2    1    2    0    0  0.00000000000E+00  0.00000000000E+00  0.16596178468E+03  0.48134086482E+03  0.45182487113E+03 0.  0.
      99925    2    3    3    0    0 -0.83330190115E+02 -0.61675405811E+02  0.14450587882E+03  0.31746395899E+03  0.26297079682E+03 0.  0.
         25    1    4    4    0    0 -0.75650767072E+02 -0.51580876949E+02  0.98045288108E+02  0.18342304121E+03  0.12509000000E+03 0.  0.
         25    1    4    4    0    0 -0.76794230425E+01 -0.10094528862E+02  0.46460590710E+02  0.13404091778E+03  0.12509000000E+03 0.  0.
         25    1    3    3    0    0  0.83330190115E+02  0.61675405811E+02  0.21455905858E+02  0.16387690583E+03  0.12509000000E+03 0.  0.
<mgrwt>
<rscale>  2 0.45182487E+03</rscale>
<asrwt>0</asrwt>
<pdfrwt beam="1">  1       21 0.47595783E-01 0.45182487E+03</pdfrwt>
<pdfrwt beam="2">  1       21 0.23189638E-01 0.45182487E+03</pdfrwt>
<totfact> 0.68308129E+04</totfact>
</mgrwt>
</event>
