<event>
 7    0  0.4766352E-002  0.4548224E+03  0.7546771E-02  0.1026294E+00
         21   -1    0    0  502  501  0.00000000000E+00  0.00000000000E+00  0.59186001878E+03  0.59186001878E+03  0.00000000000E+00 0.  1.
         21   -1    0    0  501  502 -0.00000000000E+00 -0.00000000000E+00 -0.87378530158E+02  0.87378530158E+02  0.00000000000E+00 0.  1.
      99926    2    1    2    0    0  0.00000000000E+00  0.00000000000E+00  0.50448148862E+03  0.67923854894E+03  0.45482242029E+03 0.  0.
      99925    2    3    3    0    0  0.25767405967E+02  0.10954011568E+03  0.33228566594E+03  0.43848575954E+03  0.26304562603E+03 0.  0.
         25    1    4    4    0    0  0.12544483451E+02  0.32240786236E+02  0.20957681733E+03  0.24650919420E+03  0.12509000000E+03 0.  0.
         25    1    3    3    0    0 -0.25767405967E+02 -0.10954011568E+03  0.17219582268E+03  0.24075278939E+03  0.12509000000E+03 0.  0.
         25    1    4    4    0    0  0.13222922517E+02  0.77299329448E+02  0.12270884862E+03  0.19197656535E+03  0.12509000000E+03 0.  0.
<mgrwt>
<rscale>  2 0.45482242E+03</rscale>
<asrwt>0</asrwt>
<pdfrwt beam="1">  1       21 0.87038236E-01 0.45482242E+03</pdfrwt>
<pdfrwt beam="2">  1       21 0.12849784E-01 0.45482242E+03</pdfrwt>
<totfact> 0.54120828E+04</totfact>
</mgrwt>
</event>
<event>
 7    0  0.4766352E-002  0.4427759E+03  0.7546771E-02  0.1029898E+00
         21   -1    0    0  502  501  0.00000000000E+00  0.00000000000E+00  0.22716567466E+03  0.22716567466E+03  0.00000000000E+00 0. -1.
         21   -1    0    0  501  502 -0.00000000000E+00 -0.00000000000E+00 -0.21575722224E+03  0.21575722224E+03  0.00000000000E+00 0. -1.
      99926    2    1    2    0    0  0.00000000000E+00 -0.71054273576E-14  0.11408452414E+02  0.44292289690E+03  0.44277594764E+03 0.  0.
      99925    2    3    3    0    0 -0.92307504318E+02  0.32765249406E+02  0.32801033425E+02  0.28261261169E+03  0.26305844136E+03 0.  0.
         25    1    3    3    0    0  0.92307504318E+02 -0.32765249406E+02 -0.21392581011E+02  0.16031028521E+03  0.12509000000E+03 0.  0.
         25    1    4    4    0    0 -0.76852090484E+02 -0.99866404008E+01  0.25271134516E+02  0.14930544243E+03  0.12509000000E+03 0.  0.
         25    1    4    4    0    0 -0.15455413834E+02  0.42751889807E+02  0.75298989086E+01  0.13330716926E+03  0.12509000000E+03 0.  0.
<mgrwt>
<rscale>  2 0.44277595E+03</rscale>
<asrwt>0</asrwt>
<pdfrwt beam="1">  1       21 0.33406717E-01 0.44277595E+03</pdfrwt>
<pdfrwt beam="2">  1       21 0.31729003E-01 0.44277595E+03</pdfrwt>
<totfact> 0.76647159E+04</totfact>
</mgrwt>
</event>
<event>
 7    0  0.4766352E-002  0.4499368E+03  0.7546771E-02  0.1027741E+00
         21   -1    0    0  502  501  0.00000000000E+00  0.00000000000E+00  0.77940906693E+02  0.77940906693E+02  0.00000000000E+00 0. -1.
         21   -1    0    0  501  502 -0.00000000000E+00 -0.00000000000E+00 -0.64934822515E+03  0.64934822515E+03  0.00000000000E+00 0. -1.
      99926    2    1    2    0    0  0.00000000000E+00  0.00000000000E+00 -0.57140731846E+03  0.72728913184E+03  0.44993683747E+03 0.  0.
      99925    2    3    3    0    0  0.34572783054E+02  0.87474061572E+02 -0.27459321525E+03  0.39174016561E+03  0.26308161227E+03 0.  0.
         25    1    3    3    0    0 -0.34572783054E+02 -0.87474061572E+02 -0.29681410320E+03  0.33554896623E+03  0.12509000000E+03 0.  0.
         25    1    4    4    0    0 -0.12278151149E+02  0.71918522291E+02 -0.13714662483E+03  0.19944856892E+03  0.12509000000E+03 0.  0.
         25    1    4    4    0    0  0.46850934203E+02  0.15555539282E+02 -0.13744659043E+03  0.19229159669E+03  0.12509000000E+03 0.  0.
<mgrwt>
<rscale>  2 0.44993684E+03</rscale>
<asrwt>0</asrwt>
<pdfrwt beam="1">  1       21 0.11461898E-01 0.44993684E+03</pdfrwt>
<pdfrwt beam="2">  1       21 0.95492384E-01 0.44993684E+03</pdfrwt>
<totfact> 0.53546714E+04</totfact>
</mgrwt>
</event>
<event>
 7    0  0.4766352E-002  0.4615711E+03  0.7546771E-02  0.1024327E+00
         21   -1    0    0  502  501  0.00000000000E+00  0.00000000000E+00  0.38506703737E+03  0.38506703737E+03  0.00000000000E+00 0.  1.
         21   -1    0    0  501  502 -0.00000000000E+00 -0.00000000000E+00 -0.13831867440E+03  0.13831867440E+03  0.00000000000E+00 0.  1.
      99926    2    1    2    0    0  0.00000000000E+00 -0.17763568394E-14  0.24674836297E+03  0.52338571178E+03  0.46157106567E+03 0.  0.
      99925    2    3    3    0    0 -0.42353286628E+02 -0.14630045271E+02  0.27969715035E+03  0.38648804999E+03  0.26293474050E+03 0.  0.
         25    1    4    4    0    0 -0.57776948422E+02 -0.22122204355E+02  0.16274712285E+03  0.21438680414E+03  0.12509000000E+03 0.  0.
         25    1    3    3    0    0  0.42353286628E+02  0.14630045271E+02 -0.32948787378E+02  0.13689766179E+03  0.12509000000E+03 0.  0.
         25    1    4    4    0    0  0.15423661794E+02  0.74921590847E+01  0.11695002749E+03  0.17210124585E+03  0.12509000000E+03 0.  0.
<mgrwt>
<rscale>  2 0.46157107E+03</rscale>
<asrwt>0</asrwt>
<pdfrwt beam="1">  1       21 0.56627505E-01 0.46157107E+03</pdfrwt>
<pdfrwt beam="2">  1       21 0.20340982E-01 0.46157107E+03</pdfrwt>
<totfact> 0.60443950E+04</totfact>
</mgrwt>
</event>
<event>
 7    0  0.4766352E-002  0.4498715E+03  0.7546771E-02  0.1027760E+00
         21   -1    0    0  502  501  0.00000000000E+00  0.00000000000E+00  0.29812126662E+03  0.29812126662E+03  0.00000000000E+00 0. -1.
         21   -1    0    0  501  502 -0.00000000000E+00 -0.00000000000E+00 -0.16971646204E+03  0.16971646204E+03  0.00000000000E+00 0. -1.
      99926    2    1    2    0    0 -0.71054273576E-14  0.00000000000E+00  0.12840480458E+03  0.46783772866E+03  0.44987147777E+03 0.  0.
      99925    2    3    3    0    0 -0.33836704705E+02 -0.10210563532E+03  0.93839299612E+02  0.29927686255E+03  0.26304057283E+03 0.  0.
         25    1    4    4    0    0 -0.56325455408E+02 -0.53079863090E+02  0.37057085088E+02  0.15169299406E+03  0.12509000000E+03 0.  0.
         25    1    4    4    0    0  0.22488750703E+02 -0.49025772228E+02  0.56782214523E+02  0.14758386848E+03  0.12509000000E+03 0.  0.
         25    1    3    3    0    0  0.33836704705E+02  0.10210563532E+03  0.34565504972E+02  0.16856086611E+03  0.12509000000E+03 0.  0.
<mgrwt>
<rscale>  2 0.44987148E+03</rscale>
<asrwt>0</asrwt>
<pdfrwt beam="1">  1       21 0.43841363E-01 0.44987148E+03</pdfrwt>
<pdfrwt beam="2">  1       21 0.24958303E-01 0.44987148E+03</pdfrwt>
<totfact> 0.70418723E+04</totfact>
</mgrwt>
</event>
<event>
 7    0  0.4766352E-002  0.4602950E+03  0.7546771E-02  0.1024696E+00
         21   -1    0    0  502  501  0.00000000000E+00  0.00000000000E+00  0.91603324989E+02  0.91603324989E+02  0.00000000000E+00 0. -1.
         21   -1    0    0  501  502 -0.00000000000E+00 -0.00000000000E+00 -0.57823097536E+03  0.57823097536E+03  0.00000000000E+00 0. -1.
      99926    2    1    2    0    0 -0.71054273576E-14 -0.14210854715E-13 -0.48662765037E+03  0.66983430035E+03  0.46029503562E+03 0.  0.
      99925    2    3    3    0    0 -0.61451422165E+02 -0.94656312078E+02 -0.35539640959E+03  0.45628046321E+03  0.26296227572E+03 0.  0.
         25    1    4    4    0    0 -0.26187563817E+02 -0.26298296187E+02 -0.11170333735E+03  0.17176301277E+03  0.12509000000E+03 0.  0.
         25    1    4    4    0    0 -0.35263858348E+02 -0.68358015891E+02 -0.24369307225E+03  0.28451745044E+03  0.12509000000E+03 0.  0.
         25    1    3    3    0    0  0.61451422165E+02  0.94656312078E+02 -0.13123124078E+03  0.21355383714E+03  0.12509000000E+03 0.  0.
<mgrwt>
<rscale>  2 0.46029504E+03</rscale>
<asrwt>0</asrwt>
<pdfrwt beam="1">  1       21 0.13471078E-01 0.46029504E+03</pdfrwt>
<pdfrwt beam="2">  1       21 0.85033964E-01 0.46029504E+03</pdfrwt>
<totfact> 0.52351834E+04</totfact>
</mgrwt>
</event>
<event>
 7    0  0.4766352E-002  0.4534389E+03  0.7546771E-02  0.1026701E+00
         21   -1    0    0  502  501  0.00000000000E+00  0.00000000000E+00  0.15780455937E+03  0.15780455937E+03  0.00000000000E+00 0. -1.
         21   -1    0    0  501  502 -0.00000000000E+00 -0.00000000000E+00 -0.32573013687E+03  0.32573013687E+03  0.00000000000E+00 0. -1.
      99926    2    1    2    0    0  0.00000000000E+00  0.00000000000E+00 -0.16792557750E+03  0.48353469624E+03  0.45343886345E+03 0.  0.
      99925    2    3    3    0    0 -0.91587875130E+02 -0.42619768135E+02 -0.54794146160E+02  0.28693608901E+03  0.26291659746E+03 0.  0.
         25    1    4    4    0    0 -0.63399636397E+02 -0.34182338406E+02 -0.64429133261E+02  0.15807139990E+03  0.12509000000E+03 0.  0.
         25    1    4    4    0    0 -0.28188238733E+02 -0.84374297292E+01  0.96349871013E+01  0.12886468911E+03  0.12509000000E+03 0.  0.
         25    1    3    3    0    0  0.91587875130E+02  0.42619768135E+02 -0.11313143134E+03  0.19659860723E+03  0.12509000000E+03 0.  0.
<mgrwt>
<rscale>  2 0.45343886E+03</rscale>
<asrwt>0</asrwt>
<pdfrwt beam="1">  1       21 0.23206553E-01 0.45343886E+03</pdfrwt>
<pdfrwt beam="2">  1       21 0.47901490E-01 0.45343886E+03</pdfrwt>
<totfact> 0.67273537E+04</totfact>
</mgrwt>
</event>
<event>
 7    0  0.4766352E-002  0.4192088E+03  0.7546771E-02  0.1037324E+00
         21   -1    0    0  502  501  0.00000000000E+00  0.00000000000E+00  0.72766648549E+02  0.72766648549E+02  0.00000000000E+00 0. -1.
         21   -1    0    0  501  502 -0.00000000000E+00 -0.00000000000E+00 -0.60376569373E+03  0.60376569373E+03  0.00000000000E+00 0. -1.
      99926    2    1    2    0    0  0.88817841970E-15 -0.88817841970E-15 -0.53099904518E+03  0.67653234228E+03  0.41920880736E+03 0.  0.
      99925    2    3    3    0    0  0.42517536140E+01 -0.45019102471E+01 -0.22628727186E+03  0.34708565843E+03  0.26310488455E+03 0.  0.
         25    1    4    4    0    0 -0.21847955811E+02  0.27255736976E+02 -0.93086428218E+02  0.15978986072E+03  0.12509000000E+03 0.  0.
         25    1    3    3    0    0 -0.42517536140E+01  0.45019102471E+01 -0.30471177331E+03  0.32944668385E+03  0.12509000000E+03 0.  0.
         25    1    4    4    0    0  0.26099709425E+02 -0.31757647223E+02 -0.13320084365E+03  0.18729579770E+03  0.12509000000E+03 0.  0.
<mgrwt>
<rscale>  2 0.41920881E+03</rscale>
<asrwt>0</asrwt>
<pdfrwt beam="1">  1       21 0.10700978E-01 0.41920881E+03</pdfrwt>
<pdfrwt beam="2">  1       21 0.88789070E-01 0.41920881E+03</pdfrwt>
<totfact> 0.72593190E+04</totfact>
</mgrwt>
</event>
<event>
 7    0  0.4766352E-002  0.4537990E+03  0.7546771E-02  0.1026595E+00
         21   -1    0    0  502  501  0.00000000000E+00  0.00000000000E+00  0.22404604477E+02  0.22404604477E+02  0.00000000000E+00 0.  1.
         21   -1    0    0  501  502 -0.00000000000E+00 -0.00000000000E+00 -0.22978924886E+04  0.22978924886E+04  0.00000000000E+00 0.  1.
      99926    2    1    2    0    0  0.00000000000E+00  0.00000000000E+00 -0.22754878841E+04  0.23202970931E+04  0.45379895257E+03 0.  0.
      99925    2    3    3    0    0  0.61135490178E+02  0.34244712742E+02 -0.98440589760E+03  0.10212780584E+04  0.26276158921E+03 0.  0.
         25    1    4    4    0    0  0.34576673011E+01  0.16468653976E+01 -0.56270621919E+03  0.57645508484E+03  0.12509000000E+03 0.  0.
         25    1    3    3    0    0 -0.61135490178E+02 -0.34244712742E+02 -0.12910819865E+04  0.12990190347E+04  0.12509000000E+03 0.  0.
         25    1    4    4    0    0  0.57677822877E+02  0.32597847345E+02 -0.42169967842E+03  0.44482297353E+03  0.12509000000E+03 0.  0.
<mgrwt>
<rscale>  2 0.45379895E+03</rscale>
<asrwt>0</asrwt>
<pdfrwt beam="1">  1       21 0.32947944E-02 0.45379895E+03</pdfrwt>
<pdfrwt beam="2">  1       21 0.33792541E+00 0.45379895E+03</pdfrwt>
<totfact> 0.92358117E+03</totfact>
</mgrwt>
</event>
<event>
 7    0  0.4766352E-002  0.4560939E+03  0.7546771E-02  0.1025920E+00
         21   -1    0    0  502  501  0.00000000000E+00  0.00000000000E+00  0.18501772757E+03  0.18501772757E+03  0.00000000000E+00 0. -1.
         21   -1    0    0  501  502 -0.00000000000E+00 -0.00000000000E+00 -0.28108340385E+03  0.28108340385E+03  0.00000000000E+00 0. -1.
      99926    2    1    2    0    0  0.00000000000E+00  0.00000000000E+00 -0.96065676280E+02  0.46610113142E+03  0.45609390540E+03 0.  0.
      99925    2    3    3    0    0  0.10729217939E+03  0.38722243042E+02 -0.55327257646E+02  0.29198005079E+03  0.26302133138E+03 0.  0.
         25    1    4    4    0    0  0.65959004620E+02  0.34228990280E+02  0.80429313149E+01  0.14572031742E+03  0.12509000000E+03 0.  0.
         25    1    3    3    0    0 -0.10729217939E+03 -0.38722243042E+02 -0.40738418634E+02  0.17412108062E+03  0.12509000000E+03 0.  0.
         25    1    4    4    0    0  0.41333174766E+02  0.44932527623E+01 -0.63370188961E+02  0.14625973337E+03  0.12509000000E+03 0.  0.
<mgrwt>
<rscale>  2 0.45609391E+03</rscale>
<asrwt>0</asrwt>
<pdfrwt beam="1">  1       21 0.27208490E-01 0.45609391E+03</pdfrwt>
<pdfrwt beam="2">  1       21 0.41335794E-01 0.45609391E+03</pdfrwt>
<totfact> 0.67142904E+04</totfact>
</mgrwt>
</event>
<event>
 7    0  0.4766352E-002  0.4240114E+03  0.7546771E-02  0.1035769E+00
         21   -1    0    0  502  501  0.00000000000E+00  0.00000000000E+00  0.61638662771E+03  0.61638662771E+03  0.00000000000E+00 0. -1.
         21   -1    0    0  501  502 -0.00000000000E+00 -0.00000000000E+00 -0.72919191246E+02  0.72919191246E+02  0.00000000000E+00 0. -1.
      99926    2    1    2    0    0  0.00000000000E+00  0.00000000000E+00  0.54346743647E+03  0.68930581896E+03  0.42401138847E+03 0.  0.
      99925    2    3    3    0    0  0.43411598203E+02  0.41412760407E+02  0.44037260173E+03  0.51646011716E+03  0.26306546841E+03 0.  0.
         25    1    3    3    0    0 -0.43411598203E+02 -0.41412760407E+02  0.10309483474E+03  0.17284570180E+03  0.12509000000E+03 0.  0.
         25    1    4    4    0    0  0.15044821334E+02  0.16136947573E+01  0.14569844339E+03  0.19262527136E+03  0.12509000000E+03 0.  0.
         25    1    4    4    0    0  0.28366776869E+02  0.39799065650E+02  0.29467415835E+03  0.32383484580E+03  0.12509000000E+03 0.  0.
<mgrwt>
<rscale>  2 0.42401139E+03</rscale>
<asrwt>0</asrwt>
<pdfrwt beam="1">  1       21 0.90645090E-01 0.42401139E+03</pdfrwt>
<pdfrwt beam="2">  1       21 0.10723411E-01 0.42401139E+03</pdfrwt>
<totfact> 0.68795407E+04</totfact>
</mgrwt>
</event>
<event>
 7    0  0.4766352E-002  0.4501596E+03  0.7546771E-02  0.1027674E+00
         21   -1    0    0  502  501  0.00000000000E+00  0.00000000000E+00  0.62409886166E+03  0.62409886166E+03  0.00000000000E+00 0. -1.
         21   -1    0    0  501  502 -0.00000000000E+00 -0.00000000000E+00 -0.81174518403E+02  0.81174518403E+02  0.00000000000E+00 0. -1.
      99926    2    1    2    0    0  0.00000000000E+00  0.00000000000E+00  0.54292434325E+03  0.70527338006E+03  0.45015963627E+03 0.  0.
      99925    2    3    3    0    0 -0.38098310437E+02  0.20438356916E+02  0.18655376547E+03  0.32511985252E+03  0.26273827928E+03 0.  0.
         25    1    4    4    0    0 -0.55198648541E+02  0.27081803831E+02  0.88269084999E+02  0.16498258807E+03  0.12509000000E+03 0.  0.
         25    1    3    3    0    0  0.38098310437E+02 -0.20438356916E+02  0.35637057779E+03  0.38015352754E+03  0.12509000000E+03 0.  0.
         25    1    4    4    0    0  0.17100338104E+02 -0.66434469156E+01  0.98284680468E+02  0.16013726445E+03  0.12509000000E+03 0.  0.
<mgrwt>
<rscale>  2 0.45015964E+03</rscale>
<asrwt>0</asrwt>
<pdfrwt beam="1">  1       21 0.91779242E-01 0.45015964E+03</pdfrwt>
<pdfrwt beam="2">  1       21 0.11937429E-01 0.45015964E+03</pdfrwt>
<totfact> 0.54670229E+04</totfact>
</mgrwt>
</event>
<event>
 7    0  0.4766352E-002  0.4530399E+03  0.7546771E-02  0.1026819E+00
         21   -1    0    0  502  501  0.00000000000E+00  0.00000000000E+00  0.27613920042E+03  0.27613920042E+03  0.00000000000E+00 0.  1.
         21   -1    0    0  501  502 -0.00000000000E+00 -0.00000000000E+00 -0.18581672387E+03  0.18581672387E+03  0.00000000000E+00 0.  1.
      99926    2    1    2    0    0  0.00000000000E+00 -0.35527136788E-14  0.90322476550E+02  0.46195592429E+03  0.45303987266E+03 0.  0.
      99925    2    3    3    0    0  0.37773903140E+02  0.26424180554E+02  0.16019320192E+03  0.31144170091E+03  0.26307597010E+03 0.  0.
         25    1    4    4    0    0  0.38215857263E+02  0.42125262269E+02  0.10890484666E+03  0.17533614343E+03  0.12509000000E+03 0.  0.
         25    1    3    3    0    0 -0.37773903140E+02 -0.26424180554E+02 -0.69870725375E+02  0.15051422338E+03  0.12509000000E+03 0.  0.
         25    1    4    4    0    0 -0.44195412317E+00 -0.15701081715E+02  0.51288355264E+02  0.13610555748E+03  0.12509000000E+03 0.  0.
<mgrwt>
<rscale>  2 0.45303987E+03</rscale>
<asrwt>0</asrwt>
<pdfrwt beam="1">  1       21 0.40608706E-01 0.45303987E+03</pdfrwt>
<pdfrwt beam="2">  1       21 0.27325989E-01 0.45303987E+03</pdfrwt>
<totfact> 0.69107331E+04</totfact>
</mgrwt>
</event>
<event>
 7    0  0.4766352E-002  0.4516024E+03  0.7546771E-02  0.1027245E+00
         21   -1    0    0  502  501  0.00000000000E+00  0.00000000000E+00  0.12553254223E+03  0.12553254223E+03  0.00000000000E+00 0. -1.
         21   -1    0    0  501  502 -0.00000000000E+00 -0.00000000000E+00 -0.40615900971E+03  0.40615900971E+03  0.00000000000E+00 0. -1.
      99926    2    1    2    0    0  0.35527136788E-14 -0.14210854715E-13 -0.28062646748E+03  0.53169155194E+03  0.45160236066E+03 0.  0.
      99925    2    3    3    0    0 -0.24405710946E+02 -0.89907758357E+02 -0.10834298405E+03  0.29929501474E+03  0.26298338334E+03 0.  0.
         25    1    4    4    0    0 -0.27964789507E+02 -0.83373442238E+02 -0.70631281291E+02  0.16843231970E+03  0.12509000000E+03 0.  0.
         25    1    3    3    0    0  0.24405710946E+02  0.89907758357E+02 -0.17228348343E+03  0.23239653720E+03  0.12509000000E+03 0.  0.
         25    1    4    4    0    0  0.35590785607E+01 -0.65343161191E+01 -0.37711702761E+02  0.13086269504E+03  0.12509000000E+03 0.  0.
<mgrwt>
<rscale>  2 0.45160236E+03</rscale>
<asrwt>0</asrwt>
<pdfrwt beam="1">  1       21 0.18460668E-01 0.45160236E+03</pdfrwt>
<pdfrwt beam="2">  1       21 0.59729264E-01 0.45160236E+03</pdfrwt>
<totfact> 0.64818533E+04</totfact>
</mgrwt>
</event>
<event>
 7    0  0.4766352E-002  0.4558604E+03  0.7546771E-02  0.1025989E+00
         21   -1    0    0  502  501  0.00000000000E+00  0.00000000000E+00  0.56708872040E+02  0.56708872040E+02  0.00000000000E+00 0.  1.
         21   -1    0    0  501  502 -0.00000000000E+00 -0.00000000000E+00 -0.91612066437E+03  0.91612066437E+03  0.00000000000E+00 0.  1.
      99926    2    1    2    0    0  0.00000000000E+00  0.00000000000E+00 -0.85941179233E+03  0.97282953641E+03  0.45586037130E+03 0.  0.
      99925    2    3    3    0    0  0.24024476415E+02  0.45194934185E+02 -0.75764496492E+03  0.80364397910E+03  0.26305511728E+03 0.  0.
         25    1    4    4    0    0 -0.11542857276E+02  0.69817086937E+01 -0.27666017389E+03  0.30392489487E+03  0.12509000000E+03 0.  0.
         25    1    3    3    0    0 -0.24024476415E+02 -0.45194934185E+02 -0.10176682741E+03  0.16918555732E+03  0.12509000000E+03 0.  0.
         25    1    4    4    0    0  0.35567333691E+02  0.38213225492E+02 -0.48098479103E+03  0.49971908422E+03  0.12509000000E+03 0.  0.
<mgrwt>
<rscale>  2 0.45586037E+03</rscale>
<asrwt>0</asrwt>
<pdfrwt beam="1">  1       21 0.83395398E-02 0.45586037E+03</pdfrwt>
<pdfrwt beam="2">  1       21 0.13472363E+00 0.45586037E+03</pdfrwt>
<totfact> 0.39960471E+04</totfact>
</mgrwt>
</event>
<event>
 7    0  0.4766352E-002  0.4539825E+03  0.7546771E-02  0.1026541E+00
         21   -1    0    0  502  501  0.00000000000E+00  0.00000000000E+00  0.24291616187E+03  0.24291616187E+03  0.00000000000E+00 0.  1.
         21   -1    0    0  501  502 -0.00000000000E+00 -0.00000000000E+00 -0.21211036556E+03  0.21211036556E+03  0.00000000000E+00 0.  1.
      99926    2    1    2    0    0 -0.35527136788E-14  0.00000000000E+00  0.30805796305E+02  0.45502652743E+03  0.45398253664E+03 0.  0.
      99925    2    3    3    0    0 -0.28450529560E+02 -0.90781229588E+02 -0.40275924649E+02  0.28254237328E+03  0.26297790461E+03 0.  0.
         25    1    4    4    0    0  0.23091549278E+02 -0.51130762492E+02 -0.34847696009E+02  0.14145474378E+03  0.12509000000E+03 0.  0.
         25    1    3    3    0    0  0.28450529560E+02  0.90781229588E+02  0.71081720954E+02  0.17248415415E+03  0.12509000000E+03 0.  0.
         25    1    4    4    0    0 -0.51542078837E+02 -0.39650467095E+02 -0.54282286406E+01  0.14108762950E+03  0.12509000000E+03 0.  0.
<mgrwt>
<rscale>  2 0.45398254E+03</rscale>
<asrwt>0</asrwt>
<pdfrwt beam="1">  1       21 0.35722965E-01 0.45398254E+03</pdfrwt>
<pdfrwt beam="2">  1       21 0.31192701E-01 0.45398254E+03</pdfrwt>
<totfact> 0.69103171E+04</totfact>
</mgrwt>
</event>
<event>
 7    0  0.4766352E-002  0.4513990E+03  0.7546771E-02  0.1027306E+00
         21   -1    0    0  502  501  0.00000000000E+00  0.00000000000E+00  0.17181167593E+04  0.17181167593E+04  0.00000000000E+00 0.  1.
         21   -1    0    0  501  502 -0.00000000000E+00 -0.00000000000E+00 -0.29648889629E+02  0.29648889629E+02  0.00000000000E+00 0.  1.
      99926    2    1    2    0    0  0.17763568394E-14  0.00000000000E+00  0.16884678697E+04  0.17477656489E+04  0.45139895510E+03 0.  0.
      99925    2    3    3    0    0  0.13420036246E+02  0.95735481966E+02  0.12672057958E+04  0.12978160708E+04  0.26300312703E+03 0.  0.
         25    1    3    3    0    0 -0.13420036246E+02 -0.95735481966E+02  0.42126207390E+03  0.44994957816E+03  0.12509000000E+03 0.  0.
         25    1    4    4    0    0  0.29434341100E+02  0.75164931064E+02  0.57795850823E+03  0.59682467496E+03  0.12509000000E+03 0.  0.
         25    1    4    4    0    0 -0.16014304855E+02  0.20570550902E+02  0.68924728756E+03  0.70099139583E+03  0.12509000000E+03 0.  0.
<mgrwt>
<rscale>  2 0.45139896E+03</rscale>
<asrwt>0</asrwt>
<pdfrwt beam="1">  1       21 0.25266416E+00 0.45139896E+03</pdfrwt>
<pdfrwt beam="2">  1       21 0.43601320E-02 0.45139896E+03</pdfrwt>
<totfact> 0.18805350E+04</totfact>
</mgrwt>
</event>
<event>
 7    0  0.4766352E-002  0.4534176E+03  0.7546771E-02  0.1026708E+00
         21   -1    0    0  502  501  0.00000000000E+00  0.00000000000E+00  0.24289258544E+03  0.24289258544E+03  0.00000000000E+00 0. -1.
         21   -1    0    0  501  502 -0.00000000000E+00 -0.00000000000E+00 -0.21160330143E+03  0.21160330143E+03  0.00000000000E+00 0. -1.
      99926    2    1    2    0    0  0.00000000000E+00  0.00000000000E+00  0.31289284012E+02  0.45449588687E+03  0.45341756901E+03 0.  0.
      99925    2    3    3    0    0  0.75598037973E+02  0.81150950138E+02  0.60370120310E+01  0.28542275064E+03  0.26292424958E+03 0.  0.
         25    1    4    4    0    0  0.25718865447E+02  0.93811399080E+01  0.28488222206E+02  0.13118137341E+03  0.12509000000E+03 0.  0.
         25    1    4    4    0    0  0.49879172526E+02  0.71769810230E+02 -0.22451210175E+02  0.15424137723E+03  0.12509000000E+03 0.  0.
         25    1    3    3    0    0 -0.75598037973E+02 -0.81150950138E+02  0.25252271981E+02  0.16907313623E+03  0.12509000000E+03 0.  0.
<mgrwt>
<rscale>  2 0.45341757E+03</rscale>
<asrwt>0</asrwt>
<pdfrwt beam="1">  1       21 0.35719498E-01 0.45341757E+03</pdfrwt>
<pdfrwt beam="2">  1       21 0.31118133E-01 0.45341757E+03</pdfrwt>
<totfact> 0.69455577E+04</totfact>
</mgrwt>
</event>
<event>
 7    0  0.4766352E-002  0.4564268E+03  0.7546771E-02  0.1025823E+00
         21   -1    0    0  502  501  0.00000000000E+00  0.00000000000E+00  0.84883078272E+03  0.84883078272E+03  0.00000000000E+00 0. -1.
         21   -1    0    0  501  502 -0.00000000000E+00 -0.00000000000E+00 -0.61356588667E+02  0.61356588667E+02  0.00000000000E+00 0. -1.
      99926    2    1    2    0    0 -0.71054273576E-14 -0.14210854715E-13  0.78747419406E+03  0.91018737139E+03  0.45642682298E+03 0.  0.
      99925    2    3    3    0    0  0.58242127488E+02  0.91498776454E+02  0.42224482769E+03  0.50918341921E+03  0.26308342476E+03 0.  0.
         25    1    3    3    0    0 -0.58242127488E+02 -0.91498776454E+02  0.36522936637E+03  0.40100395218E+03  0.12509000000E+03 0.  0.
         25    1    4    4    0    0  0.47237697418E+02  0.59911540266E+02  0.16152100903E+03  0.21807644800E+03  0.12509000000E+03 0.  0.
         25    1    4    4    0    0  0.11004430070E+02  0.31587236188E+02  0.26072381866E+03  0.29110697121E+03  0.12509000000E+03 0.  0.
<mgrwt>
<rscale>  2 0.45642682E+03</rscale>
<asrwt>0</asrwt>
<pdfrwt beam="1">  1       21 0.12482805E+00 0.45642682E+03</pdfrwt>
<pdfrwt beam="2">  1       21 0.90230283E-02 0.45642682E+03</pdfrwt>
<totfact> 0.42321505E+04</totfact>
</mgrwt>
</event>
<event>
 7    0  0.4766352E-002  0.4606003E+03  0.7546771E-02  0.1024607E+00
         21   -1    0    0  502  501  0.00000000000E+00  0.00000000000E+00  0.54765409919E+02  0.54765409919E+02  0.00000000000E+00 0.  1.
         21   -1    0    0  501  502 -0.00000000000E+00 -0.00000000000E+00 -0.96846104649E+03  0.96846104649E+03  0.00000000000E+00 0.  1.
      99926    2    1    2    0    0  0.00000000000E+00  0.14210854715E-13 -0.91369563657E+03  0.10232264564E+04  0.46060033088E+03 0.  0.
      99925    2    3    3    0    0 -0.47578936466E+02 -0.93386963043E+02 -0.69418443907E+03  0.74969847980E+03  0.26300360282E+03 0.  0.
         25    1    4    4    0    0  0.16379904984E+02 -0.51024235322E+02 -0.31704469655E+03  0.34501684247E+03  0.12509000000E+03 0.  0.
         25    1    4    4    0    0 -0.63958841450E+02 -0.42362727721E+02 -0.37713974253E+03  0.40468163733E+03  0.12509000000E+03 0.  0.
         25    1    3    3    0    0  0.47578936466E+02  0.93386963043E+02 -0.21951119749E+03  0.27352797661E+03  0.12509000000E+03 0.  0.
<mgrwt>
<rscale>  2 0.46060033E+03</rscale>
<asrwt>0</asrwt>
<pdfrwt beam="1">  1       21 0.80537377E-02 0.46060033E+03</pdfrwt>
<pdfrwt beam="2">  1       21 0.14242072E+00 0.46060033E+03</pdfrwt>
<totfact> 0.36646595E+04</totfact>
</mgrwt>
</event>
<event>
 7    0  0.4766352E-002  0.4565369E+03  0.7546771E-02  0.1025790E+00
         21   -1    0    0  502  501  0.00000000000E+00  0.00000000000E+00  0.15093651004E+03  0.15093651004E+03  0.00000000000E+00 0. -1.
         21   -1    0    0  501  502 -0.00000000000E+00 -0.00000000000E+00 -0.34522123654E+03  0.34522123654E+03  0.00000000000E+00 0. -1.
      99926    2    1    2    0    0  0.00000000000E+00  0.17763568394E-14 -0.19428472650E+03  0.49615774658E+03  0.45653691476E+03 0.  0.
      99925    2    3    3    0    0 -0.57614830894E+02 -0.14434280746E+02 -0.13443949574E+02  0.26838875857E+03  0.26138853982E+03 0.  0.
         25    1    3    3    0    0  0.57614830894E+02  0.14434280746E+02 -0.18084077693E+03  0.22776898801E+03  0.12509000000E+03 0.  0.
         25    1    4    4    0    0 -0.16154352815E+02  0.27173312359E+02  0.40837127303E+01  0.12908732250E+03  0.12509000000E+03 0.  0.
         25    1    4    4    0    0 -0.41460478079E+02 -0.41607593105E+02 -0.17527662304E+02  0.13930143607E+03  0.12509000000E+03 0.  0.
<mgrwt>
<rscale>  2 0.45653691E+03</rscale>
<asrwt>0</asrwt>
<pdfrwt beam="1">  1       21 0.22196546E-01 0.45653691E+03</pdfrwt>
<pdfrwt beam="2">  1       21 0.50767828E-01 0.45653691E+03</pdfrwt>
<totfact> 0.64747848E+04</totfact>
</mgrwt>
</event>
<event>
 7    0  0.4766352E-002  0.4504497E+03  0.7546771E-02  0.1027588E+00
         21   -1    0    0  502  501  0.00000000000E+00  0.00000000000E+00  0.60489161775E+02  0.60489161775E+02  0.00000000000E+00 0.  1.
         21   -1    0    0  501  502 -0.00000000000E+00 -0.00000000000E+00 -0.83860043840E+03  0.83860043840E+03  0.00000000000E+00 0.  1.
      99926    2    1    2    0    0  0.00000000000E+00  0.00000000000E+00 -0.77811127662E+03  0.89908960017E+03  0.45044972009E+03 0.  0.
      99925    2    3    3    0    0 -0.79806729562E+02 -0.71926175908E+02 -0.52608546550E+03  0.59791356122E+03  0.26304414234E+03 0.  0.
         25    1    3    3    0    0  0.79806729562E+02  0.71926175908E+02 -0.25202581113E+03  0.30117603895E+03  0.12509000000E+03 0.  0.
         25    1    4    4    0    0 -0.33937979743E+02  0.48823524334E+01 -0.22072605409E+03  0.25601391152E+03  0.12509000000E+03 0.  0.
         25    1    4    4    0    0 -0.45868749820E+02 -0.76808528342E+02 -0.30535941140E+03  0.34189964970E+03  0.12509000000E+03 0.  0.
<mgrwt>
<rscale>  2 0.45044972E+03</rscale>
<asrwt>0</asrwt>
<pdfrwt beam="1">  1       21 0.88954658E-02 0.45044972E+03</pdfrwt>
<pdfrwt beam="2">  1       21 0.12332358E+00 0.45044972E+03</pdfrwt>
<totfact> 0.44849657E+04</totfact>
</mgrwt>
</event>
<event>
 7    0  0.4766352E-002  0.4553331E+03  0.7546771E-02  0.1026144E+00
         21   -1    0    0  502  501  0.00000000000E+00  0.00000000000E+00  0.18342868096E+03  0.18342868096E+03  0.00000000000E+00 0.  1.
         21   -1    0    0  501  502 -0.00000000000E+00 -0.00000000000E+00 -0.28257330167E+03  0.28257330167E+03  0.00000000000E+00 0.  1.
      99926    2    1    2    0    0  0.00000000000E+00 -0.35527136788E-14 -0.99144620713E+02  0.46600198262E+03  0.45533305612E+03 0.  0.
      99925    2    3    3    0    0  0.29384131061E+02  0.22247064952E+02 -0.17225460809E+03  0.31649968360E+03  0.26294874150E+03 0.  0.
         25    1    4    4    0    0 -0.16544688514E+02 -0.40261593861E+01 -0.10849003699E+03  0.16645579865E+03  0.12509000000E+03 0.  0.
         25    1    3    3    0    0 -0.29384131061E+02 -0.22247064952E+02  0.73109987381E+02  0.14950229902E+03  0.12509000000E+03 0.  0.
         25    1    4    4    0    0  0.45928819575E+02  0.26273224338E+02 -0.63764571103E+02  0.15004388496E+03  0.12509000000E+03 0.  0.
<mgrwt>
<rscale>  2 0.45533306E+03</rscale>
<asrwt>0</asrwt>
<pdfrwt beam="1">  1       21 0.26974806E-01 0.45533306E+03</pdfrwt>
<pdfrwt beam="2">  1       21 0.41554897E-01 0.45533306E+03</pdfrwt>
<totfact> 0.67556097E+04</totfact>
</mgrwt>
</event>
<event>
 7    0  0.4766352E-002  0.4466791E+03  0.7546771E-02  0.1028717E+00
         21   -1    0    0  502  501  0.00000000000E+00  0.00000000000E+00  0.49199842470E+02  0.49199842470E+02  0.00000000000E+00 0.  1.
         21   -1    0    0  501  502 -0.00000000000E+00 -0.00000000000E+00 -0.10138355812E+04  0.10138355812E+04  0.00000000000E+00 0.  1.
      99926    2    1    2    0    0  0.00000000000E+00  0.35527136788E-14 -0.96463573868E+03  0.10630354236E+04  0.44667908339E+03 0.  0.
      99925    2    3    3    0    0  0.80915931544E+02  0.25150064431E+02 -0.46407007511E+03  0.54016507127E+03  0.26312992208E+03 0.  0.
         25    1    3    3    0    0 -0.80915931544E+02 -0.25150064431E+02 -0.50056566357E+03  0.52287035235E+03  0.12509000000E+03 0.  0.
         25    1    4    4    0    0  0.17539310028E+02 -0.78627860766E+01 -0.16265088717E+03  0.20608801517E+03  0.12509000000E+03 0.  0.
         25    1    4    4    0    0  0.63376621516E+02  0.33012850508E+02 -0.30141918794E+03  0.33407705610E+03  0.12509000000E+03 0.  0.
<mgrwt>
<rscale>  2 0.44667908E+03</rscale>
<asrwt>0</asrwt>
<pdfrwt beam="1">  1       21 0.72352717E-02 0.44667908E+03</pdfrwt>
<pdfrwt beam="2">  1       21 0.14909345E+00 0.44667908E+03</pdfrwt>
<totfact> 0.39292928E+04</totfact>
</mgrwt>
</event>
<event>
 7    0  0.4766352E-002  0.4612664E+03  0.7546771E-02  0.1024415E+00
         21   -1    0    0  502  501  0.00000000000E+00  0.00000000000E+00  0.24094029292E+03  0.24094029292E+03  0.00000000000E+00 0. -1.
         21   -1    0    0  501  502 -0.00000000000E+00 -0.00000000000E+00 -0.22076701150E+03  0.22076701150E+03  0.00000000000E+00 0. -1.
      99926    2    1    2    0    0  0.35527136788E-14  0.14210854715E-13  0.20173281416E+02  0.46170730443E+03  0.46126638039E+03 0.  0.
      99925    2    3    3    0    0 -0.27684850023E+02 -0.11538332096E+03  0.20852345166E+02  0.28928998829E+03  0.26300972482E+03 0.  0.
         25    1    4    4    0    0  0.19397304422E+02 -0.37762187271E+02 -0.68083234282E+01  0.13227282251E+03  0.12509000000E+03 0.  0.
         25    1    3    3    0    0  0.27684850023E+02  0.11538332096E+03 -0.67906374968E+00  0.17241731614E+03  0.12509000000E+03 0.  0.
         25    1    4    4    0    0 -0.47082154446E+02 -0.77621133689E+02  0.27660668594E+02  0.15701716578E+03  0.12509000000E+03 0.  0.
<mgrwt>
<rscale>  2 0.46126638E+03</rscale>
<asrwt>0</asrwt>
<pdfrwt beam="1">  1       21 0.35432396E-01 0.46126638E+03</pdfrwt>
<pdfrwt beam="2">  1       21 0.32465737E-01 0.46126638E+03</pdfrwt>
<totfact> 0.64758304E+04</totfact>
</mgrwt>
</event>
<event>
 7    0  0.4766352E-002  0.4527233E+03  0.7546771E-02  0.1026913E+00
         21   -1    0    0  502  501  0.00000000000E+00  0.00000000000E+00  0.48597407767E+03  0.48597407767E+03  0.00000000000E+00 0.  1.
         21   -1    0    0  501  502 -0.00000000000E+00 -0.00000000000E+00 -0.10543688915E+03  0.10543688915E+03  0.00000000000E+00 0.  1.
      99926    2    1    2    0    0  0.00000000000E+00  0.00000000000E+00  0.38053718853E+03  0.59141096682E+03  0.45272329278E+03 0.  0.
      99925    2    3    3    0    0 -0.49378958796E+02  0.19528103951E+02  0.11241892628E+03  0.29082064917E+03  0.26290493830E+03 0.  0.
         25    1    4    4    0    0 -0.62233769582E+02  0.18824215326E+02  0.74636976932E+02  0.15951670629E+03  0.12509000000E+03 0.  0.
         25    1    3    3    0    0  0.49378958796E+02 -0.19528103951E+02  0.26811826225E+03  0.30059031765E+03  0.12509000000E+03 0.  0.
         25    1    4    4    0    0  0.12854810785E+02  0.70388862450E+00  0.37781949344E+02  0.13130394288E+03  0.12509000000E+03 0.  0.
<mgrwt>
<rscale>  2 0.45272329E+03</rscale>
<asrwt>0</asrwt>
<pdfrwt beam="1">  1       21 0.71466775E-01 0.45272329E+03</pdfrwt>
<pdfrwt beam="2">  1       21 0.15505425E-01 0.45272329E+03</pdfrwt>
<totfact> 0.60287542E+04</totfact>
</mgrwt>
</event>
<event>
 7    0  0.4766352E-002  0.4495858E+03  0.7546771E-02  0.1027846E+00
         21   -1    0    0  502  501  0.00000000000E+00  0.00000000000E+00  0.30225673459E+02  0.30225673459E+02  0.00000000000E+00 0.  1.
         21   -1    0    0  501  502 -0.00000000000E+00 -0.00000000000E+00 -0.16718187134E+04  0.16718187134E+04  0.00000000000E+00 0.  1.
      99926    2    1    2    0    0 -0.14210854715E-13  0.35527136788E-14 -0.16415930399E+04  0.17020443869E+04  0.44958579388E+03 0.  0.
      99925    2    3    3    0    0  0.10532227478E+03  0.23142855131E+02 -0.10616389218E+04  0.10990330598E+04  0.26299827557E+03 0.  0.
         25    1    3    3    0    0 -0.10532227478E+03 -0.23142855131E+02 -0.57995411810E+03  0.60301132702E+03  0.12509000000E+03 0.  0.
         25    1    4    4    0    0  0.65574337276E+02  0.50398240448E+02 -0.58283587536E+03  0.60181819684E+03  0.12509000000E+03 0.  0.
         25    1    4    4    0    0  0.39747937506E+02 -0.27255385318E+02 -0.47880304648E+03  0.49721486300E+03  0.12509000000E+03 0.  0.
<mgrwt>
<rscale>  2 0.44958579E+03</rscale>
<asrwt>0</asrwt>
<pdfrwt beam="1">  1       21 0.44449524E-02 0.44958579E+03</pdfrwt>
<pdfrwt beam="2">  1       21 0.24585567E+00 0.44958579E+03</pdfrwt>
<totfact> 0.20048814E+04</totfact>
</mgrwt>
</event>
<event>
 7    0  0.4766352E-002  0.4468528E+03  0.7546771E-02  0.1028665E+00
         21   -1    0    0  502  501  0.00000000000E+00  0.00000000000E+00  0.11820891657E+04  0.11820891657E+04  0.00000000000E+00 0.  1.
         21   -1    0    0  501  502 -0.00000000000E+00 -0.00000000000E+00 -0.42229774393E+02  0.42229774393E+02  0.00000000000E+00 0.  1.
      99926    2    1    2    0    0  0.00000000000E+00  0.00000000000E+00  0.11398593913E+04  0.12243189401E+04  0.44685281147E+03 0.  0.
      99925    2    3    3    0    0 -0.76215506371E+02 -0.71175622645E+02  0.75881352281E+03  0.80992995053E+03  0.26327512169E+03 0.  0.
         25    1    4    4    0    0 -0.31941356693E+02 -0.76272137070E+02  0.38000788481E+03  0.40852318145E+03  0.12509000000E+03 0.  0.
         25    1    3    3    0    0  0.76215506371E+02  0.71175622645E+02  0.38104586852E+03  0.41438898958E+03  0.12509000000E+03 0.  0.
         25    1    4    4    0    0 -0.44274149678E+02  0.50965144254E+01  0.37880563800E+03  0.40140676909E+03  0.12509000000E+03 0.  0.
<mgrwt>
<rscale>  2 0.44685281E+03</rscale>
<asrwt>0</asrwt>
<pdfrwt beam="1">  1       21 0.17383662E+00 0.44685281E+03</pdfrwt>
<pdfrwt beam="2">  1       21 0.62102617E-02 0.44685281E+03</pdfrwt>
<totfact> 0.33467426E+04</totfact>
</mgrwt>
</event>
<event>
 7    0  0.4766352E-002  0.4213244E+03  0.7546771E-02  0.1036636E+00
         21   -1    0    0  502  501  0.00000000000E+00  0.00000000000E+00  0.34946755000E+03  0.34946755000E+03  0.00000000000E+00 0. -1.
         21   -1    0    0  501  502 -0.00000000000E+00 -0.00000000000E+00 -0.12698905496E+03  0.12698905496E+03  0.00000000000E+00 0. -1.
      99926    2    1    2    0    0 -0.17763568394E-14  0.00000000000E+00  0.22247849505E+03  0.47645660496E+03  0.42132435920E+03 0.  0.
      99925    2    3    3    0    0  0.15202132254E+02  0.66969979220E+02  0.10436930782E+03  0.29121791800E+03  0.26305672469E+03 0.  0.
         25    1    4    4    0    0 -0.13816005582E+02  0.28680141492E+02  0.88004973050E+02  0.15622360868E+03  0.12509000000E+03 0.  0.
         25    1    3    3    0    0 -0.15202132254E+02 -0.66969979220E+02  0.11810918722E+03  0.18523868696E+03  0.12509000000E+03 0.  0.
         25    1    4    4    0    0  0.29018137836E+02  0.38289837728E+02  0.16364334772E+02  0.13499430932E+03  0.12509000000E+03 0.  0.
<mgrwt>
<rscale>  2 0.42132436E+03</rscale>
<asrwt>0</asrwt>
<pdfrwt beam="1">  1       21 0.51392286E-01 0.42132436E+03</pdfrwt>
<pdfrwt beam="2">  1       21 0.18674861E-01 0.42132436E+03</pdfrwt>
<totfact> 0.88306748E+04</totfact>
</mgrwt>
</event>
<event>
 7    0  0.4766352E-002  0.4567433E+03  0.7546771E-02  0.1025730E+00
         21   -1    0    0  502  501  0.00000000000E+00  0.00000000000E+00  0.69157486708E+02  0.69157486708E+02  0.00000000000E+00 0.  1.
         21   -1    0    0  501  502 -0.00000000000E+00 -0.00000000000E+00 -0.75412825941E+03  0.75412825941E+03  0.00000000000E+00 0.  1.
      99926    2    1    2    0    0  0.00000000000E+00  0.00000000000E+00 -0.68497077270E+03  0.82328574612E+03  0.45674331993E+03 0.  0.
      99925    2    3    3    0    0 -0.31472311998E+02 -0.59700969750E+02 -0.59769850354E+03  0.65649645007E+03  0.26303873404E+03 0.  0.
         25    1    4    4    0    0 -0.25416332760E+01 -0.55065882979E+02 -0.23695279816E+03  0.27355593217E+03  0.12509000000E+03 0.  0.
         25    1    4    4    0    0 -0.28930678722E+02 -0.46350867710E+01 -0.36074570538E+03  0.38294051790E+03  0.12509000000E+03 0.  0.
         25    1    3    3    0    0  0.31472311998E+02  0.59700969750E+02 -0.87272269161E+02  0.16678929605E+03  0.12509000000E+03 0.  0.
<mgrwt>
<rscale>  2 0.45674332E+03</rscale>
<asrwt>0</asrwt>
<pdfrwt beam="1">  1       21 0.10170218E-01 0.45674332E+03</pdfrwt>
<pdfrwt beam="2">  1       21 0.11090122E+00 0.45674332E+03</pdfrwt>
<totfact> 0.46026221E+04</totfact>
</mgrwt>
</event>
<event>
 7    0  0.4766352E-002  0.4606724E+03  0.7546771E-02  0.1024586E+00
         21   -1    0    0  502  501  0.00000000000E+00  0.00000000000E+00  0.45008206787E+02  0.45008206787E+02  0.00000000000E+00 0.  1.
         21   -1    0    0  501  502 -0.00000000000E+00 -0.00000000000E+00 -0.11787800118E+04  0.11787800118E+04  0.00000000000E+00 0.  1.
      99926    2    1    2    0    0 -0.14210854715E-13  0.00000000000E+00 -0.11337718050E+04  0.12237882186E+04  0.46067244123E+03 0.  0.
      99925    2    3    3    0    0  0.10765519644E+03  0.25796175670E+01 -0.84061355731E+03  0.88735759864E+03  0.26301342052E+03 0.  0.
         25    1    4    4    0    0  0.62307426882E+02  0.21265374715E+00 -0.30552669522E+03  0.33597072828E+03  0.12509000000E+03 0.  0.
         25    1    4    4    0    0  0.45347769553E+02  0.23669638199E+01 -0.53508686209E+03  0.55138687036E+03  0.12509000000E+03 0.  0.
         25    1    3    3    0    0 -0.10765519644E+03 -0.25796175670E+01 -0.29315824771E+03  0.33643061996E+03  0.12509000000E+03 0.  0.
<mgrwt>
<rscale>  2 0.46067244E+03</rscale>
<asrwt>0</asrwt>
<pdfrwt beam="1">  1       21 0.66188553E-02 0.46067244E+03</pdfrwt>
<pdfrwt beam="2">  1       21 0.17334997E+00 0.46067244E+03</pdfrwt>
<totfact> 0.30060777E+04</totfact>
</mgrwt>
</event>
<event>
 7    0  0.4766352E-002  0.4506046E+03  0.7546771E-02  0.1027542E+00
         21   -1    0    0  502  501  0.00000000000E+00  0.00000000000E+00  0.17718321084E+03  0.17718321084E+03  0.00000000000E+00 0.  1.
         21   -1    0    0  501  502 -0.00000000000E+00 -0.00000000000E+00 -0.28648944520E+03  0.28648944520E+03  0.00000000000E+00 0.  1.
      99926    2    1    2    0    0  0.14210854715E-13  0.00000000000E+00 -0.10930623436E+03  0.46367265604E+03  0.45060457065E+03 0.  0.
      99925    2    3    3    0    0 -0.93285359384E+02 -0.48419886552E+02 -0.39340013681E+02  0.28593851800E+03  0.26299535302E+03 0.  0.
         25    1    3    3    0    0  0.93285359384E+02  0.48419886552E+02 -0.69966220674E+02  0.17773413804E+03  0.12509000000E+03 0.  0.
         25    1    4    4    0    0 -0.18720313486E+02 -0.51887738378E+02 -0.30033063738E+02  0.13997242782E+03  0.12509000000E+03 0.  0.
         25    1    4    4    0    0 -0.74565045898E+02  0.34678518257E+01 -0.93069499426E+01  0.14596609018E+03  0.12509000000E+03 0.  0.
<mgrwt>
<rscale>  2 0.45060457E+03</rscale>
<asrwt>0</asrwt>
<pdfrwt beam="1">  1       21 0.26056355E-01 0.45060457E+03</pdfrwt>
<pdfrwt beam="2">  1       21 0.42130800E-01 0.45060457E+03</pdfrwt>
<totfact> 0.70329664E+04</totfact>
</mgrwt>
</event>
<event>
 7    0  0.4766352E-002  0.4720031E+03  0.7546771E-02  0.1021356E+00
         21   -1    0    0  502  501  0.00000000000E+00  0.00000000000E+00  0.20648469805E+03  0.20648469805E+03  0.00000000000E+00 0. -1.
         21   -1    0    0  501  502 -0.00000000000E+00 -0.00000000000E+00 -0.26973781891E+03  0.26973781891E+03  0.00000000000E+00 0. -1.
      99926    2    1    2    0    0  0.14210854715E-13 -0.14210854715E-13 -0.63253120863E+02  0.47622251695E+03  0.47200310206E+03 0.  0.
      99925    2    3    3    0    0  0.72794214155E+02 -0.95745929222E+02  0.60816746844E+01  0.28935062888E+03  0.26309792681E+03 0.  0.
         25    1    3    3    0    0 -0.72794214155E+02  0.95745929222E+02 -0.69334795547E+02  0.18687188807E+03  0.12509000000E+03 0.  0.
         25    1    4    4    0    0  0.30252868538E+02 -0.85992800237E+02  0.20286285660E+02  0.15610585906E+03  0.12509000000E+03 0.  0.
         25    1    4    4    0    0  0.42541345617E+02 -0.97531289853E+01 -0.14204610975E+02  0.13324476982E+03  0.12509000000E+03 0.  0.
<mgrwt>
<rscale>  2 0.47200310E+03</rscale>
<asrwt>0</asrwt>
<pdfrwt beam="1">  1       21 0.30365397E-01 0.47200310E+03</pdfrwt>
<pdfrwt beam="2">  1       21 0.39667326E-01 0.47200310E+03</pdfrwt>
<totfact> 0.58648137E+04</totfact>
</mgrwt>
</event>
<event>
 7    0  0.4766352E-002  0.4601338E+03  0.7546771E-02  0.1024742E+00
         21   -1    0    0  502  501  0.00000000000E+00  0.00000000000E+00  0.94639524305E+02  0.94639524305E+02  0.00000000000E+00 0. -1.
         21   -1    0    0  501  502 -0.00000000000E+00 -0.00000000000E+00 -0.55928841042E+03  0.55928841042E+03  0.00000000000E+00 0. -1.
      99926    2    1    2    0    0  0.35527136788E-14  0.00000000000E+00 -0.46464888611E+03  0.65392793472E+03  0.46013384623E+03 0.  0.
      99925    2    3    3    0    0  0.31832389421E+02 -0.86664839413E+02 -0.39625746562E+03  0.48407803068E+03  0.26227364587E+03 0.  0.
         25    1    4    4    0    0 -0.20512438054E+02 -0.36806207421E+02 -0.16356811546E+03  0.21018442739E+03  0.12509000000E+03 0.  0.
         25    1    4    4    0    0  0.52344827475E+02 -0.49858631991E+02 -0.23268935016E+03  0.27389360329E+03  0.12509000000E+03 0.  0.
         25    1    3    3    0    0 -0.31832389421E+02  0.86664839413E+02 -0.68391420491E+02  0.16984990404E+03  0.12509000000E+03 0.  0.
<mgrwt>
<rscale>  2 0.46013385E+03</rscale>
<asrwt>0</asrwt>
<pdfrwt beam="1">  1       21 0.13917577E-01 0.46013385E+03</pdfrwt>
<pdfrwt beam="2">  1       21 0.82248295E-01 0.46013385E+03</pdfrwt>
<totfact> 0.53284869E+04</totfact>
</mgrwt>
</event>
<event>
 7    0  0.4766352E-002  0.4518625E+03  0.7546771E-02  0.1027168E+00
         21   -1    0    0  502  501  0.00000000000E+00  0.00000000000E+00  0.33946952623E+03  0.33946952623E+03  0.00000000000E+00 0. -1.
         21   -1    0    0  501  502 -0.00000000000E+00 -0.00000000000E+00 -0.15036675222E+03  0.15036675222E+03  0.00000000000E+00 0. -1.
      99926    2    1    2    0    0  0.00000000000E+00  0.00000000000E+00  0.18910277401E+03  0.48983627845E+03  0.45186250182E+03 0.  0.
      99925    2    3    3    0    0  0.87181546205E+02 -0.36943306105E+02  0.18031066497E+03  0.33270499848E+03  0.26308791353E+03 0.  0.
         25    1    3    3    0    0 -0.87181546205E+02  0.36943306105E+02  0.87921090450E+01  0.15713127997E+03  0.12509000000E+03 0.  0.
         25    1    4    4    0    0  0.43562342307E+02 -0.56591333840E+02  0.11138317529E+03  0.18208233459E+03  0.12509000000E+03 0.  0.
         25    1    4    4    0    0  0.43619203899E+02  0.19648027736E+02  0.68927489674E+02  0.15062266388E+03  0.12509000000E+03 0.  0.
<mgrwt>
<rscale>  2 0.45186250E+03</rscale>
<asrwt>0</asrwt>
<pdfrwt beam="1">  1       21 0.49921989E-01 0.45186250E+03</pdfrwt>
<pdfrwt beam="2">  1       21 0.22112758E-01 0.45186250E+03</pdfrwt>
<totfact> 0.67660376E+04</totfact>
</mgrwt>
</event>
<event>
 7    0  0.4766352E-002  0.4513294E+03  0.7546771E-02  0.1027326E+00
         21   -1    0    0  502  501  0.00000000000E+00  0.00000000000E+00  0.14445996234E+03  0.14445996234E+03  0.00000000000E+00 0. -1.
         21   -1    0    0  501  502 -0.00000000000E+00 -0.00000000000E+00 -0.35251672344E+03  0.35251672344E+03  0.00000000000E+00 0. -1.
      99926    2    1    2    0    0 -0.14210854715E-13  0.00000000000E+00 -0.20805676111E+03  0.49697668578E+03  0.45132938123E+03 0.  0.
      99925    2    3    3    0    0  0.10038685038E+03  0.23616435000E+02 -0.90139852457E+02  0.29650932889E+03  0.26297781920E+03 0.  0.
         25    1    4    4    0    0  0.71938369281E+02 -0.22677442497E+02 -0.48491215152E+02  0.15391004327E+03  0.12509000000E+03 0.  0.
         25    1    3    3    0    0 -0.10038685038E+03 -0.23616435000E+02 -0.11791690865E+03  0.20046735688E+03  0.12509000000E+03 0.  0.
         25    1    4    4    0    0  0.28448481095E+02  0.46293877497E+02 -0.41648637305E+02  0.14259928562E+03  0.12509000000E+03 0.  0.
<mgrwt>
<rscale>  2 0.45132938E+03</rscale>
<asrwt>0</asrwt>
<pdfrwt beam="1">  1       21 0.21244112E-01 0.45132938E+03</pdfrwt>
<pdfrwt beam="2">  1       21 0.51840694E-01 0.45132938E+03</pdfrwt>
<totfact> 0.67426951E+04</totfact>
</mgrwt>
</event>
<event>
 7    0  0.4766352E-002  0.4555519E+03  0.7546771E-02  0.1026079E+00
         21   -1    0    0  502  501  0.00000000000E+00  0.00000000000E+00  0.17575287380E+04  0.17575287380E+04  0.00000000000E+00 0. -1.
         21   -1    0    0  501  502 -0.00000000000E+00 -0.00000000000E+00 -0.29519787263E+02  0.29519787263E+02  0.00000000000E+00 0. -1.
      99926    2    1    2    0    0  0.00000000000E+00  0.00000000000E+00  0.17280089508E+04  0.17870485253E+04  0.45555186074E+03 0.  0.
      99925    2    3    3    0    0  0.55249732716E+02  0.27798630460E+01  0.69694754230E+03  0.74695458880E+03  0.26295440746E+03 0.  0.
         25    1    4    4    0    0  0.25918512701E+02 -0.13504854233E+01  0.45966614727E+03  0.47708916164E+03  0.12509000000E+03 0.  0.
         25    1    4    4    0    0  0.29331220015E+02  0.41303484692E+01  0.23728139503E+03  0.26986542715E+03  0.12509000000E+03 0.  0.
         25    1    3    3    0    0 -0.55249732716E+02 -0.27798630460E+01  0.10310614085E+04  0.10400939365E+04  0.12509000000E+03 0.  0.
<mgrwt>
<rscale>  2 0.45555186E+03</rscale>
<asrwt>0</asrwt>
<pdfrwt beam="1">  1       21 0.25846004E+00 0.45555186E+03</pdfrwt>
<pdfrwt beam="2">  1       21 0.43411464E-02 0.45555186E+03</pdfrwt>
<totfact> 0.17434823E+04</totfact>
</mgrwt>
</event>
<event>
 6    0  0.5439346E-002  0.4313450E+03  0.7546771E-02  0.1033436E+00
         21   -1    0    0  502  501  0.00000000000E+00  0.00000000000E+00  0.81985885038E+02  0.81985885038E+02  0.00000000000E+00 0.  1.
         21   -1    0    0  501  502 -0.00000000000E+00 -0.00000000000E+00 -0.56734915698E+03  0.56734915698E+03  0.00000000000E+00 0.  1.
      99926    2    1    2    0    0  0.00000000000E+00  0.17763568394E-14 -0.48536327194E+03  0.64933504202E+03  0.43134497915E+03 0.  0.
         25    1    3    3    0    0 -0.65965435956E+02  0.92343194815E+01 -0.96001456291E+02  0.17117388559E+03  0.12509000000E+03 0.  0.
         25    1    3    3    0    0  0.41780250466E+02 -0.31261972574E+02 -0.12733231412E+03  0.18596754173E+03  0.12509000000E+03 0.  0.
         25    1    3    3    0    0  0.24185185490E+02  0.22027653093E+02 -0.26202950154E+03  0.29219361470E+03  0.12509000000E+03 0.  0.
<mgrwt>
<rscale>  2 0.43134498E+03</rscale>
<asrwt>0</asrwt>
<pdfrwt beam="1">  1       21 0.12056748E-01 0.43134498E+03</pdfrwt>
<pdfrwt beam="2">  1       21 0.83433699E-01 0.43134498E+03</pdfrwt>
<totfact> 0.67469720E+04</totfact>
</mgrwt>
</event>
<event>
 7    0  0.4766352E-002  0.4467034E+03  0.7546771E-02  0.1028710E+00
         21   -1    0    0  502  501  0.00000000000E+00  0.00000000000E+00  0.18668315855E+03  0.18668315855E+03  0.00000000000E+00 0.  1.
         21   -1    0    0  501  502 -0.00000000000E+00 -0.00000000000E+00 -0.26722269260E+03  0.26722269260E+03  0.00000000000E+00 0.  1.
      99926    2    1    2    0    0  0.00000000000E+00  0.00000000000E+00 -0.80539534052E+02  0.45390585116E+03  0.44670337493E+03 0.  0.
      99925    2    3    3    0    0  0.58387367691E+02 -0.97408954449E+01 -0.13950400936E+03  0.30347883497E+03  0.26293357507E+03 0.  0.
         25    1    4    4    0    0  0.24112898235E+02 -0.36279985206E+02 -0.97889651874E+02  0.16470446634E+03  0.12509000000E+03 0.  0.
         25    1    4    4    0    0  0.34274469456E+02  0.26539089762E+02 -0.41614357481E+02  0.13877436864E+03  0.12509000000E+03 0.  0.
         25    1    3    3    0    0 -0.58387367691E+02  0.97408954449E+01  0.58964475303E+02  0.15042701618E+03  0.12509000000E+03 0.  0.
<mgrwt>
<rscale>  2 0.44670337E+03</rscale>
<asrwt>0</asrwt>
<pdfrwt beam="1">  1       21 0.27453406E-01 0.44670337E+03</pdfrwt>
<pdfrwt beam="2">  1       21 0.39297455E-01 0.44670337E+03</pdfrwt>
<totfact> 0.73361507E+04</totfact>
</mgrwt>
</event>
<event>
 7    0  0.4766352E-002  0.4563423E+03  0.7546771E-02  0.1025847E+00
         21   -1    0    0  502  501  0.00000000000E+00  0.00000000000E+00  0.28204819260E+03  0.28204819260E+03  0.00000000000E+00 0.  1.
         21   -1    0    0  501  502 -0.00000000000E+00 -0.00000000000E+00 -0.18458572848E+03  0.18458572848E+03  0.00000000000E+00 0.  1.
      99926    2    1    2    0    0  0.71054273576E-14  0.00000000000E+00  0.97462464126E+02  0.46663392108E+03  0.45634228863E+03 0.  0.
      99925    2    3    3    0    0  0.58009500956E+02  0.56682299005E+02 -0.21253524277E+02  0.27605853121E+03  0.26301827909E+03 0.  0.
         25    1    4    4    0    0 -0.11293165882E+02  0.17081210466E+02 -0.61288855996E+01  0.12690301291E+03  0.12509000000E+03 0.  0.
         25    1    3    3    0    0 -0.58009500956E+02 -0.56682299005E+02  0.11871598840E+03  0.19057538987E+03  0.12509000000E+03 0.  0.
         25    1    4    4    0    0  0.69302666838E+02  0.39601088538E+02 -0.15124638677E+02  0.14915551830E+03  0.12509000000E+03 0.  0.
<mgrwt>
<rscale>  2 0.45634229E+03</rscale>
<asrwt>0</asrwt>
<pdfrwt beam="1">  1       21 0.41477676E-01 0.45634229E+03</pdfrwt>
<pdfrwt beam="2">  1       21 0.27144960E-01 0.45634229E+03</pdfrwt>
<totfact> 0.66971596E+04</totfact>
</mgrwt>
</event>
<event>
 7    0  0.4766352E-002  0.4606537E+03  0.7546771E-02  0.1024592E+00
         21   -1    0    0  502  501  0.00000000000E+00  0.00000000000E+00  0.86767913828E+03  0.86767913828E+03  0.00000000000E+00 0. -1.
         21   -1    0    0  501  502 -0.00000000000E+00 -0.00000000000E+00 -0.61140641455E+02  0.61140641455E+02  0.00000000000E+00 0. -1.
      99926    2    1    2    0    0  0.00000000000E+00 -0.17763568394E-14  0.80653849683E+03  0.92881977974E+03  0.46065370547E+03 0.  0.
      99925    2    3    3    0    0 -0.11388613146E+03 -0.11125526947E+02  0.44221873472E+03  0.52698620044E+03  0.26279881626E+03 0.  0.
         25    1    4    4    0    0 -0.67257212671E+02  0.92131501020E+01  0.29299025582E+03  0.32572874128E+03  0.12509000000E+03 0.  0.
         25    1    4    4    0    0 -0.46628918791E+02 -0.20338677049E+02  0.14922847890E+03  0.20125745915E+03  0.12509000000E+03 0.  0.
         25    1    3    3    0    0  0.11388613146E+03  0.11125526947E+02  0.36431976211E+03  0.40183357930E+03  0.12509000000E+03 0.  0.
<mgrwt>
<rscale>  2 0.46065371E+03</rscale>
<asrwt>0</asrwt>
<pdfrwt beam="1">  1       21 0.12759987E+00 0.46065371E+03</pdfrwt>
<pdfrwt beam="2">  1       21 0.89912713E-02 0.46065371E+03</pdfrwt>
<totfact> 0.40202659E+04</totfact>
</mgrwt>
</event>
<event>
 7    0  0.4766352E-002  0.4590557E+03  0.7546771E-02  0.1025055E+00
         21   -1    0    0  502  501  0.00000000000E+00  0.00000000000E+00  0.63493726361E+03  0.63493726361E+03  0.00000000000E+00 0. -1.
         21   -1    0    0  501  502 -0.00000000000E+00 -0.00000000000E+00 -0.82973605397E+02  0.82973605397E+02  0.00000000000E+00 0. -1.
      99926    2    1    2    0    0 -0.14210854715E-13 -0.17763568394E-14  0.55196365821E+03  0.71791086900E+03  0.45905570016E+03 0.  0.
      99925    2    3    3    0    0  0.11533099090E+03 -0.12999922706E+02  0.32367285459E+03  0.43289431761E+03  0.26298885521E+03 0.  0.
         25    1    4    4    0    0  0.30367636763E+02  0.22093017256E+02  0.12518591348E+03  0.18091245344E+03  0.12509000000E+03 0.  0.
         25    1    4    4    0    0  0.84963354135E+02 -0.35092939962E+02  0.19848694111E+03  0.25198186417E+03  0.12509000000E+03 0.  0.
         25    1    3    3    0    0 -0.11533099090E+03  0.12999922706E+02  0.22829080362E+03  0.28501655139E+03  0.12509000000E+03 0.  0.
<mgrwt>
<rscale>  2 0.45905570E+03</rscale>
<asrwt>0</asrwt>
<pdfrwt beam="1">  1       21 0.93373124E-01 0.45905570E+03</pdfrwt>
<pdfrwt beam="2">  1       21 0.12202001E-01 0.45905570E+03</pdfrwt>
<totfact> 0.50316767E+04</totfact>
</mgrwt>
</event>
<event>
 7    0  0.4766352E-002  0.4538674E+03  0.7546771E-02  0.1026575E+00
         21   -1    0    0  502  501  0.00000000000E+00  0.00000000000E+00  0.14360325649E+03  0.14360325649E+03  0.00000000000E+00 0.  1.
         21   -1    0    0  501  502 -0.00000000000E+00 -0.00000000000E+00 -0.35861936018E+03  0.35861936018E+03  0.00000000000E+00 0.  1.
      99926    2    1    2    0    0  0.71054273576E-14  0.00000000000E+00 -0.21501610369E+03  0.50222261668E+03  0.45386741660E+03 0.  0.
      99925    2    3    3    0    0  0.46800104128E+02 -0.97769898012E+02 -0.10399853410E+03  0.30291980294E+03  0.26305039292E+03 0.  0.
         25    1    4    4    0    0  0.59864787155E+02 -0.56062774815E+02 -0.35408498707E+02  0.15371433681E+03  0.12509000000E+03 0.  0.
         25    1    4    4    0    0 -0.13064683027E+02 -0.41707123197E+02 -0.68590035394E+02  0.14920546613E+03  0.12509000000E+03 0.  0.
         25    1    3    3    0    0 -0.46800104128E+02  0.97769898012E+02 -0.11101756959E+03  0.19930281373E+03  0.12509000000E+03 0.  0.
<mgrwt>
<rscale>  2 0.45386742E+03</rscale>
<asrwt>0</asrwt>
<pdfrwt beam="1">  1       21 0.21118126E-01 0.45386742E+03</pdfrwt>
<pdfrwt beam="2">  1       21 0.52738141E-01 0.45386742E+03</pdfrwt>
<totfact> 0.65703491E+04</totfact>
</mgrwt>
</event>
<event>
 7    0  0.4766352E-002  0.4548018E+03  0.7546771E-02  0.1026300E+00
         21   -1    0    0  502  501  0.00000000000E+00  0.00000000000E+00  0.18289654865E+04  0.18289654865E+04  0.00000000000E+00 0.  1.
         21   -1    0    0  501  502 -0.00000000000E+00 -0.00000000000E+00 -0.28273449015E+02  0.28273449015E+02  0.00000000000E+00 0.  1.
      99926    2    1    2    0    0  0.00000000000E+00  0.00000000000E+00  0.18006920375E+04  0.18572389355E+04  0.45480176971E+03 0.  0.
      99925    2    3    3    0    0 -0.15164863166E+02  0.52312565478E+02  0.15372228233E+04  0.15605402457E+04  0.26318296404E+03 0.  0.
         25    1    4    4    0    0 -0.28700719292E+02  0.48453631552E+01  0.58980531363E+03  0.60362656081E+03  0.12509000000E+03 0.  0.
         25    1    4    4    0    0  0.13535856126E+02  0.47467202323E+02  0.94741750966E+03  0.95691368493E+03  0.12509000000E+03 0.  0.
         25    1    3    3    0    0  0.15164863166E+02 -0.52312565478E+02  0.26346921417E+03  0.29669868974E+03  0.12509000000E+03 0.  0.
<mgrwt>
<rscale>  2 0.45480177E+03</rscale>
<asrwt>0</asrwt>
<pdfrwt beam="1">  1       21 0.26896543E+00 0.45480177E+03</pdfrwt>
<pdfrwt beam="2">  1       21 0.41578614E-02 0.45480177E+03</pdfrwt>
<totfact> 0.16208876E+04</totfact>
</mgrwt>
</event>
<event>
 6    0  0.4766352E-002  0.4527058E+03  0.7546771E-02  0.1026918E+00
         21   -1    0    0  502  501  0.00000000000E+00  0.00000000000E+00  0.64854716645E+03  0.64854716645E+03  0.00000000000E+00 0.  1.
         21   -1    0    0  501  502 -0.00000000000E+00 -0.00000000000E+00 -0.79000625341E+02  0.79000625341E+02  0.00000000000E+00 0.  1.
      99926    2    1    2    0    0  0.00000000000E+00  0.00000000000E+00  0.56954654111E+03  0.72754779179E+03  0.45270578398E+03 0.  0.
         25    1    3    3    0    0  0.58946697988E+02 -0.72886145703E+02  0.28075625441E+03  0.32133889576E+03  0.12509000000E+03 0.  0.
         25    1    3    3    0    0 -0.17184052652E+02  0.11862427386E+02  0.73844492891E+02  0.14675328303E+03  0.12509000000E+03 0.  0.
         25    1    3    3    0    0 -0.41762645336E+02  0.61023718316E+02  0.21494579381E+03  0.25945561301E+03  0.12509000000E+03 0.  0.
<mgrwt>
<rscale>  2 0.45270578E+03</rscale>
<asrwt>0</asrwt>
<pdfrwt beam="1">  1       21 0.95374580E-01 0.45270578E+03</pdfrwt>
<pdfrwt beam="2">  1       21 0.11617739E-01 0.45270578E+03</pdfrwt>
<totfact> 0.52371211E+04</totfact>
</mgrwt>
</event>
<event>
 7    0  0.4766352E-002  0.4510109E+03  0.7546771E-02  0.1027421E+00
         21   -1    0    0  502  501  0.00000000000E+00  0.00000000000E+00  0.12535560603E+03  0.12535560603E+03  0.00000000000E+00 0. -1.
         21   -1    0    0  501  502 -0.00000000000E+00 -0.00000000000E+00 -0.40566768922E+03  0.40566768922E+03  0.00000000000E+00 0. -1.
      99926    2    1    2    0    0  0.17763568394E-14 -0.71054273576E-14 -0.28031208319E+03  0.53102329526E+03  0.45101094900E+03 0.  0.
      99925    2    3    3    0    0 -0.14276623713E+02  0.47856730186E+02 -0.29161917484E+03  0.39585877687E+03  0.26299874426E+03 0.  0.
         25    1    4    4    0    0 -0.12987109351E+02  0.61093812484E+02 -0.12875439560E+03  0.19006925427E+03  0.12509000000E+03 0.  0.
         25    1    4    4    0    0 -0.12895143611E+01 -0.13237082298E+02 -0.16286477924E+03  0.20578952260E+03  0.12509000000E+03 0.  0.
         25    1    3    3    0    0  0.14276623713E+02 -0.47856730186E+02  0.11307091644E+02  0.13516451838E+03  0.12509000000E+03 0.  0.
<mgrwt>
<rscale>  2 0.45101095E+03</rscale>
<asrwt>0</asrwt>
<pdfrwt beam="1">  1       21 0.18434648E-01 0.45101095E+03</pdfrwt>
<pdfrwt beam="2">  1       21 0.59657014E-01 0.45101095E+03</pdfrwt>
<totfact> 0.65171810E+04</totfact>
</mgrwt>
</event>
<event>
 7    0  0.4766352E-002  0.4538283E+03  0.7546771E-02  0.1026587E+00
         21   -1    0    0  502  501  0.00000000000E+00  0.00000000000E+00  0.13154755015E+03  0.13154755015E+03  0.00000000000E+00 0.  1.
         21   -1    0    0  501  502 -0.00000000000E+00 -0.00000000000E+00 -0.39141764756E+03  0.39141764756E+03  0.00000000000E+00 0.  1.
      99926    2    1    2    0    0  0.00000000000E+00  0.00000000000E+00 -0.25987009741E+03  0.52296519770E+03  0.45382830507E+03 0.  0.
      99925    2    3    3    0    0  0.80980076215E+02 -0.73816744252E+02 -0.19191582576E+03  0.34332117300E+03  0.26273762422E+03 0.  0.
         25    1    3    3    0    0 -0.80980076215E+02  0.73816744252E+02 -0.67954271652E+02  0.17964402470E+03  0.12509000000E+03 0.  0.
         25    1    4    4    0    0  0.36533500943E+02 -0.46054241902E+02 -0.49894406624E+02  0.14694437655E+03  0.12509000000E+03 0.  0.
         25    1    4    4    0    0  0.44446575272E+02 -0.27762502350E+02 -0.14202141913E+03  0.19637679645E+03  0.12509000000E+03 0.  0.
<mgrwt>
<rscale>  2 0.45382831E+03</rscale>
<asrwt>0</asrwt>
<pdfrwt beam="1">  1       21 0.19345228E-01 0.45382831E+03</pdfrwt>
<pdfrwt beam="2">  1       21 0.57561419E-01 0.45382831E+03</pdfrwt>
<totfact> 0.64280227E+04</totfact>
</mgrwt>
</event>
<event>
 7    0  0.4766352E-002  0.4471681E+03  0.7546771E-02  0.1028570E+00
         21   -1    0    0  502  501  0.00000000000E+00  0.00000000000E+00  0.27057270138E+03  0.27057270138E+03  0.00000000000E+00 0.  1.
         21   -1    0    0  501  502 -0.00000000000E+00 -0.00000000000E+00 -0.18475562241E+03  0.18475562241E+03  0.00000000000E+00 0.  1.
      99926    2    1    2    0    0  0.14210854715E-13  0.00000000000E+00  0.85817078974E+02  0.45532832379E+03  0.44716810195E+03 0.  0.
      99925    2    3    3    0    0 -0.81073470202E+02 -0.31291207917E+02  0.11564063338E+03  0.30012201026E+03  0.26296086722E+03 0.  0.
         25    1    3    3    0    0  0.81073470202E+02  0.31291207917E+02 -0.29823554402E+02  0.15520631353E+03  0.12509000000E+03 0.  0.
         25    1    4    4    0    0 -0.10388475534E+02  0.13703289092E+02  0.57184205938E+02  0.13861183955E+03  0.12509000000E+03 0.  0.
         25    1    4    4    0    0 -0.70684994668E+02 -0.44994497009E+02  0.58456427438E+02  0.16151017070E+03  0.12509000000E+03 0.  0.
<mgrwt>
<rscale>  2 0.44716810E+03</rscale>
<asrwt>0</asrwt>
<pdfrwt beam="1">  1       21 0.39790103E-01 0.44716810E+03</pdfrwt>
<pdfrwt beam="2">  1       21 0.27169944E-01 0.44716810E+03</pdfrwt>
<totfact> 0.72972570E+04</totfact>
</mgrwt>
</event>
<event>
 7    0  0.4766352E-002  0.4160956E+03  0.7546771E-02  0.1038345E+00
         21   -1    0    0  502  501  0.00000000000E+00  0.00000000000E+00  0.43192864957E+03  0.43192864957E+03  0.00000000000E+00 0.  1.
         21   -1    0    0  501  502 -0.00000000000E+00 -0.00000000000E+00 -0.10021074855E+03  0.10021074855E+03  0.00000000000E+00 0.  1.
      99926    2    1    2    0    0  0.00000000000E+00  0.71054273576E-14  0.33171790101E+03  0.53213939812E+03  0.41609562985E+03 0.  0.
      99925    2    3    3    0    0 -0.35644436646E+02 -0.56035827295E+02  0.18597897123E+03  0.32892059102E+03  0.26303999250E+03 0.  0.
         25    1    4    4    0    0 -0.57774525778E+02 -0.20379213808E+02  0.99132257883E+02  0.17096175256E+03  0.12509000000E+03 0.  0.
         25    1    3    3    0    0  0.35644436646E+02  0.56035827295E+02  0.14573892979E+03  0.20321880710E+03  0.12509000000E+03 0.  0.
         25    1    4    4    0    0  0.22130089132E+02 -0.35656613487E+02  0.86846713344E+02  0.15795883846E+03  0.12509000000E+03 0.  0.
<mgrwt>
<rscale>  2 0.41609563E+03</rscale>
<asrwt>0</asrwt>
<pdfrwt beam="1">  1       21 0.63518918E-01 0.41609563E+03</pdfrwt>
<pdfrwt beam="2">  1       21 0.14736875E-01 0.41609563E+03</pdfrwt>
<totfact> 0.86883321E+04</totfact>
</mgrwt>
</event>
<event>
 7    0  0.4766352E-002  0.4570386E+03  0.7546771E-02  0.1025644E+00
         21   -1    0    0  502  501  0.00000000000E+00  0.00000000000E+00  0.17853171052E+03  0.17853171052E+03  0.00000000000E+00 0. -1.
         21   -1    0    0  501  502 -0.00000000000E+00 -0.00000000000E+00 -0.29250301391E+03  0.29250301391E+03  0.00000000000E+00 0. -1.
      99926    2    1    2    0    0  0.00000000000E+00  0.11102230246E-15 -0.11397130339E+03  0.47103472443E+03  0.45703856907E+03 0.  0.
      99925    2    3    3    0    0 -0.76692165925E+02  0.58465792756E+00  0.16685726000E+02  0.27456386764E+03  0.26310620255E+03 0.  0.
         25    1    4    4    0    0 -0.55410697161E+02 -0.25002146488E+02 -0.18806344085E+02  0.14034471621E+03  0.12509000000E+03 0.  0.
         25    1    4    4    0    0 -0.21281468763E+02  0.25586804416E+02  0.35492070085E+02  0.13421915143E+03  0.12509000000E+03 0.  0.
         25    1    3    3    0    0  0.76692165925E+02 -0.58465792756E+00 -0.13065702939E+03  0.19647085679E+03  0.12509000000E+03 0.  0.
<mgrwt>
<rscale>  2 0.45703857E+03</rscale>
<asrwt>0</asrwt>
<pdfrwt beam="1">  1       21 0.26254664E-01 0.45703857E+03</pdfrwt>
<pdfrwt beam="2">  1       21 0.43015149E-01 0.45703857E+03</pdfrwt>
<totfact> 0.66280485E+04</totfact>
</mgrwt>
</event>
<event>
 7    0  0.4766352E-002  0.4566648E+03  0.7546771E-02  0.1025753E+00
         21   -1    0    0  502  501  0.00000000000E+00  0.00000000000E+00  0.18771910732E+03  0.18771910732E+03  0.00000000000E+00 0. -1.
         21   -1    0    0  501  502 -0.00000000000E+00 -0.00000000000E+00 -0.27773243114E+03  0.27773243114E+03  0.00000000000E+00 0. -1.
      99926    2    1    2    0    0  0.00000000000E+00  0.35527136788E-14 -0.90013323819E+02  0.46545153846E+03  0.45666479631E+03 0.  0.
      99925    2    3    3    0    0  0.54611107078E+02 -0.22778610553E+02  0.43424010686E+02  0.27321660809E+03  0.26317376791E+03 0.  0.
         25    1    4    4    0    0  0.36052481807E+02 -0.51474964981E+02  0.25872896736E+02  0.14235999561E+03  0.12509000000E+03 0.  0.
         25    1    4    4    0    0  0.18558625271E+02  0.28696354428E+02  0.17551113950E+02  0.13085661248E+03  0.12509000000E+03 0.  0.
         25    1    3    3    0    0 -0.54611107078E+02  0.22778610553E+02 -0.13343733450E+03  0.19223493037E+03  0.12509000000E+03 0.  0.
<mgrwt>
<rscale>  2 0.45666480E+03</rscale>
<asrwt>0</asrwt>
<pdfrwt beam="1">  1       21 0.27605752E-01 0.45666480E+03</pdfrwt>
<pdfrwt beam="2">  1       21 0.40843004E-01 0.45666480E+03</pdfrwt>
<totfact> 0.66887147E+04</totfact>
</mgrwt>
</event>
<event>
 7    0  0.4766352E-002  0.4536776E+03  0.7546771E-02  0.1026631E+00
         21   -1    0    0  502  501  0.00000000000E+00  0.00000000000E+00  0.72934054840E+03  0.72934054840E+03  0.00000000000E+00 0.  1.
         21   -1    0    0  501  502 -0.00000000000E+00 -0.00000000000E+00 -0.70551190581E+02  0.70551190581E+02  0.00000000000E+00 0.  1.
      99926    2    1    2    0    0  0.14210854715E-13  0.17763568394E-14  0.65878935782E+03  0.79989173898E+03  0.45367761254E+03 0.  0.
      99925    2    3    3    0    0 -0.11002298510E+03 -0.86324004836E+01  0.38258706640E+03  0.47722350461E+03  0.26303960612E+03 0.  0.
         25    1    4    4    0    0 -0.51381280418E+02 -0.30294718657E+02  0.13857342497E+03  0.19597935647E+03  0.12509000000E+03 0.  0.
         25    1    3    3    0    0  0.11002298510E+03  0.86324004836E+01  0.27620229142E+03  0.32266823437E+03  0.12509000000E+03 0.  0.
         25    1    4    4    0    0 -0.58641704680E+02  0.21662318173E+02  0.24401364143E+03  0.28124414814E+03  0.12509000000E+03 0.  0.
<mgrwt>
<rscale>  2 0.45367761E+03</rscale>
<asrwt>0</asrwt>
<pdfrwt beam="1">  1       21 0.10725596E+00 0.45367761E+03</pdfrwt>
<pdfrwt beam="2">  1       21 0.10375175E-01 0.45367761E+03</pdfrwt>
<totfact> 0.48269028E+04</totfact>
</mgrwt>
</event>
<event>
 7    0  0.4766352E-002  0.4564417E+03  0.7546771E-02  0.1025818E+00
         21   -1    0    0  502  501  0.00000000000E+00  0.00000000000E+00  0.96145281371E+03  0.96145281371E+03  0.00000000000E+00 0. -1.
         21   -1    0    0  501  502 -0.00000000000E+00 -0.00000000000E+00 -0.54172982465E+02  0.54172982465E+02  0.00000000000E+00 0. -1.
      99926    2    1    2    0    0  0.00000000000E+00  0.00000000000E+00  0.90727983124E+03  0.10156257962E+04  0.45644174401E+03 0.  0.
      99925    2    3    3    0    0 -0.81281098684E+02  0.36284163232E+02  0.40558166493E+03  0.49096236531E+03  0.26196259221E+03 0.  0.
         25    1    3    3    0    0  0.81281098684E+02 -0.36284163232E+02  0.50169816631E+03  0.52466343086E+03  0.12509000000E+03 0.  0.
         25    1    4    4    0    0 -0.63955813995E+02  0.21022421231E+02  0.26975098129E+03  0.30486946116E+03  0.12509000000E+03 0.  0.
         25    1    4    4    0    0 -0.17325284689E+02  0.15261742001E+02  0.13583068364E+03  0.18609290415E+03  0.12509000000E+03 0.  0.
<mgrwt>
<rscale>  2 0.45644174E+03</rscale>
<asrwt>0</asrwt>
<pdfrwt beam="1">  1       21 0.14139011E+00 0.45644174E+03</pdfrwt>
<pdfrwt beam="2">  1       21 0.79666156E-02 0.45644174E+03</pdfrwt>
<totfact> 0.38133356E+04</totfact>
</mgrwt>
</event>
<event>
 7    0  0.4766352E-002  0.4577627E+03  0.7546771E-02  0.1025432E+00
         21   -1    0    0  502  501  0.00000000000E+00  0.00000000000E+00  0.18724633073E+03  0.18724633073E+03  0.00000000000E+00 0. -1.
         21   -1    0    0  501  502 -0.00000000000E+00 -0.00000000000E+00 -0.27977415300E+03  0.27977415300E+03  0.00000000000E+00 0. -1.
      99926    2    1    2    0    0  0.00000000000E+00 -0.88817841970E-15 -0.92527822276E+02  0.46702048373E+03  0.45776274895E+03 0.  0.
      99925    2    3    3    0    0 -0.11514182797E+03  0.50667363453E+01 -0.68670955254E+02  0.29526492903E+03  0.26302540914E+03 0.  0.
         25    1    3    3    0    0  0.11514182797E+03 -0.50667363453E+01 -0.23856867022E+02  0.17175555470E+03  0.12509000000E+03 0.  0.
         25    1    4    4    0    0 -0.19929919686E+02  0.23696710268E+02 -0.30808545902E+02  0.13249683157E+03  0.12509000000E+03 0.  0.
         25    1    4    4    0    0 -0.95211908287E+02 -0.18629973922E+02 -0.37862409352E+02  0.16276809746E+03  0.12509000000E+03 0.  0.
<mgrwt>
<rscale>  2 0.45776275E+03</rscale>
<asrwt>0</asrwt>
<pdfrwt beam="1">  1       21 0.27536226E-01 0.45776275E+03</pdfrwt>
<pdfrwt beam="2">  1       21 0.41143257E-01 0.45776275E+03</pdfrwt>
<totfact> 0.66194800E+04</totfact>
</mgrwt>
</event>
<event>
 7    0  0.4766352E-002  0.4551137E+03  0.7546771E-02  0.1026208E+00
         21   -1    0    0  502  501  0.00000000000E+00  0.00000000000E+00  0.70684604352E+03  0.70684604352E+03  0.00000000000E+00 0. -1.
         21   -1    0    0  501  502 -0.00000000000E+00 -0.00000000000E+00 -0.73257995276E+02  0.73257995276E+02  0.00000000000E+00 0. -1.
      99926    2    1    2    0    0 -0.17763568394E-14  0.00000000000E+00  0.63358804824E+03  0.78010403879E+03  0.45511371817E+03 0.  0.
      99925    2    3    3    0    0 -0.55080798321E+01 -0.90032619329E+02  0.51611053167E+03  0.58623633522E+03  0.26299571927E+03 0.  0.
         25    1    4    4    0    0  0.16128992203E+02 -0.39366216910E+02  0.32882521150E+03  0.35437744178E+03  0.12509000000E+03 0.  0.
         25    1    3    3    0    0  0.55080798321E+01  0.90032619329E+02  0.11747751658E+03  0.19386770357E+03  0.12509000000E+03 0.  0.
         25    1    4    4    0    0 -0.21637072035E+02 -0.50666402418E+02  0.18728532016E+03  0.23185889344E+03  0.12509000000E+03 0.  0.
<mgrwt>
<rscale>  2 0.45511372E+03</rscale>
<asrwt>0</asrwt>
<pdfrwt beam="1">  1       21 0.10394794E+00 0.45511372E+03</pdfrwt>
<pdfrwt beam="2">  1       21 0.10773235E-01 0.45511372E+03</pdfrwt>
<totfact> 0.48698766E+04</totfact>
</mgrwt>
</event>
<event>
 7    0  0.4766352E-002  0.4647335E+03  0.7546771E-02  0.1023417E+00
         21   -1    0    0  502  501  0.00000000000E+00  0.00000000000E+00  0.52955136765E+03  0.52955136765E+03  0.00000000000E+00 0.  1.
         21   -1    0    0  501  502 -0.00000000000E+00 -0.00000000000E+00 -0.10196235963E+03  0.10196235963E+03  0.00000000000E+00 0.  1.
      99926    2    1    2    0    0  0.00000000000E+00  0.14210854715E-13  0.42758900802E+03  0.63151372728E+03  0.46473350209E+03 0.  0.
      99925    2    3    3    0    0  0.47232743956E+02 -0.83803108558E+02  0.36886396002E+03  0.46313904846E+03  0.26302711667E+03 0.  0.
         25    1    3    3    0    0 -0.47232743956E+02  0.83803108558E+02  0.58725048002E+02  0.16837467882E+03  0.12509000000E+03 0.  0.
         25    1    4    4    0    0  0.39597901267E+02 -0.81771213360E+02  0.19683445671E+03  0.25029150319E+03  0.12509000000E+03 0.  0.
         25    1    4    4    0    0  0.76348426886E+01 -0.20318951983E+01  0.17202950331E+03  0.21284754528E+03  0.12509000000E+03 0.  0.
<mgrwt>
<rscale>  2 0.46473350E+03</rscale>
<asrwt>0</asrwt>
<pdfrwt beam="1">  1       21 0.77875200E-01 0.46473350E+03</pdfrwt>
<pdfrwt beam="2">  1       21 0.14994465E-01 0.46473350E+03</pdfrwt>
<totfact> 0.52618090E+04</totfact>
</mgrwt>
</event>
<event>
 7    0  0.4766352E-002  0.4560895E+03  0.7546771E-02  0.1025921E+00
         21   -1    0    0  502  501  0.00000000000E+00  0.00000000000E+00  0.80514445712E+02  0.80514445712E+02  0.00000000000E+00 0. -1.
         21   -1    0    0  501  502 -0.00000000000E+00 -0.00000000000E+00 -0.64590167778E+03  0.64590167778E+03  0.00000000000E+00 0. -1.
      99926    2    1    2    0    0  0.00000000000E+00  0.00000000000E+00 -0.56538723206E+03  0.72641612349E+03  0.45608953319E+03 0.  0.
      99925    2    3    3    0    0  0.84203724358E+02  0.35977927548E+02 -0.46371737556E+03  0.54102748768E+03  0.26323422946E+03 0.  0.
         25    1    4    4    0    0  0.12083775324E+02  0.62915778758E+01 -0.26740355987E+03  0.29552964912E+03  0.12509000000E+03 0.  0.
         25    1    4    4    0    0  0.72119949034E+02  0.29686349672E+02 -0.19631381569E+03  0.24549783856E+03  0.12509000000E+03 0.  0.
         25    1    3    3    0    0 -0.84203724358E+02 -0.35977927548E+02 -0.10166985651E+03  0.18538863581E+03  0.12509000000E+03 0.  0.
<mgrwt>
<rscale>  2 0.45608953E+03</rscale>
<asrwt>0</asrwt>
<pdfrwt beam="1">  1       21 0.11840359E-01 0.45608953E+03</pdfrwt>
<pdfrwt beam="2">  1       21 0.94985543E-01 0.45608953E+03</pdfrwt>
<totfact> 0.51053279E+04</totfact>
</mgrwt>
</event>
<event>
 7    0  0.4766352E-002  0.4578798E+03  0.7546771E-02  0.1025398E+00
         21   -1    0    0  502  501  0.00000000000E+00  0.00000000000E+00  0.30531962206E+03  0.30531962206E+03  0.00000000000E+00 0. -1.
         21   -1    0    0  501  502 -0.00000000000E+00 -0.00000000000E+00 -0.17166760669E+03  0.17166760669E+03  0.00000000000E+00 0. -1.
      99926    2    1    2    0    0  0.00000000000E+00  0.00000000000E+00  0.13365201536E+03  0.47698722875E+03  0.45787984797E+03 0.  0.
      99925    2    3    3    0    0 -0.99604047194E+02 -0.58767506279E+02  0.93209515163E+02  0.30189385385E+03  0.26282560618E+03 0.  0.
         25    1    3    3    0    0  0.99604047194E+02  0.58767506279E+02  0.40442500199E+02  0.17509337490E+03  0.12509000000E+03 0.  0.
         25    1    4    4    0    0 -0.63235391155E+02  0.83845971505E+01  0.50794970013E+02  0.14932063904E+03  0.12509000000E+03 0.  0.
         25    1    4    4    0    0 -0.36368656040E+02 -0.67152103429E+02  0.42414545151E+02  0.15257321481E+03  0.12509000000E+03 0.  0.
<mgrwt>
<rscale>  2 0.45787985E+03</rscale>
<asrwt>0</asrwt>
<pdfrwt beam="1">  1       21 0.44899944E-01 0.45787985E+03</pdfrwt>
<pdfrwt beam="2">  1       21 0.25245236E-01 0.45787985E+03</pdfrwt>
<totfact> 0.65412292E+04</totfact>
</mgrwt>
</event>
<event>
 7    0  0.4766352E-002  0.4558445E+03  0.7546771E-02  0.1025993E+00
         21   -1    0    0  502  501  0.00000000000E+00  0.00000000000E+00  0.31703317026E+03  0.31703317026E+03  0.00000000000E+00 0. -1.
         21   -1    0    0  501  502 -0.00000000000E+00 -0.00000000000E+00 -0.16385838125E+03  0.16385838125E+03  0.00000000000E+00 0. -1.
      99926    2    1    2    0    0  0.00000000000E+00  0.71054273576E-14  0.15317478901E+03  0.48089155151E+03  0.45584445628E+03 0.  0.
      99925    2    3    3    0    0 -0.13986047916E+02 -0.57848975351E+02 -0.63026111403E+01  0.26965078190E+03  0.26292528936E+03 0.  0.
         25    1    4    4    0    0  0.10367245771E+02 -0.89064874523E+01 -0.34019273521E+02  0.13035192509E+03  0.12509000000E+03 0.  0.
         25    1    4    4    0    0 -0.24353293687E+02 -0.48942487898E+02  0.27716662381E+02  0.13929885681E+03  0.12509000000E+03 0.  0.
         25    1    3    3    0    0  0.13986047916E+02  0.57848975351E+02  0.15947740015E+03  0.21124076961E+03  0.12509000000E+03 0.  0.
<mgrwt>
<rscale>  2 0.45584446E+03</rscale>
<asrwt>0</asrwt>
<pdfrwt beam="1">  1       21 0.46622525E-01 0.45584446E+03</pdfrwt>
<pdfrwt beam="2">  1       21 0.24096821E-01 0.45584446E+03</pdfrwt>
<totfact> 0.66190474E+04</totfact>
</mgrwt>
</event>
<event>
 7    0  0.4766352E-002  0.4539154E+03  0.7546771E-02  0.1026561E+00
         21   -1    0    0  502  501  0.00000000000E+00  0.00000000000E+00  0.17427508245E+03  0.17427508245E+03  0.00000000000E+00 0. -1.
         21   -1    0    0  501  502 -0.00000000000E+00 -0.00000000000E+00 -0.29556611257E+03  0.29556611257E+03  0.00000000000E+00 0. -1.
      99926    2    1    2    0    0 -0.35527136788E-14  0.00000000000E+00 -0.12129103012E+03  0.46984119502E+03  0.45391544868E+03 0.  0.
      99925    2    3    3    0    0 -0.16155579231E+02  0.94495055206E+02 -0.15750794621E+02  0.28016629523E+03  0.26278269969E+03 0.  0.
         25    1    4    4    0    0  0.21639418857E+02  0.59954003057E+02  0.16064426996E+02  0.14130930913E+03  0.12509000000E+03 0.  0.
         25    1    3    3    0    0  0.16155579231E+02 -0.94495055206E+02 -0.10554023550E+03  0.18967489979E+03  0.12509000000E+03 0.  0.
         25    1    4    4    0    0 -0.37794998088E+02  0.34541052149E+02 -0.31815221617E+02  0.13885698611E+03  0.12509000000E+03 0.  0.
<mgrwt>
<rscale>  2 0.45391545E+03</rscale>
<asrwt>0</asrwt>
<pdfrwt beam="1">  1       21 0.25628689E-01 0.45391545E+03</pdfrwt>
<pdfrwt beam="2">  1       21 0.43465605E-01 0.45391545E+03</pdfrwt>
<totfact> 0.68030979E+04</totfact>
</mgrwt>
</event>
<event>
 7    0  0.4766352E-002  0.4526047E+03  0.7546771E-02  0.1026948E+00
         21   -1    0    0  502  501  0.00000000000E+00  0.00000000000E+00  0.63061268929E+02  0.63061268929E+02  0.00000000000E+00 0. -1.
         21   -1    0    0  501  502 -0.00000000000E+00 -0.00000000000E+00 -0.81211088361E+03  0.81211088361E+03  0.00000000000E+00 0. -1.
      99926    2    1    2    0    0  0.00000000000E+00  0.00000000000E+00 -0.74904961468E+03  0.87517215254E+03  0.45260465235E+03 0.  0.
      99925    2    3    3    0    0  0.78542729992E+02  0.62651173145E+02 -0.56337391870E+03  0.62978042059E+03  0.26294310403E+03 0.  0.
         25    1    4    4    0    0  0.38665772469E+02  0.68684733887E+02 -0.33722787512E+03  0.36821567388E+03  0.12509000000E+03 0.  0.
         25    1    3    3    0    0 -0.78542729992E+02 -0.62651173145E+02 -0.18567569598E+03  0.24539173195E+03  0.12509000000E+03 0.  0.
         25    1    4    4    0    0  0.39876957523E+02 -0.60335607428E+01 -0.22614604358E+03  0.26156474672E+03  0.12509000000E+03 0.  0.
<mgrwt>
<rscale>  2 0.45260465E+03</rscale>
<asrwt>0</asrwt>
<pdfrwt beam="1">  1       21 0.92737163E-02 0.45260465E+03</pdfrwt>
<pdfrwt beam="2">  1       21 0.11942807E+00 0.45260465E+03</pdfrwt>
<totfact> 0.45166046E+04</totfact>
</mgrwt>
</event>
<event>
 7    0  0.4766352E-002  0.4559472E+03  0.7546771E-02  0.1025963E+00
         21   -1    0    0  502  501  0.00000000000E+00  0.00000000000E+00  0.15038930735E+04  0.15038930735E+04  0.00000000000E+00 0. -1.
         21   -1    0    0  501  502 -0.00000000000E+00 -0.00000000000E+00 -0.34558286930E+02  0.34558286930E+02  0.00000000000E+00 0. -1.
      99926    2    1    2    0    0 -0.71054273576E-14  0.00000000000E+00  0.14693347866E+04  0.15384513604E+04  0.45594722654E+03 0.  0.
      99925    2    3    3    0    0  0.48993327455E+02  0.10230763448E+03  0.96443566830E+03  0.10060625684E+04  0.26298010368E+03 0.  0.
         25    1    4    4    0    0 -0.11940636184E+02  0.55742868582E+02  0.40445300072E+03  0.42717629157E+03  0.12509000000E+03 0.  0.
         25    1    4    4    0    0  0.60933963639E+02  0.46564765897E+02  0.55998266759E+03  0.57888627678E+03  0.12509000000E+03 0.  0.
         25    1    3    3    0    0 -0.48993327455E+02 -0.10230763448E+03  0.50489911828E+03  0.53238879210E+03  0.12509000000E+03 0.  0.
<mgrwt>
<rscale>  2 0.45594723E+03</rscale>
<asrwt>0</asrwt>
<pdfrwt beam="1">  1       21 0.22116070E+00 0.45594723E+03</pdfrwt>
<pdfrwt beam="2">  1       21 0.50821020E-02 0.45594723E+03</pdfrwt>
<totfact> 0.22684954E+04</totfact>
</mgrwt>
</event>
<event>
 7    0  0.4766352E-002  0.4553607E+03  0.7546771E-02  0.1026135E+00
         21   -1    0    0  502  501  0.00000000000E+00  0.00000000000E+00  0.33910557743E+02  0.33910557743E+02  0.00000000000E+00 0. -1.
         21   -1    0    0  501  502 -0.00000000000E+00 -0.00000000000E+00 -0.15286785738E+04  0.15286785738E+04  0.00000000000E+00 0. -1.
      99926    2    1    2    0    0  0.00000000000E+00  0.00000000000E+00 -0.14947680161E+04  0.15625891316E+04  0.45536070558E+03 0.  0.
      99925    2    3    3    0    0  0.32572827247E+02 -0.49757880530E+02 -0.60844455202E+03  0.66550851824E+03  0.26298284968E+03 0.  0.
         25    1    3    3    0    0 -0.32572827247E+02  0.49757880530E+02 -0.88632346406E+03  0.89708061332E+03  0.12509000000E+03 0.  0.
         25    1    4    4    0    0 -0.23242788737E+01 -0.37045916538E+02 -0.38784990696E+03  0.40921004464E+03  0.12509000000E+03 0.  0.
         25    1    4    4    0    0  0.34897106121E+02 -0.12711963992E+02 -0.22059464506E+03  0.25629847360E+03  0.12509000000E+03 0.  0.
<mgrwt>
<rscale>  2 0.45536071E+03</rscale>
<asrwt>0</asrwt>
<pdfrwt beam="1">  1       21 0.49868467E-02 0.45536071E+03</pdfrwt>
<pdfrwt beam="2">  1       21 0.22480568E+00 0.45536071E+03</pdfrwt>
<totfact> 0.22223713E+04</totfact>
</mgrwt>
</event>
<event>
 7    0  0.4766352E-002  0.4532243E+03  0.7546771E-02  0.1026765E+00
         21   -1    0    0  502  501  0.00000000000E+00  0.00000000000E+00  0.33610929636E+03  0.33610929636E+03  0.00000000000E+00 0.  1.
         21   -1    0    0  501  502 -0.00000000000E+00 -0.00000000000E+00 -0.15278679335E+03  0.15278679335E+03  0.00000000000E+00 0.  1.
      99926    2    1    2    0    0  0.00000000000E+00  0.00000000000E+00  0.18332250300E+03  0.48889608971E+03  0.45322427829E+03 0.  0.
      99925    2    3    3    0    0  0.68835319367E+02 -0.86711484873E+02  0.10315212262E+03  0.30360717803E+03  0.26321051527E+03 0.  0.
         25    1    4    4    0    0  0.92806906562E+01 -0.71176395358E+02  0.69983667253E+02  0.16030418665E+03  0.12509000000E+03 0.  0.
         25    1    3    3    0    0 -0.68835319367E+02  0.86711484873E+02  0.80170380383E+02  0.18528891168E+03  0.12509000000E+03 0.  0.
         25    1    4    4    0    0  0.59554628711E+02 -0.15535089515E+02  0.33168455366E+02  0.14330299138E+03  0.12509000000E+03 0.  0.
<mgrwt>
<rscale>  2 0.45322428E+03</rscale>
<asrwt>0</asrwt>
<pdfrwt beam="1">  1       21 0.49427838E-01 0.45322428E+03</pdfrwt>
<pdfrwt beam="2">  1       21 0.22468646E-01 0.45322428E+03</pdfrwt>
<totfact> 0.66997495E+04</totfact>
</mgrwt>
</event>
<event>
 7    0  0.4766352E-002  0.4615830E+03  0.7546771E-02  0.1024323E+00
         21   -1    0    0  502  501  0.00000000000E+00  0.00000000000E+00  0.10986681560E+03  0.10986681560E+03  0.00000000000E+00 0.  1.
         21   -1    0    0  501  502 -0.00000000000E+00 -0.00000000000E+00 -0.48481163010E+03  0.48481163010E+03  0.00000000000E+00 0.  1.
      99926    2    1    2    0    0  0.71054273576E-14  0.00000000000E+00 -0.37494481450E+03  0.59467844570E+03  0.46158297181E+03 0.  0.
      99925    2    3    3    0    0 -0.43536017910E+02 -0.11085641128E+03 -0.22971805079E+03  0.36901752800E+03  0.26309508612E+03 0.  0.
         25    1    3    3    0    0  0.43536017910E+02  0.11085641128E+03 -0.14522676371E+03  0.22566091770E+03  0.12509000000E+03 0.  0.
         25    1    4    4    0    0 -0.96267591260E+01 -0.93691496505E+02 -0.10652233177E+03  0.18938132504E+03  0.12509000000E+03 0.  0.
         25    1    4    4    0    0 -0.33909258784E+02 -0.17164914776E+02 -0.12319571902E+03  0.17963620296E+03  0.12509000000E+03 0.  0.
<mgrwt>
<rscale>  2 0.46158297E+03</rscale>
<asrwt>0</asrwt>
<pdfrwt beam="1">  1       21 0.16156885E-01 0.46158297E+03</pdfrwt>
<pdfrwt beam="2">  1       21 0.71295828E-01 0.46158297E+03</pdfrwt>
<totfact> 0.56034529E+04</totfact>
</mgrwt>
</event>
<event>
 7    0  0.4766352E-002  0.4593333E+03  0.7546771E-02  0.1024975E+00
         21   -1    0    0  502  501  0.00000000000E+00  0.00000000000E+00  0.46725550250E+03  0.46725550250E+03  0.00000000000E+00 0. -1.
         21   -1    0    0  501  502 -0.00000000000E+00 -0.00000000000E+00 -0.11288637252E+03  0.11288637252E+03  0.00000000000E+00 0. -1.
      99926    2    1    2    0    0  0.14210854715E-13  0.14210854715E-13  0.35436912998E+03  0.58014187502E+03  0.45933333742E+03 0.  0.
      99925    2    3    3    0    0  0.94563308814E+02  0.68253397124E+02  0.23642398980E+03  0.37239368662E+03  0.26302092937E+03 0.  0.
         25    1    4    4    0    0  0.26094994174E+02 -0.38962587953E+01  0.10881640604E+03  0.16788283974E+03  0.12509000000E+03 0.  0.
         25    1    4    4    0    0  0.68468314639E+02  0.72149655919E+02  0.12760758376E+03  0.20451084688E+03  0.12509000000E+03 0.  0.
         25    1    3    3    0    0 -0.94563308814E+02 -0.68253397124E+02  0.11794514018E+03  0.20774818840E+03  0.12509000000E+03 0.  0.
<mgrwt>
<rscale>  2 0.45933334E+03</rscale>
<asrwt>0</asrwt>
<pdfrwt beam="1">  1       21 0.68714043E-01 0.45933334E+03</pdfrwt>
<pdfrwt beam="2">  1       21 0.16600937E-01 0.45933334E+03</pdfrwt>
<totfact> 0.57908057E+04</totfact>
</mgrwt>
</event>
<event>
 7    0  0.4766352E-002  0.4565181E+03  0.7546771E-02  0.1025796E+00
         21   -1    0    0  502  501  0.00000000000E+00  0.00000000000E+00  0.58422899624E+02  0.58422899624E+02  0.00000000000E+00 0. -1.
         21   -1    0    0  501  502 -0.00000000000E+00 -0.00000000000E+00 -0.89181105721E+03  0.89181105721E+03  0.00000000000E+00 0. -1.
      99926    2    1    2    0    0 -0.22204460493E-15 -0.71054273576E-14 -0.83338815758E+03  0.95023395683E+03  0.45651807359E+03 0.  0.
      99925    2    3    3    0    0 -0.13510331211E+01  0.61864817317E+02 -0.72435410119E+03  0.77313225027E+03  0.26308844822E+03 0.  0.
         25    1    4    4    0    0  0.24691477072E+02  0.59377108404E+02 -0.33455327194E+03  0.36291694629E+03  0.12509000000E+03 0.  0.
         25    1    4    4    0    0 -0.26042510193E+02  0.24877089132E+01 -0.38980082925E+03  0.41021530398E+03  0.12509000000E+03 0.  0.
         25    1    3    3    0    0  0.13510331211E+01 -0.61864817317E+02 -0.10903405639E+03  0.17710170656E+03  0.12509000000E+03 0.  0.
<mgrwt>
<rscale>  2 0.45651807E+03</rscale>
<asrwt>0</asrwt>
<pdfrwt beam="1">  1       21 0.85916043E-02 0.45651807E+03</pdfrwt>
<pdfrwt beam="2">  1       21 0.13114866E+00 0.45651807E+03</pdfrwt>
<totfact> 0.40646674E+04</totfact>
</mgrwt>
</event>
<event>
 7    0  0.4766352E-002  0.4757016E+03  0.7546771E-02  0.1020323E+00
         21   -1    0    0  502  501  0.00000000000E+00  0.00000000000E+00  0.91951251375E+02  0.91951251375E+02  0.00000000000E+00 0.  1.
         21   -1    0    0  501  502 -0.00000000000E+00 -0.00000000000E+00 -0.61524995777E+03  0.61524995777E+03  0.00000000000E+00 0.  1.
      99926    2    1    2    0    0  0.00000000000E+00  0.00000000000E+00 -0.52329870639E+03  0.70720120914E+03  0.47570160195E+03 0.  0.
      99925    2    3    3    0    0  0.22982860277E+02 -0.12965583970E+03 -0.31811166034E+03  0.43317916513E+03  0.26288840223E+03 0.  0.
         25    1    4    4    0    0  0.13224247741E+02 -0.92667762803E+02 -0.12575422928E+03  0.20055879256E+03  0.12509000000E+03 0.  0.
         25    1    3    3    0    0 -0.22982860277E+02  0.12965583970E+03 -0.20518704605E+03  0.27402204401E+03  0.12509000000E+03 0.  0.
         25    1    4    4    0    0  0.97586125363E+01 -0.36988076900E+02 -0.19235743106E+03  0.23262037257E+03  0.12509000000E+03 0.  0.
<mgrwt>
<rscale>  2 0.47570160E+03</rscale>
<asrwt>0</asrwt>
<pdfrwt beam="1">  1       21 0.13522243E-01 0.47570160E+03</pdfrwt>
<pdfrwt beam="2">  1       21 0.90477932E-01 0.47570160E+03</pdfrwt>
<totfact> 0.44761054E+04</totfact>
</mgrwt>
</event>
<event>
 7    0  0.4766352E-002  0.4486631E+03  0.7546771E-02  0.1028121E+00
         21   -1    0    0  502  501  0.00000000000E+00  0.00000000000E+00  0.85150270802E+03  0.85150270802E+03  0.00000000000E+00 0.  1.
         21   -1    0    0  501  502 -0.00000000000E+00 -0.00000000000E+00 -0.59100989069E+02  0.59100989069E+02  0.00000000000E+00 0.  1.
      99926    2    1    2    0    0  0.00000000000E+00  0.17763568394E-14  0.79240171895E+03  0.91060369709E+03  0.44866313528E+03 0.  0.
      99925    2    3    3    0    0 -0.81646903370E+02  0.13415056359E+02  0.36327202093E+03  0.45602038636E+03  0.26294838091E+03 0.  0.
         25    1    4    4    0    0 -0.23599620789E+02  0.29411386982E+02  0.22436645384E+03  0.25963394519E+03  0.12509000000E+03 0.  0.
         25    1    3    3    0    0  0.81646903370E+02 -0.13415056359E+02  0.42912969803E+03  0.45458331073E+03  0.12509000000E+03 0.  0.
         25    1    4    4    0    0 -0.58047282580E+02 -0.15996330623E+02  0.13890556709E+03  0.19638644117E+03  0.12509000000E+03 0.  0.
<mgrwt>
<rscale>  2 0.44866314E+03</rscale>
<asrwt>0</asrwt>
<pdfrwt beam="1">  1       21 0.12522098E+00 0.44866314E+03</pdfrwt>
<pdfrwt beam="2">  1       21 0.86913224E-02 0.44866314E+03</pdfrwt>
<totfact> 0.44966891E+04</totfact>
</mgrwt>
</event>
<event>
 7    0  0.4766352E-002  0.4569957E+03  0.7546771E-02  0.1025656E+00
         21   -1    0    0  502  501  0.00000000000E+00  0.00000000000E+00  0.53786620108E+03  0.53786620108E+03  0.00000000000E+00 0.  1.
         21   -1    0    0  501  502 -0.00000000000E+00 -0.00000000000E+00 -0.97071097332E+02  0.97071097332E+02  0.00000000000E+00 0.  1.
      99926    2    1    2    0    0  0.00000000000E+00  0.00000000000E+00  0.44079510374E+03  0.63493729841E+03  0.45699567769E+03 0.  0.
      99925    2    3    3    0    0 -0.30653071904E+02  0.69644632890E+02  0.39670014576E+03  0.48202601980E+03  0.26303629484E+03 0.  0.
         25    1    4    4    0    0  0.11003224071E+02  0.29425782475E+02  0.24622941610E+03  0.27796291312E+03  0.12509000000E+03 0.  0.
         25    1    3    3    0    0  0.30653071904E+02 -0.69644632890E+02  0.44094957982E+02  0.15291127861E+03  0.12509000000E+03 0.  0.
         25    1    4    4    0    0 -0.41656295976E+02  0.40218850415E+02  0.15047072966E+03  0.20406310668E+03  0.12509000000E+03 0.  0.
<mgrwt>
<rscale>  2 0.45699568E+03</rscale>
<asrwt>0</asrwt>
<pdfrwt beam="1">  1       21 0.79097969E-01 0.45699568E+03</pdfrwt>
<pdfrwt beam="2">  1       21 0.14275162E-01 0.45699568E+03</pdfrwt>
<totfact> 0.55695207E+04</totfact>
</mgrwt>
</event>
<event>
 7    0  0.4766352E-002  0.4554801E+03  0.7546771E-02  0.1026100E+00
         21   -1    0    0  502  501  0.00000000000E+00  0.00000000000E+00  0.45029801246E+03  0.45029801246E+03  0.00000000000E+00 0.  1.
         21   -1    0    0  501  502 -0.00000000000E+00 -0.00000000000E+00 -0.11518046494E+03  0.11518046494E+03  0.00000000000E+00 0.  1.
      99926    2    1    2    0    0 -0.27755575616E-15  0.00000000000E+00  0.33511754752E+03  0.56547847740E+03  0.45548011783E+03 0.  0.
      99925    2    3    3    0    0 -0.37295666474E+00 -0.38840171099E+02  0.34303178386E+03  0.43425789508E+03  0.26343958835E+03 0.  0.
         25    1    3    3    0    0  0.37295666474E+00  0.38840171099E+02 -0.79142363407E+01  0.13122058232E+03  0.12509000000E+03 0.  0.
         25    1    4    4    0    0 -0.44961357317E+01 -0.57771130604E+02  0.20423346187E+03  0.24640725195E+03  0.12509000000E+03 0.  0.
         25    1    4    4    0    0  0.41231790669E+01  0.18930959506E+02  0.13879832199E+03  0.18785064312E+03  0.12509000000E+03 0.  0.
<mgrwt>
<rscale>  2 0.45548012E+03</rscale>
<asrwt>0</asrwt>
<pdfrwt beam="1">  1       21 0.66220295E-01 0.45548012E+03</pdfrwt>
<pdfrwt beam="2">  1       21 0.16938304E-01 0.45548012E+03</pdfrwt>
<totfact> 0.60624594E+04</totfact>
</mgrwt>
</event>
<event>
 7    0  0.4766352E-002  0.4460800E+03  0.7546771E-02  0.1028898E+00
         21   -1    0    0  502  501  0.00000000000E+00  0.00000000000E+00  0.60181926166E+02  0.60181926166E+02  0.00000000000E+00 0. -1.
         21   -1    0    0  501  502 -0.00000000000E+00 -0.00000000000E+00 -0.82660764880E+03  0.82660764880E+03  0.00000000000E+00 0. -1.
      99926    2    1    2    0    0  0.00000000000E+00  0.00000000000E+00 -0.76642572264E+03  0.88678957497E+03  0.44607999502E+03 0.  0.
      99925    2    3    3    0    0  0.97653269062E+02  0.20290373342E+02 -0.42381330823E+03  0.50866441737E+03  0.26300933263E+03 0.  0.
         25    1    4    4    0    0  0.22196677389E+02  0.15591332827E+02 -0.14179955630E+03  0.19102461730E+03  0.12509000000E+03 0.  0.
         25    1    3    3    0    0 -0.97653269062E+02 -0.20290373342E+02 -0.34261241440E+03  0.37812515760E+03  0.12509000000E+03 0.  0.
         25    1    4    4    0    0  0.75456591673E+02  0.46990405155E+01 -0.28201375193E+03  0.31763980007E+03  0.12509000000E+03 0.  0.
<mgrwt>
<rscale>  2 0.44608000E+03</rscale>
<asrwt>0</asrwt>
<pdfrwt beam="1">  1       21 0.88502837E-02 0.44608000E+03</pdfrwt>
<pdfrwt beam="2">  1       21 0.12155994E+00 0.44608000E+03</pdfrwt>
<totfact> 0.47008138E+04</totfact>
</mgrwt>
</event>
<event>
 7    0  0.4766352E-002  0.4560363E+03  0.7546771E-02  0.1025937E+00
         21   -1    0    0  502  501  0.00000000000E+00  0.00000000000E+00  0.25846227745E+04  0.25846227745E+04  0.00000000000E+00 0.  1.
         21   -1    0    0  501  502 -0.00000000000E+00 -0.00000000000E+00 -0.20116000852E+02  0.20116000852E+02  0.00000000000E+00 0.  1.
      99926    2    1    2    0    0  0.00000000000E+00  0.00000000000E+00  0.25645067736E+04  0.26047387753E+04  0.45603628773E+03 0.  0.
      99925    2    3    3    0    0  0.30777278344E+02 -0.62902209257E+02  0.21247431782E+04  0.21421985536E+04  0.26377479177E+03 0.  0.
         25    1    3    3    0    0 -0.30777278344E+02  0.62902209257E+02  0.43976359538E+03  0.46254022172E+03  0.12509000000E+03 0.  0.
         25    1    4    4    0    0  0.52290854654E+02 -0.50204945940E+02  0.10478855724E+04  0.10578121530E+04  0.12509000000E+03 0.  0.
         25    1    4    4    0    0 -0.21513576311E+02 -0.12697263317E+02  0.10768576058E+04  0.10843864006E+04  0.12509000000E+03 0.  0.
<mgrwt>
<rscale>  2 0.45603629E+03</rscale>
<asrwt>0</asrwt>
<pdfrwt beam="1">  1       21 0.38009135E+00 0.45603629E+03</pdfrwt>
<pdfrwt beam="2">  1       21 0.29582372E-02 0.45603629E+03</pdfrwt>
<totfact> 0.60694440E+03</totfact>
</mgrwt>
</event>
<event>
 7    0  0.4766352E-002  0.4539293E+03  0.7546771E-02  0.1026557E+00
         21   -1    0    0  502  501  0.00000000000E+00  0.00000000000E+00  0.43050858230E+02  0.43050858230E+02  0.00000000000E+00 0. -1.
         21   -1    0    0  501  502 -0.00000000000E+00 -0.00000000000E+00 -0.11965605854E+04  0.11965605854E+04  0.00000000000E+00 0. -1.
      99926    2    1    2    0    0  0.71054273576E-14  0.00000000000E+00 -0.11535097272E+04  0.12396114437E+04  0.45392933427E+03 0.  0.
      99925    2    3    3    0    0  0.63573716534E+02  0.90054685713E+02 -0.67124722126E+03  0.72934083253E+03  0.26308507006E+03 0.  0.
         25    1    3    3    0    0 -0.63573716534E+02 -0.90054685713E+02 -0.48226250595E+03  0.51027061115E+03  0.12509000000E+03 0.  0.
         25    1    4    4    0    0  0.29454649802E+02  0.53505739407E+02 -0.23896036101E+03  0.27655018130E+03  0.12509000000E+03 0.  0.
         25    1    4    4    0    0  0.34119066732E+02  0.36548946306E+02 -0.43228686025E+03  0.45279065122E+03  0.12509000000E+03 0.  0.
<mgrwt>
<rscale>  2 0.45392933E+03</rscale>
<asrwt>0</asrwt>
<pdfrwt beam="1">  1       21 0.63310078E-02 0.45392933E+03</pdfrwt>
<pdfrwt beam="2">  1       21 0.17596481E+00 0.45392933E+03</pdfrwt>
<totfact> 0.31179241E+04</totfact>
</mgrwt>
</event>
<event>
 7    0  0.4766352E-002  0.4557807E+03  0.7546771E-02  0.1026012E+00
         21   -1    0    0  502  501  0.00000000000E+00  0.00000000000E+00  0.15649104412E+03  0.15649104412E+03  0.00000000000E+00 0. -1.
         21   -1    0    0  501  502 -0.00000000000E+00 -0.00000000000E+00 -0.33186574286E+03  0.33186574286E+03  0.00000000000E+00 0. -1.
      99926    2    1    2    0    0  0.00000000000E+00  0.00000000000E+00 -0.17537469874E+03  0.48835678698E+03  0.45578072188E+03 0.  0.
      99925    2    3    3    0    0 -0.26430987074E+02  0.67089319614E+02 -0.15234072064E+02  0.27273651359E+03  0.26259008933E+03 0.  0.
         25    1    4    4    0    0  0.59311664025E+01  0.65109684453E+02 -0.24189564429E+02  0.14320297787E+03  0.12509000000E+03 0.  0.
         25    1    4    4    0    0 -0.32362153476E+02  0.19796351606E+01  0.89554923642E+01  0.12953353572E+03  0.12509000000E+03 0.  0.
         25    1    3    3    0    0  0.26430987074E+02 -0.67089319614E+02 -0.16014062667E+03  0.21562027339E+03  0.12509000000E+03 0.  0.
<mgrwt>
<rscale>  2 0.45578072E+03</rscale>
<asrwt>0</asrwt>
<pdfrwt beam="1">  1       21 0.23013389E-01 0.45578072E+03</pdfrwt>
<pdfrwt beam="2">  1       21 0.48803785E-01 0.45578072E+03</pdfrwt>
<totfact> 0.65688563E+04</totfact>
</mgrwt>
</event>
<event>
 7    0  0.4766352E-002  0.4489759E+03  0.7546771E-02  0.1028028E+00
         21   -1    0    0  502  501  0.00000000000E+00  0.00000000000E+00  0.69456334444E+02  0.69456334444E+02  0.00000000000E+00 0.  1.
         21   -1    0    0  501  502 -0.00000000000E+00 -0.00000000000E+00 -0.72556159540E+03  0.72556159540E+03  0.00000000000E+00 0.  1.
      99926    2    1    2    0    0 -0.35527136788E-14  0.00000000000E+00 -0.65610526096E+03  0.79501792985E+03  0.44897594069E+03 0.  0.
      99925    2    3    3    0    0  0.27819574959E+02  0.99476023283E+02 -0.36253391800E+03  0.45960616878E+03  0.26294026074E+03 0.  0.
         25    1    4    4    0    0  0.31676657592E+02  0.82390507943E+02 -0.23202473230E+03  0.27798307670E+03  0.12509000000E+03 0.  0.
         25    1    3    3    0    0 -0.27819574959E+02 -0.99476023283E+02 -0.29357134296E+03  0.33541176107E+03  0.12509000000E+03 0.  0.
         25    1    4    4    0    0 -0.38570826330E+01  0.17085515340E+02 -0.13050918570E+03  0.18162309207E+03  0.12509000000E+03 0.  0.
<mgrwt>
<rscale>  2 0.44897594E+03</rscale>
<asrwt>0</asrwt>
<pdfrwt beam="1">  1       21 0.10214167E-01 0.44897594E+03</pdfrwt>
<pdfrwt beam="2">  1       21 0.10670024E+00 0.44897594E+03</pdfrwt>
<totfact> 0.50345074E+04</totfact>
</mgrwt>
</event>
<event>
 6    0  0.4766352E-002  0.4611645E+03  0.7546771E-02  0.1024444E+00
         21   -1    0    0  502  501  0.00000000000E+00  0.00000000000E+00  0.45265253543E+03  0.45265253543E+03  0.00000000000E+00 0.  1.
         21   -1    0    0  501  502 -0.00000000000E+00 -0.00000000000E+00 -0.11745914292E+03  0.11745914292E+03  0.00000000000E+00 0.  1.
      99926    2    1    2    0    0  0.14210854715E-13  0.35527136788E-14  0.33519339251E+03  0.57011167834E+03  0.46116452097E+03 0.  0.
         25    1    3    3    0    0 -0.41365284423E+02 -0.57711821198E+02  0.94351141043E+02  0.17202147243E+03  0.12509000000E+03 0.  0.
         25    1    3    3    0    0  0.88937092020E+02  0.26580195785E+02  0.20241801775E+03  0.25541510361E+03  0.12509000000E+03 0.  0.
         25    1    3    3    0    0 -0.47571807598E+02  0.31131625413E+02  0.38424233725E+02  0.14267510230E+03  0.12509000000E+03 0.  0.
<mgrwt>
<rscale>  2 0.46116452E+03</rscale>
<asrwt>0</asrwt>
<pdfrwt beam="1">  1       21 0.66566549E-01 0.46116452E+03</pdfrwt>
<pdfrwt beam="2">  1       21 0.17273404E-01 0.46116452E+03</pdfrwt>
<totfact> 0.57692462E+04</totfact>
</mgrwt>
</event>
<event>
 7    0  0.4766352E-002  0.4558295E+03  0.7546771E-02  0.1025998E+00
         21   -1    0    0  502  501  0.00000000000E+00  0.00000000000E+00  0.24594643726E+03  0.24594643726E+03  0.00000000000E+00 0. -1.
         21   -1    0    0  501  502 -0.00000000000E+00 -0.00000000000E+00 -0.21120502815E+03  0.21120502815E+03  0.00000000000E+00 0. -1.
      99926    2    1    2    0    0  0.00000000000E+00 -0.44408920985E-15  0.34741409110E+02  0.45715146541E+03  0.45582946024E+03 0.  0.
      99925    2    3    3    0    0  0.76346773274E+02  0.11830116905E+01 -0.62947548556E+02  0.28102404036E+03  0.26302450092E+03 0.  0.
         25    1    4    4    0    0  0.31467406474E+02 -0.90091713931E+01  0.88962257740E+01  0.12960715170E+03  0.12509000000E+03 0.  0.
         25    1    4    4    0    0  0.44879366800E+02  0.10192183084E+02 -0.71843774331E+02  0.15141688866E+03  0.12509000000E+03 0.  0.
         25    1    3    3    0    0 -0.76346773274E+02 -0.11830116905E+01  0.97688957666E+02  0.17612742505E+03  0.12509000000E+03 0.  0.
<mgrwt>
<rscale>  2 0.45582946E+03</rscale>
<asrwt>0</asrwt>
<pdfrwt beam="1">  1       21 0.36168594E-01 0.45582946E+03</pdfrwt>
<pdfrwt beam="2">  1       21 0.31059563E-01 0.45582946E+03</pdfrwt>
<totfact> 0.67937770E+04</totfact>
</mgrwt>
</event>
<event>
 7    0  0.4766352E-002  0.4612560E+03  0.7546771E-02  0.1024418E+00
         21   -1    0    0  502  501  0.00000000000E+00  0.00000000000E+00  0.12013205521E+03  0.12013205521E+03  0.00000000000E+00 0. -1.
         21   -1    0    0  501  502 -0.00000000000E+00 -0.00000000000E+00 -0.44275672992E+03  0.44275672992E+03  0.00000000000E+00 0. -1.
      99926    2    1    2    0    0  0.14210854715E-13 -0.35527136788E-14 -0.32262467471E+03  0.56288878512E+03  0.46125600667E+03 0.  0.
      99925    2    3    3    0    0  0.11698566866E+03 -0.17815803069E+02 -0.18667999774E+03  0.34349983188E+03  0.26294422114E+03 0.  0.
         25    1    3    3    0    0 -0.11698566866E+03  0.17815803069E+02 -0.13594467697E+03  0.21938895325E+03  0.12509000000E+03 0.  0.
         25    1    4    4    0    0  0.94772614733E+02 -0.32338206895E+02 -0.11070952993E+03  0.19476066401E+03  0.12509000000E+03 0.  0.
         25    1    4    4    0    0  0.22213053929E+02  0.14522403826E+02 -0.75970467812E+02  0.14873916787E+03  0.12509000000E+03 0.  0.
<mgrwt>
<rscale>  2 0.46125601E+03</rscale>
<asrwt>0</asrwt>
<pdfrwt beam="1">  1       21 0.17666479E-01 0.46125601E+03</pdfrwt>
<pdfrwt beam="2">  1       21 0.65111284E-01 0.46125601E+03</pdfrwt>
<totfact> 0.58094361E+04</totfact>
</mgrwt>
</event>
<event>
 7    0  0.4766352E-002  0.5273643E+03  0.7546771E-02  0.1006873E+00
         21   -1    0    0  502  501  0.00000000000E+00  0.00000000000E+00  0.74651307955E+02  0.74651307955E+02  0.00000000000E+00 0. -1.
         21   -1    0    0  501  502 -0.00000000000E+00 -0.00000000000E+00 -0.93137369099E+03  0.93137369099E+03  0.00000000000E+00 0. -1.
      99926    2    1    2    0    0  0.00000000000E+00  0.00000000000E+00 -0.85672238303E+03  0.10060249989E+04  0.52736425449E+03 0.  0.
      99925    2    3    3    0    0  0.10148653028E+03  0.11278146783E+03 -0.66687101430E+03  0.73269328541E+03  0.26287511380E+03 0.  0.
         25    1    4    4    0    0  0.12461455069E+02  0.70285487389E+02 -0.32944947170E+03  0.35955500289E+03  0.12509000000E+03 0.  0.
         25    1    3    3    0    0 -0.10148653028E+03 -0.11278146783E+03 -0.18985136874E+03  0.27333171354E+03  0.12509000000E+03 0.  0.
         25    1    4    4    0    0  0.89025075209E+02  0.42495980446E+02 -0.33742154259E+03  0.37313828251E+03  0.12509000000E+03 0.  0.
<mgrwt>
<rscale>  2 0.52736425E+03</rscale>
<asrwt>0</asrwt>
<pdfrwt beam="1">  1       21 0.10978134E-01 0.52736425E+03</pdfrwt>
<pdfrwt beam="2">  1       21 0.13696672E+00 0.52736425E+03</pdfrwt>
<totfact> 0.22946590E+04</totfact>
</mgrwt>
</event>
<event>
 7    0  0.4766352E-002  0.4492912E+03  0.7546771E-02  0.1027934E+00
         21   -1    0    0  502  501  0.00000000000E+00  0.00000000000E+00  0.17563969950E+03  0.17563969950E+03  0.00000000000E+00 0.  1.
         21   -1    0    0  501  502 -0.00000000000E+00 -0.00000000000E+00 -0.28732482583E+03  0.28732482583E+03  0.00000000000E+00 0.  1.
      99926    2    1    2    0    0  0.00000000000E+00  0.00000000000E+00 -0.11168512633E+03  0.46296452534E+03  0.44929120209E+03 0.  0.
      99925    2    3    3    0    0  0.71581628601E+02 -0.72282311056E+02 -0.34016332866E+02  0.28399913309E+03  0.26296337130E+03 0.  0.
         25    1    3    3    0    0 -0.71581628601E+02  0.72282311056E+02 -0.77668793464E+02  0.17896539225E+03  0.12509000000E+03 0.  0.
         25    1    4    4    0    0  0.17166702442E+02 -0.35298993524E+02  0.20139230537E+02  0.13264166511E+03  0.12509000000E+03 0.  0.
         25    1    4    4    0    0  0.54414926159E+02 -0.36983317531E+02 -0.54155563403E+02  0.15135746798E+03  0.12509000000E+03 0.  0.
<mgrwt>
<rscale>  2 0.44929120E+03</rscale>
<asrwt>0</asrwt>
<pdfrwt beam="1">  1       21 0.25829368E-01 0.44929120E+03</pdfrwt>
<pdfrwt beam="2">  1       21 0.42253651E-01 0.44929120E+03</pdfrwt>
<totfact> 0.71129555E+04</totfact>
</mgrwt>
</event>
<event>
 7    0  0.4766352E-002  0.4543317E+03  0.7546771E-02  0.1026438E+00
         21   -1    0    0  502  501  0.00000000000E+00  0.00000000000E+00  0.23799381190E+03  0.23799381190E+03  0.00000000000E+00 0.  1.
         21   -1    0    0  501  502 -0.00000000000E+00 -0.00000000000E+00 -0.21683052971E+03  0.21683052971E+03  0.00000000000E+00 0.  1.
      99926    2    1    2    0    0  0.00000000000E+00  0.00000000000E+00  0.21163282183E+02  0.45482434161E+03  0.45433170394E+03 0.  0.
      99925    2    3    3    0    0 -0.81625478940E+02  0.43258338858E+02  0.77709375005E+02  0.28935841942E+03  0.26297441935E+03 0.  0.
         25    1    3    3    0    0  0.81625478940E+02 -0.43258338858E+02 -0.56546092823E+02  0.16546592219E+03  0.12509000000E+03 0.  0.
         25    1    4    4    0    0  0.40581193205E+00  0.11435370956E+02  0.29868251674E+02  0.12911449551E+03  0.12509000000E+03 0.  0.
         25    1    4    4    0    0 -0.82031290872E+02  0.31822967901E+02  0.47841123331E+02  0.16024392391E+03  0.12509000000E+03 0.  0.
<mgrwt>
<rscale>  2 0.45433170E+03</rscale>
<asrwt>0</asrwt>
<pdfrwt beam="1">  1       21 0.34999090E-01 0.45433170E+03</pdfrwt>
<pdfrwt beam="2">  1       21 0.31886842E-01 0.45433170E+03</pdfrwt>
<totfact> 0.68925483E+04</totfact>
</mgrwt>
</event>
<event>
 6    0  0.4766352E-002  0.4449529E+03  0.7546771E-02  0.1029238E+00
         21   -1    0    0  502  501  0.00000000000E+00  0.00000000000E+00  0.18031817413E+03  0.18031817413E+03  0.00000000000E+00 0.  1.
         21   -1    0    0  501  502 -0.00000000000E+00 -0.00000000000E+00 -0.27449125302E+03  0.27449125302E+03  0.00000000000E+00 0.  1.
      99926    2    1    2    0    0  0.00000000000E+00  0.00000000000E+00 -0.94173078886E+02  0.45480942716E+03  0.44495285845E+03 0.  0.
         25    1    3    3    0    0  0.59726191525E+02 -0.62305212833E+01  0.23153629834E+02  0.14067564119E+03  0.12509000000E+03 0.  0.
         25    1    3    3    0    0 -0.98799616099E+02 -0.57767358130E+01 -0.71311263048E+02  0.17472131855E+03  0.12509000000E+03 0.  0.
         25    1    3    3    0    0  0.39073424574E+02  0.12007257096E+02 -0.46015445672E+02  0.13941246742E+03  0.12509000000E+03 0.  0.
<mgrwt>
<rscale>  2 0.44495286E+03</rscale>
<asrwt>0</asrwt>
<pdfrwt beam="1">  1       21 0.26517379E-01 0.44495286E+03</pdfrwt>
<pdfrwt beam="2">  1       21 0.40366361E-01 0.44495286E+03</pdfrwt>
<totfact> 0.74332271E+04</totfact>
</mgrwt>
</event>
<event>
 7    0  0.4766352E-002  0.4516253E+03  0.7546771E-02  0.1027238E+00
         21   -1    0    0  502  501  0.00000000000E+00  0.00000000000E+00  0.60253845013E+03  0.60253845013E+03  0.00000000000E+00 0. -1.
         21   -1    0    0  501  502 -0.00000000000E+00 -0.00000000000E+00 -0.84627549369E+02  0.84627549369E+02  0.00000000000E+00 0. -1.
      99926    2    1    2    0    0 -0.88817841970E-15  0.71054273576E-14  0.51791090076E+03  0.68716599950E+03  0.45162529794E+03 0.  0.
      99925    2    3    3    0    0 -0.42508886294E+01  0.45560936854E+02  0.17498451652E+03  0.31928030784E+03  0.26310922624E+03 0.  0.
         25    1    4    4    0    0 -0.24742324373E+02  0.55160637266E+02  0.77522110896E+02  0.15909765648E+03  0.12509000000E+03 0.  0.
         25    1    3    3    0    0  0.42508886294E+01 -0.45560936854E+02  0.34292638424E+03  0.36788569166E+03  0.12509000000E+03 0.  0.
         25    1    4    4    0    0  0.20491435743E+02 -0.95997004115E+01  0.97462405627E+02  0.16018265136E+03  0.12509000000E+03 0.  0.
<mgrwt>
<rscale>  2 0.45162530E+03</rscale>
<asrwt>0</asrwt>
<pdfrwt beam="1">  1       21 0.88608594E-01 0.45162530E+03</pdfrwt>
<pdfrwt beam="2">  1       21 0.12445228E-01 0.45162530E+03</pdfrwt>
<totfact> 0.55053597E+04</totfact>
</mgrwt>
</event>
<event>
 7    0  0.4766352E-002  0.4627249E+03  0.7546771E-02  0.1023994E+00
         21   -1    0    0  502  501  0.00000000000E+00  0.00000000000E+00  0.43053773582E+02  0.43053773582E+02  0.00000000000E+00 0. -1.
         21   -1    0    0  501  502 -0.00000000000E+00 -0.00000000000E+00 -0.12432960054E+04  0.12432960054E+04  0.00000000000E+00 0. -1.
      99926    2    1    2    0    0  0.00000000000E+00  0.00000000000E+00 -0.12002422318E+04  0.12863497789E+04  0.46272490622E+03 0.  0.
      99925    2    3    3    0    0  0.68109331111E+02 -0.56260420078E+02 -0.97691736402E+03  0.10155627399E+04  0.26305137654E+03 0.  0.
         25    1    4    4    0    0  0.38453700372E+02 -0.64412964058E+02 -0.44617244688E+03  0.46940928566E+03  0.12509000000E+03 0.  0.
         25    1    4    4    0    0  0.29655630739E+02  0.81525439800E+01 -0.53074491715E+03  0.54615345425E+03  0.12509000000E+03 0.  0.
         25    1    3    3    0    0 -0.68109331111E+02  0.56260420078E+02 -0.22332486774E+03  0.27078703903E+03  0.12509000000E+03 0.  0.
<mgrwt>
<rscale>  2 0.46272491E+03</rscale>
<asrwt>0</asrwt>
<pdfrwt beam="1">  1       21 0.63314379E-02 0.46272491E+03</pdfrwt>
<pdfrwt beam="2">  1       21 0.18283763E+00 0.46272491E+03</pdfrwt>
<totfact> 0.27804430E+04</totfact>
</mgrwt>
</event>
<event>
 7    0  0.4766352E-002  0.4534125E+03  0.7546771E-02  0.1026709E+00
         21   -1    0    0  502  501  0.00000000000E+00  0.00000000000E+00  0.48674262499E+03  0.48674262499E+03  0.00000000000E+00 0. -1.
         21   -1    0    0  501  502 -0.00000000000E+00 -0.00000000000E+00 -0.10559117245E+03  0.10559117245E+03  0.00000000000E+00 0. -1.
      99926    2    1    2    0    0  0.00000000000E+00 -0.14210854715E-13  0.38115145254E+03  0.59233379743E+03  0.45341250292E+03 0.  0.
      99925    2    3    3    0    0  0.72337920574E+02  0.75433434134E+02  0.18889977189E+03  0.34027984576E+03  0.26302903238E+03 0.  0.
         25    1    3    3    0    0 -0.72337920574E+02 -0.75433434134E+02  0.19225168065E+03  0.25205395167E+03  0.12509000000E+03 0.  0.
         25    1    4    4    0    0  0.46533046803E+02  0.71046953244E+02  0.73613838345E+02  0.16816509539E+03  0.12509000000E+03 0.  0.
         25    1    4    4    0    0  0.25804873770E+02  0.43864808891E+01  0.11528593354E+03  0.17211475038E+03  0.12509000000E+03 0.  0.
<mgrwt>
<rscale>  2 0.45341250E+03</rscale>
<asrwt>0</asrwt>
<pdfrwt beam="1">  1       21 0.71579797E-01 0.45341250E+03</pdfrwt>
<pdfrwt beam="2">  1       21 0.15528114E-01 0.45341250E+03</pdfrwt>
<totfact> 0.59900616E+04</totfact>
</mgrwt>
</event>
<event>
 7    0  0.4766352E-002  0.4480186E+03  0.7546771E-02  0.1028315E+00
         21   -1    0    0  502  501  0.00000000000E+00  0.00000000000E+00  0.15522260253E+02  0.15522260253E+02  0.00000000000E+00 0.  1.
         21   -1    0    0  501  502 -0.00000000000E+00 -0.00000000000E+00 -0.32327875882E+04  0.32327875882E+04  0.00000000000E+00 0.  1.
      99926    2    1    2    0    0 -0.14210854715E-13  0.00000000000E+00 -0.32172653280E+04  0.32483098485E+04  0.44801861697E+03 0.  0.
      99925    2    3    3    0    0 -0.77024460322E+02  0.68846688481E+02 -0.18099389129E+04  0.18316631810E+04  0.26160754186E+03 0.  0.
         25    1    3    3    0    0  0.77024460322E+02 -0.68846688481E+02 -0.14073264150E+04  0.14166466675E+04  0.12509000000E+03 0.  0.
         25    1    4    4    0    0 -0.27063294075E+01  0.14582013179E+02 -0.80304809562E+03  0.81286758535E+03  0.12509000000E+03 0.  0.
         25    1    4    4    0    0 -0.74318130914E+02  0.54264675301E+02 -0.10068908173E+04  0.10187955956E+04  0.12509000000E+03 0.  0.
<mgrwt>
<rscale>  2 0.44801862E+03</rscale>
<asrwt>0</asrwt>
<pdfrwt beam="1">  1       21 0.22826852E-02 0.44801862E+03</pdfrwt>
<pdfrwt beam="2">  1       21 0.47540996E+00 0.44801862E+03</pdfrwt>
<totfact> 0.22032100E+03</totfact>
</mgrwt>
</event>
<event>
 7    0  0.4766352E-002  0.4466152E+03  0.7546771E-02  0.1028736E+00
         21   -1    0    0  502  501  0.00000000000E+00  0.00000000000E+00  0.40100949135E+03  0.40100949135E+03  0.00000000000E+00 0.  1.
         21   -1    0    0  501  502 -0.00000000000E+00 -0.00000000000E+00 -0.12435189104E+03  0.12435189104E+03  0.00000000000E+00 0.  1.
      99926    2    1    2    0    0  0.71054273576E-14 -0.71054273576E-14  0.27665760031E+03  0.52536138239E+03  0.44661521951E+03 0.  0.
      99925    2    3    3    0    0 -0.57493690121E+02  0.53153713611E+02  0.25779745844E+03  0.37658620057E+03  0.26310985388E+03 0.  0.
         25    1    4    4    0    0 -0.55732571059E+02  0.23597966484E+02  0.17589941598E+03  0.22416756265E+03  0.12509000000E+03 0.  0.
         25    1    3    3    0    0  0.57493690121E+02 -0.53153713611E+02  0.18860141870E+02  0.14877518182E+03  0.12509000000E+03 0.  0.
         25    1    4    4    0    0 -0.17611190624E+01  0.29555747128E+02  0.81898042459E+02  0.15241863793E+03  0.12509000000E+03 0.  0.
<mgrwt>
<rscale>  2 0.44661522E+03</rscale>
<asrwt>0</asrwt>
<pdfrwt beam="1">  1       21 0.58971984E-01 0.44661522E+03</pdfrwt>
<pdfrwt beam="2">  1       21 0.18287043E-01 0.44661522E+03</pdfrwt>
<totfact> 0.67922261E+04</totfact>
</mgrwt>
</event>
<event>
 7    0  0.4766352E-002  0.4518876E+03  0.7546771E-02  0.1027161E+00
         21   -1    0    0  502  501  0.00000000000E+00  0.00000000000E+00  0.31193040338E+03  0.31193040338E+03  0.00000000000E+00 0. -1.
         21   -1    0    0  501  502 -0.00000000000E+00 -0.00000000000E+00 -0.16366024184E+03  0.16366024184E+03  0.00000000000E+00 0. -1.
      99926    2    1    2    0    0 -0.71054273576E-14 -0.14210854715E-13  0.14827016153E+03  0.47559064522E+03  0.45188761990E+03 0.  0.
      99925    2    3    3    0    0 -0.43807247894E+02 -0.65801674361E+02  0.12771967826E+02  0.27495115780E+03  0.26303247080E+03 0.  0.
         25    1    4    4    0    0 -0.46938346249E+02 -0.15108554272E+01  0.13257081432E+02  0.13427117837E+03  0.12509000000E+03 0.  0.
         25    1    4    4    0    0  0.31310983550E+01 -0.64290818934E+02 -0.48511360590E+00  0.14067997943E+03  0.12509000000E+03 0.  0.
         25    1    3    3    0    0  0.43807247894E+02  0.65801674361E+02  0.13549819371E+03  0.20063948743E+03  0.12509000000E+03 0.  0.
<mgrwt>
<rscale>  2 0.45188762E+03</rscale>
<asrwt>0</asrwt>
<pdfrwt beam="1">  1       21 0.45872118E-01 0.45188762E+03</pdfrwt>
<pdfrwt beam="2">  1       21 0.24067683E-01 0.45188762E+03</pdfrwt>
<totfact> 0.68703996E+04</totfact>
</mgrwt>
</event>
<event>
 7    0  0.4766352E-002  0.4415016E+03  0.7546771E-02  0.1030287E+00
         21   -1    0    0  502  501  0.00000000000E+00  0.00000000000E+00  0.38916223050E+03  0.38916223050E+03  0.00000000000E+00 0.  1.
         21   -1    0    0  501  502 -0.00000000000E+00 -0.00000000000E+00 -0.12522006376E+03  0.12522006376E+03  0.00000000000E+00 0.  1.
      99926    2    1    2    0    0 -0.14210854715E-13  0.00000000000E+00  0.26394216674E+03  0.51438229425E+03  0.44150161637E+03 0.  0.
      99925    2    3    3    0    0  0.64927144993E+02 -0.40358112725E+02  0.24319943265E+03  0.36632122396E+03  0.26306076040E+03 0.  0.
         25    1    4    4    0    0  0.21043908761E+02 -0.57073102527E+02  0.10665907590E+03  0.17528220588E+03  0.12509000000E+03 0.  0.
         25    1    4    4    0    0  0.43883236231E+02  0.16714989802E+02  0.13654035675E+03  0.19103901808E+03  0.12509000000E+03 0.  0.
         25    1    3    3    0    0 -0.64927144993E+02  0.40358112725E+02  0.20742734090E+02  0.14806107030E+03  0.12509000000E+03 0.  0.
<mgrwt>
<rscale>  2 0.44150162E+03</rscale>
<asrwt>0</asrwt>
<pdfrwt beam="1">  1       21 0.57229739E-01 0.44150162E+03</pdfrwt>
<pdfrwt beam="2">  1       21 0.18414715E-01 0.44150162E+03</pdfrwt>
<totfact> 0.71639402E+04</totfact>
</mgrwt>
</event>
<event>
 7    0  0.4766352E-002  0.4459028E+03  0.7546771E-02  0.1028951E+00
         21   -1    0    0  502  501  0.00000000000E+00  0.00000000000E+00  0.24430378704E+03  0.24430378704E+03  0.00000000000E+00 0.  1.
         21   -1    0    0  501  502 -0.00000000000E+00 -0.00000000000E+00 -0.20346520897E+03  0.20346520897E+03  0.00000000000E+00 0.  1.
      99926    2    1    2    0    0  0.35527136788E-14 -0.14210854715E-13  0.40838578069E+02  0.44776899601E+03  0.44590277453E+03 0.  0.
      99925    2    3    3    0    0  0.30387499004E+02 -0.73344458304E+02  0.94088941255E+02  0.29033355229E+03  0.26294112090E+03 0.  0.
         25    1    3    3    0    0 -0.30387499004E+02  0.73344458304E+02 -0.53250363185E+02  0.15743544372E+03  0.12509000000E+03 0.  0.
         25    1    4    4    0    0  0.24718115020E+02 -0.67866389328E+02  0.77440869551E+02  0.16389456485E+03  0.12509000000E+03 0.  0.
         25    1    4    4    0    0  0.56693839840E+01 -0.54780689758E+01  0.16648071704E+02  0.12643898744E+03  0.12509000000E+03 0.  0.
<mgrwt>
<rscale>  2 0.44590277E+03</rscale>
<asrwt>0</asrwt>
<pdfrwt beam="1">  1       21 0.35927028E-01 0.44590277E+03</pdfrwt>
<pdfrwt beam="2">  1       21 0.29921354E-01 0.44590277E+03</pdfrwt>
<totfact> 0.74329131E+04</totfact>
</mgrwt>
</event>
<event>
 7    0  0.4766352E-002  0.4490435E+03  0.7546771E-02  0.1028008E+00
         21   -1    0    0  502  501  0.00000000000E+00  0.00000000000E+00  0.56577279204E+02  0.56577279204E+02  0.00000000000E+00 0. -1.
         21   -1    0    0  501  502 -0.00000000000E+00 -0.00000000000E+00 -0.89099385582E+03  0.89099385582E+03  0.00000000000E+00 0. -1.
      99926    2    1    2    0    0  0.71054273576E-14 -0.14210854715E-13 -0.83441657662E+03  0.94757113503E+03  0.44904346404E+03 0.  0.
      99925    2    3    3    0    0 -0.53428600651E+02  0.88116062719E+02 -0.46308374439E+03  0.54241112187E+03  0.26295287587E+03 0.  0.
         25    1    4    4    0    0 -0.27935811203E+02  0.32266462636E+02 -0.15126056627E+03  0.20087011019E+03  0.12509000000E+03 0.  0.
         25    1    4    4    0    0 -0.25492789448E+02  0.55849600083E+02 -0.31182317812E+03  0.34154101168E+03  0.12509000000E+03 0.  0.
         25    1    3    3    0    0  0.53428600651E+02 -0.88116062719E+02 -0.37133283223E+03  0.40516001316E+03  0.12509000000E+03 0.  0.
<mgrwt>
<rscale>  2 0.44904346E+03</rscale>
<asrwt>0</asrwt>
<pdfrwt beam="1">  1       21 0.83201892E-02 0.44904346E+03</pdfrwt>
<pdfrwt beam="2">  1       21 0.13102849E+00 0.44904346E+03</pdfrwt>
<totfact> 0.43217526E+04</totfact>
</mgrwt>
</event>
<event>
 7    0  0.4766352E-002  0.4581982E+03  0.7546771E-02  0.1025305E+00
         21   -1    0    0  502  501  0.00000000000E+00  0.00000000000E+00  0.21423411212E+03  0.21423411212E+03  0.00000000000E+00 0. -1.
         21   -1    0    0  501  502 -0.00000000000E+00 -0.00000000000E+00 -0.24499553773E+03  0.24499553773E+03  0.00000000000E+00 0. -1.
      99926    2    1    2    0    0  0.00000000000E+00 -0.14210854715E-13 -0.30761425602E+02  0.45922964985E+03  0.45819821693E+03 0.  0.
      99925    2    3    3    0    0 -0.53121832846E+02 -0.94946507271E+02 -0.59612142029E+02  0.29095416053E+03  0.26318044700E+03 0.  0.
         25    1    4    4    0    0 -0.45985712218E+02 -0.15357041097E+02 -0.10337931967E+02  0.13455446993E+03  0.12509000000E+03 0.  0.
         25    1    3    3    0    0  0.53121832846E+02  0.94946507271E+02  0.28850716428E+02  0.16827548932E+03  0.12509000000E+03 0.  0.
         25    1    4    4    0    0 -0.71361206277E+01 -0.79589466174E+02 -0.49274210063E+02  0.15639969060E+03  0.12509000000E+03 0.  0.
<mgrwt>
<rscale>  2 0.45819822E+03</rscale>
<asrwt>0</asrwt>
<pdfrwt beam="1">  1       21 0.31505017E-01 0.45819822E+03</pdfrwt>
<pdfrwt beam="2">  1       21 0.36028755E-01 0.45819822E+03</pdfrwt>
<totfact> 0.66523265E+04</totfact>
</mgrwt>
</event>
<event>
 7    0  0.4766352E-002  0.4477569E+03  0.7546771E-02  0.1028393E+00
         21   -1    0    0  502  501  0.00000000000E+00  0.00000000000E+00  0.17819191640E+04  0.17819191640E+04  0.00000000000E+00 0. -1.
         21   -1    0    0  501  502 -0.00000000000E+00 -0.00000000000E+00 -0.28127850142E+02  0.28127850142E+02  0.00000000000E+00 0. -1.
      99926    2    1    2    0    0  0.00000000000E+00  0.00000000000E+00  0.17537913139E+04  0.18100470142E+04  0.44775687693E+03 0.  0.
      99925    2    3    3    0    0  0.27914416521E+02  0.78452473276E+02  0.84291185197E+03  0.88685531823E+03  0.26282686329E+03 0.  0.
         25    1    4    4    0    0  0.29353705101E+02  0.16947585787E+02  0.30972704605E+03  0.33574873316E+03  0.12509000000E+03 0.  0.
         25    1    3    3    0    0 -0.27914416521E+02 -0.78452473276E+02  0.91087946193E+03  0.92319169595E+03  0.12509000000E+03 0.  0.
         25    1    4    4    0    0 -0.14392885805E+01  0.61504887490E+02  0.53318480592E+03  0.55110658506E+03  0.12509000000E+03 0.  0.
<mgrwt>
<rscale>  2 0.44775688E+03</rscale>
<asrwt>0</asrwt>
<pdfrwt beam="1">  1       21 0.26204686E+00 0.44775688E+03</pdfrwt>
<pdfrwt beam="2">  1       21 0.41364498E-02 0.44775688E+03</pdfrwt>
<totfact> 0.18061424E+04</totfact>
</mgrwt>
</event>
<event>
 7    0  0.4766352E-002  0.4545881E+03  0.7546771E-02  0.1026363E+00
         21   -1    0    0  502  501  0.00000000000E+00  0.00000000000E+00  0.43073533273E+02  0.43073533273E+02  0.00000000000E+00 0. -1.
         21   -1    0    0  501  502 -0.00000000000E+00 -0.00000000000E+00 -0.11994041537E+04  0.11994041537E+04  0.00000000000E+00 0. -1.
      99926    2    1    2    0    0  0.00000000000E+00  0.00000000000E+00 -0.11563306204E+04  0.12424776870E+04  0.45458805405E+03 0.  0.
      99925    2    3    3    0    0 -0.59473441100E+02 -0.88538787963E+02 -0.82799499451E+03  0.87528836453E+03  0.26301673516E+03 0.  0.
         25    1    4    4    0    0 -0.29310080395E+02 -0.85802792843E+02 -0.42272027716E+03  0.45006792920E+03  0.12509000000E+03 0.  0.
         25    1    4    4    0    0 -0.30163360705E+02 -0.27359951199E+01 -0.40527471735E+03  0.42522043533E+03  0.12509000000E+03 0.  0.
         25    1    3    3    0    0  0.59473441100E+02  0.88538787963E+02 -0.32833562592E+03  0.36718932245E+03  0.12509000000E+03 0.  0.
<mgrwt>
<rscale>  2 0.45458805E+03</rscale>
<asrwt>0</asrwt>
<pdfrwt beam="1">  1       21 0.63343420E-02 0.45458805E+03</pdfrwt>
<pdfrwt beam="2">  1       21 0.17638299E+00 0.45458805E+03</pdfrwt>
<totfact> 0.30931152E+04</totfact>
</mgrwt>
</event>
<event>
 7    0  0.4766352E-002  0.4555440E+03  0.7546771E-02  0.1026082E+00
         21   -1    0    0  502  501  0.00000000000E+00  0.00000000000E+00  0.13018935022E+03  0.13018935022E+03  0.00000000000E+00 0.  1.
         21   -1    0    0  501  502 -0.00000000000E+00 -0.00000000000E+00 -0.39849712551E+03  0.39849712551E+03  0.00000000000E+00 0.  1.
      99926    2    1    2    0    0 -0.14210854715E-13 -0.35527136788E-14 -0.26830777529E+03  0.52868647573E+03  0.45554399056E+03 0.  0.
      99925    2    3    3    0    0  0.94375082550E+02 -0.11735093060E+02 -0.24100134846E+03  0.36919504128E+03  0.26301893455E+03 0.  0.
         25    1    3    3    0    0 -0.94375082550E+02  0.11735093060E+02 -0.27306426838E+02  0.15949143445E+03  0.12509000000E+03 0.  0.
         25    1    4    4    0    0  0.23015180715E+02 -0.33107472655E+02 -0.89061921325E+02  0.15876188843E+03  0.12509000000E+03 0.  0.
         25    1    4    4    0    0  0.71359901835E+02  0.21372379594E+02 -0.15193942713E+03  0.21043315285E+03  0.12509000000E+03 0.  0.
<mgrwt>
<rscale>  2 0.45554399E+03</rscale>
<asrwt>0</asrwt>
<pdfrwt beam="1">  1       21 0.19145493E-01 0.45554399E+03</pdfrwt>
<pdfrwt beam="2">  1       21 0.58602518E-01 0.45554399E+03</pdfrwt>
<totfact> 0.63023356E+04</totfact>
</mgrwt>
</event>
<event>
 7    0  0.4766352E-002  0.4365852E+03  0.7546771E-02  0.1031800E+00
         21   -1    0    0  502  501  0.00000000000E+00  0.00000000000E+00  0.12148389214E+03  0.12148389214E+03  0.00000000000E+00 0. -1.
         21   -1    0    0  501  502 -0.00000000000E+00 -0.00000000000E+00 -0.39224671702E+03  0.39224671702E+03  0.00000000000E+00 0. -1.
      99926    2    1    2    0    0  0.00000000000E+00 -0.44408920985E-15 -0.27076282488E+03  0.51373060916E+03  0.43658519381E+03 0.  0.
      99925    2    3    3    0    0  0.72666409791E+02 -0.35976768793E+01 -0.10141455095E+03  0.29097581937E+03  0.26284722925E+03 0.  0.
         25    1    3    3    0    0 -0.72666409791E+02  0.35976768793E+01 -0.16934827393E+03  0.22275478979E+03  0.12509000000E+03 0.  0.
         25    1    4    4    0    0  0.69908988651E+02 -0.25171497895E+02 -0.47686442485E+02  0.15310903271E+03  0.12509000000E+03 0.  0.
         25    1    4    4    0    0  0.27574211396E+01  0.21573821015E+02 -0.53728108462E+02  0.13786678666E+03  0.12509000000E+03 0.  0.
<mgrwt>
<rscale>  2 0.43658519E+03</rscale>
<asrwt>0</asrwt>
<pdfrwt beam="1">  1       21 0.17865278E-01 0.43658519E+03</pdfrwt>
<pdfrwt beam="2">  1       21 0.57683340E-01 0.43658519E+03</pdfrwt>
<totfact> 0.74631022E+04</totfact>
</mgrwt>
</event>
<event>
 7    0  0.4766352E-002  0.4565341E+03  0.7546771E-02  0.1025791E+00
         21   -1    0    0  502  501  0.00000000000E+00  0.00000000000E+00  0.20781571311E+04  0.20781571311E+04  0.00000000000E+00 0.  1.
         21   -1    0    0  501  502 -0.00000000000E+00 -0.00000000000E+00 -0.25073103520E+02  0.25073103520E+02  0.00000000000E+00 0.  1.
      99926    2    1    2    0    0  0.00000000000E+00  0.00000000000E+00  0.20530840276E+04  0.21032302346E+04  0.45653411210E+03 0.  0.
      99925    2    3    3    0    0  0.70439407876E+02 -0.36194748337E+02  0.90664071451E+03  0.94726676281E+03  0.26276446624E+03 0.  0.
         25    1    3    3    0    0 -0.70439407876E+02  0.36194748337E+02  0.11464433130E+04  0.11559634718E+04  0.12509000000E+03 0.  0.
         25    1    4    4    0    0  0.71731252540E+02 -0.13584658342E+02  0.54570953509E+03  0.56460279872E+03  0.12509000000E+03 0.  0.
         25    1    4    4    0    0 -0.12918446636E+01 -0.22610089995E+02  0.36093117942E+03  0.38266396409E+03  0.12509000000E+03 0.  0.
<mgrwt>
<rscale>  2 0.45653411E+03</rscale>
<asrwt>0</asrwt>
<pdfrwt beam="1">  1       21 0.30561123E+00 0.45653411E+03</pdfrwt>
<pdfrwt beam="2">  1       21 0.36872225E-02 0.45653411E+03</pdfrwt>
<totfact> 0.11953576E+04</totfact>
</mgrwt>
</event>
<event>
 7    0  0.4766352E-002  0.4453394E+03  0.7546771E-02  0.1029121E+00
         21   -1    0    0  502  501  0.00000000000E+00  0.00000000000E+00  0.26511913582E+03  0.26511913582E+03  0.00000000000E+00 0.  1.
         21   -1    0    0  501  502 -0.00000000000E+00 -0.00000000000E+00 -0.18701701551E+03  0.18701701551E+03  0.00000000000E+00 0.  1.
      99926    2    1    2    0    0  0.00000000000E+00 -0.35527136788E-14  0.78102120309E+02  0.45213615132E+03  0.44533937412E+03 0.  0.
      99925    2    3    3    0    0  0.20360409680E+02 -0.95425299591E+01  0.15251601893E+03  0.30485905681E+03  0.26300627812E+03 0.  0.
         25    1    4    4    0    0  0.10431706755E+02 -0.31363648524E+02  0.11222083527E+03  0.17127032120E+03  0.12509000000E+03 0.  0.
         25    1    4    4    0    0  0.99287029246E+01  0.21821118564E+02  0.40295183658E+02  0.13358873561E+03  0.12509000000E+03 0.  0.
         25    1    3    3    0    0 -0.20360409680E+02  0.95425299591E+01 -0.74413898618E+02  0.14727709451E+03  0.12509000000E+03 0.  0.
<mgrwt>
<rscale>  2 0.44533937E+03</rscale>
<asrwt>0</asrwt>
<pdfrwt beam="1">  1       21 0.38988108E-01 0.44533937E+03</pdfrwt>
<pdfrwt beam="2">  1       21 0.27502502E-01 0.44533937E+03</pdfrwt>
<totfact> 0.74319802E+04</totfact>
</mgrwt>
</event>
<event>
 7    0  0.4766352E-002  0.4593869E+03  0.7546771E-02  0.1024959E+00
         21   -1    0    0  502  501  0.00000000000E+00  0.00000000000E+00  0.42062352373E+03  0.42062352373E+03  0.00000000000E+00 0.  1.
         21   -1    0    0  501  502 -0.00000000000E+00 -0.00000000000E+00 -0.12543062987E+03  0.12543062987E+03  0.00000000000E+00 0.  1.
      99926    2    1    2    0    0  0.88817841970E-15  0.00000000000E+00  0.29519289386E+03  0.54605415361E+03  0.45938686756E+03 0.  0.
      99925    2    3    3    0    0  0.76572792207E+01  0.23691148315E+02  0.48872068109E+02  0.26867109404E+03  0.26301287668E+03 0.  0.
         25    1    4    4    0    0  0.10631936052E+02 -0.21857425570E+02  0.46013190613E+02  0.13548249676E+03  0.12509000000E+03 0.  0.
         25    1    3    3    0    0 -0.76572792207E+01 -0.23691148315E+02  0.24632082575E+03  0.27738305957E+03  0.12509000000E+03 0.  0.
         25    1    4    4    0    0 -0.29746568317E+01  0.45548573884E+02  0.28588774954E+01  0.13318859728E+03  0.12509000000E+03 0.  0.
<mgrwt>
<rscale>  2 0.45938687E+03</rscale>
<asrwt>0</asrwt>
<pdfrwt beam="1">  1       21 0.61856400E-01 0.45938687E+03</pdfrwt>
<pdfrwt beam="2">  1       21 0.18445681E-01 0.45938687E+03</pdfrwt>
<totfact> 0.60017377E+04</totfact>
</mgrwt>
</event>
<event>
 7    0  0.4766352E-002  0.4540613E+03  0.7546771E-02  0.1026518E+00
         21   -1    0    0  502  501  0.00000000000E+00  0.00000000000E+00  0.31272378121E+04  0.31272378121E+04  0.00000000000E+00 0. -1.
         21   -1    0    0  501  502 -0.00000000000E+00 -0.00000000000E+00 -0.16481926963E+02  0.16481926963E+02  0.00000000000E+00 0. -1.
      99926    2    1    2    0    0  0.35527136788E-14  0.00000000000E+00  0.31107558851E+04  0.31437197391E+04  0.45406125232E+03 0.  0.
      99925    2    3    3    0    0  0.26830000333E+02  0.88280967113E+02  0.15185227064E+04  0.15439174445E+04  0.26316627358E+03 0.  0.
         25    1    3    3    0    0 -0.26830000333E+02 -0.88280967113E+02  0.15922331787E+04  0.15998022946E+04  0.12509000000E+03 0.  0.
         25    1    4    4    0    0 -0.17224977910E+02  0.60651007245E+02  0.65287809462E+03  0.66773689360E+03  0.12509000000E+03 0.  0.
         25    1    4    4    0    0  0.44054978243E+02  0.27629959868E+02  0.86564461178E+03  0.87618055091E+03  0.12509000000E+03 0.  0.
<mgrwt>
<rscale>  2 0.45406125E+03</rscale>
<asrwt>0</asrwt>
<pdfrwt beam="1">  1       21 0.45988750E+00 0.45406125E+03</pdfrwt>
<pdfrwt beam="2">  1       21 0.24238150E-02 0.45406125E+03</pdfrwt>
<totfact> 0.25423532E+03</totfact>
</mgrwt>
</event>
<event>
 7    0  0.4766352E-002  0.4588155E+03  0.7546771E-02  0.1025125E+00
         21   -1    0    0  502  501  0.00000000000E+00  0.00000000000E+00  0.37184422958E+03  0.37184422958E+03  0.00000000000E+00 0. -1.
         21   -1    0    0  501  502 -0.00000000000E+00 -0.00000000000E+00 -0.14153217182E+03  0.14153217182E+03  0.00000000000E+00 0. -1.
      99926    2    1    2    0    0  0.00000000000E+00  0.00000000000E+00  0.23031205776E+03  0.51337640140E+03  0.45881552455E+03 0.  0.
      99925    2    3    3    0    0 -0.37541327473E+02 -0.10848461480E+03  0.16844981593E+03  0.33267579825E+03  0.26290603518E+03 0.  0.
         25    1    3    3    0    0  0.37541327473E+02  0.10848461480E+03  0.61862241827E+02  0.18070060315E+03  0.12509000000E+03 0.  0.
         25    1    4    4    0    0 -0.47829593911E+02 -0.84190445829E+02  0.10580730094E+03  0.19031130879E+03  0.12509000000E+03 0.  0.
         25    1    4    4    0    0  0.10288266438E+02 -0.24294168969E+02  0.62642514994E+02  0.14236448945E+03  0.12509000000E+03 0.  0.
<mgrwt>
<rscale>  2 0.45881552E+03</rscale>
<asrwt>0</asrwt>
<pdfrwt beam="1">  1       21 0.54682975E-01 0.45881552E+03</pdfrwt>
<pdfrwt beam="2">  1       21 0.20813555E-01 0.45881552E+03</pdfrwt>
<totfact> 0.62428903E+04</totfact>
</mgrwt>
</event>
<event>
 7    0  0.4766352E-002  0.4504671E+03  0.7546771E-02  0.1027583E+00
         21   -1    0    0  502  501  0.00000000000E+00  0.00000000000E+00  0.86535688476E+03  0.86535688476E+03  0.00000000000E+00 0. -1.
         21   -1    0    0  501  502 -0.00000000000E+00 -0.00000000000E+00 -0.58623390883E+02  0.58623390883E+02  0.00000000000E+00 0. -1.
      99926    2    1    2    0    0  0.00000000000E+00  0.00000000000E+00  0.80673349388E+03  0.92398027564E+03  0.45046711271E+03 0.  0.
      99925    2    3    3    0    0 -0.19188043072E+02 -0.94953379914E+02  0.61116816490E+03  0.67242982076E+03  0.26315587150E+03 0.  0.
         25    1    4    4    0    0 -0.11962801229E+02 -0.59120190283E+02  0.22040043420E+03  0.26050367561E+03  0.12509000000E+03 0.  0.
         25    1    4    4    0    0 -0.72252418425E+01 -0.35833189630E+02  0.39076773070E+03  0.41192614515E+03  0.12509000000E+03 0.  0.
         25    1    3    3    0    0  0.19188043072E+02  0.94953379914E+02  0.19556532898E+03  0.25155045488E+03  0.12509000000E+03 0.  0.
<mgrwt>
<rscale>  2 0.45046711E+03</rscale>
<asrwt>0</asrwt>
<pdfrwt beam="1">  1       21 0.12725836E+00 0.45046711E+03</pdfrwt>
<pdfrwt beam="2">  1       21 0.86210874E-02 0.45046711E+03</pdfrwt>
<totfact> 0.43743331E+04</totfact>
</mgrwt>
</event>
<event>
 7    0  0.4766352E-002  0.4314142E+03  0.7546771E-02  0.1033414E+00
         21   -1    0    0  502  501  0.00000000000E+00  0.00000000000E+00  0.31458068384E+03  0.31458068384E+03  0.00000000000E+00 0.  1.
         21   -1    0    0  501  502 -0.00000000000E+00 -0.00000000000E+00 -0.14790973002E+03  0.14790973002E+03  0.00000000000E+00 0.  1.
      99926    2    1    2    0    0  0.00000000000E+00  0.17763568394E-14  0.16667095382E+03  0.46249041385E+03  0.43141415839E+03 0.  0.
      99925    2    3    3    0    0  0.34002811729E+02 -0.62481550320E+01  0.20074365110E+02  0.26670150056E+03  0.26368822427E+03 0.  0.
         25    1    4    4    0    0 -0.23151015508E+02 -0.84965379694E+01 -0.12969391547E+01  0.12750431690E+03  0.12509000000E+03 0.  0.
         25    1    3    3    0    0 -0.34002811729E+02  0.62481550320E+01  0.14659658871E+03  0.19578891329E+03  0.12509000000E+03 0.  0.
         25    1    4    4    0    0  0.57153827237E+02  0.22483829374E+01  0.21371304265E+02  0.13919718366E+03  0.12509000000E+03 0.  0.
<mgrwt>
<rscale>  2 0.43141416E+03</rscale>
<asrwt>0</asrwt>
<pdfrwt beam="1">  1       21 0.46261865E-01 0.43141416E+03</pdfrwt>
<pdfrwt beam="2">  1       21 0.21751431E-01 0.43141416E+03</pdfrwt>
<totfact> 0.82369605E+04</totfact>
</mgrwt>
</event>
<event>
 7    0  0.4766352E-002  0.4567743E+03  0.7546771E-02  0.1025721E+00
         21   -1    0    0  502  501  0.00000000000E+00  0.00000000000E+00  0.69080783681E+02  0.69080783681E+02  0.00000000000E+00 0. -1.
         21   -1    0    0  501  502 -0.00000000000E+00 -0.00000000000E+00 -0.75506809074E+03  0.75506809074E+03  0.00000000000E+00 0. -1.
      99926    2    1    2    0    0  0.00000000000E+00 -0.71054273576E-14 -0.68598730706E+03  0.82414887442E+03  0.45677432257E+03 0.  0.
      99925    2    3    3    0    0 -0.79475451661E+02  0.56848068947E+02 -0.53986050223E+03  0.60839762518E+03  0.26296436659E+03 0.  0.
         25    1    4    4    0    0 -0.37971121834E+02  0.10884805746E+02 -0.18256870703E+03  0.22480908784E+03  0.12509000000E+03 0.  0.
         25    1    4    4    0    0 -0.41504329827E+02  0.45963263201E+02 -0.35729179520E+03  0.38358853734E+03  0.12509000000E+03 0.  0.
         25    1    3    3    0    0  0.79475451661E+02 -0.56848068947E+02 -0.14612680483E+03  0.21575124924E+03  0.12509000000E+03 0.  0.
<mgrwt>
<rscale>  2 0.45677432E+03</rscale>
<asrwt>0</asrwt>
<pdfrwt beam="1">  1       21 0.10158939E-01 0.45677432E+03</pdfrwt>
<pdfrwt beam="2">  1       21 0.11103943E+00 0.45677432E+03</pdfrwt>
<totfact> 0.45975417E+04</totfact>
</mgrwt>
</event>
<event>
 7    0  0.4766352E-002  0.4566470E+03  0.7546771E-02  0.1025758E+00
         21   -1    0    0  502  501  0.00000000000E+00  0.00000000000E+00  0.16279103717E+03  0.16279103717E+03  0.00000000000E+00 0. -1.
         21   -1    0    0  501  502 -0.00000000000E+00 -0.00000000000E+00 -0.32023639974E+03  0.32023639974E+03  0.00000000000E+00 0. -1.
      99926    2    1    2    0    0  0.00000000000E+00 -0.71054273576E-14 -0.15744536257E+03  0.48302743691E+03  0.45664697811E+03 0.  0.
      99925    2    3    3    0    0  0.66529286688E+02  0.58096667560E+02 -0.21488633026E+02  0.27825168352E+03  0.26298454187E+03 0.  0.
         25    1    4    4    0    0  0.30100454917E+02  0.30150944434E+02 -0.51219476078E+02  0.14172529649E+03  0.12509000000E+03 0.  0.
         25    1    3    3    0    0 -0.66529286688E+02 -0.58096667560E+02 -0.13595672955E+03  0.20477575339E+03  0.12509000000E+03 0.  0.
         25    1    4    4    0    0  0.36428831771E+02  0.27945723126E+02  0.29730843052E+02  0.13652638702E+03  0.12509000000E+03 0.  0.
<mgrwt>
<rscale>  2 0.45664698E+03</rscale>
<asrwt>0</asrwt>
<pdfrwt beam="1">  1       21 0.23939858E-01 0.45664698E+03</pdfrwt>
<pdfrwt beam="2">  1       21 0.47093588E-01 0.45664698E+03</pdfrwt>
<totfact> 0.65618309E+04</totfact>
</mgrwt>
</event>
<event>
 7    0  0.4766352E-002  0.4217662E+03  0.7546771E-02  0.1036493E+00
         21   -1    0    0  502  501  0.00000000000E+00  0.00000000000E+00  0.62290914404E+02  0.62290914404E+02  0.00000000000E+00 0. -1.
         21   -1    0    0  501  502 -0.00000000000E+00 -0.00000000000E+00 -0.71393527232E+03  0.71393527232E+03  0.00000000000E+00 0. -1.
      99926    2    1    2    0    0  0.00000000000E+00 -0.35527136788E-14 -0.65164435791E+03  0.77622618672E+03  0.42176619560E+03 0.  0.
      99925    2    3    3    0    0  0.42925007473E+02  0.24393684724E+02 -0.31296237133E+03  0.41182173524E+03  0.26308570396E+03 0.  0.
         25    1    3    3    0    0 -0.42925007473E+02 -0.24393684724E+02 -0.33868198658E+03  0.36440445148E+03  0.12509000000E+03 0.  0.
         25    1    4    4    0    0  0.73319972162E+01  0.42962712841E+02 -0.12236262411E+03  0.18033211793E+03  0.12509000000E+03 0.  0.
         25    1    4    4    0    0  0.35593010257E+02 -0.18569028116E+02 -0.19059974721E+03  0.23148961731E+03  0.12509000000E+03 0.  0.
<mgrwt>
<rscale>  2 0.42176620E+03</rscale>
<asrwt>0</asrwt>
<pdfrwt beam="1">  1       21 0.91604287E-02 0.42176620E+03</pdfrwt>
<pdfrwt beam="2">  1       21 0.10499048E+00 0.42176620E+03</pdfrwt>
<totfact> 0.64091598E+04</totfact>
</mgrwt>
</event>
<event>
 7    0  0.4766352E-002  0.4582115E+03  0.7546771E-02  0.1025301E+00
         21   -1    0    0  502  501  0.00000000000E+00  0.00000000000E+00  0.52634719523E+03  0.52634719523E+03  0.00000000000E+00 0. -1.
         21   -1    0    0  501  502 -0.00000000000E+00 -0.00000000000E+00 -0.99723982226E+02  0.99723982226E+02  0.00000000000E+00 0. -1.
      99926    2    1    2    0    0  0.14210854715E-13  0.00000000000E+00  0.42662321300E+03  0.62607117745E+03  0.45821147232E+03 0.  0.
      99925    2    3    3    0    0  0.73534846741E+02 -0.85201699621E+01  0.14550118922E+03  0.30959516361E+03  0.26305627209E+03 0.  0.
         25    1    3    3    0    0 -0.73534846741E+02  0.85201699621E+01  0.28112202378E+03  0.31647601384E+03  0.12509000000E+03 0.  0.
         25    1    4    4    0    0 -0.13982871449E+00 -0.61967388682E+00  0.45386433493E+02  0.13307080819E+03  0.12509000000E+03 0.  0.
         25    1    4    4    0    0  0.73674675455E+02 -0.79004960753E+01  0.10011475572E+03  0.17652435542E+03  0.12509000000E+03 0.  0.
<mgrwt>
<rscale>  2 0.45821147E+03</rscale>
<asrwt>0</asrwt>
<pdfrwt beam="1">  1       21 0.77403998E-01 0.45821147E+03</pdfrwt>
<pdfrwt beam="2">  1       21 0.14665292E-01 0.45821147E+03</pdfrwt>
<totfact> 0.55676368E+04</totfact>
</mgrwt>
</event>
<event>
 7    0  0.4766352E-002  0.4538816E+03  0.7546771E-02  0.1026571E+00
         21   -1    0    0  502  501  0.00000000000E+00  0.00000000000E+00  0.14650320028E+03  0.14650320028E+03  0.00000000000E+00 0. -1.
         21   -1    0    0  501  502 -0.00000000000E+00 -0.00000000000E+00 -0.35154262712E+03  0.35154262712E+03  0.00000000000E+00 0. -1.
      99926    2    1    2    0    0  0.00000000000E+00  0.00000000000E+00 -0.20503942684E+03  0.49804582740E+03  0.45388157005E+03 0.  0.
      99925    2    3    3    0    0 -0.11812464030E+02 -0.90136354398E+02 -0.57273982603E+02  0.28416214102E+03  0.26306599289E+03 0.  0.
         25    1    4    4    0    0 -0.99226837908E+01 -0.85430830016E+02 -0.17532179517E+02  0.15281286526E+03  0.12509000000E+03 0.  0.
         25    1    4    4    0    0 -0.18897802393E+01 -0.47055243826E+01 -0.39741803086E+02  0.13134927576E+03  0.12509000000E+03 0.  0.
         25    1    3    3    0    0  0.11812464030E+02  0.90136354398E+02 -0.14776544423E+03  0.21388368638E+03  0.12509000000E+03 0.  0.
<mgrwt>
<rscale>  2 0.45388157E+03</rscale>
<asrwt>0</asrwt>
<pdfrwt beam="1">  1       21 0.21544588E-01 0.45388157E+03</pdfrwt>
<pdfrwt beam="2">  1       21 0.51697445E-01 0.45388157E+03</pdfrwt>
<totfact> 0.65992121E+04</totfact>
</mgrwt>
</event>
<event>
 7    0  0.4766352E-002  0.4516643E+03  0.7546771E-02  0.1027227E+00
         21   -1    0    0  502  501  0.00000000000E+00  0.00000000000E+00  0.37323335962E+03  0.37323335962E+03  0.00000000000E+00 0. -1.
         21   -1    0    0  501  502 -0.00000000000E+00 -0.00000000000E+00 -0.13664415673E+03  0.13664415673E+03  0.00000000000E+00 0. -1.
      99926    2    1    2    0    0  0.00000000000E+00 -0.35527136788E-14  0.23658920289E+03  0.50987751634E+03  0.45166428987E+03 0.  0.
      99925    2    3    3    0    0 -0.88310114708E+02 -0.17680385484E+02  0.22059058265E+03  0.35491062846E+03  0.26304006662E+03 0.  0.
         25    1    4    4    0    0 -0.55403612225E+02 -0.48271808603E+02  0.11814008095E+03  0.18709440018E+03  0.12509000000E+03 0.  0.
         25    1    3    3    0    0  0.88310114708E+02  0.17680385484E+02  0.15998620242E+02  0.15496688788E+03  0.12509000000E+03 0.  0.
         25    1    4    4    0    0 -0.32906502483E+02  0.30591423120E+02  0.10245050170E+03  0.16781622828E+03  0.12509000000E+03 0.  0.
<mgrwt>
<rscale>  2 0.45166429E+03</rscale>
<asrwt>0</asrwt>
<pdfrwt beam="1">  1       21 0.54887258E-01 0.45166429E+03</pdfrwt>
<pdfrwt beam="2">  1       21 0.20094729E-01 0.45166429E+03</pdfrwt>
<totfact> 0.66320466E+04</totfact>
</mgrwt>
</event>
<event>
 7    0  0.4766352E-002  0.4577205E+03  0.7546771E-02  0.1025444E+00
         21   -1    0    0  502  501  0.00000000000E+00  0.00000000000E+00  0.13879190409E+03  0.13879190409E+03  0.00000000000E+00 0.  1.
         21   -1    0    0  501  502 -0.00000000000E+00 -0.00000000000E+00 -0.37737795353E+03  0.37737795353E+03  0.00000000000E+00 0.  1.
      99926    2    1    2    0    0  0.00000000000E+00  0.00000000000E+00 -0.23858604945E+03  0.51616985762E+03  0.45772045937E+03 0.  0.
      99925    2    3    3    0    0 -0.30794728631E+02 -0.86260183408E+02 -0.70415967122E+02  0.28743896937E+03  0.26319881864E+03 0.  0.
         25    1    3    3    0    0  0.30794728631E+02  0.86260183408E+02 -0.16817008232E+03  0.22873088825E+03  0.12509000000E+03 0.  0.
         25    1    4    4    0    0 -0.41163725103E+02 -0.76934614091E+02 -0.31933024163E+02  0.15582237722E+03  0.12509000000E+03 0.  0.
         25    1    4    4    0    0  0.10368996472E+02 -0.93255693172E+01 -0.38482942959E+02  0.13161659215E+03  0.12509000000E+03 0.  0.
<mgrwt>
<rscale>  2 0.45772046E+03</rscale>
<asrwt>0</asrwt>
<pdfrwt beam="1">  1       21 0.20410575E-01 0.45772046E+03</pdfrwt>
<pdfrwt beam="2">  1       21 0.55496756E-01 0.45772046E+03</pdfrwt>
<totfact> 0.62782675E+04</totfact>
</mgrwt>
</event>
<event>
 7    0  0.4766352E-002  0.4585263E+03  0.7546771E-02  0.1025209E+00
         21   -1    0    0  502  501  0.00000000000E+00  0.00000000000E+00  0.40997208559E+02  0.40997208559E+02  0.00000000000E+00 0.  1.
         21   -1    0    0  501  502 -0.00000000000E+00 -0.00000000000E+00 -0.12820775592E+04  0.12820775592E+04  0.00000000000E+00 0.  1.
      99926    2    1    2    0    0 -0.53290705182E-14  0.00000000000E+00 -0.12410803506E+04  0.13230747677E+04  0.45852633984E+03 0.  0.
      99925    2    3    3    0    0 -0.10467391073E+02 -0.92618777599E+02 -0.97975299728E+03  0.10187274366E+04  0.26306244554E+03 0.  0.
         25    1    4    4    0    0  0.23315774096E+02 -0.20818404806E+02 -0.39545816152E+03  0.41594674769E+03  0.12509000000E+03 0.  0.
         25    1    4    4    0    0 -0.33783165169E+02 -0.71800372793E+02 -0.58429483576E+03  0.60278068895E+03  0.12509000000E+03 0.  0.
         25    1    3    3    0    0  0.10467391073E+02  0.92618777599E+02 -0.26132735334E+03  0.30434733109E+03  0.12509000000E+03 0.  0.
<mgrwt>
<rscale>  2 0.45852634E+03</rscale>
<asrwt>0</asrwt>
<pdfrwt beam="1">  1       21 0.60290019E-02 0.45852634E+03</pdfrwt>
<pdfrwt beam="2">  1       21 0.18854080E+00 0.45852634E+03</pdfrwt>
<totfact> 0.27684929E+04</totfact>
</mgrwt>
</event>
<event>
 7    0  0.4766352E-002  0.4508511E+03  0.7546771E-02  0.1027469E+00
         21   -1    0    0  502  501  0.00000000000E+00  0.00000000000E+00  0.50859198325E+02  0.50859198325E+02  0.00000000000E+00 0. -1.
         21   -1    0    0  501  502 -0.00000000000E+00 -0.00000000000E+00 -0.99916409435E+03  0.99916409435E+03  0.00000000000E+00 0. -1.
      99926    2    1    2    0    0  0.00000000000E+00  0.00000000000E+00 -0.94830489602E+03  0.10500232927E+04  0.45085112769E+03 0.  0.
      99925    2    3    3    0    0  0.38335887748E+02  0.70052793090E+02 -0.42461177240E+03  0.50570809912E+03  0.26280884715E+03 0.  0.
         25    1    4    4    0    0 -0.15989036333E+02  0.22195754087E+02 -0.23079131179E+03  0.26393264004E+03  0.12509000000E+03 0.  0.
         25    1    4    4    0    0  0.54324924081E+02  0.47857039003E+02 -0.19382046061E+03  0.24177545908E+03  0.12509000000E+03 0.  0.
         25    1    3    3    0    0 -0.38335887748E+02 -0.70052793090E+02 -0.52369312362E+03  0.54431519356E+03  0.12509000000E+03 0.  0.
<mgrwt>
<rscale>  2 0.45085113E+03</rscale>
<asrwt>0</asrwt>
<pdfrwt beam="1">  1       21 0.74792944E-02 0.45085113E+03</pdfrwt>
<pdfrwt beam="2">  1       21 0.14693589E+00 0.45085113E+03</pdfrwt>
<totfact> 0.38508514E+04</totfact>
</mgrwt>
</event>
<event>
 7    0  0.4766352E-002  0.4486246E+03  0.7546771E-02  0.1028133E+00
         21   -1    0    0  502  501  0.00000000000E+00  0.00000000000E+00  0.44415928321E+02  0.44415928321E+02  0.00000000000E+00 0.  1.
         21   -1    0    0  501  502 -0.00000000000E+00 -0.00000000000E+00 -0.11328372341E+04  0.11328372341E+04  0.00000000000E+00 0.  1.
      99926    2    1    2    0    0 -0.17763568394E-14  0.00000000000E+00 -0.10884213057E+04  0.11772531624E+04  0.44862464216E+03 0.  0.
      99925    2    3    3    0    0 -0.11587159568E+02  0.63695072547E+02 -0.46502209230E+03  0.53814017397E+03  0.26297904096E+03 0.  0.
         25    1    4    4    0    0  0.49519638842E+01  0.67572740557E+02 -0.28131898160E+03  0.31524351654E+03  0.12509000000E+03 0.  0.
         25    1    3    3    0    0  0.11587159568E+02 -0.63695072547E+02 -0.62339921345E+03  0.63911298842E+03  0.12509000000E+03 0.  0.
         25    1    4    4    0    0 -0.16539123453E+02 -0.38776680102E+01 -0.18370311069E+03  0.22289665743E+03  0.12509000000E+03 0.  0.
<mgrwt>
<rscale>  2 0.44862464E+03</rscale>
<asrwt>0</asrwt>
<pdfrwt beam="1">  1       21 0.65317551E-02 0.44862464E+03</pdfrwt>
<pdfrwt beam="2">  1       21 0.16659369E+00 0.44862464E+03</pdfrwt>
<totfact> 0.34570982E+04</totfact>
</mgrwt>
</event>
<event>
 7    0  0.4766352E-002  0.4194830E+03  0.7546771E-02  0.1037235E+00
         21   -1    0    0  502  501  0.00000000000E+00  0.00000000000E+00  0.12591665872E+03  0.12591665872E+03  0.00000000000E+00 0. -1.
         21   -1    0    0  501  502 -0.00000000000E+00 -0.00000000000E+00 -0.34936987048E+03  0.34936987048E+03  0.00000000000E+00 0. -1.
      99926    2    1    2    0    0  0.00000000000E+00  0.00000000000E+00 -0.22345321176E+03  0.47528652919E+03  0.41948295196E+03 0.  0.
      99925    2    3    3    0    0  0.70213238684E+02  0.26557231299E+02 -0.14149958622E+03  0.30795724228E+03  0.26302156708E+03 0.  0.
         25    1    3    3    0    0 -0.70213238684E+02 -0.26557231299E+02 -0.81953625533E+02  0.16732928691E+03  0.12509000000E+03 0.  0.
         25    1    4    4    0    0  0.67379325225E+02  0.40180097036E+02 -0.77562119656E+02  0.16678670262E+03  0.12509000000E+03 0.  0.
         25    1    4    4    0    0  0.28339134592E+01 -0.13622865737E+02 -0.63937466569E+02  0.14117053966E+03  0.12509000000E+03 0.  0.
<mgrwt>
<rscale>  2 0.41948295E+03</rscale>
<asrwt>0</asrwt>
<pdfrwt beam="1">  1       21 0.18517156E-01 0.41948295E+03</pdfrwt>
<pdfrwt beam="2">  1       21 0.51377922E-01 0.41948295E+03</pdfrwt>
<totfact> 0.89818194E+04</totfact>
</mgrwt>
</event>
<event>
 7    0  0.4766352E-002  0.4378216E+03  0.7546771E-02  0.1031417E+00
         21   -1    0    0  502  501  0.00000000000E+00  0.00000000000E+00  0.10660591228E+03  0.10660591228E+03  0.00000000000E+00 0. -1.
         21   -1    0    0  501  502 -0.00000000000E+00 -0.00000000000E+00 -0.44952412930E+03  0.44952412930E+03  0.00000000000E+00 0. -1.
      99926    2    1    2    0    0 -0.17763568394E-14  0.00000000000E+00 -0.34291821702E+03  0.55613004157E+03  0.43782156134E+03 0.  0.
      99925    2    3    3    0    0 -0.71446944041E+01 -0.70278138378E+02 -0.30226495493E+03  0.40683081448E+03  0.26297746147E+03 0.  0.
         25    1    4    4    0    0  0.15785738287E+02 -0.62707368450E+02 -0.12340621692E+03  0.18723783289E+03  0.12509000000E+03 0.  0.
         25    1    3    3    0    0  0.71446944041E+01  0.70278138378E+02 -0.40653262091E+02  0.14929922709E+03  0.12509000000E+03 0.  0.
         25    1    4    4    0    0 -0.22930432691E+02 -0.75707699280E+01 -0.17885873801E+03  0.21959298159E+03  0.12509000000E+03 0.  0.
<mgrwt>
<rscale>  2 0.43782156E+03</rscale>
<asrwt>0</asrwt>
<pdfrwt beam="1">  1       21 0.15677340E-01 0.43782156E+03</pdfrwt>
<pdfrwt beam="2">  1       21 0.66106488E-01 0.43782156E+03</pdfrwt>
<totfact> 0.70575863E+04</totfact>
</mgrwt>
</event>
<event>
 7    0  0.4766352E-002  0.4429965E+03  0.7546771E-02  0.1029831E+00
         21   -1    0    0  502  501  0.00000000000E+00  0.00000000000E+00  0.21427495074E+03  0.21427495074E+03  0.00000000000E+00 0.  1.
         21   -1    0    0  501  502 -0.00000000000E+00 -0.00000000000E+00 -0.22896509726E+03  0.22896509726E+03  0.00000000000E+00 0.  1.
      99926    2    1    2    0    0  0.00000000000E+00  0.00000000000E+00 -0.14690146522E+02  0.44324004800E+03  0.44299654598E+03 0.  0.
      99925    2    3    3    0    0  0.56947202878E+02  0.72237985813E+02 -0.52257695855E+02  0.28348980740E+03  0.26301006371E+03 0.  0.
         25    1    4    4    0    0  0.17079088328E+02 -0.31171107516E+01 -0.35519550131E+02  0.13118901699E+03  0.12509000000E+03 0.  0.
         25    1    4    4    0    0  0.39868114550E+02  0.75355096564E+02 -0.16738145724E+02  0.15230079041E+03  0.12509000000E+03 0.  0.
         25    1    3    3    0    0 -0.56947202878E+02 -0.72237985813E+02  0.37567549333E+02  0.15975024060E+03  0.12509000000E+03 0.  0.
<mgrwt>
<rscale>  2 0.44299655E+03</rscale>
<asrwt>0</asrwt>
<pdfrwt beam="1">  1       21 0.31511022E-01 0.44299655E+03</pdfrwt>
<pdfrwt beam="2">  1       21 0.33671338E-01 0.44299655E+03</pdfrwt>
<totfact> 0.76482866E+04</totfact>
</mgrwt>
</event>
<event>
 7    0  0.4766352E-002  0.4531127E+03  0.7546771E-02  0.1026798E+00
         21   -1    0    0  502  501  0.00000000000E+00  0.00000000000E+00  0.42542769002E+02  0.42542769002E+02  0.00000000000E+00 0. -1.
         21   -1    0    0  501  502 -0.00000000000E+00 -0.00000000000E+00 -0.12064980782E+04  0.12064980782E+04  0.00000000000E+00 0. -1.
      99926    2    1    2    0    0  0.00000000000E+00  0.14210854715E-13 -0.11639553092E+04  0.12490408472E+04  0.45311265285E+03 0.  0.
      99925    2    3    3    0    0 -0.65039369744E+02  0.90319841660E+02 -0.73613735586E+03  0.78962436653E+03  0.26309815680E+03 0.  0.
         25    1    4    4    0    0 -0.52424983071E+02  0.84355431013E+02 -0.40227771551E+03  0.43282685463E+03  0.12509000000E+03 0.  0.
         25    1    3    3    0    0  0.65039369744E+02 -0.90319841660E+02 -0.42781795335E+03  0.45941648068E+03  0.12509000000E+03 0.  0.
         25    1    4    4    0    0 -0.12614386674E+02  0.59644106465E+01 -0.33385964036E+03  0.35679751191E+03  0.12509000000E+03 0.  0.
<mgrwt>
<rscale>  2 0.45311265E+03</rscale>
<asrwt>0</asrwt>
<pdfrwt beam="1">  1       21 0.62562886E-02 0.45311265E+03</pdfrwt>
<pdfrwt beam="2">  1       21 0.17742622E+00 0.45311265E+03</pdfrwt>
<totfact> 0.31085491E+04</totfact>
</mgrwt>
</event>
<event>
 7    0  0.4766352E-002  0.4094407E+03  0.7546771E-02  0.1040559E+00
         21   -1    0    0  502  501  0.00000000000E+00  0.00000000000E+00  0.37673352791E+03  0.37673352791E+03  0.00000000000E+00 0. -1.
         21   -1    0    0  501  502 -0.00000000000E+00 -0.00000000000E+00 -0.11124683559E+03  0.11124683559E+03  0.00000000000E+00 0. -1.
      99926    2    1    2    0    0  0.88817841970E-15 -0.71054273576E-14  0.26548669231E+03  0.48798036350E+03  0.40944065671E+03 0.  0.
      99925    2    3    3    0    0 -0.58788856748E+01 -0.32516011667E+02  0.11365082308E+03  0.28849730258E+03  0.26310137152E+03 0.  0.
         25    1    4    4    0    0  0.85674384026E+01 -0.54221932424E+02  0.69794207831E+02  0.15340195078E+03  0.12509000000E+03 0.  0.
         25    1    4    4    0    0 -0.14446324077E+02  0.21705920757E+02  0.43856615253E+02  0.13509535180E+03  0.12509000000E+03 0.  0.
         25    1    3    3    0    0  0.58788856748E+01  0.32516011667E+02  0.15183586923E+03  0.19948306092E+03  0.12509000000E+03 0.  0.
<mgrwt>
<rscale>  2 0.40944066E+03</rscale>
<asrwt>0</asrwt>
<pdfrwt beam="1">  1       21 0.55401989E-01 0.40944066E+03</pdfrwt>
<pdfrwt beam="2">  1       21 0.16359829E-01 0.40944066E+03</pdfrwt>
<totfact> 0.96583058E+04</totfact>
</mgrwt>
</event>
<event>
 7    0  0.4766352E-002  0.4566513E+03  0.7546771E-02  0.1025757E+00
         21   -1    0    0  502  501  0.00000000000E+00  0.00000000000E+00  0.18558655225E+03  0.18558655225E+03  0.00000000000E+00 0.  1.
         21   -1    0    0  501  502 -0.00000000000E+00 -0.00000000000E+00 -0.28090722194E+03  0.28090722194E+03  0.00000000000E+00 0.  1.
      99926    2    1    2    0    0  0.00000000000E+00  0.00000000000E+00 -0.95320669698E+02  0.46649377419E+03  0.45665130164E+03 0.  0.
      99925    2    3    3    0    0 -0.76429627255E+02 -0.41135324212E+02 -0.13693311102E+03  0.30865617983E+03  0.26264873431E+03 0.  0.
         25    1    4    4    0    0 -0.76846902739E+02 -0.32320944031E+02 -0.86955681789E+02  0.17366314686E+03  0.12509000000E+03 0.  0.
         25    1    3    3    0    0  0.76429627255E+02  0.41135324212E+02  0.41612441321E+02  0.15783759436E+03  0.12509000000E+03 0.  0.
         25    1    4    4    0    0  0.41727548335E+00 -0.88143801817E+01 -0.49977429229E+02  0.13499303297E+03  0.12509000000E+03 0.  0.
<mgrwt>
<rscale>  2 0.45665130E+03</rscale>
<asrwt>0</asrwt>
<pdfrwt beam="1">  1       21 0.27292140E-01 0.45665130E+03</pdfrwt>
<pdfrwt beam="2">  1       21 0.41309885E-01 0.45665130E+03</pdfrwt>
<totfact> 0.66818158E+04</totfact>
</mgrwt>
</event>
<event>
 7    0  0.4766352E-002  0.4423140E+03  0.7546771E-02  0.1030039E+00
         21   -1    0    0  502  501  0.00000000000E+00  0.00000000000E+00  0.10302566902E+04  0.10302566902E+04  0.00000000000E+00 0. -1.
         21   -1    0    0  501  502 -0.00000000000E+00 -0.00000000000E+00 -0.47474012670E+02  0.47474012670E+02  0.00000000000E+00 0. -1.
      99926    2    1    2    0    0  0.00000000000E+00 -0.17763568394E-14  0.98278267752E+03  0.10777307029E+04  0.44231400233E+03 0.  0.
      99925    2    3    3    0    0  0.99408981074E+02  0.11933256999E+02  0.59890538036E+03  0.66175734372E+03  0.26307903603E+03 0.  0.
         25    1    4    4    0    0  0.20302690862E+02  0.18814932062E+02  0.21533250338E+03  0.25056295823E+03  0.12509000000E+03 0.  0.
         25    1    4    4    0    0  0.79106290212E+02 -0.68816750636E+01  0.38357287698E+03  0.41119438549E+03  0.12509000000E+03 0.  0.
         25    1    3    3    0    0 -0.99408981074E+02 -0.11933256999E+02  0.38387729715E+03  0.41597335914E+03  0.12509000000E+03 0.  0.
<mgrwt>
<rscale>  2 0.44231400E+03</rscale>
<asrwt>0</asrwt>
<pdfrwt beam="1">  1       21 0.15150832E+00 0.44231400E+03</pdfrwt>
<pdfrwt beam="2">  1       21 0.69814731E-02 0.44231400E+03</pdfrwt>
<totfact> 0.40100858E+04</totfact>
</mgrwt>
</event>
<event>
 7    0  0.4766352E-002  0.4767722E+03  0.7546771E-02  0.1020026E+00
         21   -1    0    0  502  501  0.00000000000E+00  0.00000000000E+00  0.57068015933E+03  0.57068015933E+03  0.00000000000E+00 0.  1.
         21   -1    0    0  501  502 -0.00000000000E+00 -0.00000000000E+00 -0.99579284697E+02  0.99579284697E+02  0.00000000000E+00 0.  1.
      99926    2    1    2    0    0  0.00000000000E+00  0.00000000000E+00  0.47110087463E+03  0.67025944403E+03  0.47677215547E+03 0.  0.
      99925    2    3    3    0    0  0.42996681456E+02 -0.34067901441E+02  0.12095874150E+03  0.29441857608E+03  0.26275833816E+03 0.  0.
         25    1    4    4    0    0  0.51853384916E+02  0.46962809486E+01  0.77835434505E+02  0.15625841272E+03  0.12509000000E+03 0.  0.
         25    1    4    4    0    0 -0.88567034603E+01 -0.38764182390E+02  0.43123306994E+02  0.13816016336E+03  0.12509000000E+03 0.  0.
         25    1    3    3    0    0 -0.42996681456E+02  0.34067901441E+02  0.35014213313E+03  0.37584086795E+03  0.12509000000E+03 0.  0.
<mgrwt>
<rscale>  2 0.47677216E+03</rscale>
<asrwt>0</asrwt>
<pdfrwt beam="1">  1       21 0.83923551E-01 0.47677216E+03</pdfrwt>
<pdfrwt beam="2">  1       21 0.14644013E-01 0.47677216E+03</pdfrwt>
<totfact> 0.46108083E+04</totfact>
</mgrwt>
</event>
<event>
 7    0  0.4766352E-002  0.4512263E+03  0.7546771E-02  0.1027357E+00
         21   -1    0    0  502  501  0.00000000000E+00  0.00000000000E+00  0.68312549273E+03  0.68312549273E+03  0.00000000000E+00 0.  1.
         21   -1    0    0  501  502 -0.00000000000E+00 -0.00000000000E+00 -0.74512369442E+02  0.74512369442E+02  0.00000000000E+00 0.  1.
      99926    2    1    2    0    0  0.00000000000E+00 -0.71054273576E-14  0.60861312329E+03  0.75763786217E+03  0.45122632499E+03 0.  0.
      99925    2    3    3    0    0  0.75300471891E+02  0.36556171099E+02  0.26546725225E+03  0.38293383014E+03  0.26298087675E+03 0.  0.
         25    1    4    4    0    0  0.45453663279E+02  0.46820802305E+02  0.99134296984E+02  0.17243358134E+03  0.12509000000E+03 0.  0.
         25    1    4    4    0    0  0.29846808612E+02 -0.10264631206E+02  0.16633295526E+03  0.21050024880E+03  0.12509000000E+03 0.  0.
         25    1    3    3    0    0 -0.75300471891E+02 -0.36556171099E+02  0.34314587104E+03  0.37470403204E+03  0.12509000000E+03 0.  0.
<mgrwt>
<rscale>  2 0.45122632E+03</rscale>
<asrwt>0</asrwt>
<pdfrwt beam="1">  1       21 0.10045963E+00 0.45122632E+03</pdfrwt>
<pdfrwt beam="2">  1       21 0.10957702E-01 0.45122632E+03</pdfrwt>
<totfact> 0.51387198E+04</totfact>
</mgrwt>
</event>
<event>
 7    0  0.4766352E-002  0.4678852E+03  0.7546771E-02  0.1022519E+00
         21   -1    0    0  502  501  0.00000000000E+00  0.00000000000E+00  0.11179340447E+03  0.11179340447E+03  0.00000000000E+00 0. -1.
         21   -1    0    0  501  502 -0.00000000000E+00 -0.00000000000E+00 -0.48955612476E+03  0.48955612476E+03  0.00000000000E+00 0. -1.
      99926    2    1    2    0    0  0.00000000000E+00  0.31086244690E-14 -0.37776272029E+03  0.60134952924E+03  0.46788522467E+03 0.  0.
      99925    2    3    3    0    0  0.32665195450E+02  0.23446043242E+01 -0.38955969341E+03  0.47150659012E+03  0.26360803789E+03 0.  0.
         25    1    4    4    0    0  0.10933891587E+02 -0.34039708404E+02 -0.23128398997E+03  0.26536398371E+03  0.12509000000E+03 0.  0.
         25    1    3    3    0    0 -0.32665195450E+02 -0.23446043242E+01  0.11796973113E+02  0.12984293911E+03  0.12509000000E+03 0.  0.
         25    1    4    4    0    0  0.21731303863E+02  0.36384312729E+02 -0.15827570343E+03  0.20614260641E+03  0.12509000000E+03 0.  0.
<mgrwt>
<rscale>  2 0.46788522E+03</rscale>
<asrwt>0</asrwt>
<pdfrwt beam="1">  1       21 0.16440206E-01 0.46788522E+03</pdfrwt>
<pdfrwt beam="2">  1       21 0.71993550E-01 0.46788522E+03</pdfrwt>
<totfact> 0.52990574E+04</totfact>
</mgrwt>
</event>
<event>
 7    0  0.4766352E-002  0.4475263E+03  0.7546771E-02  0.1028462E+00
         21   -1    0    0  502  501  0.00000000000E+00  0.00000000000E+00  0.19934675277E+04  0.19934675277E+04  0.00000000000E+00 0. -1.
         21   -1    0    0  501  502 -0.00000000000E+00 -0.00000000000E+00 -0.25117006435E+02  0.25117006435E+02  0.00000000000E+00 0. -1.
      99926    2    1    2    0    0  0.71054273576E-14  0.00000000000E+00  0.19683505213E+04  0.20185845341E+04  0.44752625273E+03 0.  0.
      99925    2    3    3    0    0 -0.61026492993E+02 -0.64469346204E+02  0.15081692057E+04  0.15335124975E+04  0.26306975779E+03 0.  0.
         25    1    3    3    0    0  0.61026492993E+02  0.64469346204E+02  0.46018131556E+03  0.48507203665E+03  0.12509000000E+03 0.  0.
         25    1    4    4    0    0 -0.66997097202E+02 -0.51066877847E+02  0.76045269471E+03  0.77526269486E+03  0.12509000000E+03 0.  0.
         25    1    4    4    0    0  0.59706042096E+01 -0.13402468357E+02  0.74771651099E+03  0.75824980263E+03  0.12509000000E+03 0.  0.
<mgrwt>
<rscale>  2 0.44752625E+03</rscale>
<asrwt>0</asrwt>
<pdfrwt beam="1">  1       21 0.29315688E+00 0.44752625E+03</pdfrwt>
<pdfrwt beam="2">  1       21 0.36936788E-02 0.44752625E+03</pdfrwt>
<totfact> 0.14215624E+04</totfact>
</mgrwt>
</event>
<event>
 7    0  0.4766352E-002  0.4588929E+03  0.7546771E-02  0.1025103E+00
         21   -1    0    0  502  501  0.00000000000E+00  0.00000000000E+00  0.12597583718E+03  0.12597583718E+03  0.00000000000E+00 0.  1.
         21   -1    0    0  501  502 -0.00000000000E+00 -0.00000000000E+00 -0.41790291624E+03  0.41790291624E+03  0.00000000000E+00 0.  1.
      99926    2    1    2    0    0  0.00000000000E+00  0.00000000000E+00 -0.29192707907E+03  0.54387875342E+03  0.45889288394E+03 0.  0.
      99925    2    3    3    0    0 -0.96007628885E+02 -0.65622323350E+02 -0.17125401886E+03  0.33475379153E+03  0.26307490919E+03 0.  0.
         25    1    4    4    0    0 -0.32594094656E+02 -0.49978501451E+01 -0.46375379203E+02  0.13742466085E+03  0.12509000000E+03 0.  0.
         25    1    4    4    0    0 -0.63413534229E+02 -0.60624473205E+02 -0.12487863966E+03  0.19732913069E+03  0.12509000000E+03 0.  0.
         25    1    3    3    0    0  0.96007628885E+02  0.65622323350E+02 -0.12067306021E+03  0.20912496189E+03  0.12509000000E+03 0.  0.
<mgrwt>
<rscale>  2 0.45889288E+03</rscale>
<asrwt>0</asrwt>
<pdfrwt beam="1">  1       21 0.18525859E-01 0.45889288E+03</pdfrwt>
<pdfrwt beam="2">  1       21 0.61456310E-01 0.45889288E+03</pdfrwt>
<totfact> 0.60390863E+04</totfact>
</mgrwt>
</event>
<event>
 7    0  0.4766352E-002  0.4583048E+03  0.7546771E-02  0.1025274E+00
         21   -1    0    0  502  501  0.00000000000E+00  0.00000000000E+00  0.14456569717E+03  0.14456569717E+03  0.00000000000E+00 0. -1.
         21   -1    0    0  501  502 -0.00000000000E+00 -0.00000000000E+00 -0.36323158268E+03  0.36323158268E+03  0.00000000000E+00 0. -1.
      99926    2    1    2    0    0  0.71054273576E-14  0.00000000000E+00 -0.21866588550E+03  0.50779727985E+03  0.45830481990E+03 0.  0.
      99925    2    3    3    0    0 -0.36921067572E+02 -0.86955878209E+02 -0.62059620891E+02  0.28621767745E+03  0.26295374565E+03 0.  0.
         25    1    4    4    0    0 -0.30794098715E+02 -0.80648819006E+02 -0.16849245218E+02  0.15291799661E+03  0.12509000000E+03 0.  0.
         25    1    4    4    0    0 -0.61269688574E+01 -0.63070592029E+01 -0.45210375673E+02  0.13329968084E+03  0.12509000000E+03 0.  0.
         25    1    3    3    0    0  0.36921067572E+02  0.86955878209E+02 -0.15660626461E+03  0.22157960240E+03  0.12509000000E+03 0.  0.
<mgrwt>
<rscale>  2 0.45830482E+03</rscale>
<asrwt>0</asrwt>
<pdfrwt beam="1">  1       21 0.21259661E-01 0.45830482E+03</pdfrwt>
<pdfrwt beam="2">  1       21 0.53416409E-01 0.45830482E+03</pdfrwt>
<totfact> 0.63055968E+04</totfact>
</mgrwt>
</event>
<event>
 7    0  0.4766352E-002  0.4514667E+03  0.7546771E-02  0.1027286E+00
         21   -1    0    0  502  501  0.00000000000E+00  0.00000000000E+00  0.11470872977E+03  0.11470872977E+03  0.00000000000E+00 0. -1.
         21   -1    0    0  501  502 -0.00000000000E+00 -0.00000000000E+00 -0.44421671417E+03  0.44421671417E+03  0.00000000000E+00 0. -1.
      99926    2    1    2    0    0  0.00000000000E+00  0.00000000000E+00 -0.32950798441E+03  0.55892544394E+03  0.45146665446E+03 0.  0.
      99925    2    3    3    0    0  0.24116492578E+02 -0.67095952363E+02 -0.10453246975E+03  0.29182066612E+03  0.26296157876E+03 0.  0.
         25    1    4    4    0    0 -0.55339348572E+01 -0.93282197706E+01 -0.19082406218E+02  0.12700112774E+03  0.12509000000E+03 0.  0.
         25    1    4    4    0    0  0.29650427436E+02 -0.57767732592E+02 -0.85450063535E+02  0.16481953839E+03  0.12509000000E+03 0.  0.
         25    1    3    3    0    0 -0.24116492578E+02  0.67095952363E+02 -0.22497551466E+03  0.26710477782E+03  0.12509000000E+03 0.  0.
<mgrwt>
<rscale>  2 0.45146665E+03</rscale>
<asrwt>0</asrwt>
<pdfrwt beam="1">  1       21 0.16868931E-01 0.45146665E+03</pdfrwt>
<pdfrwt beam="2">  1       21 0.65325987E-01 0.45146665E+03</pdfrwt>
<totfact> 0.63023594E+04</totfact>
</mgrwt>
</event>
<event>
 7    0  0.4766352E-002  0.4510611E+03  0.7546771E-02  0.1027406E+00
         21   -1    0    0  502  501  0.00000000000E+00  0.00000000000E+00  0.41280004000E+03  0.41280004000E+03  0.00000000000E+00 0. -1.
         21   -1    0    0  501  502 -0.00000000000E+00 -0.00000000000E+00 -0.12321709992E+03  0.12321709992E+03  0.00000000000E+00 0. -1.
      99926    2    1    2    0    0  0.00000000000E+00  0.00000000000E+00  0.28958294008E+03  0.53601713992E+03  0.45106107691E+03 0.  0.
      99925    2    3    3    0    0  0.86209197641E+02  0.54323280282E+02  0.23058405733E+03  0.36422825552E+03  0.26288813226E+03 0.  0.
         25    1    4    4    0    0  0.30196589390E+02  0.63300092051E+02  0.10108810079E+03  0.17545668379E+03  0.12509000000E+03 0.  0.
         25    1    3    3    0    0 -0.86209197641E+02 -0.54323280282E+02  0.58998882749E+02  0.17178888440E+03  0.12509000000E+03 0.  0.
         25    1    4    4    0    0  0.56012608251E+02 -0.89768117688E+01  0.12949595654E+03  0.18877157173E+03  0.12509000000E+03 0.  0.
<mgrwt>
<rscale>  2 0.45106108E+03</rscale>
<asrwt>0</asrwt>
<pdfrwt beam="1">  1       21 0.60705888E-01 0.45106108E+03</pdfrwt>
<pdfrwt beam="2">  1       21 0.18120162E-01 0.45106108E+03</pdfrwt>
<totfact> 0.64796623E+04</totfact>
</mgrwt>
</event>
<event>
 7    0  0.4766352E-002  0.4583233E+03  0.7546771E-02  0.1025269E+00
         21   -1    0    0  502  501  0.00000000000E+00  0.00000000000E+00  0.40585635382E+02  0.40585635382E+02  0.00000000000E+00 0.  1.
         21   -1    0    0  501  502 -0.00000000000E+00 -0.00000000000E+00 -0.12939324854E+04  0.12939324854E+04  0.00000000000E+00 0.  1.
      99926    2    1    2    0    0 -0.17763568394E-14  0.00000000000E+00 -0.12533468500E+04  0.13345181208E+04  0.45832334464E+03 0.  0.
      99925    2    3    3    0    0  0.10014615490E+02 -0.10612845570E+03 -0.92140952632E+03  0.96412179710E+03  0.26300529047E+03 0.  0.
         25    1    4    4    0    0 -0.23996665961E+02 -0.57482892483E+02 -0.55793762217E+03  0.57517129730E+03  0.12509000000E+03 0.  0.
         25    1    4    4    0    0  0.34011281451E+02 -0.48645563220E+02 -0.36347190416E+03  0.38895049980E+03  0.12509000000E+03 0.  0.
         25    1    3    3    0    0 -0.10014615490E+02  0.10612845570E+03 -0.33193732369E+03  0.37039632368E+03  0.12509000000E+03 0.  0.
<mgrwt>
<rscale>  2 0.45832334E+03</rscale>
<asrwt>0</asrwt>
<pdfrwt beam="1">  1       21 0.59684762E-02 0.45832334E+03</pdfrwt>
<pdfrwt beam="2">  1       21 0.19028418E+00 0.45832334E+03</pdfrwt>
<totfact> 0.27413290E+04</totfact>
</mgrwt>
</event>
<event>
 7    0  0.4766352E-002  0.4423279E+03  0.7546771E-02  0.1030035E+00
         21   -1    0    0  502  501  0.00000000000E+00  0.00000000000E+00  0.15471645499E+03  0.15471645499E+03  0.00000000000E+00 0. -1.
         21   -1    0    0  501  502 -0.00000000000E+00 -0.00000000000E+00 -0.31614924814E+03  0.31614924814E+03  0.00000000000E+00 0. -1.
      99926    2    1    2    0    0  0.14210854715E-13  0.00000000000E+00 -0.16143279314E+03  0.47086570313E+03  0.44232789159E+03 0.  0.
      99925    2    3    3    0    0 -0.77427648667E+02  0.30517693048E+02 -0.16344782826E+03  0.32060613161E+03  0.26295765571E+03 0.  0.
         25    1    4    4    0    0 -0.38304645720E+02 -0.21624180630E+02 -0.59230160779E+02  0.14522593128E+03  0.12509000000E+03 0.  0.
         25    1    4    4    0    0 -0.39123002947E+02  0.52141873678E+02 -0.10421766748E+03  0.17538020032E+03  0.12509000000E+03 0.  0.
         25    1    3    3    0    0  0.77427648667E+02 -0.30517693048E+02  0.20150351209E+01  0.15025957152E+03  0.12509000000E+03 0.  0.
<mgrwt>
<rscale>  2 0.44232789E+03</rscale>
<asrwt>0</asrwt>
<pdfrwt beam="1">  1       21 0.22752420E-01 0.44232789E+03</pdfrwt>
<pdfrwt beam="2">  1       21 0.46492536E-01 0.44232789E+03</pdfrwt>
<totfact> 0.74596265E+04</totfact>
</mgrwt>
</event>
<event>
 7    0  0.4766352E-002  0.4283107E+03  0.7546771E-02  0.1034395E+00
         21   -1    0    0  502  501  0.00000000000E+00  0.00000000000E+00  0.53168835733E+03  0.53168835733E+03  0.00000000000E+00 0.  1.
         21   -1    0    0  501  502 -0.00000000000E+00 -0.00000000000E+00 -0.86258280642E+02  0.86258280642E+02  0.00000000000E+00 0.  1.
      99926    2    1    2    0    0 -0.44408920985E-15  0.00000000000E+00  0.44543007669E+03  0.61794663798E+03  0.42831074486E+03 0.  0.
      99925    2    3    3    0    0 -0.15346063812E+01  0.25883521487E+02  0.40564903917E+03  0.48414697150E+03  0.26301109357E+03 0.  0.
         25    1    3    3    0    0  0.15346063812E+01 -0.25883521487E+02  0.39781037527E+02  0.13379966647E+03  0.12509000000E+03 0.  0.
         25    1    4    4    0    0  0.22206358475E+02  0.38515764678E+02  0.16674917561E+03  0.21314169501E+03  0.12509000000E+03 0.  0.
         25    1    4    4    0    0 -0.23740964856E+02 -0.12632243191E+02  0.23889986356E+03  0.27100527649E+03  0.12509000000E+03 0.  0.
<mgrwt>
<rscale>  2 0.42831074E+03</rscale>
<asrwt>0</asrwt>
<pdfrwt beam="1">  1       21 0.78189463E-01 0.42831074E+03</pdfrwt>
<pdfrwt beam="2">  1       21 0.12685041E-01 0.42831074E+03</pdfrwt>
<totfact> 0.71503923E+04</totfact>
</mgrwt>
</event>
<event>
 7    0  0.4766352E-002  0.4599348E+03  0.7546771E-02  0.1024800E+00
         21   -1    0    0  502  501  0.00000000000E+00  0.00000000000E+00  0.14778055683E+03  0.14778055683E+03  0.00000000000E+00 0. -1.
         21   -1    0    0  501  502 -0.00000000000E+00 -0.00000000000E+00 -0.35786175386E+03  0.35786175386E+03  0.00000000000E+00 0. -1.
      99926    2    1    2    0    0  0.00000000000E+00  0.00000000000E+00 -0.21008119703E+03  0.50564231068E+03  0.45993481821E+03 0.  0.
      99925    2    3    3    0    0  0.10448616739E+03  0.52953238888E+02 -0.13306244460E+03  0.31775723674E+03  0.26370939053E+03 0.  0.
         25    1    4    4    0    0  0.29322309813E+02  0.61329058573E+02 -0.64207978944E+02  0.15617689950E+03  0.12509000000E+03 0.  0.
         25    1    4    4    0    0  0.75163857575E+02 -0.83758196853E+01 -0.68854465655E+02  0.16158033724E+03  0.12509000000E+03 0.  0.
         25    1    3    3    0    0 -0.10448616739E+03 -0.52953238888E+02 -0.77018752430E+02  0.18788507394E+03  0.12509000000E+03 0.  0.
<mgrwt>
<rscale>  2 0.45993482E+03</rscale>
<asrwt>0</asrwt>
<pdfrwt beam="1">  1       21 0.21732436E-01 0.45993482E+03</pdfrwt>
<pdfrwt beam="2">  1       21 0.52626727E-01 0.45993482E+03</pdfrwt>
<totfact> 0.62395911E+04</totfact>
</mgrwt>
</event>
<event>
 7    0  0.4766352E-002  0.4563012E+03  0.7546771E-02  0.1025859E+00
         21   -1    0    0  502  501  0.00000000000E+00  0.00000000000E+00  0.20178015839E+03  0.20178015839E+03  0.00000000000E+00 0.  1.
         21   -1    0    0  501  502 -0.00000000000E+00 -0.00000000000E+00 -0.25796733723E+03  0.25796733723E+03  0.00000000000E+00 0.  1.
      99926    2    1    2    0    0  0.00000000000E+00  0.71054273576E-14 -0.56187178837E+02  0.45974749562E+03  0.45630117320E+03 0.  0.
      99925    2    3    3    0    0  0.68462898944E+02  0.41730953944E+02 -0.11745858575E+03  0.29902931229E+03  0.26304632519E+03 0.  0.
         25    1    4    4    0    0  0.20467844782E+02  0.11161407518E+01 -0.92256934924E+02  0.15677700272E+03  0.12509000000E+03 0.  0.
         25    1    4    4    0    0  0.47995054162E+02  0.40614813192E+02 -0.25201650822E+02  0.14225230957E+03  0.12509000000E+03 0.  0.
         25    1    3    3    0    0 -0.68462898944E+02 -0.41730953944E+02  0.61271406909E+02  0.16071818333E+03  0.12509000000E+03 0.  0.
<mgrwt>
<rscale>  2 0.45630117E+03</rscale>
<asrwt>0</asrwt>
<pdfrwt beam="1">  1       21 0.29673553E-01 0.45630117E+03</pdfrwt>
<pdfrwt beam="2">  1       21 0.37936373E-01 0.45630117E+03</pdfrwt>
<totfact> 0.67495824E+04</totfact>
</mgrwt>
</event>
<event>
 7    0  0.4766352E-002  0.4496032E+03  0.7546771E-02  0.1027840E+00
         21   -1    0    0  502  501  0.00000000000E+00  0.00000000000E+00  0.13395174590E+04  0.13395174590E+04  0.00000000000E+00 0. -1.
         21   -1    0    0  501  502 -0.00000000000E+00 -0.00000000000E+00 -0.37726839889E+02  0.37726839889E+02  0.00000000000E+00 0. -1.
      99926    2    1    2    0    0  0.14210854715E-13 -0.17763568394E-14  0.13017906191E+04  0.13772442989E+04  0.44960320597E+03 0.  0.
      99925    2    3    3    0    0  0.10291181023E+03 -0.15065029476E+02  0.72853729786E+03  0.78135448171E+03  0.26254606436E+03 0.  0.
         25    1    4    4    0    0  0.45696196820E+02  0.13513110683E+02  0.44852885609E+03  0.46807733272E+03  0.12509000000E+03 0.  0.
         25    1    3    3    0    0 -0.10291181023E+03  0.15065029476E+02  0.57325332122E+03  0.59588981715E+03  0.12509000000E+03 0.  0.
         25    1    4    4    0    0  0.57215613406E+02 -0.28578140159E+02  0.28000844177E+03  0.31327714899E+03  0.12509000000E+03 0.  0.
<mgrwt>
<rscale>  2 0.44960321E+03</rscale>
<asrwt>0</asrwt>
<pdfrwt beam="1">  1       21 0.19698783E+00 0.44960321E+03</pdfrwt>
<pdfrwt beam="2">  1       21 0.55480656E-02 0.44960321E+03</pdfrwt>
<totfact> 0.28105280E+04</totfact>
</mgrwt>
</event>
<event>
 7    0  0.4766352E-002  0.4524737E+03  0.7546771E-02  0.1026987E+00
         21   -1    0    0  502  501  0.00000000000E+00  0.00000000000E+00  0.10771782879E+03  0.10771782879E+03  0.00000000000E+00 0. -1.
         21   -1    0    0  501  502 -0.00000000000E+00 -0.00000000000E+00 -0.47515916388E+03  0.47515916388E+03  0.00000000000E+00 0. -1.
      99926    2    1    2    0    0  0.14210854715E-13  0.00000000000E+00 -0.36744133509E+03  0.58287699267E+03  0.45247370515E+03 0.  0.
      99925    2    3    3    0    0  0.10389806208E+03 -0.35843203250E+02 -0.21447544173E+03  0.35676725127E+03  0.26306579776E+03 0.  0.
         25    1    4    4    0    0  0.11220707172E+02 -0.15206928445E+02 -0.11428201903E+03  0.17048472927E+03  0.12509000000E+03 0.  0.
         25    1    3    3    0    0 -0.10389806208E+03  0.35843203250E+02 -0.15296589336E+03  0.22610974140E+03  0.12509000000E+03 0.  0.
         25    1    4    4    0    0  0.92677354905E+02 -0.20636274805E+02 -0.10019342270E+03  0.18628252200E+03  0.12509000000E+03 0.  0.
<mgrwt>
<rscale>  2 0.45247371E+03</rscale>
<asrwt>0</asrwt>
<pdfrwt beam="1">  1       21 0.15840857E-01 0.45247371E+03</pdfrwt>
<pdfrwt beam="2">  1       21 0.69876349E-01 0.45247371E+03</pdfrwt>
<totfact> 0.60952972E+04</totfact>
</mgrwt>
</event>
<event>
 7    0  0.4766352E-002  0.4556921E+03  0.7546771E-02  0.1026038E+00
         21   -1    0    0  502  501  0.00000000000E+00  0.00000000000E+00  0.28988634023E+03  0.28988634023E+03  0.00000000000E+00 0.  1.
         21   -1    0    0  501  502 -0.00000000000E+00 -0.00000000000E+00 -0.17908338757E+03  0.17908338757E+03  0.00000000000E+00 0.  1.
      99926    2    1    2    0    0 -0.35527136788E-14 -0.14210854715E-13  0.11080295266E+03  0.46896972780E+03  0.45569212334E+03 0.  0.
      99925    2    3    3    0    0 -0.20569256830E+02  0.11028661066E+03  0.50016282808E+02  0.29028352758E+03  0.26301457568E+03 0.  0.
         25    1    3    3    0    0  0.20569256830E+02 -0.11028661066E+03  0.60786669852E+02  0.17868620022E+03  0.12509000000E+03 0.  0.
         25    1    4    4    0    0  0.21786091870E+02  0.41562306106E+02  0.12022795254E+01  0.13360768190E+03  0.12509000000E+03 0.  0.
         25    1    4    4    0    0 -0.42355348700E+02  0.68724304556E+02  0.48814003282E+02  0.15667584567E+03  0.12509000000E+03 0.  0.
<mgrwt>
<rscale>  2 0.45569212E+03</rscale>
<asrwt>0</asrwt>
<pdfrwt beam="1">  1       21 0.42630344E-01 0.45569212E+03</pdfrwt>
<pdfrwt beam="2">  1       21 0.26335792E-01 0.45569212E+03</pdfrwt>
<totfact> 0.67143108E+04</totfact>
</mgrwt>
</event>
<event>
 7    0  0.4766352E-002  0.4563330E+03  0.7546771E-02  0.1025850E+00
         21   -1    0    0  502  501  0.00000000000E+00  0.00000000000E+00  0.18396927257E+03  0.18396927257E+03  0.00000000000E+00 0.  1.
         21   -1    0    0  501  502 -0.00000000000E+00 -0.00000000000E+00 -0.28298180373E+03  0.28298180373E+03  0.00000000000E+00 0.  1.
      99926    2    1    2    0    0 -0.14210854715E-13 -0.17763568394E-14 -0.99012531163E+02  0.46695107631E+03  0.45633302131E+03 0.  0.
      99925    2    3    3    0    0 -0.10497298663E+03  0.11745975571E+02 -0.10742345035E+03  0.30301344327E+03  0.26290692888E+03 0.  0.
         25    1    4    4    0    0 -0.94673620107E+02  0.33484361978E+01 -0.69597206276E+02  0.17165542692E+03  0.12509000000E+03 0.  0.
         25    1    4    4    0    0 -0.10299366525E+02  0.83975393736E+01 -0.37826244077E+02  0.13135801635E+03  0.12509000000E+03 0.  0.
         25    1    3    3    0    0  0.10497298663E+03 -0.11745975571E+02  0.84109191893E+01  0.16393763304E+03  0.12509000000E+03 0.  0.
<mgrwt>
<rscale>  2 0.45633302E+03</rscale>
<asrwt>0</asrwt>
<pdfrwt beam="1">  1       21 0.27054305E-01 0.45633302E+03</pdfrwt>
<pdfrwt beam="2">  1       21 0.41614971E-01 0.45633302E+03</pdfrwt>
<totfact> 0.66952930E+04</totfact>
</mgrwt>
</event>
<event>
 7    0  0.4766352E-002  0.4439464E+03  0.7546771E-02  0.1029543E+00
         21   -1    0    0  502  501  0.00000000000E+00  0.00000000000E+00  0.18754917063E+03  0.18754917063E+03  0.00000000000E+00 0.  1.
         21   -1    0    0  501  502 -0.00000000000E+00 -0.00000000000E+00 -0.26271564374E+03  0.26271564374E+03  0.00000000000E+00 0.  1.
      99926    2    1    2    0    0  0.14210854715E-13  0.00000000000E+00 -0.75166473119E+02  0.45026481437E+03  0.44394639809E+03 0.  0.
      99925    2    3    3    0    0 -0.92877094753E+02  0.25311430180E+02 -0.83320439921E+02  0.29221160022E+03  0.26301806092E+03 0.  0.
         25    1    3    3    0    0  0.92877094753E+02 -0.25311430180E+02  0.81539668024E+01  0.15805321415E+03  0.12509000000E+03 0.  0.
         25    1    4    4    0    0 -0.47189686581E+02 -0.12282161287E+02 -0.74525940287E+02  0.15355566379E+03  0.12509000000E+03 0.  0.
         25    1    4    4    0    0 -0.45687408172E+02  0.37593591467E+02 -0.87944996337E+01  0.13865593643E+03  0.12509000000E+03 0.  0.
<mgrwt>
<rscale>  2 0.44394640E+03</rscale>
<asrwt>0</asrwt>
<pdfrwt beam="1">  1       21 0.27580760E-01 0.44394640E+03</pdfrwt>
<pdfrwt beam="2">  1       21 0.38634653E-01 0.44394640E+03</pdfrwt>
<totfact> 0.75319161E+04</totfact>
</mgrwt>
</event>
<event>
 7    0  0.4766352E-002  0.4519118E+03  0.7546771E-02  0.1027153E+00
         21   -1    0    0  502  501  0.00000000000E+00  0.00000000000E+00  0.31242576038E+03  0.31242576038E+03  0.00000000000E+00 0. -1.
         21   -1    0    0  501  502 -0.00000000000E+00 -0.00000000000E+00 -0.16341822552E+03  0.16341822552E+03  0.00000000000E+00 0. -1.
      99926    2    1    2    0    0  0.14210854715E-13  0.00000000000E+00  0.14900753486E+03  0.47584398591E+03  0.45191177621E+03 0.  0.
      99925    2    3    3    0    0  0.95930517339E+02  0.36894624499E+02  0.13600122154E+03  0.31342308282E+03  0.26300916164E+03 0.  0.
         25    1    3    3    0    0 -0.95930517339E+02 -0.36894624499E+02  0.13006313328E+02  0.16242090309E+03  0.12509000000E+03 0.  0.
         25    1    4    4    0    0  0.64833887823E+02  0.53784471245E+02  0.89438264628E+02  0.17533657245E+03  0.12509000000E+03 0.  0.
         25    1    4    4    0    0  0.31096629516E+02 -0.16889846747E+02  0.46562956908E+02  0.13808651037E+03  0.12509000000E+03 0.  0.
<mgrwt>
<rscale>  2 0.45191178E+03</rscale>
<asrwt>0</asrwt>
<pdfrwt beam="1">  1       21 0.45944965E-01 0.45191178E+03</pdfrwt>
<pdfrwt beam="2">  1       21 0.24032092E-01 0.45191178E+03</pdfrwt>
<totfact> 0.68671694E+04</totfact>
</mgrwt>
</event>
<event>
 7    0  0.4766352E-002  0.4555281E+03  0.7546771E-02  0.1026086E+00
         21   -1    0    0  502  501  0.00000000000E+00  0.00000000000E+00  0.59141631570E+03  0.59141631570E+03  0.00000000000E+00 0. -1.
         21   -1    0    0  501  502 -0.00000000000E+00 -0.00000000000E+00 -0.87715638237E+02  0.87715638237E+02  0.00000000000E+00 0. -1.
      99926    2    1    2    0    0 -0.44408920985E-15  0.00000000000E+00  0.50370067746E+03  0.67913195393E+03  0.45552808737E+03 0.  0.
      99925    2    3    3    0    0  0.20994172587E+01  0.74758236215E+02  0.44456482012E+03  0.52184953547E+03  0.26286090799E+03 0.  0.
         25    1    4    4    0    0  0.26194799476E+01  0.93668794937E+01  0.15262146471E+03  0.19757383353E+03  0.12509000000E+03 0.  0.
         25    1    4    4    0    0 -0.52006268892E+00  0.65391356722E+02  0.29194335540E+03  0.32427570193E+03  0.12509000000E+03 0.  0.
         25    1    3    3    0    0 -0.20994172587E+01 -0.74758236215E+02  0.59135857342E+02  0.15728241847E+03  0.12509000000E+03 0.  0.
<mgrwt>
<rscale>  2 0.45552809E+03</rscale>
<asrwt>0</asrwt>
<pdfrwt beam="1">  1       21 0.86972986E-01 0.45552809E+03</pdfrwt>
<pdfrwt beam="2">  1       21 0.12899359E-01 0.45552809E+03</pdfrwt>
<totfact> 0.53826950E+04</totfact>
</mgrwt>
</event>
<event>
 7    0  0.4766352E-002  0.4582278E+03  0.7546771E-02  0.1025296E+00
         21   -1    0    0  502  501  0.00000000000E+00  0.00000000000E+00  0.63079948095E+02  0.63079948095E+02  0.00000000000E+00 0.  1.
         21   -1    0    0  501  502 -0.00000000000E+00 -0.00000000000E+00 -0.83216903501E+03  0.83216903501E+03  0.00000000000E+00 0.  1.
      99926    2    1    2    0    0 -0.11657341759E-14  0.00000000000E+00 -0.76908908692E+03  0.89524898311E+03  0.45822780158E+03 0.  0.
      99925    2    3    3    0    0 -0.41645116576E+00  0.57028475217E+02 -0.68017981709E+03  0.73152730837E+03  0.26312582332E+03 0.  0.
         25    1    3    3    0    0  0.41645116576E+00 -0.57028475217E+02 -0.88909269825E+02  0.16372167473E+03  0.12509000000E+03 0.  0.
         25    1    4    4    0    0 -0.28939185102E+02  0.74880497461E+01 -0.27372253048E+03  0.30243194129E+03  0.12509000000E+03 0.  0.
         25    1    4    4    0    0  0.28522733936E+02  0.49540425471E+02 -0.40645728662E+03  0.42909536708E+03  0.12509000000E+03 0.  0.
<mgrwt>
<rscale>  2 0.45822780E+03</rscale>
<asrwt>0</asrwt>
<pdfrwt beam="1">  1       21 0.92764632E-02 0.45822780E+03</pdfrwt>
<pdfrwt beam="2">  1       21 0.12237780E+00 0.45822780E+03</pdfrwt>
<totfact> 0.42358973E+04</totfact>
</mgrwt>
</event>
<event>
 7    0  0.4766352E-002  0.4387601E+03  0.7546771E-02  0.1031128E+00
         21   -1    0    0  502  501  0.00000000000E+00  0.00000000000E+00  0.10785858003E+03  0.10785858003E+03  0.00000000000E+00 0.  1.
         21   -1    0    0  501  502 -0.00000000000E+00 -0.00000000000E+00 -0.44621031356E+03  0.44621031356E+03  0.00000000000E+00 0.  1.
      99926    2    1    2    0    0  0.00000000000E+00  0.00000000000E+00 -0.33835173353E+03  0.55406889359E+03  0.43876012041E+03 0.  0.
      99925    2    3    3    0    0 -0.29190162389E+02 -0.13820008935E+02 -0.99992979649E+02  0.28294998632E+03  0.26271475130E+03 0.  0.
         25    1    3    3    0    0  0.29190162389E+02  0.13820008935E+02 -0.23835875388E+03  0.27111890727E+03  0.12509000000E+03 0.  0.
         25    1    4    4    0    0  0.58859389597E+01  0.28492073340E+01 -0.13493587114E+02  0.12598550414E+03  0.12509000000E+03 0.  0.
         25    1    4    4    0    0 -0.35076101349E+02 -0.16669216269E+02 -0.86499392535E+02  0.15696448218E+03  0.12509000000E+03 0.  0.
<mgrwt>
<rscale>  2 0.43876012E+03</rscale>
<asrwt>0</asrwt>
<pdfrwt beam="1">  1       21 0.15861556E-01 0.43876012E+03</pdfrwt>
<pdfrwt beam="2">  1       21 0.65619164E-01 0.43876012E+03</pdfrwt>
<totfact> 0.70190623E+04</totfact>
</mgrwt>
</event>
<event>
 7    0  0.4766352E-002  0.4499922E+03  0.7546771E-02  0.1027724E+00
         21   -1    0    0  502  501  0.00000000000E+00  0.00000000000E+00  0.90716343177E+02  0.90716343177E+02  0.00000000000E+00 0.  1.
         21   -1    0    0  501  502 -0.00000000000E+00 -0.00000000000E+00 -0.55803896723E+03  0.55803896723E+03  0.00000000000E+00 0.  1.
      99926    2    1    2    0    0  0.00000000000E+00  0.00000000000E+00 -0.46732262405E+03  0.64875531040E+03  0.44999224197E+03 0.  0.
      99925    2    3    3    0    0  0.68385810761E+02 -0.18961544399E+02 -0.41355183677E+03  0.49521389923E+03  0.26301240469E+03 0.  0.
         25    1    3    3    0    0 -0.68385810761E+02  0.18961544399E+02 -0.53770787282E+02  0.15354141117E+03  0.12509000000E+03 0.  0.
         25    1    4    4    0    0  0.56481158191E+02 -0.22526795096E+02 -0.27475380535E+03  0.30795249533E+03  0.12509000000E+03 0.  0.
         25    1    4    4    0    0  0.11904652570E+02  0.35652506975E+01 -0.13879803142E+03  0.18726140390E+03  0.12509000000E+03 0.  0.
<mgrwt>
<rscale>  2 0.44999224E+03</rscale>
<asrwt>0</asrwt>
<pdfrwt beam="1">  1       21 0.13340639E-01 0.44999224E+03</pdfrwt>
<pdfrwt beam="2">  1       21 0.82064552E-01 0.44999224E+03</pdfrwt>
<totfact> 0.58032108E+04</totfact>
</mgrwt>
</event>
<event>
 7    0  0.4766352E-002  0.4558394E+03  0.7546771E-02  0.1025995E+00
         21   -1    0    0  502  501  0.00000000000E+00  0.00000000000E+00  0.67896347806E+02  0.67896347806E+02  0.00000000000E+00 0.  1.
         21   -1    0    0  501  502 -0.00000000000E+00 -0.00000000000E+00 -0.76509853492E+03  0.76509853492E+03  0.00000000000E+00 0.  1.
      99926    2    1    2    0    0  0.14210854715E-13  0.71054273576E-14 -0.69720218712E+03  0.83299488273E+03  0.45583942889E+03 0.  0.
      99925    2    3    3    0    0 -0.10061206329E+03 -0.52569300799E+02 -0.45720187866E+03  0.53950898047E+03  0.26296399657E+03 0.  0.
         25    1    3    3    0    0  0.10061206329E+03  0.52569300799E+02 -0.24000030845E+03  0.29348590226E+03  0.12509000000E+03 0.  0.
         25    1    4    4    0    0 -0.96375405910E+01 -0.27235017276E+02 -0.18050318134E+03  0.22150290050E+03  0.12509000000E+03 0.  0.
         25    1    4    4    0    0 -0.90974522697E+02 -0.25334283523E+02 -0.27669869732E+03  0.31800607997E+03  0.12509000000E+03 0.  0.
<mgrwt>
<rscale>  2 0.45583943E+03</rscale>
<asrwt>0</asrwt>
<pdfrwt beam="1">  1       21 0.99847572E-02 0.45583943E+03</pdfrwt>
<pdfrwt beam="2">  1       21 0.11251449E+00 0.45583943E+03</pdfrwt>
<totfact> 0.45906829E+04</totfact>
</mgrwt>
</event>
<event>
 7    0  0.4766352E-002  0.4560888E+03  0.7546771E-02  0.1025922E+00
         21   -1    0    0  502  501  0.00000000000E+00  0.00000000000E+00  0.29237579642E+03  0.29237579642E+03  0.00000000000E+00 0.  1.
         21   -1    0    0  501  502 -0.00000000000E+00 -0.00000000000E+00 -0.17786779956E+03  0.17786779956E+03  0.00000000000E+00 0.  1.
      99926    2    1    2    0    0  0.00000000000E+00  0.14210854715E-13  0.11450799686E+03  0.47024359598E+03  0.45608876133E+03 0.  0.
      99925    2    3    3    0    0 -0.34813653476E+02  0.10667336547E+03  0.93744786759E+02  0.30092196014E+03  0.26301091931E+03 0.  0.
         25    1    4    4    0    0  0.11960275058E+02  0.32637653256E+02  0.66295177653E+02  0.14577662114E+03  0.12509000000E+03 0.  0.
         25    1    4    4    0    0 -0.46773928534E+02  0.74035712218E+02  0.27449609105E+02  0.15514533900E+03  0.12509000000E+03 0.  0.
         25    1    3    3    0    0  0.34813653476E+02 -0.10667336547E+03  0.20763210098E+02  0.16932163584E+03  0.12509000000E+03 0.  0.
<mgrwt>
<rscale>  2 0.45608876E+03</rscale>
<asrwt>0</asrwt>
<pdfrwt beam="1">  1       21 0.42996441E-01 0.45608876E+03</pdfrwt>
<pdfrwt beam="2">  1       21 0.26157029E-01 0.45608876E+03</pdfrwt>
<totfact> 0.66838473E+04</totfact>
</mgrwt>
</event>
<event>
 7    0  0.4766352E-002  0.4507398E+03  0.7546771E-02  0.1027502E+00
         21   -1    0    0  502  501  0.00000000000E+00  0.00000000000E+00  0.47194906800E+03  0.47194906800E+03  0.00000000000E+00 0. -1.
         21   -1    0    0  501  502 -0.00000000000E+00 -0.00000000000E+00 -0.10762093769E+03  0.10762093769E+03  0.00000000000E+00 0. -1.
      99926    2    1    2    0    0  0.14210854715E-13  0.17763568394E-14  0.36432813031E+03  0.57957000569E+03  0.45073984177E+03 0.  0.
      99925    2    3    3    0    0 -0.64892633057E+02 -0.60334586571E+01  0.34359517796E+03  0.43700486317E+03  0.26204607928E+03 0.  0.
         25    1    3    3    0    0  0.64892633057E+02  0.60334586571E+01  0.20732952346E+02  0.14256514252E+03  0.12509000000E+03 0.  0.
         25    1    4    4    0    0 -0.26218650155E+02  0.24426262877E+02  0.12532503174E+03  0.18065971221E+03  0.12509000000E+03 0.  0.
         25    1    4    4    0    0 -0.38673982903E+02 -0.30459721534E+02  0.21827014622E+03  0.25634515096E+03  0.12509000000E+03 0.  0.
<mgrwt>
<rscale>  2 0.45073984E+03</rscale>
<asrwt>0</asrwt>
<pdfrwt beam="1">  1       21 0.69404274E-01 0.45073984E+03</pdfrwt>
<pdfrwt beam="2">  1       21 0.15826609E-01 0.45073984E+03</pdfrwt>
<totfact> 0.62016174E+04</totfact>
</mgrwt>
</event>
<event>
 7    0  0.4766352E-002  0.4611217E+03  0.7546771E-02  0.1024456E+00
         21   -1    0    0  502  501  0.00000000000E+00  0.00000000000E+00  0.18900636307E+04  0.18900636307E+04  0.00000000000E+00 0. -1.
         21   -1    0    0  501  502 -0.00000000000E+00 -0.00000000000E+00 -0.28125139683E+02  0.28125139683E+02  0.00000000000E+00 0. -1.
      99926    2    1    2    0    0  0.00000000000E+00  0.00000000000E+00  0.18619384910E+04  0.19181887704E+04  0.46112169163E+03 0.  0.
      99925    2    3    3    0    0  0.32429072634E+02  0.23201628554E+02  0.69980501390E+03  0.74866250430E+03  0.26301811258E+03 0.  0.
         25    1    4    4    0    0 -0.23541362222E+02  0.16376142767E+02  0.36065979080E+03  0.38281244310E+03  0.12509000000E+03 0.  0.
         25    1    4    4    0    0  0.55970434857E+02  0.68254857871E+01  0.33914522310E+03  0.36585006121E+03  0.12509000000E+03 0.  0.
         25    1    3    3    0    0 -0.32429072634E+02 -0.23201628554E+02  0.11621334771E+04  0.11695262661E+04  0.12509000000E+03 0.  0.
<mgrwt>
<rscale>  2 0.46112169E+03</rscale>
<asrwt>0</asrwt>
<pdfrwt beam="1">  1       21 0.27795045E+00 0.46112169E+03</pdfrwt>
<pdfrwt beam="2">  1       21 0.41360512E-02 0.46112169E+03</pdfrwt>
<totfact> 0.14395629E+04</totfact>
</mgrwt>
</event>
<event>
 7    0  0.4766352E-002  0.4549716E+03  0.7546771E-02  0.1026250E+00
         21   -1    0    0  502  501  0.00000000000E+00  0.00000000000E+00  0.43017091819E+03  0.43017091819E+03  0.00000000000E+00 0.  1.
         21   -1    0    0  501  502 -0.00000000000E+00 -0.00000000000E+00 -0.12030053889E+03  0.12030053889E+03  0.00000000000E+00 0.  1.
      99926    2    1    2    0    0  0.00000000000E+00 -0.17763568394E-14  0.30987037930E+03  0.55047145708E+03  0.45497161789E+03 0.  0.
      99925    2    3    3    0    0  0.18351977746E+02 -0.10383849770E+02  0.32972525110E+03  0.42207230031E+03  0.26264361034E+03 0.  0.
         25    1    4    4    0    0 -0.10512891213E+02  0.29106079219E+02  0.17175174296E+03  0.21471808037E+03  0.12509000000E+03 0.  0.
         25    1    3    3    0    0 -0.18351977746E+02  0.10383849770E+02 -0.19854871804E+02  0.12839915676E+03  0.12509000000E+03 0.  0.
         25    1    4    4    0    0  0.28864868959E+02 -0.39489928989E+02  0.15797350815E+03  0.20735421994E+03  0.12509000000E+03 0.  0.
<mgrwt>
<rscale>  2 0.45497162E+03</rscale>
<asrwt>0</asrwt>
<pdfrwt beam="1">  1       21 0.63260429E-01 0.45497162E+03</pdfrwt>
<pdfrwt beam="2">  1       21 0.17691256E-01 0.45497162E+03</pdfrwt>
<totfact> 0.61849256E+04</totfact>
</mgrwt>
</event>
<event>
 7    0  0.4766352E-002  0.4037841E+03  0.7546771E-02  0.1042477E+00
         21   -1    0    0  502  501  0.00000000000E+00  0.00000000000E+00  0.26019963168E+02  0.26019963168E+02  0.00000000000E+00 0.  1.
         21   -1    0    0  501  502 -0.00000000000E+00 -0.00000000000E+00 -0.15665046617E+04  0.15665046617E+04  0.00000000000E+00 0.  1.
      99926    2    1    2    0    0  0.35527136788E-14  0.00000000000E+00 -0.15404846986E+04  0.15925246249E+04  0.40378406903E+03 0.  0.
      99925    2    3    3    0    0  0.16159018562E+02  0.46375371425E+02 -0.10923914040E+04  0.11247138750E+04  0.26315495855E+03 0.  0.
         25    1    4    4    0    0  0.42915382377E+02  0.24523798054E+02 -0.46607694145E+03  0.48509624835E+03  0.12509000000E+03 0.  0.
         25    1    4    4    0    0 -0.26756363814E+02  0.21851573371E+02 -0.62631446251E+03  0.63961762664E+03  0.12509000000E+03 0.  0.
         25    1    3    3    0    0 -0.16159018562E+02 -0.46375371425E+02 -0.44809329460E+03  0.46781074990E+03  0.12509000000E+03 0.  0.
<mgrwt>
<rscale>  2 0.40378407E+03</rscale>
<asrwt>0</asrwt>
<pdfrwt beam="1">  1       21 0.38264636E-02 0.40378407E+03</pdfrwt>
<pdfrwt beam="2">  1       21 0.23036843E+00 0.40378407E+03</pdfrwt>
<totfact> 0.32849007E+04</totfact>
</mgrwt>
</event>
<event>
 7    0  0.4766352E-002  0.4559594E+03  0.7546771E-02  0.1025960E+00
         21   -1    0    0  502  501  0.00000000000E+00  0.00000000000E+00  0.66830584835E+03  0.66830584835E+03  0.00000000000E+00 0. -1.
         21   -1    0    0  501  502 -0.00000000000E+00 -0.00000000000E+00 -0.77770887204E+02  0.77770887204E+02  0.00000000000E+00 0. -1.
      99926    2    1    2    0    0  0.00000000000E+00  0.00000000000E+00  0.59053496115E+03  0.74607673556E+03  0.45595937867E+03 0.  0.
      99925    2    3    3    0    0 -0.84612795711E+02 -0.73553258204E+02  0.33619845163E+03  0.44127520150E+03  0.26291633191E+03 0.  0.
         25    1    3    3    0    0  0.84612795711E+02  0.73553258204E+02  0.25433650952E+03  0.30480153406E+03  0.12509000000E+03 0.  0.
         25    1    4    4    0    0 -0.27220271533E+02 -0.61520443684E+02  0.21393542105E+03  0.25679092791E+03  0.12509000000E+03 0.  0.
         25    1    4    4    0    0 -0.57392524178E+02 -0.12032814520E+02  0.12226303058E+03  0.18448427359E+03  0.12509000000E+03 0.  0.
<mgrwt>
<rscale>  2 0.45595938E+03</rscale>
<asrwt>0</asrwt>
<pdfrwt beam="1">  1       21 0.98280269E-01 0.45595938E+03</pdfrwt>
<pdfrwt beam="2">  1       21 0.11436896E-01 0.45595938E+03</pdfrwt>
<totfact> 0.50092831E+04</totfact>
</mgrwt>
</event>
<event>
 7    0  0.4766352E-002  0.4242996E+03  0.7546771E-02  0.1035676E+00
         21   -1    0    0  502  501  0.00000000000E+00  0.00000000000E+00  0.40559597401E+03  0.40559597401E+03  0.00000000000E+00 0. -1.
         21   -1    0    0  501  502 -0.00000000000E+00 -0.00000000000E+00 -0.11096641963E+03  0.11096641963E+03  0.00000000000E+00 0. -1.
      99926    2    1    2    0    0  0.00000000000E+00  0.00000000000E+00  0.29462955437E+03  0.51656239364E+03  0.42429957838E+03 0.  0.
      99925    2    3    3    0    0 -0.77762958369E+02  0.17373368756E+02  0.17274238216E+03  0.32459129560E+03  0.26300316908E+03 0.  0.
         25    1    4    4    0    0 -0.50793948166E+02  0.26049533961E+01  0.42882471073E+02  0.14168001051E+03  0.12509000000E+03 0.  0.
         25    1    4    4    0    0 -0.26969010203E+02  0.14768415360E+02  0.12985991109E+03  0.18291128509E+03  0.12509000000E+03 0.  0.
         25    1    3    3    0    0  0.77762958369E+02 -0.17373368756E+02  0.12188717221E+03  0.19197109805E+03  0.12509000000E+03 0.  0.
<mgrwt>
<rscale>  2 0.42429958E+03</rscale>
<asrwt>0</asrwt>
<pdfrwt beam="1">  1       21 0.59646466E-01 0.42429958E+03</pdfrwt>
<pdfrwt beam="2">  1       21 0.16318591E-01 0.42429958E+03</pdfrwt>
<totfact> 0.82412598E+04</totfact>
</mgrwt>
</event>
<event>
 7    0  0.4766352E-002  0.4833470E+03  0.7546771E-02  0.1018219E+00
         21   -1    0    0  502  501  0.00000000000E+00  0.00000000000E+00  0.21789171899E+03  0.21789171899E+03  0.00000000000E+00 0.  1.
         21   -1    0    0  501  502 -0.00000000000E+00 -0.00000000000E+00 -0.26805090922E+03  0.26805090922E+03  0.00000000000E+00 0.  1.
      99926    2    1    2    0    0  0.00000000000E+00  0.00000000000E+00 -0.50159190227E+02  0.48594262821E+03  0.48334697014E+03 0.  0.
      99925    2    3    3    0    0 -0.76084957784E+02  0.16619009840E+02  0.83877639736E+02  0.28674801941E+03  0.26291416070E+03 0.  0.
         25    1    4    4    0    0 -0.66655022489E+02  0.20109470326E+02  0.15939036846E+02  0.14404458968E+03  0.12509000000E+03 0.  0.
         25    1    4    4    0    0 -0.94299352952E+01 -0.34904604859E+01  0.67938602890E+02  0.14270342973E+03  0.12509000000E+03 0.  0.
         25    1    3    3    0    0  0.76084957784E+02 -0.16619009840E+02 -0.13403682996E+03  0.19919460880E+03  0.12509000000E+03 0.  0.
<mgrwt>
<rscale>  2 0.48334697E+03</rscale>
<asrwt>0</asrwt>
<pdfrwt beam="1">  1       21 0.32042900E-01 0.48334697E+03</pdfrwt>
<pdfrwt beam="2">  1       21 0.39419251E-01 0.48334697E+03</pdfrwt>
<totfact> 0.53237396E+04</totfact>
</mgrwt>
</event>
<event>
 7    0  0.4766352E-002  0.4466488E+03  0.7546771E-02  0.1028726E+00
         21   -1    0    0  502  501  0.00000000000E+00  0.00000000000E+00  0.13702717519E+03  0.13702717519E+03  0.00000000000E+00 0.  1.
         21   -1    0    0  501  502 -0.00000000000E+00 -0.00000000000E+00 -0.36397011504E+03  0.36397011504E+03  0.00000000000E+00 0.  1.
      99926    2    1    2    0    0  0.00000000000E+00  0.00000000000E+00 -0.22694293985E+03  0.50099729024E+03  0.44664884068E+03 0.  0.
      99925    2    3    3    0    0  0.27896693656E+02  0.84669185531E+02 -0.83065422208E+02  0.29053269778E+03  0.26374663527E+03 0.  0.
         25    1    3    3    0    0 -0.27896693656E+02 -0.84669185531E+02 -0.14387751764E+03  0.21046459246E+03  0.12509000000E+03 0.  0.
         25    1    4    4    0    0  0.53265068746E+02  0.53465383263E+02 -0.55479221974E+02  0.15627273251E+03  0.12509000000E+03 0.  0.
         25    1    4    4    0    0 -0.25368375090E+02  0.31203802268E+02 -0.27586200234E+02  0.13425996527E+03  0.12509000000E+03 0.  0.
<mgrwt>
<rscale>  2 0.44664884E+03</rscale>
<asrwt>0</asrwt>
<pdfrwt beam="1">  1       21 0.20151055E-01 0.44664884E+03</pdfrwt>
<pdfrwt beam="2">  1       21 0.53525016E-01 0.44664884E+03</pdfrwt>
<totfact> 0.69707852E+04</totfact>
</mgrwt>
</event>
<event>
 7    0  0.4766352E-002  0.4528251E+03  0.7546771E-02  0.1026883E+00
         21   -1    0    0  502  501  0.00000000000E+00  0.00000000000E+00  0.21794652329E+03  0.21794652329E+03  0.00000000000E+00 0.  1.
         21   -1    0    0  501  502 -0.00000000000E+00 -0.00000000000E+00 -0.23520742566E+03  0.23520742566E+03  0.00000000000E+00 0.  1.
      99926    2    1    2    0    0 -0.14210854715E-13  0.00000000000E+00 -0.17260902372E+02  0.45315394894E+03  0.45282509062E+03 0.  0.
      99925    2    3    3    0    0 -0.82276138219E+02  0.75259575173E+02 -0.76174756536E+01  0.28530321062E+03  0.26250053235E+03 0.  0.
         25    1    3    3    0    0  0.82276138219E+02 -0.75259575173E+02 -0.96434267182E+01  0.16785073832E+03  0.12509000000E+03 0.  0.
         25    1    4    4    0    0 -0.67011734278E+02  0.14409754972E+02 -0.23146266359E+02  0.14450422594E+03  0.12509000000E+03 0.  0.
         25    1    4    4    0    0 -0.15264403942E+02  0.60849820201E+02  0.15528790705E+02  0.14079898468E+03  0.12509000000E+03 0.  0.
<mgrwt>
<rscale>  2 0.45282509E+03</rscale>
<asrwt>0</asrwt>
<pdfrwt beam="1">  1       21 0.32050960E-01 0.45282509E+03</pdfrwt>
<pdfrwt beam="2">  1       21 0.34589327E-01 0.45282509E+03</pdfrwt>
<totfact> 0.69886173E+04</totfact>
</mgrwt>
</event>
<event>
 7    0  0.4766352E-002  0.4549743E+03  0.7546771E-02  0.1026249E+00
         21   -1    0    0  502  501  0.00000000000E+00  0.00000000000E+00  0.62331434695E+03  0.62331434695E+03  0.00000000000E+00 0.  1.
         21   -1    0    0  501  502 -0.00000000000E+00 -0.00000000000E+00 -0.83024560980E+02  0.83024560980E+02  0.00000000000E+00 0.  1.
      99926    2    1    2    0    0  0.00000000000E+00 -0.35527136788E-14  0.54028978597E+03  0.70633890793E+03  0.45497428502E+03 0.  0.
      99925    2    3    3    0    0 -0.73575457543E+02  0.29631686063E+02  0.21469458712E+03  0.34863634100E+03  0.26298697260E+03 0.  0.
         25    1    3    3    0    0  0.73575457543E+02 -0.29631686063E+02  0.32559519885E+03  0.35770256693E+03  0.12509000000E+03 0.  0.
         25    1    4    4    0    0 -0.86760679119E+01  0.28595783619E+02  0.69058300020E+02  0.14597790893E+03  0.12509000000E+03 0.  0.
         25    1    4    4    0    0 -0.64899389631E+02  0.10359024444E+01  0.14563628710E+03  0.20265843207E+03  0.12509000000E+03 0.  0.
<mgrwt>
<rscale>  2 0.45497429E+03</rscale>
<asrwt>0</asrwt>
<pdfrwt beam="1">  1       21 0.91663872E-01 0.45497429E+03</pdfrwt>
<pdfrwt beam="2">  1       21 0.12209495E-01 0.45497429E+03</pdfrwt>
<totfact> 0.52570783E+04</totfact>
</mgrwt>
</event>
<event>
 6    0  0.4766352E-002  0.4498455E+03  0.7546771E-02  0.1027768E+00
         21   -1    0    0  502  501  0.00000000000E+00  0.00000000000E+00  0.42232398908E+03  0.42232398908E+03  0.00000000000E+00 0. -1.
         21   -1    0    0  501  502 -0.00000000000E+00 -0.00000000000E+00 -0.11979012048E+03  0.11979012048E+03  0.00000000000E+00 0. -1.
      99926    2    1    2    0    0 -0.14210854715E-13  0.00000000000E+00  0.30253386860E+03  0.54211410955E+03  0.44984549139E+03 0.  0.
         25    1    3    3    0    0  0.33307568399E+02 -0.59140908300E+02  0.55314075313E+02  0.15268986926E+03  0.12509000000E+03 0.  0.
         25    1    3    3    0    0  0.58320291983E+02  0.10826260313E+02  0.11078774408E+03  0.17731299080E+03  0.12509000000E+03 0.  0.
         25    1    3    3    0    0 -0.91627860383E+02  0.48314647987E+02  0.13643204921E+03  0.21211124949E+03  0.12509000000E+03 0.  0.
<mgrwt>
<rscale>  2 0.44984549E+03</rscale>
<asrwt>0</asrwt>
<pdfrwt beam="1">  1       21 0.62106468E-01 0.44984549E+03</pdfrwt>
<pdfrwt beam="2">  1       21 0.17616194E-01 0.44984549E+03</pdfrwt>
<totfact> 0.65001754E+04</totfact>
</mgrwt>
</event>
<event>
 7    0  0.4766352E-002  0.4545582E+03  0.7546771E-02  0.1026371E+00
         21   -1    0    0  502  501  0.00000000000E+00  0.00000000000E+00  0.79330004815E+02  0.79330004815E+02  0.00000000000E+00 0. -1.
         21   -1    0    0  501  502 -0.00000000000E+00 -0.00000000000E+00 -0.65115060388E+03  0.65115060388E+03  0.00000000000E+00 0. -1.
      99926    2    1    2    0    0  0.00000000000E+00  0.00000000000E+00 -0.57182059907E+03  0.73048060869E+03  0.45455816147E+03 0.  0.
      99925    2    3    3    0    0  0.44120149707E+02  0.91406455718E+02 -0.43875693441E+03  0.52154240082E+03  0.26305341778E+03 0.  0.
         25    1    4    4    0    0  0.22387714107E+02  0.26363947466E+02 -0.14259165135E+03  0.19281118900E+03  0.12509000000E+03 0.  0.
         25    1    4    4    0    0  0.21732435600E+02  0.65042508252E+02 -0.29616528306E+03  0.32873121182E+03  0.12509000000E+03 0.  0.
         25    1    3    3    0    0 -0.44120149707E+02 -0.91406455718E+02 -0.13306366466E+03  0.20893820787E+03  0.12509000000E+03 0.  0.
<mgrwt>
<rscale>  2 0.45455816E+03</rscale>
<asrwt>0</asrwt>
<pdfrwt beam="1">  1       21 0.11666177E-01 0.45455816E+03</pdfrwt>
<pdfrwt beam="2">  1       21 0.95757440E-01 0.45455816E+03</pdfrwt>
<totfact> 0.51457691E+04</totfact>
</mgrwt>
</event>
<event>
 7    0  0.4766352E-002  0.4659105E+03  0.7546771E-02  0.1023081E+00
         21   -1    0    0  502  501  0.00000000000E+00  0.00000000000E+00  0.28324559974E+02  0.28324559974E+02  0.00000000000E+00 0. -1.
         21   -1    0    0  501  502 -0.00000000000E+00 -0.00000000000E+00 -0.19159394770E+04  0.19159394770E+04  0.00000000000E+00 0. -1.
      99926    2    1    2    0    0  0.00000000000E+00  0.00000000000E+00 -0.18876149171E+04  0.19442640370E+04  0.46591047476E+03 0.  0.
      99925    2    3    3    0    0 -0.70644578953E+02  0.70350203214E+02 -0.14779964162E+04  0.15045202116E+04  0.26299781980E+03 0.  0.
         25    1    4    4    0    0 -0.56864068262E+02  0.61630556551E+02 -0.93595289167E+03  0.94799112405E+03  0.12509000000E+03 0.  0.
         25    1    4    4    0    0 -0.13780510691E+02  0.87196466631E+01 -0.54204352452E+03  0.55652908754E+03  0.12509000000E+03 0.  0.
         25    1    3    3    0    0  0.70644578953E+02 -0.70350203214E+02 -0.40961850088E+03  0.43974382542E+03  0.12509000000E+03 0.  0.
<mgrwt>
<rscale>  2 0.46591047E+03</rscale>
<asrwt>0</asrwt>
<pdfrwt beam="1">  1       21 0.41653761E-02 0.46591047E+03</pdfrwt>
<pdfrwt beam="2">  1       21 0.28175583E+00 0.46591047E+03</pdfrwt>
<totfact> 0.13464620E+04</totfact>
</mgrwt>
</event>
<event>
 7    0  0.4766352E-002  0.4566534E+03  0.7546771E-02  0.1025756E+00
         21   -1    0    0  502  501  0.00000000000E+00  0.00000000000E+00  0.25823480243E+03  0.25823480243E+03  0.00000000000E+00 0. -1.
         21   -1    0    0  501  502 -0.00000000000E+00 -0.00000000000E+00 -0.20188251812E+03  0.20188251812E+03  0.00000000000E+00 0. -1.
      99926    2    1    2    0    0  0.14210854715E-13  0.00000000000E+00  0.56352284314E+02  0.46011732055E+03  0.45665344488E+03 0.  0.
      99925    2    3    3    0    0 -0.86235464198E+02  0.52091868650E+02 -0.19765649375E+02  0.28237715628E+03  0.26305143875E+03 0.  0.
         25    1    4    4    0    0 -0.16162916126E+02  0.73033169833E+01 -0.35790197369E+02  0.13131269788E+03  0.12509000000E+03 0.  0.
         25    1    3    3    0    0  0.86235464198E+02 -0.52091868650E+02  0.76117933689E+02  0.17774016427E+03  0.12509000000E+03 0.  0.
         25    1    4    4    0    0 -0.70072548072E+02  0.44788551667E+02  0.16024547994E+02  0.15106445840E+03  0.12509000000E+03 0.  0.
<mgrwt>
<rscale>  2 0.45665344E+03</rscale>
<asrwt>0</asrwt>
<pdfrwt beam="1">  1       21 0.37975706E-01 0.45665344E+03</pdfrwt>
<pdfrwt beam="2">  1       21 0.29688605E-01 0.45665344E+03</pdfrwt>
<totfact> 0.67280429E+04</totfact>
</mgrwt>
</event>
<event>
 7    0  0.4766352E-002  0.4639370E+03  0.7546771E-02  0.1023646E+00
         21   -1    0    0  502  501  0.00000000000E+00  0.00000000000E+00  0.11354309046E+04  0.11354309046E+04  0.00000000000E+00 0.  1.
         21   -1    0    0  501  502 -0.00000000000E+00 -0.00000000000E+00 -0.47391166343E+02  0.47391166343E+02  0.00000000000E+00 0.  1.
      99926    2    1    2    0    0  0.00000000000E+00  0.00000000000E+00  0.10880397383E+04  0.11828220710E+04  0.46393704259E+03 0.  0.
      99925    2    3    3    0    0  0.97825894547E+02  0.60946428811E+02  0.77775444014E+03  0.82897344913E+03  0.26269875787E+03 0.  0.
         25    1    4    4    0    0  0.75909774904E+02  0.23484540380E+02  0.32374351249E+03  0.35604941728E+03  0.12509000000E+03 0.  0.
         25    1    3    3    0    0 -0.97825894547E+02 -0.60946428811E+02  0.31028529813E+03  0.35384862182E+03  0.12509000000E+03 0.  0.
         25    1    4    4    0    0  0.21916119642E+02  0.37461888431E+02  0.45401092764E+03  0.47292403185E+03  0.12509000000E+03 0.  0.
<mgrwt>
<rscale>  2 0.46393704E+03</rscale>
<asrwt>0</asrwt>
<pdfrwt beam="1">  1       21 0.16697512E+00 0.46393704E+03</pdfrwt>
<pdfrwt beam="2">  1       21 0.69692899E-02 0.46393704E+03</pdfrwt>
<totfact> 0.30523763E+04</totfact>
</mgrwt>
</event>
<event>
 7    0  0.4766352E-002  0.4759037E+03  0.7546771E-02  0.1020267E+00
         21   -1    0    0  502  501  0.00000000000E+00  0.00000000000E+00  0.27565654127E+02  0.27565654127E+02  0.00000000000E+00 0. -1.
         21   -1    0    0  501  502 -0.00000000000E+00 -0.00000000000E+00 -0.20540445696E+04  0.20540445696E+04  0.00000000000E+00 0. -1.
      99926    2    1    2    0    0  0.35527136788E-14 -0.35527136788E-14 -0.20264789155E+04  0.20816102238E+04  0.47590369685E+03 0.  0.
      99925    2    3    3    0    0  0.26447219730E+02 -0.23466856164E+02 -0.69579349466E+03  0.74459064794E+03  0.26274797244E+03 0.  0.
         25    1    4    4    0    0  0.30347987171E+02  0.89469172517E+01 -0.26375557461E+03  0.29362486082E+03  0.12509000000E+03 0.  0.
         25    1    4    4    0    0 -0.39007674405E+01 -0.32413773416E+02 -0.43203792004E+03  0.45096578712E+03  0.12509000000E+03 0.  0.
         25    1    3    3    0    0 -0.26447219730E+02  0.23466856164E+02 -0.13306854208E+04  0.13370195758E+04  0.12509000000E+03 0.  0.
<mgrwt>
<rscale>  2 0.47590370E+03</rscale>
<asrwt>0</asrwt>
<pdfrwt beam="1">  1       21 0.40537732E-02 0.47590370E+03</pdfrwt>
<pdfrwt beam="2">  1       21 0.30206534E+00 0.47590370E+03</pdfrwt>
<totfact> 0.10596224E+04</totfact>
</mgrwt>
</event>
<event>
 7    0  0.4766352E-002  0.4512731E+03  0.7546771E-02  0.1027343E+00
         21   -1    0    0  502  501  0.00000000000E+00  0.00000000000E+00  0.17699973615E+03  0.17699973615E+03  0.00000000000E+00 0.  1.
         21   -1    0    0  501  502 -0.00000000000E+00 -0.00000000000E+00 -0.28763797436E+03  0.28763797436E+03  0.00000000000E+00 0.  1.
      99926    2    1    2    0    0  0.00000000000E+00  0.00000000000E+00 -0.11063823822E+03  0.46463771051E+03  0.45127306841E+03 0.  0.
      99925    2    3    3    0    0  0.94874868698E+02 -0.39180403989E+02 -0.10954654079E+03  0.30281977371E+03  0.26298864231E+03 0.  0.
         25    1    4    4    0    0  0.44522080061E+01 -0.16943490896E+02 -0.46002051191E+02  0.13442693500E+03  0.12509000000E+03 0.  0.
         25    1    4    4    0    0  0.90422660692E+02 -0.22236913093E+02 -0.63544489600E+02  0.16839283871E+03  0.12509000000E+03 0.  0.
         25    1    3    3    0    0 -0.94874868698E+02  0.39180403989E+02 -0.10916974265E+01  0.16181793680E+03  0.12509000000E+03 0.  0.
<mgrwt>
<rscale>  2 0.45127307E+03</rscale>
<asrwt>0</asrwt>
<pdfrwt beam="1">  1       21 0.26029374E-01 0.45127307E+03</pdfrwt>
<pdfrwt beam="2">  1       21 0.42299701E-01 0.45127307E+03</pdfrwt>
<totfact> 0.69879888E+04</totfact>
</mgrwt>
</event>
<event>
 7    0  0.4766352E-002  0.4562903E+03  0.7546771E-02  0.1025863E+00
         21   -1    0    0  502  501  0.00000000000E+00  0.00000000000E+00  0.50756948032E+02  0.50756948032E+02  0.00000000000E+00 0.  1.
         21   -1    0    0  501  502 -0.00000000000E+00 -0.00000000000E+00 -0.10254794865E+04  0.10254794865E+04  0.00000000000E+00 0.  1.
      99926    2    1    2    0    0  0.14210854715E-13  0.71054273576E-14 -0.97472253849E+03  0.10762364346E+04  0.45629029797E+03 0.  0.
      99925    2    3    3    0    0 -0.70625323923E+02 -0.38302702333E+02 -0.42063166655E+03  0.50254728889E+03  0.26299761459E+03 0.  0.
         25    1    4    4    0    0 -0.58482509103E+02 -0.53415906113E+02 -0.23944608735E+03  0.28152335560E+03  0.12509000000E+03 0.  0.
         25    1    3    3    0    0  0.70625323923E+02  0.38302702333E+02 -0.55409087195E+03  0.57368914567E+03  0.12509000000E+03 0.  0.
         25    1    4    4    0    0 -0.12142814820E+02  0.15113203780E+02 -0.18118557919E+03  0.22102393329E+03  0.12509000000E+03 0.  0.
<mgrwt>
<rscale>  2 0.45629030E+03</rscale>
<asrwt>0</asrwt>
<pdfrwt beam="1">  1       21 0.74642573E-02 0.45629030E+03</pdfrwt>
<pdfrwt beam="2">  1       21 0.15080580E+00 0.45629030E+03</pdfrwt>
<totfact> 0.35965702E+04</totfact>
</mgrwt>
</event>
<event>
 7    0  0.4766352E-002  0.4568604E+03  0.7546771E-02  0.1025696E+00
         21   -1    0    0  502  501  0.00000000000E+00  0.00000000000E+00  0.14379919962E+03  0.14379919962E+03  0.00000000000E+00 0.  1.
         21   -1    0    0  501  502 -0.00000000000E+00 -0.00000000000E+00 -0.36286959561E+03  0.36286959561E+03  0.00000000000E+00 0.  1.
      99926    2    1    2    0    0  0.00000000000E+00 -0.42188474936E-14 -0.21907039599E+03  0.50666879522E+03  0.45686040500E+03 0.  0.
      99925    2    3    3    0    0  0.76833868038E+02 -0.12090694141E+01 -0.23225845020E+03  0.35927022671E+03  0.26310872844E+03 0.  0.
         25    1    4    4    0    0  0.31918767165E+02  0.31472610016E+02 -0.82581936800E+02  0.15645004718E+03  0.12509000000E+03 0.  0.
         25    1    3    3    0    0 -0.76833868038E+02  0.12090694141E+01  0.13188054214E+02  0.14739856852E+03  0.12509000000E+03 0.  0.
         25    1    4    4    0    0  0.44915100872E+02 -0.32681679430E+02 -0.14967651340E+03  0.20282017952E+03  0.12509000000E+03 0.  0.
<mgrwt>
<rscale>  2 0.45686040E+03</rscale>
<asrwt>0</asrwt>
<pdfrwt beam="1">  1       21 0.21146941E-01 0.45686040E+03</pdfrwt>
<pdfrwt beam="2">  1       21 0.53363175E-01 0.45686040E+03</pdfrwt>
<totfact> 0.63856502E+04</totfact>
</mgrwt>
</event>
<event>
 7    0  0.4766352E-002  0.4603603E+03  0.7546771E-02  0.1024677E+00
         21   -1    0    0  502  501  0.00000000000E+00  0.00000000000E+00  0.29424837511E+03  0.29424837511E+03  0.00000000000E+00 0.  1.
         21   -1    0    0  501  502 -0.00000000000E+00 -0.00000000000E+00 -0.18006186311E+03  0.18006186311E+03  0.00000000000E+00 0.  1.
      99926    2    1    2    0    0 -0.14210854715E-13  0.14210854715E-13  0.11418651200E+03  0.47431023822E+03  0.46036033991E+03 0.  0.
      99925    2    3    3    0    0 -0.85135860040E+02  0.75643148759E+02  0.40462985033E+02  0.28977659049E+03  0.26336897809E+03 0.  0.
         25    1    4    4    0    0 -0.84394784955E+02  0.44198869439E+02  0.12033727376E+02  0.15769698311E+03  0.12509000000E+03 0.  0.
         25    1    4    4    0    0 -0.74107508478E+00  0.31444279319E+02  0.28429257657E+02  0.13207960738E+03  0.12509000000E+03 0.  0.
         25    1    3    3    0    0  0.85135860040E+02 -0.75643148759E+02  0.73723526964E+02  0.18453364774E+03  0.12509000000E+03 0.  0.
<mgrwt>
<rscale>  2 0.46036034E+03</rscale>
<asrwt>0</asrwt>
<pdfrwt beam="1">  1       21 0.43271820E-01 0.46036034E+03</pdfrwt>
<pdfrwt beam="2">  1       21 0.26479686E-01 0.46036034E+03</pdfrwt>
<totfact> 0.64336774E+04</totfact>
</mgrwt>
</event>
<event>
 7    0  0.4766352E-002  0.4477991E+03  0.7546771E-02  0.1028380E+00
         21   -1    0    0  502  501  0.00000000000E+00  0.00000000000E+00  0.53097370034E+03  0.53097370034E+03  0.00000000000E+00 0. -1.
         21   -1    0    0  501  502 -0.00000000000E+00 -0.00000000000E+00 -0.94413369868E+02  0.94413369868E+02  0.00000000000E+00 0. -1.
      99926    2    1    2    0    0  0.00000000000E+00  0.00000000000E+00  0.43656033047E+03  0.62538707021E+03  0.44779913515E+03 0.  0.
      99925    2    3    3    0    0  0.35205983463E+02 -0.35808692162E+02  0.40740970811E+03  0.48747771378E+03  0.26292608745E+03 0.  0.
         25    1    4    4    0    0 -0.30037573061E+01  0.15465695576E+02  0.17060818729E+03  0.21213880354E+03  0.12509000000E+03 0.  0.
         25    1    3    3    0    0 -0.35205983463E+02  0.35808692162E+02  0.29150622356E+02  0.13790935643E+03  0.12509000000E+03 0.  0.
         25    1    4    4    0    0  0.38209740769E+02 -0.51274387739E+02  0.23680152082E+03  0.27533891024E+03  0.12509000000E+03 0.  0.
<mgrwt>
<rscale>  2 0.44779914E+03</rscale>
<asrwt>0</asrwt>
<pdfrwt beam="1">  1       21 0.78084366E-01 0.44779914E+03</pdfrwt>
<pdfrwt beam="2">  1       21 0.13884319E-01 0.44779914E+03</pdfrwt>
<totfact> 0.60509477E+04</totfact>
</mgrwt>
</event>
<event>
 7    0  0.4766352E-002  0.4565942E+03  0.7546771E-02  0.1025774E+00
         21   -1    0    0  502  501  0.00000000000E+00  0.00000000000E+00  0.11985336058E+03  0.11985336058E+03  0.00000000000E+00 0. -1.
         21   -1    0    0  501  502 -0.00000000000E+00 -0.00000000000E+00 -0.43486110758E+03  0.43486110758E+03  0.00000000000E+00 0. -1.
      99926    2    1    2    0    0 -0.35527136788E-14 -0.14210854715E-13 -0.31500774700E+03  0.55471446816E+03  0.45659419677E+03 0.  0.
      99925    2    3    3    0    0  0.18140748120E+02 -0.11184116446E+03 -0.17689965692E+03  0.33663447033E+03  0.26304323824E+03 0.  0.
         25    1    3    3    0    0 -0.18140748120E+02  0.11184116446E+03 -0.13810809008E+03  0.21807999783E+03  0.12509000000E+03 0.  0.
         25    1    4    4    0    0  0.21068306122E+02 -0.65108786231E+02 -0.13575226531E+03  0.19687359702E+03  0.12509000000E+03 0.  0.
         25    1    4    4    0    0 -0.29275580018E+01 -0.46732378232E+02 -0.41147391612E+02  0.13976087331E+03  0.12509000000E+03 0.  0.
<mgrwt>
<rscale>  2 0.45659420E+03</rscale>
<asrwt>0</asrwt>
<pdfrwt beam="1">  1       21 0.17625494E-01 0.45659420E+03</pdfrwt>
<pdfrwt beam="2">  1       21 0.63950164E-01 0.45659420E+03</pdfrwt>
<totfact> 0.60785802E+04</totfact>
</mgrwt>
</event>
<event>
 7    0  0.4766352E-002  0.4545257E+03  0.7546771E-02  0.1026381E+00
         21   -1    0    0  502  501  0.00000000000E+00  0.00000000000E+00  0.11173078907E+04  0.11173078907E+04  0.00000000000E+00 0.  1.
         21   -1    0    0  501  502 -0.00000000000E+00 -0.00000000000E+00 -0.46225764115E+02  0.46225764115E+02  0.00000000000E+00 0.  1.
      99926    2    1    2    0    0  0.00000000000E+00  0.00000000000E+00  0.10710821266E+04  0.11635336548E+04  0.45452573525E+03 0.  0.
      99925    2    3    3    0    0  0.22584068799E+02 -0.59278341199E+02  0.43597372067E+03  0.51312289440E+03  0.26305523706E+03 0.  0.
         25    1    4    4    0    0  0.73030712166E+01 -0.20465898534E+02  0.13937767837E+03  0.18853602621E+03  0.12509000000E+03 0.  0.
         25    1    4    4    0    0  0.15280997582E+02 -0.38812442665E+02  0.29659604230E+03  0.32458686819E+03  0.12509000000E+03 0.  0.
         25    1    3    3    0    0 -0.22584068799E+02  0.59278341199E+02  0.63510840594E+03  0.65041076044E+03  0.12509000000E+03 0.  0.
<mgrwt>
<rscale>  2 0.45452574E+03</rscale>
<asrwt>0</asrwt>
<pdfrwt beam="1">  1       21 0.16430997E+00 0.45452574E+03</pdfrwt>
<pdfrwt beam="2">  1       21 0.67979072E-02 0.45452574E+03</pdfrwt>
<totfact> 0.33457189E+04</totfact>
</mgrwt>
</event>
<event>
 7    0  0.4766352E-002  0.4522663E+03  0.7546771E-02  0.1027048E+00
         21   -1    0    0  502  501  0.00000000000E+00  0.00000000000E+00  0.67559024325E+03  0.67559024325E+03  0.00000000000E+00 0. -1.
         21   -1    0    0  501  502 -0.00000000000E+00 -0.00000000000E+00 -0.75691134056E+02  0.75691134056E+02  0.00000000000E+00 0. -1.
      99926    2    1    2    0    0  0.00000000000E+00  0.00000000000E+00  0.59989910919E+03  0.75128137730E+03  0.45226625640E+03 0.  0.
      99925    2    3    3    0    0  0.80017458240E+01  0.97319543287E+02  0.46448722344E+03  0.54266927711E+03  0.26307117316E+03 0.  0.
         25    1    4    4    0    0  0.40823693111E+01  0.53680973192E+02  0.31325378070E+03  0.34157539701E+03  0.12509000000E+03 0.  0.
         25    1    3    3    0    0 -0.80017458240E+01 -0.97319543287E+02  0.13541188575E+03  0.20861210019E+03  0.12509000000E+03 0.  0.
         25    1    4    4    0    0  0.39193765128E+01  0.43638570095E+02  0.15123344274E+03  0.20109388010E+03  0.12509000000E+03 0.  0.
<mgrwt>
<rscale>  2 0.45226626E+03</rscale>
<asrwt>0</asrwt>
<pdfrwt beam="1">  1       21 0.99351503E-01 0.45226626E+03</pdfrwt>
<pdfrwt beam="2">  1       21 0.11131049E-01 0.45226626E+03</pdfrwt>
<totfact> 0.51298883E+04</totfact>
</mgrwt>
</event>
<event>
 7    0  0.4766352E-002  0.4547276E+03  0.7546771E-02  0.1026322E+00
         21   -1    0    0  502  501  0.00000000000E+00  0.00000000000E+00  0.70700012221E+02  0.70700012221E+02  0.00000000000E+00 0. -1.
         21   -1    0    0  501  502 -0.00000000000E+00 -0.00000000000E+00 -0.73117804751E+03  0.73117804751E+03  0.00000000000E+00 0. -1.
      99926    2    1    2    0    0  0.00000000000E+00  0.00000000000E+00 -0.66047803529E+03  0.80187805973E+03  0.45472759712E+03 0.  0.
      99925    2    3    3    0    0 -0.59568385788E+02  0.67792047292E+02 -0.53548738976E+03  0.60334764939E+03  0.26294008285E+03 0.  0.
         25    1    4    4    0    0 -0.30068059094E+02 -0.78040741232E+01 -0.24774194880E+03  0.27926434260E+03  0.12509000000E+03 0.  0.
         25    1    4    4    0    0 -0.29500326695E+02  0.75596121415E+02 -0.28774544096E+03  0.32408330679E+03  0.12509000000E+03 0.  0.
         25    1    3    3    0    0  0.59568385788E+02 -0.67792047292E+02 -0.12499064553E+03  0.19853041035E+03  0.12509000000E+03 0.  0.
<mgrwt>
<rscale>  2 0.45472760E+03</rscale>
<asrwt>0</asrwt>
<pdfrwt beam="1">  1       21 0.10397060E-01 0.45472760E+03</pdfrwt>
<pdfrwt beam="2">  1       21 0.10752619E+00 0.45472760E+03</pdfrwt>
<totfact> 0.47776151E+04</totfact>
</mgrwt>
</event>
<event>
 7    0  0.4766352E-002  0.4518939E+03  0.7546771E-02  0.1027159E+00
         21   -1    0    0  502  501  0.00000000000E+00  0.00000000000E+00  0.30388719446E+02  0.30388719446E+02  0.00000000000E+00 0. -1.
         21   -1    0    0  501  502 -0.00000000000E+00 -0.00000000000E+00 -0.16799663066E+04  0.16799663066E+04  0.00000000000E+00 0. -1.
      99926    2    1    2    0    0  0.00000000000E+00  0.00000000000E+00 -0.16495775872E+04  0.17103550261E+04  0.45189390246E+03 0.  0.
      99925    2    3    3    0    0 -0.67305581274E+02 -0.84875153248E+02 -0.96402622307E+03  0.10051160497E+04  0.26301688466E+03 0.  0.
         25    1    4    4    0    0 -0.58812004002E+02 -0.12056254729E+02 -0.43601773177E+03  0.45756220956E+03  0.12509000000E+03 0.  0.
         25    1    3    3    0    0  0.67305581274E+02  0.84875153248E+02 -0.68555136409E+03  0.70523897639E+03  0.12509000000E+03 0.  0.
         25    1    4    4    0    0 -0.84935772714E+01 -0.72818898518E+02 -0.52800849130E+03  0.54755384011E+03  0.12509000000E+03 0.  0.
<mgrwt>
<rscale>  2 0.45189390E+03</rscale>
<asrwt>0</asrwt>
<pdfrwt beam="1">  1       21 0.44689281E-02 0.45189390E+03</pdfrwt>
<pdfrwt beam="2">  1       21 0.24705393E+00 0.45189390E+03</pdfrwt>
<totfact> 0.19513542E+04</totfact>
</mgrwt>
</event>
<event>
 7    0  0.4766352E-002  0.4879592E+03  0.7546771E-02  0.1016970E+00
         21   -1    0    0  502  501  0.00000000000E+00  0.00000000000E+00  0.20448213468E+02  0.20448213468E+02  0.00000000000E+00 0.  1.
         21   -1    0    0  501  502 -0.00000000000E+00 -0.00000000000E+00 -0.29110628236E+04  0.29110628236E+04  0.00000000000E+00 0.  1.
      99926    2    1    2    0    0  0.00000000000E+00  0.00000000000E+00 -0.28906146101E+04  0.29315110371E+04  0.48795915417E+03 0.  0.
      99925    2    3    3    0    0 -0.94182319396E+02 -0.90155998956E+02 -0.20975837275E+04  0.21181575454E+04  0.26407476214E+03 0.  0.
         25    1    3    3    0    0  0.94182319396E+02  0.90155998956E+02 -0.79303088261E+03  0.81335349160E+03  0.12509000000E+03 0.  0.
         25    1    4    4    0    0 -0.31890951389E+02 -0.58433344645E+02 -0.77634723157E+03  0.78917299790E+03  0.12509000000E+03 0.  0.
         25    1    4    4    0    0 -0.62291368008E+02 -0.31722654312E+02 -0.13212364959E+04  0.13289845476E+04  0.12509000000E+03 0.  0.
<mgrwt>
<rscale>  2 0.48795915E+03</rscale>
<asrwt>0</asrwt>
<pdfrwt beam="1">  1       21 0.30070916E-02 0.48795915E+03</pdfrwt>
<pdfrwt beam="2">  1       21 0.42809728E+00 0.48795915E+03</pdfrwt>
<totfact> 0.28448724E+03</totfact>
</mgrwt>
</event>
<event>
 7    0  0.4766352E-002  0.4514398E+03  0.7546771E-02  0.1027294E+00
         21   -1    0    0  502  501  0.00000000000E+00  0.00000000000E+00  0.44724977812E+03  0.44724977812E+03  0.00000000000E+00 0.  1.
         21   -1    0    0  501  502 -0.00000000000E+00 -0.00000000000E+00 -0.11391726717E+03  0.11391726717E+03  0.00000000000E+00 0.  1.
      99926    2    1    2    0    0  0.00000000000E+00  0.00000000000E+00  0.33333251095E+03  0.56116704529E+03  0.45143979650E+03 0.  0.
      99925    2    3    3    0    0  0.52935117565E+02  0.76037228209E+02  0.28362250345E+03  0.39775841733E+03  0.26303278760E+03 0.  0.
         25    1    4    4    0    0  0.60493333813E+02  0.21855489372E+02  0.16572845988E+03  0.21737188495E+03  0.12509000000E+03 0.  0.
         25    1    4    4    0    0 -0.75582162483E+01  0.54181738837E+02  0.11789404356E+03  0.18038653238E+03  0.12509000000E+03 0.  0.
         25    1    3    3    0    0 -0.52935117565E+02 -0.76037228209E+02  0.49710007500E+02  0.16340862796E+03  0.12509000000E+03 0.  0.
<mgrwt>
<rscale>  2 0.45143980E+03</rscale>
<asrwt>0</asrwt>
<pdfrwt beam="1">  1       21 0.65772026E-01 0.45143980E+03</pdfrwt>
<pdfrwt beam="2">  1       21 0.16752539E-01 0.45143980E+03</pdfrwt>
<totfact> 0.62886816E+04</totfact>
</mgrwt>
</event>
<event>
 7    0  0.4766352E-002  0.4571889E+03  0.7546771E-02  0.1025600E+00
         21   -1    0    0  502  501  0.00000000000E+00  0.00000000000E+00  0.67957202025E+02  0.67957202025E+02  0.00000000000E+00 0.  1.
         21   -1    0    0  501  502 -0.00000000000E+00 -0.00000000000E+00 -0.76894600029E+03  0.76894600029E+03  0.00000000000E+00 0.  1.
      99926    2    1    2    0    0  0.00000000000E+00  0.14210854715E-13 -0.70098879827E+03  0.83690320232E+03  0.45718888301E+03 0.  0.
      99925    2    3    3    0    0  0.49202398270E+02  0.99207002796E+02 -0.38246329511E+03  0.47722430433E+03  0.26306265249E+03 0.  0.
         25    1    4    4    0    0 -0.10269312973E+02  0.28997731604E+02 -0.19638053730E+03  0.23485985344E+03  0.12509000000E+03 0.  0.
         25    1    3    3    0    0 -0.49202398270E+02 -0.99207002796E+02 -0.31852550315E+03  0.35967889799E+03  0.12509000000E+03 0.  0.
         25    1    4    4    0    0  0.59471711243E+02  0.70209271192E+02 -0.18608275782E+03  0.24236445089E+03  0.12509000000E+03 0.  0.
<mgrwt>
<rscale>  2 0.45718888E+03</rscale>
<asrwt>0</asrwt>
<pdfrwt beam="1">  1       21 0.99937069E-02 0.45718888E+03</pdfrwt>
<pdfrwt beam="2">  1       21 0.11308029E+00 0.45718888E+03</pdfrwt>
<totfact> 0.45248962E+04</totfact>
</mgrwt>
</event>
<event>
 7    0  0.4766352E-002  0.4231855E+03  0.7546771E-02  0.1036034E+00
         21   -1    0    0  502  501  0.00000000000E+00  0.00000000000E+00  0.11390128914E+03  0.11390128914E+03  0.00000000000E+00 0. -1.
         21   -1    0    0  501  502 -0.00000000000E+00 -0.00000000000E+00 -0.39307282849E+03  0.39307282849E+03  0.00000000000E+00 0. -1.
      99926    2    1    2    0    0  0.00000000000E+00  0.00000000000E+00 -0.27917153935E+03  0.50697411763E+03  0.42318554745E+03 0.  0.
      99925    2    3    3    0    0 -0.47296413852E+02  0.47633824445E+02 -0.23335681519E+03  0.35780163678E+03  0.26279398032E+03 0.  0.
         25    1    4    4    0    0 -0.44391493545E+02  0.53223589346E+02 -0.15060860158E+03  0.20768681743E+03  0.12509000000E+03 0.  0.
         25    1    4    4    0    0 -0.29049203068E+01 -0.55897649017E+01 -0.82748213607E+02  0.15011481935E+03  0.12509000000E+03 0.  0.
         25    1    3    3    0    0  0.47296413852E+02 -0.47633824445E+02 -0.45814724155E+02  0.14917248085E+03  0.12509000000E+03 0.  0.
<mgrwt>
<rscale>  2 0.42318555E+03</rscale>
<asrwt>0</asrwt>
<pdfrwt beam="1">  1       21 0.16750190E-01 0.42318555E+03</pdfrwt>
<pdfrwt beam="2">  1       21 0.57804828E-01 0.42318555E+03</pdfrwt>
<totfact> 0.84066848E+04</totfact>
</mgrwt>
</event>
<event>
 7    0  0.4766352E-002  0.4566889E+03  0.7546771E-02  0.1025746E+00
         21   -1    0    0  502  501  0.00000000000E+00  0.00000000000E+00  0.78455894189E+03  0.78455894189E+03  0.00000000000E+00 0.  1.
         21   -1    0    0  501  502 -0.00000000000E+00 -0.00000000000E+00 -0.66459233899E+02  0.66459233899E+02  0.00000000000E+00 0.  1.
      99926    2    1    2    0    0  0.00000000000E+00 -0.71054273576E-14  0.71809970799E+03  0.85101817579E+03  0.45668889291E+03 0.  0.
      99925    2    3    3    0    0 -0.86032061241E+02  0.51270879069E+02  0.55581709783E+03  0.62295377203E+03  0.26288502666E+03 0.  0.
         25    1    4    4    0    0 -0.41004484950E+02  0.66525741592E+02  0.29018270842E+03  0.32551582826E+03  0.12509000000E+03 0.  0.
         25    1    4    4    0    0 -0.45027576292E+02 -0.15254862523E+02  0.26563438941E+03  0.29743794377E+03  0.12509000000E+03 0.  0.
         25    1    3    3    0    0  0.86032061241E+02 -0.51270879069E+02  0.16228261016E+03  0.22806440376E+03  0.12509000000E+03 0.  0.
<mgrwt>
<rscale>  2 0.45668889E+03</rscale>
<asrwt>0</asrwt>
<pdfrwt beam="1">  1       21 0.11537631E+00 0.45668889E+03</pdfrwt>
<pdfrwt beam="2">  1       21 0.97734172E-02 0.45668889E+03</pdfrwt>
<totfact> 0.44797411E+04</totfact>
</mgrwt>
</event>
<event>
 7    0  0.4766352E-002  0.4542632E+03  0.7546771E-02  0.1026458E+00
         21   -1    0    0  502  501  0.00000000000E+00  0.00000000000E+00  0.83646774385E+03  0.83646774385E+03  0.00000000000E+00 0. -1.
         21   -1    0    0  501  502 -0.00000000000E+00 -0.00000000000E+00 -0.61674535867E+02  0.61674535867E+02  0.00000000000E+00 0. -1.
      99926    2    1    2    0    0  0.00000000000E+00  0.00000000000E+00  0.77479320798E+03  0.89814227971E+03  0.45426318305E+03 0.  0.
      99925    2    3    3    0    0  0.23772337895E+02 -0.85377963747E+02  0.35087773895E+03  0.44735812546E+03  0.26298209822E+03 0.  0.
         25    1    4    4    0    0 -0.27456967075E+02 -0.40967506117E+02  0.15385268354E+03  0.20432909223E+03  0.12509000000E+03 0.  0.
         25    1    4    4    0    0  0.51229304970E+02 -0.44410457631E+02  0.19702505541E+03  0.24302903323E+03  0.12509000000E+03 0.  0.
         25    1    3    3    0    0 -0.23772337895E+02  0.85377963747E+02  0.42391546903E+03  0.45078415425E+03  0.12509000000E+03 0.  0.
<mgrwt>
<rscale>  2 0.45426318E+03</rscale>
<asrwt>0</asrwt>
<pdfrwt beam="1">  1       21 0.12300996E+00 0.45426318E+03</pdfrwt>
<pdfrwt beam="2">  1       21 0.90697852E-02 0.45426318E+03</pdfrwt>
<totfact> 0.43564889E+04</totfact>
</mgrwt>
</event>
<event>
 7    0  0.4766352E-002  0.4574270E+03  0.7546771E-02  0.1025530E+00
         21   -1    0    0  502  501  0.00000000000E+00  0.00000000000E+00  0.17688307382E+03  0.17688307382E+03  0.00000000000E+00 0.  1.
         21   -1    0    0  501  502 -0.00000000000E+00 -0.00000000000E+00 -0.29573133813E+03  0.29573133813E+03  0.00000000000E+00 0.  1.
      99926    2    1    2    0    0  0.00000000000E+00  0.00000000000E+00 -0.11884826431E+03  0.47261441195E+03  0.45742701325E+03 0.  0.
      99925    2    3    3    0    0  0.81626271563E+02 -0.16854234535E+02  0.77024287982E+01  0.27612141091E+03  0.26312885194E+03 0.  0.
         25    1    4    4    0    0  0.25044147130E+02 -0.35580976388E+01 -0.33904123956E+02  0.13204872997E+03  0.12509000000E+03 0.  0.
         25    1    3    3    0    0 -0.81626271563E+02  0.16854234535E+02 -0.12655069311E+03  0.19649300104E+03  0.12509000000E+03 0.  0.
         25    1    4    4    0    0  0.56582124432E+02 -0.13296136896E+02  0.41606552754E+02  0.14407268094E+03  0.12509000000E+03 0.  0.
<mgrwt>
<rscale>  2 0.45742701E+03</rscale>
<asrwt>0</asrwt>
<pdfrwt beam="1">  1       21 0.26012217E-01 0.45742701E+03</pdfrwt>
<pdfrwt beam="2">  1       21 0.43489902E-01 0.45742701E+03</pdfrwt>
<totfact> 0.65962527E+04</totfact>
</mgrwt>
</event>
<event>
 7    0  0.4766352E-002  0.4651914E+03  0.7546771E-02  0.1023286E+00
         21   -1    0    0  502  501  0.00000000000E+00  0.00000000000E+00  0.12779860672E+03  0.12779860672E+03  0.00000000000E+00 0.  1.
         21   -1    0    0  501  502 -0.00000000000E+00 -0.00000000000E+00 -0.42332818422E+03  0.42332818422E+03  0.00000000000E+00 0.  1.
      99926    2    1    2    0    0  0.00000000000E+00 -0.71054273576E-14 -0.29552957750E+03  0.55112679094E+03  0.46519136762E+03 0.  0.
      99925    2    3    3    0    0 -0.10614966822E+03 -0.46011140788E+02 -0.13663006637E+03  0.31814322955E+03  0.26298776080E+03 0.  0.
         25    1    3    3    0    0  0.10614966822E+03  0.46011140788E+02 -0.15889951113E+03  0.23298356139E+03  0.12509000000E+03 0.  0.
         25    1    4    4    0    0 -0.63281708108E+02 -0.44678611192E+02 -0.34673321881E+02  0.15116381918E+03  0.12509000000E+03 0.  0.
         25    1    4    4    0    0 -0.42867960117E+02 -0.13325295965E+01 -0.10195674449E+03  0.16697941037E+03  0.12509000000E+03 0.  0.
<mgrwt>
<rscale>  2 0.46519137E+03</rscale>
<asrwt>0</asrwt>
<pdfrwt beam="1">  1       21 0.18793913E-01 0.46519137E+03</pdfrwt>
<pdfrwt beam="2">  1       21 0.62254143E-01 0.46519137E+03</pdfrwt>
<totfact> 0.57050603E+04</totfact>
</mgrwt>
</event>
<event>
 7    0  0.4766352E-002  0.4428558E+03  0.7546771E-02  0.1029874E+00
         21   -1    0    0  502  501  0.00000000000E+00  0.00000000000E+00  0.68710889092E+02  0.68710889092E+02  0.00000000000E+00 0.  1.
         21   -1    0    0  501  502 -0.00000000000E+00 -0.00000000000E+00 -0.71357426309E+03  0.71357426309E+03  0.00000000000E+00 0.  1.
      99926    2    1    2    0    0  0.00000000000E+00  0.00000000000E+00 -0.64486337400E+03  0.78228515219E+03  0.44285583230E+03 0.  0.
      99925    2    3    3    0    0 -0.96868350759E+02 -0.36640302363E+01 -0.35859485445E+03  0.45518566291E+03  0.26307188293E+03 0.  0.
         25    1    3    3    0    0  0.96868350759E+02  0.36640302363E+01 -0.28626851955E+03  0.32709948927E+03  0.12509000000E+03 0.  0.
         25    1    4    4    0    0 -0.75282919752E+02  0.18294564528E+01 -0.24257333422E+03  0.28312575915E+03  0.12509000000E+03 0.  0.
         25    1    4    4    0    0 -0.21585431008E+02 -0.54934866891E+01 -0.11602152023E+03  0.17205990377E+03  0.12509000000E+03 0.  0.
<mgrwt>
<rscale>  2 0.44285583E+03</rscale>
<asrwt>0</asrwt>
<pdfrwt beam="1">  1       21 0.10104543E-01 0.44285583E+03</pdfrwt>
<pdfrwt beam="2">  1       21 0.10493739E+00 0.44285583E+03</pdfrwt>
<totfact> 0.53559412E+04</totfact>
</mgrwt>
</event>
<event>
 7    0  0.4766352E-002  0.4505453E+03  0.7546771E-02  0.1027560E+00
         21   -1    0    0  502  501  0.00000000000E+00  0.00000000000E+00  0.73162638174E+02  0.73162638174E+02  0.00000000000E+00 0.  1.
         21   -1    0    0  501  502 -0.00000000000E+00 -0.00000000000E+00 -0.69362955178E+03  0.69362955178E+03  0.00000000000E+00 0.  1.
      99926    2    1    2    0    0  0.00000000000E+00  0.00000000000E+00 -0.62046691360E+03  0.76679218995E+03  0.45054530482E+03 0.  0.
      99925    2    3    3    0    0 -0.68089297526E+02  0.84799430288E+02 -0.38215568407E+03  0.47650466690E+03  0.26303352429E+03 0.  0.
         25    1    3    3    0    0  0.68089297526E+02 -0.84799430288E+02 -0.23831122954E+03  0.29028752305E+03  0.12509000000E+03 0.  0.
         25    1    4    4    0    0 -0.32031913500E+02  0.74083801885E+02 -0.15813823020E+03  0.21718577563E+03  0.12509000000E+03 0.  0.
         25    1    4    4    0    0 -0.36057384026E+02  0.10715628403E+02 -0.22401745386E+03  0.25931889127E+03  0.12509000000E+03 0.  0.
<mgrwt>
<rscale>  2 0.45054530E+03</rscale>
<asrwt>0</asrwt>
<pdfrwt beam="1">  1       21 0.10759212E-01 0.45054530E+03</pdfrwt>
<pdfrwt beam="2">  1       21 0.10200434E+00 0.45054530E+03</pdfrwt>
<totfact> 0.51179335E+04</totfact>
</mgrwt>
</event>
<event>
 7    0  0.4766352E-002  0.4456459E+03  0.7546771E-02  0.1029028E+00
         21   -1    0    0  502  501  0.00000000000E+00  0.00000000000E+00  0.30996237204E+03  0.30996237204E+03  0.00000000000E+00 0. -1.
         21   -1    0    0  501  502 -0.00000000000E+00 -0.00000000000E+00 -0.16018092879E+03  0.16018092879E+03  0.00000000000E+00 0. -1.
      99926    2    1    2    0    0  0.00000000000E+00  0.14210854715E-13  0.14978144325E+03  0.47014330083E+03  0.44564587126E+03 0.  0.
      99925    2    3    3    0    0  0.22977454013E+02 -0.78969050347E+02  0.27500192571E+02  0.27684486143E+03  0.26291204309E+03 0.  0.
         25    1    4    4    0    0 -0.18159530800E+02 -0.35879892566E+02 -0.14185571606E+02  0.13215851766E+03  0.12509000000E+03 0.  0.
         25    1    4    4    0    0  0.41136984813E+02 -0.43089157781E+02  0.41685764177E+02  0.14468634377E+03  0.12509000000E+03 0.  0.
         25    1    3    3    0    0 -0.22977454013E+02  0.78969050347E+02  0.12228125068E+03  0.19329843940E+03  0.12509000000E+03 0.  0.
<mgrwt>
<rscale>  2 0.44564587E+03</rscale>
<asrwt>0</asrwt>
<pdfrwt beam="1">  1       21 0.45582702E-01 0.44564587E+03</pdfrwt>
<pdfrwt beam="2">  1       21 0.23556019E-01 0.44564587E+03</pdfrwt>
<totfact> 0.72671657E+04</totfact>
</mgrwt>
</event>
<event>
 7    0  0.4766352E-002  0.4119734E+03  0.7546771E-02  0.1039711E+00
         21   -1    0    0  502  501  0.00000000000E+00  0.00000000000E+00  0.54109880797E+03  0.54109880797E+03  0.00000000000E+00 0. -1.
         21   -1    0    0  501  502 -0.00000000000E+00 -0.00000000000E+00 -0.78415478055E+02  0.78415478055E+02  0.00000000000E+00 0. -1.
      99926    2    1    2    0    0  0.00000000000E+00  0.00000000000E+00  0.46268332992E+03  0.61951428603E+03  0.41197340546E+03 0.  0.
      99925    2    3    3    0    0 -0.56018204717E+02  0.32021393201E+02  0.29046414309E+03  0.39709494044E+03  0.26296685041E+03 0.  0.
         25    1    3    3    0    0  0.56018204717E+02 -0.32021393201E+02  0.17221918682E+03  0.22241934559E+03  0.12509000000E+03 0.  0.
         25    1    4    4    0    0  0.63093339058E+01 -0.25835652914E+01  0.15616994388E+03  0.20020749730E+03  0.12509000000E+03 0.  0.
         25    1    4    4    0    0 -0.62327538622E+02  0.34604958492E+02  0.13429419921E+03  0.19688744314E+03  0.12509000000E+03 0.  0.
<mgrwt>
<rscale>  2 0.41197341E+03</rscale>
<asrwt>0</asrwt>
<pdfrwt beam="1">  1       21 0.79573352E-01 0.41197341E+03</pdfrwt>
<pdfrwt beam="2">  1       21 0.11531688E-01 0.41197341E+03</pdfrwt>
<totfact> 0.81981812E+04</totfact>
</mgrwt>
</event>
<event>
 7    0  0.4766352E-002  0.4482437E+03  0.7546771E-02  0.1028247E+00
         21   -1    0    0  502  501  0.00000000000E+00  0.00000000000E+00  0.18139233316E+03  0.18139233316E+03  0.00000000000E+00 0.  1.
         21   -1    0    0  501  502 -0.00000000000E+00 -0.00000000000E+00 -0.27691692360E+03  0.27691692360E+03  0.00000000000E+00 0.  1.
      99926    2    1    2    0    0  0.00000000000E+00  0.71054273576E-14 -0.95524590445E+02  0.45830925676E+03  0.44824371434E+03 0.  0.
      99925    2    3    3    0    0 -0.86636918856E+02  0.47876059740E+02 -0.19601269999E+02  0.28164592866E+03  0.26294894284E+03 0.  0.
         25    1    4    4    0    0 -0.35066625063E+02 -0.13797232916E+02  0.59129387107E+01  0.13077653755E+03  0.12509000000E+03 0.  0.
         25    1    4    4    0    0 -0.51570293792E+02  0.61673292656E+02 -0.25514208709E+02  0.15086939111E+03  0.12509000000E+03 0.  0.
         25    1    3    3    0    0  0.86636918856E+02 -0.47876059740E+02 -0.75923320446E+02  0.17666332809E+03  0.12509000000E+03 0.  0.
<mgrwt>
<rscale>  2 0.44824371E+03</rscale>
<asrwt>0</asrwt>
<pdfrwt beam="1">  1       21 0.26675343E-01 0.44824371E+03</pdfrwt>
<pdfrwt beam="2">  1       21 0.40723077E-01 0.44824371E+03</pdfrwt>
<totfact> 0.72102968E+04</totfact>
</mgrwt>
</event>
<event>
 7    0  0.4766352E-002  0.4458327E+03  0.7546771E-02  0.1028972E+00
         21   -1    0    0  502  501  0.00000000000E+00  0.00000000000E+00  0.39367488952E+03  0.39367488952E+03  0.00000000000E+00 0. -1.
         21   -1    0    0  501  502 -0.00000000000E+00 -0.00000000000E+00 -0.12622521305E+03  0.12622521305E+03  0.00000000000E+00 0. -1.
      99926    2    1    2    0    0  0.00000000000E+00  0.00000000000E+00  0.26744967646E+03  0.51990010257E+03  0.44583268971E+03 0.  0.
      99925    2    3    3    0    0  0.75301835260E+02 -0.40987767685E+02  0.23941025272E+03  0.36567921917E+03  0.26278062853E+03 0.  0.
         25    1    4    4    0    0  0.37613745849E+02 -0.15501545573E+02  0.66277327994E+02  0.14729319094E+03  0.12509000000E+03 0.  0.
         25    1    3    3    0    0 -0.75301835260E+02  0.40987767685E+02  0.28039423747E+02  0.15422088340E+03  0.12509000000E+03 0.  0.
         25    1    4    4    0    0  0.37688089410E+02 -0.25486222112E+02  0.17313292472E+03  0.21838602823E+03  0.12509000000E+03 0.  0.
<mgrwt>
<rscale>  2 0.44583269E+03</rscale>
<asrwt>0</asrwt>
<pdfrwt beam="1">  1       21 0.57893366E-01 0.44583269E+03</pdfrwt>
<pdfrwt beam="2">  1       21 0.18562531E-01 0.44583269E+03</pdfrwt>
<totfact> 0.68756915E+04</totfact>
</mgrwt>
</event>
<event>
 7    0  0.4766352E-002  0.4555096E+03  0.7546771E-02  0.1026092E+00
         21   -1    0    0  502  501  0.00000000000E+00  0.00000000000E+00  0.33633007909E+03  0.33633007909E+03  0.00000000000E+00 0. -1.
         21   -1    0    0  501  502 -0.00000000000E+00 -0.00000000000E+00 -0.15423014892E+03  0.15423014892E+03  0.00000000000E+00 0. -1.
      99926    2    1    2    0    0  0.00000000000E+00  0.00000000000E+00  0.18209993017E+03  0.49056022801E+03  0.45550955285E+03 0.  0.
      99925    2    3    3    0    0 -0.75854564229E+02  0.64773930245E+02  0.17318768506E+03  0.33032130275E+03  0.26299926205E+03 0.  0.
         25    1    3    3    0    0  0.75854564229E+02 -0.64773930245E+02  0.89122451070E+01  0.16023892525E+03  0.12509000000E+03 0.  0.
         25    1    4    4    0    0 -0.27188902291E+02 -0.86075003396E+01  0.77842672795E+02  0.15006770231E+03  0.12509000000E+03 0.  0.
         25    1    4    4    0    0 -0.48665661938E+02  0.73381430584E+02  0.95345012267E+02  0.18025360044E+03  0.12509000000E+03 0.  0.
<mgrwt>
<rscale>  2 0.45550955E+03</rscale>
<asrwt>0</asrwt>
<pdfrwt beam="1">  1       21 0.49460306E-01 0.45550955E+03</pdfrwt>
<pdfrwt beam="2">  1       21 0.22680904E-01 0.45550955E+03</pdfrwt>
<totfact> 0.65672993E+04</totfact>
</mgrwt>
</event>
<event>
 7    0  0.4766352E-002  0.4473849E+03  0.7546771E-02  0.1028505E+00
         21   -1    0    0  502  501  0.00000000000E+00  0.00000000000E+00  0.16557062932E+03  0.16557062932E+03  0.00000000000E+00 0.  1.
         21   -1    0    0  501  502 -0.00000000000E+00 -0.00000000000E+00 -0.30221729507E+03  0.30221729507E+03  0.00000000000E+00 0.  1.
      99926    2    1    2    0    0  0.00000000000E+00  0.00000000000E+00 -0.13664666575E+03  0.46778792439E+03  0.44738488010E+03 0.  0.
      99925    2    3    3    0    0  0.64470303700E+02 -0.81386165720E+02 -0.10837514485E+03  0.30278212139E+03  0.26296713289E+03 0.  0.
         25    1    4    4    0    0  0.65829764376E+02 -0.68019818654E+02 -0.57480573903E+02  0.16706818394E+03  0.12509000000E+03 0.  0.
         25    1    3    3    0    0 -0.64470303700E+02  0.81386165720E+02 -0.28271520905E+02  0.16500580300E+03  0.12509000000E+03 0.  0.
         25    1    4    4    0    0 -0.13594606757E+01 -0.13366347066E+02 -0.50894570943E+02  0.13571393745E+03  0.12509000000E+03 0.  0.
<mgrwt>
<rscale>  2 0.44738488E+03</rscale>
<asrwt>0</asrwt>
<pdfrwt beam="1">  1       21 0.24348622E-01 0.44738488E+03</pdfrwt>
<pdfrwt beam="2">  1       21 0.44443719E-01 0.44738488E+03</pdfrwt>
<totfact> 0.71844331E+04</totfact>
</mgrwt>
</event>
<event>
 7    0  0.4766352E-002  0.4592932E+03  0.7546771E-02  0.1024986E+00
         21   -1    0    0  502  501  0.00000000000E+00  0.00000000000E+00  0.22172613993E+03  0.22172613993E+03  0.00000000000E+00 0. -1.
         21   -1    0    0  501  502 -0.00000000000E+00 -0.00000000000E+00 -0.23784999040E+03  0.23784999040E+03  0.00000000000E+00 0. -1.
      99926    2    1    2    0    0  0.00000000000E+00  0.00000000000E+00 -0.16123850471E+02  0.45957613032E+03  0.45929319722E+03 0.  0.
      99925    2    3    3    0    0  0.94517968419E+02  0.68575247584E+02 -0.21788765641E+02  0.28835752649E+03  0.26275292927E+03 0.  0.
         25    1    4    4    0    0  0.87719191102E+02  0.25408933583E+02 -0.16387298483E+02  0.15574441256E+03  0.12509000000E+03 0.  0.
         25    1    4    4    0    0  0.67987773168E+01  0.43166314001E+02 -0.54014671575E+01  0.13261311393E+03  0.12509000000E+03 0.  0.
         25    1    3    3    0    0 -0.94517968419E+02 -0.68575247584E+02  0.56649151697E+01  0.17121860384E+03  0.12509000000E+03 0.  0.
<mgrwt>
<rscale>  2 0.45929320E+03</rscale>
<asrwt>0</asrwt>
<pdfrwt beam="1">  1       21 0.32606785E-01 0.45929320E+03</pdfrwt>
<pdfrwt beam="2">  1       21 0.34977940E-01 0.45929320E+03</pdfrwt>
<totfact> 0.65924502E+04</totfact>
</mgrwt>
</event>
<event>
 7    0  0.4766352E-002  0.4520525E+03  0.7546771E-02  0.1027112E+00
         21   -1    0    0  502  501  0.00000000000E+00  0.00000000000E+00  0.62558205767E+02  0.62558205767E+02  0.00000000000E+00 0.  1.
         21   -1    0    0  501  502 -0.00000000000E+00 -0.00000000000E+00 -0.81664520053E+03  0.81664520053E+03  0.00000000000E+00 0.  1.
      99926    2    1    2    0    0  0.00000000000E+00  0.00000000000E+00 -0.75408699476E+03  0.87920340629E+03  0.45205246816E+03 0.  0.
      99925    2    3    3    0    0 -0.38892372671E+02 -0.78713769508E+02 -0.34566662432E+03  0.44312637038E+03  0.26299637031E+03 0.  0.
         25    1    3    3    0    0  0.38892372671E+02  0.78713769508E+02 -0.40842037044E+03  0.43607703592E+03  0.12509000000E+03 0.  0.
         25    1    4    4    0    0 -0.58602403406E+01 -0.55540009020E+02 -0.12070587975E+03  0.18258272789E+03  0.12509000000E+03 0.  0.
         25    1    4    4    0    0 -0.33032132330E+02 -0.23173760488E+02 -0.22496074457E+03  0.26054364249E+03  0.12509000000E+03 0.  0.
<mgrwt>
<rscale>  2 0.45205247E+03</rscale>
<asrwt>0</asrwt>
<pdfrwt beam="1">  1       21 0.91997362E-02 0.45205247E+03</pdfrwt>
<pdfrwt beam="2">  1       21 0.12009488E+00 0.45205247E+03</pdfrwt>
<totfact> 0.45179072E+04</totfact>
</mgrwt>
</event>
<event>
 7    0  0.4766352E-002  0.4526319E+03  0.7546771E-02  0.1026940E+00
         21   -1    0    0  502  501  0.00000000000E+00  0.00000000000E+00  0.15264869207E+04  0.15264869207E+04  0.00000000000E+00 0.  1.
         21   -1    0    0  501  502 -0.00000000000E+00 -0.00000000000E+00 -0.33553449739E+02  0.33553449739E+02  0.00000000000E+00 0.  1.
      99926    2    1    2    0    0  0.00000000000E+00  0.00000000000E+00  0.14929334709E+04  0.15600403704E+04  0.45263186883E+03 0.  0.
      99925    2    3    3    0    0 -0.84127809930E+02 -0.66678642213E+02  0.10353711841E+04  0.10736924659E+04  0.26324606904E+03 0.  0.
         25    1    4    4    0    0 -0.12540891239E+02 -0.80652951827E+01  0.39048597420E+03  0.41030370104E+03  0.12509000000E+03 0.  0.
         25    1    3    3    0    0  0.84127809930E+02  0.66678642213E+02  0.45756228685E+03  0.48634790447E+03  0.12509000000E+03 0.  0.
         25    1    4    4    0    0 -0.71586918691E+02 -0.58613347030E+02  0.64488520986E+03  0.66338876488E+03  0.12509000000E+03 0.  0.
<mgrwt>
<rscale>  2 0.45263187E+03</rscale>
<asrwt>0</asrwt>
<pdfrwt beam="1">  1       21 0.22448332E+00 0.45263187E+03</pdfrwt>
<pdfrwt beam="2">  1       21 0.49343319E-02 0.45263187E+03</pdfrwt>
<totfact> 0.22761021E+04</totfact>
</mgrwt>
</event>
<event>
 7    0  0.4766352E-002  0.4493014E+03  0.7546771E-02  0.1027931E+00
         21   -1    0    0  502  501  0.00000000000E+00  0.00000000000E+00  0.39466750941E+02  0.39466750941E+02  0.00000000000E+00 0. -1.
         21   -1    0    0  501  502 -0.00000000000E+00 -0.00000000000E+00 -0.12787454538E+04  0.12787454538E+04  0.00000000000E+00 0. -1.
      99926    2    1    2    0    0 -0.35527136788E-14  0.00000000000E+00 -0.12392787028E+04  0.13182122047E+04  0.44930136141E+03 0.  0.
      99925    2    3    3    0    0 -0.15474956759E+02  0.12546296172E+02 -0.47436736995E+03  0.54288405541E+03  0.26325237342E+03 0.  0.
         25    1    3    3    0    0  0.15474956759E+02 -0.12546296172E+02 -0.76491133289E+03  0.77532814932E+03  0.12509000000E+03 0.  0.
         25    1    4    4    0    0  0.15427104673E+02  0.40216240943E+01 -0.16516971000E+03  0.20780450000E+03  0.12509000000E+03 0.  0.
         25    1    4    4    0    0 -0.30902061432E+02  0.85246720781E+01 -0.30919765995E+03  0.33507955541E+03  0.12509000000E+03 0.  0.
<mgrwt>
<rscale>  2 0.44930136E+03</rscale>
<asrwt>0</asrwt>
<pdfrwt beam="1">  1       21 0.58039347E-02 0.44930136E+03</pdfrwt>
<pdfrwt beam="2">  1       21 0.18805078E+00 0.44930136E+03</pdfrwt>
<totfact> 0.29893220E+04</totfact>
</mgrwt>
</event>
<event>
 7    0  0.4766352E-002  0.4509640E+03  0.7546771E-02  0.1027435E+00
         21   -1    0    0  502  501  0.00000000000E+00  0.00000000000E+00  0.19779620296E+03  0.19779620296E+03  0.00000000000E+00 0.  1.
         21   -1    0    0  501  502 -0.00000000000E+00 -0.00000000000E+00 -0.25704304120E+03  0.25704304120E+03  0.00000000000E+00 0.  1.
      99926    2    1    2    0    0  0.00000000000E+00  0.00000000000E+00 -0.59246838241E+02  0.45483924415E+03  0.45096402315E+03 0.  0.
      99925    2    3    3    0    0  0.85724352304E+02 -0.41728730516E+02 -0.91542989116E+02  0.29427616935E+03  0.26292278993E+03 0.  0.
         25    1    4    4    0    0  0.31616490905E+02 -0.73428935300E+01 -0.52486361398E+01  0.12933899978E+03  0.12509000000E+03 0.  0.
         25    1    4    4    0    0  0.54107861399E+02 -0.34385836986E+02 -0.86294352976E+02  0.16493716957E+03  0.12509000000E+03 0.  0.
         25    1    3    3    0    0 -0.85724352304E+02  0.41728730516E+02  0.32296150875E+02  0.16056307480E+03  0.12509000000E+03 0.  0.
<mgrwt>
<rscale>  2 0.45096402E+03</rscale>
<asrwt>0</asrwt>
<pdfrwt beam="1">  1       21 0.29087677E-01 0.45096402E+03</pdfrwt>
<pdfrwt beam="2">  1       21 0.37800447E-01 0.45096402E+03</pdfrwt>
<totfact> 0.70810119E+04</totfact>
</mgrwt>
</event>
<event>
 7    0  0.4766352E-002  0.4419995E+03  0.7546771E-02  0.1030135E+00
         21   -1    0    0  502  501  0.00000000000E+00  0.00000000000E+00  0.26253410885E+03  0.26253410885E+03  0.00000000000E+00 0.  1.
         21   -1    0    0  501  502 -0.00000000000E+00 -0.00000000000E+00 -0.18603632657E+03  0.18603632657E+03  0.00000000000E+00 0.  1.
      99926    2    1    2    0    0  0.00000000000E+00  0.00000000000E+00  0.76497782278E+02  0.44857043542E+03  0.44199946249E+03 0.  0.
      99925    2    3    3    0    0  0.55638124999E+02  0.79761757947E+02  0.74478721938E+02  0.29011184876E+03  0.26298339450E+03 0.  0.
         25    1    4    4    0    0  0.14639215175E+02  0.68788377113E+02  0.65403925448E+02  0.15770646471E+03  0.12509000000E+03 0.  0.
         25    1    4    4    0    0  0.40998909824E+02  0.10973380835E+02  0.90747964902E+01  0.13240538405E+03  0.12509000000E+03 0.  0.
         25    1    3    3    0    0 -0.55638124999E+02 -0.79761757947E+02  0.20190603405E+01  0.15845858667E+03  0.12509000000E+03 0.  0.
<mgrwt>
<rscale>  2 0.44199946E+03</rscale>
<asrwt>0</asrwt>
<pdfrwt beam="1">  1       21 0.38607957E-01 0.44199946E+03</pdfrwt>
<pdfrwt beam="2">  1       21 0.27358283E-01 0.44199946E+03</pdfrwt>
<totfact> 0.76666636E+04</totfact>
</mgrwt>
</event>
<event>
 7    0  0.4766352E-002  0.4608948E+03  0.7546771E-02  0.1024522E+00
         21   -1    0    0  502  501  0.00000000000E+00  0.00000000000E+00  0.12934476708E+03  0.12934476708E+03  0.00000000000E+00 0.  1.
         21   -1    0    0  501  502 -0.00000000000E+00 -0.00000000000E+00 -0.41057714051E+03  0.41057714051E+03  0.00000000000E+00 0.  1.
      99926    2    1    2    0    0  0.00000000000E+00  0.00000000000E+00 -0.28123237343E+03  0.53992190759E+03  0.46089480191E+03 0.  0.
      99925    2    3    3    0    0 -0.26710418916E+02  0.11560052405E+03 -0.17373497599E+03  0.33674679544E+03  0.26294036343E+03 0.  0.
         25    1    4    4    0    0 -0.53017334660E+02  0.57898606310E+02 -0.78820679102E+02  0.16740159480E+03  0.12509000000E+03 0.  0.
         25    1    3    3    0    0  0.26710418916E+02 -0.11560052405E+03 -0.10749739744E+03  0.20317511215E+03  0.12509000000E+03 0.  0.
         25    1    4    4    0    0  0.26306915743E+02  0.57701917742E+02 -0.94914296891E+02  0.16934520064E+03  0.12509000000E+03 0.  0.
<mgrwt>
<rscale>  2 0.46089480E+03</rscale>
<asrwt>0</asrwt>
<pdfrwt beam="1">  1       21 0.19021289E-01 0.46089480E+03</pdfrwt>
<pdfrwt beam="2">  1       21 0.60378991E-01 0.46089480E+03</pdfrwt>
<totfact> 0.59701677E+04</totfact>
</mgrwt>
</event>
<event>
 7    0  0.4766352E-002  0.4550269E+03  0.7546771E-02  0.1026233E+00
         21   -1    0    0  502  501  0.00000000000E+00  0.00000000000E+00  0.10803393592E+04  0.10803393592E+04  0.00000000000E+00 0. -1.
         21   -1    0    0  501  502 -0.00000000000E+00 -0.00000000000E+00 -0.47913067864E+02  0.47913067864E+02  0.00000000000E+00 0. -1.
      99926    2    1    2    0    0  0.71054273576E-14  0.00000000000E+00  0.10324262914E+04  0.11282524271E+04  0.45502691364E+03 0.  0.
      99925    2    3    3    0    0 -0.83170355719E+01 -0.94634368767E+02  0.49722342313E+03  0.57047607845E+03  0.26303419311E+03 0.  0.
         25    1    3    3    0    0  0.83170355719E+01  0.94634368767E+02  0.53520286825E+03  0.55777634865E+03  0.12509000000E+03 0.  0.
         25    1    4    4    0    0 -0.43571905323E+02 -0.44065384580E+02  0.26757404998E+03  0.30180067822E+03  0.12509000000E+03 0.  0.
         25    1    4    4    0    0  0.35254869751E+02 -0.50568984186E+02  0.22964937314E+03  0.26867540023E+03  0.12509000000E+03 0.  0.
<mgrwt>
<rscale>  2 0.45502691E+03</rscale>
<asrwt>0</asrwt>
<pdfrwt beam="1">  1       21 0.15887342E+00 0.45502691E+03</pdfrwt>
<pdfrwt beam="2">  1       21 0.70460401E-02 0.45502691E+03</pdfrwt>
<totfact> 0.34509587E+04</totfact>
</mgrwt>
</event>
<event>
 7    0  0.4766352E-002  0.4515684E+03  0.7546771E-02  0.1027255E+00
         21   -1    0    0  502  501  0.00000000000E+00  0.00000000000E+00  0.70850460167E+03  0.70850460167E+03  0.00000000000E+00 0.  1.
         21   -1    0    0  501  502 -0.00000000000E+00 -0.00000000000E+00 -0.71952271090E+02  0.71952271090E+02  0.00000000000E+00 0.  1.
      99926    2    1    2    0    0 -0.35527136788E-14  0.00000000000E+00  0.63655233058E+03  0.78045687276E+03  0.45156844517E+03 0.  0.
      99925    2    3    3    0    0 -0.29239647910E+02 -0.10576094646E+03  0.41403885584E+03  0.50260783219E+03  0.26295650596E+03 0.  0.
         25    1    4    4    0    0 -0.41585416796E+02 -0.56427576269E+02  0.15956742383E+03  0.21452899361E+03  0.12509000000E+03 0.  0.
         25    1    4    4    0    0  0.12345768886E+02 -0.49333370194E+02  0.25447143202E+03  0.28807883858E+03  0.12509000000E+03 0.  0.
         25    1    3    3    0    0  0.29239647910E+02  0.10576094646E+03  0.22251347474E+03  0.27784904057E+03  0.12509000000E+03 0.  0.
<mgrwt>
<rscale>  2 0.45156845E+03</rscale>
<asrwt>0</asrwt>
<pdfrwt beam="1">  1       21 0.10419185E+00 0.45156845E+03</pdfrwt>
<pdfrwt beam="2">  1       21 0.10581217E-01 0.45156845E+03</pdfrwt>
<totfact> 0.50059446E+04</totfact>
</mgrwt>
</event>
<event>
 7    0  0.4766352E-002  0.4587010E+03  0.7546771E-02  0.1025159E+00
         21   -1    0    0  502  501  0.00000000000E+00  0.00000000000E+00  0.96979930515E+02  0.96979930515E+02  0.00000000000E+00 0. -1.
         21   -1    0    0  501  502 -0.00000000000E+00 -0.00000000000E+00 -0.54239720865E+03  0.54239720865E+03  0.00000000000E+00 0. -1.
      99926    2    1    2    0    0 -0.14210854715E-13  0.00000000000E+00 -0.44541727813E+03  0.63937713916E+03  0.45870096405E+03 0.  0.
      99925    2    3    3    0    0  0.10830484994E+03  0.26906578864E+02 -0.23219756983E+03  0.36815019246E+03  0.26299229698E+03 0.  0.
         25    1    3    3    0    0 -0.10830484994E+03 -0.26906578864E+02 -0.21321970831E+03  0.27122694670E+03  0.12509000000E+03 0.  0.
         25    1    4    4    0    0  0.86951812523E+02  0.52982645283E+01 -0.93043535719E+02  0.17858694506E+03  0.12509000000E+03 0.  0.
         25    1    4    4    0    0  0.21353037418E+02  0.21608314336E+02 -0.13915403411E+03  0.18956324740E+03  0.12509000000E+03 0.  0.
<mgrwt>
<rscale>  2 0.45870096E+03</rscale>
<asrwt>0</asrwt>
<pdfrwt beam="1">  1       21 0.14261754E-01 0.45870096E+03</pdfrwt>
<pdfrwt beam="2">  1       21 0.79764296E-01 0.45870096E+03</pdfrwt>
<totfact> 0.54702331E+04</totfact>
</mgrwt>
</event>
<event>
 7    0  0.4766352E-002  0.4553679E+03  0.7546771E-02  0.1026133E+00
         21   -1    0    0  502  501  0.00000000000E+00  0.00000000000E+00  0.26179551907E+03  0.26179551907E+03  0.00000000000E+00 0. -1.
         21   -1    0    0  501  502 -0.00000000000E+00 -0.00000000000E+00 -0.19801703687E+03  0.19801703687E+03  0.00000000000E+00 0. -1.
      99926    2    1    2    0    0 -0.14210854715E-13 -0.71054273576E-14  0.63778482202E+02  0.45981255593E+03  0.45536786426E+03 0.  0.
      99925    2    3    3    0    0 -0.76046737188E+02 -0.47965953639E+02 -0.29680113627E+02  0.27962971496E+03  0.26311219926E+03 0.  0.
         25    1    4    4    0    0 -0.47291757612E+02 -0.45971200421E+02 -0.49324350116E+02  0.14976735699E+03  0.12509000000E+03 0.  0.
         25    1    3    3    0    0  0.76046737188E+02  0.47965953639E+02  0.93458595829E+02  0.18018284097E+03  0.12509000000E+03 0.  0.
         25    1    4    4    0    0 -0.28754979576E+02 -0.19947532181E+01  0.19644236489E+02  0.12986235797E+03  0.12509000000E+03 0.  0.
<mgrwt>
<rscale>  2 0.45536786E+03</rscale>
<asrwt>0</asrwt>
<pdfrwt beam="1">  1       21 0.38499341E-01 0.45536786E+03</pdfrwt>
<pdfrwt beam="2">  1       21 0.29120152E-01 0.45536786E+03</pdfrwt>
<totfact> 0.67994547E+04</totfact>
</mgrwt>
</event>
<event>
 7    0  0.4766352E-002  0.4560892E+03  0.7546771E-02  0.1025922E+00
         21   -1    0    0  502  501  0.00000000000E+00  0.00000000000E+00  0.22143663687E+03  0.22143663687E+03  0.00000000000E+00 0. -1.
         21   -1    0    0  501  502 -0.00000000000E+00 -0.00000000000E+00 -0.23484970760E+03  0.23484970760E+03  0.00000000000E+00 0. -1.
      99926    2    1    2    0    0  0.00000000000E+00  0.00000000000E+00 -0.13413070735E+02  0.45628634447E+03  0.45608915541E+03 0.  0.
      99925    2    3    3    0    0 -0.10682253354E+03 -0.35653396326E+02  0.11588618910E+02  0.28612521223E+03  0.26277580300E+03 0.  0.
         25    1    3    3    0    0  0.10682253354E+03  0.35653396326E+02 -0.25001689645E+02  0.17016113224E+03  0.12509000000E+03 0.  0.
         25    1    4    4    0    0 -0.41310594611E+02 -0.42112306628E+02  0.35444604162E+02  0.14277198486E+03  0.12509000000E+03 0.  0.
         25    1    4    4    0    0 -0.65511938930E+02  0.64589103021E+01 -0.23855985252E+02  0.14335322737E+03  0.12509000000E+03 0.  0.
<mgrwt>
<rscale>  2 0.45608916E+03</rscale>
<asrwt>0</asrwt>
<pdfrwt beam="1">  1       21 0.32564212E-01 0.45608916E+03</pdfrwt>
<pdfrwt beam="2">  1       21 0.34536721E-01 0.45608916E+03</pdfrwt>
<totfact> 0.67860025E+04</totfact>
</mgrwt>
</event>
<event>
 7    0  0.4766352E-002  0.4588696E+03  0.7546771E-02  0.1025110E+00
         21   -1    0    0  502  501  0.00000000000E+00  0.00000000000E+00  0.21651368045E+03  0.21651368045E+03  0.00000000000E+00 0. -1.
         21   -1    0    0  501  502 -0.00000000000E+00 -0.00000000000E+00 -0.24312698614E+03  0.24312698614E+03  0.00000000000E+00 0. -1.
      99926    2    1    2    0    0  0.00000000000E+00 -0.35527136788E-14 -0.26613305684E+02  0.45964066659E+03  0.45886956136E+03 0.  0.
      99925    2    3    3    0    0 -0.10560762963E+03 -0.24296310616E+02 -0.60097752356E+02  0.29078570393E+03  0.26306140657E+03 0.  0.
         25    1    4    4    0    0 -0.51684779189E+02 -0.52901850924E+02 -0.30380543358E+02  0.14846012174E+03  0.12509000000E+03 0.  0.
         25    1    3    3    0    0  0.10560762963E+03  0.24296310616E+02  0.33484446672E+02  0.16885496266E+03  0.12509000000E+03 0.  0.
         25    1    4    4    0    0 -0.53922850441E+02  0.28605540308E+02 -0.29717208998E+02  0.14232558219E+03  0.12509000000E+03 0.  0.
<mgrwt>
<rscale>  2 0.45886956E+03</rscale>
<asrwt>0</asrwt>
<pdfrwt beam="1">  1       21 0.31840247E-01 0.45886956E+03</pdfrwt>
<pdfrwt beam="2">  1       21 0.35753968E-01 0.45886956E+03</pdfrwt>
<totfact> 0.66141387E+04</totfact>
</mgrwt>
</event>
<event>
 7    0  0.4766352E-002  0.4534885E+03  0.7546771E-02  0.1026687E+00
         21   -1    0    0  502  501  0.00000000000E+00  0.00000000000E+00  0.17409458097E+03  0.17409458097E+03  0.00000000000E+00 0.  1.
         21   -1    0    0  501  502 -0.00000000000E+00 -0.00000000000E+00 -0.29531625137E+03  0.29531625137E+03  0.00000000000E+00 0.  1.
      99926    2    1    2    0    0  0.00000000000E+00  0.00000000000E+00 -0.12122167040E+03  0.46941083235E+03  0.45348851821E+03 0.  0.
      99925    2    3    3    0    0 -0.78311907641E+02 -0.71682125627E+02 -0.39098678044E+02  0.28593664891E+03  0.26260232016E+03 0.  0.
         25    1    4    4    0    0 -0.78815009909E+02 -0.50728686075E+02 -0.17667126222E+02  0.15730492944E+03  0.12509000000E+03 0.  0.
         25    1    4    4    0    0  0.50310226839E+00 -0.20953439552E+02 -0.21431551822E+02  0.12863171947E+03  0.12509000000E+03 0.  0.
         25    1    3    3    0    0  0.78311907641E+02  0.71682125627E+02 -0.82122992352E+02  0.18347418343E+03  0.12509000000E+03 0.  0.
<mgrwt>
<rscale>  2 0.45348852E+03</rscale>
<asrwt>0</asrwt>
<pdfrwt beam="1">  1       21 0.25602145E-01 0.45348852E+03</pdfrwt>
<pdfrwt beam="2">  1       21 0.43428860E-01 0.45348852E+03</pdfrwt>
<totfact> 0.68294801E+04</totfact>
</mgrwt>
</event>
<event>
 7    0  0.4766352E-002  0.4536845E+03  0.7546771E-02  0.1026629E+00
         21   -1    0    0  502  501  0.00000000000E+00  0.00000000000E+00  0.13946290143E+03  0.13946290143E+03  0.00000000000E+00 0. -1.
         21   -1    0    0  501  502 -0.00000000000E+00 -0.00000000000E+00 -0.36896834933E+03  0.36896834933E+03  0.00000000000E+00 0. -1.
      99926    2    1    2    0    0  0.35527136788E-14 -0.14210854715E-13 -0.22950544790E+03  0.50843125075E+03  0.45368445656E+03 0.  0.
      99925    2    3    3    0    0  0.21506225795E+02 -0.10782604972E+03 -0.16821162442E+03  0.33096740755E+03  0.26297395218E+03 0.  0.
         25    1    4    4    0    0  0.29059794239E+02 -0.92687773588E+02 -0.84561692565E+02  0.17953741383E+03  0.12509000000E+03 0.  0.
         25    1    3    3    0    0 -0.21506225795E+02  0.10782604972E+03 -0.61293823483E+02  0.17746384320E+03  0.12509000000E+03 0.  0.
         25    1    4    4    0    0 -0.75535684443E+01 -0.15138276134E+02 -0.83649931852E+02  0.15142999372E+03  0.12509000000E+03 0.  0.
<mgrwt>
<rscale>  2 0.45368446E+03</rscale>
<asrwt>0</asrwt>
<pdfrwt beam="1">  1       21 0.20509250E-01 0.45368446E+03</pdfrwt>
<pdfrwt beam="2">  1       21 0.54260051E-01 0.45368446E+03</pdfrwt>
<totfact> 0.65362075E+04</totfact>
</mgrwt>
</event>
<event>
 7    0  0.4766352E-002  0.4063768E+03  0.7546771E-02  0.1041594E+00
         21   -1    0    0  502  501  0.00000000000E+00  0.00000000000E+00  0.19166580556E+02  0.19166580556E+02  0.00000000000E+00 0. -1.
         21   -1    0    0  501  502 -0.00000000000E+00 -0.00000000000E+00 -0.21540374792E+04  0.21540374792E+04  0.00000000000E+00 0. -1.
      99926    2    1    2    0    0  0.35527136788E-14  0.00000000000E+00 -0.21348708987E+04  0.21732040598E+04  0.40637683431E+03 0.  0.
      99925    2    3    3    0    0 -0.18506045080E+02 -0.38282093679E+02 -0.12124876773E+04  0.12414067065E+04  0.26297576117E+03 0.  0.
         25    1    4    4    0    0  0.10574212107E+02 -0.22138234410E+02 -0.76605678660E+03  0.77659025475E+03  0.12509000000E+03 0.  0.
         25    1    3    3    0    0  0.18506045080E+02  0.38282093679E+02 -0.92238322139E+03  0.93179735329E+03  0.12509000000E+03 0.  0.
         25    1    4    4    0    0 -0.29080257187E+02 -0.16143859269E+02 -0.44643089068E+03  0.46481645174E+03  0.12509000000E+03 0.  0.
<mgrwt>
<rscale>  2 0.40637683E+03</rscale>
<asrwt>0</asrwt>
<pdfrwt beam="1">  1       21 0.28186153E-02 0.40637683E+03</pdfrwt>
<pdfrwt beam="2">  1       21 0.31677016E+00 0.40637683E+03</pdfrwt>
<totfact> 0.16485053E+04</totfact>
</mgrwt>
</event>
<event>
 7    0  0.4766352E-002  0.4486980E+03  0.7546771E-02  0.1028111E+00
         21   -1    0    0  502  501  0.00000000000E+00  0.00000000000E+00  0.24533105244E+04  0.24533105244E+04  0.00000000000E+00 0. -1.
         21   -1    0    0  501  502 -0.00000000000E+00 -0.00000000000E+00 -0.20516147324E+02  0.20516147324E+02  0.00000000000E+00 0. -1.
      99926    2    1    2    0    0  0.00000000000E+00  0.00000000000E+00  0.24327943771E+04  0.24738266717E+04  0.44869802830E+03 0.  0.
      99925    2    3    3    0    0 -0.82226445804E+02 -0.52550785212E+02  0.17831782366E+04  0.18051179074E+04  0.26306513018E+03 0.  0.
         25    1    4    4    0    0 -0.79856051705E+02 -0.11597129765E+02  0.96750611608E+03  0.97889073709E+03  0.12509000000E+03 0.  0.
         25    1    3    3    0    0  0.82226445804E+02  0.52550785212E+02  0.64961614047E+03  0.66870876432E+03  0.12509000000E+03 0.  0.
         25    1    4    4    0    0 -0.23703940998E+01 -0.40953655447E+02  0.81567212052E+03  0.82622717030E+03  0.12509000000E+03 0.  0.
<mgrwt>
<rscale>  2 0.44869803E+03</rscale>
<asrwt>0</asrwt>
<pdfrwt beam="1">  1       21 0.36078076E+00 0.44869803E+03</pdfrwt>
<pdfrwt beam="2">  1       21 0.30170822E-02 0.44869803E+03</pdfrwt>
<totfact> 0.77774443E+03</totfact>
</mgrwt>
</event>
<event>
 7    0  0.4766352E-002  0.4568306E+03  0.7546771E-02  0.1025704E+00
         21   -1    0    0  502  501  0.00000000000E+00  0.00000000000E+00  0.67796791356E+03  0.67796791356E+03  0.00000000000E+00 0. -1.
         21   -1    0    0  501  502 -0.00000000000E+00 -0.00000000000E+00 -0.76955785650E+02  0.76955785650E+02  0.00000000000E+00 0. -1.
      99926    2    1    2    0    0  0.00000000000E+00  0.35527136788E-14  0.60101212791E+03  0.75492369921E+03  0.45683061821E+03 0.  0.
      99925    2    3    3    0    0 -0.10035860546E+03  0.14848774925E+02  0.28873232424E+03  0.40355705354E+03  0.26305817721E+03 0.  0.
         25    1    4    4    0    0 -0.43679724634E+02 -0.27714882930E+02  0.16846686462E+03  0.21611253008E+03  0.12509000000E+03 0.  0.
         25    1    3    3    0    0  0.10035860546E+03 -0.14848774925E+02  0.31227980367E+03  0.35136664567E+03  0.12509000000E+03 0.  0.
         25    1    4    4    0    0 -0.56678880823E+02  0.42563657855E+02  0.12026545962E+03  0.18744452347E+03  0.12509000000E+03 0.  0.
<mgrwt>
<rscale>  2 0.45683062E+03</rscale>
<asrwt>0</asrwt>
<pdfrwt beam="1">  1       21 0.99701161E-01 0.45683062E+03</pdfrwt>
<pdfrwt beam="2">  1       21 0.11317028E-01 0.45683062E+03</pdfrwt>
<totfact> 0.49307203E+04</totfact>
</mgrwt>
</event>
<event>
 7    0  0.4766352E-002  0.4642624E+03  0.7546771E-02  0.1023552E+00
         21   -1    0    0  502  501  0.00000000000E+00  0.00000000000E+00  0.40021081984E+02  0.40021081984E+02  0.00000000000E+00 0.  1.
         21   -1    0    0  501  502 -0.00000000000E+00 -0.00000000000E+00 -0.13464125612E+04  0.13464125612E+04  0.00000000000E+00 0.  1.
      99926    2    1    2    0    0  0.14210854715E-13  0.00000000000E+00 -0.13063914793E+04  0.13864336432E+04  0.46426237193E+03 0.  0.
      99925    2    3    3    0    0 -0.10088961994E+03  0.54841785062E+02 -0.93521065957E+03  0.97825592971E+03  0.26301967504E+03 0.  0.
         25    1    4    4    0    0 -0.65725787032E+02  0.65850841811E+02 -0.47518626478E+03  0.50010569562E+03  0.12509000000E+03 0.  0.
         25    1    4    4    0    0 -0.35163832905E+02 -0.11009056749E+02 -0.46002439478E+03  0.47815023410E+03  0.12509000000E+03 0.  0.
         25    1    3    3    0    0  0.10088961994E+03 -0.54841785062E+02 -0.37118081969E+03  0.40817771351E+03  0.12509000000E+03 0.  0.
<mgrwt>
<rscale>  2 0.46426237E+03</rscale>
<asrwt>0</asrwt>
<pdfrwt beam="1">  1       21 0.58854538E-02 0.46426237E+03</pdfrwt>
<pdfrwt beam="2">  1       21 0.19800183E+00 0.46426237E+03</pdfrwt>
<totfact> 0.24857690E+04</totfact>
</mgrwt>
</event>
<event>
 7    0  0.4766352E-002  0.4562695E+03  0.7546771E-02  0.1025869E+00
         21   -1    0    0  502  501  0.00000000000E+00  0.00000000000E+00  0.24673900904E+03  0.24673900904E+03  0.00000000000E+00 0.  1.
         21   -1    0    0  501  502 -0.00000000000E+00 -0.00000000000E+00 -0.21093323842E+03  0.21093323842E+03  0.00000000000E+00 0.  1.
      99926    2    1    2    0    0 -0.17763568394E-14  0.00000000000E+00  0.35805770629E+02  0.45767224746E+03  0.45626947398E+03 0.  0.
      99925    2    3    3    0    0  0.39854277271E+01  0.20823405240E+02  0.13522650259E+03  0.29648450635E+03  0.26299687767E+03 0.  0.
         25    1    4    4    0    0 -0.34797363542E+02  0.46728894920E+01  0.85177004377E+02  0.15535547168E+03  0.12509000000E+03 0.  0.
         25    1    3    3    0    0 -0.39854277271E+01 -0.20823405240E+02 -0.99420731957E+02  0.16118774111E+03  0.12509000000E+03 0.  0.
         25    1    4    4    0    0  0.38782791269E+02  0.16150515748E+02  0.50049498210E+02  0.14112903468E+03  0.12509000000E+03 0.  0.
<mgrwt>
<rscale>  2 0.45626947E+03</rscale>
<asrwt>0</asrwt>
<pdfrwt beam="1">  1       21 0.36285149E-01 0.45626947E+03</pdfrwt>
<pdfrwt beam="2">  1       21 0.31019594E-01 0.45626947E+03</pdfrwt>
<totfact> 0.67662561E+04</totfact>
</mgrwt>
</event>
<event>
 7    0  0.4766352E-002  0.4434002E+03  0.7546771E-02  0.1029709E+00
         21   -1    0    0  502  501  0.00000000000E+00  0.00000000000E+00  0.17821881371E+04  0.17821881371E+04  0.00000000000E+00 0. -1.
         21   -1    0    0  501  502 -0.00000000000E+00 -0.00000000000E+00 -0.27578976996E+02  0.27578976996E+02  0.00000000000E+00 0. -1.
      99926    2    1    2    0    0 -0.71054273576E-14  0.00000000000E+00  0.17546091601E+04  0.18097671141E+04  0.44340016073E+03 0.  0.
      99925    2    3    3    0    0 -0.32134476884E+02 -0.90189276260E+02  0.97250324089E+03  0.10119551644E+04  0.26291437959E+03 0.  0.
         25    1    4    4    0    0 -0.39743516743E+01 -0.46955607268E+02  0.34416725967E+03  0.36921434865E+03  0.12509000000E+03 0.  0.
         25    1    3    3    0    0  0.32134476884E+02  0.90189276260E+02  0.78210591919E+03  0.79781194970E+03  0.12509000000E+03 0.  0.
         25    1    4    4    0    0 -0.28160125209E+02 -0.43233668992E+02  0.62833598122E+03  0.64274081572E+03  0.12509000000E+03 0.  0.
<mgrwt>
<rscale>  2 0.44340016E+03</rscale>
<asrwt>0</asrwt>
<pdfrwt beam="1">  1       21 0.26208641E+00 0.44340016E+03</pdfrwt>
<pdfrwt beam="2">  1       21 0.40557331E-02 0.44340016E+03</pdfrwt>
<totfact> 0.18700264E+04</totfact>
</mgrwt>
</event>
<event>
 7    0  0.4766352E-002  0.4525589E+03  0.7546771E-02  0.1026962E+00
         21   -1    0    0  502  501  0.00000000000E+00  0.00000000000E+00  0.16065149460E+03  0.16065149460E+03  0.00000000000E+00 0. -1.
         21   -1    0    0  501  502 -0.00000000000E+00 -0.00000000000E+00 -0.31871714460E+03  0.31871714460E+03  0.00000000000E+00 0. -1.
      99926    2    1    2    0    0  0.00000000000E+00 -0.53290705182E-14 -0.15806565000E+03  0.47936863920E+03  0.45255888296E+03 0.  0.
      99925    2    3    3    0    0 -0.41361307233E+02  0.10184385810E+02  0.89067681427E+01  0.26643255496E+03  0.26285451561E+03 0.  0.
         25    1    3    3    0    0  0.41361307233E+02 -0.10184385810E+02 -0.16697241814E+03  0.21293608424E+03  0.12509000000E+03 0.  0.
         25    1    4    4    0    0 -0.13531199481E+02  0.44720356208E+02  0.23983895430E+01  0.13355247654E+03  0.12509000000E+03 0.  0.
         25    1    4    4    0    0 -0.27830107752E+02 -0.34535970398E+02  0.65083785997E+01  0.13288007842E+03  0.12509000000E+03 0.  0.
<mgrwt>
<rscale>  2 0.45255888E+03</rscale>
<asrwt>0</asrwt>
<pdfrwt beam="1">  1       21 0.23625220E-01 0.45255888E+03</pdfrwt>
<pdfrwt beam="2">  1       21 0.46870168E-01 0.45255888E+03</pdfrwt>
<totfact> 0.68055240E+04</totfact>
</mgrwt>
</event>
<event>
 7    0  0.4766352E-002  0.4570393E+03  0.7546771E-02  0.1025643E+00
         21   -1    0    0  502  501  0.00000000000E+00  0.00000000000E+00  0.15308446724E+03  0.15308446724E+03  0.00000000000E+00 0.  1.
         21   -1    0    0  501  502 -0.00000000000E+00 -0.00000000000E+00 -0.34112685064E+03  0.34112685064E+03  0.00000000000E+00 0.  1.
      99926    2    1    2    0    0  0.00000000000E+00  0.00000000000E+00 -0.18804238341E+03  0.49421131788E+03  0.45703926392E+03 0.  0.
      99925    2    3    3    0    0 -0.39094489128E+02  0.69794697653E+02 -0.20618562845E+03  0.34462400444E+03  0.26429815012E+03 0.  0.
         25    1    4    4    0    0  0.14357525894E+02  0.67393049666E+01 -0.89284920762E+02  0.15450198043E+03  0.12509000000E+03 0.  0.
         25    1    3    3    0    0  0.39094489128E+02 -0.69794697653E+02  0.18143245044E+02  0.14958731344E+03  0.12509000000E+03 0.  0.
         25    1    4    4    0    0 -0.53452015021E+02  0.63055392686E+02 -0.11690070769E+03  0.19012202401E+03  0.12509000000E+03 0.  0.
<mgrwt>
<rscale>  2 0.45703926E+03</rscale>
<asrwt>0</asrwt>
<pdfrwt beam="1">  1       21 0.22512422E-01 0.45703926E+03</pdfrwt>
<pdfrwt beam="2">  1       21 0.50165713E-01 0.45703926E+03</pdfrwt>
<totfact> 0.64626679E+04</totfact>
</mgrwt>
</event>
<event>
 7    0  0.4766352E-002  0.4546549E+03  0.7546771E-02  0.1026343E+00
         21   -1    0    0  502  501  0.00000000000E+00  0.00000000000E+00  0.68556880030E+02  0.68556880030E+02  0.00000000000E+00 0.  1.
         21   -1    0    0  501  502 -0.00000000000E+00 -0.00000000000E+00 -0.75379416025E+03  0.75379416025E+03  0.00000000000E+00 0.  1.
      99926    2    1    2    0    0  0.00000000000E+00  0.14210854715E-13 -0.68523728022E+03  0.82235104028E+03  0.45465492766E+03 0.  0.
      99925    2    3    3    0    0  0.83933342054E+02  0.66007605821E+02 -0.49758903897E+03  0.57282913648E+03  0.26293831588E+03 0.  0.
         25    1    3    3    0    0 -0.83933342054E+02 -0.66007605821E+02 -0.18764824125E+03  0.24952190381E+03  0.12509000000E+03 0.  0.
         25    1    4    4    0    0  0.49602214828E+02 -0.53338778454E+01 -0.21216113255E+03  0.25129401949E+03  0.12509000000E+03 0.  0.
         25    1    4    4    0    0  0.34331127226E+02  0.71341483667E+02 -0.28542790642E+03  0.32153511698E+03  0.12509000000E+03 0.  0.
<mgrwt>
<rscale>  2 0.45465493E+03</rscale>
<asrwt>0</asrwt>
<pdfrwt beam="1">  1       21 0.10081894E-01 0.45465493E+03</pdfrwt>
<pdfrwt beam="2">  1       21 0.11085208E+00 0.45465493E+03</pdfrwt>
<totfact> 0.46829317E+04</totfact>
</mgrwt>
</event>
<event>
 7    0  0.4766352E-002  0.4349997E+03  0.7546771E-02  0.1032292E+00
         21   -1    0    0  502  501  0.00000000000E+00  0.00000000000E+00  0.20702085514E+03  0.20702085514E+03  0.00000000000E+00 0.  1.
         21   -1    0    0  501  502 -0.00000000000E+00 -0.00000000000E+00 -0.22850922381E+03  0.22850922381E+03  0.00000000000E+00 0.  1.
      99926    2    1    2    0    0  0.00000000000E+00  0.00000000000E+00 -0.21488368668E+02  0.43553007895E+03  0.43499965481E+03 0.  0.
      99925    2    3    3    0    0  0.41487714213E+02  0.64181443918E+02  0.39509679954E+02  0.27675741692E+03  0.26304593674E+03 0.  0.
         25    1    4    4    0    0  0.29154855332E+02 -0.53778786373E+01  0.32675784249E+01  0.12859670422E+03  0.12509000000E+03 0.  0.
         25    1    3    3    0    0 -0.41487714213E+02 -0.64181443918E+02 -0.60998048622E+02  0.15877266204E+03  0.12509000000E+03 0.  0.
         25    1    4    4    0    0  0.12332858881E+02  0.69559322555E+02  0.36242101530E+02  0.14816071269E+03  0.12509000000E+03 0.  0.
<mgrwt>
<rscale>  2 0.43499965E+03</rscale>
<asrwt>0</asrwt>
<pdfrwt beam="1">  1       21 0.30444244E-01 0.43499965E+03</pdfrwt>
<pdfrwt beam="2">  1       21 0.33604297E-01 0.43499965E+03</pdfrwt>
<totfact> 0.82378080E+04</totfact>
</mgrwt>
</event>
<event>
 7    0  0.4766352E-002  0.4545280E+03  0.7546771E-02  0.1026380E+00
         21   -1    0    0  502  501  0.00000000000E+00  0.00000000000E+00  0.11486218412E+03  0.11486218412E+03  0.00000000000E+00 0. -1.
         21   -1    0    0  501  502 -0.00000000000E+00 -0.00000000000E+00 -0.44965999998E+03  0.44965999998E+03  0.00000000000E+00 0. -1.
      99926    2    1    2    0    0  0.00000000000E+00  0.00000000000E+00 -0.33479781586E+03  0.56452218410E+03  0.45452801766E+03 0.  0.
      99925    2    3    3    0    0  0.77678830810E+02  0.16457341318E+02 -0.11147021668E+03  0.29651552467E+03  0.26304182619E+03 0.  0.
         25    1    3    3    0    0 -0.77678830810E+02 -0.16457341318E+02 -0.22332759918E+03  0.26800665942E+03  0.12509000000E+03 0.  0.
         25    1    4    4    0    0  0.44901413747E+02  0.66566839468E+01 -0.99742284433E+02  0.16630237461E+03  0.12509000000E+03 0.  0.
         25    1    4    4    0    0  0.32777417063E+02  0.98006573710E+01 -0.11727932244E+02  0.13021315006E+03  0.12509000000E+03 0.  0.
<mgrwt>
<rscale>  2 0.45452802E+03</rscale>
<asrwt>0</asrwt>
<pdfrwt beam="1">  1       21 0.16891498E-01 0.45452802E+03</pdfrwt>
<pdfrwt beam="2">  1       21 0.66126470E-01 0.45452802E+03</pdfrwt>
<totfact> 0.61144880E+04</totfact>
</mgrwt>
</event>
<event>
 7    0  0.4766352E-002  0.4447566E+03  0.7546771E-02  0.1029297E+00
         21   -1    0    0  502  501  0.00000000000E+00  0.00000000000E+00  0.10225067054E+03  0.10225067054E+03  0.00000000000E+00 0. -1.
         21   -1    0    0  501  502 -0.00000000000E+00 -0.00000000000E+00 -0.48363607658E+03  0.48363607658E+03  0.00000000000E+00 0. -1.
      99926    2    1    2    0    0 -0.71054273576E-14  0.44408920985E-15 -0.38138540604E+03  0.58588674712E+03  0.44475662166E+03 0.  0.
      99925    2    3    3    0    0 -0.60841300728E+02 -0.23311909738E+00 -0.35225014189E+03  0.44376676283E+03  0.26295828397E+03 0.  0.
         25    1    4    4    0    0 -0.54756393480E+02  0.16347281406E+02 -0.13659063689E+03  0.19382983883E+03  0.12509000000E+03 0.  0.
         25    1    4    4    0    0 -0.60849072482E+01 -0.16580400503E+02 -0.21565950501E+03  0.24993692400E+03  0.12509000000E+03 0.  0.
         25    1    3    3    0    0  0.60841300728E+02  0.23311909738E+00 -0.29135264147E+02  0.14211998429E+03  0.12509000000E+03 0.  0.
<mgrwt>
<rscale>  2 0.44475662E+03</rscale>
<asrwt>0</asrwt>
<pdfrwt beam="1">  1       21 0.15036863E-01 0.44475662E+03</pdfrwt>
<pdfrwt beam="2">  1       21 0.71122952E-01 0.44475662E+03</pdfrwt>
<totfact> 0.64631579E+04</totfact>
</mgrwt>
</event>
<event>
 7    0  0.4766352E-002  0.4477553E+03  0.7546771E-02  0.1028394E+00
         21   -1    0    0  502  501  0.00000000000E+00  0.00000000000E+00  0.66698217375E+03  0.66698217375E+03  0.00000000000E+00 0.  1.
         21   -1    0    0  501  502 -0.00000000000E+00 -0.00000000000E+00 -0.75146255011E+02  0.75146255011E+02  0.00000000000E+00 0.  1.
      99926    2    1    2    0    0  0.71054273576E-14 -0.14210854715E-13  0.59183591874E+03  0.74212842876E+03  0.44775534621E+03 0.  0.
      99925    2    3    3    0    0 -0.50779697286E+02  0.93466843124E+02  0.35383984832E+03  0.45298440573E+03  0.26206412413E+03 0.  0.
         25    1    3    3    0    0  0.50779697286E+02 -0.93466843124E+02  0.23799607041E+03  0.28914402303E+03  0.12509000000E+03 0.  0.
         25    1    4    4    0    0 -0.74602357142E+01  0.65780588516E+02  0.13415278596E+03  0.19500568972E+03  0.12509000000E+03 0.  0.
         25    1    4    4    0    0 -0.43319461572E+02  0.27686254608E+02  0.21968706236E+03  0.25797871601E+03  0.12509000000E+03 0.  0.
<mgrwt>
<rscale>  2 0.44775535E+03</rscale>
<asrwt>0</asrwt>
<pdfrwt beam="1">  1       21 0.98085611E-01 0.44775535E+03</pdfrwt>
<pdfrwt beam="2">  1       21 0.11050920E-01 0.44775535E+03</pdfrwt>
<totfact> 0.53666240E+04</totfact>
</mgrwt>
</event>
<event>
 7    0  0.4766352E-002  0.4531461E+03  0.7546771E-02  0.1026788E+00
         21   -1    0    0  502  501  0.00000000000E+00  0.00000000000E+00  0.23328076158E+02  0.23328076158E+02  0.00000000000E+00 0.  1.
         21   -1    0    0  501  502 -0.00000000000E+00 -0.00000000000E+00 -0.22005824088E+04  0.22005824088E+04  0.00000000000E+00 0.  1.
      99926    2    1    2    0    0  0.17763568394E-14  0.00000000000E+00 -0.21772543327E+04  0.22239104850E+04  0.45314613107E+03 0.  0.
      99925    2    3    3    0    0  0.11124286160E+02 -0.46682912073E+02 -0.87382778462E+03  0.91361612177E+03  0.26232875702E+03 0.  0.
         25    1    3    3    0    0 -0.11124286160E+02  0.46682912073E+02 -0.13034265481E+04  0.13102943632E+04  0.12509000000E+03 0.  0.
         25    1    4    4    0    0  0.32820481377E+02 -0.39095205378E+02 -0.53222095881E+03  0.54910133508E+03  0.12509000000E+03 0.  0.
         25    1    4    4    0    0 -0.21696195217E+02 -0.75877066952E+01 -0.34160682581E+03  0.36451478669E+03  0.12509000000E+03 0.  0.
<mgrwt>
<rscale>  2 0.45314613E+03</rscale>
<asrwt>0</asrwt>
<pdfrwt beam="1">  1       21 0.34306000E-02 0.45314613E+03</pdfrwt>
<pdfrwt beam="2">  1       21 0.32361501E+00 0.45314613E+03</pdfrwt>
<totfact> 0.10537441E+04</totfact>
</mgrwt>
</event>
<event>
 7    0  0.4766352E-002  0.4583166E+03  0.7546771E-02  0.1025271E+00
         21   -1    0    0  502  501  0.00000000000E+00  0.00000000000E+00  0.53010790218E+03  0.53010790218E+03  0.00000000000E+00 0. -1.
         21   -1    0    0  501  502 -0.00000000000E+00 -0.00000000000E+00 -0.99061936945E+02  0.99061936945E+02  0.00000000000E+00 0. -1.
      99926    2    1    2    0    0  0.00000000000E+00  0.00000000000E+00  0.43104596523E+03  0.62916983913E+03  0.45831655253E+03 0.  0.
      99925    2    3    3    0    0  0.54863348167E+02  0.79122725606E+02  0.18095794476E+03  0.33343022601E+03  0.26298202442E+03 0.  0.
         25    1    4    4    0    0  0.66558828756E+02  0.28298669024E+02  0.95955260204E+02  0.17345262297E+03  0.12509000000E+03 0.  0.
         25    1    3    3    0    0 -0.54863348167E+02 -0.79122725606E+02  0.25008802047E+03  0.29573961311E+03  0.12509000000E+03 0.  0.
         25    1    4    4    0    0 -0.11695480590E+02  0.50824056582E+02  0.85002684556E+02  0.15997760304E+03  0.12509000000E+03 0.  0.
<mgrwt>
<rscale>  2 0.45831655E+03</rscale>
<asrwt>0</asrwt>
<pdfrwt beam="1">  1       21 0.77957043E-01 0.45831655E+03</pdfrwt>
<pdfrwt beam="2">  1       21 0.14567932E-01 0.45831655E+03</pdfrwt>
<totfact> 0.55451591E+04</totfact>
</mgrwt>
</event>
<event>
 7    0  0.4766352E-002  0.4518340E+03  0.7546771E-02  0.1027177E+00
         21   -1    0    0  502  501  0.00000000000E+00  0.00000000000E+00  0.58370743383E+02  0.58370743383E+02  0.00000000000E+00 0. -1.
         21   -1    0    0  501  502 -0.00000000000E+00 -0.00000000000E+00 -0.87438491183E+03  0.87438491183E+03  0.00000000000E+00 0. -1.
      99926    2    1    2    0    0  0.00000000000E+00 -0.26645352591E-14 -0.81601416844E+03  0.93275565521E+03  0.45183402840E+03 0.  0.
      99925    2    3    3    0    0  0.10834802785E+03  0.75042551003E+01 -0.55296798460E+03  0.62189167865E+03  0.26302102389E+03 0.  0.
         25    1    3    3    0    0 -0.10834802785E+03 -0.75042551003E+01 -0.26304618385E+03  0.31086397655E+03  0.12509000000E+03 0.  0.
         25    1    4    4    0    0  0.51025820241E+02 -0.36775766162E+02 -0.27103723532E+03  0.30506520997E+03  0.12509000000E+03 0.  0.
         25    1    4    4    0    0  0.57322207605E+02  0.44280021262E+02 -0.28193074928E+03  0.31682646868E+03  0.12509000000E+03 0.  0.
<mgrwt>
<rscale>  2 0.45183403E+03</rscale>
<asrwt>0</asrwt>
<pdfrwt beam="1">  1       21 0.85839339E-02 0.45183403E+03</pdfrwt>
<pdfrwt beam="2">  1       21 0.12858600E+00 0.45183403E+03</pdfrwt>
<totfact> 0.42899558E+04</totfact>
</mgrwt>
</event>
<event>
 7    0  0.4766352E-002  0.4636475E+03  0.7546771E-02  0.1023729E+00
         21   -1    0    0  502  501  0.00000000000E+00  0.00000000000E+00  0.42569035680E+03  0.42569035680E+03  0.00000000000E+00 0. -1.
         21   -1    0    0  501  502 -0.00000000000E+00 -0.00000000000E+00 -0.12624726823E+03  0.12624726823E+03  0.00000000000E+00 0. -1.
      99926    2    1    2    0    0  0.14210854715E-13  0.00000000000E+00  0.29944308857E+03  0.55193762503E+03  0.46364747236E+03 0.  0.
      99925    2    3    3    0    0 -0.78683485169E+02  0.68884274523E+01  0.77757854240E+02  0.28542234875E+03  0.26302298758E+03 0.  0.
         25    1    4    4    0    0 -0.51263702716E+02  0.13329824532E+02  0.73368868352E+00  0.13584438832E+03  0.12509000000E+03 0.  0.
         25    1    3    3    0    0  0.78683485169E+02 -0.68884274523E+01  0.22168523433E+03  0.26651527628E+03  0.12509000000E+03 0.  0.
         25    1    4    4    0    0 -0.27419782454E+02 -0.64413970800E+01  0.77024165556E+02  0.14957796043E+03  0.12509000000E+03 0.  0.
<mgrwt>
<rscale>  2 0.46364747E+03</rscale>
<asrwt>0</asrwt>
<pdfrwt beam="1">  1       21 0.62601523E-01 0.46364747E+03</pdfrwt>
<pdfrwt beam="2">  1       21 0.18565775E-01 0.46364747E+03</pdfrwt>
<totfact> 0.57689289E+04</totfact>
</mgrwt>
</event>
<event>
 7    0  0.4766352E-002  0.4560266E+03  0.7546771E-02  0.1025940E+00
         21   -1    0    0  502  501  0.00000000000E+00  0.00000000000E+00  0.47572861158E+03  0.47572861158E+03  0.00000000000E+00 0.  1.
         21   -1    0    0  501  502 -0.00000000000E+00 -0.00000000000E+00 -0.10928515050E+03  0.10928515050E+03  0.00000000000E+00 0.  1.
      99926    2    1    2    0    0  0.35527136788E-14 -0.14210854715E-13  0.36644346109E+03  0.58501376208E+03  0.45602663480E+03 0.  0.
      99925    2    3    3    0    0  0.26904184571E+02 -0.76405869055E+02  0.33346920313E+03  0.43238184615E+03  0.26304117447E+03 0.  0.
         25    1    4    4    0    0  0.20969873139E+02 -0.27945203820E+02  0.22487391193E+03  0.25968529871E+03  0.12509000000E+03 0.  0.
         25    1    4    4    0    0  0.59343114314E+01 -0.48460665235E+02  0.10859529120E+03  0.17269654744E+03  0.12509000000E+03 0.  0.
         25    1    3    3    0    0 -0.26904184571E+02  0.76405869055E+02  0.32974257955E+02  0.15263191593E+03  0.12509000000E+03 0.  0.
<mgrwt>
<rscale>  2 0.45602663E+03</rscale>
<asrwt>0</asrwt>
<pdfrwt beam="1">  1       21 0.69960089E-01 0.45602663E+03</pdfrwt>
<pdfrwt beam="2">  1       21 0.16071346E-01 0.45602663E+03</pdfrwt>
<totfact> 0.59129015E+04</totfact>
</mgrwt>
</event>
<event>
 7    0  0.4766352E-002  0.4623479E+03  0.7546771E-02  0.1024102E+00
         21   -1    0    0  502  501  0.00000000000E+00  0.00000000000E+00  0.18686803171E+03  0.18686803171E+03  0.00000000000E+00 0. -1.
         21   -1    0    0  501  502 -0.00000000000E+00 -0.00000000000E+00 -0.28598466723E+03  0.28598466723E+03  0.00000000000E+00 0. -1.
      99926    2    1    2    0    0  0.00000000000E+00  0.00000000000E+00 -0.99116635521E+02  0.47285269894E+03  0.46234788575E+03 0.  0.
      99925    2    3    3    0    0  0.94257547355E+02 -0.72914899926E+02 -0.46924779731E+02  0.29237398614E+03  0.26282987835E+03 0.  0.
         25    1    4    4    0    0  0.48037588640E+02 -0.51661659011E+02 -0.62144848923E+02  0.15648011785E+03  0.12509000000E+03 0.  0.
         25    1    4    4    0    0  0.46219958715E+02 -0.21253240916E+02  0.15220069192E+02  0.13589386829E+03  0.12509000000E+03 0.  0.
         25    1    3    3    0    0 -0.94257547355E+02  0.72914899926E+02 -0.52191855790E+02  0.18047871280E+03  0.12509000000E+03 0.  0.
<mgrwt>
<rscale>  2 0.46234789E+03</rscale>
<asrwt>0</asrwt>
<pdfrwt beam="1">  1       21 0.27480593E-01 0.46234789E+03</pdfrwt>
<pdfrwt beam="2">  1       21 0.42056568E-01 0.46234789E+03</pdfrwt>
<totfact> 0.63443924E+04</totfact>
</mgrwt>
</event>
<event>
 7    0  0.4766352E-002  0.4600088E+03  0.7546771E-02  0.1024779E+00
         21   -1    0    0  502  501  0.00000000000E+00  0.00000000000E+00  0.10998821360E+03  0.10998821360E+03  0.00000000000E+00 0.  1.
         21   -1    0    0  501  502 -0.00000000000E+00 -0.00000000000E+00 -0.48097897573E+03  0.48097897573E+03  0.00000000000E+00 0.  1.
      99926    2    1    2    0    0 -0.71054273576E-14  0.00000000000E+00 -0.37099076213E+03  0.59096718933E+03  0.46000877522E+03 0.  0.
      99925    2    3    3    0    0  0.43247206086E+02  0.10313572923E+03 -0.28017910709E+03  0.40017524959E+03  0.26293078720E+03 0.  0.
         25    1    4    4    0    0  0.33420568794E+02  0.13433805998E+02 -0.14743202176E+03  0.19667514002E+03  0.12509000000E+03 0.  0.
         25    1    4    4    0    0  0.98266372919E+01  0.89701923230E+02 -0.13274708533E+03  0.20350010957E+03  0.12509000000E+03 0.  0.
         25    1    3    3    0    0 -0.43247206086E+02 -0.10313572923E+03 -0.90811655038E+02  0.19079193974E+03  0.12509000000E+03 0.  0.
<mgrwt>
<rscale>  2 0.46000878E+03</rscale>
<asrwt>0</asrwt>
<pdfrwt beam="1">  1       21 0.16174738E-01 0.46000878E+03</pdfrwt>
<pdfrwt beam="2">  1       21 0.70732201E-01 0.46000878E+03</pdfrwt>
<totfact> 0.56949581E+04</totfact>
</mgrwt>
</event>
<event>
 7    0  0.4766352E-002  0.4575150E+03  0.7546771E-02  0.1025504E+00
         21   -1    0    0  502  501  0.00000000000E+00  0.00000000000E+00  0.98995359358E+02  0.98995359358E+02  0.00000000000E+00 0.  1.
         21   -1    0    0  501  502 -0.00000000000E+00 -0.00000000000E+00 -0.52861058869E+03  0.52861058869E+03  0.00000000000E+00 0.  1.
      99926    2    1    2    0    0  0.71054273576E-14 -0.71054273576E-14 -0.42961522933E+03  0.62760594805E+03  0.45751500604E+03 0.  0.
      99925    2    3    3    0    0 -0.57093664056E+02  0.51820746873E+02 -0.38770251058E+03  0.47480130030E+03  0.26301703703E+03 0.  0.
         25    1    3    3    0    0  0.57093664056E+02 -0.51820746873E+02 -0.41912718749E+02  0.15280464775E+03  0.12509000000E+03 0.  0.
         25    1    4    4    0    0 -0.56688907772E+02  0.35737491499E+02 -0.15522534694E+03  0.21031694415E+03  0.12509000000E+03 0.  0.
         25    1    4    4    0    0 -0.40475628471E+00  0.16083255373E+02 -0.23247716365E+03  0.26448435615E+03  0.12509000000E+03 0.  0.
<mgrwt>
<rscale>  2 0.45751501E+03</rscale>
<asrwt>0</asrwt>
<pdfrwt beam="1">  1       21 0.14558141E-01 0.45751501E+03</pdfrwt>
<pdfrwt beam="2">  1       21 0.77736853E-01 0.45751501E+03</pdfrwt>
<totfact> 0.55892362E+04</totfact>
</mgrwt>
</event>
<event>
 7    0  0.4766352E-002  0.4594388E+03  0.7546771E-02  0.1024944E+00
         21   -1    0    0  502  501  0.00000000000E+00  0.00000000000E+00  0.97653020962E+03  0.97653020962E+03  0.00000000000E+00 0.  1.
         21   -1    0    0  501  502 -0.00000000000E+00 -0.00000000000E+00 -0.54039286069E+02  0.54039286069E+02  0.00000000000E+00 0.  1.
      99926    2    1    2    0    0  0.14210854715E-13 -0.14210854715E-13  0.92249092355E+03  0.10305694957E+04  0.45943876786E+03 0.  0.
      99925    2    3    3    0    0  0.81923123714E+02 -0.83692854245E+02  0.55597538712E+03  0.62597458891E+03  0.26271593560E+03 0.  0.
         25    1    4    4    0    0  0.40624034714E+02 -0.67167794860E+02  0.36151279410E+03  0.39051355067E+03  0.12509000000E+03 0.  0.
         25    1    4    4    0    0  0.41299089000E+02 -0.16525059385E+02  0.19446259302E+03  0.23546103823E+03  0.12509000000E+03 0.  0.
         25    1    3    3    0    0 -0.81923123714E+02  0.83692854245E+02  0.36651553643E+03  0.40459490678E+03  0.12509000000E+03 0.  0.
<mgrwt>
<rscale>  2 0.45943877E+03</rscale>
<asrwt>0</asrwt>
<pdfrwt beam="1">  1       21 0.14360737E+00 0.45943877E+03</pdfrwt>
<pdfrwt beam="2">  1       21 0.79469545E-02 0.45943877E+03</pdfrwt>
<totfact> 0.36709835E+04</totfact>
</mgrwt>
</event>
<event>
 7    0  0.4766352E-002  0.4561652E+03  0.7546771E-02  0.1025899E+00
         21   -1    0    0  502  501  0.00000000000E+00  0.00000000000E+00  0.13146313957E+04  0.13146313957E+04  0.00000000000E+00 0. -1.
         21   -1    0    0  501  502 -0.00000000000E+00 -0.00000000000E+00 -0.39571292963E+02  0.39571292963E+02  0.00000000000E+00 0. -1.
      99926    2    1    2    0    0  0.00000000000E+00  0.00000000000E+00  0.12750601027E+04  0.13542026886E+04  0.45616516349E+03 0.  0.
      99925    2    3    3    0    0  0.11043310319E+03  0.91564678846E+01  0.72571767729E+03  0.78000418668E+03  0.26355468678E+03 0.  0.
         25    1    3    3    0    0 -0.11043310319E+03 -0.91564678846E+01  0.54934242540E+03  0.57419850194E+03  0.12509000000E+03 0.  0.
         25    1    4    4    0    0  0.55843786111E+02  0.13105937554E+02  0.47481664372E+03  0.49435680161E+03  0.12509000000E+03 0.  0.
         25    1    4    4    0    0  0.54589317074E+02 -0.39494696692E+01  0.25090103357E+03  0.28564738507E+03  0.12509000000E+03 0.  0.
<mgrwt>
<rscale>  2 0.45616516E+03</rscale>
<asrwt>0</asrwt>
<pdfrwt beam="1">  1       21 0.19332812E+00 0.45616516E+03</pdfrwt>
<pdfrwt beam="2">  1       21 0.58193086E-02 0.45616516E+03</pdfrwt>
<totfact> 0.27330024E+04</totfact>
</mgrwt>
</event>
<event>
 7    0  0.4766352E-002  0.4494396E+03  0.7546771E-02  0.1027889E+00
         21   -1    0    0  502  501  0.00000000000E+00  0.00000000000E+00  0.32752402050E+04  0.32752402050E+04  0.00000000000E+00 0. -1.
         21   -1    0    0  501  502 -0.00000000000E+00 -0.00000000000E+00 -0.15418409909E+02  0.15418409909E+02  0.00000000000E+00 0. -1.
      99926    2    1    2    0    0  0.00000000000E+00 -0.71054273576E-14  0.32598217951E+04  0.32906586150E+04  0.44943963346E+03 0.  0.
      99925    2    3    3    0    0 -0.47076555746E+02  0.52441518548E+02  0.14658538572E+04  0.14909545323E+04  0.26315693324E+03 0.  0.
         25    1    3    3    0    0  0.47076555746E+02 -0.52441518548E+02  0.17939679379E+04  0.17997040827E+04  0.12509000000E+03 0.  0.
         25    1    4    4    0    0 -0.46045228347E+02  0.60359312454E+02  0.84470440085E+03  0.85728434172E+03  0.12509000000E+03 0.  0.
         25    1    4    4    0    0 -0.10313273992E+01 -0.79177939066E+01  0.62114945639E+03  0.63367019053E+03  0.12509000000E+03 0.  0.
<mgrwt>
<rscale>  2 0.44943963E+03</rscale>
<asrwt>0</asrwt>
<pdfrwt beam="1">  1       21 0.48165249E+00 0.44943963E+03</pdfrwt>
<pdfrwt beam="2">  1       21 0.22674155E-02 0.44943963E+03</pdfrwt>
<totfact> 0.20136518E+03</totfact>
</mgrwt>
</event>
<event>
 7    0  0.4766352E-002  0.4485913E+03  0.7546771E-02  0.1028143E+00
         21   -1    0    0  502  501  0.00000000000E+00  0.00000000000E+00  0.13994040136E+03  0.13994040136E+03  0.00000000000E+00 0.  1.
         21   -1    0    0  501  502 -0.00000000000E+00 -0.00000000000E+00 -0.35949978046E+03  0.35949978046E+03  0.00000000000E+00 0.  1.
      99926    2    1    2    0    0  0.00000000000E+00  0.00000000000E+00 -0.21955937909E+03  0.49944018182E+03  0.44859132211E+03 0.  0.
      99925    2    3    3    0    0  0.37360335351E+02  0.98249758775E+02 -0.16213287212E+03  0.32625207149E+03  0.26287741663E+03 0.  0.
         25    1    4    4    0    0  0.47402877779E+02  0.22435996397E+02 -0.65242548403E+02  0.15051413548E+03  0.12509000000E+03 0.  0.
         25    1    4    4    0    0 -0.10042542428E+02  0.75813762378E+02 -0.96890323718E+02  0.17573793601E+03  0.12509000000E+03 0.  0.
         25    1    3    3    0    0 -0.37360335351E+02 -0.98249758775E+02 -0.57426506972E+02  0.17318811033E+03  0.12509000000E+03 0.  0.
<mgrwt>
<rscale>  2 0.44859132E+03</rscale>
<asrwt>0</asrwt>
<pdfrwt beam="1">  1       21 0.20579471E-01 0.44859132E+03</pdfrwt>
<pdfrwt beam="2">  1       21 0.52867614E-01 0.44859132E+03</pdfrwt>
<totfact> 0.68740827E+04</totfact>
</mgrwt>
</event>
<event>
 7    0  0.4766352E-002  0.4563741E+03  0.7546771E-02  0.1025838E+00
         21   -1    0    0  502  501  0.00000000000E+00  0.00000000000E+00  0.36669961196E+02  0.36669961196E+02  0.00000000000E+00 0.  1.
         21   -1    0    0  501  502 -0.00000000000E+00 -0.00000000000E+00 -0.14199451534E+04  0.14199451534E+04  0.00000000000E+00 0.  1.
      99926    2    1    2    0    0  0.00000000000E+00  0.00000000000E+00 -0.13832751922E+04  0.14566151146E+04  0.45637411703E+03 0.  0.
      99925    2    3    3    0    0  0.83637182200E+01 -0.88982334733E+01 -0.50605200647E+03  0.57043389384E+03  0.26297730632E+03 0.  0.
         25    1    4    4    0    0 -0.87971755830E+01 -0.13084881534E+02 -0.33383231144E+03  0.35684748098E+03  0.12509000000E+03 0.  0.
         25    1    4    4    0    0  0.17160893803E+02  0.41866480606E+01 -0.17221969503E+03  0.21358641285E+03  0.12509000000E+03 0.  0.
         25    1    3    3    0    0 -0.83637182200E+01  0.88982334733E+01 -0.87722318570E+03  0.88618122073E+03  0.12509000000E+03 0.  0.
<mgrwt>
<rscale>  2 0.45637412E+03</rscale>
<asrwt>0</asrwt>
<pdfrwt beam="1">  1       21 0.53926407E-02 0.45637412E+03</pdfrwt>
<pdfrwt beam="2">  1       21 0.20881549E+00 0.45637412E+03</pdfrwt>
<totfact> 0.24597854E+04</totfact>
</mgrwt>
</event>
<event>
 7    0  0.4766352E-002  0.4609152E+03  0.7546771E-02  0.1024516E+00
         21   -1    0    0  502  501  0.00000000000E+00  0.00000000000E+00  0.10142013039E+03  0.10142013039E+03  0.00000000000E+00 0. -1.
         21   -1    0    0  501  502 -0.00000000000E+00 -0.00000000000E+00 -0.52367018008E+03  0.52367018008E+03  0.00000000000E+00 0. -1.
      99926    2    1    2    0    0  0.00000000000E+00 -0.71054273576E-14 -0.42225004969E+03  0.62509031047E+03  0.46091516766E+03 0.  0.
      99925    2    3    3    0    0  0.75330739745E+02 -0.58113090045E+02 -0.36037581885E+03  0.45618862271E+03  0.26303132342E+03 0.  0.
         25    1    4    4    0    0  0.27453850007E+02  0.65985871338E+01 -0.13545518357E+03  0.18652846991E+03  0.12509000000E+03 0.  0.
         25    1    4    4    0    0  0.47876889738E+02 -0.64711677179E+02 -0.22492063528E+03  0.26966015280E+03  0.12509000000E+03 0.  0.
         25    1    3    3    0    0 -0.75330739745E+02  0.58113090045E+02 -0.61874230846E+02  0.16890168776E+03  0.12509000000E+03 0.  0.
<mgrwt>
<rscale>  2 0.46091517E+03</rscale>
<asrwt>0</asrwt>
<pdfrwt beam="1">  1       21 0.14914725E-01 0.46091517E+03</pdfrwt>
<pdfrwt beam="2">  1       21 0.77010320E-01 0.46091517E+03</pdfrwt>
<totfact> 0.54566409E+04</totfact>
</mgrwt>
</event>
<event>
 7    0  0.4766352E-002  0.4594707E+03  0.7546771E-02  0.1024935E+00
         21   -1    0    0  502  501  0.00000000000E+00  0.00000000000E+00  0.89858935367E+02  0.89858935367E+02  0.00000000000E+00 0. -1.
         21   -1    0    0  501  502 -0.00000000000E+00 -0.00000000000E+00 -0.58734637704E+03  0.58734637704E+03  0.00000000000E+00 0. -1.
      99926    2    1    2    0    0 -0.14210854715E-13  0.00000000000E+00 -0.49748744167E+03  0.67720531241E+03  0.45947065252E+03 0.  0.
      99925    2    3    3    0    0 -0.70775909266E+02  0.32277077809E+02 -0.18225534957E+03  0.32925442640E+03  0.26294567076E+03 0.  0.
         25    1    4    4    0    0  0.35284893284E+01  0.15613993552E+02 -0.10242035505E+03  0.16246133159E+03  0.12509000000E+03 0.  0.
         25    1    4    4    0    0 -0.74304398595E+02  0.16663084257E+02 -0.79834994521E+02  0.16679309481E+03  0.12509000000E+03 0.  0.
         25    1    3    3    0    0  0.70775909266E+02 -0.32277077809E+02 -0.31523209210E+03  0.34795088601E+03  0.12509000000E+03 0.  0.
<mgrwt>
<rscale>  2 0.45947065E+03</rscale>
<asrwt>0</asrwt>
<pdfrwt beam="1">  1       21 0.13214549E-01 0.45947065E+03</pdfrwt>
<pdfrwt beam="2">  1       21 0.86374467E-01 0.45947065E+03</pdfrwt>
<totfact> 0.52291667E+04</totfact>
</mgrwt>
</event>
<event>
 7    0  0.4766352E-002  0.4554347E+03  0.7546771E-02  0.1026114E+00
         21   -1    0    0  502  501  0.00000000000E+00  0.00000000000E+00  0.15055290093E+03  0.15055290093E+03  0.00000000000E+00 0.  1.
         21   -1    0    0  501  502 -0.00000000000E+00 -0.00000000000E+00 -0.34443169542E+03  0.34443169542E+03  0.00000000000E+00 0.  1.
      99926    2    1    2    0    0  0.17763568394E-14  0.00000000000E+00 -0.19387879449E+03  0.49498459635E+03  0.45543469748E+03 0.  0.
      99925    2    3    3    0    0  0.11921700419E+02  0.72686343654E+02 -0.21572391324E+03  0.34818490695E+03  0.26319287831E+03 0.  0.
         25    1    3    3    0    0 -0.11921700419E+02 -0.72686343654E+02  0.21845118744E+02  0.14679968940E+03  0.12509000000E+03 0.  0.
         25    1    4    4    0    0  0.33106573874E+02  0.57162362514E+02 -0.14290709505E+03  0.20108089625E+03  0.12509000000E+03 0.  0.
         25    1    4    4    0    0 -0.21184873455E+02  0.15523981139E+02 -0.72816818190E+02  0.14710401070E+03  0.12509000000E+03 0.  0.
<mgrwt>
<rscale>  2 0.45543470E+03</rscale>
<asrwt>0</asrwt>
<pdfrwt beam="1">  1       21 0.22140133E-01 0.45543470E+03</pdfrwt>
<pdfrwt beam="2">  1       21 0.50651719E-01 0.45543470E+03</pdfrwt>
<totfact> 0.65398486E+04</totfact>
</mgrwt>
</event>
<event>
 7    0  0.4766352E-002  0.4731163E+03  0.7546771E-02  0.1021044E+00
         21   -1    0    0  502  501  0.00000000000E+00  0.00000000000E+00  0.12454797518E+03  0.12454797518E+03  0.00000000000E+00 0.  1.
         21   -1    0    0  501  502 -0.00000000000E+00 -0.00000000000E+00 -0.44930292612E+03  0.44930292612E+03  0.00000000000E+00 0.  1.
      99926    2    1    2    0    0  0.00000000000E+00  0.00000000000E+00 -0.32475495094E+03  0.57385090130E+03  0.47311634801E+03 0.  0.
      99925    2    3    3    0    0  0.55089643371E+02 -0.87854440388E+02 -0.10684236115E+03  0.30202986386E+03  0.26278028279E+03 0.  0.
         25    1    4    4    0    0  0.53323685416E+02 -0.12731944382E+02 -0.51785285460E+02  0.14606416989E+03  0.12509000000E+03 0.  0.
         25    1    3    3    0    0 -0.55089643371E+02  0.87854440388E+02 -0.21791258979E+03  0.27182103743E+03  0.12509000000E+03 0.  0.
         25    1    4    4    0    0  0.17659579547E+01 -0.75122496006E+02 -0.55057075690E+02  0.15596569398E+03  0.12509000000E+03 0.  0.
<mgrwt>
<rscale>  2 0.47311635E+03</rscale>
<asrwt>0</asrwt>
<pdfrwt beam="1">  1       21 0.18315879E-01 0.47311635E+03</pdfrwt>
<pdfrwt beam="2">  1       21 0.66073958E-01 0.47311635E+03</pdfrwt>
<totfact> 0.52397873E+04</totfact>
</mgrwt>
</event>
<event>
 7    0  0.4766352E-002  0.4553890E+03  0.7546771E-02  0.1026127E+00
         21   -1    0    0  502  501  0.00000000000E+00  0.00000000000E+00  0.62033087665E+02  0.62033087665E+02  0.00000000000E+00 0. -1.
         21   -1    0    0  501  502 -0.00000000000E+00 -0.00000000000E+00 -0.83576036136E+03  0.83576036136E+03  0.00000000000E+00 0. -1.
      99926    2    1    2    0    0  0.71054273576E-14  0.00000000000E+00 -0.77372727369E+03  0.89779344903E+03  0.45538904582E+03 0.  0.
      99925    2    3    3    0    0  0.45240937086E+02 -0.86790968619E+02 -0.37441017044E+03  0.46804809224E+03  0.26326151694E+03 0.  0.
         25    1    4    4    0    0 -0.23478108520E+01 -0.75393038932E+02 -0.18145577756E+03  0.23294490732E+03  0.12509000000E+03 0.  0.
         25    1    3    3    0    0 -0.45240937086E+02  0.86790968619E+02 -0.39931710326E+03  0.42974535678E+03  0.12509000000E+03 0.  0.
         25    1    4    4    0    0  0.47588747938E+02 -0.11397929687E+02 -0.19295439287E+03  0.23510318492E+03  0.12509000000E+03 0.  0.
<mgrwt>
<rscale>  2 0.45538905E+03</rscale>
<asrwt>0</asrwt>
<pdfrwt beam="1">  1       21 0.91225130E-02 0.45538905E+03</pdfrwt>
<pdfrwt beam="2">  1       21 0.12290593E+00 0.45538905E+03</pdfrwt>
<totfact> 0.43197490E+04</totfact>
</mgrwt>
</event>
<event>
 7    0  0.4766352E-002  0.4553116E+03  0.7546771E-02  0.1026150E+00
         21   -1    0    0  502  501  0.00000000000E+00  0.00000000000E+00  0.72656084392E+03  0.72656084392E+03  0.00000000000E+00 0.  1.
         21   -1    0    0  501  502 -0.00000000000E+00 -0.00000000000E+00 -0.71332173718E+02  0.71332173718E+02  0.00000000000E+00 0.  1.
      99926    2    1    2    0    0 -0.35527136788E-14  0.00000000000E+00  0.65522867020E+03  0.79789301764E+03  0.45531160466E+03 0.  0.
      99925    2    3    3    0    0  0.22251399998E+02  0.70087910843E+02  0.56390537861E+03  0.62644363229E+03  0.26274494927E+03 0.  0.
         25    1    3    3    0    0 -0.22251399998E+02 -0.70087910843E+02  0.91323291596E+02  0.17144938535E+03  0.12509000000E+03 0.  0.
         25    1    4    4    0    0 -0.20309229659E+02  0.39172330835E+02  0.33547302164E+03  0.36074449775E+03  0.12509000000E+03 0.  0.
         25    1    4    4    0    0  0.42560629657E+02  0.30915580008E+02  0.22843235697E+03  0.26569913454E+03  0.12509000000E+03 0.  0.
<mgrwt>
<rscale>  2 0.45531160E+03</rscale>
<asrwt>0</asrwt>
<pdfrwt beam="1">  1       21 0.10684718E+00 0.45531160E+03</pdfrwt>
<pdfrwt beam="2">  1       21 0.10490026E-01 0.45531160E+03</pdfrwt>
<totfact> 0.47750015E+04</totfact>
</mgrwt>
</event>
<event>
 7    0  0.4766352E-002  0.4569668E+03  0.7546771E-02  0.1025665E+00
         21   -1    0    0  502  501  0.00000000000E+00  0.00000000000E+00  0.13171731646E+03  0.13171731646E+03  0.00000000000E+00 0. -1.
         21   -1    0    0  501  502 -0.00000000000E+00 -0.00000000000E+00 -0.39633869436E+03  0.39633869436E+03  0.00000000000E+00 0. -1.
      99926    2    1    2    0    0  0.00000000000E+00  0.00000000000E+00 -0.26462137790E+03  0.52805601082E+03  0.45696682256E+03 0.  0.
      99925    2    3    3    0    0 -0.68351288964E+02  0.49422129859E+02 -0.75876276072E+02  0.28642267871E+03  0.26299485924E+03 0.  0.
         25    1    4    4    0    0 -0.42690212655E+02  0.27290417080E+02  0.24672548290E+01  0.13498450492E+03  0.12509000000E+03 0.  0.
         25    1    3    3    0    0  0.68351288964E+02 -0.49422129859E+02 -0.18874510183E+03  0.24163333211E+03  0.12509000000E+03 0.  0.
         25    1    4    4    0    0 -0.25661076308E+02  0.22131712779E+02 -0.78343530901E+02  0.15143817379E+03  0.12509000000E+03 0.  0.
<mgrwt>
<rscale>  2 0.45696682E+03</rscale>
<asrwt>0</asrwt>
<pdfrwt beam="1">  1       21 0.19370194E-01 0.45696682E+03</pdfrwt>
<pdfrwt beam="2">  1       21 0.58285101E-01 0.45696682E+03</pdfrwt>
<totfact> 0.62360407E+04</totfact>
</mgrwt>
</event>
<event>
 7    0  0.4766352E-002  0.4527440E+03  0.7546771E-02  0.1026907E+00
         21   -1    0    0  502  501  0.00000000000E+00  0.00000000000E+00  0.19245025759E+03  0.19245025759E+03  0.00000000000E+00 0.  1.
         21   -1    0    0  501  502 -0.00000000000E+00 -0.00000000000E+00 -0.26627290646E+03  0.26627290646E+03  0.00000000000E+00 0.  1.
      99926    2    1    2    0    0 -0.88817841970E-15  0.00000000000E+00 -0.73822648870E+02  0.45872316406E+03  0.45274403117E+03 0.  0.
      99925    2    3    3    0    0 -0.30047544858E+01 -0.65761192203E+02  0.44234018670E+02  0.27455354713E+03  0.26284869960E+03 0.  0.
         25    1    4    4    0    0  0.26640902907E+02 -0.15569768034E+02  0.45218502540E+02  0.13654441203E+03  0.12509000000E+03 0.  0.
         25    1    4    4    0    0 -0.29645657392E+02 -0.50191424168E+02 -0.98448387095E+00  0.13800913510E+03  0.12509000000E+03 0.  0.
         25    1    3    3    0    0  0.30047544858E+01  0.65761192203E+02 -0.11805666754E+03  0.18416961693E+03  0.12509000000E+03 0.  0.
<mgrwt>
<rscale>  2 0.45274403E+03</rscale>
<asrwt>0</asrwt>
<pdfrwt beam="1">  1       21 0.28301509E-01 0.45274403E+03</pdfrwt>
<pdfrwt beam="2">  1       21 0.39157780E-01 0.45274403E+03</pdfrwt>
<totfact> 0.69515879E+04</totfact>
</mgrwt>
</event>
<event>
 7    0  0.4766352E-002  0.4211085E+03  0.7546771E-02  0.1036706E+00
         21   -1    0    0  502  501  0.00000000000E+00  0.00000000000E+00  0.38561170691E+03  0.38561170691E+03  0.00000000000E+00 0.  1.
         21   -1    0    0  501  502 -0.00000000000E+00 -0.00000000000E+00 -0.11496821337E+03  0.11496821337E+03  0.00000000000E+00 0.  1.
      99926    2    1    2    0    0  0.14210854715E-13  0.35527136788E-14  0.27064349354E+03  0.50057992028E+03  0.42110848483E+03 0.  0.
      99925    2    3    3    0    0 -0.74400478930E+02  0.98793439501E+01  0.19865815306E+03  0.33790715044E+03  0.26283673229E+03 0.  0.
         25    1    3    3    0    0  0.74400478930E+02 -0.98793439501E+01  0.71985340476E+02  0.16267276983E+03  0.12509000000E+03 0.  0.
         25    1    4    4    0    0 -0.23577906062E+02  0.38381385225E+02  0.75205923160E+02  0.15274975406E+03  0.12509000000E+03 0.  0.
         25    1    4    4    0    0 -0.50822572868E+02 -0.28502041275E+02  0.12345222990E+03  0.18515739639E+03  0.12509000000E+03 0.  0.
<mgrwt>
<rscale>  2 0.42110848E+03</rscale>
<asrwt>0</asrwt>
<pdfrwt beam="1">  1       21 0.56707604E-01 0.42110848E+03</pdfrwt>
<pdfrwt beam="2">  1       21 0.16907090E-01 0.42110848E+03</pdfrwt>
<totfact> 0.86159466E+04</totfact>
</mgrwt>
</event>
<event>
 7    0  0.4766352E-002  0.5073025E+03  0.7546771E-02  0.1011890E+00
         21   -1    0    0  502  501  0.00000000000E+00  0.00000000000E+00  0.22050568127E+04  0.22050568127E+04  0.00000000000E+00 0.  1.
         21   -1    0    0  501  502 -0.00000000000E+00 -0.00000000000E+00 -0.29177911678E+02  0.29177911678E+02  0.00000000000E+00 0.  1.
      99926    2    1    2    0    0 -0.14210854715E-13  0.00000000000E+00  0.21758789010E+04  0.22342347244E+04  0.50730248541E+03 0.  0.
      99925    2    3    3    0    0  0.11805234424E+03 -0.10386245461E+03  0.13355479142E+04  0.13702165296E+04  0.26283329567E+03 0.  0.
         25    1    3    3    0    0 -0.11805234424E+03  0.10386245461E+03  0.84033098681E+03  0.86401819480E+03  0.12509000000E+03 0.  0.
         25    1    4    4    0    0  0.77817757435E+02 -0.93343601192E+02  0.77312180335E+03  0.79254871281E+03  0.12509000000E+03 0.  0.
         25    1    4    4    0    0  0.40234586801E+02 -0.10518853414E+02  0.56242611086E+03  0.57766781677E+03  0.12509000000E+03 0.  0.
<mgrwt>
<rscale>  2 0.50730249E+03</rscale>
<asrwt>0</asrwt>
<pdfrwt beam="1">  1       21 0.32427295E+00 0.50730249E+03</pdfrwt>
<pdfrwt beam="2">  1       21 0.42908709E-02 0.50730249E+03</pdfrwt>
<totfact> 0.69641489E+03</totfact>
</mgrwt>
</event>
<event>
 7    0  0.4766352E-002  0.4538844E+03  0.7546771E-02  0.1026570E+00
         21   -1    0    0  502  501  0.00000000000E+00  0.00000000000E+00  0.13568492128E+03  0.13568492128E+03  0.00000000000E+00 0. -1.
         21   -1    0    0  501  502 -0.00000000000E+00 -0.00000000000E+00 -0.37957616709E+03  0.37957616709E+03  0.00000000000E+00 0. -1.
      99926    2    1    2    0    0  0.00000000000E+00  0.00000000000E+00 -0.24389124581E+03  0.51526108837E+03  0.45388440093E+03 0.  0.
      99925    2    3    3    0    0  0.85913315310E+02  0.33067188916E+02 -0.22618078182E+03  0.35894184655E+03  0.26307216958E+03 0.  0.
         25    1    4    4    0    0  0.60337272631E+02  0.54503090693E+02 -0.12467458838E+03  0.19442848159E+03  0.12509000000E+03 0.  0.
         25    1    4    4    0    0  0.25576042678E+02 -0.21435901777E+02 -0.10150619344E+03  0.16451336496E+03  0.12509000000E+03 0.  0.
         25    1    3    3    0    0 -0.85913315310E+02 -0.33067188916E+02 -0.17710463993E+02  0.15631924183E+03  0.12509000000E+03 0.  0.
<mgrwt>
<rscale>  2 0.45388440E+03</rscale>
<asrwt>0</asrwt>
<pdfrwt beam="1">  1       21 0.19953665E-01 0.45388440E+03</pdfrwt>
<pdfrwt beam="2">  1       21 0.55820024E-01 0.45388440E+03</pdfrwt>
<totfact> 0.64782855E+04</totfact>
</mgrwt>
</event>
<event>
 7    0  0.4766352E-002  0.4582312E+03  0.7546771E-02  0.1025295E+00
         21   -1    0    0  502  501  0.00000000000E+00  0.00000000000E+00  0.11688317266E+03  0.11688317266E+03  0.00000000000E+00 0. -1.
         21   -1    0    0  501  502 -0.00000000000E+00 -0.00000000000E+00 -0.44911475632E+03  0.44911475632E+03  0.00000000000E+00 0. -1.
      99926    2    1    2    0    0  0.17763568394E-14  0.14210854715E-13 -0.33223158366E+03  0.56599792897E+03  0.45823119756E+03 0.  0.
      99925    2    3    3    0    0  0.73072789803E+01  0.79058777396E+02 -0.10356976982E+03  0.29353248195E+03  0.26292762147E+03 0.  0.
         25    1    4    4    0    0  0.27728718785E+02  0.63329839574E+02 -0.29653614084E+02  0.14596710367E+03  0.12509000000E+03 0.  0.
         25    1    4    4    0    0 -0.20421439804E+02  0.15728937822E+02 -0.73916155734E+02  0.14756537828E+03  0.12509000000E+03 0.  0.
         25    1    3    3    0    0 -0.73072789803E+01 -0.79058777396E+02 -0.22866181385E+03  0.27246544702E+03  0.12509000000E+03 0.  0.
<mgrwt>
<rscale>  2 0.45823120E+03</rscale>
<asrwt>0</asrwt>
<pdfrwt beam="1">  1       21 0.17188702E-01 0.45823120E+03</pdfrwt>
<pdfrwt beam="2">  1       21 0.66046289E-01 0.45823120E+03</pdfrwt>
<totfact> 0.59291801E+04</totfact>
</mgrwt>
</event>
<event>
 7    0  0.4766352E-002  0.4504556E+03  0.7546771E-02  0.1027586E+00
         21   -1    0    0  502  501  0.00000000000E+00  0.00000000000E+00  0.77327029095E+02  0.77327029095E+02  0.00000000000E+00 0. -1.
         21   -1    0    0  501  502 -0.00000000000E+00 -0.00000000000E+00 -0.65601339777E+03  0.65601339777E+03  0.00000000000E+00 0. -1.
      99926    2    1    2    0    0  0.00000000000E+00  0.00000000000E+00 -0.57868636868E+03  0.73334042687E+03  0.45045562310E+03 0.  0.
      99925    2    3    3    0    0  0.82095075103E+02 -0.48310454845E+02 -0.45154108940E+03  0.53113525496E+03  0.26294828815E+03 0.  0.
         25    1    4    4    0    0  0.13374926876E+02 -0.56739622695E+01 -0.15876074104E+03  0.20264146543E+03  0.12509000000E+03 0.  0.
         25    1    4    4    0    0  0.68720148226E+02 -0.42636492576E+02 -0.29278034836E+03  0.32849378953E+03  0.12509000000E+03 0.  0.
         25    1    3    3    0    0 -0.82095075103E+02  0.48310454845E+02 -0.12714527927E+03  0.20220517190E+03  0.12509000000E+03 0.  0.
<mgrwt>
<rscale>  2 0.45045562E+03</rscale>
<asrwt>0</asrwt>
<pdfrwt beam="1">  1       21 0.11371622E-01 0.45045562E+03</pdfrwt>
<pdfrwt beam="2">  1       21 0.96472559E-01 0.45045562E+03</pdfrwt>
<totfact> 0.52998390E+04</totfact>
</mgrwt>
</event>
<event>
 7    0  0.4766352E-002  0.4624471E+03  0.7546771E-02  0.1024074E+00
         21   -1    0    0  502  501  0.00000000000E+00  0.00000000000E+00  0.34228554150E+03  0.34228554150E+03  0.00000000000E+00 0.  1.
         21   -1    0    0  501  502 -0.00000000000E+00 -0.00000000000E+00 -0.15619801002E+03  0.15619801002E+03  0.00000000000E+00 0.  1.
      99926    2    1    2    0    0  0.00000000000E+00  0.00000000000E+00  0.18608753148E+03  0.49848355151E+03  0.46244705833E+03 0.  0.
      99925    2    3    3    0    0 -0.63237218200E+02 -0.55809713718E+02  0.20853478131E+03  0.34595467872E+03  0.26283876199E+03 0.  0.
         25    1    3    3    0    0  0.63237218200E+02  0.55809713718E+02 -0.22447249826E+02  0.15252887279E+03  0.12509000000E+03 0.  0.
         25    1    4    4    0    0 -0.27790778193E+02 -0.67919770043E+02  0.11940284375E+03  0.18785624747E+03  0.12509000000E+03 0.  0.
         25    1    4    4    0    0 -0.35446440007E+02  0.12110056325E+02  0.89131937552E+02  0.15809843125E+03  0.12509000000E+03 0.  0.
<mgrwt>
<rscale>  2 0.46244706E+03</rscale>
<asrwt>0</asrwt>
<pdfrwt beam="1">  1       21 0.50336109E-01 0.46244706E+03</pdfrwt>
<pdfrwt beam="2">  1       21 0.22970295E-01 0.46244706E+03</pdfrwt>
<totfact> 0.61651172E+04</totfact>
</mgrwt>
</event>
<event>
 7    0  0.4766352E-002  0.4637821E+03  0.7546771E-02  0.1023690E+00
         21   -1    0    0  502  501  0.00000000000E+00  0.00000000000E+00  0.12006703191E+03  0.12006703191E+03  0.00000000000E+00 0. -1.
         21   -1    0    0  501  502 -0.00000000000E+00 -0.00000000000E+00 -0.44786205485E+03  0.44786205485E+03  0.00000000000E+00 0. -1.
      99926    2    1    2    0    0  0.00000000000E+00  0.17763568394E-14 -0.32779502294E+03  0.56792908676E+03  0.46378213691E+03 0.  0.
      99925    2    3    3    0    0 -0.58566536983E+02 -0.12792071829E+02 -0.75661285675E+02  0.28015729189E+03  0.26300152412E+03 0.  0.
         25    1    4    4    0    0 -0.70442348814E+02 -0.12272005204E+02 -0.41581652024E+02  0.14996422408E+03  0.12509000000E+03 0.  0.
         25    1    3    3    0    0  0.58566536983E+02  0.12792071829E+02 -0.25213373726E+03  0.28777179487E+03  0.12509000000E+03 0.  0.
         25    1    4    4    0    0  0.11875811831E+02 -0.52006662544E+00 -0.34079633652E+02  0.13019306781E+03  0.12509000000E+03 0.  0.
<mgrwt>
<rscale>  2 0.46378214E+03</rscale>
<asrwt>0</asrwt>
<pdfrwt beam="1">  1       21 0.17656916E-01 0.46378214E+03</pdfrwt>
<pdfrwt beam="2">  1       21 0.65862068E-01 0.46378214E+03</pdfrwt>
<totfact> 0.56658229E+04</totfact>
</mgrwt>
</event>
<event>
 7    0  0.4766352E-002  0.4369792E+03  0.7546771E-02  0.1031678E+00
         21   -1    0    0  502  501  0.00000000000E+00  0.00000000000E+00  0.25158802962E+03  0.25158802962E+03  0.00000000000E+00 0. -1.
         21   -1    0    0  501  502 -0.00000000000E+00 -0.00000000000E+00 -0.18974551765E+03  0.18974551765E+03  0.00000000000E+00 0. -1.
      99926    2    1    2    0    0  0.35527136788E-14  0.00000000000E+00  0.61842511966E+02  0.44133354727E+03  0.43697917989E+03 0.  0.
      99925    2    3    3    0    0 -0.15005934271E+02 -0.62360724473E+02 -0.31598721874E+02  0.27253541250E+03  0.26298865721E+03 0.  0.
         25    1    4    4    0    0 -0.37146198047E+02 -0.32447606429E+01 -0.17922138915E+02  0.13175386015E+03  0.12509000000E+03 0.  0.
         25    1    4    4    0    0  0.22140263776E+02 -0.59115963830E+02 -0.13676582960E+02  0.14078155235E+03  0.12509000000E+03 0.  0.
         25    1    3    3    0    0  0.15005934271E+02  0.62360724473E+02  0.93441233840E+02  0.16879813477E+03  0.12509000000E+03 0.  0.
<mgrwt>
<rscale>  2 0.43697918E+03</rscale>
<asrwt>0</asrwt>
<pdfrwt beam="1">  1       21 0.36998240E-01 0.43697918E+03</pdfrwt>
<pdfrwt beam="2">  1       21 0.27903752E-01 0.43697918E+03</pdfrwt>
<totfact> 0.80528210E+04</totfact>
</mgrwt>
</event>
<event>
 7    0  0.4766352E-002  0.4505347E+03  0.7546771E-02  0.1027563E+00
         21   -1    0    0  502  501  0.00000000000E+00  0.00000000000E+00  0.96918943363E+02  0.96918943363E+02  0.00000000000E+00 0. -1.
         21   -1    0    0  501  502 -0.00000000000E+00 -0.00000000000E+00 -0.52358575109E+03  0.52358575109E+03  0.00000000000E+00 0. -1.
      99926    2    1    2    0    0  0.71054273576E-14 -0.14210854715E-13 -0.42666680773E+03  0.62050469445E+03  0.45053469458E+03 0.  0.
      99925    2    3    3    0    0  0.41580725934E+02 -0.98600365970E+02 -0.29411192901E+03  0.40915358159E+03  0.26354096000E+03 0.  0.
         25    1    4    4    0    0 -0.16603267575E+02 -0.64604520668E+02 -0.13374716000E+03  0.19489798227E+03  0.12509000000E+03 0.  0.
         25    1    3    3    0    0 -0.41580725934E+02  0.98600365970E+02 -0.13255487872E+03  0.21135111287E+03  0.12509000000E+03 0.  0.
         25    1    4    4    0    0  0.58183993509E+02 -0.33995845302E+02 -0.16036476901E+03  0.21425559932E+03  0.12509000000E+03 0.  0.
<mgrwt>
<rscale>  2 0.45053469E+03</rscale>
<asrwt>0</asrwt>
<pdfrwt beam="1">  1       21 0.14252786E-01 0.45053469E+03</pdfrwt>
<pdfrwt beam="2">  1       21 0.76997906E-01 0.45053469E+03</pdfrwt>
<totfact> 0.59504027E+04</totfact>
</mgrwt>
</event>
<event>
 7    0  0.4766352E-002  0.4552669E+03  0.7546771E-02  0.1026163E+00
         21   -1    0    0  502  501  0.00000000000E+00  0.00000000000E+00  0.78925468261E+02  0.78925468261E+02  0.00000000000E+00 0. -1.
         21   -1    0    0  501  502 -0.00000000000E+00 -0.00000000000E+00 -0.65653076616E+03  0.65653076616E+03  0.00000000000E+00 0. -1.
      99926    2    1    2    0    0  0.00000000000E+00 -0.14210854715E-13 -0.57760529790E+03  0.73545623442E+03  0.45526694651E+03 0.  0.
      99925    2    3    3    0    0  0.42715166689E+02 -0.10423259473E+03 -0.34584804275E+03  0.44901609637E+03  0.26327849677E+03 0.  0.
         25    1    3    3    0    0 -0.42715166689E+02  0.10423259473E+03 -0.23175725515E+03  0.28644013805E+03  0.12509000000E+03 0.  0.
         25    1    4    4    0    0 -0.51887742886E+01 -0.18831062465E+02 -0.13582717653E+03  0.18568269245E+03  0.12509000000E+03 0.  0.
         25    1    4    4    0    0  0.47903940978E+02 -0.85401532264E+02 -0.21002086622E+03  0.26333340392E+03  0.12509000000E+03 0.  0.
<mgrwt>
<rscale>  2 0.45526695E+03</rscale>
<asrwt>0</asrwt>
<pdfrwt beam="1">  1       21 0.11606686E-01 0.45526695E+03</pdfrwt>
<pdfrwt beam="2">  1       21 0.96548643E-01 0.45526695E+03</pdfrwt>
<totfact> 0.50912907E+04</totfact>
</mgrwt>
</event>
<event>
 7    0  0.4766352E-002  0.4508215E+03  0.7546771E-02  0.1027477E+00
         21   -1    0    0  502  501  0.00000000000E+00  0.00000000000E+00  0.78977187802E+02  0.78977187802E+02  0.00000000000E+00 0.  1.
         21   -1    0    0  501  502 -0.00000000000E+00 -0.00000000000E+00 -0.64335043195E+03  0.64335043195E+03  0.00000000000E+00 0.  1.
      99926    2    1    2    0    0  0.00000000000E+00  0.00000000000E+00 -0.56437324415E+03  0.72232761975E+03  0.45082150741E+03 0.  0.
      99925    2    3    3    0    0  0.54233125601E+02 -0.85291875879E+01 -0.20489207271E+03  0.33776527153E+03  0.26285098105E+03 0.  0.
         25    1    3    3    0    0 -0.54233125601E+02  0.85291875879E+01 -0.35948117144E+03  0.38456234822E+03  0.12509000000E+03 0.  0.
         25    1    4    4    0    0  0.57081289111E+02  0.12336656915E+02 -0.13428259981E+03  0.19258710077E+03  0.12509000000E+03 0.  0.
         25    1    4    4    0    0 -0.28481635093E+01 -0.20865844503E+02 -0.70609472900E+02  0.14517817076E+03  0.12509000000E+03 0.  0.
<mgrwt>
<rscale>  2 0.45082151E+03</rscale>
<asrwt>0</asrwt>
<pdfrwt beam="1">  1       21 0.11614292E-01 0.45082151E+03</pdfrwt>
<pdfrwt beam="2">  1       21 0.94610359E-01 0.45082151E+03</pdfrwt>
<totfact> 0.53442254E+04</totfact>
</mgrwt>
</event>
<event>
 7    0  0.4766352E-002  0.4518121E+03  0.7546771E-02  0.1027183E+00
         21   -1    0    0  502  501  0.00000000000E+00  0.00000000000E+00  0.10948473512E+03  0.10948473512E+03  0.00000000000E+00 0.  1.
         21   -1    0    0  501  502 -0.00000000000E+00 -0.00000000000E+00 -0.46612472915E+03  0.46612472915E+03  0.00000000000E+00 0.  1.
      99926    2    1    2    0    0 -0.71054273576E-14  0.00000000000E+00 -0.35663999403E+03  0.57560946426E+03  0.45181209590E+03 0.  0.
      99925    2    3    3    0    0  0.60561380598E+02 -0.49105051635E+02 -0.32412202625E+03  0.42466605353E+03  0.26307257972E+03 0.  0.
         25    1    4    4    0    0  0.19656478925E+02 -0.95835014080E+01 -0.21283649633E+03  0.24784088229E+03  0.12509000000E+03 0.  0.
         25    1    4    4    0    0  0.40904901673E+02 -0.39521550227E+02 -0.11128552992E+03  0.17682517124E+03  0.12509000000E+03 0.  0.
         25    1    3    3    0    0 -0.60561380598E+02  0.49105051635E+02 -0.32517967778E+02  0.15094341074E+03  0.12509000000E+03 0.  0.
<mgrwt>
<rscale>  2 0.45181210E+03</rscale>
<asrwt>0</asrwt>
<pdfrwt beam="1">  1       21 0.16100696E-01 0.45181210E+03</pdfrwt>
<pdfrwt beam="2">  1       21 0.68547754E-01 0.45181210E+03</pdfrwt>
<totfact> 0.61746960E+04</totfact>
</mgrwt>
</event>
<event>
 7    0  0.4766352E-002  0.4516782E+03  0.7546771E-02  0.1027223E+00
         21   -1    0    0  502  501  0.00000000000E+00  0.00000000000E+00  0.39183304130E+03  0.39183304130E+03  0.00000000000E+00 0.  1.
         21   -1    0    0  501  502 -0.00000000000E+00 -0.00000000000E+00 -0.13016589071E+03  0.13016589071E+03  0.00000000000E+00 0.  1.
      99926    2    1    2    0    0  0.00000000000E+00  0.35527136788E-14  0.26166715059E+03  0.52199893201E+03  0.45167819000E+03 0.  0.
      99925    2    3    3    0    0 -0.87085056051E+02  0.31855997347E+02  0.96741295450E+02  0.29518037600E+03  0.26300943819E+03 0.  0.
         25    1    4    4    0    0 -0.39705268610E+01  0.25254841956E+02  0.56075139316E+02  0.13944712788E+03  0.12509000000E+03 0.  0.
         25    1    3    3    0    0  0.87085056051E+02 -0.31855997347E+02  0.16492585514E+03  0.22681855601E+03  0.12509000000E+03 0.  0.
         25    1    4    4    0    0 -0.83114529190E+02  0.66011553906E+01  0.40666156134E+02  0.15573324812E+03  0.12509000000E+03 0.  0.
<mgrwt>
<rscale>  2 0.45167819E+03</rscale>
<asrwt>0</asrwt>
<pdfrwt beam="1">  1       21 0.57622506E-01 0.45167819E+03</pdfrwt>
<pdfrwt beam="2">  1       21 0.19142043E-01 0.45167819E+03</pdfrwt>
<totfact> 0.65458218E+04</totfact>
</mgrwt>
</event>
<event>
 7    0  0.4766352E-002  0.4666808E+03  0.7546771E-02  0.1022861E+00
         21   -1    0    0  502  501  0.00000000000E+00  0.00000000000E+00  0.24956171437E+03  0.24956171437E+03  0.00000000000E+00 0. -1.
         21   -1    0    0  501  502 -0.00000000000E+00 -0.00000000000E+00 -0.21817344454E+03  0.21817344454E+03  0.00000000000E+00 0. -1.
      99926    2    1    2    0    0  0.00000000000E+00  0.14210854715E-13  0.31388269833E+02  0.46773515891E+03  0.46668078533E+03 0.  0.
      99925    2    3    3    0    0 -0.15328851947E+02 -0.10595702673E+03  0.81928766116E+02  0.29550358492E+03  0.26296041673E+03 0.  0.
         25    1    4    4    0    0  0.11560596550E+02 -0.89507553698E+02  0.54699596634E+02  0.16366063526E+03  0.12509000000E+03 0.  0.
         25    1    4    4    0    0 -0.26889448497E+02 -0.16449473029E+02  0.27229169482E+02  0.13184294966E+03  0.12509000000E+03 0.  0.
         25    1    3    3    0    0  0.15328851947E+02  0.10595702673E+03 -0.50540496283E+02  0.17223157399E+03  0.12509000000E+03 0.  0.
<mgrwt>
<rscale>  2 0.46668079E+03</rscale>
<asrwt>0</asrwt>
<pdfrwt beam="1">  1       21 0.36700252E-01 0.46668079E+03</pdfrwt>
<pdfrwt beam="2">  1       21 0.32084330E-01 0.46668079E+03</pdfrwt>
<totfact> 0.61671514E+04</totfact>
</mgrwt>
</event>
<event>
 7    0  0.4766352E-002  0.4445540E+03  0.7546771E-02  0.1029359E+00
         21   -1    0    0  502  501  0.00000000000E+00  0.00000000000E+00  0.68449457243E+03  0.68449457243E+03  0.00000000000E+00 0. -1.
         21   -1    0    0  501  502 -0.00000000000E+00 -0.00000000000E+00 -0.72180362487E+02  0.72180362487E+02  0.00000000000E+00 0. -1.
      99926    2    1    2    0    0 -0.14210854715E-13  0.00000000000E+00  0.61231420994E+03  0.75667493492E+03  0.44455400733E+03 0.  0.
      99925    2    3    3    0    0  0.91475112757E+02 -0.46904857054E+02  0.40305488490E+03  0.49209085549E+03  0.26293042415E+03 0.  0.
         25    1    3    3    0    0 -0.91475112757E+02  0.46904857054E+02  0.20925932504E+03  0.26458407943E+03  0.12509000000E+03 0.  0.
         25    1    4    4    0    0  0.66845831371E+02  0.71151845709E+01  0.17600249965E+03  0.22614901947E+03  0.12509000000E+03 0.  0.
         25    1    4    4    0    0  0.24629281386E+02 -0.54020041625E+02  0.22705238525E+03  0.26594183602E+03  0.12509000000E+03 0.  0.
<mgrwt>
<rscale>  2 0.44455401E+03</rscale>
<asrwt>0</asrwt>
<pdfrwt beam="1">  1       21 0.10066096E+00 0.44455401E+03</pdfrwt>
<pdfrwt beam="2">  1       21 0.10614760E-01 0.44455401E+03</pdfrwt>
<totfact> 0.54245364E+04</totfact>
</mgrwt>
</event>
<event>
 7    0  0.4766352E-002  0.4084656E+03  0.7546771E-02  0.1040887E+00
         21   -1    0    0  502  501  0.00000000000E+00  0.00000000000E+00  0.66393593782E+02  0.66393593782E+02  0.00000000000E+00 0. -1.
         21   -1    0    0  501  502 -0.00000000000E+00 -0.00000000000E+00 -0.62823886381E+03  0.62823886381E+03  0.00000000000E+00 0. -1.
      99926    2    1    2    0    0  0.00000000000E+00 -0.17763568394E-14 -0.56184527003E+03  0.69463245759E+03  0.40846559670E+03 0.  0.
      99925    2    3    3    0    0  0.51416870454E+02 -0.12009786856E+02 -0.41700456836E+03  0.49610219162E+03  0.26350833943E+03 0.  0.
         25    1    4    4    0    0  0.25011610443E+02  0.16324520715E+02 -0.27106175942E+03  0.30002342601E+03  0.12509000000E+03 0.  0.
         25    1    4    4    0    0  0.26405260011E+02 -0.28334307571E+02 -0.14594280894E+03  0.19607876561E+03  0.12509000000E+03 0.  0.
         25    1    3    3    0    0 -0.51416870454E+02  0.12009786856E+02 -0.14484070166E+03  0.19853026597E+03  0.12509000000E+03 0.  0.
<mgrwt>
<rscale>  2 0.40846560E+03</rscale>
<asrwt>0</asrwt>
<pdfrwt beam="1">  1       21 0.97637647E-02 0.40846560E+03</pdfrwt>
<pdfrwt beam="2">  1       21 0.92388059E-01 0.40846560E+03</pdfrwt>
<totfact> 0.78109446E+04</totfact>
</mgrwt>
</event>
<event>
 7    0  0.4766352E-002  0.4553308E+03  0.7546771E-02  0.1026144E+00
         21   -1    0    0  502  501  0.00000000000E+00  0.00000000000E+00  0.68822764107E+03  0.68822764107E+03  0.00000000000E+00 0.  1.
         21   -1    0    0  501  502 -0.00000000000E+00 -0.00000000000E+00 -0.75311600537E+02  0.75311600537E+02  0.00000000000E+00 0.  1.
      99926    2    1    2    0    0  0.00000000000E+00 -0.17763568394E-14  0.61291604053E+03  0.76353924160E+03  0.45533075970E+03 0.  0.
      99925    2    3    3    0    0  0.55149014329E+02  0.67952891100E+01  0.21967528082E+03  0.34715793447E+03  0.26300914951E+03 0.  0.
         25    1    4    4    0    0 -0.92541294404E+00 -0.52247328992E+01  0.14132052968E+03  0.18880454028E+03  0.12509000000E+03 0.  0.
         25    1    3    3    0    0 -0.55149014329E+02 -0.67952891100E+01  0.39324075971E+03  0.41638130713E+03  0.12509000000E+03 0.  0.
         25    1    4    4    0    0  0.56074427273E+02  0.12020022009E+02  0.78354751143E+02  0.15835339418E+03  0.12509000000E+03 0.  0.
<mgrwt>
<rscale>  2 0.45533076E+03</rscale>
<asrwt>0</asrwt>
<pdfrwt beam="1">  1       21 0.10120994E+00 0.45533076E+03</pdfrwt>
<pdfrwt beam="2">  1       21 0.11075236E-01 0.45533076E+03</pdfrwt>
<totfact> 0.49450138E+04</totfact>
</mgrwt>
</event>
<event>
 6    0  0.4766352E-002  0.4644703E+03  0.7546771E-02  0.1023493E+00
         21   -1    0    0  502  501  0.00000000000E+00  0.00000000000E+00  0.81737384346E+02  0.81737384346E+02  0.00000000000E+00 0. -1.
         21   -1    0    0  501  502 -0.00000000000E+00 -0.00000000000E+00 -0.65983467572E+03  0.65983467572E+03  0.00000000000E+00 0. -1.
      99926    2    1    2    0    0  0.00000000000E+00  0.00000000000E+00 -0.57809729138E+03  0.74157206007E+03  0.46447028105E+03 0.  0.
         25    1    3    3    0    0 -0.64859407678E+02  0.38616919067E+02 -0.31753536702E+03  0.34953429962E+03  0.12509000000E+03 0.  0.
         25    1    3    3    0    0 -0.23882470038E+01 -0.21122279271E+02 -0.19956470195E+03  0.23648558681E+03  0.12509000000E+03 0.  0.
         25    1    3    3    0    0  0.67247654682E+02 -0.17494639796E+02 -0.60997222409E+02  0.15555217364E+03  0.12509000000E+03 0.  0.
<mgrwt>
<rscale>  2 0.46447028E+03</rscale>
<asrwt>0</asrwt>
<pdfrwt beam="1">  1       21 0.12020203E-01 0.46447028E+03</pdfrwt>
<pdfrwt beam="2">  1       21 0.97034512E-01 0.46447028E+03</pdfrwt>
<totfact> 0.47097749E+04</totfact>
</mgrwt>
</event>
<event>
 7    0  0.4766352E-002  0.4618536E+03  0.7546771E-02  0.1024245E+00
         21   -1    0    0  502  501  0.00000000000E+00  0.00000000000E+00  0.33339939526E+03  0.33339939526E+03  0.00000000000E+00 0. -1.
         21   -1    0    0  501  502 -0.00000000000E+00 -0.00000000000E+00 -0.15994984133E+03  0.15994984133E+03  0.00000000000E+00 0. -1.
      99926    2    1    2    0    0  0.00000000000E+00 -0.71054273576E-14  0.17344955393E+03  0.49334923658E+03  0.46185357147E+03 0.  0.
      99925    2    3    3    0    0 -0.56773003157E+02 -0.61472547691E+02  0.19954828685E+03  0.34060533338E+03  0.26304073132E+03 0.  0.
         25    1    4    4    0    0 -0.61397232399E+02 -0.57476497758E+02  0.11242869914E+03  0.18804491067E+03  0.12509000000E+03 0.  0.
         25    1    4    4    0    0  0.46242292417E+01 -0.39960499333E+01  0.87119587714E+02  0.15256042270E+03  0.12509000000E+03 0.  0.
         25    1    3    3    0    0  0.56773003157E+02  0.61472547691E+02 -0.26098732924E+02  0.15274390321E+03  0.12509000000E+03 0.  0.
<mgrwt>
<rscale>  2 0.46185357E+03</rscale>
<asrwt>0</asrwt>
<pdfrwt beam="1">  1       21 0.49029323E-01 0.46185357E+03</pdfrwt>
<pdfrwt beam="2">  1       21 0.23522036E-01 0.46185357E+03</pdfrwt>
<totfact> 0.62282215E+04</totfact>
</mgrwt>
</event>
<event>
 7    0  0.4766352E-002  0.4545872E+03  0.7546771E-02  0.1026363E+00
         21   -1    0    0  502  501  0.00000000000E+00  0.00000000000E+00  0.96858872015E+03  0.96858872015E+03  0.00000000000E+00 0.  1.
         21   -1    0    0  501  502 -0.00000000000E+00 -0.00000000000E+00 -0.53337789673E+02  0.53337789673E+02  0.00000000000E+00 0.  1.
      99926    2    1    2    0    0 -0.71054273576E-14  0.00000000000E+00  0.91525093048E+03  0.10219265098E+04  0.45458720367E+03 0.  0.
      99925    2    3    3    0    0 -0.59515736348E+02  0.31581805998E+02  0.37309113167E+03  0.46145859024E+03  0.26307319253E+03 0.  0.
         25    1    4    4    0    0 -0.54059510427E+02  0.43841845558E+02  0.23016648521E+03  0.27105102306E+03  0.12509000000E+03 0.  0.
         25    1    3    3    0    0  0.59515736348E+02 -0.31581805998E+02  0.54215979881E+03  0.56046791959E+03  0.12509000000E+03 0.  0.
         25    1    4    4    0    0 -0.54562259207E+01 -0.12260039560E+02  0.14292464646E+03  0.19040756717E+03  0.12509000000E+03 0.  0.
<mgrwt>
<rscale>  2 0.45458720E+03</rscale>
<asrwt>0</asrwt>
<pdfrwt beam="1">  1       21 0.14243951E+00 0.45458720E+03</pdfrwt>
<pdfrwt beam="2">  1       21 0.78437932E-02 0.45458720E+03</pdfrwt>
<totfact> 0.38448410E+04</totfact>
</mgrwt>
</event>
<event>
 6    0  0.4766352E-002  0.4560463E+03  0.7546771E-02  0.1025934E+00
         21   -1    0    0  502  501  0.00000000000E+00  0.00000000000E+00  0.46655304073E+02  0.46655304073E+02  0.00000000000E+00 0.  1.
         21   -1    0    0  501  502 -0.00000000000E+00 -0.00000000000E+00 -0.11144406349E+04  0.11144406349E+04  0.00000000000E+00 0.  1.
      99926    2    1    2    0    0  0.00000000000E+00  0.00000000000E+00 -0.10677853308E+04  0.11610959390E+04  0.45604634279E+03 0.  0.
         25    1    3    3    0    0  0.57010245863E+02  0.36082470274E+02 -0.60024382657E+03  0.61684055657E+03  0.12509000000E+03 0.  0.
         25    1    3    3    0    0 -0.20016000068E+02 -0.63817728303E+02 -0.19848965895E+03  0.24396515226E+03  0.12509000000E+03 0.  0.
         25    1    3    3    0    0 -0.36994245795E+02  0.27735258029E+02 -0.26905184531E+03  0.30029023015E+03  0.12509000000E+03 0.  0.
<mgrwt>
<rscale>  2 0.45604634E+03</rscale>
<asrwt>0</asrwt>
<pdfrwt beam="1">  1       21 0.68610738E-02 0.45604634E+03</pdfrwt>
<pdfrwt beam="2">  1       21 0.16388834E+00 0.45604634E+03</pdfrwt>
<totfact> 0.33142975E+04</totfact>
</mgrwt>
</event>
<event>
 6    0  0.4766352E-002  0.4609675E+03  0.7546771E-02  0.1024501E+00
         21   -1    0    0  502  501  0.00000000000E+00  0.00000000000E+00  0.98989530527E+02  0.98989530527E+02  0.00000000000E+00 0. -1.
         21   -1    0    0  501  502 -0.00000000000E+00 -0.00000000000E+00 -0.53665036155E+03  0.53665036155E+03  0.00000000000E+00 0. -1.
      99926    2    1    2    0    0  0.00000000000E+00  0.00000000000E+00 -0.43766083103E+03  0.63563989208E+03  0.46096753616E+03 0.  0.
         25    1    3    3    0    0  0.11433778984E+02 -0.54185552003E+02 -0.12785707113E+03  0.18724781464E+03  0.12509000000E+03 0.  0.
         25    1    3    3    0    0 -0.48865045237E+02 -0.30647047081E+02 -0.52043541297E+02  0.14725173151E+03  0.12509000000E+03 0.  0.
         25    1    3    3    0    0  0.37431266253E+02  0.84832599084E+02 -0.25776021860E+03  0.30114034594E+03  0.12509000000E+03 0.  0.
<mgrwt>
<rscale>  2 0.46096754E+03</rscale>
<asrwt>0</asrwt>
<pdfrwt beam="1">  1       21 0.14557284E-01 0.46096754E+03</pdfrwt>
<pdfrwt beam="2">  1       21 0.78919171E-01 0.46096754E+03</pdfrwt>
<totfact> 0.53950046E+04</totfact>
</mgrwt>
</event>
<event>
 7    0  0.4766352E-002  0.4541847E+03  0.7546771E-02  0.1026481E+00
         21   -1    0    0  502  501  0.00000000000E+00  0.00000000000E+00  0.15282448953E+03  0.15282448953E+03  0.00000000000E+00 0.  1.
         21   -1    0    0  501  502 -0.00000000000E+00 -0.00000000000E+00 -0.33745206933E+03  0.33745206933E+03  0.00000000000E+00 0.  1.
      99926    2    1    2    0    0  0.71054273576E-14 -0.14210854715E-13 -0.18462757980E+03  0.49027655885E+03  0.45418472116E+03 0.  0.
      99925    2    3    3    0    0 -0.44963487594E+02  0.10008387065E+03 -0.14204622088E+03  0.31852331548E+03  0.26313775339E+03 0.  0.
         25    1    3    3    0    0  0.44963487594E+02 -0.10008387065E+03 -0.42581358919E+02  0.17175324337E+03  0.12509000000E+03 0.  0.
         25    1    4    4    0    0 -0.16544986136E+02  0.67004270700E+01 -0.66508762913E+02  0.14279200234E+03  0.12509000000E+03 0.  0.
         25    1    4    4    0    0 -0.28418501457E+02  0.93383443585E+02 -0.75537457969E+02  0.17573131314E+03  0.12509000000E+03 0.  0.
<mgrwt>
<rscale>  2 0.45418472E+03</rscale>
<asrwt>0</asrwt>
<pdfrwt beam="1">  1       21 0.22474190E-01 0.45418472E+03</pdfrwt>
<pdfrwt beam="2">  1       21 0.49625304E-01 0.45418472E+03</pdfrwt>
<totfact> 0.66387946E+04</totfact>
</mgrwt>
</event>
<event>
 7    0  0.4766352E-002  0.4557133E+03  0.7546771E-02  0.1026032E+00
         21   -1    0    0  502  501  0.00000000000E+00  0.00000000000E+00  0.28449695522E+03  0.28449695522E+03  0.00000000000E+00 0. -1.
         21   -1    0    0  501  502 -0.00000000000E+00 -0.00000000000E+00 -0.18249284376E+03  0.18249284376E+03  0.00000000000E+00 0. -1.
      99926    2    1    2    0    0  0.00000000000E+00 -0.35527136788E-14  0.10200411145E+03  0.46698979898E+03  0.45571332392E+03 0.  0.
      99925    2    3    3    0    0  0.29525944485E+02  0.16556213591E+02  0.17565222957E+03  0.31793463131E+03  0.26283613608E+03 0.  0.
         25    1    3    3    0    0 -0.29525944485E+02 -0.16556213591E+02 -0.73648118118E+02  0.14905516767E+03  0.12509000000E+03 0.  0.
         25    1    4    4    0    0  0.68868800386E+01  0.36028209938E+02  0.12215317840E+03  0.17864592948E+03  0.12509000000E+03 0.  0.
         25    1    4    4    0    0  0.22639064447E+02 -0.19471996348E+02  0.53499051172E+02  0.13928870183E+03  0.12509000000E+03 0.  0.
<mgrwt>
<rscale>  2 0.45571332E+03</rscale>
<asrwt>0</asrwt>
<pdfrwt beam="1">  1       21 0.41837788E-01 0.45571332E+03</pdfrwt>
<pdfrwt beam="2">  1       21 0.26837183E-01 0.45571332E+03</pdfrwt>
<totfact> 0.67279146E+04</totfact>
</mgrwt>
</event>
<event>
 7    0  0.4766352E-002  0.4543789E+03  0.7546771E-02  0.1026424E+00
         21   -1    0    0  502  501  0.00000000000E+00  0.00000000000E+00  0.23156112708E+03  0.23156112708E+03  0.00000000000E+00 0.  1.
         21   -1    0    0  501  502 -0.00000000000E+00 -0.00000000000E+00 -0.22290031130E+03  0.22290031130E+03  0.00000000000E+00 0.  1.
      99926    2    1    2    0    0 -0.14210854715E-13  0.00000000000E+00  0.86608157764E+01  0.45446143838E+03  0.45437890493E+03 0.  0.
      99925    2    3    3    0    0 -0.11067160762E+03  0.19691821724E+02 -0.38771097803E+00  0.28604125992E+03  0.26302752609E+03 0.  0.
         25    1    3    3    0    0  0.11067160762E+03 -0.19691821724E+02  0.90485267545E+01  0.16842017846E+03  0.12509000000E+03 0.  0.
         25    1    4    4    0    0 -0.28749716753E+02  0.42690851951E+00 -0.31362296700E+02  0.13212808263E+03  0.12509000000E+03 0.  0.
         25    1    4    4    0    0 -0.81921890871E+02  0.19264913205E+02  0.30974585722E+02  0.15391317730E+03  0.12509000000E+03 0.  0.
<mgrwt>
<rscale>  2 0.45437890E+03</rscale>
<asrwt>0</asrwt>
<pdfrwt beam="1">  1       21 0.34053107E-01 0.45437890E+03</pdfrwt>
<pdfrwt beam="2">  1       21 0.32779458E-01 0.45437890E+03</pdfrwt>
<totfact> 0.68926211E+04</totfact>
</mgrwt>
</event>
<event>
 7    0  0.4766352E-002  0.4480485E+03  0.7546771E-02  0.1028306E+00
         21   -1    0    0  502  501  0.00000000000E+00  0.00000000000E+00  0.83872587132E+03  0.83872587132E+03  0.00000000000E+00 0.  1.
         21   -1    0    0  501  502 -0.00000000000E+00 -0.00000000000E+00 -0.59837021127E+02  0.59837021127E+02  0.00000000000E+00 0.  1.
      99926    2    1    2    0    0 -0.71054273576E-14 -0.71054273576E-14  0.77888885019E+03  0.89856289245E+03  0.44804846917E+03 0.  0.
      99925    2    3    3    0    0 -0.60428638718E+02 -0.48858494476E+02  0.63933432119E+03  0.69567931123E+03  0.26302577245E+03 0.  0.
         25    1    4    4    0    0 -0.69861516288E+02 -0.23682372679E+02  0.37075219810E+03  0.39817858648E+03  0.12509000000E+03 0.  0.
         25    1    3    3    0    0  0.60428638718E+02  0.48858494476E+02  0.13955452900E+03  0.20288358121E+03  0.12509000000E+03 0.  0.
         25    1    4    4    0    0  0.94328775698E+01 -0.25176121798E+02  0.26858212309E+03  0.29750072476E+03  0.12509000000E+03 0.  0.
<mgrwt>
<rscale>  2 0.44804847E+03</rscale>
<asrwt>0</asrwt>
<pdfrwt beam="1">  1       21 0.12334203E+00 0.44804847E+03</pdfrwt>
<pdfrwt beam="2">  1       21 0.87995624E-02 0.44804847E+03</pdfrwt>
<totfact> 0.45734205E+04</totfact>
</mgrwt>
</event>
<event>
 7    0  0.4766352E-002  0.4584648E+03  0.7546771E-02  0.1025227E+00
         21   -1    0    0  502  501  0.00000000000E+00  0.00000000000E+00  0.64513070749E+03  0.64513070749E+03  0.00000000000E+00 0. -1.
         21   -1    0    0  501  502 -0.00000000000E+00 -0.00000000000E+00 -0.81452465712E+02  0.81452465712E+02  0.00000000000E+00 0. -1.
      99926    2    1    2    0    0  0.71054273576E-14  0.00000000000E+00  0.56367824178E+03  0.72658317320E+03  0.45846477217E+03 0.  0.
      99925    2    3    3    0    0  0.54681175357E+02 -0.90141911897E+02  0.43163738804E+03  0.51635023008E+03  0.26304206912E+03 0.  0.
         25    1    3    3    0    0 -0.54681175357E+02  0.90141911897E+02  0.13204085374E+03  0.21023294312E+03  0.12509000000E+03 0.  0.
         25    1    4    4    0    0  0.14545241543E+02 -0.67136895557E+02  0.28095174063E+03  0.31511952568E+03  0.12509000000E+03 0.  0.
         25    1    4    4    0    0  0.40135933814E+02 -0.23005016339E+02  0.15068564741E+03  0.20123070440E+03  0.12509000000E+03 0.  0.
<mgrwt>
<rscale>  2 0.45846477E+03</rscale>
<asrwt>0</asrwt>
<pdfrwt beam="1">  1       21 0.94872160E-01 0.45846477E+03</pdfrwt>
<pdfrwt beam="2">  1       21 0.11978304E-01 0.45846477E+03</pdfrwt>
<totfact> 0.50104104E+04</totfact>
</mgrwt>
</event>
<event>
 7    0  0.4766352E-002  0.4577299E+03  0.7546771E-02  0.1025442E+00
         21   -1    0    0  502  501  0.00000000000E+00  0.00000000000E+00  0.31715385979E+02  0.31715385979E+02  0.00000000000E+00 0. -1.
         21   -1    0    0  501  502 -0.00000000000E+00 -0.00000000000E+00 -0.16515382984E+04  0.16515382984E+04  0.00000000000E+00 0. -1.
      99926    2    1    2    0    0  0.00000000000E+00  0.00000000000E+00 -0.16198229124E+04  0.16832536844E+04  0.45772994044E+03 0.  0.
      99925    2    3    3    0    0 -0.35854134563E+02 -0.19544604707E+02 -0.14149940485E+04  0.14397996186E+04  0.26295869249E+03 0.  0.
         25    1    4    4    0    0 -0.14413375270E+02 -0.42152045537E+02 -0.58708150565E+03  0.60191090928E+03  0.12509000000E+03 0.  0.
         25    1    3    3    0    0  0.35854134563E+02  0.19544604707E+02 -0.20482886392E+03  0.24345406575E+03  0.12509000000E+03 0.  0.
         25    1    4    4    0    0 -0.21440759294E+02  0.22607440830E+02 -0.82791254286E+03  0.83788870936E+03  0.12509000000E+03 0.  0.
<mgrwt>
<rscale>  2 0.45772994E+03</rscale>
<asrwt>0</asrwt>
<pdfrwt beam="1">  1       21 0.46640274E-02 0.45772994E+03</pdfrwt>
<pdfrwt beam="2">  1       21 0.24287328E+00 0.45772994E+03</pdfrwt>
<totfact> 0.19202035E+04</totfact>
</mgrwt>
</event>
<event>
 7    0  0.4766352E-002  0.4574351E+03  0.7546771E-02  0.1025528E+00
         21   -1    0    0  502  501  0.00000000000E+00  0.00000000000E+00  0.28582577747E+04  0.28582577747E+04  0.00000000000E+00 0. -1.
         21   -1    0    0  501  502 -0.00000000000E+00 -0.00000000000E+00 -0.18301955571E+02  0.18301955571E+02  0.00000000000E+00 0. -1.
      99926    2    1    2    0    0  0.22204460493E-15  0.00000000000E+00  0.28399558191E+04  0.28765597303E+04  0.45743505245E+03 0.  0.
      99925    2    3    3    0    0 -0.19052460938E+01  0.64618383762E+02  0.23847244335E+04  0.24000491973E+04  0.26295695499E+03 0.  0.
         25    1    4    4    0    0 -0.36516388901E+02  0.17241370888E+02  0.10513312440E+04  0.10595166843E+04  0.12509000000E+03 0.  0.
         25    1    3    3    0    0  0.19052460938E+01 -0.64618383762E+02  0.45523138559E+03  0.47651053294E+03  0.12509000000E+03 0.  0.
         25    1    4    4    0    0  0.34611142807E+02  0.47377012875E+02  0.13333931896E+04  0.13405325131E+04  0.12509000000E+03 0.  0.
<mgrwt>
<rscale>  2 0.45743505E+03</rscale>
<asrwt>0</asrwt>
<pdfrwt beam="1">  1       21 0.42033172E+00 0.45743505E+03</pdfrwt>
<pdfrwt beam="2">  1       21 0.26914660E-02 0.45743505E+03</pdfrwt>
<totfact> 0.39204804E+03</totfact>
</mgrwt>
</event>
<event>
 7    0  0.4766352E-002  0.4560855E+03  0.7546771E-02  0.1025923E+00
         21   -1    0    0  502  501  0.00000000000E+00  0.00000000000E+00  0.33136529953E+02  0.33136529953E+02  0.00000000000E+00 0. -1.
         21   -1    0    0  501  502 -0.00000000000E+00 -0.00000000000E+00 -0.15693703661E+04  0.15693703661E+04  0.00000000000E+00 0. -1.
      99926    2    1    2    0    0 -0.35527136788E-14 -0.35527136788E-14 -0.15362338361E+04  0.16025068961E+04  0.45608546630E+03 0.  0.
      99925    2    3    3    0    0 -0.22189079027E+02 -0.31959879450E+02 -0.13428642207E+04  0.13689408339E+04  0.26306064375E+03 0.  0.
         25    1    4    4    0    0 -0.20825964354E+02 -0.50119784991E+02 -0.80133100648E+03  0.81284968087E+03  0.12509000000E+03 0.  0.
         25    1    4    4    0    0 -0.13631146724E+01  0.18159905541E+02 -0.54153321422E+03  0.55609115301E+03  0.12509000000E+03 0.  0.
         25    1    3    3    0    0  0.22189079027E+02  0.31959879450E+02 -0.19336961544E+03  0.23356606217E+03  0.12509000000E+03 0.  0.
<mgrwt>
<rscale>  2 0.45608547E+03</rscale>
<asrwt>0</asrwt>
<pdfrwt beam="1">  1       21 0.48730192E-02 0.45608547E+03</pdfrwt>
<pdfrwt beam="2">  1       21 0.23078976E+00 0.45608547E+03</pdfrwt>
<totfact> 0.21194000E+04</totfact>
</mgrwt>
</event>
<event>
 7    0  0.4766352E-002  0.4438284E+03  0.7546771E-02  0.1029579E+00
         21   -1    0    0  502  501  0.00000000000E+00  0.00000000000E+00  0.60325682098E+03  0.60325682098E+03  0.00000000000E+00 0. -1.
         21   -1    0    0  501  502 -0.00000000000E+00 -0.00000000000E+00 -0.81633424171E+02  0.81633424171E+02  0.00000000000E+00 0. -1.
      99926    2    1    2    0    0  0.88817841970E-15  0.00000000000E+00  0.52162339681E+03  0.68489024515E+03  0.44382843510E+03 0.  0.
      99925    2    3    3    0    0  0.16603374653E+01  0.46152712233E+02  0.19120911198E+03  0.32858428494E+03  0.26319931276E+03 0.  0.
         25    1    4    4    0    0  0.38949107380E+02  0.20120535167E+02  0.77621606368E+02  0.15360498291E+03  0.12509000000E+03 0.  0.
         25    1    4    4    0    0 -0.37288769915E+02  0.26032177066E+02  0.11358750562E+03  0.17497930202E+03  0.12509000000E+03 0.  0.
         25    1    3    3    0    0 -0.16603374653E+01 -0.46152712233E+02  0.33041428482E+03  0.35630596021E+03  0.12509000000E+03 0.  0.
<mgrwt>
<rscale>  2 0.44382844E+03</rscale>
<asrwt>0</asrwt>
<pdfrwt beam="1">  1       21 0.88714236E-01 0.44382844E+03</pdfrwt>
<pdfrwt beam="2">  1       21 0.12004916E-01 0.44382844E+03</pdfrwt>
<totfact> 0.58728612E+04</totfact>
</mgrwt>
</event>
<event>
 7    0  0.4766352E-002  0.4651783E+03  0.7546771E-02  0.1023290E+00
         21   -1    0    0  502  501  0.00000000000E+00  0.00000000000E+00  0.30029189193E+03  0.30029189193E+03  0.00000000000E+00 0.  1.
         21   -1    0    0  501  502 -0.00000000000E+00 -0.00000000000E+00 -0.18015044607E+03  0.18015044607E+03  0.00000000000E+00 0.  1.
      99926    2    1    2    0    0  0.48849813084E-14  0.00000000000E+00  0.12014144587E+03  0.48044233800E+03  0.46517832401E+03 0.  0.
      99925    2    3    3    0    0 -0.20204202966E+01  0.11985114854E+03  0.49071232480E+02  0.29318085441E+03  0.26301834086E+03 0.  0.
         25    1    3    3    0    0  0.20204202966E+01 -0.11985114854E+03  0.71070213389E+02  0.18726148359E+03  0.12509000000E+03 0.  0.
         25    1    4    4    0    0 -0.36623856472E+02  0.40800340635E+02  0.31841192297E+02  0.14024030906E+03  0.12509000000E+03 0.  0.
         25    1    4    4    0    0  0.34603436175E+02  0.79050807909E+02  0.17230040182E+02  0.15294054535E+03  0.12509000000E+03 0.  0.
<mgrwt>
<rscale>  2 0.46517832E+03</rscale>
<asrwt>0</asrwt>
<pdfrwt beam="1">  1       21 0.44160573E-01 0.46517832E+03</pdfrwt>
<pdfrwt beam="2">  1       21 0.26492713E-01 0.46517832E+03</pdfrwt>
<totfact> 0.61544720E+04</totfact>
</mgrwt>
</event>
<event>
 7    0  0.4766352E-002  0.4505727E+03  0.7546771E-02  0.1027551E+00
         21   -1    0    0  502  501  0.00000000000E+00  0.00000000000E+00  0.26443975209E+03  0.26443975209E+03  0.00000000000E+00 0. -1.
         21   -1    0    0  501  502 -0.00000000000E+00 -0.00000000000E+00 -0.19193003417E+03  0.19193003417E+03  0.00000000000E+00 0. -1.
      99926    2    1    2    0    0  0.00000000000E+00  0.00000000000E+00  0.72509717919E+02  0.45636978626E+03  0.45057266075E+03 0.  0.
      99925    2    3    3    0    0 -0.47283323875E+02  0.89001692581E+02  0.38012183732E+01  0.28165464665E+03  0.26297885223E+03 0.  0.
         25    1    4    4    0    0 -0.52661360187E+02  0.43463022289E+02  0.30589555683E+02  0.14575830055E+03  0.12509000000E+03 0.  0.
         25    1    3    3    0    0  0.47283323875E+02 -0.89001692581E+02  0.68708499546E+02  0.17471513961E+03  0.12509000000E+03 0.  0.
         25    1    4    4    0    0  0.53780363119E+01  0.45538670292E+02 -0.26788337309E+02  0.13589634610E+03  0.12509000000E+03 0.  0.
<mgrwt>
<rscale>  2 0.45057266E+03</rscale>
<asrwt>0</asrwt>
<pdfrwt beam="1">  1       21 0.38888199E-01 0.45057266E+03</pdfrwt>
<pdfrwt beam="2">  1       21 0.28225005E-01 0.45057266E+03</pdfrwt>
<totfact> 0.70916802E+04</totfact>
</mgrwt>
</event>
<event>
 7    0  0.4766352E-002  0.4569255E+03  0.7546771E-02  0.1025677E+00
         21   -1    0    0  502  501  0.00000000000E+00  0.00000000000E+00  0.15605449519E+03  0.15605449519E+03  0.00000000000E+00 0.  1.
         21   -1    0    0  501  502 -0.00000000000E+00 -0.00000000000E+00 -0.33446789262E+03  0.33446789262E+03  0.00000000000E+00 0.  1.
      99926    2    1    2    0    0  0.00000000000E+00  0.00000000000E+00 -0.17841339744E+03  0.49052238781E+03  0.45692545624E+03 0.  0.
      99925    2    3    3    0    0 -0.83377926917E+02  0.62044386675E+02 -0.59580230839E+02  0.28910189680E+03  0.26311350823E+03 0.  0.
         25    1    4    4    0    0 -0.14269576962E+02  0.29861100957E+02 -0.59960652125E+02  0.14261168984E+03  0.12509000000E+03 0.  0.
         25    1    3    3    0    0  0.83377926917E+02 -0.62044386675E+02 -0.11883316660E+03  0.20142049101E+03  0.12509000000E+03 0.  0.
         25    1    4    4    0    0 -0.69108349955E+02  0.32183285717E+02  0.38042128639E+00  0.14649020695E+03  0.12509000000E+03 0.  0.
<mgrwt>
<rscale>  2 0.45692546E+03</rscale>
<asrwt>0</asrwt>
<pdfrwt beam="1">  1       21 0.22949191E-01 0.45692546E+03</pdfrwt>
<pdfrwt beam="2">  1       21 0.49186454E-01 0.45692546E+03</pdfrwt>
<totfact> 0.64943370E+04</totfact>
</mgrwt>
</event>
<event>
 6    0  0.4766352E-002  0.4489457E+03  0.7546771E-02  0.1028037E+00
         21   -1    0    0  502  501  0.00000000000E+00  0.00000000000E+00  0.11070090242E+04  0.11070090242E+04  0.00000000000E+00 0. -1.
         21   -1    0    0  501  502 -0.00000000000E+00 -0.00000000000E+00 -0.45517296678E+02  0.45517296678E+02  0.00000000000E+00 0. -1.
      99926    2    1    2    0    0  0.35527136788E-14 -0.71054273576E-14  0.10614917275E+04  0.11525263208E+04  0.44894569016E+03 0.  0.
         25    1    3    3    0    0  0.34606203852E+02  0.21299198076E+02  0.45396532208E+03  0.47263439035E+03  0.12509000000E+03 0.  0.
         25    1    3    3    0    0 -0.10952554530E+02 -0.58980206705E+02  0.46435623551E+03  0.48463681741E+03  0.12509000000E+03 0.  0.
         25    1    3    3    0    0 -0.23653649322E+02  0.37681008629E+02  0.14317016988E+03  0.19525511308E+03  0.12509000000E+03 0.  0.
<mgrwt>
<rscale>  2 0.44894569E+03</rscale>
<asrwt>0</asrwt>
<pdfrwt beam="1">  1       21 0.16279543E+00 0.44894569E+03</pdfrwt>
<pdfrwt beam="2">  1       21 0.66937208E-02 0.44894569E+03</pdfrwt>
<totfact> 0.35336226E+04</totfact>
</mgrwt>
</event>
<event>
 7    0  0.4766352E-002  0.4535382E+03  0.7546771E-02  0.1026672E+00
         21   -1    0    0  502  501  0.00000000000E+00  0.00000000000E+00  0.74442391737E+02  0.74442391737E+02  0.00000000000E+00 0.  1.
         21   -1    0    0  501  502 -0.00000000000E+00 -0.00000000000E+00 -0.69079225745E+03  0.69079225745E+03  0.00000000000E+00 0.  1.
      99926    2    1    2    0    0  0.00000000000E+00 -0.71054273576E-14 -0.61634986572E+03  0.76523464919E+03  0.45353821378E+03 0.  0.
      99925    2    3    3    0    0  0.75906916888E+02  0.54725460388E+02 -0.28513838719E+03  0.39903076110E+03  0.26299222880E+03 0.  0.
         25    1    4    4    0    0  0.30726906118E+02  0.43932730608E+02 -0.19578769298E+03  0.23844193507E+03  0.12509000000E+03 0.  0.
         25    1    3    3    0    0 -0.75906916888E+02 -0.54725460388E+02 -0.33121147852E+03  0.36620388809E+03  0.12509000000E+03 0.  0.
         25    1    4    4    0    0  0.45180010770E+02  0.10792729780E+02 -0.89350694211E+02  0.16058882603E+03  0.12509000000E+03 0.  0.
<mgrwt>
<rscale>  2 0.45353821E+03</rscale>
<asrwt>0</asrwt>
<pdfrwt beam="1">  1       21 0.10947411E-01 0.45353821E+03</pdfrwt>
<pdfrwt beam="2">  1       21 0.10158709E+00 0.45353821E+03</pdfrwt>
<totfact> 0.50064217E+04</totfact>
</mgrwt>
</event>
<event>
 7    0  0.4766352E-002  0.4684674E+03  0.7546771E-02  0.1022354E+00
         21   -1    0    0  502  501  0.00000000000E+00  0.00000000000E+00  0.59951527656E+02  0.59951527656E+02  0.00000000000E+00 0. -1.
         21   -1    0    0  501  502 -0.00000000000E+00 -0.00000000000E+00 -0.91516328680E+03  0.91516328680E+03  0.00000000000E+00 0. -1.
      99926    2    1    2    0    0  0.00000000000E+00 -0.71054273576E-14 -0.85521175914E+03  0.97511481445E+03  0.46846744646E+03 0.  0.
      99925    2    3    3    0    0  0.30424724635E+02 -0.60996225892E+02 -0.31291496746E+03  0.41441924481E+03  0.26302344034E+03 0.  0.
         25    1    3    3    0    0 -0.30424724635E+02  0.60996225892E+02 -0.54229679168E+03  0.56069556964E+03  0.12509000000E+03 0.  0.
         25    1    4    4    0    0  0.15633820103E+01  0.91052925794E+01 -0.14249826841E+03  0.18983839210E+03  0.12509000000E+03 0.  0.
         25    1    4    4    0    0  0.28861342625E+02 -0.70101518472E+02 -0.17041669905E+03  0.22458085271E+03  0.12509000000E+03 0.  0.
<mgrwt>
<rscale>  2 0.46846745E+03</rscale>
<asrwt>0</asrwt>
<pdfrwt beam="1">  1       21 0.88164018E-02 0.46846745E+03</pdfrwt>
<pdfrwt beam="2">  1       21 0.13458283E+00 0.46846745E+03</pdfrwt>
<totfact> 0.36178289E+04</totfact>
</mgrwt>
</event>
<event>
 7    0  0.4766352E-002  0.4558882E+03  0.7546771E-02  0.1025981E+00
         21   -1    0    0  502  501  0.00000000000E+00  0.00000000000E+00  0.81071892739E+03  0.81071892739E+03  0.00000000000E+00 0.  1.
         21   -1    0    0  501  502 -0.00000000000E+00 -0.00000000000E+00 -0.64089434369E+02  0.64089434369E+02  0.00000000000E+00 0.  1.
      99926    2    1    2    0    0  0.00000000000E+00  0.00000000000E+00  0.74662949302E+03  0.87480836176E+03  0.45588822090E+03 0.  0.
      99925    2    3    3    0    0  0.19465906549E+02 -0.11120716199E+03  0.50060040882E+03  0.57660746846E+03  0.26292479717E+03 0.  0.
         25    1    4    4    0    0  0.48528309023E+02 -0.44063205042E+02  0.24698989191E+03  0.28451375647E+03  0.12509000000E+03 0.  0.
         25    1    3    3    0    0 -0.19465906549E+02  0.11120716199E+03  0.24602908420E+03  0.29820089331E+03  0.12509000000E+03 0.  0.
         25    1    4    4    0    0 -0.29062402474E+02 -0.67143956949E+02  0.25361051692E+03  0.29209371199E+03  0.12509000000E+03 0.  0.
<mgrwt>
<rscale>  2 0.45588822E+03</rscale>
<asrwt>0</asrwt>
<pdfrwt beam="1">  1       21 0.11922337E+00 0.45588822E+03</pdfrwt>
<pdfrwt beam="2">  1       21 0.94249173E-02 0.45588822E+03</pdfrwt>
<totfact> 0.44033697E+04</totfact>
</mgrwt>
</event>
<event>
 7    0  0.4766352E-002  0.4440976E+03  0.7546771E-02  0.1029497E+00
         21   -1    0    0  502  501  0.00000000000E+00  0.00000000000E+00  0.33124386444E+03  0.33124386444E+03  0.00000000000E+00 0.  1.
         21   -1    0    0  501  502 -0.00000000000E+00 -0.00000000000E+00 -0.14885005694E+03  0.14885005694E+03  0.00000000000E+00 0.  1.
      99926    2    1    2    0    0  0.00000000000E+00  0.88817841970E-15  0.18239380751E+03  0.48009392138E+03  0.44409759325E+03 0.  0.
      99925    2    3    3    0    0 -0.10250262504E+03  0.38109440607E+01  0.11399806076E+03  0.30446135689E+03  0.26302062381E+03 0.  0.
         25    1    4    4    0    0 -0.29749364748E+02  0.24482677007E+02  0.83141129761E+02  0.15506250912E+03  0.12509000000E+03 0.  0.
         25    1    4    4    0    0 -0.72753260292E+02 -0.20671732946E+02  0.30856930995E+02  0.14939884777E+03  0.12509000000E+03 0.  0.
         25    1    3    3    0    0  0.10250262504E+03 -0.38109440607E+01  0.68395746752E+02  0.17563256449E+03  0.12509000000E+03 0.  0.
<mgrwt>
<rscale>  2 0.44409759E+03</rscale>
<asrwt>0</asrwt>
<pdfrwt beam="1">  1       21 0.48712333E-01 0.44409759E+03</pdfrwt>
<pdfrwt beam="2">  1       21 0.21889714E-01 0.44409759E+03</pdfrwt>
<totfact> 0.72792209E+04</totfact>
</mgrwt>
</event>
<event>
 7    0  0.4766352E-002  0.4474392E+03  0.7546771E-02  0.1028488E+00
         21   -1    0    0  502  501  0.00000000000E+00  0.00000000000E+00  0.55696670927E+03  0.55696670927E+03  0.00000000000E+00 0. -1.
         21   -1    0    0  501  502 -0.00000000000E+00 -0.00000000000E+00 -0.89862565693E+02  0.89862565693E+02  0.00000000000E+00 0. -1.
      99926    2    1    2    0    0  0.00000000000E+00  0.88817841970E-15  0.46710414358E+03  0.64682927497E+03  0.44743919140E+03 0.  0.
      99925    2    3    3    0    0  0.10449748866E+03  0.41155443781E+01  0.27114431166E+03  0.39190884294E+03  0.26293847300E+03 0.  0.
         25    1    4    4    0    0  0.15956564088E+02 -0.90936623854E+01  0.95606302777E+02  0.15850987308E+03  0.12509000000E+03 0.  0.
         25    1    3    3    0    0 -0.10449748866E+03 -0.41155443781E+01  0.19595983192E+03  0.25492043203E+03  0.12509000000E+03 0.  0.
         25    1    4    4    0    0  0.88540924569E+02  0.13209206763E+02  0.17553800888E+03  0.23339896986E+03  0.12509000000E+03 0.  0.
<mgrwt>
<rscale>  2 0.44743919E+03</rscale>
<asrwt>0</asrwt>
<pdfrwt beam="1">  1       21 0.81906867E-01 0.44743919E+03</pdfrwt>
<pdfrwt beam="2">  1       21 0.13215083E-01 0.44743919E+03</pdfrwt>
<totfact> 0.59346041E+04</totfact>
</mgrwt>
</event>
<event>
 7    0  0.4766352E-002  0.4532834E+03  0.7546771E-02  0.1026747E+00
         21   -1    0    0  502  501  0.00000000000E+00  0.00000000000E+00  0.35663100341E+02  0.35663100341E+02  0.00000000000E+00 0.  1.
         21   -1    0    0  501  502 -0.00000000000E+00 -0.00000000000E+00 -0.14403253741E+04  0.14403253741E+04  0.00000000000E+00 0.  1.
      99926    2    1    2    0    0 -0.35527136788E-14  0.00000000000E+00 -0.14046622737E+04  0.14759884744E+04  0.45328343600E+03 0.  0.
      99925    2    3    3    0    0 -0.28137640288E+02 -0.91566052206E+02 -0.10715323103E+04  0.11074791131E+04  0.26296848724E+03 0.  0.
         25    1    4    4    0    0 -0.40883654837E+02 -0.79030936851E+02 -0.59018390834E+03  0.60982121640E+03  0.12509000000E+03 0.  0.
         25    1    4    4    0    0  0.12746014549E+02 -0.12535115355E+02 -0.48134840196E+03  0.49765789673E+03  0.12509000000E+03 0.  0.
         25    1    3    3    0    0  0.28137640288E+02  0.91566052206E+02 -0.33312996343E+03  0.36850936128E+03  0.12509000000E+03 0.  0.
<mgrwt>
<rscale>  2 0.45328344E+03</rscale>
<asrwt>0</asrwt>
<pdfrwt beam="1">  1       21 0.52445749E-02 0.45328344E+03</pdfrwt>
<pdfrwt beam="2">  1       21 0.21181250E+00 0.45328344E+03</pdfrwt>
<totfact> 0.24701531E+04</totfact>
</mgrwt>
</event>
<event>
 7    0  0.4766352E-002  0.4695275E+03  0.7546771E-02  0.1022054E+00
         21   -1    0    0  502  501  0.00000000000E+00  0.00000000000E+00  0.74965307711E+03  0.74965307711E+03  0.00000000000E+00 0.  1.
         21   -1    0    0  501  502 -0.00000000000E+00 -0.00000000000E+00 -0.73519356157E+02  0.73519356157E+02  0.00000000000E+00 0.  1.
      99926    2    1    2    0    0  0.00000000000E+00  0.35527136788E-14  0.67613372096E+03  0.82317243327E+03  0.46952747128E+03 0.  0.
      99925    2    3    3    0    0  0.36975771102E+02  0.16168198174E+02  0.21116929633E+03  0.33998712457E+03  0.26338214609E+03 0.  0.
         25    1    4    4    0    0  0.90640307331E+01  0.33839777662E+02  0.14496795321E+03  0.19465482980E+03  0.12509000000E+03 0.  0.
         25    1    3    3    0    0 -0.36975771102E+02 -0.16168198174E+02  0.46496442462E+03  0.48318530870E+03  0.12509000000E+03 0.  0.
         25    1    4    4    0    0  0.27911740369E+02 -0.17671579488E+02  0.66201343123E+02  0.14533229477E+03  0.12509000000E+03 0.  0.
<mgrwt>
<rscale>  2 0.46952747E+03</rscale>
<asrwt>0</asrwt>
<pdfrwt beam="1">  1       21 0.11024310E+00 0.46952747E+03</pdfrwt>
<pdfrwt beam="2">  1       21 0.10811670E-01 0.46952747E+03</pdfrwt>
<totfact> 0.41703388E+04</totfact>
</mgrwt>
</event>
<event>
 7    0  0.4766352E-002  0.4553670E+03  0.7546771E-02  0.1026134E+00
         21   -1    0    0  502  501  0.00000000000E+00  0.00000000000E+00  0.98323589977E+03  0.98323589977E+03  0.00000000000E+00 0.  1.
         21   -1    0    0  501  502 -0.00000000000E+00 -0.00000000000E+00 -0.52723648173E+02  0.52723648173E+02  0.00000000000E+00 0.  1.
      99926    2    1    2    0    0 -0.17763568394E-14  0.00000000000E+00  0.93051225160E+03  0.10359595479E+04  0.45536703284E+03 0.  0.
      99925    2    3    3    0    0  0.13724830329E+02  0.99871119834E+02  0.70392365010E+03  0.75819613428E+03  0.26304041764E+03 0.  0.
         25    1    4    4    0    0 -0.27784228517E+02  0.42426011285E+02  0.39573610604E+03  0.41812259388E+03  0.12509000000E+03 0.  0.
         25    1    4    4    0    0  0.41509058846E+02  0.57445108549E+02  0.30818754406E+03  0.34007354040E+03  0.12509000000E+03 0.  0.
         25    1    3    3    0    0 -0.13724830329E+02 -0.99871119834E+02  0.22658860149E+03  0.27776341366E+03  0.12509000000E+03 0.  0.
<mgrwt>
<rscale>  2 0.45536703E+03</rscale>
<asrwt>0</asrwt>
<pdfrwt beam="1">  1       21 0.14459350E+00 0.45536703E+03</pdfrwt>
<pdfrwt beam="2">  1       21 0.77534783E-02 0.45536703E+03</pdfrwt>
<totfact> 0.37688737E+04</totfact>
</mgrwt>
</event>
<event>
 7    0  0.4766352E-002  0.4676388E+03  0.7546771E-02  0.1022589E+00
         21   -1    0    0  502  501  0.00000000000E+00  0.00000000000E+00  0.10600779495E+04  0.10600779495E+04  0.00000000000E+00 0.  1.
         21   -1    0    0  501  502 -0.00000000000E+00 -0.00000000000E+00 -0.51573103321E+02  0.51573103321E+02  0.00000000000E+00 0.  1.
      99926    2    1    2    0    0  0.62172489379E-14  0.00000000000E+00  0.10085048462E+04  0.11116510529E+04  0.46763879060E+03 0.  0.
      99925    2    3    3    0    0 -0.60687487149E+01 -0.12447506865E+03  0.63703307161E+03  0.70034865820E+03  0.26295671942E+03 0.  0.
         25    1    3    3    0    0  0.60687487149E+01  0.12447506865E+03  0.37147177460E+03  0.41130239466E+03  0.12509000000E+03 0.  0.
         25    1    4    4    0    0  0.34524327052E+02 -0.46444666309E+02  0.31641598237E+03  0.34513130572E+03  0.12509000000E+03 0.  0.
         25    1    4    4    0    0 -0.40593075767E+02 -0.78030402336E+02  0.32061708924E+03  0.35521735248E+03  0.12509000000E+03 0.  0.
<mgrwt>
<rscale>  2 0.46763879E+03</rscale>
<asrwt>0</asrwt>
<pdfrwt beam="1">  1       21 0.15589380E+00 0.46763879E+03</pdfrwt>
<pdfrwt beam="2">  1       21 0.75842806E-02 0.46763879E+03</pdfrwt>
<totfact> 0.31834080E+04</totfact>
</mgrwt>
</event>
<event>
 7    0  0.4766352E-002  0.4538084E+03  0.7546771E-02  0.1026592E+00
         21   -1    0    0  502  501  0.00000000000E+00  0.00000000000E+00  0.18528741933E+03  0.18528741933E+03  0.00000000000E+00 0. -1.
         21   -1    0    0  501  502 -0.00000000000E+00 -0.00000000000E+00 -0.27786834977E+03  0.27786834977E+03  0.00000000000E+00 0. -1.
      99926    2    1    2    0    0  0.00000000000E+00  0.00000000000E+00 -0.92580930438E+02  0.46315576910E+03  0.45380837120E+03 0.  0.
      99925    2    3    3    0    0  0.36227840936E+02 -0.10298738477E+03 -0.83989103988E+02  0.29690239180E+03  0.26301711501E+03 0.  0.
         25    1    3    3    0    0 -0.36227840936E+02  0.10298738477E+03 -0.85918264505E+01  0.16625337730E+03  0.12509000000E+03 0.  0.
         25    1    4    4    0    0  0.38899873708E+02 -0.34541618579E+02 -0.72926602303E+02  0.15385746980E+03  0.12509000000E+03 0.  0.
         25    1    4    4    0    0 -0.26720327723E+01 -0.68445766189E+02 -0.11062501685E+02  0.14304492201E+03  0.12509000000E+03 0.  0.
<mgrwt>
<rscale>  2 0.45380837E+03</rscale>
<asrwt>0</asrwt>
<pdfrwt beam="1">  1       21 0.27248150E-01 0.45380837E+03</pdfrwt>
<pdfrwt beam="2">  1       21 0.40862992E-01 0.45380837E+03</pdfrwt>
<totfact> 0.68594847E+04</totfact>
</mgrwt>
</event>
<event>
 7    0  0.4766352E-002  0.4783522E+03  0.7546771E-02  0.1019589E+00
         21   -1    0    0  502  501  0.00000000000E+00  0.00000000000E+00  0.19204360808E+03  0.19204360808E+03  0.00000000000E+00 0. -1.
         21   -1    0    0  501  502 -0.00000000000E+00 -0.00000000000E+00 -0.29787615184E+03  0.29787615184E+03  0.00000000000E+00 0. -1.
      99926    2    1    2    0    0  0.00000000000E+00 -0.14210854715E-13 -0.10583254377E+03  0.48991975992E+03  0.47835221735E+03 0.  0.
      99925    2    3    3    0    0  0.38450068541E+02 -0.12421655811E+03 -0.32790632199E+02  0.29526419225E+03  0.26305428448E+03 0.  0.
         25    1    4    4    0    0  0.41907873917E+02 -0.66770467735E+02 -0.50923439348E+02  0.15638180851E+03  0.12509000000E+03 0.  0.
         25    1    3    3    0    0 -0.38450068541E+02  0.12421655811E+03 -0.73041911567E+02  0.19465556767E+03  0.12509000000E+03 0.  0.
         25    1    4    4    0    0 -0.34578053756E+01 -0.57446090379E+02  0.18132807150E+02  0.13888238374E+03  0.12509000000E+03 0.  0.
<mgrwt>
<rscale>  2 0.47835222E+03</rscale>
<asrwt>0</asrwt>
<pdfrwt beam="1">  1       21 0.28241707E-01 0.47835222E+03</pdfrwt>
<pdfrwt beam="2">  1       21 0.43805316E-01 0.47835222E+03</pdfrwt>
<totfact> 0.55049114E+04</totfact>
</mgrwt>
</event>
<event>
 7    0  0.4766352E-002  0.4287335E+03  0.7546771E-02  0.1034261E+00
         21   -1    0    0  502  501  0.00000000000E+00  0.00000000000E+00  0.11065895627E+03  0.11065895627E+03  0.00000000000E+00 0.  1.
         21   -1    0    0  501  502 -0.00000000000E+00 -0.00000000000E+00 -0.41526784498E+03  0.41526784498E+03  0.00000000000E+00 0.  1.
      99926    2    1    2    0    0  0.00000000000E+00  0.00000000000E+00 -0.30460888871E+03  0.52592680125E+03  0.42873351303E+03 0.  0.
      99925    2    3    3    0    0 -0.65666947029E+02  0.32830194078E+02 -0.25243688183E+03  0.37178596961E+03  0.26288868047E+03 0.  0.
         25    1    3    3    0    0  0.65666947029E+02 -0.32830194078E+02 -0.52172006878E+02  0.15414083163E+03  0.12509000000E+03 0.  0.
         25    1    4    4    0    0 -0.31408632831E+02  0.79230135320E+00 -0.17492747022E+03  0.21733443790E+03  0.12509000000E+03 0.  0.
         25    1    4    4    0    0 -0.34258314198E+02  0.32037892724E+02 -0.77509411603E+02  0.15445153171E+03  0.12509000000E+03 0.  0.
<mgrwt>
<rscale>  2 0.42873351E+03</rscale>
<asrwt>0</asrwt>
<pdfrwt beam="1">  1       21 0.16273376E-01 0.42873351E+03</pdfrwt>
<pdfrwt beam="2">  1       21 0.61068801E-01 0.42873351E+03</pdfrwt>
<totfact> 0.78598734E+04</totfact>
</mgrwt>
</event>
<event>
 7    0  0.4766352E-002  0.4486953E+03  0.7546771E-02  0.1028112E+00
         21   -1    0    0  502  501  0.00000000000E+00  0.00000000000E+00  0.86472711382E+02  0.86472711382E+02  0.00000000000E+00 0. -1.
         21   -1    0    0  501  502 -0.00000000000E+00 -0.00000000000E+00 -0.58205487806E+03  0.58205487806E+03  0.00000000000E+00 0. -1.
      99926    2    1    2    0    0  0.00000000000E+00  0.00000000000E+00 -0.49558216668E+03  0.66852758944E+03  0.44869527958E+03 0.  0.
      99925    2    3    3    0    0 -0.70103195033E+02 -0.80981124300E+02 -0.30942188333E+03  0.41998069318E+03  0.26300091314E+03 0.  0.
         25    1    4    4    0    0 -0.24932766308E+02 -0.67959543408E+02 -0.11826740818E+03  0.18674803965E+03  0.12509000000E+03 0.  0.
         25    1    4    4    0    0 -0.45170428724E+02 -0.13021580892E+02 -0.19115447516E+03  0.23323265353E+03  0.12509000000E+03 0.  0.
         25    1    3    3    0    0  0.70103195033E+02  0.80981124300E+02 -0.18616028335E+03  0.24854689626E+03  0.12509000000E+03 0.  0.
<mgrwt>
<rscale>  2 0.44869528E+03</rscale>
<asrwt>0</asrwt>
<pdfrwt beam="1">  1       21 0.12716575E-01 0.44869528E+03</pdfrwt>
<pdfrwt beam="2">  1       21 0.85596305E-01 0.44869528E+03</pdfrwt>
<totfact> 0.57446480E+04</totfact>
</mgrwt>
</event>
<event>
 7    0  0.4766352E-002  0.4563119E+03  0.7546771E-02  0.1025856E+00
         21   -1    0    0  502  501  0.00000000000E+00  0.00000000000E+00  0.76115223596E+02  0.76115223596E+02  0.00000000000E+00 0.  1.
         21   -1    0    0  501  502 -0.00000000000E+00 -0.00000000000E+00 -0.68389914871E+03  0.68389914871E+03  0.00000000000E+00 0.  1.
      99926    2    1    2    0    0  0.00000000000E+00  0.00000000000E+00 -0.60778392511E+03  0.76001437231E+03  0.45631189606E+03 0.  0.
      99925    2    3    3    0    0 -0.92909472990E+01 -0.87936024482E+02 -0.26093752221E+03  0.38084554262E+03  0.26293700905E+03 0.  0.
         25    1    4    4    0    0  0.26838993607E+02 -0.26305884313E+02 -0.15088468960E+03  0.19956459802E+03  0.12509000000E+03 0.  0.
         25    1    4    4    0    0 -0.36129940906E+02 -0.61630140169E+02 -0.11005283261E+03  0.18128094459E+03  0.12509000000E+03 0.  0.
         25    1    3    3    0    0  0.92909472990E+01  0.87936024482E+02 -0.34684640290E+03  0.37916882969E+03  0.12509000000E+03 0.  0.
<mgrwt>
<rscale>  2 0.45631190E+03</rscale>
<asrwt>0</asrwt>
<pdfrwt beam="1">  1       21 0.11193415E-01 0.45631190E+03</pdfrwt>
<pdfrwt beam="2">  1       21 0.10057341E+00 0.45631190E+03</pdfrwt>
<totfact> 0.49249978E+04</totfact>
</mgrwt>
</event>
<event>
 7    0  0.4766352E-002  0.4386349E+03  0.7546771E-02  0.1031166E+00
         21   -1    0    0  502  501  0.00000000000E+00  0.00000000000E+00  0.39384532500E+03  0.39384532500E+03  0.00000000000E+00 0.  1.
         21   -1    0    0  501  502 -0.00000000000E+00 -0.00000000000E+00 -0.12212954044E+03  0.12212954044E+03  0.00000000000E+00 0.  1.
      99926    2    1    2    0    0 -0.35527136788E-14 -0.14210854715E-13  0.27171578456E+03  0.51597486545E+03  0.43863492131E+03 0.  0.
      99925    2    3    3    0    0  0.31567821460E+02  0.83635125017E+02  0.12910015681E+03  0.30626533570E+03  0.26294532488E+03 0.  0.
         25    1    4    4    0    0  0.53224167858E+02  0.40554546596E+02  0.48943136350E+02  0.15006805786E+03  0.12509000000E+03 0.  0.
         25    1    3    3    0    0 -0.31567821460E+02 -0.83635125017E+02  0.14261562775E+03  0.20970952974E+03  0.12509000000E+03 0.  0.
         25    1    4    4    0    0 -0.21656346397E+02  0.43080578421E+02  0.80157020462E+02  0.15619727784E+03  0.12509000000E+03 0.  0.
<mgrwt>
<rscale>  2 0.43863492E+03</rscale>
<asrwt>0</asrwt>
<pdfrwt beam="1">  1       21 0.57918430E-01 0.43863492E+03</pdfrwt>
<pdfrwt beam="2">  1       21 0.17960227E-01 0.43863492E+03</pdfrwt>
<totfact> 0.73208117E+04</totfact>
</mgrwt>
</event>
<event>
 7    0  0.4766352E-002  0.4508590E+03  0.7546771E-02  0.1027466E+00
         21   -1    0    0  502  501  0.00000000000E+00  0.00000000000E+00  0.88362337621E+02  0.88362337621E+02  0.00000000000E+00 0. -1.
         21   -1    0    0  501  502 -0.00000000000E+00 -0.00000000000E+00 -0.57511448431E+03  0.57511448431E+03  0.00000000000E+00 0. -1.
      99926    2    1    2    0    0  0.00000000000E+00  0.14210854715E-13 -0.48675214669E+03  0.66347682193E+03  0.45085900339E+03 0.  0.
      99925    2    3    3    0    0 -0.67525784549E+02 -0.79913608862E+02 -0.35328965777E+03  0.45275031551E+03  0.26310330566E+03 0.  0.
         25    1    4    4    0    0 -0.16305147699E+02 -0.33049892156E+01 -0.13478830717E+03  0.18464066899E+03  0.12509000000E+03 0.  0.
         25    1    4    4    0    0 -0.51220636850E+02 -0.76608619647E+02 -0.21850135059E+03  0.26810964651E+03  0.12509000000E+03 0.  0.
         25    1    3    3    0    0  0.67525784549E+02  0.79913608862E+02 -0.13346248892E+03  0.21072650642E+03  0.12509000000E+03 0.  0.
<mgrwt>
<rscale>  2 0.45085900E+03</rscale>
<asrwt>0</asrwt>
<pdfrwt beam="1">  1       21 0.12994461E-01 0.45085900E+03</pdfrwt>
<pdfrwt beam="2">  1       21 0.84575661E-01 0.45085900E+03</pdfrwt>
<totfact> 0.56761534E+04</totfact>
</mgrwt>
</event>
<event>
 7    0  0.4766352E-002  0.4576491E+03  0.7546771E-02  0.1025465E+00
         21   -1    0    0  502  501  0.00000000000E+00  0.00000000000E+00  0.19174391119E+03  0.19174391119E+03  0.00000000000E+00 0. -1.
         21   -1    0    0  501  502 -0.00000000000E+00 -0.00000000000E+00 -0.27307607824E+03  0.27307607824E+03  0.00000000000E+00 0. -1.
      99926    2    1    2    0    0  0.00000000000E+00  0.00000000000E+00 -0.81332167050E+02  0.46481998944E+03  0.45764910268E+03 0.  0.
      99925    2    3    3    0    0 -0.10791800325E+03  0.11821971733E+02 -0.91436998955E+02  0.29888123517E+03  0.26302702051E+03 0.  0.
         25    1    3    3    0    0  0.10791800325E+03 -0.11821971733E+02  0.10104831905E+02  0.16593875427E+03  0.12509000000E+03 0.  0.
         25    1    4    4    0    0 -0.34162333226E+02  0.12955574489E+02 -0.80666617916E+02  0.15326292203E+03  0.12509000000E+03 0.  0.
         25    1    4    4    0    0 -0.73755670021E+02 -0.11336027561E+01 -0.10770381039E+02  0.14561831314E+03  0.12509000000E+03 0.  0.
<mgrwt>
<rscale>  2 0.45764910E+03</rscale>
<asrwt>0</asrwt>
<pdfrwt beam="1">  1       21 0.28197634E-01 0.45764910E+03</pdfrwt>
<pdfrwt beam="2">  1       21 0.40158247E-01 0.45764910E+03</pdfrwt>
<totfact> 0.66413843E+04</totfact>
</mgrwt>
</event>
<event>
 7    0  0.4766352E-002  0.4496852E+03  0.7546771E-02  0.1027816E+00
         21   -1    0    0  502  501  0.00000000000E+00  0.00000000000E+00  0.60542618182E+03  0.60542618182E+03  0.00000000000E+00 0. -1.
         21   -1    0    0  501  502 -0.00000000000E+00 -0.00000000000E+00 -0.83501832045E+02  0.83501832045E+02  0.00000000000E+00 0. -1.
      99926    2    1    2    0    0  0.00000000000E+00  0.00000000000E+00  0.52192434978E+03  0.68892801387E+03  0.44968520256E+03 0.  0.
      99925    2    3    3    0    0 -0.45813495574E+02  0.64732941162E+02  0.21820918115E+03  0.35102323171E+03  0.26327330365E+03 0.  0.
         25    1    3    3    0    0  0.45813495574E+02 -0.64732941162E+02  0.30371516863E+03  0.33790478215E+03  0.12509000000E+03 0.  0.
         25    1    4    4    0    0 -0.59725149373E+02  0.43623983861E+02  0.13726832114E+03  0.19990058910E+03  0.12509000000E+03 0.  0.
         25    1    4    4    0    0  0.13911653799E+02  0.21108957301E+02  0.80940860008E+02  0.15112264261E+03  0.12509000000E+03 0.  0.
<mgrwt>
<rscale>  2 0.44968520E+03</rscale>
<asrwt>0</asrwt>
<pdfrwt beam="1">  1       21 0.89033260E-01 0.44968520E+03</pdfrwt>
<pdfrwt beam="2">  1       21 0.12279682E-01 0.44968520E+03</pdfrwt>
<totfact> 0.55806831E+04</totfact>
</mgrwt>
</event>
<event>
 7    0  0.4766352E-002  0.4437378E+03  0.7546771E-02  0.1029606E+00
         21   -1    0    0  502  501  0.00000000000E+00  0.00000000000E+00  0.45039115904E+03  0.45039115904E+03  0.00000000000E+00 0. -1.
         21   -1    0    0  501  502 -0.00000000000E+00 -0.00000000000E+00 -0.10929566302E+03  0.10929566302E+03  0.00000000000E+00 0. -1.
      99926    2    1    2    0    0  0.00000000000E+00 -0.71054273576E-14  0.34109549603E+03  0.55968682206E+03  0.44373776195E+03 0.  0.
      99925    2    3    3    0    0 -0.44865824845E+02  0.43404470500E+02  0.11479289230E+03  0.29368444077E+03  0.26301378734E+03 0.  0.
         25    1    4    4    0    0 -0.36485312195E+02  0.15597799990E+02  0.17122446286E+02  0.13234483608E+03  0.12509000000E+03 0.  0.
         25    1    4    4    0    0 -0.83805126492E+01  0.27806670509E+02  0.97670446014E+02  0.16133960469E+03  0.12509000000E+03 0.  0.
         25    1    3    3    0    0  0.44865824845E+02 -0.43404470500E+02  0.22630260373E+03  0.26600238129E+03  0.12509000000E+03 0.  0.
<mgrwt>
<rscale>  2 0.44373776E+03</rscale>
<asrwt>0</asrwt>
<pdfrwt beam="1">  1       21 0.66233994E-01 0.44373776E+03</pdfrwt>
<pdfrwt beam="2">  1       21 0.16072892E-01 0.44373776E+03</pdfrwt>
<totfact> 0.67003149E+04</totfact>
</mgrwt>
</event>
<event>
 7    0  0.4766352E-002  0.4653989E+03  0.7546771E-02  0.1023227E+00
         21   -1    0    0  502  501  0.00000000000E+00  0.00000000000E+00  0.11963303730E+03  0.11963303730E+03  0.00000000000E+00 0.  1.
         21   -1    0    0  501  502 -0.00000000000E+00 -0.00000000000E+00 -0.45262613857E+03  0.45262613857E+03  0.00000000000E+00 0.  1.
      99926    2    1    2    0    0  0.00000000000E+00  0.00000000000E+00 -0.33299310128E+03  0.57225917587E+03  0.46539892445E+03 0.  0.
      99925    2    3    3    0    0  0.45415813387E+02  0.11310025338E+03 -0.22229897108E+03  0.36548644561E+03  0.26326649228E+03 0.  0.
         25    1    3    3    0    0 -0.45415813387E+02 -0.11310025338E+03 -0.11069413019E+03  0.20677273026E+03  0.12509000000E+03 0.  0.
         25    1    4    4    0    0  0.17821061287E+01  0.56048523927E+02 -0.15309703762E+03  0.20550139650E+03  0.12509000000E+03 0.  0.
         25    1    4    4    0    0  0.43633707259E+02  0.57051729457E+02 -0.69201933462E+02  0.15998504911E+03  0.12509000000E+03 0.  0.
<mgrwt>
<rscale>  2 0.46539892E+03</rscale>
<asrwt>0</asrwt>
<pdfrwt beam="1">  1       21 0.17593094E-01 0.46539892E+03</pdfrwt>
<pdfrwt beam="2">  1       21 0.66562667E-01 0.46539892E+03</pdfrwt>
<totfact> 0.55695957E+04</totfact>
</mgrwt>
</event>
<event>
 7    0  0.4766352E-002  0.4630370E+03  0.7546771E-02  0.1023904E+00
         21   -1    0    0  502  501  0.00000000000E+00  0.00000000000E+00  0.10996313952E+03  0.10996313952E+03  0.00000000000E+00 0.  1.
         21   -1    0    0  501  502 -0.00000000000E+00 -0.00000000000E+00 -0.48744339721E+03  0.48744339721E+03  0.00000000000E+00 0.  1.
      99926    2    1    2    0    0  0.00000000000E+00  0.00000000000E+00 -0.37748025769E+03  0.59740653672E+03  0.46303695875E+03 0.  0.
      99925    2    3    3    0    0 -0.51617027220E+01 -0.10976634965E+03 -0.30024465064E+03  0.41386323996E+03  0.26279390491E+03 0.  0.
         25    1    4    4    0    0  0.49180346432E+01 -0.93323402908E+02 -0.19072499883E+03  0.24648930580E+03  0.12509000000E+03 0.  0.
         25    1    4    4    0    0 -0.10079737365E+02 -0.16442946743E+02 -0.10951965181E+03  0.16737393416E+03  0.12509000000E+03 0.  0.
         25    1    3    3    0    0  0.51617027220E+01  0.10976634965E+03 -0.77235607056E+02  0.18354329677E+03  0.12509000000E+03 0.  0.
<mgrwt>
<rscale>  2 0.46303696E+03</rscale>
<asrwt>0</asrwt>
<pdfrwt beam="1">  1       21 0.16171050E-01 0.46303696E+03</pdfrwt>
<pdfrwt beam="2">  1       21 0.71682852E-01 0.46303696E+03</pdfrwt>
<totfact> 0.55245116E+04</totfact>
</mgrwt>
</event>
<event>
 7    0  0.4766352E-002  0.4812009E+03  0.7546771E-02  0.1018806E+00
         21   -1    0    0  502  501  0.00000000000E+00  0.00000000000E+00  0.51165518417E+02  0.51165518417E+02  0.00000000000E+00 0. -1.
         21   -1    0    0  501  502 -0.00000000000E+00 -0.00000000000E+00 -0.11313980985E+04  0.11313980985E+04  0.00000000000E+00 0. -1.
      99926    2    1    2    0    0  0.00000000000E+00  0.00000000000E+00 -0.10802325801E+04  0.11825636169E+04  0.48120087384E+03 0.  0.
      99925    2    3    3    0    0  0.10481063669E+03 -0.82553473577E+02 -0.59686243792E+03  0.66575170916E+03  0.26302133542E+03 0.  0.
         25    1    4    4    0    0  0.64022623937E+02 -0.43707741475E+01 -0.25484635516E+03  0.29105355673E+03  0.12509000000E+03 0.  0.
         25    1    4    4    0    0  0.40788012756E+02 -0.78182699430E+02 -0.34201608275E+03  0.37469815243E+03  0.12509000000E+03 0.  0.
         25    1    3    3    0    0 -0.10481063669E+03  0.82553473577E+02 -0.48337014218E+03  0.51681190777E+03  0.12509000000E+03 0.  0.
<mgrwt>
<rscale>  2 0.48120087E+03</rscale>
<asrwt>0</asrwt>
<pdfrwt beam="1">  1       21 0.75243411E-02 0.48120087E+03</pdfrwt>
<pdfrwt beam="2">  1       21 0.16638207E+00 0.48120087E+03</pdfrwt>
<totfact> 0.26808222E+04</totfact>
</mgrwt>
</event>
<event>
 7    0  0.4766352E-002  0.4557584E+03  0.7546771E-02  0.1026019E+00
         21   -1    0    0  502  501  0.00000000000E+00  0.00000000000E+00  0.92943266917E+02  0.92943266917E+02  0.00000000000E+00 0.  1.
         21   -1    0    0  501  502 -0.00000000000E+00 -0.00000000000E+00 -0.55871651595E+03  0.55871651595E+03  0.00000000000E+00 0.  1.
      99926    2    1    2    0    0  0.14210854715E-13  0.00000000000E+00 -0.46577324903E+03  0.65165978286E+03  0.45575843721E+03 0.  0.
      99925    2    3    3    0    0  0.93113395402E+02 -0.57938532481E+02 -0.24951058228E+03  0.37881545531E+03  0.26309435676E+03 0.  0.
         25    1    4    4    0    0  0.47519863426E+02 -0.54950710377E+02 -0.87364841003E+02  0.16899065517E+03  0.12509000000E+03 0.  0.
         25    1    3    3    0    0 -0.93113395402E+02  0.57938532481E+02 -0.21626266675E+03  0.27284432756E+03  0.12509000000E+03 0.  0.
         25    1    4    4    0    0  0.45593531976E+02 -0.29878221032E+01 -0.16214574128E+03  0.20982480014E+03  0.12509000000E+03 0.  0.
<mgrwt>
<rscale>  2 0.45575844E+03</rscale>
<asrwt>0</asrwt>
<pdfrwt beam="1">  1       21 0.13668128E-01 0.45575844E+03</pdfrwt>
<pdfrwt beam="2">  1       21 0.82164192E-01 0.45575844E+03</pdfrwt>
<totfact> 0.55274523E+04</totfact>
</mgrwt>
</event>
<event>
 7    0  0.4766352E-002  0.4517823E+03  0.7546771E-02  0.1027192E+00
         21   -1    0    0  502  501  0.00000000000E+00  0.00000000000E+00  0.34669693961E+02  0.34669693961E+02  0.00000000000E+00 0.  1.
         21   -1    0    0  501  502 -0.00000000000E+00 -0.00000000000E+00 -0.14717986908E+04  0.14717986908E+04  0.00000000000E+00 0.  1.
      99926    2    1    2    0    0  0.71054273576E-14  0.00000000000E+00 -0.14371289968E+04  0.15064683847E+04  0.45178229351E+03 0.  0.
      99925    2    3    3    0    0  0.50856378479E+02  0.90322451061E+02 -0.78328205773E+03  0.83274155267E+03  0.26302698565E+03 0.  0.
         25    1    3    3    0    0 -0.50856378479E+02 -0.90322451061E+02 -0.65384693909E+03  0.67372683208E+03  0.12509000000E+03 0.  0.
         25    1    4    4    0    0 -0.42398653545E+01  0.57698070946E+02 -0.31504225419E+03  0.34386941398E+03  0.12509000000E+03 0.  0.
         25    1    4    4    0    0  0.55096243834E+02  0.32624380115E+02 -0.46823980354E+03  0.48887213869E+03  0.12509000000E+03 0.  0.
<mgrwt>
<rscale>  2 0.45178229E+03</rscale>
<asrwt>0</asrwt>
<pdfrwt beam="1">  1       21 0.50984849E-02 0.45178229E+03</pdfrwt>
<pdfrwt beam="2">  1       21 0.21644096E+00 0.45178229E+03</pdfrwt>
<totfact> 0.24220744E+04</totfact>
</mgrwt>
</event>
<event>
 7    0  0.4766352E-002  0.4386380E+03  0.7546771E-02  0.1031166E+00
         21   -1    0    0  502  501  0.00000000000E+00  0.00000000000E+00  0.26108588496E+03  0.26108588496E+03  0.00000000000E+00 0. -1.
         21   -1    0    0  501  502 -0.00000000000E+00 -0.00000000000E+00 -0.18423372558E+03  0.18423372558E+03  0.00000000000E+00 0. -1.
      99926    2    1    2    0    0  0.00000000000E+00 -0.35527136788E-14  0.76852159386E+02  0.44531961054E+03  0.43863800694E+03 0.  0.
      99925    2    3    3    0    0  0.47062567108E+02  0.95849189768E+01  0.13464411896E+03  0.29939437425E+03  0.26306120328E+03 0.  0.
         25    1    3    3    0    0 -0.47062567108E+02 -0.95849189768E+01 -0.57791959576E+02  0.14592523629E+03  0.12509000000E+03 0.  0.
         25    1    4    4    0    0 -0.58336155279E+01  0.29828931659E+02  0.80272239272E+02  0.15170674583E+03  0.12509000000E+03 0.  0.
         25    1    4    4    0    0  0.52896182636E+02 -0.20244012683E+02  0.54371879690E+02  0.14768762842E+03  0.12509000000E+03 0.  0.
<mgrwt>
<rscale>  2 0.43863801E+03</rscale>
<asrwt>0</asrwt>
<pdfrwt beam="1">  1       21 0.38394983E-01 0.43863801E+03</pdfrwt>
<pdfrwt beam="2">  1       21 0.27093195E-01 0.43863801E+03</pdfrwt>
<totfact> 0.79089777E+04</totfact>
</mgrwt>
</event>
<event>
 7    0  0.4766352E-002  0.4575098E+03  0.7546771E-02  0.1025506E+00
         21   -1    0    0  502  501  0.00000000000E+00  0.00000000000E+00  0.10042709368E+04  0.10042709368E+04  0.00000000000E+00 0. -1.
         21   -1    0    0  501  502 -0.00000000000E+00 -0.00000000000E+00 -0.52106263125E+02  0.52106263125E+02  0.00000000000E+00 0. -1.
      99926    2    1    2    0    0  0.71054273576E-14  0.71054273576E-14  0.95216467366E+03  0.10563771999E+04  0.45750980615E+03 0.  0.
      99925    2    3    3    0    0  0.44966864507E+02  0.44734300752E+02  0.37679530789E+03  0.46416052357E+03  0.26352819778E+03 0.  0.
         25    1    3    3    0    0 -0.44966864507E+02 -0.44734300752E+02  0.57536936577E+03  0.59221667634E+03  0.12509000000E+03 0.  0.
         25    1    4    4    0    0  0.88897436280E+01  0.48535385020E+02  0.24116128651E+03  0.27611770199E+03  0.12509000000E+03 0.  0.
         25    1    4    4    0    0  0.36077120879E+02 -0.38010842673E+01  0.13563402138E+03  0.18804282158E+03  0.12509000000E+03 0.  0.
<mgrwt>
<rscale>  2 0.45750981E+03</rscale>
<asrwt>0</asrwt>
<pdfrwt beam="1">  1       21 0.14768689E+00 0.45750981E+03</pdfrwt>
<pdfrwt beam="2">  1       21 0.76626864E-02 0.45750981E+03</pdfrwt>
<totfact> 0.36327428E+04</totfact>
</mgrwt>
</event>
<event>
 7    0  0.4766352E-002  0.4488133E+03  0.7546771E-02  0.1028077E+00
         21   -1    0    0  502  501  0.00000000000E+00  0.00000000000E+00  0.12184783640E+03  0.12184783640E+03  0.00000000000E+00 0. -1.
         21   -1    0    0  501  502 -0.00000000000E+00 -0.00000000000E+00 -0.41328887040E+03  0.41328887040E+03  0.00000000000E+00 0. -1.
      99926    2    1    2    0    0  0.00000000000E+00  0.00000000000E+00 -0.29144103400E+03  0.53513670680E+03  0.44881334501E+03 0.  0.
      99925    2    3    3    0    0 -0.65386158696E+02  0.24363206398E+02 -0.87274605175E+02  0.28573671815E+03  0.26298231845E+03 0.  0.
         25    1    4    4    0    0  0.89790009645E+01  0.11017196260E+02 -0.37635113218E+02  0.13139981324E+03  0.12509000000E+03 0.  0.
         25    1    4    4    0    0 -0.74365159661E+02  0.13346010138E+02 -0.49639491957E+02  0.15433690492E+03  0.12509000000E+03 0.  0.
         25    1    3    3    0    0  0.65386158696E+02 -0.24363206398E+02 -0.20416642883E+03  0.24939998864E+03  0.12509000000E+03 0.  0.
<mgrwt>
<rscale>  2 0.44881335E+03</rscale>
<asrwt>0</asrwt>
<pdfrwt beam="1">  1       21 0.17918800E-01 0.44881335E+03</pdfrwt>
<pdfrwt beam="2">  1       21 0.60777775E-01 0.44881335E+03</pdfrwt>
<totfact> 0.66034026E+04</totfact>
</mgrwt>
</event>
<event>
 7    0  0.4766352E-002  0.4551917E+03  0.7546771E-02  0.1026185E+00
         21   -1    0    0  502  501  0.00000000000E+00  0.00000000000E+00  0.42695710987E+03  0.42695710987E+03  0.00000000000E+00 0. -1.
         21   -1    0    0  501  502 -0.00000000000E+00 -0.00000000000E+00 -0.12132334580E+03  0.12132334580E+03  0.00000000000E+00 0. -1.
      99926    2    1    2    0    0  0.00000000000E+00  0.14210854715E-13  0.30563376406E+03  0.54828045567E+03  0.45519167429E+03 0.  0.
      99925    2    3    3    0    0 -0.46538265067E+02 -0.69008986681E+02  0.99649563469E+02  0.29331957759E+03  0.26301765861E+03 0.  0.
         25    1    3    3    0    0  0.46538265067E+02  0.69008986681E+02  0.20598420060E+03  0.25496087808E+03  0.12509000000E+03 0.  0.
         25    1    4    4    0    0 -0.11020177290E+01 -0.18786501522E+01  0.61750981899E+02  0.13951858527E+03  0.12509000000E+03 0.  0.
         25    1    4    4    0    0 -0.45436247338E+02 -0.67130336529E+02  0.37898581570E+02  0.15380099232E+03  0.12509000000E+03 0.  0.
<mgrwt>
<rscale>  2 0.45519167E+03</rscale>
<asrwt>0</asrwt>
<pdfrwt beam="1">  1       21 0.62787810E-01 0.45519167E+03</pdfrwt>
<pdfrwt beam="2">  1       21 0.17841669E-01 0.45519167E+03</pdfrwt>
<totfact> 0.61886375E+04</totfact>
</mgrwt>
</event>
<event>
 7    0  0.4766352E-002  0.4568799E+03  0.7546771E-02  0.1025690E+00
         21   -1    0    0  502  501  0.00000000000E+00  0.00000000000E+00  0.46075838791E+03  0.46075838791E+03  0.00000000000E+00 0.  1.
         21   -1    0    0  501  502 -0.00000000000E+00 -0.00000000000E+00 -0.11325850494E+03  0.11325850494E+03  0.00000000000E+00 0.  1.
      99926    2    1    2    0    0  0.71054273576E-14  0.00000000000E+00  0.34749988297E+03  0.57401689285E+03  0.45687987986E+03 0.  0.
      99925    2    3    3    0    0 -0.49981551484E+02  0.53681964004E+02  0.33003012864E+03  0.42796002323E+03  0.26239281035E+03 0.  0.
         25    1    4    4    0    0 -0.63751850500E+02  0.35101572392E+02  0.16239355141E+03  0.21752147587E+03  0.12509000000E+03 0.  0.
         25    1    3    3    0    0  0.49981551484E+02 -0.53681964004E+02  0.17469754329E+02  0.14605686962E+03  0.12509000000E+03 0.  0.
         25    1    4    4    0    0  0.13770299016E+02  0.18580391612E+02  0.16763657724E+03  0.21043854736E+03  0.12509000000E+03 0.  0.
<mgrwt>
<rscale>  2 0.45687988E+03</rscale>
<asrwt>0</asrwt>
<pdfrwt beam="1">  1       21 0.67758586E-01 0.45687988E+03</pdfrwt>
<pdfrwt beam="2">  1       21 0.16655663E-01 0.45687988E+03</pdfrwt>
<totfact> 0.59418644E+04</totfact>
</mgrwt>
</event>
<event>
 7    0  0.4766352E-002  0.4573067E+03  0.7546771E-02  0.1025565E+00
         21   -1    0    0  502  501  0.00000000000E+00  0.00000000000E+00  0.21594592675E+03  0.21594592675E+03  0.00000000000E+00 0.  1.
         21   -1    0    0  501  502 -0.00000000000E+00 -0.00000000000E+00 -0.24210856869E+03  0.24210856869E+03  0.00000000000E+00 0.  1.
      99926    2    1    2    0    0 -0.14210854715E-13  0.53290705182E-14 -0.26162641945E+02  0.45805449544E+03  0.45730672088E+03 0.  0.
      99925    2    3    3    0    0  0.10216126196E+03 -0.10669917625E+02 -0.68986662801E+02  0.29062637519E+03  0.26297102450E+03 0.  0.
         25    1    4    4    0    0  0.80758979019E+02 -0.32733787137E+02 -0.49897587971E+02  0.16040820084E+03  0.12509000000E+03 0.  0.
         25    1    4    4    0    0  0.21402282943E+02  0.22063869512E+02 -0.19089074830E+02  0.13021817435E+03  0.12509000000E+03 0.  0.
         25    1    3    3    0    0 -0.10216126196E+03  0.10669917625E+02  0.42824020855E+02  0.16742812025E+03  0.12509000000E+03 0.  0.
<mgrwt>
<rscale>  2 0.45730672E+03</rscale>
<asrwt>0</asrwt>
<pdfrwt beam="1">  1       21 0.31756754E-01 0.45730672E+03</pdfrwt>
<pdfrwt beam="2">  1       21 0.35604201E-01 0.45730672E+03</pdfrwt>
<totfact> 0.67079511E+04</totfact>
</mgrwt>
</event>
<event>
 7    0  0.4766352E-002  0.4519321E+03  0.7546771E-02  0.1027147E+00
         21   -1    0    0  502  501  0.00000000000E+00  0.00000000000E+00  0.43405685865E+03  0.43405685865E+03  0.00000000000E+00 0.  1.
         21   -1    0    0  501  502 -0.00000000000E+00 -0.00000000000E+00 -0.11763586685E+03  0.11763586685E+03  0.00000000000E+00 0.  1.
      99926    2    1    2    0    0  0.14210854715E-13  0.00000000000E+00  0.31642099180E+03  0.55169272550E+03  0.45193209592E+03 0.  0.
      99925    2    3    3    0    0 -0.65410125503E+02  0.83962117763E+02  0.16458397264E+03  0.32801860938E+03  0.26302129630E+03 0.  0.
         25    1    3    3    0    0  0.65410125503E+02 -0.83962117763E+02  0.15183701916E+03  0.22367411612E+03  0.12509000000E+03 0.  0.
         25    1    4    4    0    0 -0.20755925381E+02  0.17377827815E+01  0.85361357018E+02  0.15286561974E+03  0.12509000000E+03 0.  0.
         25    1    4    4    0    0 -0.44654200122E+02  0.82224334981E+02  0.79222615626E+02  0.17515298964E+03  0.12509000000E+03 0.  0.
<mgrwt>
<rscale>  2 0.45193210E+03</rscale>
<asrwt>0</asrwt>
<pdfrwt beam="1">  1       21 0.63831891E-01 0.45193210E+03</pdfrwt>
<pdfrwt beam="2">  1       21 0.17299392E-01 0.45193210E+03</pdfrwt>
<totfact> 0.63276703E+04</totfact>
</mgrwt>
</event>
<event>
 7    0  0.4766352E-002  0.4528534E+03  0.7546771E-02  0.1026875E+00
         21   -1    0    0  502  501  0.00000000000E+00  0.00000000000E+00  0.32735716088E+03  0.32735716088E+03  0.00000000000E+00 0.  1.
         21   -1    0    0  501  502 -0.00000000000E+00 -0.00000000000E+00 -0.15661501615E+03  0.15661501615E+03  0.00000000000E+00 0.  1.
      99926    2    1    2    0    0  0.71054273576E-14  0.00000000000E+00  0.17074214472E+03  0.48397217703E+03  0.45285338483E+03 0.  0.
      99925    2    3    3    0    0 -0.58327281191E+02 -0.60436876625E+02  0.18525554069E+03  0.33260231692E+03  0.26315394368E+03 0.  0.
         25    1    4    4    0    0 -0.54290903397E+02 -0.19088139650E+01  0.11041002904E+03  0.17546802665E+03  0.12509000000E+03 0.  0.
         25    1    3    3    0    0  0.58327281191E+02  0.60436876625E+02 -0.14513395969E+02  0.15136986011E+03  0.12509000000E+03 0.  0.
         25    1    4    4    0    0 -0.40363777947E+01 -0.58528062660E+02  0.74845511652E+02  0.15713429027E+03  0.12509000000E+03 0.  0.
<mgrwt>
<rscale>  2 0.45285338E+03</rscale>
<asrwt>0</asrwt>
<pdfrwt beam="1">  1       21 0.48140759E-01 0.45285338E+03</pdfrwt>
<pdfrwt beam="2">  1       21 0.23031620E-01 0.45285338E+03</pdfrwt>
<totfact> 0.67555955E+04</totfact>
</mgrwt>
</event>
<event>
 7    0  0.4766352E-002  0.4551369E+03  0.7546771E-02  0.1026201E+00
         21   -1    0    0  502  501  0.00000000000E+00  0.00000000000E+00  0.27990403891E+02  0.27990403891E+02  0.00000000000E+00 0.  1.
         21   -1    0    0  501  502 -0.00000000000E+00 -0.00000000000E+00 -0.18501839658E+04  0.18501839658E+04  0.00000000000E+00 0.  1.
      99926    2    1    2    0    0  0.00000000000E+00  0.00000000000E+00 -0.18221935619E+04  0.18781743697E+04  0.45513688700E+03 0.  0.
      99925    2    3    3    0    0  0.47851094705E+02 -0.99851865895E+02 -0.12458348151E+04  0.12780935122E+04  0.26298006971E+03 0.  0.
         25    1    4    4    0    0  0.42996229134E+02 -0.74203883428E+02 -0.54526044984E+03  0.56596056250E+03  0.12509000000E+03 0.  0.
         25    1    4    4    0    0  0.48548655708E+01 -0.25647982468E+02 -0.70057436524E+03  0.71213294970E+03  0.12509000000E+03 0.  0.
         25    1    3    3    0    0 -0.47851094705E+02  0.99851865895E+02 -0.57635874684E+03  0.60008085751E+03  0.12509000000E+03 0.  0.
<mgrwt>
<rscale>  2 0.45513689E+03</rscale>
<asrwt>0</asrwt>
<pdfrwt beam="1">  1       21 0.41162372E-02 0.45513689E+03</pdfrwt>
<pdfrwt beam="2">  1       21 0.27208579E+00 0.45513689E+03</pdfrwt>
<totfact> 0.15785735E+04</totfact>
</mgrwt>
</event>
<event>
 7    0  0.4766352E-002  0.4364289E+03  0.7546771E-02  0.1031848E+00
         21   -1    0    0  502  501  0.00000000000E+00  0.00000000000E+00  0.73303528150E+02  0.73303528150E+02  0.00000000000E+00 0. -1.
         21   -1    0    0  501  502 -0.00000000000E+00 -0.00000000000E+00 -0.64959431531E+03  0.64959431531E+03  0.00000000000E+00 0. -1.
      99926    2    1    2    0    0  0.00000000000E+00 -0.71054273576E-14 -0.57629078716E+03  0.72289784346E+03  0.43642894120E+03 0.  0.
      99925    2    3    3    0    0  0.74271344438E+02 -0.58711247457E+02 -0.37281272480E+03  0.46596580353E+03  0.26300486517E+03 0.  0.
         25    1    4    4    0    0  0.16115378386E+02 -0.64064110552E+02 -0.18647087825E+03  0.23405728405E+03  0.12509000000E+03 0.  0.
         25    1    4    4    0    0  0.58155966052E+02  0.53528630948E+01 -0.18634184655E+03  0.23190851948E+03  0.12509000000E+03 0.  0.
         25    1    3    3    0    0 -0.74271344438E+02  0.58711247457E+02 -0.20347806236E+03  0.25693203994E+03  0.12509000000E+03 0.  0.
<mgrwt>
<rscale>  2 0.43642894E+03</rscale>
<asrwt>0</asrwt>
<pdfrwt beam="1">  1       21 0.10779930E-01 0.43642894E+03</pdfrwt>
<pdfrwt beam="2">  1       21 0.95528578E-01 0.43642894E+03</pdfrwt>
<totfact> 0.59967882E+04</totfact>
</mgrwt>
</event>
<event>
 7    0  0.4766352E-002  0.4451857E+03  0.7546771E-02  0.1029167E+00
         21   -1    0    0  502  501  0.00000000000E+00  0.00000000000E+00  0.35469928055E+02  0.35469928055E+02  0.00000000000E+00 0.  1.
         21   -1    0    0  501  502 -0.00000000000E+00 -0.00000000000E+00 -0.13968899590E+04  0.13968899590E+04  0.00000000000E+00 0.  1.
      99926    2    1    2    0    0  0.00000000000E+00  0.00000000000E+00 -0.13614200310E+04  0.14323598871E+04  0.44518574257E+03 0.  0.
      99925    2    3    3    0    0  0.36390822936E+02  0.74868392916E+02 -0.66874981776E+03  0.72357987845E+03  0.26346148391E+03 0.  0.
         25    1    4    4    0    0 -0.23151260640E+02  0.40360419488E+02 -0.31524894653E+03  0.34233660441E+03  0.12509000000E+03 0.  0.
         25    1    3    3    0    0 -0.36390822936E+02 -0.74868392916E+02 -0.69267021320E+03  0.70878000861E+03  0.12509000000E+03 0.  0.
         25    1    4    4    0    0  0.59542083576E+02  0.34507973428E+02 -0.35350087123E+03  0.38124327405E+03  0.12509000000E+03 0.  0.
<mgrwt>
<rscale>  2 0.44518574E+03</rscale>
<asrwt>0</asrwt>
<pdfrwt beam="1">  1       21 0.52161661E-02 0.44518574E+03</pdfrwt>
<pdfrwt beam="2">  1       21 0.20542498E+00 0.44518574E+03</pdfrwt>
<totfact> 0.27522043E+04</totfact>
</mgrwt>
</event>
<event>
 6    0  0.5760923E-002  0.4277853E+03  0.7546771E-02  0.1034562E+00
         21   -1    0    0  502  501  0.00000000000E+00  0.00000000000E+00  0.10463019527E+03  0.10463019527E+03  0.00000000000E+00 0.  1.
         21   -1    0    0  501  502 -0.00000000000E+00 -0.00000000000E+00 -0.43725495297E+03  0.43725495297E+03  0.00000000000E+00 0.  1.
      99926    2    1    2    0    0 -0.71054273576E-14  0.00000000000E+00 -0.33262475770E+03  0.54188514823E+03  0.42778532518E+03 0.  0.
         25    1    3    3    0    0  0.64711973100E+02  0.62008097313E+01 -0.15948376505E+03  0.21285833063E+03  0.12509000000E+03 0.  0.
         25    1    3    3    0    0 -0.13887488488E+02 -0.41418027065E+02 -0.12289450170E+03  0.18071768577E+03  0.12509000000E+03 0.  0.
         25    1    3    3    0    0 -0.50824484612E+02  0.35217217333E+02 -0.50246490956E+02  0.14830913184E+03  0.12509000000E+03 0.  0.
<mgrwt>
<rscale>  2 0.42778533E+03</rscale>
<asrwt>0</asrwt>
<pdfrwt beam="1">  1       21 0.15386794E-01 0.42778533E+03</pdfrwt>
<pdfrwt beam="2">  1       21 0.64302197E-01 0.42778533E+03</pdfrwt>
<totfact> 0.77869230E+04</totfact>
</mgrwt>
</event>
<event>
 7    0  0.4766352E-002  0.4566923E+03  0.7546771E-02  0.1025745E+00
         21   -1    0    0  502  501  0.00000000000E+00  0.00000000000E+00  0.76703080571E+03  0.76703080571E+03  0.00000000000E+00 0.  1.
         21   -1    0    0  501  502 -0.00000000000E+00 -0.00000000000E+00 -0.67978961924E+02  0.67978961924E+02  0.00000000000E+00 0.  1.
      99926    2    1    2    0    0 -0.88817841970E-15  0.00000000000E+00  0.69905184379E+03  0.83500976764E+03  0.45669227248E+03 0.  0.
      99925    2    3    3    0    0 -0.54848580885E+01 -0.11387527546E+03  0.41403838592E+03  0.50353150093E+03  0.26290402315E+03 0.  0.
         25    1    4    4    0    0  0.20072005969E+02 -0.22826944503E+02  0.20787843180E+03  0.24450951991E+03  0.12509000000E+03 0.  0.
         25    1    4    4    0    0 -0.25556864058E+02 -0.91048330957E+02  0.20615995411E+03  0.25902198102E+03  0.12509000000E+03 0.  0.
         25    1    3    3    0    0  0.54848580885E+01  0.11387527546E+03  0.28501345787E+03  0.33147826670E+03  0.12509000000E+03 0.  0.
<mgrwt>
<rscale>  2 0.45669227E+03</rscale>
<asrwt>0</asrwt>
<pdfrwt beam="1">  1       21 0.11279864E+00 0.45669227E+03</pdfrwt>
<pdfrwt beam="2">  1       21 0.99969066E-02 0.45669227E+03</pdfrwt>
<totfact> 0.45510308E+04</totfact>
</mgrwt>
</event>
<event>
 7    0  0.4766352E-002  0.4520333E+03  0.7546771E-02  0.1027117E+00
         21   -1    0    0  502  501  0.00000000000E+00  0.00000000000E+00  0.15489504834E+04  0.15489504834E+04  0.00000000000E+00 0.  1.
         21   -1    0    0  501  502 -0.00000000000E+00 -0.00000000000E+00 -0.32979443210E+02  0.32979443210E+02  0.00000000000E+00 0.  1.
      99926    2    1    2    0    0 -0.35527136788E-14  0.17763568394E-14  0.15159710402E+04  0.15819299266E+04  0.45203329303E+03 0.  0.
      99925    2    3    3    0    0  0.20447899652E+02 -0.15024112917E+02  0.58067892551E+03  0.63796875767E+03  0.26300623694E+03 0.  0.
         25    1    4    4    0    0  0.31535001718E+02 -0.36934366029E+02  0.25333210109E+03  0.28667623772E+03  0.12509000000E+03 0.  0.
         25    1    4    4    0    0 -0.11087102066E+02  0.21910253112E+02  0.32734682441E+03  0.35129251996E+03  0.12509000000E+03 0.  0.
         25    1    3    3    0    0 -0.20447899652E+02  0.15024112917E+02  0.93529211467E+03  0.94396116893E+03  0.12509000000E+03 0.  0.
<mgrwt>
<rscale>  2 0.45203329E+03</rscale>
<asrwt>0</asrwt>
<pdfrwt beam="1">  1       21 0.22778679E+00 0.45203329E+03</pdfrwt>
<pdfrwt beam="2">  1       21 0.48499192E-02 0.45203329E+03</pdfrwt>
<totfact> 0.22351177E+04</totfact>
</mgrwt>
</event>
<event>
 7    0  0.4766352E-002  0.4515153E+03  0.7546771E-02  0.1027271E+00
         21   -1    0    0  502  501  0.00000000000E+00  0.00000000000E+00  0.29798842301E+03  0.29798842301E+03  0.00000000000E+00 0.  1.
         21   -1    0    0  501  502 -0.00000000000E+00 -0.00000000000E+00 -0.17103523981E+03  0.17103523981E+03  0.00000000000E+00 0.  1.
      99926    2    1    2    0    0 -0.14210854715E-13 -0.71054273576E-14  0.12695318320E+03  0.46902366282E+03  0.45151532151E+03 0.  0.
      99925    2    3    3    0    0 -0.10305769629E+03 -0.36396293449E+02  0.91876611502E+02  0.29924895056E+03  0.26298867604E+03 0.  0.
         25    1    4    4    0    0 -0.13081055982E+02 -0.35136365293E+02  0.46369381042E+02  0.13857599283E+03  0.12509000000E+03 0.  0.
         25    1    4    4    0    0 -0.89976640305E+02 -0.12599281565E+01  0.45507230460E+02  0.16067295772E+03  0.12509000000E+03 0.  0.
         25    1    3    3    0    0  0.10305769629E+03  0.36396293449E+02  0.35076571699E+02  0.16977471226E+03  0.12509000000E+03 0.  0.
<mgrwt>
<rscale>  2 0.45151532E+03</rscale>
<asrwt>0</asrwt>
<pdfrwt beam="1">  1       21 0.43821827E-01 0.45151532E+03</pdfrwt>
<pdfrwt beam="2">  1       21 0.25152241E-01 0.45151532E+03</pdfrwt>
<totfact> 0.69407484E+04</totfact>
</mgrwt>
</event>
<event>
 7    0  0.4766352E-002  0.4649556E+03  0.7546771E-02  0.1023354E+00
         21   -1    0    0  502  501  0.00000000000E+00  0.00000000000E+00  0.12457458483E+03  0.12457458483E+03  0.00000000000E+00 0.  1.
         21   -1    0    0  501  502 -0.00000000000E+00 -0.00000000000E+00 -0.43384391087E+03  0.43384391087E+03  0.00000000000E+00 0.  1.
      99926    2    1    2    0    0  0.00000000000E+00  0.00000000000E+00 -0.30926932604E+03  0.55841849570E+03  0.46495558961E+03 0.  0.
      99925    2    3    3    0    0 -0.71551393094E+02  0.98796577728E+02 -0.18164954429E+03  0.34205148708E+03  0.26291119651E+03 0.  0.
         25    1    4    4    0    0 -0.20561060953E+02  0.87124567689E+01 -0.88679246930E+02  0.15495218962E+03  0.12509000000E+03 0.  0.
         25    1    3    3    0    0  0.71551393094E+02 -0.98796577728E+02 -0.12761978176E+03  0.21636700862E+03  0.12509000000E+03 0.  0.
         25    1    4    4    0    0 -0.50990332141E+02  0.90084120959E+02 -0.92970297355E+02  0.18709929746E+03  0.12509000000E+03 0.  0.
<mgrwt>
<rscale>  2 0.46495559E+03</rscale>
<asrwt>0</asrwt>
<pdfrwt beam="1">  1       21 0.18319792E-01 0.46495559E+03</pdfrwt>
<pdfrwt beam="2">  1       21 0.63800574E-01 0.46495559E+03</pdfrwt>
<totfact> 0.56713538E+04</totfact>
</mgrwt>
</event>
<event>
 7    0  0.4766352E-002  0.4553916E+03  0.7546771E-02  0.1026126E+00
         21   -1    0    0  502  501  0.00000000000E+00  0.00000000000E+00  0.39246162907E+03  0.39246162907E+03  0.00000000000E+00 0. -1.
         21   -1    0    0  501  502 -0.00000000000E+00 -0.00000000000E+00 -0.13210305444E+03  0.13210305444E+03  0.00000000000E+00 0. -1.
      99926    2    1    2    0    0  0.71054273576E-14  0.00000000000E+00  0.26035857462E+03  0.52456468351E+03  0.45539161148E+03 0.  0.
      99925    2    3    3    0    0  0.34305234947E+02  0.68262369021E+02  0.67113758782E+02  0.28202052852E+03  0.26304889606E+03 0.  0.
         25    1    4    4    0    0  0.53497522892E+02  0.38713407125E+02  0.15921648133E+02  0.14234366802E+03  0.12509000000E+03 0.  0.
         25    1    4    4    0    0 -0.19192287944E+02  0.29548961896E+02  0.51192110650E+02  0.13967686050E+03  0.12509000000E+03 0.  0.
         25    1    3    3    0    0 -0.34305234947E+02 -0.68262369021E+02  0.19324481584E+03  0.24254415499E+03  0.12509000000E+03 0.  0.
<mgrwt>
<rscale>  2 0.45539161E+03</rscale>
<asrwt>0</asrwt>
<pdfrwt beam="1">  1       21 0.57714945E-01 0.45539161E+03</pdfrwt>
<pdfrwt beam="2">  1       21 0.19426920E-01 0.45539161E+03</pdfrwt>
<totfact> 0.63378958E+04</totfact>
</mgrwt>
</event>
<event>
 7    0  0.4766352E-002  0.4546118E+03  0.7546771E-02  0.1026356E+00
         21   -1    0    0  502  501  0.00000000000E+00  0.00000000000E+00  0.17491042578E+03  0.17491042578E+03  0.00000000000E+00 0.  1.
         21   -1    0    0  501  502 -0.00000000000E+00 -0.00000000000E+00 -0.29539677927E+03  0.29539677927E+03  0.00000000000E+00 0.  1.
      99926    2    1    2    0    0 -0.71054273576E-14  0.00000000000E+00 -0.12048635349E+03  0.47030720505E+03  0.45461181875E+03 0.  0.
      99925    2    3    3    0    0  0.37762533841E+02  0.27420486731E+02 -0.18204071005E+03  0.32328904643E+03  0.26305720931E+03 0.  0.
         25    1    4    4    0    0  0.46647436965E+02  0.19733645235E+02 -0.58512806333E+02  0.14709404045E+03  0.12509000000E+03 0.  0.
         25    1    4    4    0    0 -0.88849031236E+01  0.76868414962E+01 -0.12352790372E+03  0.17619500598E+03  0.12509000000E+03 0.  0.
         25    1    3    3    0    0 -0.37762533841E+02 -0.27420486731E+02  0.61554356558E+02  0.14701815863E+03  0.12509000000E+03 0.  0.
<mgrwt>
<rscale>  2 0.45461182E+03</rscale>
<asrwt>0</asrwt>
<pdfrwt beam="1">  1       21 0.25722122E-01 0.45461182E+03</pdfrwt>
<pdfrwt beam="2">  1       21 0.43440702E-01 0.45461182E+03</pdfrwt>
<totfact> 0.67620868E+04</totfact>
</mgrwt>
</event>
<event>
 7    0  0.4766352E-002  0.4563224E+03  0.7546771E-02  0.1025853E+00
         21   -1    0    0  502  501  0.00000000000E+00  0.00000000000E+00  0.22506321529E+04  0.22506321529E+04  0.00000000000E+00 0.  1.
         21   -1    0    0  501  502 -0.00000000000E+00 -0.00000000000E+00 -0.23130178626E+02  0.23130178626E+02  0.00000000000E+00 0.  1.
      99926    2    1    2    0    0  0.00000000000E+00  0.00000000000E+00  0.22275019743E+04  0.22737623315E+04  0.45632235850E+03 0.  0.
      99925    2    3    3    0    0 -0.66502148790E+02  0.82105560308E+02  0.11816928687E+04  0.12152123553E+04  0.26301934081E+03 0.  0.
         25    1    4    4    0    0 -0.52453396498E+02  0.55590557879E+02  0.77214060703E+03  0.78593275415E+03  0.12509000000E+03 0.  0.
         25    1    3    3    0    0  0.66502148790E+02 -0.82105560308E+02  0.10458091056E+04  0.10585499763E+04  0.12509000000E+03 0.  0.
         25    1    4    4    0    0 -0.14048752291E+02  0.26515002429E+02  0.40955226166E+03  0.42927960110E+03  0.12509000000E+03 0.  0.
<mgrwt>
<rscale>  2 0.45632236E+03</rscale>
<asrwt>0</asrwt>
<pdfrwt beam="1">  1       21 0.33097517E+00 0.45632236E+03</pdfrwt>
<pdfrwt beam="2">  1       21 0.34014984E-02 0.45632236E+03</pdfrwt>
<totfact> 0.96335062E+03</totfact>
</mgrwt>
</event>
<event>
 7    0  0.4766352E-002  0.4452937E+03  0.7546771E-02  0.1029135E+00
         21   -1    0    0  502  501  0.00000000000E+00  0.00000000000E+00  0.20498449052E+03  0.20498449052E+03  0.00000000000E+00 0. -1.
         21   -1    0    0  501  502 -0.00000000000E+00 -0.00000000000E+00 -0.24183110435E+03  0.24183110435E+03  0.00000000000E+00 0. -1.
      99926    2    1    2    0    0  0.00000000000E+00  0.00000000000E+00 -0.36846613836E+02  0.44681559487E+03  0.44529372651E+03 0.  0.
      99925    2    3    3    0    0  0.84627474658E+02  0.58093939022E+02 -0.76465765746E+01  0.28238668776E+03  0.26295827820E+03 0.  0.
         25    1    3    3    0    0 -0.84627474658E+02 -0.58093939022E+02 -0.29200037261E+02  0.16442890711E+03  0.12509000000E+03 0.  0.
         25    1    4    4    0    0  0.32023452040E+02  0.63633556430E+02  0.14873259235E+02  0.14471853000E+03  0.12509000000E+03 0.  0.
         25    1    4    4    0    0  0.52604022618E+02 -0.55396174074E+01 -0.22519835809E+02  0.13766815776E+03  0.12509000000E+03 0.  0.
<mgrwt>
<rscale>  2 0.44529373E+03</rscale>
<asrwt>0</asrwt>
<pdfrwt beam="1">  1       21 0.30144778E-01 0.44529373E+03</pdfrwt>
<pdfrwt beam="2">  1       21 0.35563398E-01 0.44529373E+03</pdfrwt>
<totfact> 0.74774784E+04</totfact>
</mgrwt>
</event>
<event>
 7    0  0.4766352E-002  0.4610122E+03  0.7546771E-02  0.1024488E+00
         21   -1    0    0  502  501  0.00000000000E+00  0.00000000000E+00  0.47324884764E+03  0.47324884764E+03  0.00000000000E+00 0.  1.
         21   -1    0    0  501  502 -0.00000000000E+00 -0.00000000000E+00 -0.11227300837E+03  0.11227300837E+03  0.00000000000E+00 0.  1.
      99926    2    1    2    0    0 -0.53290705182E-14  0.00000000000E+00  0.36097583926E+03  0.58552185601E+03  0.46101224207E+03 0.  0.
      99925    2    3    3    0    0  0.12267932994E+02 -0.62982469879E+02  0.35278954479E+03  0.44469637107E+03  0.26301540989E+03 0.  0.
         25    1    4    4    0    0  0.44778617518E+02 -0.30576451407E+02  0.19884210806E+03  0.24109279543E+03  0.12509000000E+03 0.  0.
         25    1    3    3    0    0 -0.12267932994E+02  0.62982469879E+02  0.81862944766E+01  0.14082548494E+03  0.12509000000E+03 0.  0.
         25    1    4    4    0    0 -0.32510684524E+02 -0.32406018472E+02  0.15394743672E+03  0.20360357564E+03  0.12509000000E+03 0.  0.
<mgrwt>
<rscale>  2 0.46101224E+03</rscale>
<asrwt>0</asrwt>
<pdfrwt beam="1">  1       21 0.69595418E-01 0.46101224E+03</pdfrwt>
<pdfrwt beam="2">  1       21 0.16510737E-01 0.46101224E+03</pdfrwt>
<totfact> 0.56829066E+04</totfact>
</mgrwt>
</event>
<event>
 7    0  0.4766352E-002  0.4603540E+03  0.7546771E-02  0.1024679E+00
         21   -1    0    0  502  501  0.00000000000E+00  0.00000000000E+00  0.11593756457E+03  0.11593756457E+03  0.00000000000E+00 0.  1.
         21   -1    0    0  501  502 -0.00000000000E+00 -0.00000000000E+00 -0.45698256276E+03  0.45698256276E+03  0.00000000000E+00 0.  1.
      99926    2    1    2    0    0  0.00000000000E+00  0.00000000000E+00 -0.34104499819E+03  0.57292012733E+03  0.46035397415E+03 0.  0.
      99925    2    3    3    0    0  0.10428932837E+03 -0.41519191018E+02 -0.16547534805E+03  0.32987215391E+03  0.26236127739E+03 0.  0.
         25    1    4    4    0    0  0.60346320616E+02 -0.57392356434E+02 -0.70383000989E+02  0.16594226682E+03  0.12509000000E+03 0.  0.
         25    1    4    4    0    0  0.43943007759E+02  0.15873165416E+02 -0.95092347065E+02  0.16392988709E+03  0.12509000000E+03 0.  0.
         25    1    3    3    0    0 -0.10428932837E+03  0.41519191018E+02 -0.17556965014E+03  0.24304797342E+03  0.12509000000E+03 0.  0.
<mgrwt>
<rscale>  2 0.46035397E+03</rscale>
<asrwt>0</asrwt>
<pdfrwt beam="1">  1       21 0.17049642E-01 0.46035397E+03</pdfrwt>
<pdfrwt beam="2">  1       21 0.67203318E-01 0.46035397E+03</pdfrwt>
<totfact> 0.57886968E+04</totfact>
</mgrwt>
</event>
<event>
 7    0  0.4766352E-002  0.4570710E+03  0.7546771E-02  0.1025634E+00
         21   -1    0    0  502  501  0.00000000000E+00  0.00000000000E+00  0.67272163142E+02  0.67272163142E+02  0.00000000000E+00 0.  1.
         21   -1    0    0  501  502 -0.00000000000E+00 -0.00000000000E+00 -0.77637571197E+03  0.77637571197E+03  0.00000000000E+00 0.  1.
      99926    2    1    2    0    0  0.00000000000E+00  0.14210854715E-13 -0.70910354883E+03  0.84364787511E+03  0.45707099473E+03 0.  0.
      99925    2    3    3    0    0  0.59849355558E+01  0.11008360242E+03 -0.38419976758E+03  0.47845724798E+03  0.26297843592E+03 0.  0.
         25    1    4    4    0    0  0.64413306756E+01  0.23490821000E+02 -0.22268199366E+03  0.25656984978E+03  0.12509000000E+03 0.  0.
         25    1    3    3    0    0 -0.59849355558E+01 -0.11008360242E+03 -0.32490378125E+03  0.36519062713E+03  0.12509000000E+03 0.  0.
         25    1    4    4    0    0 -0.45639511978E+00  0.86592781423E+02 -0.16151777392E+03  0.22188739821E+03  0.12509000000E+03 0.  0.
<mgrwt>
<rscale>  2 0.45707099E+03</rscale>
<asrwt>0</asrwt>
<pdfrwt beam="1">  1       21 0.98929648E-02 0.45707099E+03</pdfrwt>
<pdfrwt beam="2">  1       21 0.11417290E+00 0.45707099E+03</pdfrwt>
<totfact> 0.44989460E+04</totfact>
</mgrwt>
</event>
<event>
 7    0  0.4766352E-002  0.4545526E+03  0.7546771E-02  0.1026373E+00
         21   -1    0    0  502  501  0.00000000000E+00  0.00000000000E+00  0.15816327099E+03  0.15816327099E+03  0.00000000000E+00 0. -1.
         21   -1    0    0  501  502 -0.00000000000E+00 -0.00000000000E+00 -0.32658985050E+03  0.32658985050E+03  0.00000000000E+00 0. -1.
      99926    2    1    2    0    0  0.13877787808E-15  0.35527136788E-14 -0.16842657950E+03  0.48475312149E+03  0.45455261093E+03 0.  0.
      99925    2    3    3    0    0  0.22607872995E+00  0.29002498064E+02 -0.22222872045E+03  0.34552893366E+03  0.26298943666E+03 0.  0.
         25    1    3    3    0    0 -0.22607872995E+00 -0.29002498064E+02  0.53802140950E+02  0.13922418783E+03  0.12509000000E+03 0.  0.
         25    1    4    4    0    0 -0.97641396552E+01 -0.22155825898E+02 -0.88438660168E+02  0.15509714297E+03  0.12509000000E+03 0.  0.
         25    1    4    4    0    0  0.99902183852E+01  0.51158323962E+02 -0.13379006029E+03  0.19043179069E+03  0.12509000000E+03 0.  0.
<mgrwt>
<rscale>  2 0.45455261E+03</rscale>
<asrwt>0</asrwt>
<pdfrwt beam="1">  1       21 0.23259305E-01 0.45455261E+03</pdfrwt>
<pdfrwt beam="2">  1       21 0.48027918E-01 0.45455261E+03</pdfrwt>
<totfact> 0.66591895E+04</totfact>
</mgrwt>
</event>
<event>
 7    0  0.4766352E-002  0.4485560E+03  0.7546771E-02  0.1028154E+00
         21   -1    0    0  502  501  0.00000000000E+00  0.00000000000E+00  0.49378594122E+03  0.49378594122E+03  0.00000000000E+00 0. -1.
         21   -1    0    0  501  502 -0.00000000000E+00 -0.00000000000E+00 -0.10186727614E+03  0.10186727614E+03  0.00000000000E+00 0. -1.
      99926    2    1    2    0    0  0.00000000000E+00  0.00000000000E+00  0.39191866508E+03  0.59565321737E+03  0.44855603365E+03 0.  0.
      99925    2    3    3    0    0 -0.82146036455E+02 -0.61829779427E+02  0.28656712765E+03  0.40247623254E+03  0.26324039617E+03 0.  0.
         25    1    4    4    0    0 -0.17272076619E+02 -0.60430224087E+02  0.12080206957E+03  0.18490750317E+03  0.12509000000E+03 0.  0.
         25    1    4    4    0    0 -0.64873959836E+02 -0.13995553402E+01  0.16576505808E+03  0.21756872937E+03  0.12509000000E+03 0.  0.
         25    1    3    3    0    0  0.82146036455E+02  0.61829779427E+02  0.10535153743E+03  0.19317698483E+03  0.12509000000E+03 0.  0.
<mgrwt>
<rscale>  2 0.44855603E+03</rscale>
<asrwt>0</asrwt>
<pdfrwt beam="1">  1       21 0.72615579E-01 0.44855603E+03</pdfrwt>
<pdfrwt beam="2">  1       21 0.14980482E-01 0.44855603E+03</pdfrwt>
<totfact> 0.62046193E+04</totfact>
</mgrwt>
</event>
<event>
 7    0  0.4766352E-002  0.4086833E+03  0.7546771E-02  0.1040814E+00
         21   -1    0    0  502  501  0.00000000000E+00  0.00000000000E+00  0.19829597104E+03  0.19829597104E+03  0.00000000000E+00 0. -1.
         21   -1    0    0  501  502 -0.00000000000E+00 -0.00000000000E+00 -0.21057168856E+03  0.21057168856E+03  0.00000000000E+00 0. -1.
      99926    2    1    2    0    0  0.00000000000E+00  0.00000000000E+00 -0.12275717526E+02  0.40886765960E+03  0.40868333686E+03 0.  0.
      99925    2    3    3    0    0 -0.40088948865E+02 -0.18406378315E+02  0.32815390766E+02  0.26877256785E+03  0.26308919548E+03 0.  0.
         25    1    4    4    0    0 -0.59272637571E+02 -0.11490713870E+02  0.29452144476E+02  0.14198668594E+03  0.12509000000E+03 0.  0.
         25    1    3    3    0    0  0.40088948865E+02  0.18406378315E+02 -0.45091108291E+02  0.14009509174E+03  0.12509000000E+03 0.  0.
         25    1    4    4    0    0  0.19183688706E+02 -0.69156644456E+01  0.33632462894E+01  0.12678588191E+03  0.12509000000E+03 0.  0.
<mgrwt>
<rscale>  2 0.40868334E+03</rscale>
<asrwt>0</asrwt>
<pdfrwt beam="1">  1       21 0.29161172E-01 0.40868334E+03</pdfrwt>
<pdfrwt beam="2">  1       21 0.30966425E-01 0.40868334E+03</pdfrwt>
<totfact> 0.10622080E+05</totfact>
</mgrwt>
</event>
<event>
 7    0  0.4766352E-002  0.4942763E+03  0.7546771E-02  0.1015284E+00
         21   -1    0    0  502  501  0.00000000000E+00  0.00000000000E+00  0.73548064878E+03  0.73548064878E+03  0.00000000000E+00 0. -1.
         21   -1    0    0  501  502 -0.00000000000E+00 -0.00000000000E+00 -0.83044009456E+02  0.83044009456E+02  0.00000000000E+00 0. -1.
      99926    2    1    2    0    0  0.14210854715E-13 -0.14210854715E-13  0.65243663932E+03  0.81852465823E+03  0.49427628692E+03 0.  0.
      99925    2    3    3    0    0  0.78177648110E+02 -0.12130694208E+03  0.44477284113E+03  0.53639192344E+03  0.26280467361E+03 0.  0.
         25    1    4    4    0    0  0.24678875251E+02 -0.26746836928E+02  0.15385560551E+03  0.20160232047E+03  0.12509000000E+03 0.  0.
         25    1    3    3    0    0 -0.78177648110E+02  0.12130694208E+03  0.20766379820E+03  0.28213273479E+03  0.12509000000E+03 0.  0.
         25    1    4    4    0    0  0.53498772859E+02 -0.94560105153E+02  0.29091723561E+03  0.33478960298E+03  0.12509000000E+03 0.  0.
<mgrwt>
<rscale>  2 0.49427629E+03</rscale>
<asrwt>0</asrwt>
<pdfrwt beam="1">  1       21 0.10815892E+00 0.49427629E+03</pdfrwt>
<pdfrwt beam="2">  1       21 0.12212355E-01 0.49427629E+03</pdfrwt>
<totfact> 0.34838090E+04</totfact>
</mgrwt>
</event>
<event>
 7    0  0.4766352E-002  0.4569147E+03  0.7546771E-02  0.1025680E+00
         21   -1    0    0  502  501  0.00000000000E+00  0.00000000000E+00  0.49647035171E+02  0.49647035171E+02  0.00000000000E+00 0. -1.
         21   -1    0    0  501  502 -0.00000000000E+00 -0.00000000000E+00 -0.10512766149E+04  0.10512766149E+04  0.00000000000E+00 0. -1.
      99926    2    1    2    0    0 -0.71054273576E-14  0.00000000000E+00 -0.10016295798E+04  0.11009236501E+04  0.45691472761E+03 0.  0.
      99925    2    3    3    0    0  0.61456959389E+02  0.91808955668E+02 -0.70573580723E+03  0.76120836502E+03  0.26300057637E+03 0.  0.
         25    1    3    3    0    0 -0.61456959389E+02 -0.91808955668E+02 -0.29589377253E+03  0.33971528509E+03  0.12509000000E+03 0.  0.
         25    1    4    4    0    0  0.72357036548E+02  0.47851549899E+02 -0.37555416639E+03  0.40523295961E+03  0.12509000000E+03 0.  0.
         25    1    4    4    0    0 -0.10900077159E+02  0.43957405769E+02 -0.33018164085E+03  0.35597540541E+03  0.12509000000E+03 0.  0.
<mgrwt>
<rscale>  2 0.45691473E+03</rscale>
<asrwt>0</asrwt>
<pdfrwt beam="1">  1       21 0.73010350E-02 0.45691473E+03</pdfrwt>
<pdfrwt beam="2">  1       21 0.15459949E+00 0.45691473E+03</pdfrwt>
<totfact> 0.34937441E+04</totfact>
</mgrwt>
</event>
<event>
 7    0  0.4766352E-002  0.4636215E+03  0.7546771E-02  0.1023736E+00
         21   -1    0    0  502  501  0.00000000000E+00  0.00000000000E+00  0.79948877286E+02  0.79948877286E+02  0.00000000000E+00 0.  1.
         21   -1    0    0  501  502 -0.00000000000E+00 -0.00000000000E+00 -0.67213233758E+03  0.67213233758E+03  0.00000000000E+00 0.  1.
      99926    2    1    2    0    0  0.00000000000E+00  0.17763568394E-14 -0.59218346029E+03  0.75208121486E+03  0.46362150846E+03 0.  0.
      99925    2    3    3    0    0 -0.10729593700E+03  0.92642903973E+01 -0.28009215297E+03  0.39902776653E+03  0.26300817313E+03 0.  0.
         25    1    4    4    0    0 -0.10411031105E+02  0.10419489417E+02 -0.12666370655E+03  0.17862854751E+03  0.12509000000E+03 0.  0.
         25    1    3    3    0    0  0.10729593700E+03 -0.92642903973E+01 -0.31209130732E+03  0.35305344833E+03  0.12509000000E+03 0.  0.
         25    1    4    4    0    0 -0.96884905894E+02 -0.11551990199E+01 -0.15342844642E+03  0.22039921902E+03  0.12509000000E+03 0.  0.
<mgrwt>
<rscale>  2 0.46362151E+03</rscale>
<asrwt>0</asrwt>
<pdfrwt beam="1">  1       21 0.11757188E-01 0.46362151E+03</pdfrwt>
<pdfrwt beam="2">  1       21 0.98842992E-01 0.46362151E+03</pdfrwt>
<totfact> 0.46904933E+04</totfact>
</mgrwt>
</event>
<event>
 7    0  0.4766352E-002  0.4462969E+03  0.7546771E-02  0.1028832E+00
         21   -1    0    0  502  501  0.00000000000E+00  0.00000000000E+00  0.18198438286E+03  0.18198438286E+03  0.00000000000E+00 0.  1.
         21   -1    0    0  501  502 -0.00000000000E+00 -0.00000000000E+00 -0.27362360285E+03  0.27362360285E+03  0.00000000000E+00 0.  1.
      99926    2    1    2    0    0  0.00000000000E+00  0.71054273576E-14 -0.91639219988E+02  0.45560798572E+03  0.44629686309E+03 0.  0.
      99925    2    3    3    0    0 -0.44420928081E+02  0.44649159519E+02  0.26630785895E+02  0.27229931519E+03  0.26357342810E+03 0.  0.
         25    1    4    4    0    0 -0.77348168234E+00  0.18691312121E+02 -0.22818407971E+02  0.12852296007E+03  0.12509000000E+03 0.  0.
         25    1    4    4    0    0 -0.43647446399E+02  0.25957847398E+02  0.49449193865E+02  0.14377635512E+03  0.12509000000E+03 0.  0.
         25    1    3    3    0    0  0.44420928081E+02 -0.44649159519E+02 -0.11827000588E+03  0.18330867052E+03  0.12509000000E+03 0.  0.
<mgrwt>
<rscale>  2 0.44629686E+03</rscale>
<asrwt>0</asrwt>
<pdfrwt beam="1">  1       21 0.26762409E-01 0.44629686E+03</pdfrwt>
<pdfrwt beam="2">  1       21 0.40238765E-01 0.44629686E+03</pdfrwt>
<totfact> 0.73463768E+04</totfact>
</mgrwt>
</event>
<event>
 7    0  0.4766352E-002  0.4549870E+03  0.7546771E-02  0.1026245E+00
         21   -1    0    0  502  501  0.00000000000E+00  0.00000000000E+00  0.21238609031E+03  0.21238609031E+03  0.00000000000E+00 0. -1.
         21   -1    0    0  501  502 -0.00000000000E+00 -0.00000000000E+00 -0.24367547785E+03  0.24367547785E+03  0.00000000000E+00 0. -1.
      99926    2    1    2    0    0  0.00000000000E+00  0.00000000000E+00 -0.31289387542E+02  0.45606156817E+03  0.45498695386E+03 0.  0.
      99925    2    3    3    0    0 -0.79244617837E+02 -0.71722266325E+02 -0.57042925511E+02  0.28952464805E+03  0.26295785506E+03 0.  0.
         25    1    4    4    0    0 -0.47595641305E+02 -0.74255672503E+02 -0.14993831639E+02  0.15379067936E+03  0.12509000000E+03 0.  0.
         25    1    3    3    0    0  0.79244617837E+02  0.71722266325E+02  0.25753537969E+02  0.16653692011E+03  0.12509000000E+03 0.  0.
         25    1    4    4    0    0 -0.31648976532E+02  0.25334061778E+01 -0.42049093872E+02  0.13573396870E+03  0.12509000000E+03 0.  0.
<mgrwt>
<rscale>  2 0.45498695E+03</rscale>
<asrwt>0</asrwt>
<pdfrwt beam="1">  1       21 0.31233249E-01 0.45498695E+03</pdfrwt>
<pdfrwt beam="2">  1       21 0.35834629E-01 0.45498695E+03</pdfrwt>
<totfact> 0.68475257E+04</totfact>
</mgrwt>
</event>
<event>
 7    0  0.4766352E-002  0.4502477E+03  0.7546771E-02  0.1027648E+00
         21   -1    0    0  502  501  0.00000000000E+00  0.00000000000E+00  0.80872275193E+02  0.80872275193E+02  0.00000000000E+00 0. -1.
         21   -1    0    0  501  502 -0.00000000000E+00 -0.00000000000E+00 -0.62667637281E+03  0.62667637281E+03  0.00000000000E+00 0. -1.
      99926    2    1    2    0    0 -0.35527136788E-14  0.00000000000E+00 -0.54580409762E+03  0.70754864800E+03  0.45024768330E+03 0.  0.
      99925    2    3    3    0    0 -0.29784731892E+02  0.56910423319E+02 -0.48279439719E+03  0.55345887876E+03  0.26286949992E+03 0.  0.
         25    1    4    4    0    0  0.24878615657E+02  0.34804842330E+02 -0.22810367620E+03  0.26364581878E+03  0.12509000000E+03 0.  0.
         25    1    4    4    0    0 -0.54663347549E+02  0.22105580989E+02 -0.25469072099E+03  0.28981305998E+03  0.12509000000E+03 0.  0.
         25    1    3    3    0    0  0.29784731892E+02 -0.56910423319E+02 -0.63009700427E+02  0.15408976924E+03  0.12509000000E+03 0.  0.
<mgrwt>
<rscale>  2 0.45024768E+03</rscale>
<asrwt>0</asrwt>
<pdfrwt beam="1">  1       21 0.11892982E-01 0.45024768E+03</pdfrwt>
<pdfrwt beam="2">  1       21 0.92158287E-01 0.45024768E+03</pdfrwt>
<totfact> 0.54504644E+04</totfact>
</mgrwt>
</event>
<event>
 7    0  0.4766352E-002  0.4564767E+03  0.7546771E-02  0.1025808E+00
         21   -1    0    0  502  501  0.00000000000E+00  0.00000000000E+00  0.62162689320E+03  0.62162689320E+03  0.00000000000E+00 0.  1.
         21   -1    0    0  501  502 -0.00000000000E+00 -0.00000000000E+00 -0.83800656215E+02  0.83800656215E+02  0.00000000000E+00 0.  1.
      99926    2    1    2    0    0  0.71054273576E-14  0.00000000000E+00  0.53782623698E+03  0.70542754941E+03  0.45647668756E+03 0.  0.
      99925    2    3    3    0    0  0.35931856439E+02  0.32936158020E+02  0.17583444078E+03  0.31934276931E+03  0.26208045507E+03 0.  0.
         25    1    4    4    0    0  0.40339233741E+02  0.43801125345E+02  0.70796986216E+02  0.15558121261E+03  0.12509000000E+03 0.  0.
         25    1    3    3    0    0 -0.35931856439E+02 -0.32936158020E+02  0.36199179620E+03  0.38608478010E+03  0.12509000000E+03 0.  0.
         25    1    4    4    0    0 -0.44073773021E+01 -0.10864967325E+02  0.10503745457E+03  0.16376155670E+03  0.12509000000E+03 0.  0.
<mgrwt>
<rscale>  2 0.45647669E+03</rscale>
<asrwt>0</asrwt>
<pdfrwt beam="1">  1       21 0.91415717E-01 0.45647669E+03</pdfrwt>
<pdfrwt beam="2">  1       21 0.12323626E-01 0.45647669E+03</pdfrwt>
<totfact> 0.52002381E+04</totfact>
</mgrwt>
</event>
<event>
 7    0  0.4766352E-002  0.4551473E+03  0.7546771E-02  0.1026198E+00
         21   -1    0    0  502  501  0.00000000000E+00  0.00000000000E+00  0.10578497588E+03  0.10578497588E+03  0.00000000000E+00 0. -1.
         21   -1    0    0  501  502 -0.00000000000E+00 -0.00000000000E+00 -0.48957574075E+03  0.48957574075E+03  0.00000000000E+00 0. -1.
      99926    2    1    2    0    0  0.71054273576E-14  0.00000000000E+00 -0.38379076486E+03  0.59536071663E+03  0.45514726376E+03 0.  0.
      99925    2    3    3    0    0  0.47382396455E+02 -0.86653164157E+02 -0.31436494915E+03  0.42151793035E+03  0.26286533055E+03 0.  0.
         25    1    4    4    0    0  0.46488482487E+01 -0.58623182473E+02 -0.20710887903E+03  0.24899776141E+03  0.12509000000E+03 0.  0.
         25    1    4    4    0    0  0.42733548207E+02 -0.28029981684E+02 -0.10725607012E+03  0.17252016894E+03  0.12509000000E+03 0.  0.
         25    1    3    3    0    0 -0.47382396455E+02  0.86653164157E+02 -0.69425815717E+02  0.17384278628E+03  0.12509000000E+03 0.  0.
<mgrwt>
<rscale>  2 0.45514726E+03</rscale>
<asrwt>0</asrwt>
<pdfrwt beam="1">  1       21 0.15556614E-01 0.45514726E+03</pdfrwt>
<pdfrwt beam="2">  1       21 0.71996432E-01 0.45514726E+03</pdfrwt>
<totfact> 0.58896170E+04</totfact>
</mgrwt>
</event>
<event>
 7    0  0.4766352E-002  0.4562180E+03  0.7546771E-02  0.1025884E+00
         21   -1    0    0  502  501  0.00000000000E+00  0.00000000000E+00  0.16150856439E+03  0.16150856439E+03  0.00000000000E+00 0. -1.
         21   -1    0    0  501  502 -0.00000000000E+00 -0.00000000000E+00 -0.32217312632E+03  0.32217312632E+03  0.00000000000E+00 0. -1.
      99926    2    1    2    0    0  0.00000000000E+00  0.00000000000E+00 -0.16066456193E+03  0.48368169071E+03  0.45621801418E+03 0.  0.
      99925    2    3    3    0    0 -0.94055612900E+02 -0.26186069693E+02 -0.37912635553E+02  0.28306336629E+03  0.26297401551E+03 0.  0.
         25    1    3    3    0    0  0.94055612900E+02  0.26186069693E+02 -0.12275192638E+03  0.20061832442E+03  0.12509000000E+03 0.  0.
         25    1    4    4    0    0 -0.87321858332E+02 -0.26787194962E+02 -0.13898957456E+02  0.15550996712E+03  0.12509000000E+03 0.  0.
         25    1    4    4    0    0 -0.67337545681E+01  0.60112526952E+00 -0.24013678097E+02  0.12755339916E+03  0.12509000000E+03 0.  0.
<mgrwt>
<rscale>  2 0.45621801E+03</rscale>
<asrwt>0</asrwt>
<pdfrwt beam="1">  1       21 0.23751260E-01 0.45621801E+03</pdfrwt>
<pdfrwt beam="2">  1       21 0.47378400E-01 0.45621801E+03</pdfrwt>
<totfact> 0.65794613E+04</totfact>
</mgrwt>
</event>
<event>
 7    0  0.4766352E-002  0.4550185E+03  0.7546771E-02  0.1026236E+00
         21   -1    0    0  502  501  0.00000000000E+00  0.00000000000E+00  0.27526912257E+03  0.27526912257E+03  0.00000000000E+00 0. -1.
         21   -1    0    0  501  502 -0.00000000000E+00 -0.00000000000E+00 -0.18803582798E+03  0.18803582798E+03  0.00000000000E+00 0. -1.
      99926    2    1    2    0    0  0.00000000000E+00  0.00000000000E+00  0.87233294588E+02  0.46330495055E+03  0.45501849360E+03 0.  0.
      99925    2    3    3    0    0 -0.39432635254E+02 -0.32251655259E+02 -0.47996092922E+02  0.27217777473E+03  0.26302474053E+03 0.  0.
         25    1    4    4    0    0 -0.24065777095E+02  0.21233125580E+02 -0.39314282047E+02  0.13499306694E+03  0.12509000000E+03 0.  0.
         25    1    3    3    0    0  0.39432635254E+02  0.32251655259E+02  0.13522938751E+03  0.19112717582E+03  0.12509000000E+03 0.  0.
         25    1    4    4    0    0 -0.15366858159E+02 -0.53484780840E+02 -0.86818108750E+01  0.13718470779E+03  0.12509000000E+03 0.  0.
<mgrwt>
<rscale>  2 0.45501849E+03</rscale>
<asrwt>0</asrwt>
<pdfrwt beam="1">  1       21 0.40480754E-01 0.45501849E+03</pdfrwt>
<pdfrwt beam="2">  1       21 0.27652327E-01 0.45501849E+03</pdfrwt>
<totfact> 0.67926208E+04</totfact>
</mgrwt>
</event>
<event>
 7    0  0.4766352E-002  0.4613110E+03  0.7546771E-02  0.1024402E+00
         21   -1    0    0  502  501  0.00000000000E+00  0.00000000000E+00  0.64473013998E+02  0.64473013998E+02  0.00000000000E+00 0. -1.
         21   -1    0    0  501  502 -0.00000000000E+00 -0.00000000000E+00 -0.82518173238E+03  0.82518173238E+03  0.00000000000E+00 0. -1.
      99926    2    1    2    0    0  0.00000000000E+00  0.00000000000E+00 -0.76070871838E+03  0.88965474638E+03  0.46131097270E+03 0.  0.
      99925    2    3    3    0    0  0.38446911786E+02 -0.83325546855E+02 -0.62201107448E+03  0.68155415458E+03  0.26305318295E+03 0.  0.
         25    1    3    3    0    0 -0.38446911786E+02  0.83325546855E+02 -0.13869764390E+03  0.20810059180E+03  0.12509000000E+03 0.  0.
         25    1    4    4    0    0 -0.15842537127E+02 -0.47736114172E+02 -0.25567605260E+03  0.28904580010E+03  0.12509000000E+03 0.  0.
         25    1    4    4    0    0  0.54289448913E+02 -0.35589432683E+02 -0.36633502188E+03  0.39250835448E+03  0.12509000000E+03 0.  0.
<mgrwt>
<rscale>  2 0.46131097E+03</rscale>
<asrwt>0</asrwt>
<pdfrwt beam="1">  1       21 0.94813259E-02 0.46131097E+03</pdfrwt>
<pdfrwt beam="2">  1       21 0.12135025E+00 0.46131097E+03</pdfrwt>
<totfact> 0.41590224E+04</totfact>
</mgrwt>
</event>
<event>
 7    0  0.4766352E-002  0.4515332E+03  0.7546771E-02  0.1027266E+00
         21   -1    0    0  502  501  0.00000000000E+00  0.00000000000E+00  0.10194121717E+03  0.10194121717E+03  0.00000000000E+00 0. -1.
         21   -1    0    0  501  502 -0.00000000000E+00 -0.00000000000E+00 -0.49999947271E+03  0.49999947271E+03  0.00000000000E+00 0. -1.
      99926    2    1    2    0    0  0.00000000000E+00  0.35527136788E-14 -0.39805825554E+03  0.60194068988E+03  0.45153318740E+03 0.  0.
      99925    2    3    3    0    0 -0.49573272884E+02 -0.19285862693E+02 -0.12311576804E+03  0.29523181583E+03  0.26301117629E+03 0.  0.
         25    1    4    4    0    0 -0.54160601732E+02 -0.26834774527E+02 -0.89996522899E+02  0.16553053536E+03  0.12509000000E+03 0.  0.
         25    1    4    4    0    0  0.45873288479E+01  0.75489118344E+01 -0.33119245137E+02  0.12970128047E+03  0.12509000000E+03 0.  0.
         25    1    3    3    0    0  0.49573272884E+02  0.19285862693E+02 -0.27494248751E+03  0.30670887405E+03  0.12509000000E+03 0.  0.
<mgrwt>
<rscale>  2 0.45153319E+03</rscale>
<asrwt>0</asrwt>
<pdfrwt beam="1">  1       21 0.14991356E-01 0.45153319E+03</pdfrwt>
<pdfrwt beam="2">  1       21 0.73529331E-01 0.45153319E+03</pdfrwt>
<totfact> 0.60190743E+04</totfact>
</mgrwt>
</event>
<event>
 7    0  0.4766352E-002  0.4526110E+03  0.7546771E-02  0.1026946E+00
         21   -1    0    0  502  501  0.00000000000E+00  0.00000000000E+00  0.54181260245E+02  0.54181260245E+02  0.00000000000E+00 0. -1.
         21   -1    0    0  501  502 -0.00000000000E+00 -0.00000000000E+00 -0.94523792196E+03  0.94523792196E+03  0.00000000000E+00 0. -1.
      99926    2    1    2    0    0  0.00000000000E+00  0.00000000000E+00 -0.89105666172E+03  0.99941918221E+03  0.45261101111E+03 0.  0.
      99925    2    3    3    0    0 -0.32375878607E+01 -0.10570971941E+03 -0.63675549848E+03  0.69692684102E+03  0.26280112278E+03 0.  0.
         25    1    4    4    0    0 -0.72619175586E+01 -0.54703287186E+02 -0.22216225250E+03  0.26086157174E+03  0.12509000000E+03 0.  0.
         25    1    3    3    0    0  0.32375878607E+01  0.10570971941E+03 -0.25430116324E+03  0.30249234119E+03  0.12509000000E+03 0.  0.
         25    1    4    4    0    0  0.40243296979E+01 -0.51006432228E+02 -0.41459324598E+03  0.43606526928E+03  0.12509000000E+03 0.  0.
<mgrwt>
<rscale>  2 0.45261101E+03</rscale>
<asrwt>0</asrwt>
<pdfrwt beam="1">  1       21 0.79678322E-02 0.45261101E+03</pdfrwt>
<pdfrwt beam="2">  1       21 0.13900558E+00 0.45261101E+03</pdfrwt>
<totfact> 0.39929190E+04</totfact>
</mgrwt>
</event>
<event>
 7    0  0.4766352E-002  0.4517653E+03  0.7546771E-02  0.1027197E+00
         21   -1    0    0  502  501  0.00000000000E+00  0.00000000000E+00  0.38960681946E+02  0.38960681946E+02  0.00000000000E+00 0.  1.
         21   -1    0    0  501  502 -0.00000000000E+00 -0.00000000000E+00 -0.13096014508E+04  0.13096014508E+04  0.00000000000E+00 0.  1.
      99926    2    1    2    0    0 -0.17763568394E-14  0.00000000000E+00 -0.12706407689E+04  0.13485621328E+04  0.45176527358E+03 0.  0.
      99925    2    3    3    0    0 -0.29384082770E+01  0.85503334077E+02 -0.10088739237E+04  0.10460909049E+04  0.26298314190E+03 0.  0.
         25    1    4    4    0    0 -0.19525824112E+02  0.17606785532E+02 -0.37375745059E+03  0.39501062856E+03  0.12509000000E+03 0.  0.
         25    1    3    3    0    0  0.29384082770E+01 -0.85503334077E+02 -0.26176684520E+03  0.30247122793E+03  0.12509000000E+03 0.  0.
         25    1    4    4    0    0  0.16587415835E+02  0.67896548545E+02 -0.63511647311E+03  0.65108027630E+03  0.12509000000E+03 0.  0.
<mgrwt>
<rscale>  2 0.45176527E+03</rscale>
<asrwt>0</asrwt>
<pdfrwt beam="1">  1       21 0.57295116E-02 0.45176527E+03</pdfrwt>
<pdfrwt beam="2">  1       21 0.19258846E+00 0.45176527E+03</pdfrwt>
<totfact> 0.28444049E+04</totfact>
</mgrwt>
</event>
<event>
 7    0  0.4766352E-002  0.4579005E+03  0.7546771E-02  0.1025392E+00
         21   -1    0    0  502  501  0.00000000000E+00  0.00000000000E+00  0.10871810148E+03  0.10871810148E+03  0.00000000000E+00 0.  1.
         21   -1    0    0  501  502 -0.00000000000E+00 -0.00000000000E+00 -0.48214793272E+03  0.48214793272E+03  0.00000000000E+00 0.  1.
      99926    2    1    2    0    0  0.00000000000E+00  0.00000000000E+00 -0.37342983124E+03  0.59086603420E+03  0.45790046026E+03 0.  0.
      99925    2    3    3    0    0 -0.72005473168E+02 -0.71072043521E+02 -0.16150233131E+03  0.32478935941E+03  0.26300019284E+03 0.  0.
         25    1    4    4    0    0 -0.11636992812E+01 -0.22336617623E+02 -0.50505420437E+02  0.13674276682E+03  0.12509000000E+03 0.  0.
         25    1    3    3    0    0  0.72005473168E+02  0.71072043521E+02 -0.21192749993E+03  0.26607667478E+03  0.12509000000E+03 0.  0.
         25    1    4    4    0    0 -0.70841773887E+02 -0.48735425898E+02 -0.11099691087E+03  0.18804659260E+03  0.12509000000E+03 0.  0.
<mgrwt>
<rscale>  2 0.45790046E+03</rscale>
<asrwt>0</asrwt>
<pdfrwt beam="1">  1       21 0.15987956E-01 0.45790046E+03</pdfrwt>
<pdfrwt beam="2">  1       21 0.70904109E-01 0.45790046E+03</pdfrwt>
<totfact> 0.57905183E+04</totfact>
</mgrwt>
</event>
<event>
 7    0  0.4766352E-002  0.4711439E+03  0.7546771E-02  0.1021598E+00
         21   -1    0    0  502  501  0.00000000000E+00  0.00000000000E+00  0.26198543623E+03  0.26198543623E+03  0.00000000000E+00 0.  1.
         21   -1    0    0  501  502 -0.00000000000E+00 -0.00000000000E+00 -0.21182145545E+03  0.21182145545E+03  0.00000000000E+00 0.  1.
      99926    2    1    2    0    0  0.00000000000E+00  0.35527136788E-14  0.50163980782E+02  0.47380689169E+03  0.47114386937E+03 0.  0.
      99925    2    3    3    0    0  0.10209566352E+03  0.16127649876E+02  0.10653575629E+03  0.30202531301E+03  0.26303193101E+03 0.  0.
         25    1    4    4    0    0  0.50190288448E+02 -0.45283233281E+00  0.95397906846E+02  0.16512885527E+03  0.12509000000E+03 0.  0.
         25    1    3    3    0    0 -0.10209566352E+03 -0.16127649876E+02 -0.56371775507E+02  0.17178157868E+03  0.12509000000E+03 0.  0.
         25    1    4    4    0    0  0.51905375070E+02  0.16580482209E+02  0.11137849443E+02  0.13689645774E+03  0.12509000000E+03 0.  0.
<mgrwt>
<rscale>  2 0.47114387E+03</rscale>
<asrwt>0</asrwt>
<pdfrwt beam="1">  1       21 0.38527270E-01 0.47114387E+03</pdfrwt>
<pdfrwt beam="2">  1       21 0.31150214E-01 0.47114387E+03</pdfrwt>
<totfact> 0.59190058E+04</totfact>
</mgrwt>
</event>
<event>
 7    0  0.4766352E-002  0.4577782E+03  0.7546771E-02  0.1025428E+00
         21   -1    0    0  502  501  0.00000000000E+00  0.00000000000E+00  0.19731675472E+03  0.19731675472E+03  0.00000000000E+00 0.  1.
         21   -1    0    0  501  502 -0.00000000000E+00 -0.00000000000E+00 -0.26551334438E+03  0.26551334438E+03  0.00000000000E+00 0.  1.
      99926    2    1    2    0    0  0.14210854715E-13  0.00000000000E+00 -0.68196589663E+02  0.46283009910E+03  0.45777824958E+03 0.  0.
      99925    2    3    3    0    0  0.93872228169E+02 -0.67462445226E+02 -0.40340817561E+02  0.29024206685E+03  0.26315375557E+03 0.  0.
         25    1    3    3    0    0 -0.93872228169E+02  0.67462445226E+02 -0.27855772102E+02  0.17258803225E+03  0.12509000000E+03 0.  0.
         25    1    4    4    0    0  0.74794045113E+02 -0.54228696442E+02 -0.48108603857E+02  0.16277851998E+03  0.12509000000E+03 0.  0.
         25    1    4    4    0    0  0.19078183056E+02 -0.13233748783E+02  0.77677862957E+01  0.12746354687E+03  0.12509000000E+03 0.  0.
<mgrwt>
<rscale>  2 0.45777825E+03</rscale>
<asrwt>0</asrwt>
<pdfrwt beam="1">  1       21 0.29017170E-01 0.45777825E+03</pdfrwt>
<pdfrwt beam="2">  1       21 0.39046080E-01 0.45777825E+03</pdfrwt>
<totfact> 0.66489439E+04</totfact>
</mgrwt>
</event>
<event>
 7    0  0.4766352E-002  0.4447031E+03  0.7546771E-02  0.1029314E+00
         21   -1    0    0  502  501  0.00000000000E+00  0.00000000000E+00  0.48407524399E+03  0.48407524399E+03  0.00000000000E+00 0.  1.
         21   -1    0    0  501  502 -0.00000000000E+00 -0.00000000000E+00 -0.10213330613E+03  0.10213330613E+03  0.00000000000E+00 0.  1.
      99926    2    1    2    0    0  0.11102230246E-15 -0.14210854715E-13  0.38194193786E+03  0.58620855012E+03  0.44470306986E+03 0.  0.
      99925    2    3    3    0    0  0.52639271950E+00 -0.91989945089E+02  0.18063885901E+03  0.33197860550E+03  0.26290106512E+03 0.  0.
         25    1    3    3    0    0 -0.52639271950E+00  0.91989945089E+02  0.20130307885E+03  0.25422994462E+03  0.12509000000E+03 0.  0.
         25    1    4    4    0    0  0.20196168345E+00 -0.26783457415E+02  0.43182063920E+02  0.13501701050E+03  0.12509000000E+03 0.  0.
         25    1    4    4    0    0  0.32443103605E+00 -0.65206487674E+02  0.13745679509E+03  0.19696159500E+03  0.12509000000E+03 0.  0.
<mgrwt>
<rscale>  2 0.44470307E+03</rscale>
<asrwt>0</asrwt>
<pdfrwt beam="1">  1       21 0.71187535E-01 0.44470307E+03</pdfrwt>
<pdfrwt beam="2">  1       21 0.15019604E-01 0.44470307E+03</pdfrwt>
<totfact> 0.64637533E+04</totfact>
</mgrwt>
</event>
<event>
 7    0  0.4766352E-002  0.4961633E+03  0.7546771E-02  0.1014785E+00
         21   -1    0    0  502  501  0.00000000000E+00  0.00000000000E+00  0.22623805555E+03  0.22623805555E+03  0.00000000000E+00 0.  1.
         21   -1    0    0  501  502 -0.00000000000E+00 -0.00000000000E+00 -0.27203425782E+03  0.27203425782E+03  0.00000000000E+00 0.  1.
      99926    2    1    2    0    0 -0.14210854715E-13  0.35527136788E-14 -0.45796202273E+02  0.49827231337E+03  0.49616328575E+03 0.  0.
      99925    2    3    3    0    0 -0.73583324570E+02  0.24616212249E+02  0.99412154353E+02  0.29150326710E+03  0.26281345996E+03 0.  0.
         25    1    3    3    0    0  0.73583324570E+02 -0.24616212249E+02 -0.14520835663E+03  0.20676904627E+03  0.12509000000E+03 0.  0.
         25    1    4    4    0    0 -0.44346518860E+02 -0.16275051090E+02  0.78573872226E+02  0.15508982081E+03  0.12509000000E+03 0.  0.
         25    1    4    4    0    0 -0.29236805710E+02  0.40891263339E+02  0.20838282128E+02  0.13641344629E+03  0.12509000000E+03 0.  0.
<mgrwt>
<rscale>  2 0.49616329E+03</rscale>
<asrwt>0</asrwt>
<pdfrwt beam="1">  1       21 0.33270303E-01 0.49616329E+03</pdfrwt>
<pdfrwt beam="2">  1       21 0.40005038E-01 0.49616329E+03</pdfrwt>
<totfact> 0.47761876E+04</totfact>
</mgrwt>
</event>
<event>
 7    0  0.4766352E-002  0.4560469E+03  0.7546771E-02  0.1025934E+00
         21   -1    0    0  502  501  0.00000000000E+00  0.00000000000E+00  0.27016966254E+03  0.27016966254E+03  0.00000000000E+00 0. -1.
         21   -1    0    0  501  502 -0.00000000000E+00 -0.00000000000E+00 -0.19245199676E+03  0.19245199676E+03  0.00000000000E+00 0. -1.
      99926    2    1    2    0    0 -0.71054273576E-14  0.00000000000E+00  0.77717665779E+02  0.46262165931E+03  0.45604688803E+03 0.  0.
      99925    2    3    3    0    0 -0.53397482134E+02  0.98333006322E+02  0.25874601494E+02  0.28696323325E+03  0.26297857518E+03 0.  0.
         25    1    4    4    0    0 -0.29454638371E+02  0.92220540888E+02  0.18296200036E+02  0.15923084789E+03  0.12509000000E+03 0.  0.
         25    1    3    3    0    0  0.53397482134E+02 -0.98333006322E+02  0.51843064284E+02  0.17565842606E+03  0.12509000000E+03 0.  0.
         25    1    4    4    0    0 -0.23942843763E+02  0.61124654337E+01  0.75784014588E+01  0.12773238536E+03  0.12509000000E+03 0.  0.
<mgrwt>
<rscale>  2 0.45604689E+03</rscale>
<asrwt>0</asrwt>
<pdfrwt beam="1">  1       21 0.39730833E-01 0.45604689E+03</pdfrwt>
<pdfrwt beam="2">  1       21 0.28301764E-01 0.45604689E+03</pdfrwt>
<totfact> 0.67424143E+04</totfact>
</mgrwt>
</event>
<event>
 7    0  0.4766352E-002  0.4556019E+03  0.7546771E-02  0.1026065E+00
         21   -1    0    0  502  501  0.00000000000E+00  0.00000000000E+00  0.43570461888E+03  0.43570461888E+03  0.00000000000E+00 0.  1.
         21   -1    0    0  501  502 -0.00000000000E+00 -0.00000000000E+00 -0.11910198167E+03  0.11910198167E+03  0.00000000000E+00 0.  1.
      99926    2    1    2    0    0  0.00000000000E+00  0.00000000000E+00  0.31660263722E+03  0.55480660055E+03  0.45560194701E+03 0.  0.
      99925    2    3    3    0    0  0.72933212647E+02 -0.24784753096E+02  0.97917672958E+02  0.29135990920E+03  0.26338031156E+03 0.  0.
         25    1    4    4    0    0  0.61996883948E+02 -0.13745671914E+02  0.86459614978E+02  0.16478874427E+03  0.12509000000E+03 0.  0.
         25    1    4    4    0    0  0.10936328699E+02 -0.11039081183E+02  0.11458057980E+02  0.12657116493E+03  0.12509000000E+03 0.  0.
         25    1    3    3    0    0 -0.72933212647E+02  0.24784753096E+02  0.21868496426E+03  0.26344669135E+03  0.12509000000E+03 0.  0.
<mgrwt>
<rscale>  2 0.45560195E+03</rscale>
<asrwt>0</asrwt>
<pdfrwt beam="1">  1       21 0.64074208E-01 0.45560195E+03</pdfrwt>
<pdfrwt beam="2">  1       21 0.17514997E-01 0.45560195E+03</pdfrwt>
<totfact> 0.61257772E+04</totfact>
</mgrwt>
</event>
<event>
 7    0  0.4766352E-002  0.4588315E+03  0.7546771E-02  0.1025121E+00
         21   -1    0    0  502  501  0.00000000000E+00  0.00000000000E+00  0.41007000864E+03  0.41007000864E+03  0.00000000000E+00 0.  1.
         21   -1    0    0  501  502 -0.00000000000E+00 -0.00000000000E+00 -0.12834781242E+03  0.12834781242E+03  0.00000000000E+00 0.  1.
      99926    2    1    2    0    0  0.00000000000E+00  0.00000000000E+00  0.28172219622E+03  0.53841782106E+03  0.45883150959E+03 0.  0.
      99925    2    3    3    0    0 -0.88153753405E+02 -0.55455625120E+02  0.23842754039E+03  0.36998876799E+03  0.26305434005E+03 0.  0.
         25    1    4    4    0    0 -0.45227486532E+02 -0.38576721156E+02  0.17261175626E+03  0.22130525401E+03  0.12509000000E+03 0.  0.
         25    1    3    3    0    0  0.88153753405E+02  0.55455625120E+02  0.43294655823E+02  0.16842905307E+03  0.12509000000E+03 0.  0.
         25    1    4    4    0    0 -0.42926266873E+02 -0.16878903963E+02  0.65815784131E+02  0.14868351397E+03  0.12509000000E+03 0.  0.
<mgrwt>
<rscale>  2 0.45883151E+03</rscale>
<asrwt>0</asrwt>
<pdfrwt beam="1">  1       21 0.60304413E-01 0.45883151E+03</pdfrwt>
<pdfrwt beam="2">  1       21 0.18874678E-01 0.45883151E+03</pdfrwt>
<totfact> 0.60773767E+04</totfact>
</mgrwt>
</event>
<event>
 7    0  0.4766352E-002  0.4495720E+03  0.7546771E-02  0.1027850E+00
         21   -1    0    0  502  501  0.00000000000E+00  0.00000000000E+00  0.13525279206E+04  0.13525279206E+04  0.00000000000E+00 0.  1.
         21   -1    0    0  501  502 -0.00000000000E+00 -0.00000000000E+00 -0.37358751281E+02  0.37358751281E+02  0.00000000000E+00 0.  1.
      99926    2    1    2    0    0  0.00000000000E+00 -0.71054273576E-14  0.13151691693E+04  0.13898866719E+04  0.44957203733E+03 0.  0.
      99925    2    3    3    0    0  0.97714838559E+02  0.36377964612E+02  0.74347018473E+03  0.79544678168E+03  0.26289945020E+03 0.  0.
         25    1    3    3    0    0 -0.97714838559E+02 -0.36377964612E+02  0.57169898461E+03  0.59443989023E+03  0.12509000000E+03 0.  0.
         25    1    4    4    0    0  0.41274316951E+02 -0.13129199818E+02  0.42526547379E+03  0.44539216026E+03  0.12509000000E+03 0.  0.
         25    1    4    4    0    0  0.56440521608E+02  0.49507164430E+02  0.31820471094E+03  0.35005462142E+03  0.12509000000E+03 0.  0.
<mgrwt>
<rscale>  2 0.44957204E+03</rscale>
<asrwt>0</asrwt>
<pdfrwt beam="1">  1       21 0.19890113E+00 0.44957204E+03</pdfrwt>
<pdfrwt beam="2">  1       21 0.54939349E-02 0.44957204E+03</pdfrwt>
<totfact> 0.27755254E+04</totfact>
</mgrwt>
</event>
<event>
 7    0  0.4766352E-002  0.4314744E+03  0.7546771E-02  0.1033395E+00
         21   -1    0    0  502  501  0.00000000000E+00  0.00000000000E+00  0.24286025004E+03  0.24286025004E+03  0.00000000000E+00 0.  1.
         21   -1    0    0  501  502 -0.00000000000E+00 -0.00000000000E+00 -0.19164331181E+03  0.19164331181E+03  0.00000000000E+00 0.  1.
      99926    2    1    2    0    0  0.00000000000E+00  0.00000000000E+00  0.51216938228E+02  0.43450356184E+03  0.43147441465E+03 0.  0.
      99925    2    3    3    0    0  0.65476534769E+02  0.29425650974E+02 -0.21255360913E+02  0.27309480191E+03  0.26263269964E+03 0.  0.
         25    1    4    4    0    0  0.29515849831E+02 -0.19643111469E+02  0.10422918030E+02  0.13043459104E+03  0.12509000000E+03 0.  0.
         25    1    3    3    0    0 -0.65476534769E+02 -0.29425650974E+02  0.72472299142E+02  0.16140875993E+03  0.12509000000E+03 0.  0.
         25    1    4    4    0    0  0.35960684938E+02  0.49068762443E+02 -0.31678278943E+02  0.14266021087E+03  0.12509000000E+03 0.  0.
<mgrwt>
<rscale>  2 0.43147441E+03</rscale>
<asrwt>0</asrwt>
<pdfrwt beam="1">  1       21 0.35714743E-01 0.43147441E+03</pdfrwt>
<pdfrwt beam="2">  1       21 0.28182840E-01 0.43147441E+03</pdfrwt>
<totfact> 0.84930327E+04</totfact>
</mgrwt>
</event>
<event>
 7    0  0.4766352E-002  0.4505071E+03  0.7546771E-02  0.1027571E+00
         21   -1    0    0  502  501  0.00000000000E+00  0.00000000000E+00  0.37094352151E+03  0.37094352151E+03  0.00000000000E+00 0.  1.
         21   -1    0    0  501  502 -0.00000000000E+00 -0.00000000000E+00 -0.13678405932E+03  0.13678405932E+03  0.00000000000E+00 0.  1.
      99926    2    1    2    0    0  0.71054273576E-14  0.00000000000E+00  0.23415946219E+03  0.50772758083E+03  0.45050709496E+03 0.  0.
      99925    2    3    3    0    0 -0.52225921406E+02 -0.48694117287E+02  0.55326067682E+02  0.27810276724E+03  0.26302378497E+03 0.  0.
         25    1    3    3    0    0  0.52225921406E+02  0.48694117287E+02  0.17883339451E+03  0.22962481359E+03  0.12509000000E+03 0.  0.
         25    1    4    4    0    0 -0.57950264196E+02 -0.18776576541E+02  0.31021022499E+01  0.13916868931E+03  0.12509000000E+03 0.  0.
         25    1    4    4    0    0  0.57243427896E+01 -0.29917540746E+02  0.52223965432E+02  0.13893407793E+03  0.12509000000E+03 0.  0.
<mgrwt>
<rscale>  2 0.45050709E+03</rscale>
<asrwt>0</asrwt>
<pdfrwt beam="1">  1       21 0.54550518E-01 0.45050709E+03</pdfrwt>
<pdfrwt beam="2">  1       21 0.20115303E-01 0.45050709E+03</pdfrwt>
<totfact> 0.67091650E+04</totfact>
</mgrwt>
</event>
<event>
 7    0  0.4766352E-002  0.4638862E+03  0.7546771E-02  0.1023660E+00
         21   -1    0    0  502  501  0.00000000000E+00  0.00000000000E+00  0.21486218606E+03  0.21486218606E+03  0.00000000000E+00 0. -1.
         21   -1    0    0  501  502 -0.00000000000E+00 -0.00000000000E+00 -0.25038194780E+03  0.25038194780E+03  0.00000000000E+00 0. -1.
      99926    2    1    2    0    0  0.00000000000E+00  0.00000000000E+00 -0.35519761741E+02  0.46524413386E+03  0.46388624750E+03 0.  0.
      99925    2    3    3    0    0  0.40265410480E+02  0.86117975739E+02 -0.97676421772E+02  0.29628092037E+03  0.26306670519E+03 0.  0.
         25    1    3    3    0    0 -0.40265410480E+02 -0.86117975739E+02  0.62156660031E+02  0.16896321349E+03  0.12509000000E+03 0.  0.
         25    1    4    4    0    0  0.35882542802E+02  0.27527352823E+02 -0.84199377712E+02  0.15742412566E+03  0.12509000000E+03 0.  0.
         25    1    4    4    0    0  0.43828676781E+01  0.58590622916E+02 -0.13477044060E+02  0.13885679472E+03  0.12509000000E+03 0.  0.
<mgrwt>
<rscale>  2 0.46388625E+03</rscale>
<asrwt>0</asrwt>
<pdfrwt beam="1">  1       21 0.31597380E-01 0.46388625E+03</pdfrwt>
<pdfrwt beam="2">  1       21 0.36820875E-01 0.46388625E+03</pdfrwt>
<totfact> 0.63200518E+04</totfact>
</mgrwt>
</event>
<event>
 7    0  0.4766352E-002  0.4518414E+03  0.7546771E-02  0.1027174E+00
         21   -1    0    0  502  501  0.00000000000E+00  0.00000000000E+00  0.26742313487E+03  0.26742313487E+03  0.00000000000E+00 0.  1.
         21   -1    0    0  501  502 -0.00000000000E+00 -0.00000000000E+00 -0.19085916159E+03  0.19085916159E+03  0.00000000000E+00 0.  1.
      99926    2    1    2    0    0 -0.71054273576E-14  0.00000000000E+00  0.76563973278E+02  0.45828229647E+03  0.45184136735E+03 0.  0.
      99925    2    3    3    0    0  0.58745918919E+02 -0.87796282111E+02  0.79962252299E+02  0.29451927701E+03  0.26303682745E+03 0.  0.
         25    1    3    3    0    0 -0.58745918919E+02  0.87796282111E+02 -0.33982790214E+01  0.16376301946E+03  0.12509000000E+03 0.  0.
         25    1    4    4    0    0  0.39901189381E+02 -0.37222018605E+01  0.31400762938E+02  0.13505360311E+03  0.12509000000E+03 0.  0.
         25    1    4    4    0    0  0.18844729538E+02 -0.84074080251E+02  0.48561489362E+02  0.15946567389E+03  0.12509000000E+03 0.  0.
<mgrwt>
<rscale>  2 0.45184137E+03</rscale>
<asrwt>0</asrwt>
<pdfrwt beam="1">  1       21 0.39326932E-01 0.45184137E+03</pdfrwt>
<pdfrwt beam="2">  1       21 0.28067524E-01 0.45184137E+03</pdfrwt>
<totfact> 0.70053801E+04</totfact>
</mgrwt>
</event>
<event>
 7    0  0.4766352E-002  0.4580557E+03  0.7546771E-02  0.1025347E+00
         21   -1    0    0  502  501  0.00000000000E+00  0.00000000000E+00  0.12439895165E+04  0.12439895165E+04  0.00000000000E+00 0.  1.
         21   -1    0    0  501  502 -0.00000000000E+00 -0.00000000000E+00 -0.42165749271E+02  0.42165749271E+02  0.00000000000E+00 0.  1.
      99926    2    1    2    0    0  0.00000000000E+00  0.00000000000E+00  0.12018237673E+04  0.12861552658E+04  0.45805567369E+03 0.  0.
      99925    2    3    3    0    0 -0.26044991351E+02 -0.11134668498E+03  0.80878847695E+03  0.85813578802E+03  0.26302434185E+03 0.  0.
         25    1    4    4    0    0 -0.24211406088E+02 -0.48362334533E+02  0.51407396023E+03  0.53183141339E+03  0.12509000000E+03 0.  0.
         25    1    3    3    0    0  0.26044991351E+02  0.11134668498E+03  0.39303529031E+03  0.42801947778E+03  0.12509000000E+03 0.  0.
         25    1    4    4    0    0 -0.18335852629E+01 -0.62984350444E+02  0.29471451672E+03  0.32630437463E+03  0.12509000000E+03 0.  0.
<mgrwt>
<rscale>  2 0.45805567E+03</rscale>
<asrwt>0</asrwt>
<pdfrwt beam="1">  1       21 0.18293961E+00 0.45805567E+03</pdfrwt>
<pdfrwt beam="2">  1       21 0.62008463E-02 0.45805567E+03</pdfrwt>
<totfact> 0.28827976E+04</totfact>
</mgrwt>
</event>
<event>
 7    0  0.4766352E-002  0.4500347E+03  0.7546771E-02  0.1027712E+00
         21   -1    0    0  502  501  0.00000000000E+00  0.00000000000E+00  0.11784574893E+03  0.11784574893E+03  0.00000000000E+00 0. -1.
         21   -1    0    0  501  502 -0.00000000000E+00 -0.00000000000E+00 -0.42965328128E+03  0.42965328128E+03  0.00000000000E+00 0. -1.
      99926    2    1    2    0    0 -0.35527136788E-14  0.00000000000E+00 -0.31180753236E+03  0.54749903021E+03  0.45003472182E+03 0.  0.
      99925    2    3    3    0    0  0.48073290203E+01 -0.89371626259E+02 -0.12290784161E+03  0.30389894963E+03  0.26313083450E+03 0.  0.
         25    1    4    4    0    0 -0.36745130097E+02 -0.32821027582E+02 -0.56236561412E+02  0.14573085938E+03  0.12509000000E+03 0.  0.
         25    1    3    3    0    0 -0.48073290203E+01  0.89371626259E+02 -0.18889969075E+03  0.24360008058E+03  0.12509000000E+03 0.  0.
         25    1    4    4    0    0  0.41552459117E+02 -0.56550598677E+02 -0.66671280200E+02  0.15816809025E+03  0.12509000000E+03 0.  0.
<mgrwt>
<rscale>  2 0.45003472E+03</rscale>
<asrwt>0</asrwt>
<pdfrwt beam="1">  1       21 0.17330257E-01 0.45003472E+03</pdfrwt>
<pdfrwt beam="2">  1       21 0.63184306E-01 0.45003472E+03</pdfrwt>
<totfact> 0.64530152E+04</totfact>
</mgrwt>
</event>
<event>
 7    0  0.4766352E-002  0.4529125E+03  0.7546771E-02  0.1026857E+00
         21   -1    0    0  502  501  0.00000000000E+00  0.00000000000E+00  0.23821129021E+02  0.23821129021E+02  0.00000000000E+00 0. -1.
         21   -1    0    0  501  502 -0.00000000000E+00 -0.00000000000E+00 -0.21528126856E+04  0.21528126856E+04  0.00000000000E+00 0. -1.
      99926    2    1    2    0    0  0.00000000000E+00 -0.71054273576E-14 -0.21289915566E+04  0.21766338146E+04  0.45291248047E+03 0.  0.
      99925    2    3    3    0    0  0.25312014592E+02 -0.41894778498E+02 -0.18220183544E+04  0.18415578150E+04  0.26303693994E+03 0.  0.
         25    1    4    4    0    0  0.14926615147E+02 -0.48062026195E+02 -0.73158012923E+03  0.74390171111E+03  0.12509000000E+03 0.  0.
         25    1    4    4    0    0  0.10385399445E+02  0.61672476974E+01 -0.10904382252E+04  0.10976561039E+04  0.12509000000E+03 0.  0.
         25    1    3    3    0    0 -0.25312014592E+02  0.41894778498E+02 -0.30697320219E+03  0.33507599960E+03  0.12509000000E+03 0.  0.
<mgrwt>
<rscale>  2 0.45291248E+03</rscale>
<asrwt>0</asrwt>
<pdfrwt beam="1">  1       21 0.35031060E-02 0.45291248E+03</pdfrwt>
<pdfrwt beam="2">  1       21 0.31659021E+00 0.45291248E+03</pdfrwt>
<totfact> 0.11215175E+04</totfact>
</mgrwt>
</event>
<event>
 7    0  0.4766352E-002  0.4599790E+03  0.7546771E-02  0.1024787E+00
         21   -1    0    0  502  501  0.00000000000E+00  0.00000000000E+00  0.15627988478E+03  0.15627988478E+03  0.00000000000E+00 0. -1.
         21   -1    0    0  501  502 -0.00000000000E+00 -0.00000000000E+00 -0.33846435693E+03  0.33846435693E+03  0.00000000000E+00 0. -1.
      99926    2    1    2    0    0  0.00000000000E+00  0.00000000000E+00 -0.18218447215E+03  0.49474424171E+03  0.45997900258E+03 0.  0.
      99925    2    3    3    0    0 -0.12916631879E+02  0.11295583746E+03 -0.14723336909E+03  0.32213210917E+03  0.26299347937E+03 0.  0.
         25    1    3    3    0    0  0.12916631879E+02 -0.11295583746E+03 -0.34951103059E+02  0.17261213254E+03  0.12509000000E+03 0.  0.
         25    1    4    4    0    0 -0.29848396442E+02  0.61819498839E+02 -0.11215915617E+03  0.18149314483E+03  0.12509000000E+03 0.  0.
         25    1    4    4    0    0  0.16931764563E+02  0.51136338621E+02 -0.35074212917E+02  0.14063896434E+03  0.12509000000E+03 0.  0.
<mgrwt>
<rscale>  2 0.45997900E+03</rscale>
<asrwt>0</asrwt>
<pdfrwt beam="1">  1       21 0.22982336E-01 0.45997900E+03</pdfrwt>
<pdfrwt beam="2">  1       21 0.49774170E-01 0.45997900E+03</pdfrwt>
<totfact> 0.63109843E+04</totfact>
</mgrwt>
</event>
<event>
 7    0  0.4766352E-002  0.4566482E+03  0.7546771E-02  0.1025758E+00
         21   -1    0    0  502  501  0.00000000000E+00  0.00000000000E+00  0.32795629779E+03  0.32795629779E+03  0.00000000000E+00 0.  1.
         21   -1    0    0  501  502 -0.00000000000E+00 -0.00000000000E+00 -0.15895985205E+03  0.15895985205E+03  0.00000000000E+00 0.  1.
      99926    2    1    2    0    0 -0.71054273576E-14  0.00000000000E+00  0.16899644574E+03  0.48691614984E+03  0.45664815591E+03 0.  0.
      99925    2    3    3    0    0  0.36005312775E+02 -0.31837410890E+02  0.21734881422E+03  0.34445400428E+03  0.26286508087E+03 0.  0.
         25    1    4    4    0    0  0.46169830266E+02 -0.40932488830E+02  0.13472194995E+03  0.19391914234E+03  0.12509000000E+03 0.  0.
         25    1    4    4    0    0 -0.10164517490E+02  0.90950779400E+01  0.82626864271E+02  0.15053486193E+03  0.12509000000E+03 0.  0.
         25    1    3    3    0    0 -0.36005312775E+02  0.31837410890E+02 -0.48352368476E+02  0.14246214556E+03  0.12509000000E+03 0.  0.
<mgrwt>
<rscale>  2 0.45664816E+03</rscale>
<asrwt>0</asrwt>
<pdfrwt beam="1">  1       21 0.48228867E-01 0.45664816E+03</pdfrwt>
<pdfrwt beam="2">  1       21 0.23376449E-01 0.45664816E+03</pdfrwt>
<totfact> 0.65340898E+04</totfact>
</mgrwt>
</event>
<event>
 7    0  0.4766352E-002  0.4526649E+03  0.7546771E-02  0.1026930E+00
         21   -1    0    0  502  501  0.00000000000E+00  0.00000000000E+00  0.34641647906E+03  0.34641647906E+03  0.00000000000E+00 0.  1.
         21   -1    0    0  501  502 -0.00000000000E+00 -0.00000000000E+00 -0.14787509074E+03  0.14787509074E+03  0.00000000000E+00 0.  1.
      99926    2    1    2    0    0  0.00000000000E+00  0.00000000000E+00  0.19854138832E+03  0.49429156980E+03  0.45266485737E+03 0.  0.
      99925    2    3    3    0    0  0.65819659715E+02  0.72114212304E+02  0.18160157941E+03  0.33470725839E+03  0.26366100955E+03 0.  0.
         25    1    3    3    0    0 -0.65819659715E+02 -0.72114212304E+02  0.16939808907E+02  0.15958431141E+03  0.12509000000E+03 0.  0.
         25    1    4    4    0    0  0.47412581082E+02  0.83105981751E+01  0.12133264588E+03  0.18079308046E+03  0.12509000000E+03 0.  0.
         25    1    4    4    0    0  0.18407078633E+02  0.63803614129E+02  0.60268933535E+02  0.15391417793E+03  0.12509000000E+03 0.  0.
<mgrwt>
<rscale>  2 0.45266486E+03</rscale>
<asrwt>0</asrwt>
<pdfrwt beam="1">  1       21 0.50943600E-01 0.45266486E+03</pdfrwt>
<pdfrwt beam="2">  1       21 0.21746337E-01 0.45266486E+03</pdfrwt>
<totfact> 0.66905262E+04</totfact>
</mgrwt>
</event>
<event>
 7    0  0.4766352E-002  0.4484943E+03  0.7546771E-02  0.1028172E+00
         21   -1    0    0  502  501  0.00000000000E+00  0.00000000000E+00  0.53164841069E+02  0.53164841069E+02  0.00000000000E+00 0. -1.
         21   -1    0    0  501  502 -0.00000000000E+00 -0.00000000000E+00 -0.94586552157E+03  0.94586552157E+03  0.00000000000E+00 0. -1.
      99926    2    1    2    0    0  0.00000000000E+00  0.00000000000E+00 -0.89270068050E+03  0.99903036264E+03  0.44849432606E+03 0.  0.
      99925    2    3    3    0    0  0.77672026317E+02 -0.22098774267E+02 -0.40879160564E+03  0.49273321636E+03  0.26297175926E+03 0.  0.
         25    1    4    4    0    0  0.21868223520E+01 -0.27111310293E+02 -0.21071355315E+03  0.24655124198E+03  0.12509000000E+03 0.  0.
         25    1    3    3    0    0 -0.77672026317E+02  0.22098774267E+02 -0.48390907487E+03  0.50629714628E+03  0.12509000000E+03 0.  0.
         25    1    4    4    0    0  0.75485203965E+02  0.50125360264E+01 -0.19807805249E+03  0.24618197438E+03  0.12509000000E+03 0.  0.
<mgrwt>
<rscale>  2 0.44849433E+03</rscale>
<asrwt>0</asrwt>
<pdfrwt beam="1">  1       21 0.78183593E-02 0.44849433E+03</pdfrwt>
<pdfrwt beam="2">  1       21 0.13909787E+00 0.44849433E+03</pdfrwt>
<totfact> 0.41261420E+04</totfact>
</mgrwt>
</event>
<event>
 7    0  0.4766352E-002  0.4584360E+03  0.7546771E-02  0.1025236E+00
         21   -1    0    0  502  501  0.00000000000E+00  0.00000000000E+00  0.25812307061E+03  0.25812307061E+03  0.00000000000E+00 0.  1.
         21   -1    0    0  501  502 -0.00000000000E+00 -0.00000000000E+00 -0.20354976143E+03  0.20354976143E+03  0.00000000000E+00 0.  1.
      99926    2    1    2    0    0  0.00000000000E+00  0.00000000000E+00  0.54573309182E+02  0.46167283205E+03  0.45843599092E+03 0.  0.
      99925    2    3    3    0    0 -0.68665273775E+02  0.53880206871E+02  0.11173413548E+03  0.29878371430E+03  0.26300036955E+03 0.  0.
         25    1    4    4    0    0 -0.40739222409E+02  0.42111947780E+02  0.97956093114E+02  0.16933990866E+03  0.12509000000E+03 0.  0.
         25    1    4    4    0    0 -0.27926051366E+02  0.11768259090E+02  0.13778042370E+02  0.12944380564E+03  0.12509000000E+03 0.  0.
         25    1    3    3    0    0  0.68665273775E+02 -0.53880206871E+02 -0.57160826302E+02  0.16288911774E+03  0.12509000000E+03 0.  0.
<mgrwt>
<rscale>  2 0.45843599E+03</rscale>
<asrwt>0</asrwt>
<pdfrwt beam="1">  1       21 0.37959275E-01 0.45843599E+03</pdfrwt>
<pdfrwt beam="2">  1       21 0.29933789E-01 0.45843599E+03</pdfrwt>
<totfact> 0.66225382E+04</totfact>
</mgrwt>
</event>
<event>
 7    0  0.4766352E-002  0.4099004E+03  0.7546771E-02  0.1040404E+00
         21   -1    0    0  502  501  0.00000000000E+00  0.00000000000E+00  0.33395370782E+04  0.33395370782E+04  0.00000000000E+00 0. -1.
         21   -1    0    0  501  502 -0.00000000000E+00 -0.00000000000E+00 -0.12577964567E+02  0.12577964567E+02  0.00000000000E+00 0. -1.
      99926    2    1    2    0    0  0.00000000000E+00  0.00000000000E+00  0.33269591137E+04  0.33521150428E+04  0.40990037346E+03 0.  0.
      99925    2    3    3    0    0  0.46861087793E+02 -0.36663417232E+02  0.20313838331E+04  0.20491557251E+04  0.26263804154E+03 0.  0.
         25    1    3    3    0    0 -0.46861087793E+02  0.36663417232E+02  0.12955752806E+04  0.13029593177E+04  0.12509000000E+03 0.  0.
         25    1    4    4    0    0  0.21753433694E+02 -0.18199568435E+02  0.13172009400E+04  0.13234312451E+04  0.12509000000E+03 0.  0.
         25    1    4    4    0    0  0.25107654099E+02 -0.18463848797E+02  0.71418289307E+03  0.72572447999E+03  0.12509000000E+03 0.  0.
<mgrwt>
<rscale>  2 0.40990037E+03</rscale>
<asrwt>0</asrwt>
<pdfrwt beam="1">  1       21 0.49110778E+00 0.40990037E+03</pdfrwt>
<pdfrwt beam="2">  1       21 0.18497030E-02 0.40990037E+03</pdfrwt>
<totfact> 0.24780285E+03</totfact>
</mgrwt>
</event>
<event>
 6    0  0.4766352E-002  0.4553992E+03  0.7546771E-02  0.1026124E+00
         21   -1    0    0  502  501  0.00000000000E+00  0.00000000000E+00  0.43601014778E+03  0.43601014778E+03  0.00000000000E+00 0. -1.
         21   -1    0    0  501  502 -0.00000000000E+00 -0.00000000000E+00 -0.11891259645E+03  0.11891259645E+03  0.00000000000E+00 0. -1.
      99926    2    1    2    0    0 -0.17763568394E-14  0.00000000000E+00  0.31709755133E+03  0.55492274423E+03  0.45539916009E+03 0.  0.
         25    1    3    3    0    0  0.17123292328E+02  0.27864805618E+02  0.38806462566E+01  0.12935309060E+03  0.12509000000E+03 0.  0.
         25    1    3    3    0    0 -0.19461500678E+02  0.81771886325E+01  0.58908124892E+02  0.13986883749E+03  0.12509000000E+03 0.  0.
         25    1    3    3    0    0  0.23382083502E+01 -0.36041994250E+02  0.25430878018E+03  0.28570081614E+03  0.12509000000E+03 0.  0.
<mgrwt>
<rscale>  2 0.45539916E+03</rscale>
<asrwt>0</asrwt>
<pdfrwt beam="1">  1       21 0.64119139E-01 0.45539916E+03</pdfrwt>
<pdfrwt beam="2">  1       21 0.17487147E-01 0.45539916E+03</pdfrwt>
<totfact> 0.61348430E+04</totfact>
</mgrwt>
</event>
<event>
 7    0  0.4766352E-002  0.4558049E+03  0.7546771E-02  0.1026005E+00
         21   -1    0    0  502  501  0.00000000000E+00  0.00000000000E+00  0.16547735213E+03  0.16547735213E+03  0.00000000000E+00 0. -1.
         21   -1    0    0  501  502 -0.00000000000E+00 -0.00000000000E+00 -0.31387700798E+03  0.31387700798E+03  0.00000000000E+00 0. -1.
      99926    2    1    2    0    0  0.71054273576E-14  0.00000000000E+00 -0.14839965585E+03  0.47935436011E+03  0.45580494150E+03 0.  0.
      99925    2    3    3    0    0  0.47321326978E+02  0.10318812789E+03 -0.91033657639E+02  0.30095743308E+03  0.26344098386E+03 0.  0.
         25    1    4    4    0    0  0.18130138480E+02  0.53517970649E+02 -0.25916288057E+01  0.13728473966E+03  0.12509000000E+03 0.  0.
         25    1    4    4    0    0  0.29191188498E+02  0.49670157237E+02 -0.88442028833E+02  0.16367269342E+03  0.12509000000E+03 0.  0.
         25    1    3    3    0    0 -0.47321326978E+02 -0.10318812789E+03 -0.57365998209E+02  0.17839692703E+03  0.12509000000E+03 0.  0.
<mgrwt>
<rscale>  2 0.45580494E+03</rscale>
<asrwt>0</asrwt>
<pdfrwt beam="1">  1       21 0.24334905E-01 0.45580494E+03</pdfrwt>
<pdfrwt beam="2">  1       21 0.46158384E-01 0.45580494E+03</pdfrwt>
<totfact> 0.66322379E+04</totfact>
</mgrwt>
</event>
<event>
 7    0  0.4766352E-002  0.4684669E+03  0.7546771E-02  0.1022354E+00
         21   -1    0    0  502  501  0.00000000000E+00  0.00000000000E+00  0.24632418315E+03  0.24632418315E+03  0.00000000000E+00 0. -1.
         21   -1    0    0  501  502 -0.00000000000E+00 -0.00000000000E+00 -0.22273614650E+03  0.22273614650E+03  0.00000000000E+00 0. -1.
      99926    2    1    2    0    0  0.71054273576E-14  0.88817841970E-15  0.23588036648E+02  0.46906032966E+03  0.46846685836E+03 0.  0.
      99925    2    3    3    0    0  0.39962270455E+02  0.52357348165E+01  0.13366110934E+03  0.29763108650E+03  0.26285847052E+03 0.  0.
         25    1    3    3    0    0 -0.39962270455E+02 -0.52357348165E+01 -0.11007307269E+03  0.17142924316E+03  0.12509000000E+03 0.  0.
         25    1    4    4    0    0 -0.11734361550E+02  0.52587095406E+01  0.36246753904E+02  0.13086895940E+03  0.12509000000E+03 0.  0.
         25    1    4    4    0    0  0.51696632005E+02 -0.22974724047E-01  0.97414355432E+02  0.16676212709E+03  0.12509000000E+03 0.  0.
<mgrwt>
<rscale>  2 0.46846686E+03</rscale>
<asrwt>0</asrwt>
<pdfrwt beam="1">  1       21 0.36224145E-01 0.46846686E+03</pdfrwt>
<pdfrwt beam="2">  1       21 0.32755316E-01 0.46846686E+03</pdfrwt>
<totfact> 0.60734764E+04</totfact>
</mgrwt>
</event>
<event>
 7    0  0.4766352E-002  0.4364520E+03  0.7546771E-02  0.1031841E+00
         21   -1    0    0  502  501  0.00000000000E+00  0.00000000000E+00  0.17850903866E+03  0.17850903866E+03  0.00000000000E+00 0.  1.
         21   -1    0    0  501  502 -0.00000000000E+00 -0.00000000000E+00 -0.26677972068E+03  0.26677972068E+03  0.00000000000E+00 0.  1.
      99926    2    1    2    0    0 -0.14210854715E-13  0.00000000000E+00 -0.88270682019E+02  0.44528875934E+03  0.43645202015E+03 0.  0.
      99925    2    3    3    0    0 -0.68193632339E+02 -0.57698469439E+02 -0.24515452120E+02  0.27888045935E+03  0.26304717894E+03 0.  0.
         25    1    3    3    0    0  0.68193632339E+02  0.57698469439E+02 -0.63755229899E+02  0.16640829999E+03  0.12509000000E+03 0.  0.
         25    1    4    4    0    0  0.78718762359E+01 -0.27152902302E+02 -0.11787880189E+02  0.12878551455E+03  0.12509000000E+03 0.  0.
         25    1    4    4    0    0 -0.76065508575E+02 -0.30545567136E+02 -0.12727571931E+02  0.15009494480E+03  0.12509000000E+03 0.  0.
<mgrwt>
<rscale>  2 0.43645202E+03</rscale>
<asrwt>0</asrwt>
<pdfrwt beam="1">  1       21 0.26251330E-01 0.43645202E+03</pdfrwt>
<pdfrwt beam="2">  1       21 0.39232311E-01 0.43645202E+03</pdfrwt>
<totfact> 0.80528792E+04</totfact>
</mgrwt>
</event>
<event>
 7    0  0.4766352E-002  0.4307439E+03  0.7546771E-02  0.1033625E+00
         21   -1    0    0  502  501  0.00000000000E+00  0.00000000000E+00  0.73937569587E+02  0.73937569587E+02  0.00000000000E+00 0.  1.
         21   -1    0    0  501  502 -0.00000000000E+00 -0.00000000000E+00 -0.62735451304E+03  0.62735451304E+03  0.00000000000E+00 0.  1.
      99926    2    1    2    0    0 -0.71054273576E-14  0.00000000000E+00 -0.55341694345E+03  0.70129208262E+03  0.43074385875E+03 0.  0.
      99925    2    3    3    0    0 -0.42016468405E+02 -0.51116056438E+02 -0.26085888185E+03  0.37630598700E+03  0.26302206137E+03 0.  0.
         25    1    3    3    0    0  0.42016468405E+02  0.51116056438E+02 -0.29255806160E+03  0.32498609563E+03  0.12509000000E+03 0.  0.
         25    1    4    4    0    0 -0.58705084640E+02 -0.27855758377E+02 -0.15886355112E+03  0.21238494817E+03  0.12509000000E+03 0.  0.
         25    1    4    4    0    0  0.16688616235E+02 -0.23260298061E+02 -0.10199533073E+03  0.16392103882E+03  0.12509000000E+03 0.  0.
<mgrwt>
<rscale>  2 0.43074386E+03</rscale>
<asrwt>0</asrwt>
<pdfrwt beam="1">  1       21 0.10873172E-01 0.43074386E+03</pdfrwt>
<pdfrwt beam="2">  1       21 0.92258015E-01 0.43074386E+03</pdfrwt>
<totfact> 0.64245587E+04</totfact>
</mgrwt>
</event>
<event>
 7    0  0.4766352E-002  0.4545731E+03  0.7546771E-02  0.1026367E+00
         21   -1    0    0  502  501  0.00000000000E+00  0.00000000000E+00  0.50689531840E+03  0.50689531840E+03  0.00000000000E+00 0.  1.
         21   -1    0    0  501  502 -0.00000000000E+00 -0.00000000000E+00 -0.10191291715E+03  0.10191291715E+03  0.00000000000E+00 0.  1.
      99926    2    1    2    0    0  0.00000000000E+00  0.00000000000E+00  0.40498240126E+03  0.60880823555E+03  0.45457312101E+03 0.  0.
      99925    2    3    3    0    0 -0.32806326290E+02  0.10776307548E+03  0.25073251099E+03  0.38048900239E+03  0.26308924986E+03 0.  0.
         25    1    4    4    0    0 -0.29113869432E+02  0.95425013975E+02  0.12992430555E+03  0.20611012580E+03  0.12509000000E+03 0.  0.
         25    1    4    4    0    0 -0.36924568580E+01  0.12338061505E+02  0.12080820544E+03  0.17437887659E+03  0.12509000000E+03 0.  0.
         25    1    3    3    0    0  0.32806326290E+02 -0.10776307548E+03  0.15424989026E+03  0.22831923315E+03  0.12509000000E+03 0.  0.
<mgrwt>
<rscale>  2 0.45457312E+03</rscale>
<asrwt>0</asrwt>
<pdfrwt beam="1">  1       21 0.74543428E-01 0.45457312E+03</pdfrwt>
<pdfrwt beam="2">  1       21 0.14987194E-01 0.45457312E+03</pdfrwt>
<totfact> 0.58335809E+04</totfact>
</mgrwt>
</event>
<event>
 7    0  0.4766352E-002  0.4683666E+03  0.7546771E-02  0.1022382E+00
         21   -1    0    0  502  501  0.00000000000E+00  0.00000000000E+00  0.91669361064E+03  0.91669361064E+03  0.00000000000E+00 0.  1.
         21   -1    0    0  501  502 -0.00000000000E+00 -0.00000000000E+00 -0.59825685089E+02  0.59825685089E+02  0.00000000000E+00 0.  1.
      99926    2    1    2    0    0  0.00000000000E+00 -0.14210854715E-13  0.85686792555E+03  0.97651929573E+03  0.46836662252E+03 0.  0.
      99925    2    3    3    0    0 -0.49239386123E+02  0.11040597272E+03  0.46234703203E+03  0.54534851810E+03  0.26272843814E+03 0.  0.
         25    1    3    3    0    0  0.49239386123E+02 -0.11040597272E+03  0.39452089352E+03  0.43117077763E+03  0.12509000000E+03 0.  0.
         25    1    4    4    0    0 -0.35441713294E+02  0.27206404396E+02  0.26991115431E+03  0.30082526955E+03  0.12509000000E+03 0.  0.
         25    1    4    4    0    0 -0.13797672829E+02  0.83199568326E+02  0.19243587773E+03  0.24452324855E+03  0.12509000000E+03 0.  0.
<mgrwt>
<rscale>  2 0.46836662E+03</rscale>
<asrwt>0</asrwt>
<pdfrwt beam="1">  1       21 0.13480788E+00 0.46836662E+03</pdfrwt>
<pdfrwt beam="2">  1       21 0.87978954E-02 0.46836662E+03</pdfrwt>
<totfact> 0.36156516E+04</totfact>
</mgrwt>
</event>
<event>
 7    0  0.4766352E-002  0.4536920E+03  0.7546771E-02  0.1026627E+00
         21   -1    0    0  502  501  0.00000000000E+00  0.00000000000E+00  0.52679055793E+03  0.52679055793E+03  0.00000000000E+00 0.  1.
         21   -1    0    0  501  502 -0.00000000000E+00 -0.00000000000E+00 -0.97684174202E+02  0.97684174202E+02  0.00000000000E+00 0.  1.
      99926    2    1    2    0    0  0.17763568394E-14 -0.14210854715E-13  0.42910638373E+03  0.62447473214E+03  0.45369196876E+03 0.  0.
      99925    2    3    3    0    0 -0.15315000880E+02 -0.88434682901E+02  0.17811146684E+03  0.33002405919E+03  0.26293904737E+03 0.  0.
         25    1    4    4    0    0  0.31330036403E+02 -0.47654868931E+02  0.76150098929E+02  0.15715884761E+03  0.12509000000E+03 0.  0.
         25    1    4    4    0    0 -0.46645037283E+02 -0.40779813970E+02  0.10196136791E+03  0.17286521159E+03  0.12509000000E+03 0.  0.
         25    1    3    3    0    0  0.15315000880E+02  0.88434682901E+02  0.25099491689E+03  0.29445067294E+03  0.12509000000E+03 0.  0.
<mgrwt>
<rscale>  2 0.45369197E+03</rscale>
<asrwt>0</asrwt>
<pdfrwt beam="1">  1       21 0.77469198E-01 0.45369197E+03</pdfrwt>
<pdfrwt beam="2">  1       21 0.14365320E-01 0.45369197E+03</pdfrwt>
<totfact> 0.57791039E+04</totfact>
</mgrwt>
</event>
<event>
 7    0  0.4766352E-002  0.4523868E+03  0.7546771E-02  0.1027013E+00
         21   -1    0    0  502  501  0.00000000000E+00  0.00000000000E+00  0.58770498346E+03  0.58770498346E+03  0.00000000000E+00 0. -1.
         21   -1    0    0  501  502 -0.00000000000E+00 -0.00000000000E+00 -0.87056336907E+02  0.87056336907E+02  0.00000000000E+00 0. -1.
      99926    2    1    2    0    0  0.17763568394E-14  0.71054273576E-14  0.50064864655E+03  0.67476132037E+03  0.45238675066E+03 0.  0.
      99925    2    3    3    0    0 -0.15933563131E+02  0.52324976097E+02  0.17212986773E+03  0.31900314731E+03  0.26294968163E+03 0.  0.
         25    1    4    4    0    0  0.21099130019E+01 -0.21228976192E+01  0.11519072578E+03  0.17007460079E+03  0.12509000000E+03 0.  0.
         25    1    3    3    0    0  0.15933563131E+02 -0.52324976097E+02  0.32851877882E+03  0.35575817306E+03  0.12509000000E+03 0.  0.
         25    1    4    4    0    0 -0.18043476133E+02  0.54447873716E+02  0.56939141946E+02  0.14892854652E+03  0.12509000000E+03 0.  0.
<mgrwt>
<rscale>  2 0.45238675E+03</rscale>
<asrwt>0</asrwt>
<pdfrwt beam="1">  1       21 0.86427202E-01 0.45238675E+03</pdfrwt>
<pdfrwt beam="2">  1       21 0.12802403E-01 0.45238675E+03</pdfrwt>
<totfact> 0.55427423E+04</totfact>
</mgrwt>
</event>
<event>
 7    0  0.4766352E-002  0.4544953E+03  0.7546771E-02  0.1026390E+00
         21   -1    0    0  502  501  0.00000000000E+00  0.00000000000E+00  0.26158423002E+04  0.26158423002E+04  0.00000000000E+00 0.  1.
         21   -1    0    0  501  502 -0.00000000000E+00 -0.00000000000E+00 -0.19741818265E+02  0.19741818265E+02  0.00000000000E+00 0.  1.
      99926    2    1    2    0    0  0.00000000000E+00  0.00000000000E+00  0.25961004819E+04  0.26355841184E+04  0.45449525102E+03 0.  0.
      99925    2    3    3    0    0  0.13557393606E+02 -0.83512213953E+02  0.12032974800E+04  0.12346180935E+04  0.26305687337E+03 0.  0.
         25    1    3    3    0    0 -0.13557393606E+02  0.83512213953E+02  0.13928030019E+04  0.14009660249E+04  0.12509000000E+03 0.  0.
         25    1    4    4    0    0  0.14291939707E+02 -0.74261614022E+02  0.75933327688E+03  0.77327458275E+03  0.12509000000E+03 0.  0.
         25    1    4    4    0    0 -0.73454610115E+00 -0.92505999316E+01  0.44396420317E+03  0.46134351079E+03  0.12509000000E+03 0.  0.
<mgrwt>
<rscale>  2 0.45449525E+03</rscale>
<asrwt>0</asrwt>
<pdfrwt beam="1">  1       21 0.38468245E+00 0.45449525E+03</pdfrwt>
<pdfrwt beam="2">  1       21 0.29032104E-02 0.45449525E+03</pdfrwt>
<totfact> 0.58647097E+03</totfact>
</mgrwt>
</event>
<event>
 7    0  0.4766352E-002  0.4549008E+03  0.7546771E-02  0.1026271E+00
         21   -1    0    0  502  501  0.00000000000E+00  0.00000000000E+00  0.51055937396E+03  0.51055937396E+03  0.00000000000E+00 0.  1.
         21   -1    0    0  501  502 -0.00000000000E+00 -0.00000000000E+00 -0.10132746786E+03  0.10132746786E+03  0.00000000000E+00 0.  1.
      99926    2    1    2    0    0  0.71054273576E-14  0.00000000000E+00  0.40923190610E+03  0.61188684182E+03  0.45490081800E+03 0.  0.
      99925    2    3    3    0    0  0.48646581446E+02 -0.12969743002E+02  0.39391737321E+03  0.47617852543E+03  0.26275537491E+03 0.  0.
         25    1    4    4    0    0  0.12996227138E+01 -0.26835105323E+02  0.23861299197E+03  0.27074984752E+03  0.12509000000E+03 0.  0.
         25    1    4    4    0    0  0.47346958732E+02  0.13865362321E+02  0.15530438124E+03  0.20542867790E+03  0.12509000000E+03 0.  0.
         25    1    3    3    0    0 -0.48646581446E+02  0.12969743002E+02  0.15314532890E+02  0.13570831639E+03  0.12509000000E+03 0.  0.
<mgrwt>
<rscale>  2 0.45490082E+03</rscale>
<asrwt>0</asrwt>
<pdfrwt beam="1">  1       21 0.75082260E-01 0.45490082E+03</pdfrwt>
<pdfrwt beam="2">  1       21 0.14901098E-01 0.45490082E+03</pdfrwt>
<totfact> 0.57997927E+04</totfact>
</mgrwt>
</event>
<event>
 7    0  0.4766352E-002  0.4533502E+03  0.7546771E-02  0.1026728E+00
         21   -1    0    0  502  501  0.00000000000E+00  0.00000000000E+00  0.75289973673E+02  0.75289973673E+02  0.00000000000E+00 0. -1.
         21   -1    0    0  501  502 -0.00000000000E+00 -0.00000000000E+00 -0.68244942273E+03  0.68244942273E+03  0.00000000000E+00 0. -1.
      99926    2    1    2    0    0  0.00000000000E+00  0.14210854715E-13 -0.60715944906E+03  0.75773939640E+03  0.45335019166E+03 0.  0.
      99925    2    3    3    0    0 -0.20960066775E+02 -0.10753487374E+03 -0.34734940235E+03  0.44927247445E+03  0.26304196532E+03 0.  0.
         25    1    4    4    0    0 -0.36205002730E+02 -0.25278182202E+02 -0.13768103734E+03  0.19118934296E+03  0.12509000000E+03 0.  0.
         25    1    3    3    0    0  0.20960066775E+02  0.10753487374E+03 -0.25981004671E+03  0.30846692195E+03  0.12509000000E+03 0.  0.
         25    1    4    4    0    0  0.15244935954E+02 -0.82256691533E+02 -0.20966836501E+03  0.25808313149E+03  0.12509000000E+03 0.  0.
<mgrwt>
<rscale>  2 0.45335019E+03</rscale>
<asrwt>0</asrwt>
<pdfrwt beam="1">  1       21 0.11072055E-01 0.45335019E+03</pdfrwt>
<pdfrwt beam="2">  1       21 0.10036021E+00 0.45335019E+03</pdfrwt>
<totfact> 0.50527559E+04</totfact>
</mgrwt>
</event>
<event>
 7    0  0.4766352E-002  0.4502668E+03  0.7546771E-02  0.1027642E+00
         21   -1    0    0  502  501  0.00000000000E+00  0.00000000000E+00  0.14301831119E+03  0.14301831119E+03  0.00000000000E+00 0. -1.
         21   -1    0    0  501  502 -0.00000000000E+00 -0.00000000000E+00 -0.35439557500E+03  0.35439557500E+03  0.00000000000E+00 0. -1.
      99926    2    1    2    0    0  0.00000000000E+00  0.00000000000E+00 -0.21137726380E+03  0.49741388619E+03  0.45026683925E+03 0.  0.
      99925    2    3    3    0    0  0.19564141997E+02 -0.72506930166E+02 -0.22028629057E+03  0.35123971121E+03  0.26306515228E+03 0.  0.
         25    1    4    4    0    0  0.38197249403E+01 -0.65595286978E+02 -0.15262077728E+03  0.20798543634E+03  0.12509000000E+03 0.  0.
         25    1    4    4    0    0  0.15744417056E+02 -0.69116431885E+01 -0.67665513290E+02  0.14325427487E+03  0.12509000000E+03 0.  0.
         25    1    3    3    0    0 -0.19564141997E+02  0.72506930166E+02  0.89090267628E+01  0.14617417498E+03  0.12509000000E+03 0.  0.
<mgrwt>
<rscale>  2 0.45026684E+03</rscale>
<asrwt>0</asrwt>
<pdfrwt beam="1">  1       21 0.21032105E-01 0.45026684E+03</pdfrwt>
<pdfrwt beam="2">  1       21 0.52116996E-01 0.45026684E+03</pdfrwt>
<totfact> 0.67970850E+04</totfact>
</mgrwt>
</event>
<event>
 7    0  0.4766352E-002  0.4549470E+03  0.7546771E-02  0.1026257E+00
         21   -1    0    0  502  501  0.00000000000E+00  0.00000000000E+00  0.29029997423E+03  0.29029997423E+03  0.00000000000E+00 0.  1.
         21   -1    0    0  501  502 -0.00000000000E+00 -0.00000000000E+00 -0.17824391365E+03  0.17824391365E+03  0.00000000000E+00 0.  1.
      99926    2    1    2    0    0  0.00000000000E+00  0.00000000000E+00  0.11205606058E+03  0.46854388788E+03  0.45494704544E+03 0.  0.
      99925    2    3    3    0    0 -0.83664612523E+02 -0.61866443545E+02  0.24955137313E+02  0.28398684207E+03  0.26305616009E+03 0.  0.
         25    1    4    4    0    0 -0.15383762812E+01 -0.41518718618E+02  0.14586842929E+02  0.13261393096E+03  0.12509000000E+03 0.  0.
         25    1    3    3    0    0  0.83664612523E+02  0.61866443545E+02  0.87100923267E+02  0.18455704581E+03  0.12509000000E+03 0.  0.
         25    1    4    4    0    0 -0.82126236241E+02 -0.20347724927E+02  0.10368294385E+02  0.15137291111E+03  0.12509000000E+03 0.  0.
<mgrwt>
<rscale>  2 0.45494705E+03</rscale>
<asrwt>0</asrwt>
<pdfrwt beam="1">  1       21 0.42691173E-01 0.45494705E+03</pdfrwt>
<pdfrwt beam="2">  1       21 0.26212340E-01 0.45494705E+03</pdfrwt>
<totfact> 0.67572614E+04</totfact>
</mgrwt>
</event>
<event>
 7    0  0.4766352E-002  0.4494424E+03  0.7546771E-02  0.1027888E+00
         21   -1    0    0  502  501  0.00000000000E+00  0.00000000000E+00  0.41447322667E+03  0.41447322667E+03  0.00000000000E+00 0. -1.
         21   -1    0    0  501  502 -0.00000000000E+00 -0.00000000000E+00 -0.12184048173E+03  0.12184048173E+03  0.00000000000E+00 0. -1.
      99926    2    1    2    0    0 -0.71054273576E-14  0.00000000000E+00  0.29263274494E+03  0.53631370840E+03  0.44944239943E+03 0.  0.
      99925    2    3    3    0    0  0.55307997161E+02 -0.41723112584E+02  0.28345315270E+03  0.39302530800E+03  0.26329339203E+03 0.  0.
         25    1    4    4    0    0  0.11724526848E+02  0.17606139485E+02  0.14053914352E+03  0.18933092626E+03  0.12509000000E+03 0.  0.
         25    1    3    3    0    0 -0.55307997161E+02  0.41723112584E+02  0.91795922490E+01  0.14328840039E+03  0.12509000000E+03 0.  0.
         25    1    4    4    0    0  0.43583470313E+02 -0.59329252070E+02  0.14291400918E+03  0.20369438175E+03  0.12509000000E+03 0.  0.
<mgrwt>
<rscale>  2 0.44944240E+03</rscale>
<asrwt>0</asrwt>
<pdfrwt beam="1">  1       21 0.60951945E-01 0.44944240E+03</pdfrwt>
<pdfrwt beam="2">  1       21 0.17917718E-01 0.44944240E+03</pdfrwt>
<totfact> 0.65619121E+04</totfact>
</mgrwt>
</event>
<event>
 7    0  0.4766352E-002  0.4608103E+03  0.7546771E-02  0.1024546E+00
         21   -1    0    0  502  501  0.00000000000E+00  0.00000000000E+00  0.28130105546E+02  0.28130105546E+02  0.00000000000E+00 0.  1.
         21   -1    0    0  501  502 -0.00000000000E+00 -0.00000000000E+00 -0.18871786257E+04  0.18871786257E+04  0.00000000000E+00 0.  1.
      99926    2    1    2    0    0  0.00000000000E+00  0.00000000000E+00 -0.18590485202E+04  0.19153087313E+04  0.46081030338E+03 0.  0.
      99925    2    3    3    0    0 -0.77762227993E+02  0.77219279949E+02 -0.97828373977E+03  0.10189807289E+04  0.26319739570E+03 0.  0.
         25    1    4    4    0    0 -0.42111268989E+02  0.31186592890E+02 -0.34201423535E+03  0.36792282864E+03  0.12509000000E+03 0.  0.
         25    1    4    4    0    0 -0.35650959004E+02  0.46032687059E+02 -0.63626950441E+03  0.65105790027E+03  0.12509000000E+03 0.  0.
         25    1    3    3    0    0  0.77762227993E+02 -0.77219279949E+02 -0.88076478041E+03  0.89632800236E+03  0.12509000000E+03 0.  0.
<mgrwt>
<rscale>  2 0.46081030E+03</rscale>
<asrwt>0</asrwt>
<pdfrwt beam="1">  1       21 0.41367810E-02 0.46081030E+03</pdfrwt>
<pdfrwt beam="2">  1       21 0.27752622E+00 0.46081030E+03</pdfrwt>
<totfact> 0.14478208E+04</totfact>
</mgrwt>
</event>
<event>
 7    0  0.4766352E-002  0.4652426E+03  0.7546771E-02  0.1023272E+00
         21   -1    0    0  502  501  0.00000000000E+00  0.00000000000E+00  0.36425364428E+03  0.36425364428E+03  0.00000000000E+00 0.  1.
         21   -1    0    0  501  502 -0.00000000000E+00 -0.00000000000E+00 -0.14855768895E+03  0.14855768895E+03  0.00000000000E+00 0.  1.
      99926    2    1    2    0    0  0.00000000000E+00  0.71054273576E-14  0.21569595533E+03  0.51281133322E+03  0.46524264458E+03 0.  0.
      99925    2    3    3    0    0 -0.98032861109E+02  0.43328194248E+02  0.19989990997E+03  0.34732780709E+03  0.26303774880E+03 0.  0.
         25    1    4    4    0    0 -0.55053123640E+02 -0.15598172101E+02  0.78560814443E+02  0.15840915081E+03  0.12509000000E+03 0.  0.
         25    1    3    3    0    0  0.98032861109E+02 -0.43328194248E+02  0.15796045357E+02  0.16548352614E+03  0.12509000000E+03 0.  0.
         25    1    4    4    0    0 -0.42979737469E+02  0.58926366349E+02  0.12133909553E+03  0.18891865627E+03  0.12509000000E+03 0.  0.
<mgrwt>
<rscale>  2 0.46524264E+03</rscale>
<asrwt>0</asrwt>
<pdfrwt beam="1">  1       21 0.53566712E-01 0.46524264E+03</pdfrwt>
<pdfrwt beam="2">  1       21 0.21846719E-01 0.46524264E+03</pdfrwt>
<totfact> 0.59401742E+04</totfact>
</mgrwt>
</event>
<event>
 7    0  0.4766352E-002  0.4576865E+03  0.7546771E-02  0.1025454E+00
         21   -1    0    0  502  501  0.00000000000E+00  0.00000000000E+00  0.59074416963E+03  0.59074416963E+03  0.00000000000E+00 0. -1.
         21   -1    0    0  501  502 -0.00000000000E+00 -0.00000000000E+00 -0.88649607854E+02  0.88649607854E+02  0.00000000000E+00 0. -1.
      99926    2    1    2    0    0  0.00000000000E+00  0.00000000000E+00  0.50209456177E+03  0.67939377748E+03  0.45768652582E+03 0.  0.
      99925    2    3    3    0    0 -0.52332222235E+02 -0.10230264545E+03  0.33649988150E+03  0.44217320716E+03  0.26283166120E+03 0.  0.
         25    1    4    4    0    0  0.86093432179E+01 -0.26929296206E+02  0.13965980348E+03  0.18960927349E+03  0.12509000000E+03 0.  0.
         25    1    3    3    0    0  0.52332222235E+02  0.10230264545E+03  0.16559468028E+03  0.23722057033E+03  0.12509000000E+03 0.  0.
         25    1    4    4    0    0 -0.60941565453E+02 -0.75373349243E+02  0.19684007802E+03  0.25256393367E+03  0.12509000000E+03 0.  0.
<mgrwt>
<rscale>  2 0.45768653E+03</rscale>
<asrwt>0</asrwt>
<pdfrwt beam="1">  1       21 0.86874141E-01 0.45768653E+03</pdfrwt>
<pdfrwt beam="2">  1       21 0.13036707E-01 0.45768653E+03</pdfrwt>
<totfact> 0.52907739E+04</totfact>
</mgrwt>
</event>
<event>
 7    0  0.4766352E-002  0.4050180E+03  0.7546771E-02  0.1042056E+00
         21   -1    0    0  502  501  0.00000000000E+00  0.00000000000E+00  0.93879778579E+03  0.93879778579E+03  0.00000000000E+00 0. -1.
         21   -1    0    0  501  502 -0.00000000000E+00 -0.00000000000E+00 -0.43683422819E+02  0.43683422819E+02  0.00000000000E+00 0. -1.
      99926    2    1    2    0    0  0.88817841970E-15  0.00000000000E+00  0.89511436297E+03  0.98248120861E+03  0.40501802734E+03 0.  0.
      99925    2    3    3    0    0 -0.15660805686E+01  0.39039582655E+02  0.68640867964E+03  0.73604234808E+03  0.26282108185E+03 0.  0.
         25    1    3    3    0    0  0.15660805686E+01 -0.39039582655E+02  0.20870568333E+03  0.24643886053E+03  0.12509000000E+03 0.  0.
         25    1    4    4    0    0 -0.11332904546E+02  0.29357886315E+02  0.45131561414E+03  0.46938642064E+03  0.12509000000E+03 0.  0.
         25    1    4    4    0    0  0.97668239774E+01  0.96816963395E+01  0.23509306550E+03  0.26665592744E+03  0.12509000000E+03 0.  0.
<mgrwt>
<rscale>  2 0.40501803E+03</rscale>
<asrwt>0</asrwt>
<pdfrwt beam="1">  1       21 0.13805848E+00 0.40501803E+03</pdfrwt>
<pdfrwt beam="2">  1       21 0.64240334E-02 0.40501803E+03</pdfrwt>
<totfact> 0.60117267E+04</totfact>
</mgrwt>
</event>
<event>
 7    0  0.4766352E-002  0.4516937E+03  0.7546771E-02  0.1027218E+00
         21   -1    0    0  502  501  0.00000000000E+00  0.00000000000E+00  0.82898739754E+02  0.82898739754E+02  0.00000000000E+00 0. -1.
         21   -1    0    0  501  502 -0.00000000000E+00 -0.00000000000E+00 -0.61529042390E+03  0.61529042390E+03  0.00000000000E+00 0. -1.
      99926    2    1    2    0    0  0.00000000000E+00  0.14210854715E-13 -0.53239168414E+03  0.69818916365E+03  0.45169370473E+03 0.  0.
      99925    2    3    3    0    0 -0.17493084856E+02 -0.10737412157E+03 -0.36073769126E+03  0.45955175800E+03  0.26309870085E+03 0.  0.
         25    1    4    4    0    0  0.10277889292E+02 -0.15061639361E+02 -0.17201374701E+03  0.21346832376E+03  0.12509000000E+03 0.  0.
         25    1    3    3    0    0  0.17493084856E+02  0.10737412157E+03 -0.17165399289E+03  0.23863740565E+03  0.12509000000E+03 0.  0.
         25    1    4    4    0    0 -0.27770974148E+02 -0.92312482209E+02 -0.18872394425E+03  0.24608343424E+03  0.12509000000E+03 0.  0.
<mgrwt>
<rscale>  2 0.45169370E+03</rscale>
<asrwt>0</asrwt>
<pdfrwt beam="1">  1       21 0.12190991E-01 0.45169370E+03</pdfrwt>
<pdfrwt beam="2">  1       21 0.90483885E-01 0.45169370E+03</pdfrwt>
<totfact> 0.54403253E+04</totfact>
</mgrwt>
</event>
<event>
 7    0  0.4766352E-002  0.4665654E+03  0.7546771E-02  0.1022894E+00
         21   -1    0    0  502  501  0.00000000000E+00  0.00000000000E+00  0.11972146941E+03  0.11972146941E+03  0.00000000000E+00 0.  1.
         21   -1    0    0  501  502 -0.00000000000E+00 -0.00000000000E+00 -0.45456188091E+03  0.45456188091E+03  0.00000000000E+00 0.  1.
      99926    2    1    2    0    0  0.14210854715E-13  0.00000000000E+00 -0.33484041150E+03  0.57428335032E+03  0.46656539228E+03 0.  0.
      99925    2    3    3    0    0  0.97584961546E+02  0.36640749121E+02 -0.29056329259E+03  0.40554289703E+03  0.26300692979E+03 0.  0.
         25    1    4    4    0    0  0.80997873702E+01  0.32840806875E+01 -0.12259341359E+03  0.17536546096E+03  0.12509000000E+03 0.  0.
         25    1    3    3    0    0 -0.97584961546E+02 -0.36640749121E+02 -0.44277118914E+02  0.16874045329E+03  0.12509000000E+03 0.  0.
         25    1    4    4    0    0  0.89485174176E+02  0.33356668433E+02 -0.16796987900E+03  0.23017743607E+03  0.12509000000E+03 0.  0.
<mgrwt>
<rscale>  2 0.46656539E+03</rscale>
<asrwt>0</asrwt>
<pdfrwt beam="1">  1       21 0.17606099E-01 0.46656539E+03</pdfrwt>
<pdfrwt beam="2">  1       21 0.66847335E-01 0.46656539E+03</pdfrwt>
<totfact> 0.55077465E+04</totfact>
</mgrwt>
</event>
<event>
 7    0  0.4766352E-002  0.4469851E+03  0.7546771E-02  0.1028625E+00
         21   -1    0    0  502  501  0.00000000000E+00  0.00000000000E+00  0.90918364803E+03  0.90918364803E+03  0.00000000000E+00 0. -1.
         21   -1    0    0  501  502 -0.00000000000E+00 -0.00000000000E+00 -0.54938218677E+02  0.54938218677E+02  0.00000000000E+00 0. -1.
      99926    2    1    2    0    0  0.00000000000E+00  0.00000000000E+00  0.85424542935E+03  0.96412186671E+03  0.44698514550E+03 0.  0.
      99925    2    3    3    0    0 -0.35246268124E+02  0.80887814696E+02  0.66809885947E+03  0.72311731994E+03  0.26221638849E+03 0.  0.
         25    1    3    3    0    0  0.35246268124E+02 -0.80887814696E+02  0.18614656988E+03  0.24100454677E+03  0.12509000000E+03 0.  0.
         25    1    4    4    0    0 -0.40833167270E+02  0.55171121721E+02  0.27588028467E+03  0.31059401119E+03  0.12509000000E+03 0.  0.
         25    1    4    4    0    0  0.55868991465E+01  0.25716692976E+02  0.39221857480E+03  0.41252330875E+03  0.12509000000E+03 0.  0.
<mgrwt>
<rscale>  2 0.44698515E+03</rscale>
<asrwt>0</asrwt>
<pdfrwt beam="1">  1       21 0.13370347E+00 0.44698515E+03</pdfrwt>
<pdfrwt beam="2">  1       21 0.80791504E-02 0.44698515E+03</pdfrwt>
<totfact> 0.43219628E+04</totfact>
</mgrwt>
</event>
<event>
 7    0  0.4766352E-002  0.4570300E+03  0.7546771E-02  0.1025646E+00
         21   -1    0    0  502  501  0.00000000000E+00  0.00000000000E+00  0.28226810039E+02  0.28226810039E+02  0.00000000000E+00 0. -1.
         21   -1    0    0  501  502 -0.00000000000E+00 -0.00000000000E+00 -0.18499827230E+04  0.18499827230E+04  0.00000000000E+00 0. -1.
      99926    2    1    2    0    0  0.00000000000E+00  0.00000000000E+00 -0.18217559130E+04  0.18782095330E+04  0.45703002482E+03 0.  0.
      99925    2    3    3    0    0 -0.20573995525E+02 -0.97746145046E+02 -0.90379726722E+03  0.94639775936E+03  0.26237686738E+03 0.  0.
         25    1    4    4    0    0  0.33566729513E+01 -0.98504755757E+01 -0.37740342572E+03  0.39773000008E+03  0.12509000000E+03 0.  0.
         25    1    3    3    0    0  0.20573995525E+02  0.97746145046E+02 -0.91795864575E+03  0.93181177368E+03  0.12509000000E+03 0.  0.
         25    1    4    4    0    0 -0.23930668476E+02 -0.87895669470E+02 -0.52639384150E+03  0.54866775928E+03  0.12509000000E+03 0.  0.
<mgrwt>
<rscale>  2 0.45703002E+03</rscale>
<asrwt>0</asrwt>
<pdfrwt beam="1">  1       21 0.41509990E-02 0.45703002E+03</pdfrwt>
<pdfrwt beam="2">  1       21 0.27205644E+00 0.45703002E+03</pdfrwt>
<totfact> 0.15555351E+04</totfact>
</mgrwt>
</event>
<event>
 7    0  0.4766352E-002  0.4540738E+03  0.7546771E-02  0.1026514E+00
         21   -1    0    0  502  501  0.00000000000E+00  0.00000000000E+00  0.12382604208E+04  0.12382604208E+04  0.00000000000E+00 0.  1.
         21   -1    0    0  501  502 -0.00000000000E+00 -0.00000000000E+00 -0.41627549285E+02  0.41627549285E+02  0.00000000000E+00 0.  1.
      99926    2    1    2    0    0 -0.71054273576E-14  0.00000000000E+00  0.11966328715E+04  0.12798879701E+04  0.45407376799E+03 0.  0.
      99925    2    3    3    0    0  0.62357723663E+02 -0.33027874053E+02  0.50728825957E+03  0.57574109032E+03  0.26297737283E+03 0.  0.
         25    1    3    3    0    0 -0.62357723663E+02  0.33027874053E+02  0.68934461196E+03  0.70414687978E+03  0.12509000000E+03 0.  0.
         25    1    4    4    0    0  0.32365863425E+02  0.17955625473E+02  0.20064149300E+03  0.23932085244E+03  0.12509000000E+03 0.  0.
         25    1    4    4    0    0  0.29991860238E+02 -0.50983499526E+02  0.30664676657E+03  0.33642023788E+03  0.12509000000E+03 0.  0.
<mgrwt>
<rscale>  2 0.45407377E+03</rscale>
<asrwt>0</asrwt>
<pdfrwt beam="1">  1       21 0.18209710E+00 0.45407377E+03</pdfrwt>
<pdfrwt beam="2">  1       21 0.61216992E-02 0.45407377E+03</pdfrwt>
<totfact> 0.29919550E+04</totfact>
</mgrwt>
</event>
<event>
 7    0  0.4766352E-002  0.4666961E+03  0.7546771E-02  0.1022857E+00
         21   -1    0    0  502  501  0.00000000000E+00  0.00000000000E+00  0.21399791752E+04  0.21399791752E+04  0.00000000000E+00 0.  1.
         21   -1    0    0  501  502 -0.00000000000E+00 -0.00000000000E+00 -0.25444789062E+02  0.25444789062E+02  0.00000000000E+00 0.  1.
      99926    2    1    2    0    0 -0.14210854715E-13  0.00000000000E+00  0.21145343862E+04  0.21654239643E+04  0.46669612688E+03 0.  0.
      99925    2    3    3    0    0  0.10657025247E+03  0.47600695867E+02  0.15087522472E+04  0.15359459639E+04  0.26300877494E+03 0.  0.
         25    1    3    3    0    0 -0.10657025247E+03 -0.47600695867E+02  0.60578213894E+03  0.62947800034E+03  0.12509000000E+03 0.  0.
         25    1    4    4    0    0  0.16505665839E+02  0.11375112869E+02  0.56749732975E+03  0.58146586965E+03  0.12509000000E+03 0.  0.
         25    1    4    4    0    0  0.90064586634E+02  0.36225582997E+02  0.94125491748E+03  0.95448009430E+03  0.12509000000E+03 0.  0.
<mgrwt>
<rscale>  2 0.46669613E+03</rscale>
<asrwt>0</asrwt>
<pdfrwt beam="1">  1       21 0.31470270E+00 0.46669613E+03</pdfrwt>
<pdfrwt beam="2">  1       21 0.37418822E-02 0.46669613E+03</pdfrwt>
<totfact> 0.10230899E+04</totfact>
</mgrwt>
</event>
<event>
 7    0  0.4766352E-002  0.4606444E+03  0.7546771E-02  0.1024594E+00
         21   -1    0    0  502  501  0.00000000000E+00  0.00000000000E+00  0.72107255793E+02  0.72107255793E+02  0.00000000000E+00 0.  1.
         21   -1    0    0  501  502 -0.00000000000E+00 -0.00000000000E+00 -0.73568623587E+03  0.73568623587E+03  0.00000000000E+00 0.  1.
      99926    2    1    2    0    0  0.00000000000E+00  0.00000000000E+00 -0.66357898008E+03  0.80779349167E+03  0.46064439905E+03 0.  0.
      99925    2    3    3    0    0 -0.65679745696E+01 -0.10260856437E+03 -0.31251391385E+03  0.42118536372E+03  0.26298385594E+03 0.  0.
         25    1    3    3    0    0  0.65679745696E+01  0.10260856437E+03 -0.35106506623E+03  0.38660812795E+03  0.12509000000E+03 0.  0.
         25    1    4    4    0    0  0.25072003486E+02 -0.81652090385E+02 -0.17520078604E+03  0.23159985482E+03  0.12509000000E+03 0.  0.
         25    1    4    4    0    0 -0.31639978056E+02 -0.20956473989E+02 -0.13731312781E+03  0.18958550889E+03  0.12509000000E+03 0.  0.
<mgrwt>
<rscale>  2 0.46064440E+03</rscale>
<asrwt>0</asrwt>
<pdfrwt beam="1">  1       21 0.10604009E-01 0.46064440E+03</pdfrwt>
<pdfrwt beam="2">  1       21 0.10818915E+00 0.46064440E+03</pdfrwt>
<totfact> 0.45347925E+04</totfact>
</mgrwt>
</event>
<event>
 7    0  0.4766352E-002  0.4601841E+03  0.7546771E-02  0.1024728E+00
         21   -1    0    0  502  501  0.00000000000E+00  0.00000000000E+00  0.26756731508E+03  0.26756731508E+03  0.00000000000E+00 0. -1.
         21   -1    0    0  501  502 -0.00000000000E+00 -0.00000000000E+00 -0.19786557311E+03  0.19786557311E+03  0.00000000000E+00 0. -1.
      99926    2    1    2    0    0 -0.35527136788E-14  0.71054273576E-14  0.69701741972E+02  0.46543288818E+03  0.46018413768E+03 0.  0.
      99925    2    3    3    0    0  0.24394561964E+02 -0.34923945853E+02 -0.67549099974E+02  0.27490709370E+03  0.26305180595E+03 0.  0.
         25    1    4    4    0    0  0.27544523920E+02 -0.51513860646E+02 -0.52857645297E+02  0.14783036699E+03  0.12509000000E+03 0.  0.
         25    1    3    3    0    0 -0.24394561964E+02  0.34923945853E+02  0.13725084195E+03  0.19052579448E+03  0.12509000000E+03 0.  0.
         25    1    4    4    0    0 -0.31499619563E+01  0.16589914793E+02 -0.14691454677E+02  0.12707672672E+03  0.12509000000E+03 0.  0.
<mgrwt>
<rscale>  2 0.46018414E+03</rscale>
<asrwt>0</asrwt>
<pdfrwt beam="1">  1       21 0.39348135E-01 0.46018414E+03</pdfrwt>
<pdfrwt beam="2">  1       21 0.29097878E-01 0.46018414E+03</pdfrwt>
<totfact> 0.65055055E+04</totfact>
</mgrwt>
</event>
<event>
 7    0  0.4766352E-002  0.4564536E+03  0.7546771E-02  0.1025815E+00
         21   -1    0    0  502  501  0.00000000000E+00  0.00000000000E+00  0.24043601189E+03  0.24043601189E+03  0.00000000000E+00 0. -1.
         21   -1    0    0  501  502 -0.00000000000E+00 -0.00000000000E+00 -0.21663755455E+03  0.21663755455E+03  0.00000000000E+00 0. -1.
      99926    2    1    2    0    0  0.88817841970E-15 -0.53290705182E-14  0.23798457342E+02  0.45707356643E+03  0.45645358862E+03 0.  0.
      99925    2    3    3    0    0 -0.69288487508E+01  0.96242110956E+01  0.12924715258E+03  0.29303829641E+03  0.26272796259E+03 0.  0.
         25    1    4    4    0    0 -0.13674424673E+01  0.43607861285E+02  0.54077326466E+02  0.14309221084E+03  0.12509000000E+03 0.  0.
         25    1    3    3    0    0  0.69288487508E+01 -0.96242110956E+01 -0.10544869524E+03  0.16403527002E+03  0.12509000000E+03 0.  0.
         25    1    4    4    0    0 -0.55614062835E+01 -0.33983650190E+02  0.75169826115E+02  0.14994608557E+03  0.12509000000E+03 0.  0.
<mgrwt>
<rscale>  2 0.45645359E+03</rscale>
<asrwt>0</asrwt>
<pdfrwt beam="1">  1       21 0.35358237E-01 0.45645359E+03</pdfrwt>
<pdfrwt beam="2">  1       21 0.31858464E-01 0.45645359E+03</pdfrwt>
<totfact> 0.67606671E+04</totfact>
</mgrwt>
</event>
<event>
 7    0  0.4766352E-002  0.4488431E+03  0.7546771E-02  0.1028068E+00
         21   -1    0    0  502  501  0.00000000000E+00  0.00000000000E+00  0.34025170347E+03  0.34025170347E+03  0.00000000000E+00 0.  1.
         21   -1    0    0  501  502 -0.00000000000E+00 -0.00000000000E+00 -0.14802289102E+03  0.14802289102E+03  0.00000000000E+00 0.  1.
      99926    2    1    2    0    0  0.00000000000E+00  0.00000000000E+00  0.19222881245E+03  0.48827459449E+03  0.44884313885E+03 0.  0.
      99925    2    3    3    0    0 -0.74430244849E+02 -0.76943224155E+02  0.13029738671E+03  0.31236799801E+03  0.26293770385E+03 0.  0.
         25    1    4    4    0    0 -0.68498776755E+02 -0.47035925265E+02  0.40965836512E+02  0.15566042703E+03  0.12509000000E+03 0.  0.
         25    1    3    3    0    0  0.74430244849E+02  0.76943224155E+02  0.61931425738E+02  0.17590659648E+03  0.12509000000E+03 0.  0.
         25    1    4    4    0    0 -0.59314680947E+01 -0.29907298890E+02  0.89331550200E+02  0.15670757098E+03  0.12509000000E+03 0.  0.
<mgrwt>
<rscale>  2 0.44884314E+03</rscale>
<asrwt>0</asrwt>
<pdfrwt beam="1">  1       21 0.50037015E-01 0.44884314E+03</pdfrwt>
<pdfrwt beam="2">  1       21 0.21768072E-01 0.44884314E+03</pdfrwt>
<totfact> 0.69434747E+04</totfact>
</mgrwt>
</event>
<event>
 7    0  0.4766352E-002  0.4718900E+03  0.7546771E-02  0.1021388E+00
         21   -1    0    0  502  501  0.00000000000E+00  0.00000000000E+00  0.12896159527E+04  0.12896159527E+04  0.00000000000E+00 0. -1.
         21   -1    0    0  501  502 -0.00000000000E+00 -0.00000000000E+00 -0.43167930062E+02  0.43167930062E+02  0.00000000000E+00 0. -1.
      99926    2    1    2    0    0  0.71054273576E-14  0.00000000000E+00  0.12464480226E+04  0.13327838827E+04  0.47189003486E+03 0.  0.
      99925    2    3    3    0    0 -0.52517239111E+02  0.11301700251E+03  0.68389916359E+03  0.74317415575E+03  0.26279051841E+03 0.  0.
         25    1    4    4    0    0 -0.66213233554E+02  0.55157167056E+02  0.37808257164E+03  0.40745606444E+03  0.12509000000E+03 0.  0.
         25    1    4    4    0    0  0.13695994442E+02  0.57859835450E+02  0.30581659195E+03  0.33571809131E+03  0.12509000000E+03 0.  0.
         25    1    3    3    0    0  0.52517239111E+02 -0.11301700251E+03  0.56254885901E+03  0.58960972696E+03  0.12509000000E+03 0.  0.
<mgrwt>
<rscale>  2 0.47189003E+03</rscale>
<asrwt>0</asrwt>
<pdfrwt beam="1">  1       21 0.18964938E+00 0.47189003E+03</pdfrwt>
<pdfrwt beam="2">  1       21 0.63482259E-02 0.47189003E+03</pdfrwt>
<totfact> 0.24761338E+04</totfact>
</mgrwt>
</event>
<event>
 7    0  0.4766352E-002  0.4497335E+03  0.7546771E-02  0.1027802E+00
         21   -1    0    0  502  501  0.00000000000E+00  0.00000000000E+00  0.18253262019E+03  0.18253262019E+03  0.00000000000E+00 0.  1.
         21   -1    0    0  501  502 -0.00000000000E+00 -0.00000000000E+00 -0.27701930548E+03  0.27701930548E+03  0.00000000000E+00 0.  1.
      99926    2    1    2    0    0  0.00000000000E+00  0.00000000000E+00 -0.94486685288E+02  0.45955192567E+03  0.44973351964E+03 0.  0.
      99925    2    3    3    0    0 -0.17872354249E+02 -0.80453307576E+01 -0.16822629511E+03  0.31302825335E+03  0.26325358997E+03 0.  0.
         25    1    4    4    0    0  0.27234541132E+02 -0.73953501743E+01 -0.59997286706E+02  0.14157540022E+03  0.12509000000E+03 0.  0.
         25    1    4    4    0    0 -0.45106895381E+02 -0.64998058337E+00 -0.10822900841E+03  0.17145285313E+03  0.12509000000E+03 0.  0.
         25    1    3    3    0    0  0.17872354249E+02  0.80453307576E+01  0.73739609823E+02  0.14652367232E+03  0.12509000000E+03 0.  0.
<mgrwt>
<rscale>  2 0.44973352E+03</rscale>
<asrwt>0</asrwt>
<pdfrwt beam="1">  1       21 0.26843033E-01 0.44973352E+03</pdfrwt>
<pdfrwt beam="2">  1       21 0.40738132E-01 0.44973352E+03</pdfrwt>
<totfact> 0.71147339E+04</totfact>
</mgrwt>
</event>
<event>
 7    0  0.4766352E-002  0.4563364E+03  0.7546771E-02  0.1025849E+00
         21   -1    0    0  502  501  0.00000000000E+00  0.00000000000E+00  0.27976188736E+03  0.27976188736E+03  0.00000000000E+00 0.  1.
         21   -1    0    0  501  502 -0.00000000000E+00 -0.00000000000E+00 -0.18608939993E+03  0.18608939993E+03  0.00000000000E+00 0.  1.
      99926    2    1    2    0    0 -0.14210854715E-13  0.00000000000E+00  0.93672487428E+02  0.46585128730E+03  0.45633637481E+03 0.  0.
      99925    2    3    3    0    0 -0.83470991785E+02 -0.66882283805E+02  0.10030716460E+03  0.30113282022E+03  0.26301863391E+03 0.  0.
         25    1    3    3    0    0  0.83470991785E+02  0.66882283805E+02 -0.66346771708E+01  0.16471846708E+03  0.12509000000E+03 0.  0.
         25    1    4    4    0    0 -0.47962208416E+01 -0.47603467383E+02  0.35004842822E+02  0.13842666276E+03  0.12509000000E+03 0.  0.
         25    1    4    4    0    0 -0.78674770943E+02 -0.19278816422E+02  0.65302321777E+02  0.16270615746E+03  0.12509000000E+03 0.  0.
<mgrwt>
<rscale>  2 0.45633637E+03</rscale>
<asrwt>0</asrwt>
<pdfrwt beam="1">  1       21 0.41141454E-01 0.45633637E+03</pdfrwt>
<pdfrwt beam="2">  1       21 0.27366088E-01 0.45633637E+03</pdfrwt>
<totfact> 0.67032205E+04</totfact>
</mgrwt>
</event>
<event>
 7    0  0.4766352E-002  0.4378103E+03  0.7546771E-02  0.1031421E+00
         21   -1    0    0  502  501  0.00000000000E+00  0.00000000000E+00  0.10282877434E+03  0.10282877434E+03  0.00000000000E+00 0. -1.
         21   -1    0    0  501  502 -0.00000000000E+00 -0.00000000000E+00 -0.46601228538E+03  0.46601228538E+03  0.00000000000E+00 0. -1.
      99926    2    1    2    0    0  0.00000000000E+00  0.00000000000E+00 -0.36318351104E+03  0.56884105972E+03  0.43781033397E+03 0.  0.
      99925    2    3    3    0    0 -0.95092478005E+02  0.34695290713E+01 -0.21502971556E+03  0.35285107796E+03  0.26308076258E+03 0.  0.
         25    1    3    3    0    0  0.95092478005E+02 -0.34695290713E+01 -0.14815379547E+03  0.21598998175E+03  0.12509000000E+03 0.  0.
         25    1    4    4    0    0 -0.60721488597E+02  0.36209662921E+01 -0.15979869131E+03  0.21185688664E+03  0.12509000000E+03 0.  0.
         25    1    4    4    0    0 -0.34370989408E+02 -0.15143722079E+00 -0.55231024257E+02  0.14099419132E+03  0.12509000000E+03 0.  0.
<mgrwt>
<rscale>  2 0.43781033E+03</rscale>
<asrwt>0</asrwt>
<pdfrwt beam="1">  1       21 0.15121878E-01 0.43781033E+03</pdfrwt>
<pdfrwt beam="2">  1       21 0.68531219E-01 0.43781033E+03</pdfrwt>
<totfact> 0.69631742E+04</totfact>
</mgrwt>
</event>
<event>
 7    0  0.4766352E-002  0.4544457E+03  0.7546771E-02  0.1026405E+00
         21   -1    0    0  502  501  0.00000000000E+00  0.00000000000E+00  0.23387209577E+03  0.23387209577E+03  0.00000000000E+00 0. -1.
         21   -1    0    0  501  502 -0.00000000000E+00 -0.00000000000E+00 -0.22076267431E+03  0.22076267431E+03  0.00000000000E+00 0. -1.
      99926    2    1    2    0    0  0.00000000000E+00  0.00000000000E+00  0.13109421464E+02  0.45463477007E+03  0.45444572529E+03 0.  0.
      99925    2    3    3    0    0  0.64917065696E+02  0.87820327264E+02 -0.18316999771E+02  0.28563251165E+03  0.26329410159E+03 0.  0.
         25    1    3    3    0    0 -0.64917065696E+02 -0.87820327264E+02  0.31426421235E+02  0.16900225842E+03  0.12509000000E+03 0.  0.
         25    1    4    4    0    0  0.62452471777E+02  0.28242954303E+02 -0.32623845253E+02  0.14632087711E+03  0.12509000000E+03 0.  0.
         25    1    4    4    0    0  0.24645939189E+01  0.59577372962E+02  0.14306845483E+02  0.13931163455E+03  0.12509000000E+03 0.  0.
<mgrwt>
<rscale>  2 0.45444573E+03</rscale>
<asrwt>0</asrwt>
<pdfrwt beam="1">  1       21 0.34392955E-01 0.45444573E+03</pdfrwt>
<pdfrwt beam="2">  1       21 0.32465099E-01 0.45444573E+03</pdfrwt>
<totfact> 0.68876671E+04</totfact>
</mgrwt>
</event>
<event>
 7    0  0.4766352E-002  0.4483705E+03  0.7546771E-02  0.1028209E+00
         21   -1    0    0  502  501  0.00000000000E+00  0.00000000000E+00  0.12040884451E+04  0.12040884451E+04  0.00000000000E+00 0. -1.
         21   -1    0    0  501  502 -0.00000000000E+00 -0.00000000000E+00 -0.41740313814E+02  0.41740313814E+02  0.00000000000E+00 0. -1.
      99926    2    1    2    0    0 -0.43090531143E-14  0.71054273576E-14  0.11623481313E+04  0.12458287589E+04  0.44837051446E+03 0.  0.
      99925    2    3    3    0    0  0.43367250777E-01  0.51857434501E+02  0.47509804379E+03  0.54536506517E+03  0.26270840812E+03 0.  0.
         25    1    4    4    0    0  0.37639989249E+02  0.23916401455E+02  0.26474721313E+03  0.29618804501E+03  0.12509000000E+03 0.  0.
         25    1    3    3    0    0 -0.43367250777E-01 -0.51857434501E+02  0.68725008751E+03  0.70046369376E+03  0.12509000000E+03 0.  0.
         25    1    4    4    0    0 -0.37596621998E+02  0.27941033046E+02  0.21035083066E+03  0.24917702016E+03  0.12509000000E+03 0.  0.
<mgrwt>
<rscale>  2 0.44837051E+03</rscale>
<asrwt>0</asrwt>
<pdfrwt beam="1">  1       21 0.17707181E+00 0.44837051E+03</pdfrwt>
<pdfrwt beam="2">  1       21 0.61382822E-02 0.44837051E+03</pdfrwt>
<totfact> 0.32367868E+04</totfact>
</mgrwt>
</event>
<event>
 7    0  0.4766352E-002  0.4565213E+03  0.7546771E-02  0.1025795E+00
         21   -1    0    0  502  501  0.00000000000E+00  0.00000000000E+00  0.27570183775E+04  0.27570183775E+04  0.00000000000E+00 0.  1.
         21   -1    0    0  501  502 -0.00000000000E+00 -0.00000000000E+00 -0.18898283865E+02  0.18898283865E+02  0.00000000000E+00 0.  1.
      99926    2    1    2    0    0  0.00000000000E+00 -0.71054273576E-14  0.27381200937E+04  0.27759166614E+04  0.45652126312E+03 0.  0.
      99925    2    3    3    0    0 -0.89916699945E+02 -0.54400851324E+02  0.19982385839E+04  0.20182118230E+04  0.26301532029E+03 0.  0.
         25    1    4    4    0    0 -0.84266972081E+02 -0.29317023586E+02  0.12056186493E+04  0.12153700038E+04  0.12509000000E+03 0.  0.
         25    1    4    4    0    0 -0.56497278646E+01 -0.25083827738E+02  0.79261993461E+03  0.80284181921E+03  0.12509000000E+03 0.  0.
         25    1    3    3    0    0  0.89916699945E+02  0.54400851324E+02  0.73988150978E+03  0.75770483842E+03  0.12509000000E+03 0.  0.
<mgrwt>
<rscale>  2 0.45652126E+03</rscale>
<asrwt>0</asrwt>
<pdfrwt beam="1">  1       21 0.40544360E+00 0.45652126E+03</pdfrwt>
<pdfrwt beam="2">  1       21 0.27791613E-02 0.45652126E+03</pdfrwt>
<totfact> 0.46456394E+03</totfact>
</mgrwt>
</event>
<event>
 7    0  0.4766352E-002  0.4359453E+03  0.7546771E-02  0.1031998E+00
         21   -1    0    0  502  501  0.00000000000E+00  0.00000000000E+00  0.25315693185E+02  0.25315693185E+02  0.00000000000E+00 0.  1.
         21   -1    0    0  501  502 -0.00000000000E+00 -0.00000000000E+00 -0.18767833027E+04  0.18767833027E+04  0.00000000000E+00 0.  1.
      99926    2    1    2    0    0 -0.35527136788E-14  0.00000000000E+00 -0.18514676095E+04  0.19020989959E+04  0.43594527302E+03 0.  0.
      99925    2    3    3    0    0 -0.28281641556E+02 -0.36071486884E+02 -0.15463092437E+04  0.15691273158E+04  0.26265424539E+03 0.  0.
         25    1    3    3    0    0  0.28281641556E+02  0.36071486884E+02 -0.30515836586E+03  0.33297168013E+03  0.12509000000E+03 0.  0.
         25    1    4    4    0    0 -0.15739976422E+02 -0.34144403693E+02 -0.10024334462E+04  0.10109074682E+04  0.12509000000E+03 0.  0.
         25    1    4    4    0    0 -0.12541665134E+02 -0.19270831907E+01 -0.54387579747E+03  0.55821984754E+03  0.12509000000E+03 0.  0.
<mgrwt>
<rscale>  2 0.43594527E+03</rscale>
<asrwt>0</asrwt>
<pdfrwt beam="1">  1       21 0.37228939E-02 0.43594527E+03</pdfrwt>
<pdfrwt beam="2">  1       21 0.27599771E+00 0.43594527E+03</pdfrwt>
<totfact> 0.17875723E+04</totfact>
</mgrwt>
</event>
<event>
 7    0  0.4766352E-002  0.4552985E+03  0.7546771E-02  0.1026154E+00
         21   -1    0    0  502  501  0.00000000000E+00  0.00000000000E+00  0.18965900208E+02  0.18965900208E+02  0.00000000000E+00 0. -1.
         21   -1    0    0  501  502 -0.00000000000E+00 -0.00000000000E+00 -0.27324927841E+04  0.27324927841E+04  0.00000000000E+00 0. -1.
      99926    2    1    2    0    0  0.71054273576E-14  0.00000000000E+00 -0.27135268839E+04  0.27514586843E+04  0.45529851948E+03 0.  0.
      99925    2    3    3    0    0 -0.46571220334E+02 -0.38671832210E+02 -0.11271422010E+04  0.11589988703E+04  0.26299135118E+03 0.  0.
         25    1    4    4    0    0 -0.51892809891E+02 -0.40361485416E+00 -0.47957967822E+03  0.49833442835E+03  0.12509000000E+03 0.  0.
         25    1    4    4    0    0  0.53215895569E+01 -0.38268217356E+02 -0.64756252279E+03  0.66066444191E+03  0.12509000000E+03 0.  0.
         25    1    3    3    0    0  0.46571220334E+02  0.38671832210E+02 -0.15863846829E+04  0.15924598141E+04  0.12509000000E+03 0.  0.
<mgrwt>
<rscale>  2 0.45529852E+03</rscale>
<asrwt>0</asrwt>
<pdfrwt beam="1">  1       21 0.27891012E-02 0.45529852E+03</pdfrwt>
<pdfrwt beam="2">  1       21 0.40183743E+00 0.45529852E+03</pdfrwt>
<totfact> 0.48747846E+03</totfact>
</mgrwt>
</event>
<event>
 7    0  0.4766352E-002  0.4519676E+03  0.7546771E-02  0.1027137E+00
         21   -1    0    0  502  501  0.00000000000E+00  0.00000000000E+00  0.73137534636E+02  0.73137534636E+02  0.00000000000E+00 0.  1.
         21   -1    0    0  501  502 -0.00000000000E+00 -0.00000000000E+00 -0.69825539111E+03  0.69825539111E+03  0.00000000000E+00 0.  1.
      99926    2    1    2    0    0 -0.71054273576E-14  0.00000000000E+00 -0.62511785647E+03  0.77139292574E+03  0.45196759995E+03 0.  0.
      99925    2    3    3    0    0  0.63707000789E+02  0.17126288807E+02 -0.24359528458E+03  0.36450366233E+03  0.26300639815E+03 0.  0.
         25    1    4    4    0    0  0.25537638283E+02 -0.27840655896E+02 -0.95319388377E+02  0.16174228572E+03  0.12509000000E+03 0.  0.
         25    1    3    3    0    0 -0.63707000789E+02 -0.17126288807E+02 -0.38152257189E+03  0.40688926341E+03  0.12509000000E+03 0.  0.
         25    1    4    4    0    0  0.38169362506E+02  0.44966944703E+02 -0.14827589621E+03  0.20276137661E+03  0.12509000000E+03 0.  0.
<mgrwt>
<rscale>  2 0.45196760E+03</rscale>
<asrwt>0</asrwt>
<pdfrwt beam="1">  1       21 0.10755519E-01 0.45196760E+03</pdfrwt>
<pdfrwt beam="2">  1       21 0.10268462E+00 0.45196760E+03</pdfrwt>
<totfact> 0.50367915E+04</totfact>
</mgrwt>
</event>
<event>
 7    0  0.4766352E-002  0.5034849E+03  0.7546771E-02  0.1012873E+00
         21   -1    0    0  502  501  0.00000000000E+00  0.00000000000E+00  0.31190618872E+03  0.31190618872E+03  0.00000000000E+00 0. -1.
         21   -1    0    0  501  502 -0.00000000000E+00 -0.00000000000E+00 -0.20318376336E+03  0.20318376336E+03  0.00000000000E+00 0. -1.
      99926    2    1    2    0    0 -0.14210854715E-13  0.00000000000E+00  0.10872242536E+03  0.51508995208E+03  0.50348494809E+03 0.  0.
      99925    2    3    3    0    0 -0.12474109596E+03 -0.80792700114E+02  0.23377656571E+02  0.30291304694E+03  0.26291062696E+03 0.  0.
         25    1    4    4    0    0 -0.80086423798E+02 -0.87032844181E+01 -0.62316573384E+01  0.14891582888E+03  0.12509000000E+03 0.  0.
         25    1    4    4    0    0 -0.44654672166E+02 -0.72089415695E+02  0.29609313910E+02  0.15399721807E+03  0.12509000000E+03 0.  0.
         25    1    3    3    0    0  0.12474109596E+03  0.80792700114E+02  0.85344768788E+02  0.21217690514E+03  0.12509000000E+03 0.  0.
<mgrwt>
<rscale>  2 0.50348495E+03</rscale>
<asrwt>0</asrwt>
<pdfrwt beam="1">  1       21 0.45868557E-01 0.50348495E+03</pdfrwt>
<pdfrwt beam="2">  1       21 0.29879965E-01 0.50348495E+03</pdfrwt>
<totfact> 0.44472110E+04</totfact>
</mgrwt>
</event>
<event>
 7    0  0.4766352E-002  0.4566118E+03  0.7546771E-02  0.1025769E+00
         21   -1    0    0  502  501  0.00000000000E+00  0.00000000000E+00  0.12870234396E+03  0.12870234396E+03  0.00000000000E+00 0. -1.
         21   -1    0    0  501  502 -0.00000000000E+00 -0.00000000000E+00 -0.40499319852E+03  0.40499319852E+03  0.00000000000E+00 0. -1.
      99926    2    1    2    0    0  0.00000000000E+00  0.00000000000E+00 -0.27629085456E+03  0.53369554248E+03  0.45661175603E+03 0.  0.
      99925    2    3    3    0    0 -0.10220537836E+03 -0.15720063838E+02 -0.23151109625E+03  0.36533344868E+03  0.26301726420E+03 0.  0.
         25    1    4    4    0    0 -0.51865841739E+02  0.31341426197E+02 -0.12795527960E+03  0.18892435580E+03  0.12509000000E+03 0.  0.
         25    1    4    4    0    0 -0.50339536618E+02 -0.47061490035E+02 -0.10355581665E+03  0.17640909288E+03  0.12509000000E+03 0.  0.
         25    1    3    3    0    0  0.10220537836E+03  0.15720063838E+02 -0.44779758315E+02  0.16836209380E+03  0.12509000000E+03 0.  0.
<mgrwt>
<rscale>  2 0.45661176E+03</rscale>
<asrwt>0</asrwt>
<pdfrwt beam="1">  1       21 0.18926815E-01 0.45661176E+03</pdfrwt>
<pdfrwt beam="2">  1       21 0.59557823E-01 0.45661176E+03</pdfrwt>
<totfact> 0.62159200E+04</totfact>
</mgrwt>
</event>
<event>
 7    0  0.4766352E-002  0.4541847E+03  0.7546771E-02  0.1026481E+00
         21   -1    0    0  502  501  0.00000000000E+00  0.00000000000E+00  0.12421345613E+04  0.12421345613E+04  0.00000000000E+00 0.  1.
         21   -1    0    0  501  502 -0.00000000000E+00 -0.00000000000E+00 -0.41517996815E+02  0.41517996815E+02  0.00000000000E+00 0.  1.
      99926    2    1    2    0    0  0.00000000000E+00  0.00000000000E+00  0.12006165645E+04  0.12836525581E+04  0.45418471467E+03 0.  0.
      99925    2    3    3    0    0 -0.72985029501E+02 -0.37799538743E+02  0.97279542753E+03  0.10110620260E+04  0.26298261713E+03 0.  0.
         25    1    4    4    0    0 -0.70893550567E+02  0.42012536866E-01  0.46556622739E+03  0.48726308855E+03  0.12509000000E+03 0.  0.
         25    1    4    4    0    0 -0.20914789340E+01 -0.37841551280E+02  0.50722920014E+03  0.52379893744E+03  0.12509000000E+03 0.  0.
         25    1    3    3    0    0  0.72985029501E+02  0.37799538743E+02  0.22782113694E+03  0.27259053211E+03  0.12509000000E+03 0.  0.
<mgrwt>
<rscale>  2 0.45418471E+03</rscale>
<asrwt>0</asrwt>
<pdfrwt beam="1">  1       21 0.18266682E+00 0.45418471E+03</pdfrwt>
<pdfrwt beam="2">  1       21 0.61055886E-02 0.45418471E+03</pdfrwt>
<totfact> 0.29781688E+04</totfact>
</mgrwt>
</event>
<event>
 7    0  0.4766352E-002  0.4561938E+03  0.7546771E-02  0.1025891E+00
         21   -1    0    0  502  501  0.00000000000E+00  0.00000000000E+00  0.11754357391E+04  0.11754357391E+04  0.00000000000E+00 0.  1.
         21   -1    0    0  501  502 -0.00000000000E+00 -0.00000000000E+00 -0.44262905401E+02  0.44262905401E+02  0.00000000000E+00 0.  1.
      99926    2    1    2    0    0  0.17763568394E-14 -0.14210854715E-13  0.11311728337E+04  0.12196986445E+04  0.45619382252E+03 0.  0.
      99925    2    3    3    0    0 -0.11120938856E+02 -0.67755546744E+02  0.46684956321E+03  0.54022281329E+03  0.26301650885E+03 0.  0.
         25    1    4    4    0    0  0.65129388097E+01 -0.73054538375E+02  0.23497768890E+03  0.27611846431E+03  0.12509000000E+03 0.  0.
         25    1    4    4    0    0 -0.17633877666E+02  0.52989916313E+01  0.23187187431E+03  0.26410434898E+03  0.12509000000E+03 0.  0.
         25    1    3    3    0    0  0.11120938856E+02  0.67755546744E+02  0.66432327050E+03  0.67947583123E+03  0.12509000000E+03 0.  0.
<mgrwt>
<rscale>  2 0.45619382E+03</rscale>
<asrwt>0</asrwt>
<pdfrwt beam="1">  1       21 0.17285818E+00 0.45619382E+03</pdfrwt>
<pdfrwt beam="2">  1       21 0.65092516E-02 0.45619382E+03</pdfrwt>
<totfact> 0.31246217E+04</totfact>
</mgrwt>
</event>
<event>
 7    0  0.4766352E-002  0.4477302E+03  0.7546771E-02  0.1028401E+00
         21   -1    0    0  502  501  0.00000000000E+00  0.00000000000E+00  0.17531358788E+03  0.17531358788E+03  0.00000000000E+00 0.  1.
         21   -1    0    0  501  502 -0.00000000000E+00 -0.00000000000E+00 -0.28586253160E+03  0.28586253160E+03  0.00000000000E+00 0.  1.
      99926    2    1    2    0    0  0.00000000000E+00 -0.14210854715E-13 -0.11054894372E+03  0.46117611949E+03  0.44773021366E+03 0.  0.
      99925    2    3    3    0    0  0.79817074134E+02 -0.69725266240E+02 -0.62982911691E+02  0.29046462726E+03  0.26300280312E+03 0.  0.
         25    1    4    4    0    0  0.27214909788E+02 -0.39297339920E+00 -0.73031590830E+01  0.12822499747E+03  0.12509000000E+03 0.  0.
         25    1    4    4    0    0  0.52602164346E+02 -0.69332292841E+02 -0.55679752608E+02  0.16223962979E+03  0.12509000000E+03 0.  0.
         25    1    3    3    0    0 -0.79817074134E+02  0.69725266240E+02 -0.47566032025E+02  0.17071149223E+03  0.12509000000E+03 0.  0.
<mgrwt>
<rscale>  2 0.44773021E+03</rscale>
<asrwt>0</asrwt>
<pdfrwt beam="1">  1       21 0.25781410E-01 0.44773021E+03</pdfrwt>
<pdfrwt beam="2">  1       21 0.42038607E-01 0.44773021E+03</pdfrwt>
<totfact> 0.72170611E+04</totfact>
</mgrwt>
</event>
<event>
 7    0  0.4766352E-002  0.4588280E+03  0.7546771E-02  0.1025122E+00
         21   -1    0    0  502  501  0.00000000000E+00  0.00000000000E+00  0.73515450442E+02  0.73515450442E+02  0.00000000000E+00 0.  1.
         21   -1    0    0  501  502 -0.00000000000E+00 -0.00000000000E+00 -0.71591446322E+03  0.71591446322E+03  0.00000000000E+00 0.  1.
      99926    2    1    2    0    0  0.35527136788E-14 -0.14210854715E-13 -0.64239901278E+03  0.78942991366E+03  0.45882796010E+03 0.  0.
      99925    2    3    3    0    0 -0.28640454823E+02  0.78667653679E+02 -0.54139316514E+03  0.60816059815E+03  0.26409066341E+03 0.  0.
         25    1    3    3    0    0  0.28640454823E+02 -0.78667653679E+02 -0.10100584764E+03  0.18126931551E+03  0.12509000000E+03 0.  0.
         25    1    4    4    0    0 -0.25300383110E+02  0.85809396604E+00 -0.21461209028E+03  0.24969321798E+03  0.12509000000E+03 0.  0.
         25    1    4    4    0    0 -0.33400717130E+01  0.77809559713E+02 -0.32678107486E+03  0.35846738017E+03  0.12509000000E+03 0.  0.
<mgrwt>
<rscale>  2 0.45882796E+03</rscale>
<asrwt>0</asrwt>
<pdfrwt beam="1">  1       21 0.10811096E-01 0.45882796E+03</pdfrwt>
<pdfrwt beam="2">  1       21 0.10528154E+00 0.45882796E+03</pdfrwt>
<totfact> 0.46856663E+04</totfact>
</mgrwt>
</event>
<event>
 7    0  0.4766352E-002  0.4583353E+03  0.7546771E-02  0.1025265E+00
         21   -1    0    0  502  501  0.00000000000E+00  0.00000000000E+00  0.59184535265E+03  0.59184535265E+03  0.00000000000E+00 0. -1.
         21   -1    0    0  501  502 -0.00000000000E+00 -0.00000000000E+00 -0.88735713486E+02  0.88735713486E+02  0.00000000000E+00 0. -1.
      99926    2    1    2    0    0  0.35527136788E-14 -0.88817841970E-15  0.50310963916E+03  0.68058106614E+03  0.45833533419E+03 0.  0.
      99925    2    3    3    0    0  0.20707835642E+02  0.34415627613E+01  0.14591844533E+03  0.30153790782E+03  0.26304421369E+03 0.  0.
         25    1    3    3    0    0 -0.20707835642E+02 -0.34415627613E+01  0.35719119384E+03  0.37904315832E+03  0.12509000000E+03 0.  0.
         25    1    4    4    0    0  0.23048865689E+01 -0.38033262339E+02  0.69363571041E+02  0.14802248016E+03  0.12509000000E+03 0.  0.
         25    1    4    4    0    0  0.18402949073E+02  0.41474825100E+02  0.76554874287E+02  0.15351542766E+03  0.12509000000E+03 0.  0.
<mgrwt>
<rscale>  2 0.45833533E+03</rscale>
<asrwt>0</asrwt>
<pdfrwt beam="1">  1       21 0.87036079E-01 0.45833533E+03</pdfrwt>
<pdfrwt beam="2">  1       21 0.13049370E-01 0.45833533E+03</pdfrwt>
<totfact> 0.52575269E+04</totfact>
</mgrwt>
</event>
<event>
 7    0  0.4766352E-002  0.4547539E+03  0.7546771E-02  0.1026314E+00
         21   -1    0    0  502  501  0.00000000000E+00  0.00000000000E+00  0.23239075781E+04  0.23239075781E+04  0.00000000000E+00 0.  1.
         21   -1    0    0  501  502 -0.00000000000E+00 -0.00000000000E+00 -0.22247132792E+02  0.22247132792E+02  0.00000000000E+00 0.  1.
      99926    2    1    2    0    0  0.00000000000E+00  0.00000000000E+00  0.23016604453E+04  0.23461547109E+04  0.45475391361E+03 0.  0.
      99925    2    3    3    0    0 -0.56389209341E+02 -0.58970217772E+02  0.18515770861E+04  0.18719398146E+04  0.26298998890E+03 0.  0.
         25    1    4    4    0    0 -0.30050617819E+02 -0.70449624211E+02  0.94139539044E+03  0.95275336705E+03  0.12509000000E+03 0.  0.
         25    1    4    4    0    0 -0.26338591521E+02  0.11479406439E+02  0.91018169564E+03  0.91918644755E+03  0.12509000000E+03 0.  0.
         25    1    3    3    0    0  0.56389209341E+02  0.58970217772E+02  0.45008335920E+03  0.47421489627E+03  0.12509000000E+03 0.  0.
<mgrwt>
<rscale>  2 0.45475391E+03</rscale>
<asrwt>0</asrwt>
<pdfrwt beam="1">  1       21 0.34175095E+00 0.45475391E+03</pdfrwt>
<pdfrwt beam="2">  1       21 0.32716388E-02 0.45475391E+03</pdfrwt>
<totfact> 0.88537803E+03</totfact>
</mgrwt>
</event>
<event>
 7    0  0.4766352E-002  0.4443613E+03  0.7546771E-02  0.1029417E+00
         21   -1    0    0  502  501  0.00000000000E+00  0.00000000000E+00  0.68562582433E+02  0.68562582433E+02  0.00000000000E+00 0.  1.
         21   -1    0    0  501  502 -0.00000000000E+00 -0.00000000000E+00 -0.71998812288E+03  0.71998812288E+03  0.00000000000E+00 0.  1.
      99926    2    1    2    0    0  0.00000000000E+00  0.71054273576E-14 -0.65142554045E+03  0.78855070532E+03  0.44436131706E+03 0.  0.
      99925    2    3    3    0    0  0.85498988728E+02  0.56678385973E+02 -0.42538819240E+03  0.51058864437E+03  0.26310289436E+03 0.  0.
         25    1    4    4    0    0  0.28693170176E+02 -0.14726025694E+01 -0.24430767858E+03  0.27596959341E+03  0.12509000000E+03 0.  0.
         25    1    3    3    0    0 -0.85498988728E+02 -0.56678385973E+02 -0.22603734805E+03  0.27796206094E+03  0.12509000000E+03 0.  0.
         25    1    4    4    0    0  0.56805818552E+02  0.58150988543E+02 -0.18108051382E+03  0.23461905096E+03  0.12509000000E+03 0.  0.
<mgrwt>
<rscale>  2 0.44436132E+03</rscale>
<asrwt>0</asrwt>
<pdfrwt beam="1">  1       21 0.10082733E-01 0.44436132E+03</pdfrwt>
<pdfrwt beam="2">  1       21 0.10588060E+00 0.44436132E+03</pdfrwt>
<totfact> 0.52578317E+04</totfact>
</mgrwt>
</event>
<event>
 7    0  0.4766352E-002  0.4466427E+03  0.7546771E-02  0.1028728E+00
         21   -1    0    0  502  501  0.00000000000E+00  0.00000000000E+00  0.10938786273E+03  0.10938786273E+03  0.00000000000E+00 0. -1.
         21   -1    0    0  501  502 -0.00000000000E+00 -0.00000000000E+00 -0.45592278226E+03  0.45592278226E+03  0.00000000000E+00 0. -1.
      99926    2    1    2    0    0  0.00000000000E+00 -0.14210854715E-13 -0.34653491953E+03  0.56531064500E+03  0.44664267026E+03 0.  0.
      99925    2    3    3    0    0 -0.16696965550E+01 -0.10321921090E+03 -0.24482773022E+03  0.37387174131E+03  0.26302560348E+03 0.  0.
         25    1    4    4    0    0 -0.66665950106E+00 -0.56461325983E+02 -0.17733109639E+03  0.22423682038E+03  0.12509000000E+03 0.  0.
         25    1    4    4    0    0 -0.10030370540E+01 -0.46757884918E+02 -0.67496633830E+02  0.14963492094E+03  0.12509000000E+03 0.  0.
         25    1    3    3    0    0  0.16696965550E+01  0.10321921090E+03 -0.10170718931E+03  0.19143890368E+03  0.12509000000E+03 0.  0.
<mgrwt>
<rscale>  2 0.44664267E+03</rscale>
<asrwt>0</asrwt>
<pdfrwt beam="1">  1       21 0.16086450E-01 0.44664267E+03</pdfrwt>
<pdfrwt beam="2">  1       21 0.67047471E-01 0.44664267E+03</pdfrwt>
<totfact> 0.65060711E+04</totfact>
</mgrwt>
</event>
<event>
 7    0  0.4766352E-002  0.4542123E+03  0.7546771E-02  0.1026473E+00
         21   -1    0    0  502  501  0.00000000000E+00  0.00000000000E+00  0.31910962831E+02  0.31910962831E+02  0.00000000000E+00 0. -1.
         21   -1    0    0  501  502 -0.00000000000E+00 -0.00000000000E+00 -0.16162850087E+04  0.16162850087E+04  0.00000000000E+00 0. -1.
      99926    2    1    2    0    0  0.00000000000E+00  0.00000000000E+00 -0.15843740459E+04  0.16481959716E+04  0.45421233289E+03 0.  0.
      99925    2    3    3    0    0 -0.61335382888E+02  0.46342476620E+02 -0.69991089817E+03  0.75162906266E+03  0.26298541430E+03 0.  0.
         25    1    4    4    0    0 -0.37579392462E+02 -0.17042015252E+02 -0.33006752513E+03  0.35537968466E+03  0.12509000000E+03 0.  0.
         25    1    4    4    0    0 -0.23755990427E+02  0.63384491872E+02 -0.36984337303E+03  0.39624937800E+03  0.12509000000E+03 0.  0.
         25    1    3    3    0    0  0.61335382888E+02 -0.46342476620E+02 -0.88446314772E+03  0.89656690889E+03  0.12509000000E+03 0.  0.
<mgrwt>
<rscale>  2 0.45421233E+03</rscale>
<asrwt>0</asrwt>
<pdfrwt beam="1">  1       21 0.46927905E-02 0.45421233E+03</pdfrwt>
<pdfrwt beam="2">  1       21 0.23768888E+00 0.45421233E+03</pdfrwt>
<totfact> 0.20487277E+04</totfact>
</mgrwt>
</event>
<event>
 7    0  0.4766352E-002  0.4625049E+03  0.7546771E-02  0.1024057E+00
         21   -1    0    0  502  501  0.00000000000E+00  0.00000000000E+00  0.18276002266E+03  0.18276002266E+03  0.00000000000E+00 0. -1.
         21   -1    0    0  501  502 -0.00000000000E+00 -0.00000000000E+00 -0.29261154677E+03  0.29261154677E+03  0.00000000000E+00 0. -1.
      99926    2    1    2    0    0  0.00000000000E+00  0.00000000000E+00 -0.10985152411E+03  0.47537156943E+03  0.46250488827E+03 0.  0.
      99925    2    3    3    0    0  0.54139293223E+02 -0.64948247305E+02 -0.15631060436E+03  0.31739912836E+03  0.26298263013E+03 0.  0.
         25    1    3    3    0    0 -0.54139293223E+02  0.64948247305E+02  0.46459080250E+02  0.15797244107E+03  0.12509000000E+03 0.  0.
         25    1    4    4    0    0 -0.56817914372E+01 -0.28529963771E+02 -0.10233487362E+03  0.16421381198E+03  0.12509000000E+03 0.  0.
         25    1    4    4    0    0  0.59821084660E+02 -0.36418283534E+02 -0.53975730739E+02  0.15318531638E+03  0.12509000000E+03 0.  0.
<mgrwt>
<rscale>  2 0.46250489E+03</rscale>
<asrwt>0</asrwt>
<pdfrwt beam="1">  1       21 0.26876474E-01 0.46250489E+03</pdfrwt>
<pdfrwt beam="2">  1       21 0.43031109E-01 0.46250489E+03</pdfrwt>
<totfact> 0.63191509E+04</totfact>
</mgrwt>
</event>
<event>
 7    0  0.4766352E-002  0.4203397E+03  0.7546771E-02  0.1036956E+00
         21   -1    0    0  502  501  0.00000000000E+00  0.00000000000E+00  0.71859672382E+03  0.71859672382E+03  0.00000000000E+00 0.  1.
         21   -1    0    0  501  502 -0.00000000000E+00 -0.00000000000E+00 -0.61468923457E+02  0.61468923457E+02  0.00000000000E+00 0.  1.
      99926    2    1    2    0    0 -0.21316282073E-13 -0.71054273576E-14  0.65712780036E+03  0.78006564728E+03  0.42033970554E+03 0.  0.
      99925    2    3    3    0    0 -0.63928155417E+02 -0.41198264471E+02  0.43470479372E+03  0.51378833312E+03  0.26310850902E+03 0.  0.
         25    1    4    4    0    0 -0.65822108388E+02 -0.27610019241E+02  0.18782615379E+03  0.23668763226E+03  0.12509000000E+03 0.  0.
         25    1    3    3    0    0  0.63928155417E+02  0.41198264471E+02  0.22242300664E+03  0.26627731415E+03  0.12509000000E+03 0.  0.
         25    1    4    4    0    0  0.18939529710E+01 -0.13588245230E+02  0.24687863993E+03  0.27710070086E+03  0.12509000000E+03 0.  0.
<mgrwt>
<rscale>  2 0.42033971E+03</rscale>
<asrwt>0</asrwt>
<pdfrwt beam="1">  1       21 0.10567598E+00 0.42033971E+03</pdfrwt>
<pdfrwt beam="2">  1       21 0.90395480E-02 0.42033971E+03</pdfrwt>
<totfact> 0.64609835E+04</totfact>
</mgrwt>
</event>
<event>
 7    0  0.4766352E-002  0.4462746E+03  0.7546771E-02  0.1028839E+00
         21   -1    0    0  502  501  0.00000000000E+00  0.00000000000E+00  0.21656951818E+03  0.21656951818E+03  0.00000000000E+00 0.  1.
         21   -1    0    0  501  502 -0.00000000000E+00 -0.00000000000E+00 -0.22990425213E+03  0.22990425213E+03  0.00000000000E+00 0.  1.
      99926    2    1    2    0    0  0.14210854715E-13  0.71054273576E-14 -0.13334733947E+02  0.44647377030E+03  0.44627459309E+03 0.  0.
      99925    2    3    3    0    0  0.81945313210E+02  0.60740354373E+02  0.15380688926E+02  0.28253320602E+03  0.26302855721E+03 0.  0.
         25    1    4    4    0    0  0.58952145584E+02 -0.22206159235E+01  0.23935313194E+02  0.14035916045E+03  0.12509000000E+03 0.  0.
         25    1    4    4    0    0  0.22993167626E+02  0.62960970297E+02 -0.85546242677E+01  0.14217404557E+03  0.12509000000E+03 0.  0.
         25    1    3    3    0    0 -0.81945313210E+02 -0.60740354373E+02 -0.28715422873E+02  0.16394056428E+03  0.12509000000E+03 0.  0.
<mgrwt>
<rscale>  2 0.44627459E+03</rscale>
<asrwt>0</asrwt>
<pdfrwt beam="1">  1       21 0.31848459E-01 0.44627459E+03</pdfrwt>
<pdfrwt beam="2">  1       21 0.33809449E-01 0.44627459E+03</pdfrwt>
<totfact> 0.74208321E+04</totfact>
</mgrwt>
</event>
<event>
 7    0  0.4766352E-002  0.4536634E+03  0.7546771E-02  0.1026635E+00
         21   -1    0    0  502  501  0.00000000000E+00  0.00000000000E+00  0.55706370456E+02  0.55706370456E+02  0.00000000000E+00 0.  1.
         21   -1    0    0  501  502 -0.00000000000E+00 -0.00000000000E+00 -0.92363967422E+03  0.92363967422E+03  0.00000000000E+00 0.  1.
      99926    2    1    2    0    0  0.14210854715E-13 -0.71054273576E-14 -0.86793330376E+03  0.97934604467E+03  0.45366337238E+03 0.  0.
      99925    2    3    3    0    0  0.99694408890E+02 -0.44655259242E+02 -0.60284389072E+03  0.66653144727E+03  0.26250780232E+03 0.  0.
         25    1    4    4    0    0  0.25834607261E+02 -0.48941177598E+02 -0.33391733354E+03  0.36084755720E+03  0.12509000000E+03 0.  0.
         25    1    4    4    0    0  0.73859801629E+02  0.42859183551E+01 -0.26892655718E+03  0.30568389007E+03  0.12509000000E+03 0.  0.
         25    1    3    3    0    0 -0.99694408890E+02  0.44655259242E+02 -0.26508941304E+03  0.31281459741E+03  0.12509000000E+03 0.  0.
<mgrwt>
<rscale>  2 0.45366337E+03</rscale>
<asrwt>0</asrwt>
<pdfrwt beam="1">  1       21 0.81921136E-02 0.45366337E+03</pdfrwt>
<pdfrwt beam="2">  1       21 0.13582936E+00 0.45366337E+03</pdfrwt>
<totfact> 0.40395091E+04</totfact>
</mgrwt>
</event>
<event>
 7    0  0.4766352E-002  0.4579445E+03  0.7546771E-02  0.1025379E+00
         21   -1    0    0  502  501  0.00000000000E+00  0.00000000000E+00  0.47566321417E+02  0.47566321417E+02  0.00000000000E+00 0.  1.
         21   -1    0    0  501  502 -0.00000000000E+00 -0.00000000000E+00 -0.11022143364E+04  0.11022143364E+04  0.00000000000E+00 0.  1.
      99926    2    1    2    0    0  0.00000000000E+00  0.14210854715E-13 -0.10546480149E+04  0.11497806578E+04  0.45794445687E+03 0.  0.
      99925    2    3    3    0    0  0.65694427042E+02  0.73356566194E+02 -0.50452260558E+03  0.57708316548E+03  0.26226890170E+03 0.  0.
         25    1    4    4    0    0  0.59917481023E+02  0.29409392438E+02 -0.31790178468E+03  0.34808629634E+03  0.12509000000E+03 0.  0.
         25    1    3    3    0    0 -0.65694427042E+02 -0.73356566194E+02 -0.55012540936E+03  0.57269749229E+03  0.12509000000E+03 0.  0.
         25    1    4    4    0    0  0.57769460184E+01  0.43947173756E+02 -0.18662082090E+03  0.22899686915E+03  0.12509000000E+03 0.  0.
<mgrwt>
<rscale>  2 0.45794446E+03</rscale>
<asrwt>0</asrwt>
<pdfrwt beam="1">  1       21 0.69950484E-02 0.45794446E+03</pdfrwt>
<pdfrwt beam="2">  1       21 0.16209032E+00 0.45794446E+03</pdfrwt>
<totfact> 0.33025289E+04</totfact>
</mgrwt>
</event>
<event>
 7    0  0.4766352E-002  0.4404837E+03  0.7546771E-02  0.1030598E+00
         21   -1    0    0  502  501  0.00000000000E+00  0.00000000000E+00  0.42863165558E+03  0.42863165558E+03  0.00000000000E+00 0.  1.
         21   -1    0    0  501  502 -0.00000000000E+00 -0.00000000000E+00 -0.11316588564E+03  0.11316588564E+03  0.00000000000E+00 0.  1.
      99926    2    1    2    0    0  0.14210854715E-13  0.17763568394E-14  0.31546576994E+03  0.54179754122E+03  0.44048373826E+03 0.  0.
      99925    2    3    3    0    0 -0.97302003666E+02 -0.15585208714E+02  0.21327244601E+03  0.35258453373E+03  0.26290709110E+03 0.  0.
         25    1    3    3    0    0  0.97302003666E+02  0.15585208714E+02  0.10219332393E+03  0.18921300749E+03  0.12509000000E+03 0.  0.
         25    1    4    4    0    0 -0.33976039195E+02  0.12029986099E+02  0.61003603594E+02  0.14376383257E+03  0.12509000000E+03 0.  0.
         25    1    4    4    0    0 -0.63325964471E+02 -0.27615194813E+02  0.15226884241E+03  0.20882070115E+03  0.12509000000E+03 0.  0.
<mgrwt>
<rscale>  2 0.44048374E+03</rscale>
<asrwt>0</asrwt>
<pdfrwt beam="1">  1       21 0.63034066E-01 0.44048374E+03</pdfrwt>
<pdfrwt beam="2">  1       21 0.16642042E-01 0.44048374E+03</pdfrwt>
<totfact> 0.70126988E+04</totfact>
</mgrwt>
</event>
<event>
 7    0  0.4766352E-002  0.4402014E+03  0.7546771E-02  0.1030685E+00
         21   -1    0    0  502  501  0.00000000000E+00  0.00000000000E+00  0.28792093591E+03  0.28792093591E+03  0.00000000000E+00 0. -1.
         21   -1    0    0  501  502 -0.00000000000E+00 -0.00000000000E+00 -0.16825562078E+03  0.16825562078E+03  0.00000000000E+00 0. -1.
      99926    2    1    2    0    0  0.00000000000E+00  0.14210854715E-13  0.11966531513E+03  0.45617655669E+03  0.44020138940E+03 0.  0.
      99925    2    3    3    0    0  0.83331026845E+02  0.39137992311E+02  0.11211666767E+03  0.30067629092E+03  0.26336332750E+03 0.  0.
         25    1    3    3    0    0 -0.83331026845E+02 -0.39137992311E+02  0.75486474615E+01  0.15550026577E+03  0.12509000000E+03 0.  0.
         25    1    4    4    0    0  0.83665841296E+01  0.42858888886E+01  0.75209842007E+02  0.14626139958E+03  0.12509000000E+03 0.  0.
         25    1    4    4    0    0  0.74964442716E+02  0.34852103422E+02  0.36906825665E+02  0.15441489133E+03  0.12509000000E+03 0.  0.
<mgrwt>
<rscale>  2 0.44020139E+03</rscale>
<asrwt>0</asrwt>
<pdfrwt beam="1">  1       21 0.42341314E-01 0.44020139E+03</pdfrwt>
<pdfrwt beam="2">  1       21 0.24743474E-01 0.44020139E+03</pdfrwt>
<totfact> 0.77143659E+04</totfact>
</mgrwt>
</event>
<event>
 7    0  0.4766352E-002  0.4602150E+03  0.7546771E-02  0.1024719E+00
         21   -1    0    0  502  501  0.00000000000E+00  0.00000000000E+00  0.94456027703E+02  0.94456027703E+02  0.00000000000E+00 0. -1.
         21   -1    0    0  501  502 -0.00000000000E+00 -0.00000000000E+00 -0.56057255475E+03  0.56057255475E+03  0.00000000000E+00 0. -1.
      99926    2    1    2    0    0 -0.14210854715E-13  0.00000000000E+00 -0.46611652705E+03  0.65502858246E+03  0.46021497916E+03 0.  0.
      99925    2    3    3    0    0 -0.90938781521E+02 -0.73402445340E+02 -0.26837787894E+03  0.39348343908E+03  0.26295389322E+03 0.  0.
         25    1    4    4    0    0 -0.45334597182E+01 -0.31182097071E+02 -0.13688777565E+03  0.18809212279E+03  0.12509000000E+03 0.  0.
         25    1    3    3    0    0  0.90938781521E+02  0.73402445340E+02 -0.19773864811E+03  0.26154514337E+03  0.12509000000E+03 0.  0.
         25    1    4    4    0    0 -0.86405321802E+02 -0.42220348269E+02 -0.13149010329E+03  0.20539131629E+03  0.12509000000E+03 0.  0.
<mgrwt>
<rscale>  2 0.46021498E+03</rscale>
<asrwt>0</asrwt>
<pdfrwt beam="1">  1       21 0.13890592E-01 0.46021498E+03</pdfrwt>
<pdfrwt beam="2">  1       21 0.82437140E-01 0.46021498E+03</pdfrwt>
<totfact> 0.53190680E+04</totfact>
</mgrwt>
</event>
<event>
 7    0  0.4766352E-002  0.4359649E+03  0.7546771E-02  0.1031992E+00
         21   -1    0    0  502  501  0.00000000000E+00  0.00000000000E+00  0.53433776634E+03  0.53433776634E+03  0.00000000000E+00 0. -1.
         21   -1    0    0  501  502 -0.00000000000E+00 -0.00000000000E+00 -0.88925668869E+02  0.88925668869E+02  0.00000000000E+00 0. -1.
      99926    2    1    2    0    0 -0.17763568394E-14  0.00000000000E+00  0.44541209747E+03  0.62326343521E+03  0.43596487599E+03 0.  0.
      99925    2    3    3    0    0 -0.72734632192E+01 -0.85954429077E+02  0.33929495949E+03  0.43792746401E+03  0.26309376096E+03 0.  0.
         25    1    4    4    0    0 -0.21719410119E+02 -0.66579616783E+01  0.13854262927E+03  0.18803624506E+03  0.12509000000E+03 0.  0.
         25    1    3    3    0    0  0.72734632192E+01  0.85954429077E+02  0.10611713798E+03  0.18533597119E+03  0.12509000000E+03 0.  0.
         25    1    4    4    0    0  0.14445946900E+02 -0.79296467399E+02  0.20075233022E+03  0.24989121896E+03  0.12509000000E+03 0.  0.
<mgrwt>
<rscale>  2 0.43596488E+03</rscale>
<asrwt>0</asrwt>
<pdfrwt beam="1">  1       21 0.78579081E-01 0.43596488E+03</pdfrwt>
<pdfrwt beam="2">  1       21 0.13077305E-01 0.43596488E+03</pdfrwt>
<totfact> 0.66747937E+04</totfact>
</mgrwt>
</event>
<event>
 7    0  0.4766352E-002  0.4516469E+03  0.7546771E-02  0.1027232E+00
         21   -1    0    0  502  501  0.00000000000E+00  0.00000000000E+00  0.97575528694E+02  0.97575528694E+02  0.00000000000E+00 0.  1.
         21   -1    0    0  501  502 -0.00000000000E+00 -0.00000000000E+00 -0.52263349452E+03  0.52263349452E+03  0.00000000000E+00 0.  1.
      99926    2    1    2    0    0  0.00000000000E+00  0.14210854715E-13 -0.42505796583E+03  0.62020902322E+03  0.45164693973E+03 0.  0.
      99925    2    3    3    0    0  0.42519198963E+02 -0.86153072434E+02 -0.34194727918E+03  0.44192518069E+03  0.26294427056E+03 0.  0.
         25    1    3    3    0    0 -0.42519198963E+02  0.86153072434E+02 -0.83110686651E+02  0.17828384253E+03  0.12509000000E+03 0.  0.
         25    1    4    4    0    0 -0.61234960346E+00 -0.19519010890E+02 -0.11582462044E+03  0.17159317457E+03  0.12509000000E+03 0.  0.
         25    1    4    4    0    0  0.43131548566E+02 -0.66634061544E+02 -0.22612265874E+03  0.27033200612E+03  0.12509000000E+03 0.  0.
<mgrwt>
<rscale>  2 0.45164694E+03</rscale>
<asrwt>0</asrwt>
<pdfrwt beam="1">  1       21 0.14349342E-01 0.45164694E+03</pdfrwt>
<pdfrwt beam="2">  1       21 0.76857867E-01 0.45164694E+03</pdfrwt>
<totfact> 0.58997906E+04</totfact>
</mgrwt>
</event>
<event>
 7    0  0.4766352E-002  0.4464560E+03  0.7546771E-02  0.1028784E+00
         21   -1    0    0  502  501  0.00000000000E+00  0.00000000000E+00  0.11108134566E+04  0.11108134566E+04  0.00000000000E+00 0. -1.
         21   -1    0    0  501  502 -0.00000000000E+00 -0.00000000000E+00 -0.44859681930E+02  0.44859681930E+02  0.00000000000E+00 0. -1.
      99926    2    1    2    0    0  0.00000000000E+00  0.71054273576E-14  0.10659537747E+04  0.11556731386E+04  0.44645599267E+03 0.  0.
      99925    2    3    3    0    0 -0.68998144475E+02  0.60965164186E+02  0.54569803954E+03  0.61272651757E+03  0.26300178665E+03 0.  0.
         25    1    4    4    0    0  0.78603411495E+00  0.39445630902E+02  0.21753969379E+03  0.25402283780E+03  0.12509000000E+03 0.  0.
         25    1    3    3    0    0  0.68998144475E+02 -0.60965164186E+02  0.52025573517E+03  0.54294662100E+03  0.12509000000E+03 0.  0.
         25    1    4    4    0    0 -0.69784178590E+02  0.21519533285E+02  0.32815834575E+03  0.35870367977E+03  0.12509000000E+03 0.  0.
<mgrwt>
<rscale>  2 0.44645599E+03</rscale>
<asrwt>0</asrwt>
<pdfrwt beam="1">  1       21 0.16335490E+00 0.44645599E+03</pdfrwt>
<pdfrwt beam="2">  1       21 0.65970128E-02 0.44645599E+03</pdfrwt>
<totfact> 0.35926759E+04</totfact>
</mgrwt>
</event>
<event>
 7    0  0.4766352E-002  0.4652354E+03  0.7546771E-02  0.1023274E+00
         21   -1    0    0  502  501  0.00000000000E+00  0.00000000000E+00  0.64610200856E+03  0.64610200856E+03  0.00000000000E+00 0. -1.
         21   -1    0    0  501  502 -0.00000000000E+00 -0.00000000000E+00 -0.83749908453E+02  0.83749908453E+02  0.00000000000E+00 0. -1.
      99926    2    1    2    0    0  0.00000000000E+00  0.00000000000E+00  0.56235210010E+03  0.72985191701E+03  0.46523535579E+03 0.  0.
      99925    2    3    3    0    0  0.41577650493E+02  0.11480457285E+03  0.33482095277E+03  0.44292558139E+03  0.26300039785E+03 0.  0.
         25    1    4    4    0    0  0.45442758664E+02  0.24625832712E+02  0.14551011436E+03  0.19872638837E+03  0.12509000000E+03 0.  0.
         25    1    4    4    0    0 -0.38651081702E+01  0.90178740134E+02  0.18931083841E+03  0.24419919302E+03  0.12509000000E+03 0.  0.
         25    1    3    3    0    0 -0.41577650493E+02 -0.11480457285E+03  0.22753114734E+03  0.28692633563E+03  0.12509000000E+03 0.  0.
<mgrwt>
<rscale>  2 0.46523536E+03</rscale>
<asrwt>0</asrwt>
<pdfrwt beam="1">  1       21 0.95014999E-01 0.46523536E+03</pdfrwt>
<pdfrwt beam="2">  1       21 0.12316163E-01 0.46523536E+03</pdfrwt>
<totfact> 0.47381620E+04</totfact>
</mgrwt>
</event>
<event>
 7    0  0.4766352E-002  0.4542127E+03  0.7546771E-02  0.1026473E+00
         21   -1    0    0  502  501  0.00000000000E+00  0.00000000000E+00  0.91053175947E+03  0.91053175947E+03  0.00000000000E+00 0.  1.
         21   -1    0    0  501  502 -0.00000000000E+00 -0.00000000000E+00 -0.56645239521E+02  0.56645239521E+02  0.00000000000E+00 0.  1.
      99926    2    1    2    0    0  0.00000000000E+00  0.00000000000E+00  0.85388651995E+03  0.96717699899E+03  0.45421267973E+03 0.  0.
      99925    2    3    3    0    0 -0.54429728019E+02  0.86117419427E+02  0.63886431867E+03  0.69836319659E+03  0.26302990600E+03 0.  0.
         25    1    4    4    0    0 -0.51194518055E+02  0.53493809920E+02  0.25783124233E+03  0.29598466853E+03  0.12509000000E+03 0.  0.
         25    1    4    4    0    0 -0.32352099646E+01  0.32623609507E+02  0.38103307634E+03  0.40237852806E+03  0.12509000000E+03 0.  0.
         25    1    3    3    0    0  0.54429728019E+02 -0.86117419427E+02  0.21502220128E+03  0.26881380240E+03  0.12509000000E+03 0.  0.
<mgrwt>
<rscale>  2 0.45421268E+03</rscale>
<asrwt>0</asrwt>
<pdfrwt beam="1">  1       21 0.13390172E+00 0.45421268E+03</pdfrwt>
<pdfrwt beam="2">  1       21 0.83301829E-02 0.45421268E+03</pdfrwt>
<totfact> 0.40702972E+04</totfact>
</mgrwt>
</event>
<event>
 7    0  0.4766352E-002  0.4549060E+03  0.7546771E-02  0.1026269E+00
         21   -1    0    0  502  501  0.00000000000E+00  0.00000000000E+00  0.21389401773E+03  0.21389401773E+03  0.00000000000E+00 0. -1.
         21   -1    0    0  501  502 -0.00000000000E+00 -0.00000000000E+00 -0.24187151247E+03  0.24187151247E+03  0.00000000000E+00 0. -1.
      99926    2    1    2    0    0  0.00000000000E+00  0.00000000000E+00 -0.27977494746E+02  0.45576553020E+03  0.45490601041E+03 0.  0.
      99925    2    3    3    0    0 -0.73993133671E+02 -0.26125898527E+02 -0.99292338401E+02  0.29178119732E+03  0.26290635641E+03 0.  0.
         25    1    4    4    0    0 -0.44768971377E+02 -0.32311074432E+02 -0.88167245693E+02  0.16269369269E+03  0.12509000000E+03 0.  0.
         25    1    4    4    0    0 -0.29224162294E+02  0.61851759048E+01 -0.11125092708E+02  0.12908750463E+03  0.12509000000E+03 0.  0.
         25    1    3    3    0    0  0.73993133671E+02  0.26125898527E+02  0.71314843655E+02  0.16398433288E+03  0.12509000000E+03 0.  0.
<mgrwt>
<rscale>  2 0.45490601E+03</rscale>
<asrwt>0</asrwt>
<pdfrwt beam="1">  1       21 0.31455003E-01 0.45490601E+03</pdfrwt>
<pdfrwt beam="2">  1       21 0.35569340E-01 0.45490601E+03</pdfrwt>
<totfact> 0.68541168E+04</totfact>
</mgrwt>
</event>
<event>
 7    0  0.4766352E-002  0.4531281E+03  0.7546771E-02  0.1026793E+00
         21   -1    0    0  502  501  0.00000000000E+00  0.00000000000E+00  0.60653201229E+02  0.60653201229E+02  0.00000000000E+00 0. -1.
         21   -1    0    0  501  502 -0.00000000000E+00 -0.00000000000E+00 -0.84630765805E+03  0.84630765805E+03  0.00000000000E+00 0. -1.
      99926    2    1    2    0    0  0.00000000000E+00  0.14210854715E-13 -0.78565445682E+03  0.90696085928E+03  0.45312809970E+03 0.  0.
      99925    2    3    3    0    0  0.37009179806E+02 -0.10066574111E+03 -0.55221124538E+03  0.62122232164E+03  0.26358422289E+03 0.  0.
         25    1    4    4    0    0  0.42200207596E+02 -0.85963065579E+02 -0.28102015765E+03  0.32216508698E+03  0.12509000000E+03 0.  0.
         25    1    4    4    0    0 -0.51910277906E+01 -0.14702675535E+02 -0.27119108773E+03  0.29905723465E+03  0.12509000000E+03 0.  0.
         25    1    3    3    0    0 -0.37009179806E+02  0.10066574111E+03 -0.23344321144E+03  0.28573853764E+03  0.12509000000E+03 0.  0.
<mgrwt>
<rscale>  2 0.45312810E+03</rscale>
<asrwt>0</asrwt>
<pdfrwt beam="1">  1       21 0.89195884E-02 0.45312810E+03</pdfrwt>
<pdfrwt beam="2">  1       21 0.12445701E+00 0.45312810E+03</pdfrwt>
<totfact> 0.43569107E+04</totfact>
</mgrwt>
</event>
<event>
 7    0  0.4766352E-002  0.4453005E+03  0.7546771E-02  0.1029133E+00
         21   -1    0    0  502  501  0.00000000000E+00  0.00000000000E+00  0.69735963579E+03  0.69735963579E+03  0.00000000000E+00 0.  1.
         21   -1    0    0  501  502 -0.00000000000E+00 -0.00000000000E+00 -0.71086900738E+02  0.71086900738E+02  0.00000000000E+00 0.  1.
      99926    2    1    2    0    0  0.00000000000E+00  0.00000000000E+00  0.62627273506E+03  0.76844653653E+03  0.44530050621E+03 0.  0.
      99925    2    3    3    0    0  0.28072945948E+02  0.99798462513E+02  0.40813189858E+03  0.49645249973E+03  0.26295553700E+03 0.  0.
         25    1    4    4    0    0  0.22340013672E+02  0.85897934115E+02  0.26116658016E+03  0.30287459779E+03  0.12509000000E+03 0.  0.
         25    1    3    3    0    0 -0.28072945948E+02 -0.99798462513E+02  0.21814083648E+03  0.27199403680E+03  0.12509000000E+03 0.  0.
         25    1    4    4    0    0  0.57329322762E+01  0.13900528398E+02  0.14696531842E+03  0.19357790194E+03  0.12509000000E+03 0.  0.
<mgrwt>
<rscale>  2 0.44530051E+03</rscale>
<asrwt>0</asrwt>
<pdfrwt beam="1">  1       21 0.10255288E+00 0.44530051E+03</pdfrwt>
<pdfrwt beam="2">  1       21 0.10453956E-01 0.44530051E+03</pdfrwt>
<totfact> 0.53270757E+04</totfact>
</mgrwt>
</event>
<event>
 7    0  0.4766352E-002  0.4551527E+03  0.7546771E-02  0.1026197E+00
         21   -1    0    0  502  501  0.00000000000E+00  0.00000000000E+00  0.33181756822E+03  0.33181756822E+03  0.00000000000E+00 0.  1.
         21   -1    0    0  501  502 -0.00000000000E+00 -0.00000000000E+00 -0.15608272541E+03  0.15608272541E+03  0.00000000000E+00 0.  1.
      99926    2    1    2    0    0  0.00000000000E+00  0.00000000000E+00  0.17573484281E+03  0.48790029364E+03  0.45515267939E+03 0.  0.
      99925    2    3    3    0    0 -0.97021594963E+02  0.39518224052E+02  0.15673357508E+03  0.32363393617E+03  0.26305632697E+03 0.  0.
         25    1    4    4    0    0 -0.58253699592E+02 -0.16528614655E+02  0.59579135006E+02  0.15120803566E+03  0.12509000000E+03 0.  0.
         25    1    4    4    0    0 -0.38767895371E+02  0.56046838708E+02  0.97154440074E+02  0.17242590051E+03  0.12509000000E+03 0.  0.
         25    1    3    3    0    0  0.97021594963E+02 -0.39518224052E+02  0.19001267729E+02  0.16426635747E+03  0.12509000000E+03 0.  0.
<mgrwt>
<rscale>  2 0.45515268E+03</rscale>
<asrwt>0</asrwt>
<pdfrwt beam="1">  1       21 0.48796701E-01 0.45515268E+03</pdfrwt>
<pdfrwt beam="2">  1       21 0.22953342E-01 0.45515268E+03</pdfrwt>
<totfact> 0.66049267E+04</totfact>
</mgrwt>
</event>
<event>
 7    0  0.4766352E-002  0.4509104E+03  0.7546771E-02  0.1027451E+00
         21   -1    0    0  502  501  0.00000000000E+00  0.00000000000E+00  0.31633832868E+03  0.31633832868E+03  0.00000000000E+00 0. -1.
         21   -1    0    0  501  502 -0.00000000000E+00 -0.00000000000E+00 -0.16068252164E+03  0.16068252164E+03  0.00000000000E+00 0. -1.
      99926    2    1    2    0    0  0.00000000000E+00 -0.71054273576E-14  0.15565580704E+03  0.47702085032E+03  0.45091036955E+03 0.  0.
      99925    2    3    3    0    0 -0.75725282695E+02  0.54516043742E+02  0.15857810198E+03  0.32093636879E+03  0.26295783107E+03 0.  0.
         25    1    4    4    0    0 -0.29468765473E+02 -0.12992265204E+02  0.65268841547E+02  0.14472296594E+03  0.12509000000E+03 0.  0.
         25    1    4    4    0    0 -0.46256517222E+02  0.67508308946E+02  0.93309260434E+02  0.17621340285E+03  0.12509000000E+03 0.  0.
         25    1    3    3    0    0  0.75725282695E+02 -0.54516043742E+02 -0.29222949430E+01  0.15608448152E+03  0.12509000000E+03 0.  0.
<mgrwt>
<rscale>  2 0.45091037E+03</rscale>
<asrwt>0</asrwt>
<pdfrwt beam="1">  1       21 0.46520343E-01 0.45091037E+03</pdfrwt>
<pdfrwt beam="2">  1       21 0.23629783E-01 0.45091037E+03</pdfrwt>
<totfact> 0.69134641E+04</totfact>
</mgrwt>
</event>
<event>
 7    0  0.4766352E-002  0.4462950E+03  0.7546771E-02  0.1028833E+00
         21   -1    0    0  502  501  0.00000000000E+00  0.00000000000E+00  0.47179476743E+02  0.47179476743E+02  0.00000000000E+00 0. -1.
         21   -1    0    0  501  502 -0.00000000000E+00 -0.00000000000E+00 -0.10554336303E+04  0.10554336303E+04  0.00000000000E+00 0. -1.
      99926    2    1    2    0    0  0.00000000000E+00  0.00000000000E+00 -0.10082541535E+04  0.11026131070E+04  0.44629499846E+03 0.  0.
      99925    2    3    3    0    0 -0.11659171347E+02 -0.99497310979E+02 -0.56310779179E+03  0.62949743127E+03  0.26294672394E+03 0.  0.
         25    1    3    3    0    0  0.11659171347E+02  0.99497310979E+02 -0.44514636172E+03  0.47311567573E+03  0.12509000000E+03 0.  0.
         25    1    4    4    0    0  0.10663691959E+02 -0.51413465113E+02 -0.19877294234E+03  0.24065587345E+03  0.12509000000E+03 0.  0.
         25    1    4    4    0    0 -0.22322863305E+02 -0.48083845866E+02 -0.36433484945E+03  0.38884155782E+03  0.12509000000E+03 0.  0.
<mgrwt>
<rscale>  2 0.44629500E+03</rscale>
<asrwt>0</asrwt>
<pdfrwt beam="1">  1       21 0.69381584E-02 0.44629500E+03</pdfrwt>
<pdfrwt beam="2">  1       21 0.15521083E+00 0.44629500E+03</pdfrwt>
<totfact> 0.37913176E+04</totfact>
</mgrwt>
</event>
<event>
 7    0  0.4766352E-002  0.4553668E+03  0.7546771E-02  0.1026134E+00
         21   -1    0    0  502  501  0.00000000000E+00  0.00000000000E+00  0.22578716524E+03  0.22578716524E+03  0.00000000000E+00 0. -1.
         21   -1    0    0  501  502 -0.00000000000E+00 -0.00000000000E+00 -0.22959559779E+03  0.22959559779E+03  0.00000000000E+00 0. -1.
      99926    2    1    2    0    0  0.00000000000E+00  0.00000000000E+00 -0.38084325497E+01  0.45538276303E+03  0.45536683751E+03 0.  0.
      99925    2    3    3    0    0 -0.57485125813E+02  0.66085785225E+02 -0.74771166622E+02  0.28699307087E+03  0.26287340046E+03 0.  0.
         25    1    4    4    0    0 -0.46667100729E+02  0.57586371515E+02 -0.10744974453E+02  0.14579770592E+03  0.12509000000E+03 0.  0.
         25    1    4    4    0    0 -0.10818025084E+02  0.84994137100E+01 -0.64026192169E+02  0.14119536495E+03  0.12509000000E+03 0.  0.
         25    1    3    3    0    0  0.57485125813E+02 -0.66085785225E+02  0.70962734072E+02  0.16838969216E+03  0.12509000000E+03 0.  0.
<mgrwt>
<rscale>  2 0.45536684E+03</rscale>
<asrwt>0</asrwt>
<pdfrwt beam="1">  1       21 0.33203995E-01 0.45536684E+03</pdfrwt>
<pdfrwt beam="2">  1       21 0.33764058E-01 0.45536684E+03</pdfrwt>
<totfact> 0.68317575E+04</totfact>
</mgrwt>
</event>
<event>
 7    0  0.4766352E-002  0.4541055E+03  0.7546771E-02  0.1026505E+00
         21   -1    0    0  502  501  0.00000000000E+00  0.00000000000E+00  0.37374922038E+02  0.37374922038E+02  0.00000000000E+00 0.  1.
         21   -1    0    0  501  502 -0.00000000000E+00 -0.00000000000E+00 -0.13793459170E+04  0.13793459170E+04  0.00000000000E+00 0.  1.
      99926    2    1    2    0    0  0.14210854715E-13  0.17763568394E-14 -0.13419709950E+04  0.14167208390E+04  0.45410547722E+03 0.  0.
      99925    2    3    3    0    0 -0.98729284089E+02  0.12939506228E+02 -0.10073800209E+04  0.10458926707E+04  0.26298682458E+03 0.  0.
         25    1    4    4    0    0 -0.40163193473E+02 -0.67720622282E+01 -0.62898571014E+03  0.64259588748E+03  0.12509000000E+03 0.  0.
         25    1    4    4    0    0 -0.58566090617E+02  0.19711568456E+02 -0.37839431071E+03  0.40329678325E+03  0.12509000000E+03 0.  0.
         25    1    3    3    0    0  0.98729284089E+02 -0.12939506228E+02 -0.33459097410E+03  0.37082816831E+03  0.12509000000E+03 0.  0.
<mgrwt>
<rscale>  2 0.45410548E+03</rscale>
<asrwt>0</asrwt>
<pdfrwt beam="1">  1       21 0.54963123E-02 0.45410548E+03</pdfrwt>
<pdfrwt beam="2">  1       21 0.20284498E+00 0.45410548E+03</pdfrwt>
<totfact> 0.26070566E+04</totfact>
</mgrwt>
</event>
<event>
 7    0  0.4766352E-002  0.4533483E+03  0.7546771E-02  0.1026728E+00
         21   -1    0    0  502  501  0.00000000000E+00  0.00000000000E+00  0.78913892517E+03  0.78913892517E+03  0.00000000000E+00 0.  1.
         21   -1    0    0  501  502 -0.00000000000E+00 -0.00000000000E+00 -0.65110427380E+02  0.65110427380E+02  0.00000000000E+00 0.  1.
      99926    2    1    2    0    0  0.00000000000E+00 -0.35527136788E-14  0.72402849779E+03  0.85424935255E+03  0.45334831059E+03 0.  0.
      99925    2    3    3    0    0 -0.80957629742E+02  0.18227322552E+02  0.31768566074E+03  0.42106534728E+03  0.26360097598E+03 0.  0.
         25    1    3    3    0    0  0.80957629742E+02 -0.18227322552E+02  0.40634283705E+03  0.43318400527E+03  0.12509000000E+03 0.  0.
         25    1    4    4    0    0 -0.56577772736E+02  0.47875129759E+02  0.17312886882E+03  0.22608446593E+03  0.12509000000E+03 0.  0.
         25    1    4    4    0    0 -0.24379857005E+02 -0.29647807208E+02  0.14455679192E+03  0.19498088135E+03  0.12509000000E+03 0.  0.
<mgrwt>
<rscale>  2 0.45334831E+03</rscale>
<asrwt>0</asrwt>
<pdfrwt beam="1">  1       21 0.11604984E+00 0.45334831E+03</pdfrwt>
<pdfrwt beam="2">  1       21 0.95750633E-02 0.45334831E+03</pdfrwt>
<totfact> 0.45840915E+04</totfact>
</mgrwt>
</event>
<event>
 7    0  0.4766352E-002  0.4558208E+03  0.7546771E-02  0.1026000E+00
         21   -1    0    0  502  501  0.00000000000E+00  0.00000000000E+00  0.24060671239E+03  0.24060671239E+03  0.00000000000E+00 0. -1.
         21   -1    0    0  501  502 -0.00000000000E+00 -0.00000000000E+00 -0.21588405923E+03  0.21588405923E+03  0.00000000000E+00 0. -1.
      99926    2    1    2    0    0  0.00000000000E+00  0.00000000000E+00  0.24722653161E+02  0.45649077162E+03  0.45582081457E+03 0.  0.
      99925    2    3    3    0    0 -0.10700371240E+03  0.21910729681E+02  0.47804208841E+02  0.28882998057E+03  0.26307345125E+03 0.  0.
         25    1    4    4    0    0 -0.44154429028E+02 -0.13423093796E+02  0.55090900963E+02  0.14426471682E+03  0.12509000000E+03 0.  0.
         25    1    4    4    0    0 -0.62849283370E+02  0.35333823476E+02 -0.72866921223E+01  0.14456526375E+03  0.12509000000E+03 0.  0.
         25    1    3    3    0    0  0.10700371240E+03 -0.21910729681E+02 -0.23081555680E+02  0.16766079105E+03  0.12509000000E+03 0.  0.
<mgrwt>
<rscale>  2 0.45582081E+03</rscale>
<asrwt>0</asrwt>
<pdfrwt beam="1">  1       21 0.35383340E-01 0.45582081E+03</pdfrwt>
<pdfrwt beam="2">  1       21 0.31747656E-01 0.45582081E+03</pdfrwt>
<totfact> 0.67990377E+04</totfact>
</mgrwt>
</event>
<event>
 7    0  0.4766352E-002  0.4599002E+03  0.7546771E-02  0.1024810E+00
         21   -1    0    0  502  501  0.00000000000E+00  0.00000000000E+00  0.73174017269E+02  0.73174017269E+02  0.00000000000E+00 0. -1.
         21   -1    0    0  501  502 -0.00000000000E+00 -0.00000000000E+00 -0.72262065455E+03  0.72262065455E+03  0.00000000000E+00 0. -1.
      99926    2    1    2    0    0  0.00000000000E+00  0.00000000000E+00 -0.64944663728E+03  0.79579467181E+03  0.45990023377E+03 0.  0.
      99925    2    3    3    0    0  0.27047395435E+02 -0.11438801944E+03 -0.41784646408E+03  0.50751992628E+03  0.26299168700E+03 0.  0.
         25    1    3    3    0    0 -0.27047395435E+02  0.11438801944E+03 -0.23160017319E+03  0.28827474554E+03  0.12509000000E+03 0.  0.
         25    1    4    4    0    0 -0.19359789161E+02 -0.38226044305E+02 -0.16223402306E+03  0.20929266169E+03  0.12509000000E+03 0.  0.
         25    1    4    4    0    0  0.46407184596E+02 -0.76161975132E+02 -0.25561244102E+03  0.29822726459E+03  0.12509000000E+03 0.  0.
<mgrwt>
<rscale>  2 0.45990023E+03</rscale>
<asrwt>0</asrwt>
<pdfrwt beam="1">  1       21 0.10760885E-01 0.45990023E+03</pdfrwt>
<pdfrwt beam="2">  1       21 0.10626775E+00 0.45990023E+03</pdfrwt>
<totfact> 0.46167646E+04</totfact>
</mgrwt>
</event>
<event>
 7    0  0.4766352E-002  0.4567312E+03  0.7546771E-02  0.1025734E+00
         21   -1    0    0  502  501  0.00000000000E+00  0.00000000000E+00  0.69302211525E+02  0.69302211525E+02  0.00000000000E+00 0.  1.
         21   -1    0    0  501  502 -0.00000000000E+00 -0.00000000000E+00 -0.75251336750E+03  0.75251336750E+03  0.00000000000E+00 0.  1.
      99926    2    1    2    0    0  0.00000000000E+00  0.00000000000E+00 -0.68321115598E+03  0.82181557903E+03  0.45673117069E+03 0.  0.
      99925    2    3    3    0    0  0.99754197055E+02 -0.53547237663E+02 -0.39798592276E+03  0.49042585641E+03  0.26326131396E+03 0.  0.
         25    1    3    3    0    0 -0.99754197055E+02  0.53547237663E+02 -0.28522523322E+03  0.33138972262E+03  0.12509000000E+03 0.  0.
         25    1    4    4    0    0  0.65787753621E+02 -0.49590829106E+02 -0.26676131887E+03  0.30593526799E+03  0.12509000000E+03 0.  0.
         25    1    4    4    0    0  0.33966443434E+02 -0.39564085574E+01 -0.13122460389E+03  0.18449058842E+03  0.12509000000E+03 0.  0.
<mgrwt>
<rscale>  2 0.45673117E+03</rscale>
<asrwt>0</asrwt>
<pdfrwt beam="1">  1       21 0.10191502E-01 0.45673117E+03</pdfrwt>
<pdfrwt beam="2">  1       21 0.11066373E+00 0.45673117E+03</pdfrwt>
<totfact> 0.46098274E+04</totfact>
</mgrwt>
</event>
<event>
 7    0  0.4766352E-002  0.4504592E+03  0.7546771E-02  0.1027585E+00
         21   -1    0    0  502  501  0.00000000000E+00  0.00000000000E+00  0.32724572078E+02  0.32724572078E+02  0.00000000000E+00 0. -1.
         21   -1    0    0  501  502 -0.00000000000E+00 -0.00000000000E+00 -0.15501615956E+04  0.15501615956E+04  0.00000000000E+00 0. -1.
      99926    2    1    2    0    0  0.00000000000E+00  0.71054273576E-14 -0.15174370235E+04  0.15828861677E+04  0.45045920955E+03 0.  0.
      99925    2    3    3    0    0  0.61063239329E+02  0.39977018239E+02 -0.12424710019E+04  0.12721118085E+04  0.26307295858E+03 0.  0.
         25    1    3    3    0    0 -0.61063239329E+02 -0.39977018239E+02 -0.27496602160E+03  0.31077435917E+03  0.12509000000E+03 0.  0.
         25    1    4    4    0    0  0.68026680325E+02  0.32458434931E+01 -0.63970063161E+03  0.65536445656E+03  0.12509000000E+03 0.  0.
         25    1    4    4    0    0 -0.69634409966E+01  0.36731174746E+02 -0.60277037030E+03  0.61674735193E+03  0.12509000000E+03 0.  0.
<mgrwt>
<rscale>  2 0.45045921E+03</rscale>
<asrwt>0</asrwt>
<pdfrwt beam="1">  1       21 0.48124375E-02 0.45045921E+03</pdfrwt>
<pdfrwt beam="2">  1       21 0.22796492E+00 0.45045921E+03</pdfrwt>
<totfact> 0.22605504E+04</totfact>
</mgrwt>
</event>
<event>
 7    0  0.4766352E-002  0.4661039E+03  0.7546771E-02  0.1023026E+00
         21   -1    0    0  502  501  0.00000000000E+00  0.00000000000E+00  0.21798765380E+03  0.21798765380E+03  0.00000000000E+00 0.  1.
         21   -1    0    0  501  502 -0.00000000000E+00 -0.00000000000E+00 -0.24915732828E+03  0.24915732828E+03  0.00000000000E+00 0.  1.
      99926    2    1    2    0    0 -0.35527136788E-14 -0.14210854715E-13 -0.31169674479E+02  0.46714498209E+03  0.46610394300E+03 0.  0.
      99925    2    3    3    0    0 -0.25685562252E+02 -0.11020279535E+03 -0.68261549357E+02  0.29443794838E+03  0.26311530194E+03 0.  0.
         25    1    3    3    0    0  0.25685562252E+02  0.11020279535E+03  0.37091874878E+02  0.17270703371E+03  0.12509000000E+03 0.  0.
         25    1    4    4    0    0 -0.22699674620E+02 -0.31111387705E+02 -0.65561987263E+02  0.14638673419E+03  0.12509000000E+03 0.  0.
         25    1    4    4    0    0 -0.29858876320E+01 -0.79091407640E+02 -0.26995620940E+01  0.14805121419E+03  0.12509000000E+03 0.  0.
<mgrwt>
<rscale>  2 0.46610394E+03</rscale>
<asrwt>0</asrwt>
<pdfrwt beam="1">  1       21 0.32057008E-01 0.46610394E+03</pdfrwt>
<pdfrwt beam="2">  1       21 0.36640783E-01 0.46610394E+03</pdfrwt>
<totfact> 0.61988430E+04</totfact>
</mgrwt>
</event>
<event>
 7    0  0.4766352E-002  0.4337618E+03  0.7546771E-02  0.1032678E+00
         21   -1    0    0  502  501  0.00000000000E+00  0.00000000000E+00  0.97823309671E+02  0.97823309671E+02  0.00000000000E+00 0.  1.
         21   -1    0    0  501  502 -0.00000000000E+00 -0.00000000000E+00 -0.48083974012E+03  0.48083974012E+03  0.00000000000E+00 0.  1.
      99926    2    1    2    0    0 -0.35527136788E-14  0.00000000000E+00 -0.38301643045E+03  0.57866304979E+03  0.43376184618E+03 0.  0.
      99925    2    3    3    0    0 -0.16986301279E+02 -0.61246245590E+02 -0.33442998287E+03  0.43017807406E+03  0.26300213863E+03 0.  0.
         25    1    4    4    0    0 -0.26826210145E+02 -0.55615742904E+02 -0.21860500607E+03  0.25932299009E+03  0.12509000000E+03 0.  0.
         25    1    4    4    0    0  0.98399088653E+01 -0.56305026857E+01 -0.11582497680E+03  0.17085508397E+03  0.12509000000E+03 0.  0.
         25    1    3    3    0    0  0.16986301279E+02  0.61246245590E+02 -0.48586447577E+02  0.14848497573E+03  0.12509000000E+03 0.  0.
<mgrwt>
<rscale>  2 0.43376185E+03</rscale>
<asrwt>0</asrwt>
<pdfrwt beam="1">  1       21 0.14385781E-01 0.43376185E+03</pdfrwt>
<pdfrwt beam="2">  1       21 0.70711727E-01 0.43376185E+03</pdfrwt>
<totfact> 0.71239761E+04</totfact>
</mgrwt>
</event>
<event>
 7    0  0.4766352E-002  0.4499833E+03  0.7546771E-02  0.1027727E+00
         21   -1    0    0  502  501  0.00000000000E+00  0.00000000000E+00  0.26556103131E+03  0.26556103131E+03  0.00000000000E+00 0.  1.
         21   -1    0    0  501  502 -0.00000000000E+00 -0.00000000000E+00 -0.19061997795E+03  0.19061997795E+03  0.00000000000E+00 0.  1.
      99926    2    1    2    0    0  0.71054273576E-14  0.00000000000E+00  0.74941053354E+02  0.45618100926E+03  0.44998327939E+03 0.  0.
      99925    2    3    3    0    0  0.36317344183E+02 -0.63074341677E+02 -0.34239692187E+02  0.27489321220E+03  0.26286232048E+03 0.  0.
         25    1    4    4    0    0  0.44469634550E+02 -0.55282507438E+02  0.31647917344E+01  0.14384445777E+03  0.12509000000E+03 0.  0.
         25    1    4    4    0    0 -0.81522903675E+01 -0.77918342392E+01 -0.37404483921E+02  0.13104875443E+03  0.12509000000E+03 0.  0.
         25    1    3    3    0    0 -0.36317344183E+02  0.63074341677E+02  0.10918074554E+03  0.18128779706E+03  0.12509000000E+03 0.  0.
<mgrwt>
<rscale>  2 0.44998328E+03</rscale>
<asrwt>0</asrwt>
<pdfrwt beam="1">  1       21 0.39053093E-01 0.44998328E+03</pdfrwt>
<pdfrwt beam="2">  1       21 0.28032350E-01 0.44998328E+03</pdfrwt>
<totfact> 0.71268452E+04</totfact>
</mgrwt>
</event>
<event>
 7    0  0.4766352E-002  0.4458060E+03  0.7546771E-02  0.1028980E+00
         21   -1    0    0  502  501  0.00000000000E+00  0.00000000000E+00  0.12972237467E+04  0.12972237467E+04  0.00000000000E+00 0. -1.
         21   -1    0    0  501  502 -0.00000000000E+00 -0.00000000000E+00 -0.38301603766E+02  0.38301603766E+02  0.00000000000E+00 0. -1.
      99926    2    1    2    0    0  0.00000000000E+00  0.00000000000E+00  0.12589221429E+04  0.13355253504E+04  0.44580601135E+03 0.  0.
      99925    2    3    3    0    0 -0.97590440406E+02  0.23036760961E+02  0.88523964648E+03  0.92890427050E+03  0.26298160703E+03 0.  0.
         25    1    4    4    0    0 -0.13671068087E+02  0.15092396183E+02  0.48172451117E+03  0.49811714615E+03  0.12509000000E+03 0.  0.
         25    1    3    3    0    0  0.97590440406E+02 -0.23036760961E+02  0.37368249642E+03  0.40662107993E+03  0.12509000000E+03 0.  0.
         25    1    4    4    0    0 -0.83919372318E+02  0.79443647780E+01  0.40351513531E+03  0.43078712435E+03  0.12509000000E+03 0.  0.
<mgrwt>
<rscale>  2 0.44580601E+03</rscale>
<asrwt>0</asrwt>
<pdfrwt beam="1">  1       21 0.19076817E+00 0.44580601E+03</pdfrwt>
<pdfrwt beam="2">  1       21 0.56325897E-02 0.44580601E+03</pdfrwt>
<totfact> 0.30202231E+04</totfact>
</mgrwt>
</event>
<event>
 7    0  0.4766352E-002  0.4515163E+03  0.7546771E-02  0.1027271E+00
         21   -1    0    0  502  501  0.00000000000E+00  0.00000000000E+00  0.26726095888E+03  0.26726095888E+03  0.00000000000E+00 0. -1.
         21   -1    0    0  501  502 -0.00000000000E+00 -0.00000000000E+00 -0.19070030331E+03  0.19070030331E+03  0.00000000000E+00 0. -1.
      99926    2    1    2    0    0  0.00000000000E+00  0.00000000000E+00  0.76560655566E+02  0.45796126219E+03  0.45151631608E+03 0.  0.
      99925    2    3    3    0    0  0.14352311056E+02 -0.79812887317E+02  0.12342069889E+03  0.30169399890E+03  0.26307891258E+03 0.  0.
         25    1    4    4    0    0  0.26051571384E+02 -0.62487727898E+02  0.96955164682E+02  0.17213719112E+03  0.12509000000E+03 0.  0.
         25    1    3    3    0    0 -0.14352311056E+02  0.79812887317E+02 -0.46860043327E+02  0.15626726329E+03  0.12509000000E+03 0.  0.
         25    1    4    4    0    0 -0.11699260328E+02 -0.17325159419E+02  0.26465534211E+02  0.12955680778E+03  0.12509000000E+03 0.  0.
<mgrwt>
<rscale>  2 0.45151632E+03</rscale>
<asrwt>0</asrwt>
<pdfrwt beam="1">  1       21 0.39303082E-01 0.45151632E+03</pdfrwt>
<pdfrwt beam="2">  1       21 0.28044162E-01 0.45151632E+03</pdfrwt>
<totfact> 0.70260977E+04</totfact>
</mgrwt>
</event>
<event>
 7    0  0.4766352E-002  0.4534187E+03  0.7546771E-02  0.1026707E+00
         21   -1    0    0  502  501  0.00000000000E+00  0.00000000000E+00  0.12390525613E+03  0.12390525613E+03  0.00000000000E+00 0.  1.
         21   -1    0    0  501  502 -0.00000000000E+00 -0.00000000000E+00 -0.41480987529E+03  0.41480987529E+03  0.00000000000E+00 0.  1.
      99926    2    1    2    0    0  0.00000000000E+00  0.00000000000E+00 -0.29090461916E+03  0.53871513142E+03  0.45341867559E+03 0.  0.
      99925    2    3    3    0    0 -0.46155401806E+02 -0.70259397762E+02 -0.95933096992E+02  0.29228439745E+03  0.26298347059E+03 0.  0.
         25    1    3    3    0    0  0.46155401806E+02  0.70259397762E+02 -0.19497152217E+03  0.24643073398E+03  0.12509000000E+03 0.  0.
         25    1    4    4    0    0 -0.21237271360E+02 -0.30201146937E+01 -0.17413340426E+02  0.12810493867E+03  0.12509000000E+03 0.  0.
         25    1    4    4    0    0 -0.24918130446E+02 -0.67239283069E+02 -0.78519756566E+02  0.16417945878E+03  0.12509000000E+03 0.  0.
<mgrwt>
<rscale>  2 0.45341868E+03</rscale>
<asrwt>0</asrwt>
<pdfrwt beam="1">  1       21 0.18221361E-01 0.45341868E+03</pdfrwt>
<pdfrwt beam="2">  1       21 0.61001451E-01 0.45341868E+03</pdfrwt>
<totfact> 0.63408269E+04</totfact>
</mgrwt>
</event>
<event>
 7    0  0.4766352E-002  0.4482775E+03  0.7546771E-02  0.1028237E+00
         21   -1    0    0  502  501  0.00000000000E+00  0.00000000000E+00  0.14995531966E+03  0.14995531966E+03  0.00000000000E+00 0.  1.
         21   -1    0    0  501  502 -0.00000000000E+00 -0.00000000000E+00 -0.33502101522E+03  0.33502101522E+03  0.00000000000E+00 0.  1.
      99926    2    1    2    0    0  0.00000000000E+00  0.00000000000E+00 -0.18506569555E+03  0.48497633488E+03  0.44827751865E+03 0.  0.
      99925    2    3    3    0    0  0.51180336470E+02 -0.83144088260E+02 -0.16392104347E+03  0.32489207374E+03  0.26296841033E+03 0.  0.
         25    1    4    4    0    0  0.34801689733E+02 -0.91121600985E+00 -0.79562189189E+02  0.15228144329E+03  0.12509000000E+03 0.  0.
         25    1    4    4    0    0  0.16378646736E+02 -0.82232872250E+02 -0.84358854277E+02  0.17261063044E+03  0.12509000000E+03 0.  0.
         25    1    3    3    0    0 -0.51180336470E+02  0.83144088260E+02 -0.21144652087E+02  0.16008426114E+03  0.12509000000E+03 0.  0.
<mgrwt>
<rscale>  2 0.44827752E+03</rscale>
<asrwt>0</asrwt>
<pdfrwt beam="1">  1       21 0.22052253E-01 0.44827752E+03</pdfrwt>
<pdfrwt beam="2">  1       21 0.49267796E-01 0.44827752E+03</pdfrwt>
<totfact> 0.70001469E+04</totfact>
</mgrwt>
</event>
<event>
 7    0  0.4766352E-002  0.4789874E+03  0.7546771E-02  0.1019414E+00
         21   -1    0    0  502  501  0.00000000000E+00  0.00000000000E+00  0.15827396827E+03  0.15827396827E+03  0.00000000000E+00 0.  1.
         21   -1    0    0  501  502 -0.00000000000E+00 -0.00000000000E+00 -0.36239209176E+03  0.36239209176E+03  0.00000000000E+00 0.  1.
      99926    2    1    2    0    0 -0.14210854715E-13  0.14210854715E-13 -0.20411812349E+03  0.52066606004E+03  0.47898740875E+03 0.  0.
      99925    2    3    3    0    0  0.72254158496E+02 -0.87699471883E+02 -0.46938090627E+02  0.28987409393E+03  0.26251084776E+03 0.  0.
         25    1    3    3    0    0 -0.72254158496E+02  0.87699471883E+02 -0.15718003287E+03  0.23079196611E+03  0.12509000000E+03 0.  0.
         25    1    4    4    0    0 -0.36374401345E+01 -0.30119745392E+02 -0.24910690423E+02  0.13110484595E+03  0.12509000000E+03 0.  0.
         25    1    4    4    0    0  0.75891598630E+02 -0.57579726491E+02 -0.22027400204E+02  0.15876924798E+03  0.12509000000E+03 0.  0.
<mgrwt>
<rscale>  2 0.47898741E+03</rscale>
<asrwt>0</asrwt>
<pdfrwt beam="1">  1       21 0.23275584E-01 0.47898741E+03</pdfrwt>
<pdfrwt beam="2">  1       21 0.53292954E-01 0.47898741E+03</pdfrwt>
<totfact> 0.53008156E+04</totfact>
</mgrwt>
</event>
<event>
 7    0  0.4766352E-002  0.4564228E+03  0.7546771E-02  0.1025824E+00
         21   -1    0    0  502  501  0.00000000000E+00  0.00000000000E+00  0.24821799234E+02  0.24821799234E+02  0.00000000000E+00 0.  1.
         21   -1    0    0  501  502 -0.00000000000E+00 -0.00000000000E+00 -0.20981736833E+04  0.20981736833E+04  0.00000000000E+00 0.  1.
      99926    2    1    2    0    0  0.00000000000E+00 -0.14210854715E-13 -0.20733518841E+04  0.21229954826E+04  0.45642281243E+03 0.  0.
      99925    2    3    3    0    0 -0.23411690303E+02  0.11179037740E+03 -0.12881035750E+04  0.13196850751E+04  0.26327301753E+03 0.  0.
         25    1    4    4    0    0 -0.38874996952E+02  0.37943357542E+02 -0.73922339082E+03  0.75169787375E+03  0.12509000000E+03 0.  0.
         25    1    3    3    0    0  0.23411690303E+02 -0.11179037740E+03 -0.78524830910E+03  0.80331040749E+03  0.12509000000E+03 0.  0.
         25    1    4    4    0    0  0.15463306650E+02  0.73847019857E+02 -0.54888018416E+03  0.56798720132E+03  0.12509000000E+03 0.  0.
<mgrwt>
<rscale>  2 0.45642281E+03</rscale>
<asrwt>0</asrwt>
<pdfrwt beam="1">  1       21 0.36502631E-02 0.45642281E+03</pdfrwt>
<pdfrwt beam="2">  1       21 0.30855508E+00 0.45642281E+03</pdfrwt>
<totfact> 0.11674151E+04</totfact>
</mgrwt>
</event>
<event>
 7    0  0.4766352E-002  0.4336905E+03  0.7546771E-02  0.1032700E+00
         21   -1    0    0  502  501  0.00000000000E+00  0.00000000000E+00  0.74416524591E+03  0.74416524591E+03  0.00000000000E+00 0.  1.
         21   -1    0    0  501  502 -0.00000000000E+00 -0.00000000000E+00 -0.63187396375E+02  0.63187396375E+02  0.00000000000E+00 0.  1.
      99926    2    1    2    0    0  0.00000000000E+00 -0.71054273576E-14  0.68097784954E+03  0.80735264229E+03  0.43369050883E+03 0.  0.
      99925    2    3    3    0    0  0.36498510800E+02 -0.57264479436E+02  0.32279252203E+03  0.42192353228E+03  0.26308381349E+03 0.  0.
         25    1    4    4    0    0  0.15713618757E+02  0.12958304308E+02  0.14813014735E+03  0.19494841399E+03  0.12509000000E+03 0.  0.
         25    1    3    3    0    0 -0.36498510800E+02  0.57264479436E+02  0.35818532751E+03  0.38542911000E+03  0.12509000000E+03 0.  0.
         25    1    4    4    0    0  0.20784892043E+02 -0.70222783744E+02  0.17466237468E+03  0.22697511829E+03  0.12509000000E+03 0.  0.
<mgrwt>
<rscale>  2 0.43369051E+03</rscale>
<asrwt>0</asrwt>
<pdfrwt beam="1">  1       21 0.10943606E+00 0.43369051E+03</pdfrwt>
<pdfrwt beam="2">  1       21 0.92922646E-02 0.43369051E+03</pdfrwt>
<totfact> 0.56243085E+04</totfact>
</mgrwt>
</event>
<event>
 7    0  0.4766352E-002  0.4501194E+03  0.7546771E-02  0.1027686E+00
         21   -1    0    0  502  501  0.00000000000E+00  0.00000000000E+00  0.33958417914E+03  0.33958417914E+03  0.00000000000E+00 0.  1.
         21   -1    0    0  501  502 -0.00000000000E+00 -0.00000000000E+00 -0.14915848826E+03  0.14915848826E+03  0.00000000000E+00 0.  1.
      99926    2    1    2    0    0  0.35527136788E-14 -0.35527136788E-14  0.19042569088E+03  0.48874266739E+03  0.45011937437E+03 0.  0.
      99925    2    3    3    0    0 -0.17269417858E+02  0.26892412402E+02  0.77585393282E+01  0.26505486935E+03  0.26300656683E+03 0.  0.
         25    1    4    4    0    0 -0.36819577552E+02 -0.11054333355E+02 -0.12001027946E+02  0.13141313613E+03  0.12509000000E+03 0.  0.
         25    1    4    4    0    0  0.19550159694E+02  0.37946745758E+02  0.19759567274E+02  0.13364173321E+03  0.12509000000E+03 0.  0.
         25    1    3    3    0    0  0.17269417858E+02 -0.26892412402E+02  0.18266715155E+03  0.22368779804E+03  0.12509000000E+03 0.  0.
<mgrwt>
<rscale>  2 0.45011937E+03</rscale>
<asrwt>0</asrwt>
<pdfrwt beam="1">  1       21 0.49938850E-01 0.45011937E+03</pdfrwt>
<pdfrwt beam="2">  1       21 0.21935072E-01 0.45011937E+03</pdfrwt>
<totfact> 0.68692186E+04</totfact>
</mgrwt>
</event>
<event>
 7    0  0.4766352E-002  0.4660184E+03  0.7546771E-02  0.1023050E+00
         21   -1    0    0  502  501  0.00000000000E+00  0.00000000000E+00  0.57035039272E+02  0.57035039272E+02  0.00000000000E+00 0. -1.
         21   -1    0    0  501  502 -0.00000000000E+00 -0.00000000000E+00 -0.95192881599E+03  0.95192881599E+03  0.00000000000E+00 0. -1.
      99926    2    1    2    0    0  0.00000000000E+00  0.00000000000E+00 -0.89489377672E+03  0.10089638553E+04  0.46601844343E+03 0.  0.
      99925    2    3    3    0    0 -0.11274728835E+03  0.35431029713E+02 -0.63324473634E+03  0.69579451237E+03  0.26299011092E+03 0.  0.
         25    1    4    4    0    0 -0.77716878041E+02 -0.91493309990E+01 -0.38121063120E+03  0.40876971124E+03  0.12509000000E+03 0.  0.
         25    1    4    4    0    0 -0.35030410310E+02  0.44580360712E+02 -0.25203410515E+03  0.28702480113E+03  0.12509000000E+03 0.  0.
         25    1    3    3    0    0  0.11274728835E+03 -0.35431029713E+02 -0.26164904038E+03  0.31316934289E+03  0.12509000000E+03 0.  0.
<mgrwt>
<rscale>  2 0.46601844E+03</rscale>
<asrwt>0</asrwt>
<pdfrwt beam="1">  1       21 0.83875067E-02 0.46601844E+03</pdfrwt>
<pdfrwt beam="2">  1       21 0.13998952E+00 0.46601844E+03</pdfrwt>
<totfact> 0.35652090E+04</totfact>
</mgrwt>
</event>
<event>
 7    0  0.4766352E-002  0.4444922E+03  0.7546771E-02  0.1029377E+00
         21   -1    0    0  502  501  0.00000000000E+00  0.00000000000E+00  0.17452935322E+03  0.17452935322E+03  0.00000000000E+00 0. -1.
         21   -1    0    0  501  502 -0.00000000000E+00 -0.00000000000E+00 -0.28300874236E+03  0.28300874236E+03  0.00000000000E+00 0. -1.
      99926    2    1    2    0    0  0.00000000000E+00  0.35527136788E-14 -0.10847938914E+03  0.45753809559E+03  0.44449221708E+03 0.  0.
      99925    2    3    3    0    0 -0.84193605541E+02 -0.17385499754E+02 -0.12730198278E+03  0.30459164435E+03  0.26301987790E+03 0.  0.
         25    1    4    4    0    0 -0.31973984844E+02 -0.41088640083E+02 -0.38643688650E+02  0.14089519092E+03  0.12509000000E+03 0.  0.
         25    1    3    3    0    0  0.84193605541E+02  0.17385499754E+02  0.18822593641E+02  0.15294645124E+03  0.12509000000E+03 0.  0.
         25    1    4    4    0    0 -0.52219620697E+02  0.23703140329E+02 -0.88658294134E+02  0.16369645343E+03  0.12509000000E+03 0.  0.
<mgrwt>
<rscale>  2 0.44449222E+03</rscale>
<asrwt>0</asrwt>
<pdfrwt beam="1">  1       21 0.25666081E-01 0.44449222E+03</pdfrwt>
<pdfrwt beam="2">  1       21 0.41618933E-01 0.44449222E+03</pdfrwt>
<totfact> 0.74383079E+04</totfact>
</mgrwt>
</event>
<event>
 7    0  0.4766352E-002  0.4680206E+03  0.7546771E-02  0.1022480E+00
         21   -1    0    0  502  501  0.00000000000E+00  0.00000000000E+00  0.52940896179E+03  0.52940896179E+03  0.00000000000E+00 0. -1.
         21   -1    0    0  501  502 -0.00000000000E+00 -0.00000000000E+00 -0.10343766438E+03  0.10343766438E+03  0.00000000000E+00 0. -1.
      99926    2    1    2    0    0  0.00000000000E+00  0.00000000000E+00  0.42597129741E+03  0.63284662617E+03  0.46802062566E+03 0.  0.
      99925    2    3    3    0    0  0.10278988474E+03  0.39446739893E+02  0.34505493007E+03  0.44759875899E+03  0.26298277242E+03 0.  0.
         25    1    4    4    0    0  0.66688537676E+02  0.27135891089E+02  0.23910979716E+03  0.27929325240E+03  0.12509000000E+03 0.  0.
         25    1    4    4    0    0  0.36101347066E+02  0.12310848804E+02  0.10594513291E+03  0.16830550658E+03  0.12509000000E+03 0.  0.
         25    1    3    3    0    0 -0.10278988474E+03 -0.39446739893E+02  0.80916367340E+02  0.18524786719E+03  0.12509000000E+03 0.  0.
<mgrwt>
<rscale>  2 0.46802063E+03</rscale>
<asrwt>0</asrwt>
<pdfrwt beam="1">  1       21 0.77854258E-01 0.46802063E+03</pdfrwt>
<pdfrwt beam="2">  1       21 0.15211421E-01 0.46802063E+03</pdfrwt>
<totfact> 0.51228513E+04</totfact>
</mgrwt>
</event>
<event>
 7    0  0.4766352E-002  0.4557826E+03  0.7546771E-02  0.1026012E+00
         21   -1    0    0  502  501  0.00000000000E+00  0.00000000000E+00  0.69531431917E+02  0.69531431917E+02  0.00000000000E+00 0. -1.
         21   -1    0    0  501  502 -0.00000000000E+00 -0.00000000000E+00 -0.74692047665E+03  0.74692047665E+03  0.00000000000E+00 0. -1.
      99926    2    1    2    0    0  0.00000000000E+00  0.00000000000E+00 -0.67738904473E+03  0.81645190857E+03  0.45578262481E+03 0.  0.
      99925    2    3    3    0    0 -0.31058622709E+02 -0.70791477540E+01 -0.23234766993E+03  0.35306860528E+03  0.26392659573E+03 0.  0.
         25    1    4    4    0    0 -0.15240205041E+02 -0.53820910290E+00 -0.60392966043E+02  0.13974037343E+03  0.12509000000E+03 0.  0.
         25    1    4    4    0    0 -0.15818417668E+02 -0.65409386511E+01 -0.17195470388E+03  0.21332823185E+03  0.12509000000E+03 0.  0.
         25    1    3    3    0    0  0.31058622709E+02  0.70791477540E+01 -0.44504137481E+03  0.46338330329E+03  0.12509000000E+03 0.  0.
<mgrwt>
<rscale>  2 0.45578262E+03</rscale>
<asrwt>0</asrwt>
<pdfrwt beam="1">  1       21 0.10225210E-01 0.45578262E+03</pdfrwt>
<pdfrwt beam="2">  1       21 0.10984125E+00 0.45578262E+03</pdfrwt>
<totfact> 0.46691924E+04</totfact>
</mgrwt>
</event>
<event>
 7    0  0.4766352E-002  0.4551940E+03  0.7546771E-02  0.1026184E+00
         21   -1    0    0  502  501  0.00000000000E+00  0.00000000000E+00  0.28340131217E+03  0.28340131217E+03  0.00000000000E+00 0.  1.
         21   -1    0    0  501  502 -0.00000000000E+00 -0.00000000000E+00 -0.18278109845E+03  0.18278109845E+03  0.00000000000E+00 0.  1.
      99926    2    1    2    0    0  0.00000000000E+00 -0.71054273576E-14  0.10062021372E+03  0.46618241062E+03  0.45519403837E+03 0.  0.
      99925    2    3    3    0    0  0.45845624030E+02  0.51375135715E+02  0.15540309528E+03  0.31324484812E+03  0.26311781969E+03 0.  0.
         25    1    4    4    0    0  0.62603418271E+02  0.15383071356E+02  0.82037663751E+02  0.16289110853E+03  0.12509000000E+03 0.  0.
         25    1    4    4    0    0 -0.16757794241E+02  0.35992064358E+02  0.73365431533E+02  0.15035373959E+03  0.12509000000E+03 0.  0.
         25    1    3    3    0    0 -0.45845624030E+02 -0.51375135715E+02 -0.54782881568E+02  0.15293756251E+03  0.12509000000E+03 0.  0.
<mgrwt>
<rscale>  2 0.45519404E+03</rscale>
<asrwt>0</asrwt>
<pdfrwt beam="1">  1       21 0.41676664E-01 0.45519404E+03</pdfrwt>
<pdfrwt beam="2">  1       21 0.26879573E-01 0.45519404E+03</pdfrwt>
<totfact> 0.67617017E+04</totfact>
</mgrwt>
</event>
<event>
 7    0  0.4766352E-002  0.4405781E+03  0.7546771E-02  0.1030570E+00
         21   -1    0    0  502  501  0.00000000000E+00  0.00000000000E+00  0.53959141288E+03  0.53959141288E+03  0.00000000000E+00 0. -1.
         21   -1    0    0  501  502 -0.00000000000E+00 -0.00000000000E+00 -0.89933359354E+02  0.89933359354E+02  0.00000000000E+00 0. -1.
      99926    2    1    2    0    0  0.00000000000E+00 -0.71054273576E-14  0.44965805353E+03  0.62952477224E+03  0.44057811312E+03 0.  0.
      99925    2    3    3    0    0 -0.78672261063E+02  0.56865094964E+02  0.32078052117E+03  0.42536823883E+03  0.26194471202E+03 0.  0.
         25    1    3    3    0    0  0.78672261063E+02 -0.56865094964E+02  0.12887753236E+03  0.20415653341E+03  0.12509000000E+03 0.  0.
         25    1    4    4    0    0 -0.59200187280E+02 -0.67164699077E+00  0.13523628817E+03  0.19349799746E+03  0.12509000000E+03 0.  0.
         25    1    4    4    0    0 -0.19472073783E+02  0.57536741955E+02  0.18554423300E+03  0.23187024137E+03  0.12509000000E+03 0.  0.
<mgrwt>
<rscale>  2 0.44057811E+03</rscale>
<asrwt>0</asrwt>
<pdfrwt beam="1">  1       21 0.79351677E-01 0.44057811E+03</pdfrwt>
<pdfrwt beam="2">  1       21 0.13225494E-01 0.44057811E+03</pdfrwt>
<totfact> 0.63862016E+04</totfact>
</mgrwt>
</event>
<event>
 7    0  0.4766352E-002  0.4574701E+03  0.7546771E-02  0.1025518E+00
         21   -1    0    0  502  501  0.00000000000E+00  0.00000000000E+00  0.39394884564E+02  0.39394884564E+02  0.00000000000E+00 0. -1.
         21   -1    0    0  501  502 -0.00000000000E+00 -0.00000000000E+00 -0.13280844422E+04  0.13280844422E+04  0.00000000000E+00 0. -1.
      99926    2    1    2    0    0  0.00000000000E+00 -0.35527136788E-14 -0.12886895577E+04  0.13674793268E+04  0.45747014457E+03 0.  0.
      99925    2    3    3    0    0 -0.65003786403E+02 -0.23837729047E+02 -0.53065257922E+03  0.59607716296E+03  0.26253017883E+03 0.  0.
         25    1    4    4    0    0 -0.46396330714E+02 -0.23372834827E+02 -0.19532263324E+03  0.23769170803E+03  0.12509000000E+03 0.  0.
         25    1    4    4    0    0 -0.18607455689E+02 -0.46489422071E+00 -0.33532994597E+03  0.35838545492E+03  0.12509000000E+03 0.  0.
         25    1    3    3    0    0  0.65003786403E+02  0.23837729047E+02 -0.75803697844E+03  0.77140216382E+03  0.12509000000E+03 0.  0.
<mgrwt>
<rscale>  2 0.45747014E+03</rscale>
<asrwt>0</asrwt>
<pdfrwt beam="1">  1       21 0.57933660E-02 0.45747014E+03</pdfrwt>
<pdfrwt beam="2">  1       21 0.19530652E+00 0.45747014E+03</pdfrwt>
<totfact> 0.26695451E+04</totfact>
</mgrwt>
</event>
<event>
 7    0  0.4766352E-002  0.4523384E+03  0.7546771E-02  0.1027027E+00
         21   -1    0    0  502  501  0.00000000000E+00  0.00000000000E+00  0.85426808053E+02  0.85426808053E+02  0.00000000000E+00 0. -1.
         21   -1    0    0  501  502 -0.00000000000E+00 -0.00000000000E+00 -0.59878752740E+03  0.59878752740E+03  0.00000000000E+00 0. -1.
      99926    2    1    2    0    0  0.00000000000E+00  0.31086244690E-14 -0.51336071935E+03  0.68421433545E+03  0.45233840062E+03 0.  0.
      99925    2    3    3    0    0 -0.55637923546E+02 -0.37087209956E+01 -0.17882209648E+03  0.32272722443E+03  0.26280446353E+03 0.  0.
         25    1    3    3    0    0  0.55637923546E+02  0.37087209956E+01 -0.33453862287E+03  0.36148711103E+03  0.12509000000E+03 0.  0.
         25    1    4    4    0    0 -0.52024774398E+02 -0.30187109298E+02 -0.11236225008E+03  0.17857945588E+03  0.12509000000E+03 0.  0.
         25    1    4    4    0    0 -0.36131491480E+01  0.26478388302E+02 -0.66459846397E+02  0.14414776855E+03  0.12509000000E+03 0.  0.
<mgrwt>
<rscale>  2 0.45233840E+03</rscale>
<asrwt>0</asrwt>
<pdfrwt beam="1">  1       21 0.12562765E-01 0.45233840E+03</pdfrwt>
<pdfrwt beam="2">  1       21 0.88056993E-01 0.45233840E+03</pdfrwt>
<totfact> 0.54910323E+04</totfact>
</mgrwt>
</event>
<event>
 7    0  0.4766352E-002  0.4549431E+03  0.7546771E-02  0.1026258E+00
         21   -1    0    0  502  501  0.00000000000E+00  0.00000000000E+00  0.81808468399E+02  0.81808468399E+02  0.00000000000E+00 0. -1.
         21   -1    0    0  501  502 -0.00000000000E+00 -0.00000000000E+00 -0.63249320421E+03  0.63249320421E+03  0.00000000000E+00 0. -1.
      99926    2    1    2    0    0  0.00000000000E+00  0.00000000000E+00 -0.55068473581E+03  0.71430167261E+03  0.45494307472E+03 0.  0.
      99925    2    3    3    0    0  0.32212751543E+02  0.70902905735E+02 -0.21775481299E+03  0.35022101532E+03  0.26300706756E+03 0.  0.
         25    1    3    3    0    0 -0.32212751543E+02 -0.70902905735E+02 -0.33292992282E+03  0.36408065729E+03  0.12509000000E+03 0.  0.
         25    1    4    4    0    0  0.21692166964E+02  0.60380149898E+01 -0.13942117714E+03  0.18866048995E+03  0.12509000000E+03 0.  0.
         25    1    4    4    0    0  0.10520584579E+02  0.64864890745E+02 -0.78333635844E+02  0.16156052536E+03  0.12509000000E+03 0.  0.
<mgrwt>
<rscale>  2 0.45494307E+03</rscale>
<asrwt>0</asrwt>
<pdfrwt beam="1">  1       21 0.12030657E-01 0.45494307E+03</pdfrwt>
<pdfrwt beam="2">  1       21 0.93013710E-01 0.45494307E+03</pdfrwt>
<totfact> 0.52156715E+04</totfact>
</mgrwt>
</event>
<event>
 7    0  0.4766352E-002  0.3966174E+03  0.7546771E-02  0.1044957E+00
         21   -1    0    0  502  501  0.00000000000E+00  0.00000000000E+00  0.25039609524E+02  0.25039609524E+02  0.00000000000E+00 0. -1.
         21   -1    0    0  501  502 -0.00000000000E+00 -0.00000000000E+00 -0.15705650035E+04  0.15705650035E+04  0.00000000000E+00 0. -1.
      99926    2    1    2    0    0  0.00000000000E+00  0.00000000000E+00 -0.15455253940E+04  0.15956046130E+04  0.39661736936E+03 0.  0.
      99925    2    3    3    0    0  0.17147947588E+02 -0.34019279014E+02 -0.10114176001E+04  0.10457228012E+04  0.26290540428E+03 0.  0.
         25    1    4    4    0    0  0.22947133827E+01 -0.55903316198E+02 -0.56270753909E+03  0.57915259571E+03  0.12509000000E+03 0.  0.
         25    1    3    3    0    0 -0.17147947588E+02  0.34019279014E+02 -0.53410779384E+03  0.54988181184E+03  0.12509000000E+03 0.  0.
         25    1    4    4    0    0  0.14853234206E+02  0.21884037184E+02 -0.44871006102E+03  0.46657020545E+03  0.12509000000E+03 0.  0.
<mgrwt>
<rscale>  2 0.39661737E+03</rscale>
<asrwt>0</asrwt>
<pdfrwt beam="1">  1       21 0.36822953E-02 0.39661737E+03</pdfrwt>
<pdfrwt beam="2">  1       21 0.23096546E+00 0.39661737E+03</pdfrwt>
<totfact> 0.34855016E+04</totfact>
</mgrwt>
</event>
<event>
 7    0  0.4766352E-002  0.4569167E+03  0.7546771E-02  0.1025679E+00
         21   -1    0    0  502  501  0.00000000000E+00  0.00000000000E+00  0.21760629213E+03  0.21760629213E+03  0.00000000000E+00 0.  1.
         21   -1    0    0  501  502 -0.00000000000E+00 -0.00000000000E+00 -0.23985162334E+03  0.23985162334E+03  0.00000000000E+00 0.  1.
      99926    2    1    2    0    0  0.00000000000E+00 -0.71054273576E-14 -0.22245331207E+02  0.45745791547E+03  0.45691672071E+03 0.  0.
      99925    2    3    3    0    0 -0.80186918301E+02 -0.42535082745E+02  0.57072291890E+02  0.28373984340E+03  0.26270111743E+03 0.  0.
         25    1    3    3    0    0  0.80186918301E+02  0.42535082745E+02 -0.79317623096E+02  0.17371807207E+03  0.12509000000E+03 0.  0.
         25    1    4    4    0    0 -0.68694117079E+02 -0.51094770128E+02  0.23126183868E+02  0.15333585926E+03  0.12509000000E+03 0.  0.
         25    1    4    4    0    0 -0.11492801222E+02  0.85596873834E+01  0.33946108022E+02  0.13040398413E+03  0.12509000000E+03 0.  0.
<mgrwt>
<rscale>  2 0.45691672E+03</rscale>
<asrwt>0</asrwt>
<pdfrwt beam="1">  1       21 0.32000925E-01 0.45691672E+03</pdfrwt>
<pdfrwt beam="2">  1       21 0.35272298E-01 0.45691672E+03</pdfrwt>
<totfact> 0.67330518E+04</totfact>
</mgrwt>
</event>
<event>
 7    0  0.4766352E-002  0.4550915E+03  0.7546771E-02  0.1026214E+00
         21   -1    0    0  502  501  0.00000000000E+00  0.00000000000E+00  0.99328292414E+02  0.99328292414E+02  0.00000000000E+00 0. -1.
         21   -1    0    0  501  502 -0.00000000000E+00 -0.00000000000E+00 -0.52127217690E+03  0.52127217690E+03  0.00000000000E+00 0. -1.
      99926    2    1    2    0    0  0.00000000000E+00  0.00000000000E+00 -0.42194388448E+03  0.62060046931E+03  0.45509153020E+03 0.  0.
      99925    2    3    3    0    0  0.22126312697E+02  0.26528548364E+02 -0.41257731812E+03  0.49049059936E+03  0.26299742783E+03 0.  0.
         25    1    3    3    0    0 -0.22126312697E+02 -0.26528548364E+02 -0.93665663630E+01  0.13010986995E+03  0.12509000000E+03 0.  0.
         25    1    4    4    0    0  0.37226948465E+02  0.29093367994E+02 -0.16240875625E+03  0.21037200850E+03  0.12509000000E+03 0.  0.
         25    1    4    4    0    0 -0.15100635767E+02 -0.25648196304E+01 -0.25016856187E+03  0.28011859087E+03  0.12509000000E+03 0.  0.
<mgrwt>
<rscale>  2 0.45509153E+03</rscale>
<asrwt>0</asrwt>
<pdfrwt beam="1">  1       21 0.14607102E-01 0.45509153E+03</pdfrwt>
<pdfrwt beam="2">  1       21 0.76657672E-01 0.45509153E+03</pdfrwt>
<totfact> 0.57386354E+04</totfact>
</mgrwt>
</event>
<event>
 6    0  0.4766352E-002  0.4554493E+03  0.7546771E-02  0.1026109E+00
         21   -1    0    0  502  501  0.00000000000E+00  0.00000000000E+00  0.15480923293E+03  0.15480923293E+03  0.00000000000E+00 0. -1.
         21   -1    0    0  501  502 -0.00000000000E+00 -0.00000000000E+00 -0.33498341947E+03  0.33498341947E+03  0.00000000000E+00 0. -1.
      99926    2    1    2    0    0  0.00000000000E+00  0.71054273576E-14 -0.18017418653E+03  0.48979265240E+03  0.45544934389E+03 0.  0.
         25    1    3    3    0    0  0.43480721617E+02 -0.70441623076E+02 -0.19511548283E+02  0.15126402094E+03  0.12509000000E+03 0.  0.
         25    1    3    3    0    0  0.22479125474E+02  0.20825936873E+02 -0.15210926169E+02  0.12968388914E+03  0.12509000000E+03 0.  0.
         25    1    3    3    0    0 -0.65959847090E+02  0.49615686203E+02 -0.14545171208E+03  0.20884474232E+03  0.12509000000E+03 0.  0.
<mgrwt>
<rscale>  2 0.45544934E+03</rscale>
<asrwt>0</asrwt>
<pdfrwt beam="1">  1       21 0.22766064E-01 0.45544934E+03</pdfrwt>
<pdfrwt beam="2">  1       21 0.49262267E-01 0.45544934E+03</pdfrwt>
<totfact> 0.65758990E+04</totfact>
</mgrwt>
</event>
<event>
 7    0  0.4766352E-002  0.4580080E+03  0.7546771E-02  0.1025361E+00
         21   -1    0    0  502  501  0.00000000000E+00  0.00000000000E+00  0.12199789809E+03  0.12199789809E+03  0.00000000000E+00 0. -1.
         21   -1    0    0  501  502 -0.00000000000E+00 -0.00000000000E+00 -0.42986676829E+03  0.42986676829E+03  0.00000000000E+00 0. -1.
      99926    2    1    2    0    0  0.00000000000E+00  0.53290705182E-14 -0.30786887020E+03  0.55186466638E+03  0.45800804443E+03 0.  0.
      99925    2    3    3    0    0 -0.95558937043E+02 -0.63864952256E+01 -0.11442718326E+03  0.30238622620E+03  0.26300485120E+03 0.  0.
         25    1    3    3    0    0  0.95558937043E+02  0.63864952256E+01 -0.19344168694E+03  0.24947844019E+03  0.12509000000E+03 0.  0.
         25    1    4    4    0    0 -0.51080822156E+02 -0.33327635752E+02 -0.87138430054E+02  0.16419682028E+03  0.12509000000E+03 0.  0.
         25    1    4    4    0    0 -0.44478114888E+02  0.26941140527E+02 -0.27288753201E+02  0.13818940592E+03  0.12509000000E+03 0.  0.
<mgrwt>
<rscale>  2 0.45800804E+03</rscale>
<asrwt>0</asrwt>
<pdfrwt beam="1">  1       21 0.17940868E-01 0.45800804E+03</pdfrwt>
<pdfrwt beam="2">  1       21 0.63215700E-01 0.45800804E+03</pdfrwt>
<totfact> 0.60295658E+04</totfact>
</mgrwt>
</event>
<event>
 7    0  0.4766352E-002  0.4396918E+03  0.7546771E-02  0.1030841E+00
         21   -1    0    0  502  501  0.00000000000E+00  0.00000000000E+00  0.26143834418E+03  0.26143834418E+03  0.00000000000E+00 0. -1.
         21   -1    0    0  501  502 -0.00000000000E+00 -0.00000000000E+00 -0.18487043283E+03  0.18487043283E+03  0.00000000000E+00 0. -1.
      99926    2    1    2    0    0  0.00000000000E+00 -0.44408920985E-15  0.76567911352E+02  0.44630877701E+03  0.43969180045E+03 0.  0.
      99925    2    3    3    0    0  0.74655353349E+02  0.30612643590E+01 -0.15618379280E+02  0.27388890169E+03  0.26303688634E+03 0.  0.
         25    1    4    4    0    0  0.70283956170E+02  0.18289346010E+02  0.10854431574E+02  0.14505054794E+03  0.12509000000E+03 0.  0.
         25    1    4    4    0    0  0.43713971788E+01 -0.15228081651E+02 -0.26472810853E+02  0.12883835376E+03  0.12509000000E+03 0.  0.
         25    1    3    3    0    0 -0.74655353349E+02 -0.30612643590E+01  0.92186290631E+02  0.17241987531E+03  0.12509000000E+03 0.  0.
<mgrwt>
<rscale>  2 0.43969180E+03</rscale>
<asrwt>0</asrwt>
<pdfrwt beam="1">  1       21 0.38446815E-01 0.43969180E+03</pdfrwt>
<pdfrwt beam="2">  1       21 0.27186828E-01 0.43969180E+03</pdfrwt>
<totfact> 0.78323188E+04</totfact>
</mgrwt>
</event>
<event>
 7    0  0.4766352E-002  0.4551656E+03  0.7546771E-02  0.1026193E+00
         21   -1    0    0  502  501  0.00000000000E+00  0.00000000000E+00  0.28293452146E+03  0.28293452146E+03  0.00000000000E+00 0.  1.
         21   -1    0    0  501  502 -0.00000000000E+00 -0.00000000000E+00 -0.18305979353E+03  0.18305979353E+03  0.00000000000E+00 0.  1.
      99926    2    1    2    0    0  0.71054273576E-14 -0.14210854715E-13  0.99874727930E+02  0.46599431499E+03  0.45516561856E+03 0.  0.
      99925    2    3    3    0    0  0.42505140126E+02 -0.10436214018E+03  0.50899952026E+02  0.29065413130E+03  0.26304158547E+03 0.  0.
         25    1    4    4    0    0  0.39445248852E+02 -0.82523670315E+02  0.32670166305E+01  0.15499763004E+03  0.12509000000E+03 0.  0.
         25    1    3    3    0    0 -0.42505140126E+02  0.10436214018E+03  0.48974775904E+02  0.17534018369E+03  0.12509000000E+03 0.  0.
         25    1    4    4    0    0  0.30598912740E+01 -0.21838469867E+02  0.47632935395E+02  0.13565650126E+03  0.12509000000E+03 0.  0.
<mgrwt>
<rscale>  2 0.45516562E+03</rscale>
<asrwt>0</asrwt>
<pdfrwt beam="1">  1       21 0.41608018E-01 0.45516562E+03</pdfrwt>
<pdfrwt beam="2">  1       21 0.26920558E-01 0.45516562E+03</pdfrwt>
<totfact> 0.67646371E+04</totfact>
</mgrwt>
</event>
<event>
 7    0  0.4766352E-002  0.4587550E+03  0.7546771E-02  0.1025143E+00
         21   -1    0    0  502  501  0.00000000000E+00  0.00000000000E+00  0.68778083203E+03  0.68778083203E+03  0.00000000000E+00 0.  1.
         21   -1    0    0  501  502 -0.00000000000E+00 -0.00000000000E+00 -0.76498270309E+02  0.76498270309E+02  0.00000000000E+00 0.  1.
      99926    2    1    2    0    0  0.00000000000E+00  0.17763568394E-14  0.61128256172E+03  0.76427910234E+03  0.45875502832E+03 0.  0.
      99925    2    3    3    0    0  0.11357891079E+03  0.12405430143E+02  0.34466107360E+03  0.44838578221E+03  0.26306746352E+03 0.  0.
         25    1    4    4    0    0  0.36941985819E+02 -0.58632889687E+01  0.21606062434E+03  0.25244561783E+03  0.12509000000E+03 0.  0.
         25    1    4    4    0    0  0.76636924968E+02  0.18268719112E+02  0.12860044926E+03  0.19594016438E+03  0.12509000000E+03 0.  0.
         25    1    3    3    0    0 -0.11357891079E+03 -0.12405430143E+02  0.26662148813E+03  0.31589332013E+03  0.12509000000E+03 0.  0.
<mgrwt>
<rscale>  2 0.45875503E+03</rscale>
<asrwt>0</asrwt>
<pdfrwt beam="1">  1       21 0.10114424E+00 0.45875503E+03</pdfrwt>
<pdfrwt beam="2">  1       21 0.11249746E-01 0.45875503E+03</pdfrwt>
<totfact> 0.48106951E+04</totfact>
</mgrwt>
</event>
<event>
 7    0  0.4766352E-002  0.4630493E+03  0.7546771E-02  0.1023901E+00
         21   -1    0    0  502  501  0.00000000000E+00  0.00000000000E+00  0.80393683659E+02  0.80393683659E+02  0.00000000000E+00 0.  1.
         21   -1    0    0  501  502 -0.00000000000E+00 -0.00000000000E+00 -0.66676451960E+03  0.66676451960E+03  0.00000000000E+00 0.  1.
      99926    2    1    2    0    0  0.00000000000E+00  0.00000000000E+00 -0.58637083594E+03  0.74715820326E+03  0.46304926677E+03 0.  0.
      99925    2    3    3    0    0 -0.68544487294E+02  0.20197440033E+02 -0.21164477182E+03  0.34569411452E+03  0.26382689031E+03 0.  0.
         25    1    4    4    0    0 -0.70987811397E+02  0.27503721105E+02 -0.13239676928E+03  0.19741361821E+03  0.12509000000E+03 0.  0.
         25    1    4    4    0    0  0.24433241032E+01 -0.73062810715E+01 -0.79248002547E+02  0.14828049630E+03  0.12509000000E+03 0.  0.
         25    1    3    3    0    0  0.68544487294E+02 -0.20197440033E+02 -0.37472606412E+03  0.40146408875E+03  0.12509000000E+03 0.  0.
<mgrwt>
<rscale>  2 0.46304927E+03</rscale>
<asrwt>0</asrwt>
<pdfrwt beam="1">  1       21 0.11822601E-01 0.46304927E+03</pdfrwt>
<pdfrwt beam="2">  1       21 0.98053605E-01 0.46304927E+03</pdfrwt>
<totfact> 0.47348673E+04</totfact>
</mgrwt>
</event>
<event>
 7    0  0.4766352E-002  0.4657888E+03  0.7546771E-02  0.1023116E+00
         21   -1    0    0  502  501  0.00000000000E+00  0.00000000000E+00  0.92069809861E+02  0.92069809861E+02  0.00000000000E+00 0. -1.
         21   -1    0    0  501  502 -0.00000000000E+00 -0.00000000000E+00 -0.58911614050E+03  0.58911614050E+03  0.00000000000E+00 0. -1.
      99926    2    1    2    0    0  0.00000000000E+00  0.00000000000E+00 -0.49704633064E+03  0.68118595036E+03  0.46578884075E+03 0.  0.
      99925    2    3    3    0    0  0.92574219111E+02  0.45822541863E+02 -0.21203471059E+03  0.35323957814E+03  0.26296347595E+03 0.  0.
         25    1    4    4    0    0  0.23779465065E+02  0.55666773894E+02 -0.94414391254E+02  0.16800547030E+03  0.12509000000E+03 0.  0.
         25    1    3    3    0    0 -0.92574219111E+02 -0.45822541863E+02 -0.28501162005E+03  0.32794637222E+03  0.12509000000E+03 0.  0.
         25    1    4    4    0    0  0.68794754046E+02 -0.98442320308E+01 -0.11762031934E+03  0.18523410784E+03  0.12509000000E+03 0.  0.
<mgrwt>
<rscale>  2 0.46578884E+03</rscale>
<asrwt>0</asrwt>
<pdfrwt beam="1">  1       21 0.13539678E-01 0.46578884E+03</pdfrwt>
<pdfrwt beam="2">  1       21 0.86634724E-01 0.46578884E+03</pdfrwt>
<totfact> 0.49584830E+04</totfact>
</mgrwt>
</event>
<event>
 7    0  0.4766352E-002  0.4585922E+03  0.7546771E-02  0.1025190E+00
         21   -1    0    0  502  501  0.00000000000E+00  0.00000000000E+00  0.33587282367E+03  0.33587282367E+03  0.00000000000E+00 0.  1.
         21   -1    0    0  501  502 -0.00000000000E+00 -0.00000000000E+00 -0.15653753805E+03  0.15653753805E+03  0.00000000000E+00 0.  1.
      99926    2    1    2    0    0  0.00000000000E+00  0.00000000000E+00  0.17933528562E+03  0.49241036172E+03  0.45859221500E+03 0.  0.
      99925    2    3    3    0    0 -0.24672282426E+02  0.10587595859E+03  0.67321110704E+02  0.29237755539E+03  0.26293357112E+03 0.  0.
         25    1    4    4    0    0 -0.52193818464E+02  0.48255653820E+02  0.39541073541E+02  0.14921061426E+03  0.12509000000E+03 0.  0.
         25    1    3    3    0    0  0.24672282426E+02 -0.10587595859E+03  0.11201417492E+03  0.20003280633E+03  0.12509000000E+03 0.  0.
         25    1    4    4    0    0  0.27521536038E+02  0.57620304765E+02  0.27780037163E+02  0.14316694113E+03  0.12509000000E+03 0.  0.
<mgrwt>
<rscale>  2 0.45859222E+03</rscale>
<asrwt>0</asrwt>
<pdfrwt beam="1">  1       21 0.49393062E-01 0.45859222E+03</pdfrwt>
<pdfrwt beam="2">  1       21 0.23020226E-01 0.45859222E+03</pdfrwt>
<totfact> 0.63963582E+04</totfact>
</mgrwt>
</event>
<event>
 7    0  0.4766352E-002  0.4352534E+03  0.7546771E-02  0.1032213E+00
         21   -1    0    0  502  501  0.00000000000E+00  0.00000000000E+00  0.14908833980E+03  0.14908833980E+03  0.00000000000E+00 0. -1.
         21   -1    0    0  501  502 -0.00000000000E+00 -0.00000000000E+00 -0.31767331813E+03  0.31767331813E+03  0.00000000000E+00 0. -1.
      99926    2    1    2    0    0  0.71054273576E-14 -0.14210854715E-13 -0.16858497833E+03  0.46676165793E+03  0.43525343238E+03 0.  0.
      99925    2    3    3    0    0 -0.61518619148E+02  0.70161843372E+02 -0.11462819999E+03  0.30163725999E+03  0.26294141479E+03 0.  0.
         25    1    4    4    0    0 -0.69813660962E+02  0.34005737410E+02 -0.46227868618E+02  0.15432064467E+03  0.12509000000E+03 0.  0.
         25    1    3    3    0    0  0.61518619148E+02 -0.70161843372E+02 -0.53956778332E+02  0.16512439794E+03  0.12509000000E+03 0.  0.
         25    1    4    4    0    0  0.82950418142E+01  0.36156105961E+02 -0.68400331375E+02  0.14731661532E+03  0.12509000000E+03 0.  0.
<mgrwt>
<rscale>  2 0.43525343E+03</rscale>
<asrwt>0</asrwt>
<pdfrwt beam="1">  1       21 0.21924756E-01 0.43525343E+03</pdfrwt>
<pdfrwt beam="2">  1       21 0.46716664E-01 0.43525343E+03</pdfrwt>
<totfact> 0.79411792E+04</totfact>
</mgrwt>
</event>
<event>
 7    0  0.4766352E-002  0.4535067E+03  0.7546771E-02  0.1026681E+00
         21   -1    0    0  502  501  0.00000000000E+00  0.00000000000E+00  0.42197299333E+03  0.42197299333E+03  0.00000000000E+00 0.  1.
         21   -1    0    0  501  502 -0.00000000000E+00 -0.00000000000E+00 -0.12184920782E+03  0.12184920782E+03  0.00000000000E+00 0.  1.
      99926    2    1    2    0    0  0.00000000000E+00 -0.17763568394E-14  0.30012378551E+03  0.54382220116E+03  0.45350667012E+03 0.  0.
      99925    2    3    3    0    0  0.10812818292E+03  0.98269681437E+01  0.22145384491E+03  0.36045169944E+03  0.26285994171E+03 0.  0.
         25    1    4    4    0    0  0.56982531863E+02  0.42290757857E+02  0.93521482679E+02  0.17154968073E+03  0.12509000000E+03 0.  0.
         25    1    4    4    0    0  0.51145651062E+02 -0.32463789714E+02  0.12793236223E+03  0.18890201870E+03  0.12509000000E+03 0.  0.
         25    1    3    3    0    0 -0.10812818292E+03 -0.98269681437E+01  0.78669940606E+02  0.18337050172E+03  0.12509000000E+03 0.  0.
<mgrwt>
<rscale>  2 0.45350667E+03</rscale>
<asrwt>0</asrwt>
<pdfrwt beam="1">  1       21 0.62054851E-01 0.45350667E+03</pdfrwt>
<pdfrwt beam="2">  1       21 0.17919001E-01 0.45350667E+03</pdfrwt>
<totfact> 0.63017984E+04</totfact>
</mgrwt>
</event>
<event>
 7    0  0.4766352E-002  0.4687158E+03  0.7546771E-02  0.1022283E+00
         21   -1    0    0  502  501  0.00000000000E+00  0.00000000000E+00  0.49679247365E+03  0.49679247365E+03  0.00000000000E+00 0.  1.
         21   -1    0    0  501  502 -0.00000000000E+00 -0.00000000000E+00 -0.11055647832E+03  0.11055647832E+03  0.00000000000E+00 0.  1.
      99926    2    1    2    0    0  0.00000000000E+00  0.00000000000E+00  0.38623599533E+03  0.60734895197E+03  0.46871580447E+03 0.  0.
      99925    2    3    3    0    0 -0.71313026876E+02 -0.10268704672E+03  0.25598359906E+03  0.38770521270E+03  0.26297823407E+03 0.  0.
         25    1    4    4    0    0 -0.54117329699E+02 -0.91240591546E+02  0.15420371059E+03  0.22512179677E+03  0.12509000000E+03 0.  0.
         25    1    4    4    0    0 -0.17195697177E+02 -0.11446455179E+02  0.10177988847E+03  0.16258341593E+03  0.12509000000E+03 0.  0.
         25    1    3    3    0    0  0.71313026876E+02  0.10268704672E+03  0.13025239627E+03  0.21964373927E+03  0.12509000000E+03 0.  0.
<mgrwt>
<rscale>  2 0.46871580E+03</rscale>
<asrwt>0</asrwt>
<pdfrwt beam="1">  1       21 0.73057716E-01 0.46871580E+03</pdfrwt>
<pdfrwt beam="2">  1       21 0.16258306E-01 0.46871580E+03</pdfrwt>
<totfact> 0.52323834E+04</totfact>
</mgrwt>
</event>
<event>
 7    0  0.4766352E-002  0.4623171E+03  0.7546771E-02  0.1024111E+00
         21   -1    0    0  502  501  0.00000000000E+00  0.00000000000E+00  0.19217187014E+03  0.19217187014E+03  0.00000000000E+00 0. -1.
         21   -1    0    0  501  502 -0.00000000000E+00 -0.00000000000E+00 -0.27805467299E+03  0.27805467299E+03  0.00000000000E+00 0. -1.
      99926    2    1    2    0    0 -0.35527136788E-14  0.00000000000E+00 -0.85882802856E+02  0.47022654313E+03  0.46231714876E+03 0.  0.
      99925    2    3    3    0    0  0.28967782650E+02  0.10776127433E+03 -0.90551637893E+01  0.28583126418E+03  0.26299408912E+03 0.  0.
         25    1    4    4    0    0 -0.15862892147E+02  0.78212288214E+02 -0.17697747145E+02  0.14943062514E+03  0.12509000000E+03 0.  0.
         25    1    3    3    0    0 -0.28967782650E+02 -0.10776127433E+03 -0.76827639067E+02  0.18439527896E+03  0.12509000000E+03 0.  0.
         25    1    4    4    0    0  0.44830674798E+02  0.29548986115E+02  0.86425833560E+01  0.13640063904E+03  0.12509000000E+03 0.  0.
<mgrwt>
<rscale>  2 0.46231715E+03</rscale>
<asrwt>0</asrwt>
<pdfrwt beam="1">  1       21 0.28260569E-01 0.46231715E+03</pdfrwt>
<pdfrwt beam="2">  1       21 0.40890393E-01 0.46231715E+03</pdfrwt>
<totfact> 0.63640866E+04</totfact>
</mgrwt>
</event>
<event>
 7    0  0.4766352E-002  0.4553792E+03  0.7546771E-02  0.1026130E+00
         21   -1    0    0  502  501  0.00000000000E+00  0.00000000000E+00  0.31682358942E+03  0.31682358942E+03  0.00000000000E+00 0. -1.
         21   -1    0    0  501  502 -0.00000000000E+00 -0.00000000000E+00 -0.16363225734E+03  0.16363225734E+03  0.00000000000E+00 0. -1.
      99926    2    1    2    0    0  0.00000000000E+00  0.00000000000E+00  0.15319133209E+03  0.48045584676E+03  0.45537922269E+03 0.  0.
      99925    2    3    3    0    0 -0.13674628085E+02 -0.10665741730E+03  0.13476956602E+03  0.31447491507E+03  0.26299968853E+03 0.  0.
         25    1    4    4    0    0 -0.20966363945E+02 -0.12735102573E+02  0.57129135901E+02  0.13968900287E+03  0.12509000000E+03 0.  0.
         25    1    4    4    0    0  0.72917358600E+01 -0.93922314722E+02  0.77640430123E+02  0.17478591220E+03  0.12509000000E+03 0.  0.
         25    1    3    3    0    0  0.13674628085E+02  0.10665741730E+03  0.18421766062E+02  0.16598093168E+03  0.12509000000E+03 0.  0.
<mgrwt>
<rscale>  2 0.45537922E+03</rscale>
<asrwt>0</asrwt>
<pdfrwt beam="1">  1       21 0.46591704E-01 0.45537922E+03</pdfrwt>
<pdfrwt beam="2">  1       21 0.24063567E-01 0.45537922E+03</pdfrwt>
<totfact> 0.66466635E+04</totfact>
</mgrwt>
</event>
<event>
 7    0  0.4766352E-002  0.4557251E+03  0.7546771E-02  0.1026028E+00
         21   -1    0    0  502  501  0.00000000000E+00  0.00000000000E+00  0.60964823794E+02  0.60964823794E+02  0.00000000000E+00 0. -1.
         21   -1    0    0  501  502 -0.00000000000E+00 -0.00000000000E+00 -0.85166077797E+03  0.85166077797E+03  0.00000000000E+00 0. -1.
      99926    2    1    2    0    0  0.00000000000E+00  0.00000000000E+00 -0.79069595418E+03  0.91262560177E+03  0.45572513322E+03 0.  0.
      99925    2    3    3    0    0 -0.21753959392E+02  0.47143136079E+02 -0.29466750134E+03  0.39843940577E+03  0.26311463983E+03 0.  0.
         25    1    3    3    0    0  0.21753959392E+02 -0.47143136079E+02 -0.49602845284E+03  0.51418619600E+03  0.12509000000E+03 0.  0.
         25    1    4    4    0    0  0.22255036892E+02  0.16561238551E+02 -0.10887884510E+03  0.16814182198E+03  0.12509000000E+03 0.  0.
         25    1    4    4    0    0 -0.44008996284E+02  0.30581897528E+02 -0.18578865624E+03  0.23029758379E+03  0.12509000000E+03 0.  0.
<mgrwt>
<rscale>  2 0.45572513E+03</rscale>
<asrwt>0</asrwt>
<pdfrwt beam="1">  1       21 0.89654159E-02 0.45572513E+03</pdfrwt>
<pdfrwt beam="2">  1       21 0.12524422E+00 0.45572513E+03</pdfrwt>
<totfact> 0.42450898E+04</totfact>
</mgrwt>
</event>
<event>
 7    0  0.4766352E-002  0.4478445E+03  0.7546771E-02  0.1028367E+00
         21   -1    0    0  502  501  0.00000000000E+00  0.00000000000E+00  0.13493097357E+03  0.13493097357E+03  0.00000000000E+00 0.  1.
         21   -1    0    0  501  502 -0.00000000000E+00 -0.00000000000E+00 -0.37160614050E+03  0.37160614050E+03  0.00000000000E+00 0.  1.
      99926    2    1    2    0    0 -0.71054273576E-14  0.00000000000E+00 -0.23667516692E+03  0.50653711407E+03  0.44784451911E+03 0.  0.
      99925    2    3    3    0    0  0.54373095727E+02  0.84768496180E+02 -0.18819624675E+03  0.33878776151E+03  0.26309159731E+03 0.  0.
         25    1    3    3    0    0 -0.54373095727E+02 -0.84768496180E+02 -0.48478920172E+02  0.16774935256E+03  0.12509000000E+03 0.  0.
         25    1    4    4    0    0 -0.83859934947E+01  0.47238444093E+02 -0.11445027879E+03  0.17620490885E+03  0.12509000000E+03 0.  0.
         25    1    4    4    0    0  0.62759089222E+02  0.37530052086E+02 -0.73745967964E+02  0.16258285266E+03  0.12509000000E+03 0.  0.
<mgrwt>
<rscale>  2 0.44784452E+03</rscale>
<asrwt>0</asrwt>
<pdfrwt beam="1">  1       21 0.19842790E-01 0.44784452E+03</pdfrwt>
<pdfrwt beam="2">  1       21 0.54647961E-01 0.44784452E+03</pdfrwt>
<totfact> 0.68629002E+04</totfact>
</mgrwt>
</event>
<event>
 7    0  0.4766352E-002  0.4515783E+03  0.7546771E-02  0.1027252E+00
         21   -1    0    0  502  501  0.00000000000E+00  0.00000000000E+00  0.22229293728E+03  0.22229293728E+03  0.00000000000E+00 0.  1.
         21   -1    0    0  501  502 -0.00000000000E+00 -0.00000000000E+00 -0.22934033338E+03  0.22934033338E+03  0.00000000000E+00 0.  1.
      99926    2    1    2    0    0  0.00000000000E+00  0.14210854715E-13 -0.70473961034E+01  0.45163327066E+03  0.45157828266E+03 0.  0.
      99925    2    3    3    0    0  0.38236042188E+02  0.10017052652E+03 -0.25272827379E+02  0.28587500163E+03  0.26379854330E+03 0.  0.
         25    1    4    4    0    0  0.39913281820E+02  0.16654477709E+02 -0.28647627322E+02  0.13542022133E+03  0.12509000000E+03 0.  0.
         25    1    3    3    0    0 -0.38236042188E+02 -0.10017052652E+03  0.18225431275E+02  0.16575826903E+03  0.12509000000E+03 0.  0.
         25    1    4    4    0    0 -0.16772396313E+01  0.83516048810E+02  0.33747999435E+01  0.15045478030E+03  0.12509000000E+03 0.  0.
<mgrwt>
<rscale>  2 0.45157828E+03</rscale>
<asrwt>0</asrwt>
<pdfrwt beam="1">  1       21 0.32690138E-01 0.45157828E+03</pdfrwt>
<pdfrwt beam="2">  1       21 0.33726520E-01 0.45157828E+03</pdfrwt>
<totfact> 0.70703853E+04</totfact>
</mgrwt>
</event>
<event>
 7    0  0.4766352E-002  0.4557448E+03  0.7546771E-02  0.1026023E+00
         21   -1    0    0  502  501  0.00000000000E+00  0.00000000000E+00  0.52321048283E+03  0.52321048283E+03  0.00000000000E+00 0.  1.
         21   -1    0    0  501  502 -0.00000000000E+00 -0.00000000000E+00 -0.99244625434E+02  0.99244625434E+02  0.00000000000E+00 0.  1.
      99926    2    1    2    0    0  0.00000000000E+00  0.00000000000E+00  0.42396585739E+03  0.62245510826E+03  0.45574478995E+03 0.  0.
      99925    2    3    3    0    0  0.40422844161E+02  0.98621987591E+02  0.32143867294E+03  0.42875525174E+03  0.26295996399E+03 0.  0.
         25    1    4    4    0    0  0.40716063775E+02  0.27181526874E+02  0.11387473846E+03  0.17610109998E+03  0.12509000000E+03 0.  0.
         25    1    3    3    0    0 -0.40422844161E+02 -0.98621987591E+02  0.10252718445E+03  0.19369985653E+03  0.12509000000E+03 0.  0.
         25    1    4    4    0    0 -0.29321961342E+00  0.71440460717E+02  0.20756393448E+03  0.25265415176E+03  0.12509000000E+03 0.  0.
<mgrwt>
<rscale>  2 0.45574479E+03</rscale>
<asrwt>0</asrwt>
<pdfrwt beam="1">  1       21 0.76942717E-01 0.45574479E+03</pdfrwt>
<pdfrwt beam="2">  1       21 0.14594798E-01 0.45574479E+03</pdfrwt>
<totfact> 0.56981120E+04</totfact>
</mgrwt>
</event>
<event>
 7    0  0.4766352E-002  0.4035378E+03  0.7546771E-02  0.1042562E+00
         21   -1    0    0  502  501  0.00000000000E+00  0.00000000000E+00  0.12009177532E+03  0.12009177532E+03  0.00000000000E+00 0.  1.
         21   -1    0    0  501  502 -0.00000000000E+00 -0.00000000000E+00 -0.33899647245E+03  0.33899647245E+03  0.00000000000E+00 0.  1.
      99926    2    1    2    0    0  0.00000000000E+00 -0.35527136788E-14 -0.21890469714E+03  0.45908824777E+03  0.40353779602E+03 0.  0.
      99925    2    3    3    0    0  0.17963018597E+02  0.11433491400E+02 -0.90903321663E+02  0.27885158395E+03  0.26275729718E+03 0.  0.
         25    1    4    4    0    0  0.88665249501E+01  0.33634306975E+02 -0.15302477864E+02  0.13073467711E+03  0.12509000000E+03 0.  0.
         25    1    3    3    0    0 -0.17963018597E+02 -0.11433491400E+02 -0.12800137547E+03  0.18023666382E+03  0.12509000000E+03 0.  0.
         25    1    4    4    0    0  0.90964936470E+01 -0.22200815575E+02 -0.75600843799E+02  0.14811690684E+03  0.12509000000E+03 0.  0.
<mgrwt>
<rscale>  2 0.40353780E+03</rscale>
<asrwt>0</asrwt>
<pdfrwt beam="1">  1       21 0.17660556E-01 0.40353780E+03</pdfrwt>
<pdfrwt beam="2">  1       21 0.49852421E-01 0.40353780E+03</pdfrwt>
<totfact> 0.10502971E+05</totfact>
</mgrwt>
</event>
<event>
 7    0  0.4766352E-002  0.4589294E+03  0.7546771E-02  0.1025092E+00
         21   -1    0    0  502  501  0.00000000000E+00  0.00000000000E+00  0.87614311116E+03  0.87614311116E+03  0.00000000000E+00 0. -1.
         21   -1    0    0  501  502 -0.00000000000E+00 -0.00000000000E+00 -0.60097534737E+02  0.60097534737E+02  0.00000000000E+00 0. -1.
      99926    2    1    2    0    0 -0.17763568394E-14  0.00000000000E+00  0.81604557643E+03  0.93624064590E+03  0.45892936736E+03 0.  0.
      99925    2    3    3    0    0 -0.20030979161E+01 -0.11068479581E+03  0.43819076462E+03  0.52311003299E+03  0.26339670458E+03 0.  0.
         25    1    4    4    0    0  0.22533554552E+02 -0.25286762477E+02  0.16533493430E+03  0.21007220197E+03  0.12509000000E+03 0.  0.
         25    1    4    4    0    0 -0.24536652468E+02 -0.85398033328E+02  0.27285583032E+03  0.31303783102E+03  0.12509000000E+03 0.  0.
         25    1    3    3    0    0  0.20030979161E+01  0.11068479581E+03  0.37785481180E+03  0.41313061291E+03  0.12509000000E+03 0.  0.
<mgrwt>
<rscale>  2 0.45892937E+03</rscale>
<asrwt>0</asrwt>
<pdfrwt beam="1">  1       21 0.12884457E+00 0.45892937E+03</pdfrwt>
<pdfrwt beam="2">  1       21 0.88378733E-02 0.45892937E+03</pdfrwt>
<totfact> 0.40445698E+04</totfact>
</mgrwt>
</event>
<event>
 7    0  0.4766352E-002  0.4321710E+03  0.7546771E-02  0.1033176E+00
         21   -1    0    0  502  501  0.00000000000E+00  0.00000000000E+00  0.16512665740E+03  0.16512665740E+03  0.00000000000E+00 0. -1.
         21   -1    0    0  501  502 -0.00000000000E+00 -0.00000000000E+00 -0.28277043307E+03  0.28277043307E+03  0.00000000000E+00 0. -1.
      99926    2    1    2    0    0  0.35527136788E-14  0.00000000000E+00 -0.11764377567E+03  0.44789709047E+03  0.43217096814E+03 0.  0.
      99925    2    3    3    0    0 -0.31175375833E+02 -0.66951659273E+02 -0.12909342911E+03  0.30218150654E+03  0.26304775368E+03 0.  0.
         25    1    4    4    0    0 -0.52719364680E+00 -0.61963094423E+02 -0.95021164193E+02  0.16886750057E+03  0.12509000000E+03 0.  0.
         25    1    3    3    0    0  0.31175375833E+02  0.66951659273E+02  0.11449653443E+02  0.14571558394E+03  0.12509000000E+03 0.  0.
         25    1    4    4    0    0 -0.30648182186E+02 -0.49885648504E+01 -0.34072264919E+02  0.13331400597E+03  0.12509000000E+03 0.  0.
<mgrwt>
<rscale>  2 0.43217097E+03</rscale>
<asrwt>0</asrwt>
<pdfrwt beam="1">  1       21 0.24283332E-01 0.43217097E+03</pdfrwt>
<pdfrwt beam="2">  1       21 0.41583887E-01 0.43217097E+03</pdfrwt>
<totfact> 0.83189714E+04</totfact>
</mgrwt>
</event>
<event>
 7    0  0.4766352E-002  0.4087286E+03  0.7546771E-02  0.1040799E+00
         21   -1    0    0  502  501  0.00000000000E+00  0.00000000000E+00  0.77145515388E+03  0.77145515388E+03  0.00000000000E+00 0.  1.
         21   -1    0    0  501  502 -0.00000000000E+00 -0.00000000000E+00 -0.54137640743E+02  0.54137640743E+02  0.00000000000E+00 0.  1.
      99926    2    1    2    0    0  0.00000000000E+00  0.35527136788E-14  0.71731751314E+03  0.82559279462E+03  0.40872857482E+03 0.  0.
      99925    2    3    3    0    0 -0.42999107260E+02  0.21224372457E+02  0.40020172464E+03  0.48134095567E+03  0.26311270966E+03 0.  0.
         25    1    4    4    0    0  0.13361325886E+02  0.19203693834E+02  0.15697783894E+03  0.20208131261E+03  0.12509000000E+03 0.  0.
         25    1    3    3    0    0  0.42999107260E+02 -0.21224372457E+02  0.31711578849E+03  0.34425183895E+03  0.12509000000E+03 0.  0.
         25    1    4    4    0    0 -0.56360433146E+02  0.20206786229E+01  0.24322388570E+03  0.27925964306E+03  0.12509000000E+03 0.  0.
<mgrwt>
<rscale>  2 0.40872857E+03</rscale>
<asrwt>0</asrwt>
<pdfrwt beam="1">  1       21 0.11344928E+00 0.40872857E+03</pdfrwt>
<pdfrwt beam="2">  1       21 0.79614182E-02 0.40872857E+03</pdfrwt>
<totfact> 0.68107668E+04</totfact>
</mgrwt>
</event>
<event>
 7    0  0.4766352E-002  0.4818365E+03  0.7546771E-02  0.1018632E+00
         21   -1    0    0  502  501  0.00000000000E+00  0.00000000000E+00  0.22737082955E+03  0.22737082955E+03  0.00000000000E+00 0.  1.
         21   -1    0    0  501  502 -0.00000000000E+00 -0.00000000000E+00 -0.25527287054E+03  0.25527287054E+03  0.00000000000E+00 0.  1.
      99926    2    1    2    0    0 -0.71054273576E-14  0.00000000000E+00 -0.27902040985E+02  0.48264370009E+03  0.48183650479E+03 0.  0.
      99925    2    3    3    0    0  0.56865214631E+02  0.11990425130E+03 -0.50312681764E+02  0.29890359278E+03  0.26306141814E+03 0.  0.
         25    1    3    3    0    0 -0.56865214631E+02 -0.11990425130E+03  0.22410640779E+02  0.18374010731E+03  0.12509000000E+03 0.  0.
         25    1    4    4    0    0  0.64618895360E+02  0.79195821530E+02 -0.13609352026E+02  0.16211200556E+03  0.12509000000E+03 0.  0.
         25    1    4    4    0    0 -0.77536807291E+01  0.40708429767E+02 -0.36703329738E+02  0.13679158721E+03  0.12509000000E+03 0.  0.
<mgrwt>
<rscale>  2 0.48183650E+03</rscale>
<asrwt>0</asrwt>
<pdfrwt beam="1">  1       21 0.33436887E-01 0.48183650E+03</pdfrwt>
<pdfrwt beam="2">  1       21 0.37540128E-01 0.48183650E+03</pdfrwt>
<totfact> 0.54035555E+04</totfact>
</mgrwt>
</event>
<event>
 7    0  0.4766352E-002  0.4153078E+03  0.7546771E-02  0.1038604E+00
         21   -1    0    0  502  501  0.00000000000E+00  0.00000000000E+00  0.71797163503E+03  0.71797163503E+03  0.00000000000E+00 0.  1.
         21   -1    0    0  501  502 -0.00000000000E+00 -0.00000000000E+00 -0.60058288481E+02  0.60058288481E+02  0.00000000000E+00 0.  1.
      99926    2    1    2    0    0  0.00000000000E+00  0.00000000000E+00  0.65791334655E+03  0.77802992352E+03  0.41530782597E+03 0.  0.
      99925    2    3    3    0    0  0.62094109561E+02  0.22185196214E+02  0.38792843756E+03  0.47325587514E+03  0.26293495264E+03 0.  0.
         25    1    4    4    0    0  0.50892616956E+02  0.41087240075E+01  0.26036482478E+03  0.29333307034E+03  0.12509000000E+03 0.  0.
         25    1    4    4    0    0  0.11201492605E+02  0.18076472207E+02  0.12756361278E+03  0.17992280480E+03  0.12509000000E+03 0.  0.
         25    1    3    3    0    0 -0.62094109561E+02 -0.22185196214E+02  0.26998490900E+03  0.30477404837E+03  0.12509000000E+03 0.  0.
<mgrwt>
<rscale>  2 0.41530783E+03</rscale>
<asrwt>0</asrwt>
<pdfrwt beam="1">  1       21 0.10558406E+00 0.41530783E+03</pdfrwt>
<pdfrwt beam="2">  1       21 0.88321017E-02 0.41530783E+03</pdfrwt>
<totfact> 0.67563580E+04</totfact>
</mgrwt>
</event>
<event>
 7    0  0.4766352E-002  0.4555552E+03  0.7546771E-02  0.1026078E+00
         21   -1    0    0  502  501  0.00000000000E+00  0.00000000000E+00  0.23567072563E+03  0.23567072563E+03  0.00000000000E+00 0. -1.
         21   -1    0    0  501  502 -0.00000000000E+00 -0.00000000000E+00 -0.22014879952E+03  0.22014879952E+03  0.00000000000E+00 0. -1.
      99926    2    1    2    0    0  0.00000000000E+00  0.00000000000E+00  0.15521926114E+02  0.45581952515E+03  0.45555516605E+03 0.  0.
      99925    2    3    3    0    0 -0.71562674737E+02 -0.36796796962E+02 -0.70590883474E+02  0.28395287696E+03  0.26300369356E+03 0.  0.
         25    1    4    4    0    0 -0.68551882888E+02 -0.16321359163E+02 -0.63429449186E+02  0.15696034702E+03  0.12509000000E+03 0.  0.
         25    1    3    3    0    0  0.71562674737E+02  0.36796796962E+02  0.86112809587E+02  0.17186664818E+03  0.12509000000E+03 0.  0.
         25    1    4    4    0    0 -0.30107918485E+01 -0.20475437799E+02 -0.71614342872E+01  0.12699252994E+03  0.12509000000E+03 0.  0.
<mgrwt>
<rscale>  2 0.45555517E+03</rscale>
<asrwt>0</asrwt>
<pdfrwt beam="1">  1       21 0.34657460E-01 0.45555517E+03</pdfrwt>
<pdfrwt beam="2">  1       21 0.32374824E-01 0.45555517E+03</pdfrwt>
<totfact> 0.68183283E+04</totfact>
</mgrwt>
</event>
<event>
 7    0  0.4766352E-002  0.4539606E+03  0.7546771E-02  0.1026548E+00
         21   -1    0    0  502  501  0.00000000000E+00  0.00000000000E+00  0.46139307701E+02  0.46139307701E+02  0.00000000000E+00 0.  1.
         21   -1    0    0  501  502 -0.00000000000E+00 -0.00000000000E+00 -0.11166194276E+04  0.11166194276E+04  0.00000000000E+00 0.  1.
      99926    2    1    2    0    0  0.62172489379E-14  0.00000000000E+00 -0.10704801199E+04  0.11627587353E+04  0.45396055933E+03 0.  0.
      99925    2    3    3    0    0 -0.75084625954E+01 -0.91996266237E+02 -0.83745857047E+03  0.88264047347E+03  0.26305447754E+03 0.  0.
         25    1    3    3    0    0  0.75084625954E+01  0.91996266237E+02 -0.23302154947E+03  0.28011826186E+03  0.12509000000E+03 0.  0.
         25    1    4    4    0    0 -0.42951982087E+02 -0.56823243254E+02 -0.44667675003E+03  0.46929881830E+03  0.12509000000E+03 0.  0.
         25    1    4    4    0    0  0.35443519492E+02 -0.35173022983E+02 -0.39078182044E+03  0.41334165518E+03  0.12509000000E+03 0.  0.
<mgrwt>
<rscale>  2 0.45396056E+03</rscale>
<asrwt>0</asrwt>
<pdfrwt beam="1">  1       21 0.67851921E-02 0.45396056E+03</pdfrwt>
<pdfrwt beam="2">  1       21 0.16420874E+00 0.45396056E+03</pdfrwt>
<totfact> 0.33630809E+04</totfact>
</mgrwt>
</event>
<event>
 7    0  0.4766352E-002  0.4553304E+03  0.7546771E-02  0.1026144E+00
         21   -1    0    0  502  501  0.00000000000E+00  0.00000000000E+00  0.22341087814E+03  0.22341087814E+03  0.00000000000E+00 0. -1.
         21   -1    0    0  501  502 -0.00000000000E+00 -0.00000000000E+00 -0.23200055008E+03  0.23200055008E+03  0.00000000000E+00 0. -1.
      99926    2    1    2    0    0  0.00000000000E+00  0.00000000000E+00 -0.85896719418E+01  0.45541142822E+03  0.45533041463E+03 0.  0.
      99925    2    3    3    0    0  0.88345224601E+01 -0.10602544030E+03 -0.45070035402E+02  0.28719202447E+03  0.26292300784E+03 0.  0.
         25    1    4    4    0    0 -0.17943578861E+02 -0.67813810328E+02  0.77228780088E+01  0.14362393895E+03  0.12509000000E+03 0.  0.
         25    1    4    4    0    0  0.26778101321E+02 -0.38211629973E+02 -0.52792913411E+02  0.14356808553E+03  0.12509000000E+03 0.  0.
         25    1    3    3    0    0 -0.88345224601E+01  0.10602544030E+03  0.36480363460E+02  0.16821940374E+03  0.12509000000E+03 0.  0.
<mgrwt>
<rscale>  2 0.45533041E+03</rscale>
<asrwt>0</asrwt>
<pdfrwt beam="1">  1       21 0.32854541E-01 0.45533041E+03</pdfrwt>
<pdfrwt beam="2">  1       21 0.34117728E-01 0.45533041E+03</pdfrwt>
<totfact> 0.68335330E+04</totfact>
</mgrwt>
</event>
<event>
 7    0  0.4766352E-002  0.4246230E+03  0.7546771E-02  0.1035572E+00
         21   -1    0    0  502  501  0.00000000000E+00  0.00000000000E+00  0.10852429117E+03  0.10852429117E+03  0.00000000000E+00 0.  1.
         21   -1    0    0  501  502 -0.00000000000E+00 -0.00000000000E+00 -0.41535555763E+03  0.41535555763E+03  0.00000000000E+00 0.  1.
      99926    2    1    2    0    0  0.00000000000E+00  0.00000000000E+00 -0.30683126646E+03  0.52387984880E+03  0.42462297382E+03 0.  0.
      99925    2    3    3    0    0  0.65120812063E+02 -0.31308739822E+02 -0.14985209194E+03  0.31054694771E+03  0.26222661939E+03 0.  0.
         25    1    4    4    0    0  0.61300764943E+01  0.46673200786E+01 -0.44449194457E+02  0.13297594031E+03  0.12509000000E+03 0.  0.
         25    1    3    3    0    0 -0.65120812063E+02  0.31308739822E+02 -0.15697917453E+03  0.21333290109E+03  0.12509000000E+03 0.  0.
         25    1    4    4    0    0  0.58990735569E+02 -0.35976059901E+02 -0.10540289748E+03  0.17757100739E+03  0.12509000000E+03 0.  0.
<mgrwt>
<rscale>  2 0.42462297E+03</rscale>
<asrwt>0</asrwt>
<pdfrwt beam="1">  1       21 0.15959455E-01 0.42462297E+03</pdfrwt>
<pdfrwt beam="2">  1       21 0.61081700E-01 0.42462297E+03</pdfrwt>
<totfact> 0.81536668E+04</totfact>
</mgrwt>
</event>
<event>
 7    0  0.4766352E-002  0.4341965E+03  0.7546771E-02  0.1032542E+00
         21   -1    0    0  502  501  0.00000000000E+00  0.00000000000E+00  0.17580074985E+03  0.17580074985E+03  0.00000000000E+00 0. -1.
         21   -1    0    0  501  502 -0.00000000000E+00 -0.00000000000E+00 -0.26809693945E+03  0.26809693945E+03  0.00000000000E+00 0. -1.
      99926    2    1    2    0    0  0.17763568394E-14  0.00000000000E+00 -0.92296189606E+02  0.44389768930E+03  0.43419646699E+03 0.  0.
      99925    2    3    3    0    0 -0.14128654164E+02 -0.71061983154E+02 -0.11774311847E+03  0.29711731388E+03  0.26299397701E+03 0.  0.
         25    1    4    4    0    0  0.22731618822E+02 -0.12412760652E+02 -0.37415435680E+02  0.13310982702E+03  0.12509000000E+03 0.  0.
         25    1    4    4    0    0 -0.36860272987E+02 -0.58649222502E+02 -0.80327682794E+02  0.16400748687E+03  0.12509000000E+03 0.  0.
         25    1    3    3    0    0  0.14128654164E+02  0.71061983154E+02  0.25446928869E+02  0.14678037542E+03  0.12509000000E+03 0.  0.
<mgrwt>
<rscale>  2 0.43419647E+03</rscale>
<asrwt>0</asrwt>
<pdfrwt beam="1">  1       21 0.25853052E-01 0.43419647E+03</pdfrwt>
<pdfrwt beam="2">  1       21 0.39426020E-01 0.43419647E+03</pdfrwt>
<totfact> 0.82171692E+04</totfact>
</mgrwt>
</event>
<event>
 7    0  0.4766352E-002  0.4453699E+03  0.7546771E-02  0.1029112E+00
         21   -1    0    0  502  501  0.00000000000E+00  0.00000000000E+00  0.21066372104E+04  0.21066372104E+04  0.00000000000E+00 0. -1.
         21   -1    0    0  501  502 -0.00000000000E+00 -0.00000000000E+00 -0.23539212428E+02  0.23539212428E+02  0.00000000000E+00 0. -1.
      99926    2    1    2    0    0  0.00000000000E+00 -0.14210854715E-13  0.20830979979E+04  0.21301764228E+04  0.44536987237E+03 0.  0.
      99925    2    3    3    0    0 -0.23050807280E+02  0.88301601445E+02  0.15592300526E+04  0.15839039223E+04  0.26310599697E+03 0.  0.
         25    1    4    4    0    0 -0.43645022044E+02  0.64463190812E+02  0.73250774346E+03  0.74717835438E+03  0.12509000000E+03 0.  0.
         25    1    3    3    0    0  0.23050807280E+02 -0.88301601445E+02  0.52386794534E+03  0.54627250049E+03  0.12509000000E+03 0.  0.
         25    1    4    4    0    0  0.20594214765E+02  0.23838410632E+02  0.82672230914E+03  0.83672556793E+03  0.12509000000E+03 0.  0.
<mgrwt>
<rscale>  2 0.44536987E+03</rscale>
<asrwt>0</asrwt>
<pdfrwt beam="1">  1       21 0.30979946E+00 0.44536987E+03</pdfrwt>
<pdfrwt beam="2">  1       21 0.34616503E-02 0.44536987E+03</pdfrwt>
<totfact> 0.12615917E+04</totfact>
</mgrwt>
</event>
<event>
 7    0  0.4766352E-002  0.4609432E+03  0.7546771E-02  0.1024508E+00
         21   -1    0    0  502  501  0.00000000000E+00  0.00000000000E+00  0.10414965699E+04  0.10414965699E+04  0.00000000000E+00 0.  1.
         21   -1    0    0  501  502 -0.00000000000E+00 -0.00000000000E+00 -0.51000792117E+02  0.51000792117E+02  0.00000000000E+00 0.  1.
      99926    2    1    2    0    0  0.00000000000E+00  0.17763568394E-14  0.99049577778E+03  0.10924973620E+04  0.46094316375E+03 0.  0.
      99925    2    3    3    0    0 -0.87902413378E+02  0.12749065928E+02  0.43375411912E+03  0.51500437024E+03  0.26305416278E+03 0.  0.
         25    1    4    4    0    0 -0.84733558904E+02  0.17172874817E+02  0.25117612889E+03  0.29361818652E+03  0.12509000000E+03 0.  0.
         25    1    3    3    0    0  0.87902413378E+02 -0.12749065928E+02  0.55674165865E+03  0.57749299177E+03  0.12509000000E+03 0.  0.
         25    1    4    4    0    0 -0.31688544739E+01 -0.44238088884E+01  0.18257799023E+03  0.22138618372E+03  0.12509000000E+03 0.  0.
<mgrwt>
<rscale>  2 0.46094316E+03</rscale>
<asrwt>0</asrwt>
<pdfrwt beam="1">  1       21 0.15316125E+00 0.46094316E+03</pdfrwt>
<pdfrwt beam="2">  1       21 0.75001171E-02 0.46094316E+03</pdfrwt>
<totfact> 0.34144637E+04</totfact>
</mgrwt>
</event>
<event>
 7    0  0.4766352E-002  0.4515158E+03  0.7546771E-02  0.1027271E+00
         21   -1    0    0  502  501  0.00000000000E+00  0.00000000000E+00  0.23698416281E+02  0.23698416281E+02  0.00000000000E+00 0. -1.
         21   -1    0    0  501  502 -0.00000000000E+00 -0.00000000000E+00 -0.21506348027E+04  0.21506348027E+04  0.00000000000E+00 0. -1.
      99926    2    1    2    0    0  0.00000000000E+00  0.00000000000E+00 -0.21269363864E+04  0.21743332190E+04  0.45151584168E+03 0.  0.
      99925    2    3    3    0    0  0.72452147610E+02  0.45831295500E+02 -0.10124335509E+04  0.10495603976E+04  0.26306940488E+03 0.  0.
         25    1    4    4    0    0  0.35962135257E+00  0.28700206708E+01 -0.50249013005E+03  0.51783414839E+03  0.12509000000E+03 0.  0.
         25    1    3    3    0    0 -0.72452147610E+02 -0.45831295500E+02 -0.11145028355E+04  0.11247728214E+04  0.12509000000E+03 0.  0.
         25    1    4    4    0    0  0.72092526258E+02  0.42961274829E+02 -0.50994342086E+03  0.53172624917E+03  0.12509000000E+03 0.  0.
<mgrwt>
<rscale>  2 0.45151584E+03</rscale>
<asrwt>0</asrwt>
<pdfrwt beam="1">  1       21 0.34850586E-02 0.45151584E+03</pdfrwt>
<pdfrwt beam="2">  1       21 0.31627006E+00 0.45151584E+03</pdfrwt>
<totfact> 0.11371264E+04</totfact>
</mgrwt>
</event>
<event>
 7    0  0.4766352E-002  0.4655904E+03  0.7546771E-02  0.1023172E+00
         21   -1    0    0  502  501  0.00000000000E+00  0.00000000000E+00  0.20825721731E+03  0.20825721731E+03  0.00000000000E+00 0.  1.
         21   -1    0    0  501  502 -0.00000000000E+00 -0.00000000000E+00 -0.26022433182E+03  0.26022433182E+03  0.00000000000E+00 0.  1.
      99926    2    1    2    0    0  0.00000000000E+00  0.00000000000E+00 -0.51967114513E+02  0.46848154914E+03  0.46559035738E+03 0.  0.
      99925    2    3    3    0    0  0.67011486979E+02  0.92587829436E+02 -0.77720123003E+02  0.29709376925E+03  0.26298525560E+03 0.  0.
         25    1    4    4    0    0  0.42493007174E+02  0.88688034078E+02 -0.39254544094E+02  0.16388914052E+03  0.12509000000E+03 0.  0.
         25    1    3    3    0    0 -0.67011486979E+02 -0.92587829436E+02  0.25753008490E+02  0.17138777988E+03  0.12509000000E+03 0.  0.
         25    1    4    4    0    0  0.24518479805E+02  0.38997953573E+01 -0.38465578909E+02  0.13320462874E+03  0.12509000000E+03 0.  0.
<mgrwt>
<rscale>  2 0.46559036E+03</rscale>
<asrwt>0</asrwt>
<pdfrwt beam="1">  1       21 0.30626061E-01 0.46559036E+03</pdfrwt>
<pdfrwt beam="2">  1       21 0.38268284E-01 0.46559036E+03</pdfrwt>
<totfact> 0.62149470E+04</totfact>
</mgrwt>
</event>
<event>
 7    0  0.4766352E-002  0.4572742E+03  0.7546771E-02  0.1025575E+00
         21   -1    0    0  502  501  0.00000000000E+00  0.00000000000E+00  0.32562086028E+03  0.32562086028E+03  0.00000000000E+00 0.  1.
         21   -1    0    0  501  502 -0.00000000000E+00 -0.00000000000E+00 -0.16053924668E+03  0.16053924668E+03  0.00000000000E+00 0.  1.
      99926    2    1    2    0    0 -0.17763568394E-14  0.71054273576E-14  0.16508161360E+03  0.48616010696E+03  0.45727421800E+03 0.  0.
      99925    2    3    3    0    0 -0.91234350781E+01 -0.58336189941E+02  0.20850077930E+03  0.34118052158E+03  0.26352461975E+03 0.  0.
         25    1    4    4    0    0  0.28278812679E+02 -0.46214128558E+02  0.82555890269E+02  0.15936881766E+03  0.12509000000E+03 0.  0.
         25    1    3    3    0    0  0.91234350781E+01  0.58336189941E+02 -0.43419165698E+02  0.14497958537E+03  0.12509000000E+03 0.  0.
         25    1    4    4    0    0 -0.37402247758E+02 -0.12122061383E+02  0.12594488903E+03  0.18181170392E+03  0.12509000000E+03 0.  0.
<mgrwt>
<rscale>  2 0.45727422E+03</rscale>
<asrwt>0</asrwt>
<pdfrwt beam="1">  1       21 0.47885421E-01 0.45727422E+03</pdfrwt>
<pdfrwt beam="2">  1       21 0.23608713E-01 0.45727422E+03</pdfrwt>
<totfact> 0.65071624E+04</totfact>
</mgrwt>
</event>
<event>
 7    0  0.4766352E-002  0.4564112E+03  0.7546771E-02  0.1025827E+00
         21   -1    0    0  502  501  0.00000000000E+00  0.00000000000E+00  0.36126372977E+02  0.36126372977E+02  0.00000000000E+00 0.  1.
         21   -1    0    0  501  502 -0.00000000000E+00 -0.00000000000E+00 -0.14415449666E+04  0.14415449666E+04  0.00000000000E+00 0.  1.
      99926    2    1    2    0    0 -0.71054273576E-14  0.14210854715E-13 -0.14054185936E+04  0.14776713396E+04  0.45641117920E+03 0.  0.
      99925    2    3    3    0    0 -0.54920803368E+02  0.89314503870E+02 -0.73434895855E+03  0.78703732763E+03  0.26299427163E+03 0.  0.
         25    1    4    4    0    0 -0.15531148515E+02  0.29066189308E+02 -0.24776771257E+03  0.27950385942E+03  0.12509000000E+03 0.  0.
         25    1    4    4    0    0 -0.39389654853E+02  0.60248314562E+02 -0.48658124598E+03  0.50753346821E+03  0.12509000000E+03 0.  0.
         25    1    3    3    0    0  0.54920803368E+02 -0.89314503870E+02 -0.67106963506E+03  0.69063401193E+03  0.12509000000E+03 0.  0.
<mgrwt>
<rscale>  2 0.45641118E+03</rscale>
<asrwt>0</asrwt>
<pdfrwt beam="1">  1       21 0.53127028E-02 0.45641118E+03</pdfrwt>
<pdfrwt beam="2">  1       21 0.21199187E+00 0.45641118E+03</pdfrwt>
<totfact> 0.24066810E+04</totfact>
</mgrwt>
</event>
<event>
 7    0  0.4766352E-002  0.4535387E+03  0.7546771E-02  0.1026672E+00
         21   -1    0    0  502  501  0.00000000000E+00  0.00000000000E+00  0.89828488858E+02  0.89828488858E+02  0.00000000000E+00 0.  1.
         21   -1    0    0  501  502 -0.00000000000E+00 -0.00000000000E+00 -0.57247246799E+03  0.57247246799E+03  0.00000000000E+00 0.  1.
      99926    2    1    2    0    0  0.00000000000E+00 -0.17763568394E-14 -0.48264397913E+03  0.66230095685E+03  0.45353869388E+03 0.  0.
      99925    2    3    3    0    0 -0.91853687540E+02  0.73605747794E+01 -0.21123472499E+03  0.34956821262E+03  0.26284320090E+03 0.  0.
         25    1    4    4    0    0 -0.76979744626E+02 -0.94600726119E+01 -0.82763272690E+02  0.16885686679E+03  0.12509000000E+03 0.  0.
         25    1    3    3    0    0  0.91853687540E+02 -0.73605747794E+01 -0.27140925414E+03  0.31273274422E+03  0.12509000000E+03 0.  0.
         25    1    4    4    0    0 -0.14873942914E+02  0.16820647391E+02 -0.12847145230E+03  0.18071134583E+03  0.12509000000E+03 0.  0.
<mgrwt>
<rscale>  2 0.45353869E+03</rscale>
<asrwt>0</asrwt>
<pdfrwt beam="1">  1       21 0.13210072E-01 0.45353869E+03</pdfrwt>
<pdfrwt beam="2">  1       21 0.84187127E-01 0.45353869E+03</pdfrwt>
<totfact> 0.55635949E+04</totfact>
</mgrwt>
</event>
<event>
 7    0  0.4766352E-002  0.4537719E+03  0.7546771E-02  0.1026603E+00
         21   -1    0    0  502  501  0.00000000000E+00  0.00000000000E+00  0.24986051786E+03  0.24986051786E+03  0.00000000000E+00 0. -1.
         21   -1    0    0  501  502 -0.00000000000E+00 -0.00000000000E+00 -0.20602387143E+03  0.20602387143E+03  0.00000000000E+00 0. -1.
      99926    2    1    2    0    0  0.00000000000E+00  0.00000000000E+00  0.43836646435E+02  0.45588438929E+03  0.45377188633E+03 0.  0.
      99925    2    3    3    0    0 -0.23080269838E+02 -0.10510045822E+03 -0.11386768283E+01  0.28486072725E+03  0.26375278609E+03 0.  0.
         25    1    4    4    0    0  0.30010264606E+01 -0.88271136182E+02 -0.20629403096E+02  0.15451174717E+03  0.12509000000E+03 0.  0.
         25    1    3    3    0    0  0.23080269838E+02  0.10510045822E+03  0.44975323263E+02  0.17102366204E+03  0.12509000000E+03 0.  0.
         25    1    4    4    0    0 -0.26081296299E+02 -0.16829322039E+02  0.19490726268E+02  0.13034898008E+03  0.12509000000E+03 0.  0.
<mgrwt>
<rscale>  2 0.45377189E+03</rscale>
<asrwt>0</asrwt>
<pdfrwt beam="1">  1       21 0.36744194E-01 0.45377189E+03</pdfrwt>
<pdfrwt beam="2">  1       21 0.30297628E-01 0.45377189E+03</pdfrwt>
<totfact> 0.69156208E+04</totfact>
</mgrwt>
</event>
<event>
 7    0  0.4766352E-002  0.4574848E+03  0.7546771E-02  0.1025513E+00
         21   -1    0    0  502  501  0.00000000000E+00  0.00000000000E+00  0.61855372313E+03  0.61855372313E+03  0.00000000000E+00 0.  1.
         21   -1    0    0  501  502 -0.00000000000E+00 -0.00000000000E+00 -0.84589383258E+02  0.84589383258E+02  0.00000000000E+00 0.  1.
      99926    2    1    2    0    0  0.00000000000E+00  0.00000000000E+00  0.53396433987E+03  0.70314310639E+03  0.45748476675E+03 0.  0.
      99925    2    3    3    0    0 -0.89055031702E+02 -0.73076402301E+02  0.34340282777E+03  0.44773723872E+03  0.26319607438E+03 0.  0.
         25    1    4    4    0    0 -0.14931331957E+02 -0.29871669223E+02  0.20463126474E+03  0.24215020939E+03  0.12509000000E+03 0.  0.
         25    1    3    3    0    0  0.89055031702E+02  0.73076402301E+02  0.19056151210E+03  0.25540586767E+03  0.12509000000E+03 0.  0.
         25    1    4    4    0    0 -0.74123699745E+02 -0.43204733078E+02  0.13877156303E+03  0.20558702933E+03  0.12509000000E+03 0.  0.
<mgrwt>
<rscale>  2 0.45748477E+03</rscale>
<asrwt>0</asrwt>
<pdfrwt beam="1">  1       21 0.90963780E-01 0.45748477E+03</pdfrwt>
<pdfrwt beam="2">  1       21 0.12439616E-01 0.45748477E+03</pdfrwt>
<totfact> 0.51714025E+04</totfact>
</mgrwt>
</event>
<event>
 7    0  0.4766352E-002  0.4302329E+03  0.7546771E-02  0.1033786E+00
         21   -1    0    0  502  501  0.00000000000E+00  0.00000000000E+00  0.20193825870E+03  0.20193825870E+03  0.00000000000E+00 0. -1.
         21   -1    0    0  501  502 -0.00000000000E+00 -0.00000000000E+00 -0.22915468059E+03  0.22915468059E+03  0.00000000000E+00 0. -1.
      99926    2    1    2    0    0  0.00000000000E+00  0.00000000000E+00 -0.27216421889E+02  0.43109293929E+03  0.43023294700E+03 0.  0.
      99925    2    3    3    0    0 -0.15709781961E+02  0.40550918883E+02  0.59087070183E+02  0.27302024995E+03  0.26297832752E+03 0.  0.
         25    1    3    3    0    0  0.15709781961E+02 -0.40550918883E+02 -0.86303492072E+02  0.15807268934E+03  0.12509000000E+03 0.  0.
         25    1    4    4    0    0 -0.13734778938E+02  0.18709236971E+01 -0.75686705195E+01  0.12608305747E+03  0.12509000000E+03 0.  0.
         25    1    4    4    0    0 -0.19750030230E+01  0.38679995185E+02  0.66655740703E+02  0.14693719248E+03  0.12509000000E+03 0.  0.
<mgrwt>
<rscale>  2 0.43023295E+03</rscale>
<asrwt>0</asrwt>
<pdfrwt beam="1">  1       21 0.29696803E-01 0.43023295E+03</pdfrwt>
<pdfrwt beam="2">  1       21 0.33699218E-01 0.43023295E+03</pdfrwt>
<totfact> 0.86138350E+04</totfact>
</mgrwt>
</event>
<event>
 7    0  0.4766352E-002  0.4707469E+03  0.7546771E-02  0.1021710E+00
         21   -1    0    0  502  501  0.00000000000E+00  0.00000000000E+00  0.41668944919E+03  0.41668944919E+03  0.00000000000E+00 0.  1.
         21   -1    0    0  501  502 -0.00000000000E+00 -0.00000000000E+00 -0.13295431130E+03  0.13295431130E+03  0.00000000000E+00 0.  1.
      99926    2    1    2    0    0 -0.71054273576E-14  0.00000000000E+00  0.28373513789E+03  0.54964376049E+03  0.47074689055E+03 0.  0.
      99925    2    3    3    0    0  0.59472531522E+02  0.78250501063E+02  0.81492135638E+02  0.29233098781E+03  0.26297588357E+03 0.  0.
         25    1    3    3    0    0 -0.59472531522E+02 -0.78250501063E+02  0.20224300225E+03  0.25731277268E+03  0.12509000000E+03 0.  0.
         25    1    4    4    0    0 -0.64401479937E+01  0.27895560917E+02  0.56333797350E+02  0.14014507715E+03  0.12509000000E+03 0.  0.
         25    1    4    4    0    0  0.65912679516E+02  0.50354940146E+02  0.25158338288E+02  0.15218591066E+03  0.12509000000E+03 0.  0.
<mgrwt>
<rscale>  2 0.47074689E+03</rscale>
<asrwt>0</asrwt>
<pdfrwt beam="1">  1       21 0.61277860E-01 0.47074689E+03</pdfrwt>
<pdfrwt beam="2">  1       21 0.19552105E-01 0.47074689E+03</pdfrwt>
<totfact> 0.54740037E+04</totfact>
</mgrwt>
</event>
<event>
 7    0  0.4766352E-002  0.4526610E+03  0.7546771E-02  0.1026931E+00
         21   -1    0    0  502  501  0.00000000000E+00  0.00000000000E+00  0.15040505917E+03  0.15040505917E+03  0.00000000000E+00 0. -1.
         21   -1    0    0  501  502 -0.00000000000E+00 -0.00000000000E+00 -0.34058364751E+03  0.34058364751E+03  0.00000000000E+00 0. -1.
      99926    2    1    2    0    0  0.00000000000E+00  0.00000000000E+00 -0.19017858834E+03  0.49098870667E+03  0.45266103722E+03 0.  0.
      99925    2    3    3    0    0  0.26901904698E+02  0.76511082132E+02 -0.20205895401E+03  0.34143500611E+03  0.26300643402E+03 0.  0.
         25    1    4    4    0    0  0.42971733180E+02  0.19150364271E+02 -0.73977039055E+02  0.15275279608E+03  0.12509000000E+03 0.  0.
         25    1    4    4    0    0 -0.16069828481E+02  0.57360717861E+02 -0.12808191495E+03  0.18868221002E+03  0.12509000000E+03 0.  0.
         25    1    3    3    0    0 -0.26901904698E+02 -0.76511082132E+02  0.11880365667E+02  0.14955370057E+03  0.12509000000E+03 0.  0.
<mgrwt>
<rscale>  2 0.45266104E+03</rscale>
<asrwt>0</asrwt>
<pdfrwt beam="1">  1       21 0.22118391E-01 0.45266104E+03</pdfrwt>
<pdfrwt beam="2">  1       21 0.50085830E-01 0.45266104E+03</pdfrwt>
<totfact> 0.67146641E+04</totfact>
</mgrwt>
</event>
<event>
 7    0  0.4766352E-002  0.4587889E+03  0.7546771E-02  0.1025133E+00
         21   -1    0    0  502  501  0.00000000000E+00  0.00000000000E+00  0.55438900683E+03  0.55438900683E+03  0.00000000000E+00 0. -1.
         21   -1    0    0  501  502 -0.00000000000E+00 -0.00000000000E+00 -0.94918581004E+02  0.94918581004E+02  0.00000000000E+00 0. -1.
      99926    2    1    2    0    0  0.00000000000E+00  0.00000000000E+00  0.45947042583E+03  0.64930758783E+03  0.45878891814E+03 0.  0.
      99925    2    3    3    0    0 -0.75329733800E+02 -0.25572086210E+02  0.40892746841E+03  0.49268511489E+03  0.26303697007E+03 0.  0.
         25    1    3    3    0    0  0.75329733800E+02  0.25572086210E+02  0.50542957414E+02  0.15662247295E+03  0.12509000000E+03 0.  0.
         25    1    4    4    0    0 -0.77762228065E+02 -0.11649966654E+02  0.24327101423E+03  0.28462427919E+03  0.12509000000E+03 0.  0.
         25    1    4    4    0    0  0.24324942646E+01 -0.13922119556E+02  0.16565645418E+03  0.20806083570E+03  0.12509000000E+03 0.  0.
<mgrwt>
<rscale>  2 0.45878892E+03</rscale>
<asrwt>0</asrwt>
<pdfrwt beam="1">  1       21 0.81527793E-01 0.45878892E+03</pdfrwt>
<pdfrwt beam="2">  1       21 0.13958615E-01 0.45878892E+03</pdfrwt>
<totfact> 0.54105822E+04</totfact>
</mgrwt>
</event>
<event>
 6    0  0.4766352E-002  0.4428513E+03  0.7546771E-02  0.1029876E+00
         21   -1    0    0  502  501  0.00000000000E+00  0.00000000000E+00  0.12699281121E+03  0.12699281121E+03  0.00000000000E+00 0.  1.
         21   -1    0    0  501  502 -0.00000000000E+00 -0.00000000000E+00 -0.38607946386E+03  0.38607946386E+03  0.00000000000E+00 0.  1.
      99926    2    1    2    0    0 -0.17763568394E-14  0.00000000000E+00 -0.25908665265E+03  0.51307227506E+03  0.44285129090E+03 0.  0.
         25    1    3    3    0    0  0.36092706093E+02 -0.21608814955E+02 -0.44033345413E+02  0.13912608643E+03  0.12509000000E+03 0.  0.
         25    1    3    3    0    0  0.11660435944E+02  0.76399599579E+02 -0.16464273238E+03  0.22074329437E+03  0.12509000000E+03 0.  0.
         25    1    3    3    0    0 -0.47753142037E+02 -0.54790784624E+02 -0.50410574861E+02  0.15320289427E+03  0.12509000000E+03 0.  0.
<mgrwt>
<rscale>  2 0.44285129E+03</rscale>
<asrwt>0</asrwt>
<pdfrwt beam="1">  1       21 0.18675414E-01 0.44285129E+03</pdfrwt>
<pdfrwt beam="2">  1       21 0.56776391E-01 0.44285129E+03</pdfrwt>
<totfact> 0.70957848E+04</totfact>
</mgrwt>
</event>
<event>
 7    0  0.4766352E-002  0.4563853E+03  0.7546771E-02  0.1025835E+00
         21   -1    0    0  502  501  0.00000000000E+00  0.00000000000E+00  0.11257461005E+03  0.11257461005E+03  0.00000000000E+00 0. -1.
         21   -1    0    0  501  502 -0.00000000000E+00 -0.00000000000E+00 -0.46255433853E+03  0.46255433853E+03  0.00000000000E+00 0. -1.
      99926    2    1    2    0    0  0.88817841970E-15 -0.14210854715E-13 -0.34997972848E+03  0.57512894858E+03  0.45638525080E+03 0.  0.
      99925    2    3    3    0    0 -0.54625019587E+01 -0.81991126701E+02 -0.32042988281E+03  0.42257376098E+03  0.26294655328E+03 0.  0.
         25    1    3    3    0    0  0.54625019587E+01  0.81991126701E+02 -0.29549845666E+02  0.15255518760E+03  0.12509000000E+03 0.  0.
         25    1    4    4    0    0  0.19866429107E+02 -0.37972744461E+02 -0.20997590358E+03  0.24814107381E+03  0.12509000000E+03 0.  0.
         25    1    4    4    0    0 -0.25328931066E+02 -0.44018382240E+02 -0.11045397923E+03  0.17443268716E+03  0.12509000000E+03 0.  0.
<mgrwt>
<rscale>  2 0.45638525E+03</rscale>
<asrwt>0</asrwt>
<pdfrwt beam="1">  1       21 0.16555090E-01 0.45638525E+03</pdfrwt>
<pdfrwt beam="2">  1       21 0.68022696E-01 0.45638525E+03</pdfrwt>
<totfact> 0.59580606E+04</totfact>
</mgrwt>
</event>
<event>
 7    0  0.4766352E-002  0.4557628E+03  0.7546771E-02  0.1026017E+00
         21   -1    0    0  502  501  0.00000000000E+00  0.00000000000E+00  0.54477563052E+02  0.54477563052E+02  0.00000000000E+00 0.  1.
         21   -1    0    0  501  502 -0.00000000000E+00 -0.00000000000E+00 -0.95323540307E+03  0.95323540307E+03  0.00000000000E+00 0.  1.
      99926    2    1    2    0    0  0.00000000000E+00  0.00000000000E+00 -0.89875784002E+03  0.10077129661E+04  0.45576284085E+03 0.  0.
      99925    2    3    3    0    0 -0.70365116295E+02 -0.12495434901E+02 -0.36936382235E+03  0.45906652302E+03  0.26306853444E+03 0.  0.
         25    1    4    4    0    0 -0.68319900431E+02 -0.38381040285E+00 -0.23680911882E+03  0.27639432513E+03  0.12509000000E+03 0.  0.
         25    1    4    4    0    0 -0.20452158637E+01 -0.12111624499E+02 -0.13255470353E+03  0.18267219790E+03  0.12509000000E+03 0.  0.
         25    1    3    3    0    0  0.70365116295E+02  0.12495434901E+02 -0.52939401767E+03  0.54864644310E+03  0.12509000000E+03 0.  0.
<mgrwt>
<rscale>  2 0.45576284E+03</rscale>
<asrwt>0</asrwt>
<pdfrwt beam="1">  1       21 0.80114068E-02 0.45576284E+03</pdfrwt>
<pdfrwt beam="2">  1       21 0.14018167E+00 0.45576284E+03</pdfrwt>
<totfact> 0.38637446E+04</totfact>
</mgrwt>
</event>
<event>
 7    0  0.4766352E-002  0.4497768E+03  0.7546771E-02  0.1027789E+00
         21   -1    0    0  502  501  0.00000000000E+00  0.00000000000E+00  0.30470918235E+02  0.30470918235E+02  0.00000000000E+00 0. -1.
         21   -1    0    0  501  502 -0.00000000000E+00 -0.00000000000E+00 -0.16597727010E+04  0.16597727010E+04  0.00000000000E+00 0. -1.
      99926    2    1    2    0    0  0.00000000000E+00  0.00000000000E+00 -0.16293017828E+04  0.16902436193E+04  0.44977682582E+03 0.  0.
      99925    2    3    3    0    0  0.34660306111E+02 -0.93908396072E+02 -0.87451320516E+03  0.91863916833E+03  0.26287725638E+03 0.  0.
         25    1    3    3    0    0 -0.34660306111E+02  0.93908396072E+02 -0.75478857765E+03  0.77160445095E+03  0.12509000000E+03 0.  0.
         25    1    4    4    0    0  0.20907954278E+01 -0.85938769242E+02 -0.46933873743E+03  0.49327092154E+03  0.12509000000E+03 0.  0.
         25    1    4    4    0    0  0.32569510683E+02 -0.79696268305E+01 -0.40517446772E+03  0.42536824678E+03  0.12509000000E+03 0.  0.
<mgrwt>
<rscale>  2 0.44977683E+03</rscale>
<asrwt>0</asrwt>
<pdfrwt beam="1">  1       21 0.44810189E-02 0.44977683E+03</pdfrwt>
<pdfrwt beam="2">  1       21 0.24408414E+00 0.44977683E+03</pdfrwt>
<totfact> 0.20275202E+04</totfact>
</mgrwt>
</event>
<event>
 7    0  0.4766352E-002  0.4507454E+03  0.7546771E-02  0.1027500E+00
         21   -1    0    0  502  501  0.00000000000E+00  0.00000000000E+00  0.13793962649E+03  0.13793962649E+03  0.00000000000E+00 0.  1.
         21   -1    0    0  501  502 -0.00000000000E+00 -0.00000000000E+00 -0.36822522903E+03  0.36822522903E+03  0.00000000000E+00 0.  1.
      99926    2    1    2    0    0 -0.71054273576E-14 -0.71054273576E-14 -0.23028560254E+03  0.50616485552E+03  0.45074538513E+03 0.  0.
      99925    2    3    3    0    0 -0.33823662649E+02 -0.34545546341E+02 -0.25534716511E+03  0.36973529514E+03  0.26299159457E+03 0.  0.
         25    1    4    4    0    0  0.24707147597E+01 -0.27660835749E+02 -0.79494600103E+02  0.15079166360E+03  0.12509000000E+03 0.  0.
         25    1    3    3    0    0  0.33823662649E+02  0.34545546341E+02  0.25061562564E+02  0.13642956038E+03  0.12509000000E+03 0.  0.
         25    1    4    4    0    0 -0.36294377409E+02 -0.68847105914E+01 -0.17585256501E+03  0.21894363154E+03  0.12509000000E+03 0.  0.
<mgrwt>
<rscale>  2 0.45074539E+03</rscale>
<asrwt>0</asrwt>
<pdfrwt beam="1">  1       21 0.20285240E-01 0.45074539E+03</pdfrwt>
<pdfrwt beam="2">  1       21 0.54150767E-01 0.45074539E+03</pdfrwt>
<totfact> 0.67076210E+04</totfact>
</mgrwt>
</event>
<event>
 7    0  0.4766352E-002  0.4650200E+03  0.7546771E-02  0.1023335E+00
         21   -1    0    0  502  501  0.00000000000E+00  0.00000000000E+00  0.36013361091E+03  0.36013361091E+03  0.00000000000E+00 0. -1.
         21   -1    0    0  501  502 -0.00000000000E+00 -0.00000000000E+00 -0.15011343693E+03  0.15011343693E+03  0.00000000000E+00 0. -1.
      99926    2    1    2    0    0  0.14210854715E-13  0.00000000000E+00  0.21002017399E+03  0.51024704784E+03  0.46501997414E+03 0.  0.
      99925    2    3    3    0    0 -0.10326596895E+03 -0.49717583533E+02  0.17786104125E+03  0.33756984502E+03  0.26302690321E+03 0.  0.
         25    1    3    3    0    0  0.10326596895E+03  0.49717583533E+02  0.32159132740E+02  0.17267720282E+03  0.12509000000E+03 0.  0.
         25    1    4    4    0    0 -0.36409980368E+02 -0.21721699465E+02  0.12989031678E+03  0.18524718997E+03  0.12509000000E+03 0.  0.
         25    1    4    4    0    0 -0.66855988587E+02 -0.27995884068E+02  0.47970724469E+02  0.15232265505E+03  0.12509000000E+03 0.  0.
<mgrwt>
<rscale>  2 0.46501997E+03</rscale>
<asrwt>0</asrwt>
<pdfrwt beam="1">  1       21 0.52960825E-01 0.46501997E+03</pdfrwt>
<pdfrwt beam="2">  1       21 0.22075506E-01 0.46501997E+03</pdfrwt>
<totfact> 0.59668003E+04</totfact>
</mgrwt>
</event>
<event>
 7    0  0.4766352E-002  0.4438084E+03  0.7546771E-02  0.1029585E+00
         21   -1    0    0  502  501  0.00000000000E+00  0.00000000000E+00  0.25007581657E+03  0.25007581657E+03  0.00000000000E+00 0. -1.
         21   -1    0    0  501  502 -0.00000000000E+00 -0.00000000000E+00 -0.19690613841E+03  0.19690613841E+03  0.00000000000E+00 0. -1.
      99926    2    1    2    0    0  0.00000000000E+00  0.44408920985E-15  0.53169678157E+02  0.44698195498E+03  0.44380835211E+03 0.  0.
      99925    2    3    3    0    0 -0.10086427790E+03 -0.17874102590E+01  0.16553380398E+02  0.28216369521E+03  0.26299342026E+03 0.  0.
         25    1    4    4    0    0 -0.85052480421E+02 -0.10380240554E+02 -0.13624372683E+02  0.15223273449E+03  0.12509000000E+03 0.  0.
         25    1    3    3    0    0  0.10086427790E+03  0.17874102590E+01  0.36616297759E+02  0.16481825977E+03  0.12509000000E+03 0.  0.
         25    1    4    4    0    0 -0.15811797482E+02  0.85928302948E+01  0.30177753081E+02  0.12993096072E+03  0.12509000000E+03 0.  0.
<mgrwt>
<rscale>  2 0.44380835E+03</rscale>
<asrwt>0</asrwt>
<pdfrwt beam="1">  1       21 0.36775855E-01 0.44380835E+03</pdfrwt>
<pdfrwt beam="2">  1       21 0.28956785E-01 0.44380835E+03</pdfrwt>
<totfact> 0.75671518E+04</totfact>
</mgrwt>
</event>
<event>
 7    0  0.4766352E-002  0.4467243E+03  0.7546771E-02  0.1028703E+00
         21   -1    0    0  502  501  0.00000000000E+00  0.00000000000E+00  0.34361273248E+02  0.34361273248E+02  0.00000000000E+00 0. -1.
         21   -1    0    0  501  502 -0.00000000000E+00 -0.00000000000E+00 -0.14519438528E+04  0.14519438528E+04  0.00000000000E+00 0. -1.
      99926    2    1    2    0    0  0.00000000000E+00  0.00000000000E+00 -0.14175825795E+04  0.14863051260E+04  0.44672425260E+03 0.  0.
      99925    2    3    3    0    0  0.31780816656E+02 -0.20606126502E+02 -0.57389195441E+03  0.63255105619E+03  0.26331393922E+03 0.  0.
         25    1    4    4    0    0  0.37589738813E+02  0.23269004033E+02 -0.30924739445E+03  0.33650541465E+03  0.12509000000E+03 0.  0.
         25    1    3    3    0    0 -0.31780816656E+02  0.20606126502E+02 -0.84369062512E+03  0.85375406984E+03  0.12509000000E+03 0.  0.
         25    1    4    4    0    0 -0.58089221570E+01 -0.43875130536E+02 -0.26464455996E+03  0.29604564154E+03  0.12509000000E+03 0.  0.
<mgrwt>
<rscale>  2 0.44672425E+03</rscale>
<asrwt>0</asrwt>
<pdfrwt beam="1">  1       21 0.50531273E-02 0.44672425E+03</pdfrwt>
<pdfrwt beam="2">  1       21 0.21352120E+00 0.44672425E+03</pdfrwt>
<totfact> 0.25731576E+04</totfact>
</mgrwt>
</event>
<event>
 7    0  0.4766352E-002  0.4482859E+03  0.7546771E-02  0.1028234E+00
         21   -1    0    0  502  501  0.00000000000E+00  0.00000000000E+00  0.75958913529E+03  0.75958913529E+03  0.00000000000E+00 0. -1.
         21   -1    0    0  501  502 -0.00000000000E+00 -0.00000000000E+00 -0.66141104978E+02  0.66141104978E+02  0.00000000000E+00 0. -1.
      99926    2    1    2    0    0  0.00000000000E+00  0.00000000000E+00  0.69344803031E+03  0.82573024027E+03  0.44828591206E+03 0.  0.
      99925    2    3    3    0    0 -0.89981111409E+02 -0.12155475243E+02  0.33545086652E+03  0.43578943274E+03  0.26294636307E+03 0.  0.
         25    1    3    3    0    0  0.89981111409E+02  0.12155475243E+02  0.35799716379E+03  0.38994080752E+03  0.12509000000E+03 0.  0.
         25    1    4    4    0    0 -0.83026049560E+02 -0.17577598223E+02  0.20654655582E+03  0.25595172335E+03  0.12509000000E+03 0.  0.
         25    1    4    4    0    0 -0.69550618484E+01  0.54221229805E+01  0.12890431070E+03  0.17983770939E+03  0.12509000000E+03 0.  0.
<mgrwt>
<rscale>  2 0.44828591E+03</rscale>
<asrwt>0</asrwt>
<pdfrwt beam="1">  1       21 0.11170428E+00 0.44828591E+03</pdfrwt>
<pdfrwt beam="2">  1       21 0.97266335E-02 0.44828591E+03</pdfrwt>
<totfact> 0.49080274E+04</totfact>
</mgrwt>
</event>
<event>
 7    0  0.4766352E-002  0.4315082E+03  0.7546771E-02  0.1033385E+00
         21   -1    0    0  502  501  0.00000000000E+00  0.00000000000E+00  0.42279332805E+02  0.42279332805E+02  0.00000000000E+00 0.  1.
         21   -1    0    0  501  502 -0.00000000000E+00 -0.00000000000E+00 -0.11010068876E+04  0.11010068876E+04  0.00000000000E+00 0.  1.
      99926    2    1    2    0    0 -0.44408920985E-15  0.00000000000E+00 -0.10587275548E+04  0.11432862204E+04  0.43150822297E+03 0.  0.
      99925    2    3    3    0    0  0.24025223526E+01 -0.86385397350E+02 -0.74272452480E+03  0.79261025594E+03  0.26291270242E+03 0.  0.
         25    1    4    4    0    0  0.93001782906E+01 -0.78583699046E+02 -0.34120853574E+03  0.37193099365E+03  0.12509000000E+03 0.  0.
         25    1    3    3    0    0 -0.24025223526E+01  0.86385397350E+02 -0.31600303000E+03  0.35067596448E+03  0.12509000000E+03 0.  0.
         25    1    4    4    0    0 -0.68976559380E+01 -0.78016983039E+01 -0.40151598906E+03  0.42067926229E+03  0.12509000000E+03 0.  0.
<mgrwt>
<rscale>  2 0.43150822E+03</rscale>
<asrwt>0</asrwt>
<pdfrwt beam="1">  1       21 0.62175480E-02 0.43150822E+03</pdfrwt>
<pdfrwt beam="2">  1       21 0.16191280E+00 0.43150822E+03</pdfrwt>
<totfact> 0.41018752E+04</totfact>
</mgrwt>
</event>
<event>
 7    0  0.4766352E-002  0.4430203E+03  0.7546771E-02  0.1029824E+00
         21   -1    0    0  502  501  0.00000000000E+00  0.00000000000E+00  0.36261016486E+03  0.36261016486E+03  0.00000000000E+00 0. -1.
         21   -1    0    0  501  502 -0.00000000000E+00 -0.00000000000E+00 -0.13531540942E+03  0.13531540942E+03  0.00000000000E+00 0. -1.
      99926    2    1    2    0    0 -0.14210854715E-13  0.00000000000E+00  0.22729475545E+03  0.49792557428E+03  0.44302028359E+03 0.  0.
      99925    2    3    3    0    0 -0.86232427710E+02 -0.45810043673E+02  0.11319557585E+03  0.30247552293E+03  0.26295172920E+03 0.  0.
         25    1    4    4    0    0 -0.75697640465E+02 -0.41546463941E+00  0.47780914244E+02  0.15382076989E+03  0.12509000000E+03 0.  0.
         25    1    3    3    0    0  0.86232427710E+02  0.45810043673E+02  0.11409917960E+03  0.19545005136E+03  0.12509000000E+03 0.  0.
         25    1    4    4    0    0 -0.10534787245E+02 -0.45394579034E+02  0.65414661607E+02  0.14865475304E+03  0.12509000000E+03 0.  0.
<mgrwt>
<rscale>  2 0.44302028E+03</rscale>
<asrwt>0</asrwt>
<pdfrwt beam="1">  1       21 0.53325024E-01 0.44302028E+03</pdfrwt>
<pdfrwt beam="2">  1       21 0.19899325E-01 0.44302028E+03</pdfrwt>
<totfact> 0.72025461E+04</totfact>
</mgrwt>
</event>
<event>
 7    0  0.4766352E-002  0.4300296E+03  0.7546771E-02  0.1033851E+00
         21   -1    0    0  502  501  0.00000000000E+00  0.00000000000E+00  0.44064085508E+03  0.44064085508E+03  0.00000000000E+00 0.  1.
         21   -1    0    0  501  502 -0.00000000000E+00 -0.00000000000E+00 -0.10491844911E+03  0.10491844911E+03  0.00000000000E+00 0.  1.
      99926    2    1    2    0    0  0.71054273576E-14 -0.71054273576E-14  0.33572240597E+03  0.54555930420E+03  0.43002955773E+03 0.  0.
      99925    2    3    3    0    0 -0.62743619674E+02  0.47808908453E+02  0.16756881663E+03  0.32162719117E+03  0.26294921231E+03 0.  0.
         25    1    4    4    0    0 -0.66832719542E+02  0.12063498691E+02  0.10696777542E+03  0.17804986234E+03  0.12509000000E+03 0.  0.
         25    1    3    3    0    0  0.62743619674E+02 -0.47808908453E+02  0.16815358934E+03  0.22393211303E+03  0.12509000000E+03 0.  0.
         25    1    4    4    0    0  0.40890998675E+01  0.35745409762E+02  0.60601041213E+02  0.14357732883E+03  0.12509000000E+03 0.  0.
<mgrwt>
<rscale>  2 0.43002956E+03</rscale>
<asrwt>0</asrwt>
<pdfrwt beam="1">  1       21 0.64800125E-01 0.43002956E+03</pdfrwt>
<pdfrwt beam="2">  1       21 0.15429184E-01 0.43002956E+03</pdfrwt>
<totfact> 0.76123026E+04</totfact>
</mgrwt>
</event>
<event>
 7    0  0.4766352E-002  0.4614104E+03  0.7546771E-02  0.1024373E+00
         21   -1    0    0  502  501  0.00000000000E+00  0.00000000000E+00  0.19679713729E+03  0.19679713729E+03  0.00000000000E+00 0. -1.
         21   -1    0    0  501  502 -0.00000000000E+00 -0.00000000000E+00 -0.27045555058E+03  0.27045555058E+03  0.00000000000E+00 0. -1.
      99926    2    1    2    0    0  0.35527136788E-14  0.14210854715E-13 -0.73658413288E+02  0.46725268788E+03  0.46141035151E+03 0.  0.
      99925    2    3    3    0    0 -0.31686289513E+02 -0.11329129861E+03 -0.62582377507E+02  0.29517966282E+03  0.26339236907E+03 0.  0.
         25    1    3    3    0    0  0.31686289513E+02  0.11329129861E+03 -0.11076035781E+02  0.17207302506E+03  0.12509000000E+03 0.  0.
         25    1    4    4    0    0  0.80365329047E+01 -0.25859925415E+02 -0.48432627164E+02  0.13684498192E+03  0.12509000000E+03 0.  0.
         25    1    4    4    0    0 -0.39722822418E+02 -0.87431373194E+02 -0.14149750343E+02  0.15833468090E+03  0.12509000000E+03 0.  0.
<mgrwt>
<rscale>  2 0.46141035E+03</rscale>
<asrwt>0</asrwt>
<pdfrwt beam="1">  1       21 0.28940756E-01 0.46141035E+03</pdfrwt>
<pdfrwt beam="2">  1       21 0.39772875E-01 0.46141035E+03</pdfrwt>
<totfact> 0.64303408E+04</totfact>
</mgrwt>
</event>
<event>
 7    0  0.4766352E-002  0.4523366E+03  0.7546771E-02  0.1027028E+00
         21   -1    0    0  502  501  0.00000000000E+00  0.00000000000E+00  0.17853099326E+03  0.17853099326E+03  0.00000000000E+00 0. -1.
         21   -1    0    0  501  502 -0.00000000000E+00 -0.00000000000E+00 -0.28651666491E+03  0.28651666491E+03  0.00000000000E+00 0. -1.
      99926    2    1    2    0    0  0.00000000000E+00 -0.14210854715E-13 -0.10798567164E+03  0.46504765817E+03  0.45233662143E+03 0.  0.
      99925    2    3    3    0    0  0.19727479928E+02  0.66334232687E+02  0.20801906758E+02  0.27263364532E+03  0.26288206737E+03 0.  0.
         25    1    4    4    0    0 -0.53709477204E+01 -0.51208507720E+01  0.32308910576E+01  0.12535157338E+03  0.12509000000E+03 0.  0.
         25    1    4    4    0    0  0.25098427649E+02  0.71455083459E+02  0.17571015701E+02  0.14728207194E+03  0.12509000000E+03 0.  0.
         25    1    3    3    0    0 -0.19727479928E+02 -0.66334232687E+02 -0.12878757840E+03  0.19241401285E+03  0.12509000000E+03 0.  0.
<mgrwt>
<rscale>  2 0.45233662E+03</rscale>
<asrwt>0</asrwt>
<pdfrwt beam="1">  1       21 0.26254558E-01 0.45233662E+03</pdfrwt>
<pdfrwt beam="2">  1       21 0.42134803E-01 0.45233662E+03</pdfrwt>
<totfact> 0.69257663E+04</totfact>
</mgrwt>
</event>
<event>
 7    0  0.4766352E-002  0.4556156E+03  0.7546771E-02  0.1026061E+00
         21   -1    0    0  502  501  0.00000000000E+00  0.00000000000E+00  0.13304969926E+04  0.13304969926E+04  0.00000000000E+00 0.  1.
         21   -1    0    0  501  502 -0.00000000000E+00 -0.00000000000E+00 -0.39005271849E+02  0.39005271849E+02  0.00000000000E+00 0.  1.
      99926    2    1    2    0    0 -0.17763568394E-14 -0.71054273576E-14  0.12914917207E+04  0.13695022644E+04  0.45561561383E+03 0.  0.
      99925    2    3    3    0    0 -0.81014318028E+01 -0.42575854624E+02  0.11281970925E+04  0.11592857563E+04  0.26312819794E+03 0.  0.
         25    1    3    3    0    0  0.81014318028E+01  0.42575854624E+02  0.16329462820E+03  0.21021650813E+03  0.12509000000E+03 0.  0.
         25    1    4    4    0    0  0.66944394015E+01 -0.13640721746E+02  0.72536020080E+03  0.73622402420E+03  0.12509000000E+03 0.  0.
         25    1    4    4    0    0 -0.14795871204E+02 -0.28935132878E+02  0.40283689174E+03  0.42306173210E+03  0.12509000000E+03 0.  0.
<mgrwt>
<rscale>  2 0.45561561E+03</rscale>
<asrwt>0</asrwt>
<pdfrwt beam="1">  1       21 0.19566129E+00 0.45561561E+03</pdfrwt>
<pdfrwt beam="2">  1       21 0.57360703E-02 0.45561561E+03</pdfrwt>
<totfact> 0.27026637E+04</totfact>
</mgrwt>
</event>
<event>
 7    0  0.4766352E-002  0.4536669E+03  0.7546771E-02  0.1026634E+00
         21   -1    0    0  502  501  0.00000000000E+00  0.00000000000E+00  0.44336085782E+03  0.44336085782E+03  0.00000000000E+00 0. -1.
         21   -1    0    0  501  502 -0.00000000000E+00 -0.00000000000E+00 -0.11605314982E+03  0.11605314982E+03  0.00000000000E+00 0. -1.
      99926    2    1    2    0    0  0.00000000000E+00  0.00000000000E+00  0.32730770801E+03  0.55941400764E+03  0.45366694416E+03 0.  0.
      99925    2    3    3    0    0  0.34555037864E+02  0.34819158606E+02  0.33016060495E+03  0.42501880100E+03  0.26311315378E+03 0.  0.
         25    1    4    4    0    0 -0.18356698651E+02 -0.31991752415E+01  0.14933642649E+03  0.19569384120E+03  0.12509000000E+03 0.  0.
         25    1    3    3    0    0 -0.34555037864E+02 -0.34819158606E+02 -0.28528969419E+01  0.13439520664E+03  0.12509000000E+03 0.  0.
         25    1    4    4    0    0  0.52911736514E+02  0.38018333847E+02  0.18082417846E+03  0.22932495979E+03  0.12509000000E+03 0.  0.
<mgrwt>
<rscale>  2 0.45366694E+03</rscale>
<asrwt>0</asrwt>
<pdfrwt beam="1">  1       21 0.65200125E-01 0.45366694E+03</pdfrwt>
<pdfrwt beam="2">  1       21 0.17066640E-01 0.45366694E+03</pdfrwt>
<totfact> 0.61898791E+04</totfact>
</mgrwt>
</event>
<event>
 7    0  0.4766352E-002  0.4518958E+03  0.7546771E-02  0.1027158E+00
         21   -1    0    0  502  501  0.00000000000E+00  0.00000000000E+00  0.31066366071E+03  0.31066366071E+03  0.00000000000E+00 0. -1.
         21   -1    0    0  501  502 -0.00000000000E+00 -0.00000000000E+00 -0.16433355041E+03  0.16433355041E+03  0.00000000000E+00 0. -1.
      99926    2    1    2    0    0  0.00000000000E+00  0.00000000000E+00  0.14633011030E+03  0.47499721111E+03  0.45189583909E+03 0.  0.
      99925    2    3    3    0    0 -0.36309409420E+02 -0.81853900742E+02  0.24722983650E+02  0.27889969550E+03  0.26297410509E+03 0.  0.
         25    1    3    3    0    0  0.36309409420E+02  0.81853900742E+02  0.12160712665E+03  0.19609751562E+03  0.12509000000E+03 0.  0.
         25    1    4    4    0    0  0.22945743836E+01 -0.64795876909E+02 -0.13284590459E+02  0.14151946573E+03  0.12509000000E+03 0.  0.
         25    1    4    4    0    0 -0.38603983803E+02 -0.17058023833E+02  0.38007574109E+02  0.13738022977E+03  0.12509000000E+03 0.  0.
<mgrwt>
<rscale>  2 0.45189584E+03</rscale>
<asrwt>0</asrwt>
<pdfrwt beam="1">  1       21 0.45685833E-01 0.45189584E+03</pdfrwt>
<pdfrwt beam="2">  1       21 0.24166699E-01 0.45189584E+03</pdfrwt>
<totfact> 0.68744149E+04</totfact>
</mgrwt>
</event>
<event>
 7    0  0.4766352E-002  0.4451751E+03  0.7546771E-02  0.1029171E+00
         21   -1    0    0  502  501  0.00000000000E+00  0.00000000000E+00  0.31506270419E+02  0.31506270419E+02  0.00000000000E+00 0. -1.
         21   -1    0    0  501  502 -0.00000000000E+00 -0.00000000000E+00 -0.15725511368E+04  0.15725511368E+04  0.00000000000E+00 0. -1.
      99926    2    1    2    0    0  0.00000000000E+00  0.22204460493E-15 -0.15410448664E+04  0.16040574072E+04  0.44517511775E+03 0.  0.
      99925    2    3    3    0    0 -0.98227782950E+02 -0.11523273977E+01 -0.85826178506E+03  0.90299373719E+03  0.26293416002E+03 0.  0.
         25    1    4    4    0    0 -0.34545993592E+02  0.41261212513E+01 -0.29191512030E+03  0.31948770886E+03  0.12509000000E+03 0.  0.
         25    1    3    3    0    0  0.98227782950E+02  0.11523273977E+01 -0.68278308135E+03  0.70106367006E+03  0.12509000000E+03 0.  0.
         25    1    4    4    0    0 -0.63681789358E+02 -0.52784486490E+01 -0.56634666476E+03  0.58350602833E+03  0.12509000000E+03 0.  0.
<mgrwt>
<rscale>  2 0.44517512E+03</rscale>
<asrwt>0</asrwt>
<pdfrwt beam="1">  1       21 0.46332739E-02 0.44517512E+03</pdfrwt>
<pdfrwt beam="2">  1       21 0.23125758E+00 0.44517512E+03</pdfrwt>
<totfact> 0.23047014E+04</totfact>
</mgrwt>
</event>
<event>
 7    0  0.4766352E-002  0.4541597E+03  0.7546771E-02  0.1026489E+00
         21   -1    0    0  502  501  0.00000000000E+00  0.00000000000E+00  0.30572968253E+03  0.30572968253E+03  0.00000000000E+00 0. -1.
         21   -1    0    0  501  502 -0.00000000000E+00 -0.00000000000E+00 -0.16866290954E+03  0.16866290954E+03  0.00000000000E+00 0. -1.
      99926    2    1    2    0    0 -0.71054273576E-14  0.00000000000E+00  0.13706677300E+03  0.47439259207E+03  0.45415969785E+03 0.  0.
      99925    2    3    3    0    0 -0.29521143510E+02 -0.11753573410E+02 -0.26346343406E+02  0.26615955167E+03  0.26293940886E+03 0.  0.
         25    1    4    4    0    0 -0.37585959150E+02  0.86819042766E+01 -0.43634140811E+02  0.13798378938E+03  0.12509000000E+03 0.  0.
         25    1    3    3    0    0  0.29521143510E+02  0.11753573410E+02  0.16341311640E+03  0.20823304040E+03  0.12509000000E+03 0.  0.
         25    1    4    4    0    0  0.80648156399E+01 -0.20435477687E+02  0.17287797405E+02  0.12817576229E+03  0.12509000000E+03 0.  0.
<mgrwt>
<rscale>  2 0.45415970E+03</rscale>
<asrwt>0</asrwt>
<pdfrwt beam="1">  1       21 0.44960248E-01 0.45415970E+03</pdfrwt>
<pdfrwt beam="2">  1       21 0.24803369E-01 0.45415970E+03</pdfrwt>
<totfact> 0.67560004E+04</totfact>
</mgrwt>
</event>
<event>
 7    0  0.4766352E-002  0.4570612E+03  0.7546771E-02  0.1025637E+00
         21   -1    0    0  502  501  0.00000000000E+00  0.00000000000E+00  0.50189495803E+03  0.50189495803E+03  0.00000000000E+00 0.  1.
         21   -1    0    0  501  502 -0.00000000000E+00 -0.00000000000E+00 -0.10405808223E+03  0.10405808223E+03  0.00000000000E+00 0.  1.
      99926    2    1    2    0    0  0.00000000000E+00 -0.17763568394E-14  0.39783687579E+03  0.60595304026E+03  0.45706116359E+03 0.  0.
      99925    2    3    3    0    0 -0.11227350156E+03  0.15943264857E+02  0.27487010956E+03  0.39708020684E+03  0.26317216168E+03 0.  0.
         25    1    4    4    0    0 -0.10005269047E+03  0.49309793460E+01  0.14761334824E+03  0.21788084842E+03  0.12509000000E+03 0.  0.
         25    1    4    4    0    0 -0.12220811088E+02  0.11012285511E+02  0.12725676132E+03  0.17919935842E+03  0.12509000000E+03 0.  0.
         25    1    3    3    0    0  0.11227350156E+03 -0.15943264857E+02  0.12296676623E+03  0.20887283343E+03  0.12509000000E+03 0.  0.
<mgrwt>
<rscale>  2 0.45706116E+03</rscale>
<asrwt>0</asrwt>
<pdfrwt beam="1">  1       21 0.73808081E-01 0.45706116E+03</pdfrwt>
<pdfrwt beam="2">  1       21 0.15302659E-01 0.45706116E+03</pdfrwt>
<totfact> 0.57373392E+04</totfact>
</mgrwt>
</event>
<event>
 7    0  0.4766352E-002  0.4528273E+03  0.7546771E-02  0.1026882E+00
         21   -1    0    0  502  501  0.00000000000E+00  0.00000000000E+00  0.12157018377E+03  0.12157018377E+03  0.00000000000E+00 0.  1.
         21   -1    0    0  501  502 -0.00000000000E+00 -0.00000000000E+00 -0.42167534194E+03  0.42167534194E+03  0.00000000000E+00 0.  1.
      99926    2    1    2    0    0  0.71054273576E-14 -0.14210854715E-13 -0.30010515818E+03  0.54324552571E+03  0.45282733491E+03 0.  0.
      99925    2    3    3    0    0  0.62338827431E+02 -0.84989888577E+02 -0.14662344684E+03  0.31893869482E+03  0.26289550268E+03 0.  0.
         25    1    3    3    0    0 -0.62338827431E+02  0.84989888577E+02 -0.15348171134E+03  0.22430683089E+03  0.12509000000E+03 0.  0.
         25    1    4    4    0    0  0.28251836258E+02 -0.76178488249E+02 -0.10527180468E+03  0.18256776628E+03  0.12509000000E+03 0.  0.
         25    1    4    4    0    0  0.34086991172E+02 -0.88114003274E+01 -0.41351642158E+02  0.13637092854E+03  0.12509000000E+03 0.  0.
<mgrwt>
<rscale>  2 0.45282733E+03</rscale>
<asrwt>0</asrwt>
<pdfrwt beam="1">  1       21 0.17877968E-01 0.45282733E+03</pdfrwt>
<pdfrwt beam="2">  1       21 0.62011080E-01 0.45282733E+03</pdfrwt>
<totfact> 0.63398051E+04</totfact>
</mgrwt>
</event>
<event>
 7    0  0.4766352E-002  0.4459328E+03  0.7546771E-02  0.1028942E+00
         21   -1    0    0  502  501  0.00000000000E+00  0.00000000000E+00  0.36140699506E+03  0.36140699506E+03  0.00000000000E+00 0. -1.
         21   -1    0    0  501  502 -0.00000000000E+00 -0.00000000000E+00 -0.13755686580E+03  0.13755686580E+03  0.00000000000E+00 0. -1.
      99926    2    1    2    0    0  0.00000000000E+00  0.00000000000E+00  0.22385012926E+03  0.49896386086E+03  0.44593279098E+03 0.  0.
      99925    2    3    3    0    0  0.51366045240E+02  0.34819941799E+02  0.48103547125E+02  0.27449723041E+03  0.26302828614E+03 0.  0.
         25    1    3    3    0    0 -0.51366045240E+02 -0.34819941799E+02  0.17574658213E+03  0.22446663044E+03  0.12509000000E+03 0.  0.
         25    1    4    4    0    0 -0.10879611705E+02  0.23450194982E+02  0.49767051977E+01  0.12783017363E+03  0.12509000000E+03 0.  0.
         25    1    4    4    0    0  0.62245656944E+02  0.11369746817E+02  0.43126841927E+02  0.14666705678E+03  0.12509000000E+03 0.  0.
<mgrwt>
<rscale>  2 0.44593279E+03</rscale>
<asrwt>0</asrwt>
<pdfrwt beam="1">  1       21 0.53148088E-01 0.44593279E+03</pdfrwt>
<pdfrwt beam="2">  1       21 0.20228951E-01 0.44593279E+03</pdfrwt>
<totfact> 0.70266019E+04</totfact>
</mgrwt>
</event>
<event>
 7    0  0.4766352E-002  0.4559857E+03  0.7546771E-02  0.1025952E+00
         21   -1    0    0  502  501  0.00000000000E+00  0.00000000000E+00  0.52519305539E+02  0.52519305539E+02  0.00000000000E+00 0. -1.
         21   -1    0    0  501  502 -0.00000000000E+00 -0.00000000000E+00 -0.98974558527E+03  0.98974558527E+03  0.00000000000E+00 0. -1.
      99926    2    1    2    0    0  0.14210854715E-13 -0.71054273576E-14 -0.93722627973E+03  0.10422648908E+04  0.45598574889E+03 0.  0.
      99925    2    3    3    0    0 -0.85092073296E+02 -0.57604210313E+02 -0.70248652787E+03  0.75711727082E+03  0.26302154654E+03 0.  0.
         25    1    4    4    0    0 -0.47304945878E+02 -0.65727490553E+02 -0.42312223867E+03  0.44859536096E+03  0.12509000000E+03 0.  0.
         25    1    3    3    0    0  0.85092073296E+02  0.57604210313E+02 -0.23473975186E+03  0.28514761999E+03  0.12509000000E+03 0.  0.
         25    1    4    4    0    0 -0.37787127417E+02  0.81232802399E+01 -0.27936428920E+03  0.30852190986E+03  0.12509000000E+03 0.  0.
<mgrwt>
<rscale>  2 0.45598575E+03</rscale>
<asrwt>0</asrwt>
<pdfrwt beam="1">  1       21 0.77234280E-02 0.45598575E+03</pdfrwt>
<pdfrwt beam="2">  1       21 0.14555081E+00 0.45598575E+03</pdfrwt>
<totfact> 0.37274860E+04</totfact>
</mgrwt>
</event>
<event>
 7    0  0.4766352E-002  0.4548854E+03  0.7546771E-02  0.1026275E+00
         21   -1    0    0  502  501  0.00000000000E+00  0.00000000000E+00  0.11917047861E+03  0.11917047861E+03  0.00000000000E+00 0. -1.
         21   -1    0    0  501  502 -0.00000000000E+00 -0.00000000000E+00 -0.43408557567E+03  0.43408557567E+03  0.00000000000E+00 0. -1.
      99926    2    1    2    0    0  0.00000000000E+00  0.00000000000E+00 -0.31491509706E+03  0.55325605428E+03  0.45488541770E+03 0.  0.
      99925    2    3    3    0    0  0.14630861093E+02 -0.10552748819E+03 -0.24422338739E+03  0.37438476319E+03  0.26299957244E+03 0.  0.
         25    1    3    3    0    0 -0.14630861093E+02  0.10552748819E+03 -0.70691709674E+02  0.17887129109E+03  0.12509000000E+03 0.  0.
         25    1    4    4    0    0  0.83391000499E+01 -0.31986034624E+02 -0.16254056268E+03  0.20774886189E+03  0.12509000000E+03 0.  0.
         25    1    4    4    0    0  0.62917610432E+01 -0.73541453564E+02 -0.81682824709E+02  0.16663590130E+03  0.12509000000E+03 0.  0.
<mgrwt>
<rscale>  2 0.45488542E+03</rscale>
<asrwt>0</asrwt>
<pdfrwt beam="1">  1       21 0.17525071E-01 0.45488542E+03</pdfrwt>
<pdfrwt beam="2">  1       21 0.63836113E-01 0.45488542E+03</pdfrwt>
<totfact> 0.61707779E+04</totfact>
</mgrwt>
</event>
<event>
 7    0  0.4766352E-002  0.4628637E+03  0.7546771E-02  0.1023954E+00
         21   -1    0    0  502  501  0.00000000000E+00  0.00000000000E+00  0.12003008122E+04  0.12003008122E+04  0.00000000000E+00 0.  1.
         21   -1    0    0  501  502 -0.00000000000E+00 -0.00000000000E+00 -0.44622738935E+02  0.44622738935E+02  0.00000000000E+00 0.  1.
      99926    2    1    2    0    0  0.14210854715E-13 -0.35527136788E-14  0.11556780732E+04  0.12449235511E+04  0.46286373711E+03 0.  0.
      99925    2    3    3    0    0 -0.11597571918E+03  0.31629300229E+02  0.73666579903E+03  0.79141547608E+03  0.26308017078E+03 0.  0.
         25    1    4    4    0    0 -0.52835621355E+02  0.11370170138E+02  0.25185866500E+03  0.28635847968E+03  0.12509000000E+03 0.  0.
         25    1    4    4    0    0 -0.63140097822E+02  0.20259130091E+02  0.48480713403E+03  0.50505699640E+03  0.12509000000E+03 0.  0.
         25    1    3    3    0    0  0.11597571918E+03 -0.31629300229E+02  0.41901227419E+03  0.45350807501E+03  0.12509000000E+03 0.  0.
<mgrwt>
<rscale>  2 0.46286374E+03</rscale>
<asrwt>0</asrwt>
<pdfrwt beam="1">  1       21 0.17651481E+00 0.46286374E+03</pdfrwt>
<pdfrwt beam="2">  1       21 0.65621682E-02 0.46286374E+03</pdfrwt>
<totfact> 0.28944212E+04</totfact>
</mgrwt>
</event>
<event>
 7    0  0.4766352E-002  0.4632447E+03  0.7546771E-02  0.1023844E+00
         21   -1    0    0  502  501  0.00000000000E+00  0.00000000000E+00  0.80340878601E+03  0.80340878601E+03  0.00000000000E+00 0. -1.
         21   -1    0    0  501  502 -0.00000000000E+00 -0.00000000000E+00 -0.66776613919E+02  0.66776613919E+02  0.00000000000E+00 0. -1.
      99926    2    1    2    0    0  0.71054273576E-14  0.00000000000E+00  0.73663217209E+03  0.87018539993E+03  0.46324472289E+03 0.  0.
      99925    2    3    3    0    0  0.54368747902E+02 -0.10776669782E+03  0.46673694264E+03  0.54915492647E+03  0.26297934850E+03 0.  0.
         25    1    4    4    0    0 -0.70180176002E+01 -0.36159475064E+02  0.17799411899E+03  0.22064943848E+03  0.12509000000E+03 0.  0.
         25    1    4    4    0    0  0.61386765503E+02 -0.71607222755E+02  0.28874282365E+03  0.32850548799E+03  0.12509000000E+03 0.  0.
         25    1    3    3    0    0 -0.54368747902E+02  0.10776669782E+03  0.26989522945E+03  0.32103047346E+03  0.12509000000E+03 0.  0.
<mgrwt>
<rscale>  2 0.46324472E+03</rscale>
<asrwt>0</asrwt>
<pdfrwt beam="1">  1       21 0.11814835E+00 0.46324472E+03</pdfrwt>
<pdfrwt beam="2">  1       21 0.98200907E-02 0.46324472E+03</pdfrwt>
<totfact> 0.41781472E+04</totfact>
</mgrwt>
</event>
<event>
 7    0  0.4766352E-002  0.4503178E+03  0.7546771E-02  0.1027627E+00
         21   -1    0    0  502  501  0.00000000000E+00  0.00000000000E+00  0.18526027551E+04  0.18526027551E+04  0.00000000000E+00 0. -1.
         21   -1    0    0  501  502 -0.00000000000E+00 -0.00000000000E+00 -0.27365034581E+02  0.27365034581E+02  0.00000000000E+00 0. -1.
      99926    2    1    2    0    0  0.00000000000E+00 -0.14210854715E-13  0.18252377205E+04  0.18799677897E+04  0.45031783646E+03 0.  0.
      99925    2    3    3    0    0 -0.33707672753E+02 -0.94781265136E+02  0.13257015017E+04  0.13552739385E+04  0.26298912797E+03 0.  0.
         25    1    4    4    0    0 -0.55123679540E+02 -0.48769748572E+02  0.75506409217E+03  0.76888646743E+03  0.12509000000E+03 0.  0.
         25    1    4    4    0    0  0.21416006787E+02 -0.46011516564E+02  0.57063740949E+03  0.58638747105E+03  0.12509000000E+03 0.  0.
         25    1    3    3    0    0  0.33707672753E+02  0.94781265136E+02  0.49953621886E+03  0.52469385119E+03  0.12509000000E+03 0.  0.
<mgrwt>
<rscale>  2 0.45031784E+03</rscale>
<asrwt>0</asrwt>
<pdfrwt beam="1">  1       21 0.27244150E+00 0.45031784E+03</pdfrwt>
<pdfrwt beam="2">  1       21 0.40242711E-02 0.45031784E+03</pdfrwt>
<totfact> 0.16356437E+04</totfact>
</mgrwt>
</event>
<event>
 7    0  0.4766352E-002  0.4569135E+03  0.7546771E-02  0.1025680E+00
         21   -1    0    0  502  501  0.00000000000E+00  0.00000000000E+00  0.90989518769E+02  0.90989518769E+02  0.00000000000E+00 0. -1.
         21   -1    0    0  501  502 -0.00000000000E+00 -0.00000000000E+00 -0.57360996856E+03  0.57360996856E+03  0.00000000000E+00 0. -1.
      99926    2    1    2    0    0  0.00000000000E+00  0.00000000000E+00 -0.48262044979E+03  0.66459948732E+03  0.45691353668E+03 0.  0.
      99925    2    3    3    0    0 -0.95146467804E+02  0.29970165423E+02 -0.21930720755E+03  0.35648841516E+03  0.26274945806E+03 0.  0.
         25    1    3    3    0    0  0.95146467804E+02 -0.29970165423E+02 -0.26331324224E+03  0.30811107216E+03  0.12509000000E+03 0.  0.
         25    1    4    4    0    0 -0.74197634325E+02 -0.59338008466E+01 -0.14362941490E+03  0.20449307044E+03  0.12509000000E+03 0.  0.
         25    1    4    4    0    0 -0.20948833479E+02  0.35903966270E+02 -0.75677792648E+02  0.15199534473E+03  0.12509000000E+03 0.  0.
<mgrwt>
<rscale>  2 0.45691354E+03</rscale>
<asrwt>0</asrwt>
<pdfrwt beam="1">  1       21 0.13380812E-01 0.45691354E+03</pdfrwt>
<pdfrwt beam="2">  1       21 0.84354407E-01 0.45691354E+03</pdfrwt>
<totfact> 0.54047187E+04</totfact>
</mgrwt>
</event>
<event>
 7    0  0.4766352E-002  0.4485218E+03  0.7546771E-02  0.1028164E+00
         21   -1    0    0  502  501  0.00000000000E+00  0.00000000000E+00  0.29247481450E+03  0.29247481450E+03  0.00000000000E+00 0. -1.
         21   -1    0    0  501  502 -0.00000000000E+00 -0.00000000000E+00 -0.17195648447E+03  0.17195648447E+03  0.00000000000E+00 0. -1.
      99926    2    1    2    0    0  0.00000000000E+00 -0.17763568394E-14  0.12051833004E+03  0.46443129897E+03  0.44852175375E+03 0.  0.
      99925    2    3    3    0    0  0.81594220180E+02  0.13474409841E+02  0.14661486797E+03  0.31222185814E+03  0.26295891827E+03 0.  0.
         25    1    4    4    0    0  0.45673652368E+02 -0.19881892915E+02  0.10749449241E+03  0.17229029626E+03  0.12509000000E+03 0.  0.
         25    1    3    3    0    0 -0.81594220180E+02 -0.13474409841E+02 -0.26096537934E+02  0.15220944084E+03  0.12509000000E+03 0.  0.
         25    1    4    4    0    0  0.35920567812E+02  0.33356302756E+02  0.39120375563E+02  0.13993156188E+03  0.12509000000E+03 0.  0.
<mgrwt>
<rscale>  2 0.44852175E+03</rscale>
<asrwt>0</asrwt>
<pdfrwt beam="1">  1       21 0.43011002E-01 0.44852175E+03</pdfrwt>
<pdfrwt beam="2">  1       21 0.25287718E-01 0.44852175E+03</pdfrwt>
<totfact> 0.71454240E+04</totfact>
</mgrwt>
</event>
<event>
 7    0  0.4766352E-002  0.4557836E+03  0.7546771E-02  0.1026011E+00
         21   -1    0    0  502  501  0.00000000000E+00  0.00000000000E+00  0.19574895733E+03  0.19574895733E+03  0.00000000000E+00 0. -1.
         21   -1    0    0  501  502 -0.00000000000E+00 -0.00000000000E+00 -0.26531266884E+03  0.26531266884E+03  0.00000000000E+00 0. -1.
      99926    2    1    2    0    0  0.14210854715E-13 -0.14210854715E-13 -0.69563711507E+02  0.46106162617E+03  0.45578362538E+03 0.  0.
      99925    2    3    3    0    0  0.90392878025E+02 -0.64888211688E+02 -0.18286960482E+02  0.28596689264E+03  0.26279516424E+03 0.  0.
         25    1    3    3    0    0 -0.90392878025E+02  0.64888211688E+02 -0.51276751025E+02  0.17509473353E+03  0.12509000000E+03 0.  0.
         25    1    4    4    0    0  0.60159274821E+02 -0.74671326906E+01 -0.36906448393E+02  0.14382103619E+03  0.12509000000E+03 0.  0.
         25    1    4    4    0    0  0.30233603204E+02 -0.57421078998E+02  0.18619487910E+02  0.14214585645E+03  0.12509000000E+03 0.  0.
<mgrwt>
<rscale>  2 0.45578363E+03</rscale>
<asrwt>0</asrwt>
<pdfrwt beam="1">  1       21 0.28786612E-01 0.45578363E+03</pdfrwt>
<pdfrwt beam="2">  1       21 0.39016569E-01 0.45578363E+03</pdfrwt>
<totfact> 0.67679336E+04</totfact>
</mgrwt>
</event>
<event>
 7    0  0.4766352E-002  0.4550757E+03  0.7546771E-02  0.1026219E+00
         21   -1    0    0  502  501  0.00000000000E+00  0.00000000000E+00  0.21563687285E+03  0.21563687285E+03  0.00000000000E+00 0.  1.
         21   -1    0    0  501  502 -0.00000000000E+00 -0.00000000000E+00 -0.24009565412E+03  0.24009565412E+03  0.00000000000E+00 0.  1.
      99926    2    1    2    0    0  0.00000000000E+00  0.00000000000E+00 -0.24458781267E+02  0.45573252697E+03  0.45507571256E+03 0.  0.
      99925    2    3    3    0    0 -0.66244124757E+02 -0.88281593501E+02  0.10017092999E+02  0.28538576938E+03  0.26298815828E+03 0.  0.
         25    1    4    4    0    0 -0.73741194544E+01 -0.95326689346E+01  0.12246963300E+02  0.12626458579E+03  0.12509000000E+03 0.  0.
         25    1    4    4    0    0 -0.58870005303E+02 -0.78748924566E+02 -0.22298703011E+01  0.15912118359E+03  0.12509000000E+03 0.  0.
         25    1    3    3    0    0  0.66244124757E+02  0.88281593501E+02 -0.34475874267E+02  0.17034675759E+03  0.12509000000E+03 0.  0.
<mgrwt>
<rscale>  2 0.45507571E+03</rscale>
<asrwt>0</asrwt>
<pdfrwt beam="1">  1       21 0.31711305E-01 0.45507571E+03</pdfrwt>
<pdfrwt beam="2">  1       21 0.35308184E-01 0.45507571E+03</pdfrwt>
<totfact> 0.68450831E+04</totfact>
</mgrwt>
</event>
<event>
 7    0  0.4766352E-002  0.4561608E+03  0.7546771E-02  0.1025901E+00
         21   -1    0    0  502  501  0.00000000000E+00  0.00000000000E+00  0.57039644266E+03  0.57039644266E+03  0.00000000000E+00 0. -1.
         21   -1    0    0  501  502 -0.00000000000E+00 -0.00000000000E+00 -0.91200893344E+02  0.91200893344E+02  0.00000000000E+00 0. -1.
      99926    2    1    2    0    0  0.00000000000E+00  0.44408920985E-14  0.47919554931E+03  0.66159733600E+03  0.45616078363E+03 0.  0.
      99925    2    3    3    0    0  0.11090957829E+03 -0.75648591419E+01  0.33941794591E+03  0.44355273469E+03  0.26301392509E+03 0.  0.
         25    1    3    3    0    0 -0.11090957829E+03  0.75648591419E+01  0.13977760340E+03  0.21804460131E+03  0.12509000000E+03 0.  0.
         25    1    4    4    0    0  0.78221813319E+02  0.28536278537E+02  0.19807013989E+03  0.24862071452E+03  0.12509000000E+03 0.  0.
         25    1    4    4    0    0  0.32687764966E+02 -0.36101137679E+02  0.14134780602E+03  0.19493202017E+03  0.12509000000E+03 0.  0.
<mgrwt>
<rscale>  2 0.45616078E+03</rscale>
<asrwt>0</asrwt>
<pdfrwt beam="1">  1       21 0.83881828E-01 0.45616078E+03</pdfrwt>
<pdfrwt beam="2">  1       21 0.13411896E-01 0.45616078E+03</pdfrwt>
<totfact> 0.54536777E+04</totfact>
</mgrwt>
</event>
<event>
 7    0  0.4766352E-002  0.4551285E+03  0.7546771E-02  0.1026204E+00
         21   -1    0    0  502  501  0.00000000000E+00  0.00000000000E+00  0.76582176335E+02  0.76582176335E+02  0.00000000000E+00 0. -1.
         21   -1    0    0  501  502 -0.00000000000E+00 -0.00000000000E+00 -0.67620813143E+03  0.67620813143E+03  0.00000000000E+00 0. -1.
      99926    2    1    2    0    0  0.00000000000E+00  0.35527136788E-14 -0.59962595509E+03  0.75279030776E+03  0.45512851091E+03 0.  0.
      99925    2    3    3    0    0  0.36224226175E+02  0.26316438241E+02 -0.54943107591E+03  0.61076290379E+03  0.26296780789E+03 0.  0.
         25    1    3    3    0    0 -0.36224226175E+02 -0.26316438241E+02 -0.50194879183E+02  0.14202740398E+03  0.12509000000E+03 0.  0.
         25    1    4    4    0    0  0.30464209190E+02  0.39393943415E+02 -0.21802397931E+03  0.25624580870E+03  0.12509000000E+03 0.  0.
         25    1    4    4    0    0  0.57600169850E+01 -0.13077505174E+02 -0.33140709660E+03  0.35451709509E+03  0.12509000000E+03 0.  0.
<mgrwt>
<rscale>  2 0.45512851E+03</rscale>
<asrwt>0</asrwt>
<pdfrwt beam="1">  1       21 0.11262085E-01 0.45512851E+03</pdfrwt>
<pdfrwt beam="2">  1       21 0.99442372E-01 0.45512851E+03</pdfrwt>
<totfact> 0.50078155E+04</totfact>
</mgrwt>
</event>
<event>
 7    0  0.4766352E-002  0.4580087E+03  0.7546771E-02  0.1025360E+00
         21   -1    0    0  502  501  0.00000000000E+00  0.00000000000E+00  0.74635819544E+03  0.74635819544E+03  0.00000000000E+00 0. -1.
         21   -1    0    0  501  502 -0.00000000000E+00 -0.00000000000E+00 -0.70265185966E+02  0.70265185966E+02  0.00000000000E+00 0. -1.
      99926    2    1    2    0    0  0.17763568394E-14  0.00000000000E+00  0.67609300947E+03  0.81662338141E+03  0.45800872219E+03 0.  0.
      99925    2    3    3    0    0  0.49441729882E+01 -0.11544993971E+03  0.44037500472E+03  0.52582513642E+03  0.26307564668E+03 0.  0.
         25    1    3    3    0    0 -0.49441729882E+01  0.11544993971E+03  0.23571800475E+03  0.29079824499E+03  0.12509000000E+03 0.  0.
         25    1    4    4    0    0  0.13182991200E+02 -0.93383440555E+02  0.20237552292E+03  0.25592502536E+03  0.12509000000E+03 0.  0.
         25    1    4    4    0    0 -0.82388182122E+01 -0.22066499157E+02  0.23799948180E+03  0.26990011106E+03  0.12509000000E+03 0.  0.
<mgrwt>
<rscale>  2 0.45800872E+03</rscale>
<asrwt>0</asrwt>
<pdfrwt beam="1">  1       21 0.10975855E+00 0.45800872E+03</pdfrwt>
<pdfrwt beam="2">  1       21 0.10333116E-01 0.45800872E+03</pdfrwt>
<totfact> 0.45878476E+04</totfact>
</mgrwt>
</event>
<event>
 7    0  0.4766352E-002  0.4524815E+03  0.7546771E-02  0.1026985E+00
         21   -1    0    0  502  501  0.00000000000E+00  0.00000000000E+00  0.31413209109E+02  0.31413209109E+02  0.00000000000E+00 0. -1.
         21   -1    0    0  501  502 -0.00000000000E+00 -0.00000000000E+00 -0.16294062498E+04  0.16294062498E+04  0.00000000000E+00 0. -1.
      99926    2    1    2    0    0  0.00000000000E+00 -0.35527136788E-14 -0.15979930407E+04  0.16608194589E+04  0.45248151011E+03 0.  0.
      99925    2    3    3    0    0 -0.13112114126E+02 -0.22928921967E+02 -0.14028125786E+04  0.14274943984E+04  0.26298186944E+03 0.  0.
         25    1    4    4    0    0  0.23230318751E+02 -0.36285580862E+02 -0.64120189004E+03  0.65470883832E+03  0.12509000000E+03 0.  0.
         25    1    3    3    0    0  0.13112114126E+02  0.22928921967E+02 -0.19518046208E+03  0.23332506054E+03  0.12509000000E+03 0.  0.
         25    1    4    4    0    0 -0.36342432878E+02  0.13356658895E+02 -0.76161068859E+03  0.77278556006E+03  0.12509000000E+03 0.  0.
<mgrwt>
<rscale>  2 0.45248151E+03</rscale>
<asrwt>0</asrwt>
<pdfrwt beam="1">  1       21 0.46195878E-02 0.45248151E+03</pdfrwt>
<pdfrwt beam="2">  1       21 0.23961866E+00 0.45248151E+03</pdfrwt>
<totfact> 0.20487361E+04</totfact>
</mgrwt>
</event>
<event>
 7    0  0.4766352E-002  0.4590313E+03  0.7546771E-02  0.1025063E+00
         21   -1    0    0  502  501  0.00000000000E+00  0.00000000000E+00  0.51429184820E+02  0.51429184820E+02  0.00000000000E+00 0.  1.
         21   -1    0    0  501  502 -0.00000000000E+00 -0.00000000000E+00 -0.10242713367E+04  0.10242713367E+04  0.00000000000E+00 0.  1.
      99926    2    1    2    0    0  0.00000000000E+00  0.00000000000E+00 -0.97284215188E+03  0.10757005215E+04  0.45903132739E+03 0.  0.
      99925    2    3    3    0    0  0.21013424045E+02  0.11479898372E+03 -0.62713769938E+03  0.68998113229E+03  0.26296748520E+03 0.  0.
         25    1    3    3    0    0 -0.21013424045E+02 -0.11479898372E+03 -0.34570445249E+03  0.38571938923E+03  0.12509000000E+03 0.  0.
         25    1    4    4    0    0  0.22777847252E+02  0.36369319488E+02 -0.37690878283E+03  0.39943622320E+03  0.12509000000E+03 0.  0.
         25    1    4    4    0    0 -0.17644232064E+01  0.78429664233E+02 -0.25022891655E+03  0.29054490909E+03  0.12509000000E+03 0.  0.
<mgrwt>
<rscale>  2 0.45903133E+03</rscale>
<asrwt>0</asrwt>
<pdfrwt beam="1">  1       21 0.75631164E-02 0.45903133E+03</pdfrwt>
<pdfrwt beam="2">  1       21 0.15062812E+00 0.45903133E+03</pdfrwt>
<totfact> 0.35227015E+04</totfact>
</mgrwt>
</event>
<event>
 7    0  0.4766352E-002  0.4546727E+03  0.7546771E-02  0.1026338E+00
         21   -1    0    0  502  501  0.00000000000E+00  0.00000000000E+00  0.45334013191E+03  0.45334013191E+03  0.00000000000E+00 0.  1.
         21   -1    0    0  501  502 -0.00000000000E+00 -0.00000000000E+00 -0.11400229192E+03  0.11400229192E+03  0.00000000000E+00 0.  1.
      99926    2    1    2    0    0  0.00000000000E+00  0.00000000000E+00  0.33933783999E+03  0.56734242383E+03  0.45467269131E+03 0.  0.
      99925    2    3    3    0    0  0.57465931221E+02 -0.97506561284E+01  0.33415624125E+03  0.42924186043E+03  0.26304138957E+03 0.  0.
         25    1    3    3    0    0 -0.57465931221E+02  0.97506561284E+01  0.51815987393E+01  0.13810056340E+03  0.12509000000E+03 0.  0.
         25    1    4    4    0    0  0.62675927403E+02  0.15339132310E+02  0.15686001977E+03  0.21075135767E+03  0.12509000000E+03 0.  0.
         25    1    4    4    0    0 -0.52099961825E+01 -0.25089788438E+02  0.17729622148E+03  0.21849050276E+03  0.12509000000E+03 0.  0.
<mgrwt>
<rscale>  2 0.45467269E+03</rscale>
<asrwt>0</asrwt>
<pdfrwt beam="1">  1       21 0.66667666E-01 0.45467269E+03</pdfrwt>
<pdfrwt beam="2">  1       21 0.16765043E-01 0.45467269E+03</pdfrwt>
<totfact> 0.60892314E+04</totfact>
</mgrwt>
</event>
<event>
 7    0  0.4766352E-002  0.4547334E+03  0.7546771E-02  0.1026320E+00
         21   -1    0    0  502  501  0.00000000000E+00  0.00000000000E+00  0.23034264979E+03  0.23034264979E+03  0.00000000000E+00 0.  1.
         21   -1    0    0  501  502 -0.00000000000E+00 -0.00000000000E+00 -0.22442916234E+03  0.22442916234E+03  0.00000000000E+00 0.  1.
      99926    2    1    2    0    0  0.00000000000E+00  0.00000000000E+00  0.59134874448E+01  0.45477181213E+03  0.45473336339E+03 0.  0.
      99925    2    3    3    0    0  0.31019853456E+02  0.60752885251E+02  0.93703865446E+02  0.28741649269E+03  0.26301080111E+03 0.  0.
         25    1    3    3    0    0 -0.31019853456E+02 -0.60752885251E+02 -0.87790378001E+02  0.16735531944E+03  0.12509000000E+03 0.  0.
         25    1    4    4    0    0  0.69750966395E+01  0.47350035089E+02  0.97856460457E+01  0.13429052373E+03  0.12509000000E+03 0.  0.
         25    1    4    4    0    0  0.24044756816E+02  0.13402850162E+02  0.83918219400E+02  0.15312596896E+03  0.12509000000E+03 0.  0.
<mgrwt>
<rscale>  2 0.45473336E+03</rscale>
<asrwt>0</asrwt>
<pdfrwt beam="1">  1       21 0.33873919E-01 0.45473336E+03</pdfrwt>
<pdfrwt beam="2">  1       21 0.33004288E-01 0.45473336E+03</pdfrwt>
<totfact> 0.68708572E+04</totfact>
</mgrwt>
</event>
<event>
 7    0  0.4766352E-002  0.4554221E+03  0.7546771E-02  0.1026117E+00
         21   -1    0    0  502  501  0.00000000000E+00  0.00000000000E+00  0.76692377295E+02  0.76692377295E+02  0.00000000000E+00 0. -1.
         21   -1    0    0  501  502 -0.00000000000E+00 -0.00000000000E+00 -0.67610787566E+03  0.67610787566E+03  0.00000000000E+00 0. -1.
      99926    2    1    2    0    0  0.00000000000E+00  0.00000000000E+00 -0.59941549837E+03  0.75280025296E+03  0.45542209122E+03 0.  0.
      99925    2    3    3    0    0 -0.86041586943E+02  0.50079950204E+02 -0.28909668589E+03  0.40372084999E+03  0.26363322027E+03 0.  0.
         25    1    4    4    0    0 -0.69082015799E+01  0.34436877656E+02 -0.16442282730E+03  0.20956143736E+03  0.12509000000E+03 0.  0.
         25    1    3    3    0    0  0.86041586943E+02 -0.50079950204E+02 -0.31031881248E+03  0.34907940297E+03  0.12509000000E+03 0.  0.
         25    1    4    4    0    0 -0.79133385363E+02  0.15643072548E+02 -0.12467385858E+03  0.19415941263E+03  0.12509000000E+03 0.  0.
<mgrwt>
<rscale>  2 0.45542209E+03</rscale>
<asrwt>0</asrwt>
<pdfrwt beam="1">  1       21 0.11278291E-01 0.45542209E+03</pdfrwt>
<pdfrwt beam="2">  1       21 0.99427630E-01 0.45542209E+03</pdfrwt>
<totfact> 0.49962304E+04</totfact>
</mgrwt>
</event>
<event>
 7    0  0.4766352E-002  0.4506386E+03  0.7546771E-02  0.1027532E+00
         21   -1    0    0  502  501  0.00000000000E+00  0.00000000000E+00  0.36899300079E+03  0.36899300079E+03  0.00000000000E+00 0.  1.
         21   -1    0    0  501  502 -0.00000000000E+00 -0.00000000000E+00 -0.13758737448E+03  0.13758737448E+03  0.00000000000E+00 0.  1.
      99926    2    1    2    0    0  0.00000000000E+00  0.00000000000E+00  0.23140562631E+03  0.50658037527E+03  0.45063856107E+03 0.  0.
      99925    2    3    3    0    0  0.78568803202E+02 -0.75112013725E+02  0.15631689720E+03  0.32464440636E+03  0.26295274631E+03 0.  0.
         25    1    4    4    0    0  0.17458894105E+02 -0.30121334995E+02  0.11280872022E+03  0.17200413734E+03  0.12509000000E+03 0.  0.
         25    1    3    3    0    0 -0.78568803202E+02  0.75112013725E+02  0.75088729115E+02  0.18193596891E+03  0.12509000000E+03 0.  0.
         25    1    4    4    0    0  0.61109909097E+02 -0.44990678729E+02  0.43508176974E+02  0.15264026902E+03  0.12509000000E+03 0.  0.
<mgrwt>
<rscale>  2 0.45063856E+03</rscale>
<asrwt>0</asrwt>
<pdfrwt beam="1">  1       21 0.54263676E-01 0.45063856E+03</pdfrwt>
<pdfrwt beam="2">  1       21 0.20233438E-01 0.45063856E+03</pdfrwt>
<totfact> 0.67103647E+04</totfact>
</mgrwt>
</event>
<event>
 7    0  0.4766352E-002  0.4525425E+03  0.7546771E-02  0.1026967E+00
         21   -1    0    0  502  501  0.00000000000E+00  0.00000000000E+00  0.17750327265E+03  0.17750327265E+03  0.00000000000E+00 0.  1.
         21   -1    0    0  501  502 -0.00000000000E+00 -0.00000000000E+00 -0.28843798642E+03  0.28843798642E+03  0.00000000000E+00 0.  1.
      99926    2    1    2    0    0  0.88817841970E-15  0.00000000000E+00 -0.11093471377E+03  0.46594125907E+03  0.45254253522E+03 0.  0.
      99925    2    3    3    0    0 -0.17039634507E+01 -0.72515831212E+02  0.16348809841E+02  0.27330156236E+03  0.26299241650E+03 0.  0.
         25    1    4    4    0    0 -0.18196221860E+02 -0.57856016543E+02  0.38756188868E+02  0.14431899187E+03  0.12509000000E+03 0.  0.
         25    1    3    3    0    0  0.17039634507E+01  0.72515831212E+02 -0.12728352361E+03  0.19263969672E+03  0.12509000000E+03 0.  0.
         25    1    4    4    0    0  0.16492258409E+02 -0.14659814669E+02 -0.22407379028E+02  0.12898257048E+03  0.12509000000E+03 0.  0.
<mgrwt>
<rscale>  2 0.45254254E+03</rscale>
<asrwt>0</asrwt>
<pdfrwt beam="1">  1       21 0.26103423E-01 0.45254254E+03</pdfrwt>
<pdfrwt beam="2">  1       21 0.42417350E-01 0.45254254E+03</pdfrwt>
<totfact> 0.69075634E+04</totfact>
</mgrwt>
</event>
<event>
 7    0  0.4766352E-002  0.4517374E+03  0.7546771E-02  0.1027205E+00
         21   -1    0    0  502  501  0.00000000000E+00  0.00000000000E+00  0.62342381743E+03  0.62342381743E+03  0.00000000000E+00 0. -1.
         21   -1    0    0  501  502 -0.00000000000E+00 -0.00000000000E+00 -0.81833047331E+02  0.81833047331E+02  0.00000000000E+00 0. -1.
      99926    2    1    2    0    0  0.14210854715E-13 -0.17763568394E-14  0.54159077010E+03  0.70525686477E+03  0.45173740496E+03 0.  0.
      99925    2    3    3    0    0  0.10909390671E+03 -0.10092659357E+02  0.32505674215E+03  0.43224068280E+03  0.26299577942E+03 0.  0.
         25    1    4    4    0    0  0.44803473628E+02 -0.23225413283E+02  0.21217801735E+03  0.25142352757E+03  0.12509000000E+03 0.  0.
         25    1    3    3    0    0 -0.10909390671E+03  0.10092659357E+02  0.21653402795E+03  0.27301618196E+03  0.12509000000E+03 0.  0.
         25    1    4    4    0    0  0.64290433081E+02  0.13132753925E+02  0.11287872481E+03  0.18081715523E+03  0.12509000000E+03 0.  0.
<mgrwt>
<rscale>  2 0.45173740E+03</rscale>
<asrwt>0</asrwt>
<pdfrwt beam="1">  1       21 0.91679971E-01 0.45173740E+03</pdfrwt>
<pdfrwt beam="2">  1       21 0.12034272E-01 0.45173740E+03</pdfrwt>
<totfact> 0.53991246E+04</totfact>
</mgrwt>
</event>
<event>
 7    0  0.4766352E-002  0.4469279E+03  0.7546771E-02  0.1028642E+00
         21   -1    0    0  502  501  0.00000000000E+00  0.00000000000E+00  0.30050936461E+03  0.30050936461E+03  0.00000000000E+00 0.  1.
         21   -1    0    0  501  502 -0.00000000000E+00 -0.00000000000E+00 -0.16617161777E+03  0.16617161777E+03  0.00000000000E+00 0.  1.
      99926    2    1    2    0    0  0.00000000000E+00 -0.71054273576E-14  0.13433774684E+03  0.46668098239E+03  0.44692785670E+03 0.  0.
      99925    2    3    3    0    0  0.87791547055E+02 -0.56282868422E+02  0.10215662867E+03  0.30067420698E+03  0.26285715694E+03 0.  0.
         25    1    4    4    0    0  0.46246920716E+01 -0.11621491251E+02  0.37933766159E+02  0.13131232064E+03  0.12509000000E+03 0.  0.
         25    1    4    4    0    0  0.83166854984E+02 -0.44661377170E+02  0.64222862510E+02  0.16936188635E+03  0.12509000000E+03 0.  0.
         25    1    3    3    0    0 -0.87791547055E+02  0.56282868422E+02  0.32181118173E+02  0.16600677540E+03  0.12509000000E+03 0.  0.
<mgrwt>
<rscale>  2 0.44692786E+03</rscale>
<asrwt>0</asrwt>
<pdfrwt beam="1">  1       21 0.44192553E-01 0.44692786E+03</pdfrwt>
<pdfrwt beam="2">  1       21 0.24437003E-01 0.44692786E+03</pdfrwt>
<totfact> 0.72197591E+04</totfact>
</mgrwt>
</event>
<event>
 7    0  0.4766352E-002  0.4363929E+03  0.7546771E-02  0.1031859E+00
         21   -1    0    0  502  501  0.00000000000E+00  0.00000000000E+00  0.64951521385E+03  0.64951521385E+03  0.00000000000E+00 0. -1.
         21   -1    0    0  501  502 -0.00000000000E+00 -0.00000000000E+00 -0.73300360325E+02  0.73300360325E+02  0.00000000000E+00 0. -1.
      99926    2    1    2    0    0  0.00000000000E+00  0.00000000000E+00  0.57621485352E+03  0.72281557417E+03  0.43639293858E+03 0.  0.
      99925    2    3    3    0    0 -0.86291777371E+02  0.41427958521E+01  0.30348708503E+03  0.41057948176E+03  0.26269310319E+03 0.  0.
         25    1    4    4    0    0 -0.26503467683E+02 -0.18976780789E+01  0.91643406746E+02  0.15732786492E+03  0.12509000000E+03 0.  0.
         25    1    4    4    0    0 -0.59788309688E+02  0.60404739310E+01  0.21184367829E+03  0.25325161684E+03  0.12509000000E+03 0.  0.
         25    1    3    3    0    0  0.86291777371E+02 -0.41427958521E+01  0.27272776849E+03  0.31223609241E+03  0.12509000000E+03 0.  0.
<mgrwt>
<rscale>  2 0.43639294E+03</rscale>
<asrwt>0</asrwt>
<pdfrwt beam="1">  1       21 0.95516940E-01 0.43639294E+03</pdfrwt>
<pdfrwt beam="2">  1       21 0.10779465E-01 0.43639294E+03</pdfrwt>
<totfact> 0.59990569E+04</totfact>
</mgrwt>
</event>
<event>
 7    0  0.4766352E-002  0.4483865E+03  0.7546771E-02  0.1028204E+00
         21   -1    0    0  502  501  0.00000000000E+00  0.00000000000E+00  0.12544966331E+03  0.12544966331E+03  0.00000000000E+00 0.  1.
         21   -1    0    0  501  502 -0.00000000000E+00 -0.00000000000E+00 -0.40065969656E+03  0.40065969656E+03  0.00000000000E+00 0.  1.
      99926    2    1    2    0    0  0.35527136788E-14  0.00000000000E+00 -0.27521003324E+03  0.52610935987E+03  0.44838654769E+03 0.  0.
      99925    2    3    3    0    0  0.31889838237E+02 -0.10005743694E+03 -0.19756429683E+03  0.34526461720E+03  0.26295922124E+03 0.  0.
         25    1    3    3    0    0 -0.31889838237E+02  0.10005743694E+03 -0.77645736409E+02  0.18084474267E+03  0.12509000000E+03 0.  0.
         25    1    4    4    0    0  0.64565009973E+01 -0.62169732596E+02 -0.14685440023E+03  0.20278186562E+03  0.12509000000E+03 0.  0.
         25    1    4    4    0    0  0.25433337240E+02 -0.37887704348E+02 -0.50709896605E+02  0.14248275158E+03  0.12509000000E+03 0.  0.
<mgrwt>
<rscale>  2 0.44838655E+03</rscale>
<asrwt>0</asrwt>
<pdfrwt beam="1">  1       21 0.18448480E-01 0.44838655E+03</pdfrwt>
<pdfrwt beam="2">  1       21 0.58920544E-01 0.44838655E+03</pdfrwt>
<totfact> 0.66908222E+04</totfact>
</mgrwt>
</event>
<event>
 7    0  0.4766352E-002  0.4540875E+03  0.7546771E-02  0.1026510E+00
         21   -1    0    0  502  501  0.00000000000E+00  0.00000000000E+00  0.13469201905E+03  0.13469201905E+03  0.00000000000E+00 0. -1.
         21   -1    0    0  501  502 -0.00000000000E+00 -0.00000000000E+00 -0.38271652335E+03  0.38271652335E+03  0.00000000000E+00 0. -1.
      99926    2    1    2    0    0  0.00000000000E+00  0.00000000000E+00 -0.24802450430E+03  0.51740854240E+03  0.45408748608E+03 0.  0.
      99925    2    3    3    0    0  0.10729971237E+03 -0.29832201777E+02 -0.13947051399E+03  0.31782230678E+03  0.26297491492E+03 0.  0.
         25    1    3    3    0    0 -0.10729971237E+03  0.29832201777E+02 -0.10855399031E+03  0.19958623562E+03  0.12509000000E+03 0.  0.
         25    1    4    4    0    0  0.17446054589E+02 -0.24375604989E+02 -0.85842646061E+02  0.15464476364E+03  0.12509000000E+03 0.  0.
         25    1    4    4    0    0  0.89853657781E+02 -0.54565967883E+01 -0.53627867930E+02  0.16317754314E+03  0.12509000000E+03 0.  0.
<mgrwt>
<rscale>  2 0.45408749E+03</rscale>
<asrwt>0</asrwt>
<pdfrwt beam="1">  1       21 0.19807650E-01 0.45408749E+03</pdfrwt>
<pdfrwt beam="2">  1       21 0.56281841E-01 0.45408749E+03</pdfrwt>
<totfact> 0.64530121E+04</totfact>
</mgrwt>
</event>
<event>
 7    0  0.4766352E-002  0.4561813E+03  0.7546771E-02  0.1025895E+00
         21   -1    0    0  502  501  0.00000000000E+00  0.00000000000E+00  0.43612679625E+03  0.43612679625E+03  0.00000000000E+00 0.  1.
         21   -1    0    0  501  502 -0.00000000000E+00 -0.00000000000E+00 -0.11928950317E+03  0.11928950317E+03  0.00000000000E+00 0.  1.
      99926    2    1    2    0    0 -0.35527136788E-14 -0.66613381478E-15  0.31683729308E+03  0.55541629941E+03  0.45618131852E+03 0.  0.
      99925    2    3    3    0    0 -0.17349892292E+02 -0.17894702575E+01  0.60423680871E+02  0.26958475883E+03  0.26214633321E+03 0.  0.
         25    1    4    4    0    0 -0.23327384464E+02 -0.26911462659E+02  0.44675701329E+01  0.13013785372E+03  0.12509000000E+03 0.  0.
         25    1    3    3    0    0  0.17349892292E+02  0.17894702575E+01  0.25641361221E+03  0.28583154058E+03  0.12509000000E+03 0.  0.
         25    1    4    4    0    0  0.59774921711E+01  0.25121992401E+02  0.55956110739E+02  0.13944690511E+03  0.12509000000E+03 0.  0.
<mgrwt>
<rscale>  2 0.45618132E+03</rscale>
<asrwt>0</asrwt>
<pdfrwt beam="1">  1       21 0.64136293E-01 0.45618132E+03</pdfrwt>
<pdfrwt beam="2">  1       21 0.17542574E-01 0.45618132E+03</pdfrwt>
<totfact> 0.60938528E+04</totfact>
</mgrwt>
</event>
<event>
 7    0  0.4766352E-002  0.4487443E+03  0.7546771E-02  0.1028097E+00
         21   -1    0    0  502  501  0.00000000000E+00  0.00000000000E+00  0.65296200213E+02  0.65296200213E+02  0.00000000000E+00 0. -1.
         21   -1    0    0  501  502 -0.00000000000E+00 -0.00000000000E+00 -0.77099206544E+03  0.77099206544E+03  0.00000000000E+00 0. -1.
      99926    2    1    2    0    0  0.35527136788E-14  0.00000000000E+00 -0.70569586523E+03  0.83628826566E+03  0.44874425798E+03 0.  0.
      99925    2    3    3    0    0  0.30022309116E+02  0.35442133550E+02 -0.62672142101E+03  0.68123358235E+03  0.26294860770E+03 0.  0.
         25    1    4    4    0    0 -0.21579492291E+02  0.25519800107E+01 -0.32531415180E+03  0.34921195934E+03  0.12509000000E+03 0.  0.
         25    1    4    4    0    0  0.51601801407E+02  0.32890153539E+02 -0.30140726922E+03  0.33202162301E+03  0.12509000000E+03 0.  0.
         25    1    3    3    0    0 -0.30022309116E+02 -0.35442133550E+02 -0.78974444216E+02  0.15505468330E+03  0.12509000000E+03 0.  0.
<mgrwt>
<rscale>  2 0.44874426E+03</rscale>
<asrwt>0</asrwt>
<pdfrwt beam="1">  1       21 0.96023829E-02 0.44874426E+03</pdfrwt>
<pdfrwt beam="2">  1       21 0.11338118E+00 0.44874426E+03</pdfrwt>
<totfact> 0.48390774E+04</totfact>
</mgrwt>
</event>
<event>
 7    0  0.4766352E-002  0.4582612E+03  0.7546771E-02  0.1025287E+00
         21   -1    0    0  502  501  0.00000000000E+00  0.00000000000E+00  0.71068618050E+03  0.71068618050E+03  0.00000000000E+00 0. -1.
         21   -1    0    0  501  502 -0.00000000000E+00 -0.00000000000E+00 -0.73873443498E+02  0.73873443498E+02  0.00000000000E+00 0. -1.
      99926    2    1    2    0    0  0.00000000000E+00  0.00000000000E+00  0.63681273701E+03  0.78455962400E+03  0.45826121547E+03 0.  0.
      99925    2    3    3    0    0  0.85003218670E+02 -0.75509908449E+02  0.44175661870E+03  0.52644784425E+03  0.26281386777E+03 0.  0.
         25    1    4    4    0    0  0.41605539434E+02 -0.73440888101E+02  0.19687970183E+03  0.24805989206E+03  0.12509000000E+03 0.  0.
         25    1    3    3    0    0 -0.85003218670E+02  0.75509908449E+02  0.19505611831E+03  0.25811177976E+03  0.12509000000E+03 0.  0.
         25    1    4    4    0    0  0.43397679235E+02 -0.20690203480E+01  0.24487691687E+03  0.27838795219E+03  0.12509000000E+03 0.  0.
<mgrwt>
<rscale>  2 0.45826122E+03</rscale>
<asrwt>0</asrwt>
<pdfrwt beam="1">  1       21 0.10451267E+00 0.45826122E+03</pdfrwt>
<pdfrwt beam="2">  1       21 0.10863742E-01 0.45826122E+03</pdfrwt>
<totfact> 0.47298396E+04</totfact>
</mgrwt>
</event>
<event>
 7    0  0.4766352E-002  0.4544131E+03  0.7546771E-02  0.1026414E+00
         21   -1    0    0  502  501  0.00000000000E+00  0.00000000000E+00  0.94769115157E+03  0.94769115157E+03  0.00000000000E+00 0.  1.
         21   -1    0    0  501  502 -0.00000000000E+00 -0.00000000000E+00 -0.54472201667E+02  0.54472201667E+02  0.00000000000E+00 0.  1.
      99926    2    1    2    0    0  0.00000000000E+00  0.00000000000E+00  0.89321894991E+03  0.10021633532E+04  0.45441313153E+03 0.  0.
      99925    2    3    3    0    0  0.29614292435E+02  0.43214595483E+02  0.78190546478E+03  0.82671333856E+03  0.26331403442E+03 0.  0.
         25    1    4    4    0    0 -0.18934304567E+02  0.19909645149E+01  0.32628320735E+03  0.34995815654E+03  0.12509000000E+03 0.  0.
         25    1    3    3    0    0 -0.29614292435E+02 -0.43214595483E+02  0.11131348513E+03  0.17545001468E+03  0.12509000000E+03 0.  0.
         25    1    4    4    0    0  0.48548597002E+02  0.41223630968E+02  0.45562225743E+03  0.47675518203E+03  0.12509000000E+03 0.  0.
<mgrwt>
<rscale>  2 0.45441313E+03</rscale>
<asrwt>0</asrwt>
<pdfrwt beam="1">  1       21 0.13936634E+00 0.45441313E+03</pdfrwt>
<pdfrwt beam="2">  1       21 0.80106185E-02 0.45441313E+03</pdfrwt>
<totfact> 0.39262398E+04</totfact>
</mgrwt>
</event>
<event>
 7    0  0.4766352E-002  0.4561903E+03  0.7546771E-02  0.1025892E+00
         21   -1    0    0  502  501  0.00000000000E+00  0.00000000000E+00  0.91289787913E+03  0.91289787913E+03  0.00000000000E+00 0. -1.
         21   -1    0    0  501  502 -0.00000000000E+00 -0.00000000000E+00 -0.56991471215E+02  0.56991471215E+02  0.00000000000E+00 0. -1.
      99926    2    1    2    0    0  0.00000000000E+00  0.00000000000E+00  0.85590640792E+03  0.96988935035E+03  0.45619028135E+03 0.  0.
      99925    2    3    3    0    0  0.32524757235E+02 -0.63345915988E+02  0.34789202283E+03  0.44187733489E+03  0.26297557803E+03 0.  0.
         25    1    4    4    0    0 -0.13265878524E+02 -0.32619887721E+02  0.21501231463E+03  0.25123264945E+03  0.12509000000E+03 0.  0.
         25    1    3    3    0    0 -0.32524757235E+02  0.63345915988E+02  0.50801438509E+03  0.52801201545E+03  0.12509000000E+03 0.  0.
         25    1    4    4    0    0  0.45790635759E+02 -0.30726028267E+02  0.13287970820E+03  0.19064468544E+03  0.12509000000E+03 0.  0.
<mgrwt>
<rscale>  2 0.45619028E+03</rscale>
<asrwt>0</asrwt>
<pdfrwt beam="1">  1       21 0.13424968E+00 0.45619028E+03</pdfrwt>
<pdfrwt beam="2">  1       21 0.83810993E-02 0.45619028E+03</pdfrwt>
<totfact> 0.39972501E+04</totfact>
</mgrwt>
</event>
<event>
 7    0  0.4766352E-002  0.4640747E+03  0.7546771E-02  0.1023606E+00
         21   -1    0    0  502  501  0.00000000000E+00  0.00000000000E+00  0.38304849343E+02  0.38304849343E+02  0.00000000000E+00 0.  1.
         21   -1    0    0  501  502 -0.00000000000E+00 -0.00000000000E+00 -0.14056008598E+04  0.14056008598E+04  0.00000000000E+00 0.  1.
      99926    2    1    2    0    0  0.00000000000E+00  0.35527136788E-14 -0.13672960104E+04  0.14439057091E+04  0.46407468869E+03 0.  0.
      99925    2    3    3    0    0 -0.11437823706E+03 -0.21381728418E+02 -0.74429127729E+03  0.79790109223E+03  0.26293932401E+03 0.  0.
         25    1    4    4    0    0 -0.29904919586E+02  0.13664132118E+02 -0.39885132570E+03  0.41929810497E+03  0.12509000000E+03 0.  0.
         25    1    4    4    0    0 -0.84473317471E+02 -0.35045860537E+02 -0.34543995159E+03  0.37860298726E+03  0.12509000000E+03 0.  0.
         25    1    3    3    0    0  0.11437823706E+03  0.21381728418E+02 -0.62300473313E+03  0.64600461687E+03  0.12509000000E+03 0.  0.
<mgrwt>
<rscale>  2 0.46407469E+03</rscale>
<asrwt>0</asrwt>
<pdfrwt beam="1">  1       21 0.56330656E-02 0.46407469E+03</pdfrwt>
<pdfrwt beam="2">  1       21 0.20670603E+00 0.46407469E+03</pdfrwt>
<totfact> 0.23485094E+04</totfact>
</mgrwt>
</event>
<event>
 7    0  0.4766352E-002  0.4531662E+03  0.7546771E-02  0.1026782E+00
         21   -1    0    0  502  501  0.00000000000E+00  0.00000000000E+00  0.44432492910E+02  0.44432492910E+02  0.00000000000E+00 0.  1.
         21   -1    0    0  501  502 -0.00000000000E+00 -0.00000000000E+00 -0.11554582542E+04  0.11554582542E+04  0.00000000000E+00 0.  1.
      99926    2    1    2    0    0  0.00000000000E+00  0.00000000000E+00 -0.11110257613E+04  0.11998907471E+04  0.45316615357E+03 0.  0.
      99925    2    3    3    0    0 -0.17389050016E+02 -0.11008085111E+03 -0.70360917280E+03  0.75937291827E+03  0.26298514810E+03 0.  0.
         25    1    3    3    0    0  0.17389050016E+02  0.11008085111E+03 -0.40741658846E+03  0.44051782880E+03  0.12509000000E+03 0.  0.
         25    1    4    4    0    0 -0.10463336714E+02 -0.11996669122E+02 -0.33154492133E+03  0.35471530055E+03  0.12509000000E+03 0.  0.
         25    1    4    4    0    0 -0.69257133015E+01 -0.98084181988E+02 -0.37206425147E+03  0.40465761772E+03  0.12509000000E+03 0.  0.
<mgrwt>
<rscale>  2 0.45316615E+03</rscale>
<asrwt>0</asrwt>
<pdfrwt beam="1">  1       21 0.65341883E-02 0.45316615E+03</pdfrwt>
<pdfrwt beam="2">  1       21 0.16992038E+00 0.45316615E+03</pdfrwt>
<totfact> 0.32622948E+04</totfact>
</mgrwt>
</event>
<event>
 7    0  0.4766352E-002  0.4611620E+03  0.7546771E-02  0.1024445E+00
         21   -1    0    0  502  501  0.00000000000E+00  0.00000000000E+00  0.82739586134E+03  0.82739586134E+03  0.00000000000E+00 0. -1.
         21   -1    0    0  501  502 -0.00000000000E+00 -0.00000000000E+00 -0.64258956514E+02  0.64258956514E+02  0.00000000000E+00 0. -1.
      99926    2    1    2    0    0  0.00000000000E+00  0.00000000000E+00  0.76313690483E+03  0.89165481786E+03  0.46116198748E+03 0.  0.
      99925    2    3    3    0    0 -0.27886850734E+02  0.95513460934E+02  0.35200149555E+03  0.45054221259E+03  0.26302611048E+03 0.  0.
         25    1    3    3    0    0  0.27886850734E+02 -0.95513460934E+02  0.41113540928E+03  0.44111260527E+03  0.12509000000E+03 0.  0.
         25    1    4    4    0    0 -0.23596442532E+02  0.85328742091E+02  0.16400077349E+03  0.22445834387E+03  0.12509000000E+03 0.  0.
         25    1    4    4    0    0 -0.42904082017E+01  0.10184718843E+02  0.18800072206E+03  0.22608386872E+03  0.12509000000E+03 0.  0.
<mgrwt>
<rscale>  2 0.46116199E+03</rscale>
<asrwt>0</asrwt>
<pdfrwt beam="1">  1       21 0.12167586E+00 0.46116199E+03</pdfrwt>
<pdfrwt beam="2">  1       21 0.94498470E-02 0.46116199E+03</pdfrwt>
<totfact> 0.41554813E+04</totfact>
</mgrwt>
</event>
<event>
 7    0  0.4766352E-002  0.4261372E+03  0.7546771E-02  0.1035087E+00
         21   -1    0    0  502  501  0.00000000000E+00  0.00000000000E+00  0.22341054353E+03  0.22341054353E+03  0.00000000000E+00 0.  1.
         21   -1    0    0  501  502 -0.00000000000E+00 -0.00000000000E+00 -0.20320544367E+03  0.20320544367E+03  0.00000000000E+00 0.  1.
      99926    2    1    2    0    0 -0.88817841970E-15  0.00000000000E+00  0.20205099856E+02  0.42661598721E+03  0.42613724841E+03 0.  0.
      99925    2    3    3    0    0  0.46324402602E+01  0.82530166756E+02  0.23654013368E+02  0.27664235275E+03  0.26294256228E+03 0.  0.
         25    1    4    4    0    0 -0.21325962969E+02  0.51645303649E+02  0.43444945622E+02  0.14372545177E+03  0.12509000000E+03 0.  0.
         25    1    3    3    0    0 -0.46324402602E+01 -0.82530166756E+02 -0.34489135118E+01  0.14997363446E+03  0.12509000000E+03 0.  0.
         25    1    4    4    0    0  0.25958403229E+02  0.30884863107E+02 -0.19790932254E+02  0.13291690098E+03  0.12509000000E+03 0.  0.
<mgrwt>
<rscale>  2 0.42613725E+03</rscale>
<asrwt>0</asrwt>
<pdfrwt beam="1">  1       21 0.32854492E-01 0.42613725E+03</pdfrwt>
<pdfrwt beam="2">  1       21 0.29883154E-01 0.42613725E+03</pdfrwt>
<totfact> 0.89601216E+04</totfact>
</mgrwt>
</event>
<event>
 7    0  0.4766352E-002  0.4529101E+03  0.7546771E-02  0.1026858E+00
         21   -1    0    0  502  501  0.00000000000E+00  0.00000000000E+00  0.55965833424E+03  0.55965833424E+03  0.00000000000E+00 0. -1.
         21   -1    0    0  501  502 -0.00000000000E+00 -0.00000000000E+00 -0.91630722349E+02  0.91630722349E+02  0.00000000000E+00 0. -1.
      99926    2    1    2    0    0  0.00000000000E+00  0.00000000000E+00  0.46802761189E+03  0.65128905659E+03  0.45291013429E+03 0.  0.
      99925    2    3    3    0    0 -0.41273005911E+02  0.89133319861E+02  0.36964129378E+03  0.46427144935E+03  0.26318260369E+03 0.  0.
         25    1    3    3    0    0  0.41273005911E+02 -0.89133319861E+02  0.98386318107E+02  0.18701760724E+03  0.12509000000E+03 0.  0.
         25    1    4    4    0    0 -0.41437962150E+02  0.27411003933E+02  0.23255085198E+03  0.26869290035E+03  0.12509000000E+03 0.  0.
         25    1    4    4    0    0  0.16495623821E+00  0.61722315927E+02  0.13709044180E+03  0.19557854900E+03  0.12509000000E+03 0.  0.
<mgrwt>
<rscale>  2 0.45291013E+03</rscale>
<asrwt>0</asrwt>
<pdfrwt beam="1">  1       21 0.82302694E-01 0.45291013E+03</pdfrwt>
<pdfrwt beam="2">  1       21 0.13475107E-01 0.45291013E+03</pdfrwt>
<totfact> 0.56553879E+04</totfact>
</mgrwt>
</event>
<event>
 7    0  0.4766352E-002  0.4282356E+03  0.7546771E-02  0.1034419E+00
         21   -1    0    0  502  501  0.00000000000E+00  0.00000000000E+00  0.74832044829E+02  0.74832044829E+02  0.00000000000E+00 0.  1.
         21   -1    0    0  501  502 -0.00000000000E+00 -0.00000000000E+00 -0.61265782310E+03  0.61265782310E+03  0.00000000000E+00 0.  1.
      99926    2    1    2    0    0  0.35527136788E-14  0.00000000000E+00 -0.53782577827E+03  0.68748986793E+03  0.42823562525E+03 0.  0.
      99925    2    3    3    0    0 -0.81081886534E+01 -0.74830734677E+02 -0.41311426038E+03  0.49548504411E+03  0.26301455327E+03 0.  0.
         25    1    4    4    0    0 -0.36278555224E+02 -0.18012234378E+02 -0.22866197851E+03  0.26376956358E+03  0.12509000000E+03 0.  0.
         25    1    4    4    0    0  0.28170366570E+02 -0.56818500299E+02 -0.18445228187E+03  0.23171548053E+03  0.12509000000E+03 0.  0.
         25    1    3    3    0    0  0.81081886534E+01  0.74830734677E+02 -0.12471151790E+03  0.19200482382E+03  0.12509000000E+03 0.  0.
<mgrwt>
<rscale>  2 0.42823563E+03</rscale>
<asrwt>0</asrwt>
<pdfrwt beam="1">  1       21 0.11004713E-01 0.42823563E+03</pdfrwt>
<pdfrwt beam="2">  1       21 0.90096734E-01 0.42823563E+03</pdfrwt>
<totfact> 0.66537142E+04</totfact>
</mgrwt>
</event>
<event>
 7    0  0.4766352E-002  0.4572150E+03  0.7546771E-02  0.1025592E+00
         21   -1    0    0  502  501  0.00000000000E+00  0.00000000000E+00  0.78863922911E+02  0.78863922911E+02  0.00000000000E+00 0.  1.
         21   -1    0    0  501  502 -0.00000000000E+00 -0.00000000000E+00 -0.66267793057E+03  0.66267793057E+03  0.00000000000E+00 0.  1.
      99926    2    1    2    0    0 -0.66613381478E-15  0.00000000000E+00 -0.58381400766E+03  0.74154185348E+03  0.45721496577E+03 0.  0.
      99925    2    3    3    0    0  0.12932492507E+01  0.66036202980E+02 -0.21332852059E+03  0.34496972029E+03  0.26293078485E+03 0.  0.
         25    1    4    4    0    0  0.87624615678E+01  0.41220611677E+00 -0.70088830974E+02  0.14365550102E+03  0.12509000000E+03 0.  0.
         25    1    4    4    0    0 -0.74692123171E+01  0.65623996864E+02 -0.14323968962E+03  0.20131421927E+03  0.12509000000E+03 0.  0.
         25    1    3    3    0    0 -0.12932492507E+01 -0.66036202980E+02 -0.37048548707E+03  0.39657213320E+03  0.12509000000E+03 0.  0.
<mgrwt>
<rscale>  2 0.45721497E+03</rscale>
<asrwt>0</asrwt>
<pdfrwt beam="1">  1       21 0.11597636E-01 0.45721497E+03</pdfrwt>
<pdfrwt beam="2">  1       21 0.97452636E-01 0.45721497E+03</pdfrwt>
<totfact> 0.49831492E+04</totfact>
</mgrwt>
</event>
<event>
 7    0  0.4766352E-002  0.4538564E+03  0.7546771E-02  0.1026578E+00
         21   -1    0    0  502  501  0.00000000000E+00  0.00000000000E+00  0.10815635444E+03  0.10815635444E+03  0.00000000000E+00 0.  1.
         21   -1    0    0  501  502 -0.00000000000E+00 -0.00000000000E+00 -0.47612935110E+03  0.47612935110E+03  0.00000000000E+00 0.  1.
      99926    2    1    2    0    0  0.71054273576E-14 -0.14210854715E-13 -0.36797299665E+03  0.58428570554E+03  0.45385643042E+03 0.  0.
      99925    2    3    3    0    0  0.46594535550E+02 -0.10192241727E+03 -0.23100715071E+03  0.36756842210E+03  0.26302663623E+03 0.  0.
         25    1    3    3    0    0 -0.46594535550E+02  0.10192241727E+03 -0.13696584594E+03  0.21671728344E+03  0.12509000000E+03 0.  0.
         25    1    4    4    0    0  0.57443549184E+02 -0.71264583417E+02 -0.14551269458E+03  0.21260257425E+03  0.12509000000E+03 0.  0.
         25    1    4    4    0    0 -0.10849013634E+02 -0.30657833852E+02 -0.85494456127E+02  0.15496584786E+03  0.12509000000E+03 0.  0.
<mgrwt>
<rscale>  2 0.45385643E+03</rscale>
<asrwt>0</asrwt>
<pdfrwt beam="1">  1       21 0.15905346E-01 0.45385643E+03</pdfrwt>
<pdfrwt beam="2">  1       21 0.70019022E-01 0.45385643E+03</pdfrwt>
<totfact> 0.60198427E+04</totfact>
</mgrwt>
</event>
<event>
 7    0  0.4766352E-002  0.4680042E+03  0.7546771E-02  0.1022485E+00
         21   -1    0    0  502  501  0.00000000000E+00  0.00000000000E+00  0.12080030771E+03  0.12080030771E+03  0.00000000000E+00 0.  1.
         21   -1    0    0  501  502 -0.00000000000E+00 -0.00000000000E+00 -0.45328506190E+03  0.45328506190E+03  0.00000000000E+00 0.  1.
      99926    2    1    2    0    0  0.00000000000E+00  0.00000000000E+00 -0.33248475419E+03  0.57408536961E+03  0.46800416647E+03 0.  0.
      99925    2    3    3    0    0 -0.89707334153E+02 -0.82576718712E+02 -0.17340097165E+03  0.33781967544E+03  0.26303595928E+03 0.  0.
         25    1    4    4    0    0 -0.34538201805E+02 -0.65672861682E+02 -0.12509609190E+03  0.19183939234E+03  0.12509000000E+03 0.  0.
         25    1    4    4    0    0 -0.55169132348E+02 -0.16903857029E+02 -0.48304879751E+02  0.14598028310E+03  0.12509000000E+03 0.  0.
         25    1    3    3    0    0  0.89707334153E+02  0.82576718712E+02 -0.15908378254E+03  0.23626569417E+03  0.12509000000E+03 0.  0.
<mgrwt>
<rscale>  2 0.46800417E+03</rscale>
<asrwt>0</asrwt>
<pdfrwt beam="1">  1       21 0.17764751E-01 0.46800417E+03</pdfrwt>
<pdfrwt beam="2">  1       21 0.66659567E-01 0.46800417E+03</pdfrwt>
<totfact> 0.54480434E+04</totfact>
</mgrwt>
</event>
<event>
 7    0  0.4766352E-002  0.4552190E+03  0.7546771E-02  0.1026177E+00
         21   -1    0    0  502  501  0.00000000000E+00  0.00000000000E+00  0.56840315141E+03  0.56840315141E+03  0.00000000000E+00 0.  1.
         21   -1    0    0  501  502 -0.00000000000E+00 -0.00000000000E+00 -0.91143188357E+02  0.91143188357E+02  0.00000000000E+00 0.  1.
      99926    2    1    2    0    0  0.00000000000E+00 -0.26645352591E-14  0.47725996305E+03  0.65954633976E+03  0.45521896046E+03 0.  0.
      99925    2    3    3    0    0 -0.97336892889E+02  0.33711332164E+01  0.38511227480E+03  0.47617638638E+03  0.26257694392E+03 0.  0.
         25    1    3    3    0    0  0.97336892889E+02 -0.33711332164E+01  0.92147688245E+02  0.18336995339E+03  0.12509000000E+03 0.  0.
         25    1    4    4    0    0 -0.30931563116E+02 -0.19719909035E+02  0.13393216946E+03  0.18689828925E+03  0.12509000000E+03 0.  0.
         25    1    4    4    0    0 -0.66405329773E+02  0.23091042252E+02  0.25118010534E+03  0.28927809712E+03  0.12509000000E+03 0.  0.
<mgrwt>
<rscale>  2 0.45521896E+03</rscale>
<asrwt>0</asrwt>
<pdfrwt beam="1">  1       21 0.83588697E-01 0.45521896E+03</pdfrwt>
<pdfrwt beam="2">  1       21 0.13403410E-01 0.45521896E+03</pdfrwt>
<totfact> 0.55059350E+04</totfact>
</mgrwt>
</event>
<event>
 7    0  0.4766352E-002  0.4583244E+03  0.7546771E-02  0.1025268E+00
         21   -1    0    0  502  501  0.00000000000E+00  0.00000000000E+00  0.77478055349E+02  0.77478055349E+02  0.00000000000E+00 0. -1.
         21   -1    0    0  501  502 -0.00000000000E+00 -0.00000000000E+00 -0.67780878255E+03  0.67780878255E+03  0.00000000000E+00 0. -1.
      99926    2    1    2    0    0 -0.17763568394E-14  0.00000000000E+00 -0.60033072720E+03  0.75528683790E+03  0.45832436710E+03 0.  0.
      99925    2    3    3    0    0  0.12305789082E+02 -0.78448310057E+02 -0.23663399864E+03  0.36256761471E+03  0.26297158806E+03 0.  0.
         25    1    4    4    0    0  0.44054419844E+02 -0.44417258518E+02 -0.13913651013E+03  0.19728193357E+03  0.12509000000E+03 0.  0.
         25    1    3    3    0    0 -0.12305789082E+02  0.78448310057E+02 -0.36369672856E+03  0.39271922319E+03  0.12509000000E+03 0.  0.
         25    1    4    4    0    0 -0.31748630763E+02 -0.34031051539E+02 -0.97497488508E+02  0.16528568114E+03  0.12509000000E+03 0.  0.
<mgrwt>
<rscale>  2 0.45832437E+03</rscale>
<asrwt>0</asrwt>
<pdfrwt beam="1">  1       21 0.11393832E-01 0.45832437E+03</pdfrwt>
<pdfrwt beam="2">  1       21 0.99677761E-01 0.45832437E+03</pdfrwt>
<totfact> 0.48716726E+04</totfact>
</mgrwt>
</event>
<event>
 7    0  0.4766352E-002  0.4424355E+03  0.7546771E-02  0.1030002E+00
         21   -1    0    0  502  501  0.00000000000E+00  0.00000000000E+00  0.14052513249E+03  0.14052513249E+03  0.00000000000E+00 0.  1.
         21   -1    0    0  501  502 -0.00000000000E+00 -0.00000000000E+00 -0.34824577305E+03  0.34824577305E+03  0.00000000000E+00 0.  1.
      99926    2    1    2    0    0  0.35527136788E-14  0.00000000000E+00 -0.20772064056E+03  0.48877090554E+03  0.44243545697E+03 0.  0.
      99925    2    3    3    0    0  0.24166510338E+02  0.97402440279E+02 -0.14569899193E+03  0.31682484251E+03  0.26282794560E+03 0.  0.
         25    1    4    4    0    0 -0.25109423376E+02  0.64168506485E+02 -0.71644363185E+02  0.15977641642E+03  0.12509000000E+03 0.  0.
         25    1    4    4    0    0  0.49275933714E+02  0.33233933793E+02 -0.74054628742E+02  0.15704842609E+03  0.12509000000E+03 0.  0.
         25    1    3    3    0    0 -0.24166510338E+02 -0.97402440279E+02 -0.62021648636E+02  0.17194606304E+03  0.12509000000E+03 0.  0.
<mgrwt>
<rscale>  2 0.44243546E+03</rscale>
<asrwt>0</asrwt>
<pdfrwt beam="1">  1       21 0.20665461E-01 0.44243546E+03</pdfrwt>
<pdfrwt beam="2">  1       21 0.51212614E-01 0.44243546E+03</pdfrwt>
<totfact> 0.73089554E+04</totfact>
</mgrwt>
</event>
<event>
 7    0  0.4766352E-002  0.4545107E+03  0.7546771E-02  0.1026385E+00
         21   -1    0    0  502  501  0.00000000000E+00  0.00000000000E+00  0.10382182925E+03  0.10382182925E+03  0.00000000000E+00 0. -1.
         21   -1    0    0  501  502 -0.00000000000E+00 -0.00000000000E+00 -0.49743861232E+03  0.49743861232E+03  0.00000000000E+00 0. -1.
      99926    2    1    2    0    0  0.00000000000E+00  0.00000000000E+00 -0.39361678307E+03  0.60126044157E+03  0.45451066729E+03 0.  0.
      99925    2    3    3    0    0 -0.43273255149E+02  0.83579495501E+02 -0.16587180569E+03  0.32490308325E+03  0.26304077802E+03 0.  0.
         25    1    4    4    0    0 -0.18260072271E+02  0.36428756388E+02 -0.12840235278E+03  0.18383459095E+03  0.12509000000E+03 0.  0.
         25    1    4    4    0    0 -0.25013182877E+02  0.47150739114E+02 -0.37469452914E+02  0.14106849229E+03  0.12509000000E+03 0.  0.
         25    1    3    3    0    0  0.43273255149E+02 -0.83579495501E+02 -0.22774497738E+03  0.27635735832E+03  0.12509000000E+03 0.  0.
<mgrwt>
<rscale>  2 0.45451067E+03</rscale>
<asrwt>0</asrwt>
<pdfrwt beam="1">  1       21 0.15267916E-01 0.45451067E+03</pdfrwt>
<pdfrwt beam="2">  1       21 0.73152738E-01 0.45451067E+03</pdfrwt>
<totfact> 0.58827861E+04</totfact>
</mgrwt>
</event>
<event>
 7    0  0.4766352E-002  0.4374809E+03  0.7546771E-02  0.1031523E+00
         21   -1    0    0  502  501  0.00000000000E+00  0.00000000000E+00  0.13866222621E+03  0.13866222621E+03  0.00000000000E+00 0. -1.
         21   -1    0    0  501  502 -0.00000000000E+00 -0.00000000000E+00 -0.34506433159E+03  0.34506433159E+03  0.00000000000E+00 0. -1.
      99926    2    1    2    0    0  0.00000000000E+00 -0.71054273576E-14 -0.20640210538E+03  0.48372655780E+03  0.43748091800E+03 0.  0.
      99925    2    3    3    0    0  0.80963763730E+02 -0.51435377366E+02 -0.12609771198E+03  0.30681688373E+03  0.26274557673E+03 0.  0.
         25    1    4    4    0    0  0.56886779858E+02  0.89692404073E+01 -0.49258559639E+02  0.14625480093E+03  0.12509000000E+03 0.  0.
         25    1    4    4    0    0  0.24076983872E+02 -0.60404617773E+02 -0.76839152341E+02  0.16056208280E+03  0.12509000000E+03 0.  0.
         25    1    3    3    0    0 -0.80963763730E+02  0.51435377366E+02 -0.80304393402E+02  0.17690967408E+03  0.12509000000E+03 0.  0.
<mgrwt>
<rscale>  2 0.43748092E+03</rscale>
<asrwt>0</asrwt>
<pdfrwt beam="1">  1       21 0.20391504E-01 0.43748092E+03</pdfrwt>
<pdfrwt beam="2">  1       21 0.50744753E-01 0.43748092E+03</pdfrwt>
<totfact> 0.76532452E+04</totfact>
</mgrwt>
</event>
<event>
 7    0  0.4766352E-002  0.4564221E+03  0.7546771E-02  0.1025824E+00
         21   -1    0    0  502  501  0.00000000000E+00  0.00000000000E+00  0.87189520704E+02  0.87189520704E+02  0.00000000000E+00 0.  1.
         21   -1    0    0  501  502 -0.00000000000E+00 -0.00000000000E+00 -0.59732286436E+03  0.59732286436E+03  0.00000000000E+00 0.  1.
      99926    2    1    2    0    0  0.00000000000E+00  0.00000000000E+00 -0.51013334366E+03  0.68451238507E+03  0.45642214779E+03 0.  0.
      99925    2    3    3    0    0 -0.81828681835E+02  0.35664071475E+02 -0.21309842576E+03  0.35007986614E+03  0.26301542626E+03 0.  0.
         25    1    4    4    0    0 -0.62542827432E+02 -0.30980332550E+01 -0.74755134896E+02  0.15860971397E+03  0.12509000000E+03 0.  0.
         25    1    4    4    0    0 -0.19285854403E+02  0.38762104730E+02 -0.13834329086E+03  0.19147015216E+03  0.12509000000E+03 0.  0.
         25    1    3    3    0    0  0.81828681835E+02 -0.35664071475E+02 -0.29703491790E+03  0.33443251893E+03  0.12509000000E+03 0.  0.
<mgrwt>
<rscale>  2 0.45642215E+03</rscale>
<asrwt>0</asrwt>
<pdfrwt beam="1">  1       21 0.12821989E-01 0.45642215E+03</pdfrwt>
<pdfrwt beam="2">  1       21 0.87841593E-01 0.45642215E+03</pdfrwt>
<totfact> 0.53154506E+04</totfact>
</mgrwt>
</event>
<event>
 7    0  0.4766352E-002  0.4554950E+03  0.7546771E-02  0.1026096E+00
         21   -1    0    0  502  501  0.00000000000E+00  0.00000000000E+00  0.15635976732E+03  0.15635976732E+03  0.00000000000E+00 0.  1.
         21   -1    0    0  501  502 -0.00000000000E+00 -0.00000000000E+00 -0.33172808836E+03  0.33172808836E+03  0.00000000000E+00 0.  1.
      99926    2    1    2    0    0  0.00000000000E+00  0.00000000000E+00 -0.17536832104E+03  0.48808785568E+03  0.45549501297E+03 0.  0.
      99925    2    3    3    0    0 -0.78819052054E+02 -0.39958620424E+02 -0.33487499600E+02  0.27931331244E+03  0.26284097771E+03 0.  0.
         25    1    4    4    0    0 -0.48712768825E+02 -0.46472126894E+02 -0.47356420982E+02  0.14974221560E+03  0.12509000000E+03 0.  0.
         25    1    3    3    0    0  0.78819052054E+02  0.39958620424E+02 -0.14188082144E+03  0.20877454324E+03  0.12509000000E+03 0.  0.
         25    1    4    4    0    0 -0.30106283230E+02  0.65135064700E+01  0.13868921383E+02  0.12957109684E+03  0.12509000000E+03 0.  0.
<mgrwt>
<rscale>  2 0.45549501E+03</rscale>
<asrwt>0</asrwt>
<pdfrwt beam="1">  1       21 0.22994084E-01 0.45549501E+03</pdfrwt>
<pdfrwt beam="2">  1       21 0.48783542E-01 0.45549501E+03</pdfrwt>
<totfact> 0.65856732E+04</totfact>
</mgrwt>
</event>
<event>
 7    0  0.4766352E-002  0.4493406E+03  0.7546771E-02  0.1027919E+00
         21   -1    0    0  502  501  0.00000000000E+00  0.00000000000E+00  0.26596716622E+02  0.26596716622E+02  0.00000000000E+00 0. -1.
         21   -1    0    0  501  502 -0.00000000000E+00 -0.00000000000E+00 -0.18978559372E+04  0.18978559372E+04  0.00000000000E+00 0. -1.
      99926    2    1    2    0    0  0.44408920985E-15  0.14210854715E-13 -0.18712592206E+04  0.19244526539E+04  0.44934056817E+03 0.  0.
      99925    2    3    3    0    0 -0.16161328861E+01 -0.65633765303E+02 -0.15497064031E+04  0.15732345940E+04  0.26299572021E+03 0.  0.
         25    1    4    4    0    0  0.48316962370E+01 -0.56992212855E+01 -0.91321602675E+03  0.92177374991E+03  0.12509000000E+03 0.  0.
         25    1    3    3    0    0  0.16161328861E+01  0.65633765303E+02 -0.32155281750E+03  0.35121805987E+03  0.12509000000E+03 0.  0.
         25    1    4    4    0    0 -0.64478291231E+01 -0.59934544018E+02 -0.63649037636E+03  0.65146084408E+03  0.12509000000E+03 0.  0.
<mgrwt>
<rscale>  2 0.44934057E+03</rscale>
<asrwt>0</asrwt>
<pdfrwt beam="1">  1       21 0.39112817E-02 0.44934057E+03</pdfrwt>
<pdfrwt beam="2">  1       21 0.27909647E+00 0.44934057E+03</pdfrwt>
<totfact> 0.15659255E+04</totfact>
</mgrwt>
</event>
<event>
 7    0  0.4766352E-002  0.4541338E+03  0.7546771E-02  0.1026496E+00
         21   -1    0    0  502  501  0.00000000000E+00  0.00000000000E+00  0.37087102112E+03  0.37087102112E+03  0.00000000000E+00 0. -1.
         21   -1    0    0  501  502 -0.00000000000E+00 -0.00000000000E+00 -0.13902239838E+03  0.13902239838E+03  0.00000000000E+00 0. -1.
      99926    2    1    2    0    0 -0.14210854715E-13  0.35527136788E-14  0.23184862273E+03  0.50989341950E+03  0.45413380780E+03 0.  0.
      99925    2    3    3    0    0 -0.87028515026E+02  0.98610375982E+01  0.22518343552E+03  0.35704337759E+03  0.26287105462E+03 0.  0.
         25    1    3    3    0    0  0.87028515026E+02 -0.98610375982E+01  0.66651872097E+01  0.15285004191E+03  0.12509000000E+03 0.  0.
         25    1    4    4    0    0 -0.37134320203E+02  0.39411592809E+02  0.86228900458E+02  0.16129216583E+03  0.12509000000E+03 0.  0.
         25    1    4    4    0    0 -0.49894194822E+02 -0.29550555211E+02  0.13895453506E+03  0.19575121176E+03  0.12509000000E+03 0.  0.
<mgrwt>
<rscale>  2 0.45413381E+03</rscale>
<asrwt>0</asrwt>
<pdfrwt beam="1">  1       21 0.54539856E-01 0.45413381E+03</pdfrwt>
<pdfrwt beam="2">  1       21 0.20444470E-01 0.45413381E+03</pdfrwt>
<totfact> 0.65026922E+04</totfact>
</mgrwt>
</event>
<event>
 7    0  0.4766352E-002  0.4531462E+03  0.7546771E-02  0.1026788E+00
         21   -1    0    0  502  501  0.00000000000E+00  0.00000000000E+00  0.18872351126E+02  0.18872351126E+02  0.00000000000E+00 0.  1.
         21   -1    0    0  501  502 -0.00000000000E+00 -0.00000000000E+00 -0.27201366152E+04  0.27201366152E+04  0.00000000000E+00 0.  1.
      99926    2    1    2    0    0  0.00000000000E+00  0.00000000000E+00 -0.27012642641E+04  0.27390089663E+04  0.45314621619E+03 0.  0.
      99925    2    3    3    0    0  0.15834245632E+02  0.73615717300E+02 -0.12027389300E+04  0.12333876055E+04  0.26266719348E+03 0.  0.
         25    1    3    3    0    0 -0.15834245632E+02 -0.73615717300E+02 -0.14985253340E+04  0.15056213608E+04  0.12509000000E+03 0.  0.
         25    1    4    4    0    0  0.24218822068E+02  0.57806713045E+02 -0.76866491463E+03  0.78129471168E+03  0.12509000000E+03 0.  0.
         25    1    4    4    0    0 -0.83845764362E+01  0.15809004255E+02 -0.43407401539E+03  0.45209289385E+03  0.12509000000E+03 0.  0.
<mgrwt>
<rscale>  2 0.45314622E+03</rscale>
<asrwt>0</asrwt>
<pdfrwt beam="1">  1       21 0.27753493E-02 0.45314622E+03</pdfrwt>
<pdfrwt beam="2">  1       21 0.40001957E+00 0.45314622E+03</pdfrwt>
<totfact> 0.50551037E+03</totfact>
</mgrwt>
</event>
<event>
 7    0  0.4766352E-002  0.4626268E+03  0.7546771E-02  0.1024022E+00
         21   -1    0    0  502  501  0.00000000000E+00  0.00000000000E+00  0.36624643183E+03  0.36624643183E+03  0.00000000000E+00 0. -1.
         21   -1    0    0  501  502 -0.00000000000E+00 -0.00000000000E+00 -0.14609259325E+03  0.14609259325E+03  0.00000000000E+00 0. -1.
      99926    2    1    2    0    0  0.00000000000E+00  0.00000000000E+00  0.22015383858E+03  0.51233902508E+03  0.46262680854E+03 0.  0.
      99925    2    3    3    0    0 -0.72643573492E+02  0.62368860431E+02  0.21826032722E+03  0.35480154698E+03  0.26282999026E+03 0.  0.
         25    1    3    3    0    0  0.72643573492E+02 -0.62368860431E+02  0.18935113638E+01  0.15753747810E+03  0.12509000000E+03 0.  0.
         25    1    4    4    0    0 -0.70868133261E+02  0.52437321925E+02  0.10352380378E+03  0.18476106487E+03  0.12509000000E+03 0.  0.
         25    1    4    4    0    0 -0.17754402308E+01  0.99315385066E+01  0.11473652344E+03  0.17004048211E+03  0.12509000000E+03 0.  0.
<mgrwt>
<rscale>  2 0.46262681E+03</rscale>
<asrwt>0</asrwt>
<pdfrwt beam="1">  1       21 0.53859769E-01 0.46262681E+03</pdfrwt>
<pdfrwt beam="2">  1       21 0.21484205E-01 0.46262681E+03</pdfrwt>
<totfact> 0.60656568E+04</totfact>
</mgrwt>
</event>
<event>
 7    0  0.4766352E-002  0.4473295E+03  0.7546771E-02  0.1028521E+00
         21   -1    0    0  502  501  0.00000000000E+00  0.00000000000E+00  0.71054301198E+02  0.71054301198E+02  0.00000000000E+00 0. -1.
         21   -1    0    0  501  502 -0.00000000000E+00 -0.00000000000E+00 -0.70405206885E+03  0.70405206885E+03  0.00000000000E+00 0. -1.
      99926    2    1    2    0    0  0.00000000000E+00 -0.35527136788E-14 -0.63299776765E+03  0.77510637004E+03  0.44732953294E+03 0.  0.
      99925    2    3    3    0    0 -0.95536704088E+02 -0.27473582883E+02 -0.46424590762E+03  0.54271282894E+03  0.26292754205E+03 0.  0.
         25    1    4    4    0    0 -0.70595329264E+02  0.19935651321E+02 -0.24049874497E+03  0.28083497848E+03  0.12509000000E+03 0.  0.
         25    1    3    3    0    0  0.95536704088E+02  0.27473582883E+02 -0.16875186003E+03  0.23239354111E+03  0.12509000000E+03 0.  0.
         25    1    4    4    0    0 -0.24941374824E+02 -0.47409234204E+02 -0.22374716265E+03  0.26187785046E+03  0.12509000000E+03 0.  0.
<mgrwt>
<rscale>  2 0.44732953E+03</rscale>
<asrwt>0</asrwt>
<pdfrwt beam="1">  1       21 0.10449163E-01 0.44732953E+03</pdfrwt>
<pdfrwt beam="2">  1       21 0.10353706E+00 0.44732953E+03</pdfrwt>
<totfact> 0.52056814E+04</totfact>
</mgrwt>
</event>
<event>
 7    0  0.4766352E-002  0.4587205E+03  0.7546771E-02  0.1025153E+00
         21   -1    0    0  502  501  0.00000000000E+00  0.00000000000E+00  0.45669378482E+03  0.45669378482E+03  0.00000000000E+00 0.  1.
         21   -1    0    0  501  502 -0.00000000000E+00 -0.00000000000E+00 -0.11518904568E+03  0.11518904568E+03  0.00000000000E+00 0.  1.
      99926    2    1    2    0    0  0.00000000000E+00  0.00000000000E+00  0.34150473914E+03  0.57188283050E+03  0.45872048675E+03 0.  0.
      99925    2    3    3    0    0 -0.34334288878E+02  0.11024909023E+03  0.23429092120E+03  0.37069630972E+03  0.26303956545E+03 0.  0.
         25    1    3    3    0    0  0.34334288878E+02 -0.11024909023E+03  0.10721381793E+03  0.20118652078E+03  0.12509000000E+03 0.  0.
         25    1    4    4    0    0 -0.10598422563E+02  0.58558470613E+02  0.16912055022E+03  0.21861081777E+03  0.12509000000E+03 0.  0.
         25    1    4    4    0    0 -0.23735866315E+02  0.51690619615E+02  0.65170370988E+02  0.15208549195E+03  0.12509000000E+03 0.  0.
<mgrwt>
<rscale>  2 0.45872049E+03</rscale>
<asrwt>0</asrwt>
<pdfrwt beam="1">  1       21 0.67160850E-01 0.45872049E+03</pdfrwt>
<pdfrwt beam="2">  1       21 0.16939566E-01 0.45872049E+03</pdfrwt>
<totfact> 0.58697201E+04</totfact>
</mgrwt>
</event>
<event>
 7    0  0.4766352E-002  0.4465096E+03  0.7546771E-02  0.1028768E+00
         21   -1    0    0  502  501  0.00000000000E+00  0.00000000000E+00  0.13802554162E+03  0.13802554162E+03  0.00000000000E+00 0. -1.
         21   -1    0    0  501  502 -0.00000000000E+00 -0.00000000000E+00 -0.36111216676E+03  0.36111216676E+03  0.00000000000E+00 0. -1.
      99926    2    1    2    0    0  0.71054273576E-14  0.00000000000E+00 -0.22308662514E+03  0.49913770839E+03  0.44650958513E+03 0.  0.
      99925    2    3    3    0    0  0.44614381153E+02  0.31027747902E+02 -0.41258708170E+02  0.27184480565E+03  0.26314283804E+03 0.  0.
         25    1    4    4    0    0  0.62046773421E+02  0.14891669645E+02 -0.10252279125E+02  0.14079837089E+03  0.12509000000E+03 0.  0.
         25    1    4    4    0    0 -0.17432392268E+02  0.16136078258E+02 -0.31006429045E+02  0.13104643476E+03  0.12509000000E+03 0.  0.
         25    1    3    3    0    0 -0.44614381153E+02 -0.31027747902E+02 -0.18182791697E+03  0.22729290274E+03  0.12509000000E+03 0.  0.
<mgrwt>
<rscale>  2 0.44650959E+03</rscale>
<asrwt>0</asrwt>
<pdfrwt beam="1">  1       21 0.20297874E-01 0.44650959E+03</pdfrwt>
<pdfrwt beam="2">  1       21 0.53104731E-01 0.44650959E+03</pdfrwt>
<totfact> 0.69926266E+04</totfact>
</mgrwt>
</event>
<event>
 7    0  0.4766352E-002  0.4535491E+03  0.7546771E-02  0.1026669E+00
         21   -1    0    0  502  501  0.00000000000E+00  0.00000000000E+00  0.28268608679E+03  0.28268608679E+03  0.00000000000E+00 0.  1.
         21   -1    0    0  501  502 -0.00000000000E+00 -0.00000000000E+00 -0.18192156924E+03  0.18192156924E+03  0.00000000000E+00 0.  1.
      99926    2    1    2    0    0  0.00000000000E+00  0.00000000000E+00  0.10076451755E+03  0.46460765604E+03  0.45354909993E+03 0.  0.
      99925    2    3    3    0    0 -0.77310819200E+02  0.58475640672E+02  0.12083250710E+03  0.30508776504E+03  0.26283395194E+03 0.  0.
         25    1    4    4    0    0 -0.55989192629E+02 -0.20232928736E+01  0.39342190560E+02  0.14259803457E+03  0.12509000000E+03 0.  0.
         25    1    3    3    0    0  0.77310819200E+02 -0.58475640672E+02 -0.20067989546E+02  0.15951989099E+03  0.12509000000E+03 0.  0.
         25    1    4    4    0    0 -0.21321626571E+02  0.60498933546E+02  0.81490316540E+02  0.16248973047E+03  0.12509000000E+03 0.  0.
<mgrwt>
<rscale>  2 0.45354910E+03</rscale>
<asrwt>0</asrwt>
<pdfrwt beam="1">  1       21 0.41571484E-01 0.45354910E+03</pdfrwt>
<pdfrwt beam="2">  1       21 0.26753172E-01 0.45354910E+03</pdfrwt>
<totfact> 0.68625714E+04</totfact>
</mgrwt>
</event>
<event>
 7    0  0.4766352E-002  0.4561038E+03  0.7546771E-02  0.1025917E+00
         21   -1    0    0  502  501  0.00000000000E+00  0.00000000000E+00  0.11317154730E+03  0.11317154730E+03  0.00000000000E+00 0.  1.
         21   -1    0    0  501  502 -0.00000000000E+00 -0.00000000000E+00 -0.45954728632E+03  0.45954728632E+03  0.00000000000E+00 0.  1.
      99926    2    1    2    0    0  0.14210854715E-13  0.14210854715E-13 -0.34637573901E+03  0.57271883362E+03  0.45610383665E+03 0.  0.
      99925    2    3    3    0    0  0.77634475795E+02  0.65298350401E+02 -0.28404573896E+03  0.40002394833E+03  0.26276641913E+03 0.  0.
         25    1    4    4    0    0  0.50161379387E+02 -0.59403720988E+01 -0.14394115068E+03  0.19727649369E+03  0.12509000000E+03 0.  0.
         25    1    3    3    0    0 -0.77634475795E+02 -0.65298350401E+02 -0.62330000059E+02  0.17269488529E+03  0.12509000000E+03 0.  0.
         25    1    4    4    0    0  0.27473096408E+02  0.71238722500E+02 -0.14010458828E+03  0.20274745465E+03  0.12509000000E+03 0.  0.
<mgrwt>
<rscale>  2 0.45610384E+03</rscale>
<asrwt>0</asrwt>
<pdfrwt beam="1">  1       21 0.16642874E-01 0.45610384E+03</pdfrwt>
<pdfrwt beam="2">  1       21 0.67580484E-01 0.45610384E+03</pdfrwt>
<totfact> 0.59865484E+04</totfact>
</mgrwt>
</event>
<event>
 7    0  0.4766352E-002  0.4515780E+03  0.7546771E-02  0.1027253E+00
         21   -1    0    0  502  501  0.00000000000E+00  0.00000000000E+00  0.49071422766E+03  0.49071422766E+03  0.00000000000E+00 0.  1.
         21   -1    0    0  501  502 -0.00000000000E+00 -0.00000000000E+00 -0.10389076392E+03  0.10389076392E+03  0.00000000000E+00 0.  1.
      99926    2    1    2    0    0  0.00000000000E+00  0.00000000000E+00  0.38682346373E+03  0.59460499158E+03  0.45157801532E+03 0.  0.
      99925    2    3    3    0    0  0.77753515397E+02  0.49001145776E+02  0.16459091657E+03  0.32353021488E+03  0.26293517962E+03 0.  0.
         25    1    4    4    0    0  0.39908565864E+02  0.37112022435E+02  0.39055189985E+02  0.14192537406E+03  0.12509000000E+03 0.  0.
         25    1    3    3    0    0 -0.77753515397E+02 -0.49001145776E+02  0.22223254716E+03  0.27107477670E+03  0.12509000000E+03 0.  0.
         25    1    4    4    0    0  0.37844949532E+02  0.11889123341E+02  0.12553572659E+03  0.18160484082E+03  0.12509000000E+03 0.  0.
<mgrwt>
<rscale>  2 0.45157802E+03</rscale>
<asrwt>0</asrwt>
<pdfrwt beam="1">  1       21 0.72163856E-01 0.45157802E+03</pdfrwt>
<pdfrwt beam="2">  1       21 0.15278054E-01 0.45157802E+03</pdfrwt>
<totfact> 0.60634688E+04</totfact>
</mgrwt>
</event>
<event>
 7    0  0.4766352E-002  0.4528678E+03  0.7546771E-02  0.1026870E+00
         21   -1    0    0  502  501  0.00000000000E+00  0.00000000000E+00  0.16458025128E+04  0.16458025128E+04  0.00000000000E+00 0.  1.
         21   -1    0    0  501  502 -0.00000000000E+00 -0.00000000000E+00 -0.31153386025E+02  0.31153386025E+02  0.00000000000E+00 0.  1.
      99926    2    1    2    0    0  0.00000000000E+00 -0.71054273576E-14  0.16146491268E+04  0.16769558988E+04  0.45286784387E+03 0.  0.
      99925    2    3    3    0    0 -0.33705354763E+02 -0.39878337362E+02  0.13815349084E+04  0.14072967072E+04  0.26290489952E+03 0.  0.
         25    1    3    3    0    0  0.33705354763E+02  0.39878337362E+02  0.23311421841E+03  0.26965919168E+03  0.12509000000E+03 0.  0.
         25    1    4    4    0    0 -0.23635655431E+02  0.11331273885E+02  0.54015495916E+03  0.55506930196E+03  0.12509000000E+03 0.  0.
         25    1    4    4    0    0 -0.10069699332E+02 -0.51209611247E+02  0.84137994922E+03  0.85222740520E+03  0.12509000000E+03 0.  0.
<mgrwt>
<rscale>  2 0.45286784E+03</rscale>
<asrwt>0</asrwt>
<pdfrwt beam="1">  1       21 0.24202972E+00 0.45286784E+03</pdfrwt>
<pdfrwt beam="2">  1       21 0.45813814E-02 0.45286784E+03</pdfrwt>
<totfact> 0.20075693E+04</totfact>
</mgrwt>
</event>
<event>
 7    0  0.4766352E-002  0.4499252E+03  0.7546771E-02  0.1027744E+00
         21   -1    0    0  502  501  0.00000000000E+00  0.00000000000E+00  0.46060989045E+03  0.46060989045E+03  0.00000000000E+00 0. -1.
         21   -1    0    0  501  502 -0.00000000000E+00 -0.00000000000E+00 -0.10987207355E+03  0.10987207355E+03  0.00000000000E+00 0. -1.
      99926    2    1    2    0    0  0.00000000000E+00  0.00000000000E+00  0.35073781690E+03  0.57048196401E+03  0.44992516606E+03 0.  0.
      99925    2    3    3    0    0  0.52488991692E+02 -0.39186565482E+02  0.11231498685E+03  0.29338336215E+03  0.26299897291E+03 0.  0.
         25    1    3    3    0    0 -0.52488991692E+02  0.39186565482E+02  0.23842283004E+03  0.27709860185E+03  0.12509000000E+03 0.  0.
         25    1    4    4    0    0  0.20934728833E+02 -0.51364376941E+02  0.84581935189E+02  0.16086694486E+03  0.12509000000E+03 0.  0.
         25    1    4    4    0    0  0.31554262859E+02  0.12177811460E+02  0.27733051665E+02  0.13251641729E+03  0.12509000000E+03 0.  0.
<mgrwt>
<rscale>  2 0.44992517E+03</rscale>
<asrwt>0</asrwt>
<pdfrwt beam="1">  1       21 0.67736748E-01 0.44992517E+03</pdfrwt>
<pdfrwt beam="2">  1       21 0.16157658E-01 0.44992517E+03</pdfrwt>
<totfact> 0.63024327E+04</totfact>
</mgrwt>
</event>
<event>
 7    0  0.4766352E-002  0.4600384E+03  0.7546771E-02  0.1024770E+00
         21   -1    0    0  502  501  0.00000000000E+00  0.00000000000E+00  0.10714732431E+04  0.10714732431E+04  0.00000000000E+00 0. -1.
         21   -1    0    0  501  502 -0.00000000000E+00 -0.00000000000E+00 -0.49379528592E+02  0.49379528592E+02  0.00000000000E+00 0. -1.
      99926    2    1    2    0    0 -0.17763568394E-14 -0.14210854715E-13  0.10220937145E+04  0.11208527717E+04  0.46003844902E+03 0.  0.
      99925    2    3    3    0    0 -0.82795623579E+01  0.85447363714E+02  0.83701463373E+03  0.88153796363E+03  0.26295604410E+03 0.  0.
         25    1    3    3    0    0  0.82795623579E+01 -0.85447363714E+02  0.18507908081E+03  0.23931480809E+03  0.12509000000E+03 0.  0.
         25    1    4    4    0    0  0.29163897062E+02  0.22996676800E+02  0.35301407720E+03  0.37635864124E+03  0.12509000000E+03 0.  0.
         25    1    4    4    0    0 -0.37443459420E+02  0.62450686914E+02  0.48400055653E+03  0.50517932239E+03  0.12509000000E+03 0.  0.
<mgrwt>
<rscale>  2 0.46003845E+03</rscale>
<asrwt>0</asrwt>
<pdfrwt beam="1">  1       21 0.15756958E+00 0.46003845E+03</pdfrwt>
<pdfrwt beam="2">  1       21 0.72616960E-02 0.46003845E+03</pdfrwt>
<totfact> 0.33437675E+04</totfact>
</mgrwt>
</event>
<event>
 7    0  0.4766352E-002  0.4562944E+03  0.7546771E-02  0.1025861E+00
         21   -1    0    0  502  501  0.00000000000E+00  0.00000000000E+00  0.27436908984E+03  0.27436908984E+03  0.00000000000E+00 0. -1.
         21   -1    0    0  501  502 -0.00000000000E+00 -0.00000000000E+00 -0.18971214162E+03  0.18971214162E+03  0.00000000000E+00 0. -1.
      99926    2    1    2    0    0  0.00000000000E+00  0.14210854715E-13  0.84656948219E+02  0.46408123146E+03  0.45629441210E+03 0.  0.
      99925    2    3    3    0    0 -0.72550955654E+02  0.80390996661E+02  0.16107611268E+02  0.28499222228E+03  0.26312498572E+03 0.  0.
         25    1    3    3    0    0  0.72550955654E+02 -0.80390996661E+02  0.68549336951E+02  0.17908900917E+03  0.12509000000E+03 0.  0.
         25    1    4    4    0    0 -0.50960928349E+02  0.19125097085E+01  0.21728776145E+01  0.13510330643E+03  0.12509000000E+03 0.  0.
         25    1    4    4    0    0 -0.21590027306E+02  0.78478486952E+02  0.13934733654E+02  0.14988891585E+03  0.12509000000E+03 0.  0.
<mgrwt>
<rscale>  2 0.45629441E+03</rscale>
<asrwt>0</asrwt>
<pdfrwt beam="1">  1       21 0.40348396E-01 0.45629441E+03</pdfrwt>
<pdfrwt beam="2">  1       21 0.27898844E-01 0.45629441E+03</pdfrwt>
<totfact> 0.67184435E+04</totfact>
</mgrwt>
</event>
<event>
 7    0  0.4766352E-002  0.4619064E+03  0.7546771E-02  0.1024230E+00
         21   -1    0    0  502  501  0.00000000000E+00  0.00000000000E+00  0.40167631598E+02  0.40167631598E+02  0.00000000000E+00 0.  1.
         21   -1    0    0  501  502 -0.00000000000E+00 -0.00000000000E+00 -0.13279196144E+04  0.13279196144E+04  0.00000000000E+00 0.  1.
      99926    2    1    2    0    0  0.14210854715E-13  0.00000000000E+00 -0.12877519828E+04  0.13680872460E+04  0.46190642283E+03 0.  0.
      99925    2    3    3    0    0  0.98659404059E+02 -0.68214384391E+02 -0.79260030939E+03  0.84348304469E+03  0.26241477853E+03 0.  0.
         25    1    4    4    0    0  0.16299481006E+02 -0.52938287395E+02 -0.33949062484E+03  0.36601848014E+03  0.12509000000E+03 0.  0.
         25    1    4    4    0    0  0.82359923053E+02 -0.15276096996E+02 -0.45310968455E+03  0.47746456455E+03  0.12509000000E+03 0.  0.
         25    1    3    3    0    0 -0.98659404059E+02  0.68214384391E+02 -0.49515167343E+03  0.52460420132E+03  0.12509000000E+03 0.  0.
<mgrwt>
<rscale>  2 0.46190642E+03</rscale>
<asrwt>0</asrwt>
<pdfrwt beam="1">  1       21 0.59070046E-02 0.46190642E+03</pdfrwt>
<pdfrwt beam="2">  1       21 0.19528230E+00 0.46190642E+03</pdfrwt>
<totfact> 0.25782937E+04</totfact>
</mgrwt>
</event>
<event>
 7    0  0.4766352E-002  0.4705466E+03  0.7546771E-02  0.1021766E+00
         21   -1    0    0  502  501  0.00000000000E+00  0.00000000000E+00  0.59275854495E+03  0.59275854495E+03  0.00000000000E+00 0.  1.
         21   -1    0    0  501  502 -0.00000000000E+00 -0.00000000000E+00 -0.93382919232E+02  0.93382919232E+02  0.00000000000E+00 0.  1.
      99926    2    1    2    0    0  0.00000000000E+00  0.14210854715E-13  0.49937562572E+03  0.68614146419E+03  0.47054658995E+03 0.  0.
      99925    2    3    3    0    0 -0.87584028118E+02  0.85442664950E+02  0.25938099301E+03  0.38912910282E+03  0.26300484435E+03 0.  0.
         25    1    4    4    0    0 -0.26943027532E+02  0.72423455939E+02  0.16274074235E+03  0.21932428280E+03  0.12509000000E+03 0.  0.
         25    1    4    4    0    0 -0.60641000586E+02  0.13019209012E+02  0.96640250660E+02  0.16980482002E+03  0.12509000000E+03 0.  0.
         25    1    3    3    0    0  0.87584028118E+02 -0.85442664950E+02  0.23999463271E+03  0.29701236137E+03  0.12509000000E+03 0.  0.
<mgrwt>
<rscale>  2 0.47054659E+03</rscale>
<asrwt>0</asrwt>
<pdfrwt beam="1">  1       21 0.87170372E-01 0.47054659E+03</pdfrwt>
<pdfrwt beam="2">  1       21 0.13732783E-01 0.47054659E+03</pdfrwt>
<totfact> 0.47562952E+04</totfact>
</mgrwt>
</event>
<event>
 7    0  0.4766352E-002  0.4525701E+03  0.7546771E-02  0.1026958E+00
         21   -1    0    0  502  501  0.00000000000E+00  0.00000000000E+00  0.70949410111E+02  0.70949410111E+02  0.00000000000E+00 0.  1.
         21   -1    0    0  501  502 -0.00000000000E+00 -0.00000000000E+00 -0.72171039767E+03  0.72171039767E+03  0.00000000000E+00 0.  1.
      99926    2    1    2    0    0  0.00000000000E+00  0.00000000000E+00 -0.65076098756E+03  0.79265980778E+03  0.45257011384E+03 0.  0.
      99925    2    3    3    0    0 -0.90009540743E+02  0.64736947379E+02 -0.41083337118E+03  0.50024681392E+03  0.26300233112E+03 0.  0.
         25    1    3    3    0    0  0.90009540743E+02 -0.64736947379E+02 -0.23992761637E+03  0.29241299386E+03  0.12509000000E+03 0.  0.
         25    1    4    4    0    0 -0.11173061230E+02  0.53754701075E+01 -0.16839068771E+03  0.21013487284E+03  0.12509000000E+03 0.  0.
         25    1    4    4    0    0 -0.78836479512E+02  0.59361477272E+02 -0.24244268347E+03  0.29011194108E+03  0.12509000000E+03 0.  0.
<mgrwt>
<rscale>  2 0.45257011E+03</rscale>
<asrwt>0</asrwt>
<pdfrwt beam="1">  1       21 0.10433737E-01 0.45257011E+03</pdfrwt>
<pdfrwt beam="2">  1       21 0.10613388E+00 0.45257011E+03</pdfrwt>
<totfact> 0.49050656E+04</totfact>
</mgrwt>
</event>
<event>
 7    0  0.4766352E-002  0.4486230E+03  0.7546771E-02  0.1028133E+00
         21   -1    0    0  502  501  0.00000000000E+00  0.00000000000E+00  0.11941977320E+03  0.11941977320E+03  0.00000000000E+00 0. -1.
         21   -1    0    0  501  502 -0.00000000000E+00 -0.00000000000E+00 -0.42133434234E+03  0.42133434234E+03  0.00000000000E+00 0. -1.
      99926    2    1    2    0    0  0.00000000000E+00  0.00000000000E+00 -0.30191456914E+03  0.54075411554E+03  0.44862301146E+03 0.  0.
      99925    2    3    3    0    0 -0.85540167512E+02  0.62625010953E+02 -0.20884063284E+03  0.35220895391E+03  0.26305460467E+03 0.  0.
         25    1    3    3    0    0  0.85540167512E+02 -0.62625010953E+02 -0.93073936300E+02  0.18854516163E+03  0.12509000000E+03 0.  0.
         25    1    4    4    0    0 -0.33737966225E+02 -0.10049081547E+02 -0.95196297612E+02  0.16108717387E+03  0.12509000000E+03 0.  0.
         25    1    4    4    0    0 -0.51802201287E+02  0.72674092501E+02 -0.11364433523E+03  0.19112178005E+03  0.12509000000E+03 0.  0.
<mgrwt>
<rscale>  2 0.44862301E+03</rscale>
<asrwt>0</asrwt>
<pdfrwt beam="1">  1       21 0.17561731E-01 0.44862301E+03</pdfrwt>
<pdfrwt beam="2">  1       21 0.61960933E-01 0.44862301E+03</pdfrwt>
<totfact> 0.65736809E+04</totfact>
</mgrwt>
</event>
<event>
 7    0  0.4766352E-002  0.4449744E+03  0.7546771E-02  0.1029231E+00
         21   -1    0    0  502  501  0.00000000000E+00  0.00000000000E+00  0.81974240504E+03  0.81974240504E+03  0.00000000000E+00 0. -1.
         21   -1    0    0  501  502 -0.00000000000E+00 -0.00000000000E+00 -0.60385502626E+02  0.60385502626E+02  0.00000000000E+00 0. -1.
      99926    2    1    2    0    0  0.00000000000E+00 -0.44408920985E-15  0.75935690241E+03  0.88012790766E+03  0.44497441343E+03 0.  0.
      99925    2    3    3    0    0  0.48035597313E+02  0.27939809347E+01  0.66359430888E+03  0.71540630204E+03  0.26293258695E+03 0.  0.
         25    1    3    3    0    0 -0.48035597313E+02 -0.27939809347E+01  0.95762593527E+02  0.16472160562E+03  0.12509000000E+03 0.  0.
         25    1    4    4    0    0 -0.13284713912E+02 -0.15485753982E+02  0.30778492629E+03  0.33285937143E+03  0.12509000000E+03 0.  0.
         25    1    4    4    0    0  0.61320311225E+02  0.18279734917E+02  0.35580938260E+03  0.38254693061E+03  0.12509000000E+03 0.  0.
<mgrwt>
<rscale>  2 0.44497441E+03</rscale>
<asrwt>0</asrwt>
<pdfrwt beam="1">  1       21 0.12055035E+00 0.44497441E+03</pdfrwt>
<pdfrwt beam="2">  1       21 0.88802215E-02 0.44497441E+03</pdfrwt>
<totfact> 0.47743785E+04</totfact>
</mgrwt>
</event>
<event>
 7    0  0.4766352E-002  0.4538370E+03  0.7546771E-02  0.1026584E+00
         21   -1    0    0  502  501  0.00000000000E+00  0.00000000000E+00  0.26862609431E+03  0.26862609431E+03  0.00000000000E+00 0.  1.
         21   -1    0    0  501  502 -0.00000000000E+00 -0.00000000000E+00 -0.19168650070E+03  0.19168650070E+03  0.00000000000E+00 0.  1.
      99926    2    1    2    0    0 -0.35527136788E-14  0.00000000000E+00  0.76939593611E+02  0.46031259501E+03  0.45383695758E+03 0.  0.
      99925    2    3    3    0    0  0.21420547396E+02 -0.63940261559E+02  0.13931106434E+03  0.30511947223E+03  0.26295079917E+03 0.  0.
         25    1    4    4    0    0  0.37589049526E+02 -0.14833847908E+01  0.63170778737E+02  0.14509718282E+03  0.12509000000E+03 0.  0.
         25    1    3    3    0    0 -0.21420547396E+02  0.63940261559E+02 -0.62371470730E+02  0.15519312279E+03  0.12509000000E+03 0.  0.
         25    1    4    4    0    0 -0.16168502130E+02 -0.62456876769E+02  0.76140285604E+02  0.16002228941E+03  0.12509000000E+03 0.  0.
<mgrwt>
<rscale>  2 0.45383696E+03</rscale>
<asrwt>0</asrwt>
<pdfrwt beam="1">  1       21 0.39503837E-01 0.45383696E+03</pdfrwt>
<pdfrwt beam="2">  1       21 0.28189191E-01 0.45383696E+03</pdfrwt>
<totfact> 0.68793285E+04</totfact>
</mgrwt>
</event>
<event>
 7    0  0.4766352E-002  0.4562932E+03  0.7546771E-02  0.1025862E+00
         21   -1    0    0  502  501  0.00000000000E+00  0.00000000000E+00  0.23817441337E+02  0.23817441337E+02  0.00000000000E+00 0.  1.
         21   -1    0    0  501  502 -0.00000000000E+00 -0.00000000000E+00 -0.21854095097E+04  0.21854095097E+04  0.00000000000E+00 0.  1.
      99926    2    1    2    0    0  0.00000000000E+00  0.00000000000E+00 -0.21615920683E+04  0.22092269510E+04  0.45629316363E+03 0.  0.
      99925    2    3    3    0    0  0.49174788830E+02  0.60267916248E+02 -0.17642980688E+04  0.17855048584E+04  0.26311507419E+03 0.  0.
         25    1    4    4    0    0  0.53721363516E+02  0.18963192065E+01 -0.85090078411E+03  0.86172456935E+03  0.12509000000E+03 0.  0.
         25    1    3    3    0    0 -0.49174788830E+02 -0.60267916248E+02 -0.39729399951E+03  0.42372209257E+03  0.12509000000E+03 0.  0.
         25    1    4    4    0    0 -0.45465746861E+01  0.58371597041E+02 -0.91339728470E+03  0.92378028907E+03  0.12509000000E+03 0.  0.
<mgrwt>
<rscale>  2 0.45629316E+03</rscale>
<asrwt>0</asrwt>
<pdfrwt beam="1">  1       21 0.35025637E-02 0.45629316E+03</pdfrwt>
<pdfrwt beam="2">  1       21 0.32138386E+00 0.45629316E+03</pdfrwt>
<totfact> 0.10479253E+04</totfact>
</mgrwt>
</event>
<event>
 7    0  0.4766352E-002  0.4552206E+03  0.7546771E-02  0.1026177E+00
         21   -1    0    0  502  501  0.00000000000E+00  0.00000000000E+00  0.22732832077E+04  0.22732832077E+04  0.00000000000E+00 0.  1.
         21   -1    0    0  501  502 -0.00000000000E+00 -0.00000000000E+00 -0.22789263353E+02  0.22789263353E+02  0.00000000000E+00 0.  1.
      99926    2    1    2    0    0  0.71054273576E-14 -0.71054273576E-14  0.22504939444E+04  0.22960724711E+04  0.45522060453E+03 0.  0.
      99925    2    3    3    0    0  0.62858031278E+02 -0.39032406503E+02  0.98237023065E+03  0.10196478073E+04  0.26297475173E+03 0.  0.
         25    1    4    4    0    0  0.14478024929E+02 -0.43019035763E+02  0.59493610239E+03  0.60963655129E+03  0.12509000000E+03 0.  0.
         25    1    4    4    0    0  0.48380006349E+02  0.39866292599E+01  0.38743412826E+03  0.41001125603E+03  0.12509000000E+03 0.  0.
         25    1    3    3    0    0 -0.62858031278E+02  0.39032406503E+02  0.12681237137E+04  0.12764246637E+04  0.12509000000E+03 0.  0.
<mgrwt>
<rscale>  2 0.45522060E+03</rscale>
<asrwt>0</asrwt>
<pdfrwt beam="1">  1       21 0.33430620E+00 0.45522060E+03</pdfrwt>
<pdfrwt beam="2">  1       21 0.33513638E-02 0.45522060E+03</pdfrwt>
<totfact> 0.94339625E+03</totfact>
</mgrwt>
</event>
<event>
 7    0  0.4766352E-002  0.4573514E+03  0.7546771E-02  0.1025552E+00
         21   -1    0    0  502  501  0.00000000000E+00  0.00000000000E+00  0.61262953021E+03  0.61262953021E+03  0.00000000000E+00 0.  1.
         21   -1    0    0  501  502 -0.00000000000E+00 -0.00000000000E+00 -0.85357597699E+02  0.85357597699E+02  0.00000000000E+00 0.  1.
      99926    2    1    2    0    0 -0.71054273576E-14  0.00000000000E+00  0.52727193251E+03  0.69798712791E+03  0.45735144027E+03 0.  0.
      99925    2    3    3    0    0  0.58176083445E+02 -0.28040774084E+02  0.47698185310E+03  0.54849685437E+03  0.26299499875E+03 0.  0.
         25    1    4    4    0    0  0.52665881427E+02 -0.44597848263E+02  0.28309464679E+03  0.31710053655E+03  0.12509000000E+03 0.  0.
         25    1    3    3    0    0 -0.58176083445E+02  0.28040774084E+02  0.50290079413E+02  0.14949027354E+03  0.12509000000E+03 0.  0.
         25    1    4    4    0    0  0.55102020187E+01  0.16557074179E+02  0.19388720630E+03  0.23139631782E+03  0.12509000000E+03 0.  0.
<mgrwt>
<rscale>  2 0.45735144E+03</rscale>
<asrwt>0</asrwt>
<pdfrwt beam="1">  1       21 0.90092576E-01 0.45735144E+03</pdfrwt>
<pdfrwt beam="2">  1       21 0.12552588E-01 0.45735144E+03</pdfrwt>
<totfact> 0.52042553E+04</totfact>
</mgrwt>
</event>
<event>
 7    0  0.4766352E-002  0.4343307E+03  0.7546771E-02  0.1032501E+00
         21   -1    0    0  502  501  0.00000000000E+00  0.00000000000E+00  0.51553583473E+03  0.51553583473E+03  0.00000000000E+00 0.  1.
         21   -1    0    0  501  502 -0.00000000000E+00 -0.00000000000E+00 -0.91479169824E+02  0.91479169824E+02  0.00000000000E+00 0.  1.
      99926    2    1    2    0    0  0.00000000000E+00  0.00000000000E+00  0.42405666490E+03  0.60701500455E+03  0.43433070430E+03 0.  0.
      99925    2    3    3    0    0  0.12261607428E+02 -0.91178406165E+02  0.27105636044E+03  0.38902314683E+03  0.26344564803E+03 0.  0.
         25    1    4    4    0    0  0.23041967610E+01 -0.13926547979E+02  0.85963664756E+02  0.15243529060E+03  0.12509000000E+03 0.  0.
         25    1    4    4    0    0  0.99574106670E+01 -0.77251858186E+02  0.18509269569E+03  0.23658785623E+03  0.12509000000E+03 0.  0.
         25    1    3    3    0    0 -0.12261607428E+02  0.91178406165E+02  0.15300030446E+03  0.21799185772E+03  0.12509000000E+03 0.  0.
<mgrwt>
<rscale>  2 0.43433070E+03</rscale>
<asrwt>0</asrwt>
<pdfrwt beam="1">  1       21 0.75814092E-01 0.43433070E+03</pdfrwt>
<pdfrwt beam="2">  1       21 0.13452819E-01 0.43433070E+03</pdfrwt>
<totfact> 0.68813629E+04</totfact>
</mgrwt>
</event>
<event>
 7    0  0.4766352E-002  0.4239633E+03  0.7546771E-02  0.1035784E+00
         21   -1    0    0  502  501  0.00000000000E+00  0.00000000000E+00  0.36060633223E+03  0.36060633223E+03  0.00000000000E+00 0.  1.
         21   -1    0    0  501  502 -0.00000000000E+00 -0.00000000000E+00 -0.12461296437E+03  0.12461296437E+03  0.00000000000E+00 0.  1.
      99926    2    1    2    0    0  0.00000000000E+00 -0.88817841970E-15  0.23599336786E+03  0.48521929660E+03  0.42396331931E+03 0.  0.
      99925    2    3    3    0    0  0.52529615577E+02 -0.71760175186E+01  0.83257212561E+02  0.28080134979E+03  0.26288168225E+03 0.  0.
         25    1    4    4    0    0  0.51529067794E+02 -0.72226695313E+01  0.10031283416E+02  0.13585119260E+03  0.12509000000E+03 0.  0.
         25    1    3    3    0    0 -0.52529615577E+02  0.71760175186E+01  0.15273615530E+03  0.20441794681E+03  0.12509000000E+03 0.  0.
         25    1    4    4    0    0  0.10005477831E+01  0.46652012650E-01  0.73225929144E+02  0.14495015720E+03  0.12509000000E+03 0.  0.
<mgrwt>
<rscale>  2 0.42396332E+03</rscale>
<asrwt>0</asrwt>
<pdfrwt beam="1">  1       21 0.53030343E-01 0.42396332E+03</pdfrwt>
<pdfrwt beam="2">  1       21 0.18325436E-01 0.42396332E+03</pdfrwt>
<totfact> 0.85525276E+04</totfact>
</mgrwt>
</event>
<event>
 7    0  0.4766352E-002  0.4545579E+03  0.7546771E-02  0.1026371E+00
         21   -1    0    0  502  501  0.00000000000E+00  0.00000000000E+00  0.11333342072E+03  0.11333342072E+03  0.00000000000E+00 0.  1.
         21   -1    0    0  501  502 -0.00000000000E+00 -0.00000000000E+00 -0.45578540245E+03  0.45578540245E+03  0.00000000000E+00 0.  1.
      99926    2    1    2    0    0  0.17763568394E-14  0.00000000000E+00 -0.34245198173E+03  0.56911882316E+03  0.45455788970E+03 0.  0.
      99925    2    3    3    0    0 -0.15404157766E+02  0.99227841170E+02 -0.15133151736E+03  0.31960330753E+03  0.26298591882E+03 0.  0.
         25    1    4    4    0    0  0.19664009582E+02  0.21902442849E+02 -0.51551919651E+02  0.13846118155E+03  0.12509000000E+03 0.  0.
         25    1    4    4    0    0 -0.35068167347E+02  0.77325398321E+02 -0.99779597706E+02  0.18114212598E+03  0.12509000000E+03 0.  0.
         25    1    3    3    0    0  0.15404157766E+02 -0.99227841170E+02 -0.19112046438E+03  0.24951551564E+03  0.12509000000E+03 0.  0.
<mgrwt>
<rscale>  2 0.45455789E+03</rscale>
<asrwt>0</asrwt>
<pdfrwt beam="1">  1       21 0.16666680E-01 0.45455789E+03</pdfrwt>
<pdfrwt beam="2">  1       21 0.67027265E-01 0.45455789E+03</pdfrwt>
<totfact> 0.60832930E+04</totfact>
</mgrwt>
</event>
<event>
 7    0  0.4766352E-002  0.4504896E+03  0.7546771E-02  0.1027576E+00
         21   -1    0    0  502  501  0.00000000000E+00  0.00000000000E+00  0.45166007816E+03  0.45166007816E+03  0.00000000000E+00 0.  1.
         21   -1    0    0  501  502 -0.00000000000E+00 -0.00000000000E+00 -0.11233053365E+03  0.11233053365E+03  0.00000000000E+00 0.  1.
      99926    2    1    2    0    0  0.00000000000E+00  0.00000000000E+00  0.33932954450E+03  0.56399061181E+03  0.45048958971E+03 0.  0.
      99925    2    3    3    0    0 -0.71299290081E+02  0.55627725520E+02  0.13836351622E+03  0.31058799692E+03  0.26294944114E+03 0.  0.
         25    1    4    4    0    0 -0.13604760179E+02  0.24905207677E+02  0.10448939583E+03  0.16544153290E+03  0.12509000000E+03 0.  0.
         25    1    3    3    0    0  0.71299290081E+02 -0.55627725520E+02  0.20096602828E+03  0.25340261489E+03  0.12509000000E+03 0.  0.
         25    1    4    4    0    0 -0.57694529902E+02  0.30722517843E+02  0.33874120397E+02  0.14514646401E+03  0.12509000000E+03 0.  0.
<mgrwt>
<rscale>  2 0.45048959E+03</rscale>
<asrwt>0</asrwt>
<pdfrwt beam="1">  1       21 0.66420599E-01 0.45048959E+03</pdfrwt>
<pdfrwt beam="2">  1       21 0.16519196E-01 0.45048959E+03</pdfrwt>
<totfact> 0.63175006E+04</totfact>
</mgrwt>
</event>
<event>
 7    0  0.4766352E-002  0.4514508E+03  0.7546771E-02  0.1027290E+00
         21   -1    0    0  502  501  0.00000000000E+00  0.00000000000E+00  0.45432877349E+03  0.45432877349E+03  0.00000000000E+00 0. -1.
         21   -1    0    0  501  502 -0.00000000000E+00 -0.00000000000E+00 -0.11214777132E+03  0.11214777132E+03  0.00000000000E+00 0. -1.
      99926    2    1    2    0    0  0.00000000000E+00 -0.17763568394E-14  0.34218100217E+03  0.56647654482E+03  0.45145081413E+03 0.  0.
      99925    2    3    3    0    0  0.51692604513E+02 -0.13981513127E+02  0.33660833244E+03  0.43029221819E+03  0.26263780287E+03 0.  0.
         25    1    4    4    0    0  0.15104436203E+02 -0.19975284544E+02  0.22476908591E+03  0.25844884613E+03  0.12509000000E+03 0.  0.
         25    1    4    4    0    0  0.36588168309E+02  0.59937714174E+01  0.11183924653E+03  0.17184337206E+03  0.12509000000E+03 0.  0.
         25    1    3    3    0    0 -0.51692604513E+02  0.13981513127E+02  0.55726697304E+01  0.13618432663E+03  0.12509000000E+03 0.  0.
<mgrwt>
<rscale>  2 0.45145081E+03</rscale>
<asrwt>0</asrwt>
<pdfrwt beam="1">  1       21 0.66813054E-01 0.45145081E+03</pdfrwt>
<pdfrwt beam="2">  1       21 0.16492320E-01 0.45145081E+03</pdfrwt>
<totfact> 0.62527346E+04</totfact>
</mgrwt>
</event>
<event>
 7    0  0.4766352E-002  0.4510987E+03  0.7546771E-02  0.1027395E+00
         21   -1    0    0  502  501  0.00000000000E+00  0.00000000000E+00  0.94013218269E+02  0.94013218269E+02  0.00000000000E+00 0.  1.
         21   -1    0    0  501  502 -0.00000000000E+00 -0.00000000000E+00 -0.54112075072E+03  0.54112075072E+03  0.00000000000E+00 0.  1.
      99926    2    1    2    0    0  0.44408920985E-14  0.00000000000E+00 -0.44710753245E+03  0.63513396899E+03  0.45109867323E+03 0.  0.
      99925    2    3    3    0    0  0.28814960974E+01  0.10100159912E+03 -0.34164968631E+03  0.44283604529E+03  0.26300119545E+03 0.  0.
         25    1    3    3    0    0 -0.28814960974E+01 -0.10100159912E+03 -0.10545784614E+03  0.19229792370E+03  0.12509000000E+03 0.  0.
         25    1    4    4    0    0 -0.38303727202E+02  0.45344358020E+02 -0.17848926119E+03  0.22589646031E+03  0.12509000000E+03 0.  0.
         25    1    4    4    0    0  0.41185223300E+02  0.55657241104E+02 -0.16316042512E+03  0.21693958498E+03  0.12509000000E+03 0.  0.
<mgrwt>
<rscale>  2 0.45109867E+03</rscale>
<asrwt>0</asrwt>
<pdfrwt beam="1">  1       21 0.13825473E-01 0.45109867E+03</pdfrwt>
<pdfrwt beam="2">  1       21 0.79576580E-01 0.45109867E+03</pdfrwt>
<totfact> 0.58341934E+04</totfact>
</mgrwt>
</event>
<event>
 7    0  0.4766352E-002  0.4558328E+03  0.7546771E-02  0.1025997E+00
         21   -1    0    0  502  501  0.00000000000E+00  0.00000000000E+00  0.81198713177E+02  0.81198713177E+02  0.00000000000E+00 0. -1.
         21   -1    0    0  501  502 -0.00000000000E+00 -0.00000000000E+00 -0.63973774768E+03  0.63973774768E+03  0.00000000000E+00 0. -1.
      99926    2    1    2    0    0  0.71054273576E-14  0.00000000000E+00 -0.55853903450E+03  0.72093646085E+03  0.45583278461E+03 0.  0.
      99925    2    3    3    0    0 -0.44733405064E+02  0.72632126413E+02 -0.23188955355E+03  0.36090327514E+03  0.26306255081E+03 0.  0.
         25    1    3    3    0    0  0.44733405064E+02 -0.72632126413E+02 -0.32664948094E+03  0.36003318572E+03  0.12509000000E+03 0.  0.
         25    1    4    4    0    0 -0.41913578492E+02  0.43835036989E+01 -0.13334238176E+03  0.18762638951E+03  0.12509000000E+03 0.  0.
         25    1    4    4    0    0 -0.28198265718E+01  0.68248622714E+02 -0.98547171793E+02  0.17327688563E+03  0.12509000000E+03 0.  0.
<mgrwt>
<rscale>  2 0.45583278E+03</rscale>
<asrwt>0</asrwt>
<pdfrwt beam="1">  1       21 0.11940987E-01 0.45583278E+03</pdfrwt>
<pdfrwt beam="2">  1       21 0.94079086E-01 0.45583278E+03</pdfrwt>
<totfact> 0.51443190E+04</totfact>
</mgrwt>
</event>
<event>
 7    0  0.4766352E-002  0.4522102E+03  0.7546771E-02  0.1027065E+00
         21   -1    0    0  502  501  0.00000000000E+00  0.00000000000E+00  0.47619110570E+03  0.47619110570E+03  0.00000000000E+00 0.  1.
         21   -1    0    0  501  502 -0.00000000000E+00 -0.00000000000E+00 -0.10735922187E+03  0.10735922187E+03  0.00000000000E+00 0.  1.
      99926    2    1    2    0    0  0.00000000000E+00 -0.17763568394E-14  0.36883188383E+03  0.58355032757E+03  0.45221015720E+03 0.  0.
      99925    2    3    3    0    0  0.10813669448E+03  0.88647047582E+01  0.20458292378E+03  0.35031791845E+03  0.26286183368E+03 0.  0.
         25    1    4    4    0    0  0.71968127232E+02  0.74313796091E+01  0.15243073966E+03  0.21004112748E+03  0.12509000000E+03 0.  0.
         25    1    3    3    0    0 -0.10813669448E+03 -0.88647047582E+01  0.16424896005E+03  0.23323240911E+03  0.12509000000E+03 0.  0.
         25    1    4    4    0    0  0.36168567247E+02  0.14333251491E+01  0.52152184120E+02  0.14027679097E+03  0.12509000000E+03 0.  0.
<mgrwt>
<rscale>  2 0.45221016E+03</rscale>
<asrwt>0</asrwt>
<pdfrwt beam="1">  1       21 0.70028103E-01 0.45221016E+03</pdfrwt>
<pdfrwt beam="2">  1       21 0.15788121E-01 0.45221016E+03</pdfrwt>
<totfact> 0.61037365E+04</totfact>
</mgrwt>
</event>
<event>
 7    0  0.4766352E-002  0.4564027E+03  0.7546771E-02  0.1025830E+00
         21   -1    0    0  502  501  0.00000000000E+00  0.00000000000E+00  0.12662671260E+03  0.12662671260E+03  0.00000000000E+00 0.  1.
         21   -1    0    0  501  502 -0.00000000000E+00 -0.00000000000E+00 -0.41125488190E+03  0.41125488190E+03  0.00000000000E+00 0.  1.
      99926    2    1    2    0    0  0.00000000000E+00  0.14210854715E-13 -0.28462816930E+03  0.53788159450E+03  0.45640268946E+03 0.  0.
      99925    2    3    3    0    0 -0.32099440289E+02 -0.88687567951E+02 -0.10335138573E+03  0.29828894199E+03  0.26343675750E+03 0.  0.
         25    1    3    3    0    0  0.32099440289E+02  0.88687567951E+02 -0.18127678358E+03  0.23959265252E+03  0.12509000000E+03 0.  0.
         25    1    4    4    0    0 -0.45902540390E+02 -0.15829868568E+02 -0.55391962649E+02  0.14516681983E+03  0.12509000000E+03 0.  0.
         25    1    4    4    0    0  0.13803100101E+02 -0.72857699384E+02 -0.47959423076E+02  0.15312212216E+03  0.12509000000E+03 0.  0.
<mgrwt>
<rscale>  2 0.45640269E+03</rscale>
<asrwt>0</asrwt>
<pdfrwt beam="1">  1       21 0.18621576E-01 0.45640269E+03</pdfrwt>
<pdfrwt beam="2">  1       21 0.60478658E-01 0.45640269E+03</pdfrwt>
<totfact> 0.61983503E+04</totfact>
</mgrwt>
</event>
<event>
 7    0  0.4766352E-002  0.4556532E+03  0.7546771E-02  0.1026049E+00
         21   -1    0    0  502  501  0.00000000000E+00  0.00000000000E+00  0.90676051360E+02  0.90676051360E+02  0.00000000000E+00 0.  1.
         21   -1    0    0  501  502 -0.00000000000E+00 -0.00000000000E+00 -0.57242192440E+03  0.57242192440E+03  0.00000000000E+00 0.  1.
      99926    2    1    2    0    0 -0.35527136788E-14  0.00000000000E+00 -0.48174587304E+03  0.66309797576E+03  0.45565320065E+03 0.  0.
      99925    2    3    3    0    0  0.30671353161E+02  0.10458420317E+03 -0.25066795039E+03  0.37862811462E+03  0.26200427549E+03 0.  0.
         25    1    3    3    0    0 -0.30671353161E+02 -0.10458420317E+03 -0.23107792265E+03  0.28446986113E+03  0.12509000000E+03 0.  0.
         25    1    4    4    0    0  0.25456932471E+02  0.53209367327E+02 -0.17675134361E+03  0.22442780075E+03  0.12509000000E+03 0.  0.
         25    1    4    4    0    0  0.52144206896E+01  0.51374835840E+02 -0.73916606777E+02  0.15420031387E+03  0.12509000000E+03 0.  0.
<mgrwt>
<rscale>  2 0.45565320E+03</rscale>
<asrwt>0</asrwt>
<pdfrwt beam="1">  1       21 0.13334713E-01 0.45565320E+03</pdfrwt>
<pdfrwt beam="2">  1       21 0.84179694E-01 0.45565320E+03</pdfrwt>
<totfact> 0.54670282E+04</totfact>
</mgrwt>
</event>
<event>
 7    0  0.4766352E-002  0.4532658E+03  0.7546771E-02  0.1026753E+00
         21   -1    0    0  502  501  0.00000000000E+00  0.00000000000E+00  0.59969174820E+03  0.59969174820E+03  0.00000000000E+00 0.  1.
         21   -1    0    0  501  502 -0.00000000000E+00 -0.00000000000E+00 -0.85648125858E+02  0.85648125858E+02  0.00000000000E+00 0.  1.
      99926    2    1    2    0    0  0.00000000000E+00  0.00000000000E+00  0.51404362234E+03  0.68533987406E+03  0.45326581308E+03 0.  0.
      99925    2    3    3    0    0  0.46977313228E+02  0.42752399600E+02  0.46251579041E+03  0.53588332120E+03  0.26308827782E+03 0.  0.
         25    1    4    4    0    0  0.26324847485E+02 -0.16274889175E+02  0.18998032961E+03  0.22956023904E+03  0.12509000000E+03 0.  0.
         25    1    4    4    0    0  0.20652465744E+02  0.59027288775E+02  0.27253546081E+03  0.30632308215E+03  0.12509000000E+03 0.  0.
         25    1    3    3    0    0 -0.46977313228E+02 -0.42752399600E+02  0.51527831925E+02  0.14945655286E+03  0.12509000000E+03 0.  0.
<mgrwt>
<rscale>  2 0.45326581E+03</rscale>
<asrwt>0</asrwt>
<pdfrwt beam="1">  1       21 0.88189960E-01 0.45326581E+03</pdfrwt>
<pdfrwt beam="2">  1       21 0.12595313E-01 0.45326581E+03</pdfrwt>
<totfact> 0.54445939E+04</totfact>
</mgrwt>
</event>
<event>
 7    0  0.4766352E-002  0.4540464E+03  0.7546771E-02  0.1026522E+00
         21   -1    0    0  502  501  0.00000000000E+00  0.00000000000E+00  0.45678452184E+03  0.45678452184E+03  0.00000000000E+00 0.  1.
         21   -1    0    0  501  502 -0.00000000000E+00 -0.00000000000E+00 -0.11283115763E+03  0.11283115763E+03  0.00000000000E+00 0.  1.
      99926    2    1    2    0    0 -0.35527136788E-14  0.00000000000E+00  0.34395336421E+03  0.56961567947E+03  0.45404636938E+03 0.  0.
      99925    2    3    3    0    0 -0.25654870789E+02 -0.34039703014E+02  0.34689067049E+03  0.43743016724E+03  0.26304969142E+03 0.  0.
         25    1    3    3    0    0  0.25654870789E+02  0.34039703014E+02 -0.29373062770E+01  0.13218551223E+03  0.12509000000E+03 0.  0.
         25    1    4    4    0    0 -0.38022648053E+02 -0.27375533982E+02  0.12844654866E+03  0.18531369509E+03  0.12509000000E+03 0.  0.
         25    1    4    4    0    0  0.12367777264E+02 -0.66641690324E+01  0.21844412183E+03  0.25211647215E+03  0.12509000000E+03 0.  0.
<mgrwt>
<rscale>  2 0.45404637E+03</rscale>
<asrwt>0</asrwt>
<pdfrwt beam="1">  1       21 0.67174194E-01 0.45404637E+03</pdfrwt>
<pdfrwt beam="2">  1       21 0.16592817E-01 0.45404637E+03</pdfrwt>
<totfact> 0.61047671E+04</totfact>
</mgrwt>
</event>
<event>
 7    0  0.4766352E-002  0.4581713E+03  0.7546771E-02  0.1025313E+00
         21   -1    0    0  502  501  0.00000000000E+00  0.00000000000E+00  0.22320070286E+02  0.22320070286E+02  0.00000000000E+00 0.  1.
         21   -1    0    0  501  502 -0.00000000000E+00 -0.00000000000E+00 -0.23512571262E+04  0.23512571262E+04  0.00000000000E+00 0.  1.
      99926    2    1    2    0    0  0.00000000000E+00  0.00000000000E+00 -0.23289370560E+04  0.23735771965E+04  0.45817125322E+03 0.  0.
      99925    2    3    3    0    0  0.16390737967E+02  0.90911764387E+02 -0.18254179407E+04  0.18465927445E+04  0.26309789140E+03 0.  0.
         25    1    4    4    0    0  0.44981283453E+02  0.34707704459E+02 -0.99537230275E+03  0.10048091708E+04  0.12509000000E+03 0.  0.
         25    1    4    4    0    0 -0.28590545487E+02  0.56204059927E+02 -0.83004563799E+03  0.84178357366E+03  0.12509000000E+03 0.  0.
         25    1    3    3    0    0 -0.16390737967E+02 -0.90911764387E+02 -0.50351911522E+03  0.52698445204E+03  0.12509000000E+03 0.  0.
<mgrwt>
<rscale>  2 0.45817125E+03</rscale>
<asrwt>0</asrwt>
<pdfrwt beam="1">  1       21 0.32823639E-02 0.45817125E+03</pdfrwt>
<pdfrwt beam="2">  1       21 0.34577304E+00 0.45817125E+03</pdfrwt>
<totfact> 0.83066737E+03</totfact>
</mgrwt>
</event>
<event>
 7    0  0.4766352E-002  0.4612567E+03  0.7546771E-02  0.1024417E+00
         21   -1    0    0  502  501  0.00000000000E+00  0.00000000000E+00  0.29473154869E+03  0.29473154869E+03  0.00000000000E+00 0.  1.
         21   -1    0    0  501  502 -0.00000000000E+00 -0.00000000000E+00 -0.18046738380E+03  0.18046738380E+03  0.00000000000E+00 0.  1.
      99926    2    1    2    0    0  0.00000000000E+00  0.00000000000E+00  0.11426416489E+03  0.47519893249E+03  0.46125668132E+03 0.  0.
      99925    2    3    3    0    0  0.71237643606E+02  0.93571804707E+02  0.89181526973E+02  0.30168486583E+03  0.26311580914E+03 0.  0.
         25    1    4    4    0    0  0.20659881364E+02  0.50845829202E+02  0.43340011231E+01  0.13666901884E+03  0.12509000000E+03 0.  0.
         25    1    4    4    0    0  0.50577762241E+02  0.42725975505E+02  0.84847525850E+02  0.16501584699E+03  0.12509000000E+03 0.  0.
         25    1    3    3    0    0 -0.71237643606E+02 -0.93571804707E+02  0.25082637916E+02  0.17351406666E+03  0.12509000000E+03 0.  0.
<mgrwt>
<rscale>  2 0.46125668E+03</rscale>
<asrwt>0</asrwt>
<pdfrwt beam="1">  1       21 0.43342875E-01 0.46125668E+03</pdfrwt>
<pdfrwt beam="2">  1       21 0.26539321E-01 0.46125668E+03</pdfrwt>
<totfact> 0.63823750E+04</totfact>
</mgrwt>
</event>
<event>
 7    0  0.4766352E-002  0.4458058E+03  0.7546771E-02  0.1028980E+00
         21   -1    0    0  502  501  0.00000000000E+00  0.00000000000E+00  0.19295303042E+04  0.19295303042E+04  0.00000000000E+00 0. -1.
         21   -1    0    0  501  502 -0.00000000000E+00 -0.00000000000E+00 -0.25750154977E+02  0.25750154977E+02  0.00000000000E+00 0. -1.
      99926    2    1    2    0    0 -0.14210854715E-13  0.00000000000E+00  0.19037801492E+04  0.19552804592E+04  0.44580580690E+03 0.  0.
      99925    2    3    3    0    0  0.78916848896E+02 -0.49103061951E+02  0.14159914839E+04  0.14432020766E+04  0.26298549740E+03 0.  0.
         25    1    4    4    0    0  0.68086013979E+02  0.42418590981E+01  0.71380999729E+03  0.72789141979E+03  0.12509000000E+03 0.  0.
         25    1    3    3    0    0 -0.78916848896E+02  0.49103061951E+02  0.48778866534E+03  0.51207838254E+03  0.12509000000E+03 0.  0.
         25    1    4    4    0    0  0.10830834917E+02 -0.53344921049E+02  0.70218148660E+03  0.71531065685E+03  0.12509000000E+03 0.  0.
<mgrwt>
<rscale>  2 0.44580581E+03</rscale>
<asrwt>0</asrwt>
<pdfrwt beam="1">  1       21 0.28375436E+00 0.44580581E+03</pdfrwt>
<pdfrwt beam="2">  1       21 0.37867888E-02 0.44580581E+03</pdfrwt>
<totfact> 0.15533264E+04</totfact>
</mgrwt>
</event>
<event>
 7    0  0.4766352E-002  0.4565919E+03  0.7546771E-02  0.1025774E+00
         21   -1    0    0  502  501  0.00000000000E+00  0.00000000000E+00  0.61775843933E+03  0.61775843933E+03  0.00000000000E+00 0.  1.
         21   -1    0    0  501  502 -0.00000000000E+00 -0.00000000000E+00 -0.84367982732E+02  0.84367982732E+02  0.00000000000E+00 0.  1.
      99926    2    1    2    0    0  0.00000000000E+00  0.00000000000E+00  0.53339045660E+03  0.70212642206E+03  0.45659186739E+03 0.  0.
      99925    2    3    3    0    0 -0.23101948994E+02 -0.10326338223E+03  0.40293589234E+03  0.49269164083E+03  0.26304123905E+03 0.  0.
         25    1    3    3    0    0  0.23101948994E+02  0.10326338223E+03  0.13045456425E+03  0.20943478124E+03  0.12509000000E+03 0.  0.
         25    1    4    4    0    0  0.22451898137E+02 -0.30852274909E+02  0.16417987514E+03  0.20990114363E+03  0.12509000000E+03 0.  0.
         25    1    4    4    0    0 -0.45553847131E+02 -0.72411107321E+02  0.23875601721E+03  0.28279049720E+03  0.12509000000E+03 0.  0.
<mgrwt>
<rscale>  2 0.45659187E+03</rscale>
<asrwt>0</asrwt>
<pdfrwt beam="1">  1       21 0.90846827E-01 0.45659187E+03</pdfrwt>
<pdfrwt beam="2">  1       21 0.12407057E-01 0.45659187E+03</pdfrwt>
<totfact> 0.52131527E+04</totfact>
</mgrwt>
</event>
<event>
 7    0  0.4766352E-002  0.4568763E+03  0.7546771E-02  0.1025691E+00
         21   -1    0    0  502  501  0.00000000000E+00  0.00000000000E+00  0.29377100663E+04  0.29377100663E+04  0.00000000000E+00 0. -1.
         21   -1    0    0  501  502 -0.00000000000E+00 -0.00000000000E+00 -0.17763491424E+02  0.17763491424E+02  0.00000000000E+00 0. -1.
      99926    2    1    2    0    0 -0.14210854715E-13  0.00000000000E+00  0.29199465748E+04  0.29554735577E+04  0.45687629647E+03 0.  0.
      99925    2    3    3    0    0  0.98590264667E+02  0.54208875289E+02  0.19880575611E+04  0.20085188151E+04  0.26289983261E+03 0.  0.
         25    1    3    3    0    0 -0.98590264667E+02 -0.54208875289E+02  0.93188901379E+03  0.94695474262E+03  0.12509000000E+03 0.  0.
         25    1    4    4    0    0  0.86459857596E+02  0.14474555327E+02  0.96728276387E+03  0.97926925465E+03  0.12509000000E+03 0.  0.
         25    1    4    4    0    0  0.12130407071E+02  0.39734319962E+02  0.10207747972E+04  0.10292495604E+04  0.12509000000E+03 0.  0.
<mgrwt>
<rscale>  2 0.45687630E+03</rscale>
<asrwt>0</asrwt>
<pdfrwt beam="1">  1       21 0.43201585E+00 0.45687630E+03</pdfrwt>
<pdfrwt beam="2">  1       21 0.26122802E-02 0.45687630E+03</pdfrwt>
<totfact> 0.34523116E+03</totfact>
</mgrwt>
</event>
<event>
 7    0  0.4766352E-002  0.4571360E+03  0.7546771E-02  0.1025615E+00
         21   -1    0    0  502  501  0.00000000000E+00  0.00000000000E+00  0.14820239608E+03  0.14820239608E+03  0.00000000000E+00 0.  1.
         21   -1    0    0  501  502 -0.00000000000E+00 -0.00000000000E+00 -0.35251333392E+03  0.35251333392E+03  0.00000000000E+00 0.  1.
      99926    2    1    2    0    0  0.14210854715E-13  0.71054273576E-14 -0.20431093784E+03  0.50071573000E+03  0.45713595674E+03 0.  0.
      99925    2    3    3    0    0 -0.74330979471E+02  0.51862590139E+02 -0.20611961224E+03  0.34623077226E+03  0.26301260491E+03 0.  0.
         25    1    4    4    0    0  0.48627248452E+01  0.20592533154E+02 -0.92772391800E+02  0.15716845515E+03  0.12509000000E+03 0.  0.
         25    1    3    3    0    0  0.74330979471E+02 -0.51862590139E+02  0.18086743978E+01  0.15448495774E+03  0.12509000000E+03 0.  0.
         25    1    4    4    0    0 -0.79193704316E+02  0.31270056985E+02 -0.11334722044E+03  0.18906231710E+03  0.12509000000E+03 0.  0.
<mgrwt>
<rscale>  2 0.45713596E+03</rscale>
<asrwt>0</asrwt>
<pdfrwt beam="1">  1       21 0.21794470E-01 0.45713596E+03</pdfrwt>
<pdfrwt beam="2">  1       21 0.51840197E-01 0.45713596E+03</pdfrwt>
<totfact> 0.64126202E+04</totfact>
</mgrwt>
</event>
<event>
 7    0  0.4766352E-002  0.4424071E+03  0.7546771E-02  0.1030011E+00
         21   -1    0    0  502  501  0.00000000000E+00  0.00000000000E+00  0.56256723717E+03  0.56256723717E+03  0.00000000000E+00 0.  1.
         21   -1    0    0  501  502 -0.00000000000E+00 -0.00000000000E+00 -0.86978072317E+02  0.86978072317E+02  0.00000000000E+00 0.  1.
      99926    2    1    2    0    0 -0.35527136788E-14  0.00000000000E+00  0.47558916485E+03  0.64954530949E+03  0.44240711494E+03 0.  0.
      99925    2    3    3    0    0 -0.28698918306E+02  0.85105003432E+02  0.36889484764E+03  0.46220157475E+03  0.26359134576E+03 0.  0.
         25    1    3    3    0    0  0.28698918306E+02 -0.85105003432E+02  0.10669431721E+03  0.18734373474E+03  0.12509000000E+03 0.  0.
         25    1    4    4    0    0  0.14304535113E+02  0.39240531343E+02  0.22916171569E+03  0.26439939308E+03  0.12509000000E+03 0.  0.
         25    1    4    4    0    0 -0.43003453418E+02  0.45864472089E+02  0.13973313195E+03  0.19780218167E+03  0.12509000000E+03 0.  0.
<mgrwt>
<rscale>  2 0.44240711E+03</rscale>
<asrwt>0</asrwt>
<pdfrwt beam="1">  1       21 0.82730474E-01 0.44240711E+03</pdfrwt>
<pdfrwt beam="2">  1       21 0.12790893E-01 0.44240711E+03</pdfrwt>
<totfact> 0.61624123E+04</totfact>
</mgrwt>
</event>
<event>
 7    0  0.4766352E-002  0.4251638E+03  0.7546771E-02  0.1035399E+00
         21   -1    0    0  502  501  0.00000000000E+00  0.00000000000E+00  0.91908066132E+02  0.91908066132E+02  0.00000000000E+00 0. -1.
         21   -1    0    0  501  502 -0.00000000000E+00 -0.00000000000E+00 -0.49169856184E+03  0.49169856184E+03  0.00000000000E+00 0. -1.
      99926    2    1    2    0    0 -0.35527136788E-14  0.00000000000E+00 -0.39979049571E+03  0.58360662797E+03  0.42516379874E+03 0.  0.
      99925    2    3    3    0    0 -0.24519748288E+02 -0.78001676231E+02 -0.25204405448E+03  0.37345906423E+03  0.26317292358E+03 0.  0.
         25    1    4    4    0    0 -0.39886153633E+01 -0.71748482111E+02 -0.10064603474E+03  0.17590021645E+03  0.12509000000E+03 0.  0.
         25    1    3    3    0    0  0.24519748288E+02  0.78001676231E+02 -0.14774644123E+03  0.21014756374E+03  0.12509000000E+03 0.  0.
         25    1    4    4    0    0 -0.20531132925E+02 -0.62531941197E+01 -0.15139801974E+03  0.19755884778E+03  0.12509000000E+03 0.  0.
<mgrwt>
<rscale>  2 0.42516380E+03</rscale>
<asrwt>0</asrwt>
<pdfrwt beam="1">  1       21 0.13515892E-01 0.42516380E+03</pdfrwt>
<pdfrwt beam="2">  1       21 0.72308611E-01 0.42516380E+03</pdfrwt>
<totfact> 0.76124652E+04</totfact>
</mgrwt>
</event>
<event>
 7    0  0.4766352E-002  0.4635880E+03  0.7546771E-02  0.1023746E+00
         21   -1    0    0  502  501  0.00000000000E+00  0.00000000000E+00  0.43548827562E+02  0.43548827562E+02  0.00000000000E+00 0. -1.
         21   -1    0    0  501  502 -0.00000000000E+00 -0.00000000000E+00 -0.12337521985E+04  0.12337521985E+04  0.00000000000E+00 0. -1.
      99926    2    1    2    0    0  0.00000000000E+00  0.00000000000E+00 -0.11902033710E+04  0.12773010261E+04  0.46358801429E+03 0.  0.
      99925    2    3    3    0    0  0.65049196535E+02 -0.83772006898E+01 -0.10235380680E+04  0.10588372836E+04  0.26306775000E+03 0.  0.
         25    1    4    4    0    0  0.10751487838E+02  0.29300367742E+02 -0.44962867133E+03  0.46774732092E+03  0.12509000000E+03 0.  0.
         25    1    3    3    0    0 -0.65049196535E+02  0.83772006898E+01 -0.16666530300E+03  0.21846374249E+03  0.12509000000E+03 0.  0.
         25    1    4    4    0    0  0.54297708698E+02 -0.37677568432E+02 -0.57390939663E+03  0.59108996267E+03  0.12509000000E+03 0.  0.
<mgrwt>
<rscale>  2 0.46358801E+03</rscale>
<asrwt>0</asrwt>
<pdfrwt beam="1">  1       21 0.64042384E-02 0.46358801E+03</pdfrwt>
<pdfrwt beam="2">  1       21 0.18143417E+00 0.46358801E+03</pdfrwt>
<totfact> 0.27871229E+04</totfact>
</mgrwt>
</event>
<event>
 7    0  0.4766352E-002  0.4479966E+03  0.7546771E-02  0.1028321E+00
         21   -1    0    0  502  501  0.00000000000E+00  0.00000000000E+00  0.13601856823E+04  0.13601856823E+04  0.00000000000E+00 0.  1.
         21   -1    0    0  501  502 -0.00000000000E+00 -0.00000000000E+00 -0.36888525463E+02  0.36888525463E+02  0.00000000000E+00 0.  1.
      99926    2    1    2    0    0  0.00000000000E+00  0.00000000000E+00  0.13232971569E+04  0.13970742078E+04  0.44799662578E+03 0.  0.
      99925    2    3    3    0    0 -0.56865573579E+02  0.54655102469E+02  0.61490482830E+03  0.67341125244E+03  0.26297127857E+03 0.  0.
         25    1    4    4    0    0 -0.44751280028E+01  0.58725735452E+02  0.28801722472E+03  0.31948422279E+03  0.12509000000E+03 0.  0.
         25    1    4    4    0    0 -0.52390445576E+02 -0.40706329831E+01  0.32688760358E+03  0.35392702965E+03  0.12509000000E+03 0.  0.
         25    1    3    3    0    0  0.56865573579E+02 -0.54655102469E+02  0.70839232857E+03  0.72366295536E+03  0.12509000000E+03 0.  0.
<mgrwt>
<rscale>  2 0.44799663E+03</rscale>
<asrwt>0</asrwt>
<pdfrwt beam="1">  1       21 0.20002727E+00 0.44799663E+03</pdfrwt>
<pdfrwt beam="2">  1       21 0.54247840E-02 0.44799663E+03</pdfrwt>
<totfact> 0.27897826E+04</totfact>
</mgrwt>
</event>
<event>
 7    0  0.4766352E-002  0.4483904E+03  0.7546771E-02  0.1028203E+00
         21   -1    0    0  502  501  0.00000000000E+00  0.00000000000E+00  0.27508785810E+03  0.27508785810E+03  0.00000000000E+00 0. -1.
         21   -1    0    0  501  502 -0.00000000000E+00 -0.00000000000E+00 -0.18271790546E+03  0.18271790546E+03  0.00000000000E+00 0. -1.
      99926    2    1    2    0    0  0.00000000000E+00  0.71054273576E-14  0.92369952636E+02  0.45780576356E+03  0.44839035337E+03 0.  0.
      99925    2    3    3    0    0 -0.76812539506E+02  0.35728065237E+02  0.12506198001E+03  0.30323235826E+03  0.26293098597E+03 0.  0.
         25    1    4    4    0    0 -0.13513029118E+01 -0.28897815005E+01  0.55829371282E+02  0.13702044977E+03  0.12509000000E+03 0.  0.
         25    1    4    4    0    0 -0.75461236594E+02  0.38617846738E+02  0.69232608724E+02  0.16621190850E+03  0.12509000000E+03 0.  0.
         25    1    3    3    0    0  0.76812539506E+02 -0.35728065237E+02 -0.32692027370E+02  0.15457340529E+03  0.12509000000E+03 0.  0.
<mgrwt>
<rscale>  2 0.44839035E+03</rscale>
<asrwt>0</asrwt>
<pdfrwt beam="1">  1       21 0.40454097E-01 0.44839035E+03</pdfrwt>
<pdfrwt beam="2">  1       21 0.26870280E-01 0.44839035E+03</pdfrwt>
<totfact> 0.72058582E+04</totfact>
</mgrwt>
</event>
<event>
 7    0  0.4766352E-002  0.5006455E+03  0.7546771E-02  0.1013611E+00
         21   -1    0    0  502  501  0.00000000000E+00  0.00000000000E+00  0.10006244589E+04  0.10006244589E+04  0.00000000000E+00 0. -1.
         21   -1    0    0  501  502 -0.00000000000E+00 -0.00000000000E+00 -0.62622376646E+02  0.62622376646E+02  0.00000000000E+00 0. -1.
      99926    2    1    2    0    0  0.00000000000E+00  0.00000000000E+00  0.93800208225E+03  0.10632468355E+04  0.50064551030E+03 0.  0.
      99925    2    3    3    0    0  0.41830897840E+02  0.14215378878E+03  0.64110552298E+03  0.70863070692E+03  0.26302787591E+03 0.  0.
         25    1    3    3    0    0 -0.41830897840E+02 -0.14215378878E+03  0.29689655927E+03  0.35461612863E+03  0.12509000000E+03 0.  0.
         25    1    4    4    0    0  0.60320576444E+01  0.11070224522E+03  0.32881230921E+03  0.36885825950E+03  0.12509000000E+03 0.  0.
         25    1    4    4    0    0  0.35798840195E+02  0.31451543553E+02  0.31229321378E+03  0.33977244741E+03  0.12509000000E+03 0.  0.
<mgrwt>
<rscale>  2 0.50064551E+03</rscale>
<asrwt>0</asrwt>
<pdfrwt beam="1">  1       21 0.14715065E+00 0.50064551E+03</pdfrwt>
<pdfrwt beam="2">  1       21 0.92091736E-02 0.50064551E+03</pdfrwt>
<totfact> 0.26157611E+04</totfact>
</mgrwt>
</event>
<event>
 7    0  0.4766352E-002  0.4458197E+03  0.7546771E-02  0.1028976E+00
         21   -1    0    0  502  501  0.00000000000E+00  0.00000000000E+00  0.78747132568E+03  0.78747132568E+03  0.00000000000E+00 0. -1.
         21   -1    0    0  501  502 -0.00000000000E+00 -0.00000000000E+00 -0.63099194198E+02  0.63099194198E+02  0.00000000000E+00 0. -1.
      99926    2    1    2    0    0  0.00000000000E+00  0.00000000000E+00  0.72437213149E+03  0.85057051988E+03  0.44581972188E+03 0.  0.
      99925    2    3    3    0    0 -0.54563362727E+02 -0.70160654173E+02  0.35545685302E+03  0.45101367945E+03  0.26299065906E+03 0.  0.
         25    1    4    4    0    0 -0.35803087316E+02 -0.51417327051E+02  0.12573871186E+03  0.18810458352E+03  0.12509000000E+03 0.  0.
         25    1    3    3    0    0  0.54563362727E+02  0.70160654173E+02  0.36891527847E+03  0.39955684043E+03  0.12509000000E+03 0.  0.
         25    1    4    4    0    0 -0.18760275411E+02 -0.18743327123E+02  0.22971814116E+03  0.26290909593E+03  0.12509000000E+03 0.  0.
<mgrwt>
<rscale>  2 0.44581972E+03</rscale>
<asrwt>0</asrwt>
<pdfrwt beam="1">  1       21 0.11580460E+00 0.44581972E+03</pdfrwt>
<pdfrwt beam="2">  1       21 0.92792937E-02 0.44581972E+03</pdfrwt>
<totfact> 0.48836907E+04</totfact>
</mgrwt>
</event>
<event>
 7    0  0.4766352E-002  0.4530564E+03  0.7546771E-02  0.1026814E+00
         21   -1    0    0  502  501  0.00000000000E+00  0.00000000000E+00  0.13058592159E+03  0.13058592159E+03  0.00000000000E+00 0. -1.
         21   -1    0    0  501  502 -0.00000000000E+00 -0.00000000000E+00 -0.39295993630E+03  0.39295993630E+03  0.00000000000E+00 0. -1.
      99926    2    1    2    0    0  0.17763568394E-14 -0.35527136788E-14 -0.26237401471E+03  0.52354585789E+03  0.45305644430E+03 0.  0.
      99925    2    3    3    0    0 -0.11813952678E+02  0.29922751629E+02 -0.28855846951E+03  0.39175786786E+03  0.26300816748E+03 0.  0.
         25    1    4    4    0    0  0.87194558977E+01 -0.19349427826E+02 -0.16387409122E+03  0.20725022350E+03  0.12509000000E+03 0.  0.
         25    1    4    4    0    0 -0.20533408576E+02  0.49272179454E+02 -0.12468437829E+03  0.18450764436E+03  0.12509000000E+03 0.  0.
         25    1    3    3    0    0  0.11813952678E+02 -0.29922751629E+02  0.26184454805E+02  0.13178799003E+03  0.12509000000E+03 0.  0.
<mgrwt>
<rscale>  2 0.45305644E+03</rscale>
<asrwt>0</asrwt>
<pdfrwt beam="1">  1       21 0.19203812E-01 0.45305644E+03</pdfrwt>
<pdfrwt beam="2">  1       21 0.57788227E-01 0.45305644E+03</pdfrwt>
<totfact> 0.64635660E+04</totfact>
</mgrwt>
</event>
<event>
 7    0  0.4766352E-002  0.4515354E+03  0.7546771E-02  0.1027265E+00
         21   -1    0    0  502  501  0.00000000000E+00  0.00000000000E+00  0.16008186542E+03  0.16008186542E+03  0.00000000000E+00 0.  1.
         21   -1    0    0  501  502 -0.00000000000E+00 -0.00000000000E+00 -0.31840623392E+03  0.31840623392E+03  0.00000000000E+00 0.  1.
      99926    2    1    2    0    0  0.00000000000E+00  0.00000000000E+00 -0.15832436850E+03  0.47848809934E+03  0.45153544219E+03 0.  0.
      99925    2    3    3    0    0  0.42060288532E+02  0.95774033633E+02 -0.13587654486E+03  0.31388814103E+03  0.26290986335E+03 0.  0.
         25    1    4    4    0    0 -0.16567246480E+02  0.55975998502E+02 -0.52448948199E+02  0.14766917868E+03  0.12509000000E+03 0.  0.
         25    1    3    3    0    0 -0.42060288532E+02 -0.95774033633E+02 -0.22447823639E+02  0.16459995831E+03  0.12509000000E+03 0.  0.
         25    1    4    4    0    0  0.58627535012E+02  0.39798035131E+02 -0.83427596662E+02  0.16621896236E+03  0.12509000000E+03 0.  0.
<mgrwt>
<rscale>  2 0.45153544E+03</rscale>
<asrwt>0</asrwt>
<pdfrwt beam="1">  1       21 0.23541451E-01 0.45153544E+03</pdfrwt>
<pdfrwt beam="2">  1       21 0.46824445E-01 0.45153544E+03</pdfrwt>
<totfact> 0.68679673E+04</totfact>
</mgrwt>
</event>
<event>
 7    0  0.4766352E-002  0.4704098E+03  0.7546771E-02  0.1021805E+00
         21   -1    0    0  502  501  0.00000000000E+00  0.00000000000E+00  0.71292784413E+03  0.71292784413E+03  0.00000000000E+00 0. -1.
         21   -1    0    0  501  502 -0.00000000000E+00 -0.00000000000E+00 -0.77597410586E+02  0.77597410586E+02  0.00000000000E+00 0. -1.
      99926    2    1    2    0    0  0.00000000000E+00  0.00000000000E+00  0.63533043354E+03  0.79052525472E+03  0.47040984105E+03 0.  0.
      99925    2    3    3    0    0  0.70544831291E+02 -0.97820612331E+02  0.46527487074E+03  0.54739597232E+03  0.26194694072E+03 0.  0.
         25    1    3    3    0    0 -0.70544831291E+02  0.97820612331E+02  0.17005556281E+03  0.24312928240E+03  0.12509000000E+03 0.  0.
         25    1    4    4    0    0  0.18206850705E+00 -0.65324511553E+02  0.22044876249E+03  0.26174890629E+03  0.12509000000E+03 0.  0.
         25    1    4    4    0    0  0.70362762784E+02 -0.32496100778E+02  0.24482610824E+03  0.28564706603E+03  0.12509000000E+03 0.  0.
<mgrwt>
<rscale>  2 0.47040984E+03</rscale>
<asrwt>0</asrwt>
<pdfrwt beam="1">  1       21 0.10484233E+00 0.47040984E+03</pdfrwt>
<pdfrwt beam="2">  1       21 0.11411384E-01 0.47040984E+03</pdfrwt>
<totfact> 0.42809489E+04</totfact>
</mgrwt>
</event>
<event>
 7    0  0.4766352E-002  0.4233523E+03  0.7546771E-02  0.1035981E+00
         21   -1    0    0  502  501  0.00000000000E+00  0.00000000000E+00  0.13447366519E+04  0.13447366519E+04  0.00000000000E+00 0. -1.
         21   -1    0    0  501  502 -0.00000000000E+00 -0.00000000000E+00 -0.33320117174E+02  0.33320117174E+02  0.00000000000E+00 0. -1.
      99926    2    1    2    0    0  0.35527136788E-14  0.00000000000E+00  0.13114165347E+04  0.13780567691E+04  0.42335225432E+03 0.  0.
      99925    2    3    3    0    0  0.29099426266E+02  0.66226473629E+02  0.96358352483E+03  0.10014030378E+04  0.26283476245E+03 0.  0.
         25    1    4    4    0    0 -0.34026917815E+01  0.49621025934E+02  0.37115082029E+03  0.39480914886E+03  0.12509000000E+03 0.  0.
         25    1    3    3    0    0 -0.29099426266E+02 -0.66226473629E+02  0.34783300990E+03  0.37665373129E+03  0.12509000000E+03 0.  0.
         25    1    4    4    0    0  0.32502118048E+02  0.16605447695E+02  0.59243270454E+03  0.60659388893E+03  0.12509000000E+03 0.  0.
<mgrwt>
<rscale>  2 0.42335225E+03</rscale>
<asrwt>0</asrwt>
<pdfrwt beam="1">  1       21 0.19775535E+00 0.42335225E+03</pdfrwt>
<pdfrwt beam="2">  1       21 0.49000181E-02 0.42335225E+03</pdfrwt>
<totfact> 0.34706688E+04</totfact>
</mgrwt>
</event>
<event>
 7    0  0.4766352E-002  0.4430258E+03  0.7546771E-02  0.1029822E+00
         21   -1    0    0  502  501  0.00000000000E+00  0.00000000000E+00  0.26879190041E+03  0.26879190041E+03  0.00000000000E+00 0.  1.
         21   -1    0    0  501  502 -0.00000000000E+00 -0.00000000000E+00 -0.18255003719E+03  0.18255003719E+03  0.00000000000E+00 0.  1.
      99926    2    1    2    0    0 -0.13322676296E-14  0.00000000000E+00  0.86241863213E+02  0.45134193760E+03  0.44302582957E+03 0.  0.
      99925    2    3    3    0    0  0.29162100049E+01  0.75738812532E+02  0.12496152185E+03  0.30004226123E+03  0.26204027282E+03 0.  0.
         25    1    3    3    0    0 -0.29162100049E+01 -0.75738812532E+02 -0.38719658632E+02  0.15129967637E+03  0.12509000000E+03 0.  0.
         25    1    4    4    0    0 -0.31655140519E+02  0.16412441643E+02  0.58148554061E+02  0.14247869525E+03  0.12509000000E+03 0.  0.
         25    1    4    4    0    0  0.34571350524E+02  0.59326370889E+02  0.66812967785E+02  0.15756356598E+03  0.12509000000E+03 0.  0.
<mgrwt>
<rscale>  2 0.44302583E+03</rscale>
<asrwt>0</asrwt>
<pdfrwt beam="1">  1       21 0.39528221E-01 0.44302583E+03</pdfrwt>
<pdfrwt beam="2">  1       21 0.26845594E-01 0.44302583E+03</pdfrwt>
<totfact> 0.75796740E+04</totfact>
</mgrwt>
</event>
<event>
 7    0  0.4766352E-002  0.4591847E+03  0.7546771E-02  0.1025018E+00
         21   -1    0    0  502  501  0.00000000000E+00  0.00000000000E+00  0.44671556122E+03  0.44671556122E+03  0.00000000000E+00 0.  1.
         21   -1    0    0  501  502 -0.00000000000E+00 -0.00000000000E+00 -0.11800045886E+03  0.11800045886E+03  0.00000000000E+00 0.  1.
      99926    2    1    2    0    0  0.00000000000E+00 -0.14210854715E-13  0.32871510236E+03  0.56471602009E+03  0.45918467398E+03 0.  0.
      99925    2    3    3    0    0 -0.10281679350E+02 -0.10727924406E+03  0.26216135230E+03  0.38669506940E+03  0.26303983144E+03 0.  0.
         25    1    4    4    0    0 -0.32688423011E+01 -0.88884062918E+02  0.17603069895E+03  0.23354951733E+03  0.12509000000E+03 0.  0.
         25    1    4    4    0    0 -0.70128370491E+01 -0.18395181142E+02  0.86130653341E+02  0.15314555207E+03  0.12509000000E+03 0.  0.
         25    1    3    3    0    0  0.10281679350E+02  0.10727924406E+03  0.66553750067E+02  0.17802095069E+03  0.12509000000E+03 0.  0.
<mgrwt>
<rscale>  2 0.45918467E+03</rscale>
<asrwt>0</asrwt>
<pdfrwt beam="1">  1       21 0.65693464E-01 0.45918467E+03</pdfrwt>
<pdfrwt beam="2">  1       21 0.17353009E-01 0.45918467E+03</pdfrwt>
<totfact> 0.58929688E+04</totfact>
</mgrwt>
</event>
<event>
 7    0  0.4766352E-002  0.4006756E+03  0.7546771E-02  0.1043546E+00
         21   -1    0    0  502  501  0.00000000000E+00  0.00000000000E+00  0.90515373235E+02  0.90515373235E+02  0.00000000000E+00 0.  1.
         21   -1    0    0  501  502 -0.00000000000E+00 -0.00000000000E+00 -0.44340783647E+03  0.44340783647E+03  0.00000000000E+00 0.  1.
      99926    2    1    2    0    0  0.00000000000E+00  0.71054273576E-14 -0.35289246323E+03  0.53392320970E+03  0.40067555859E+03 0.  0.
      99925    2    3    3    0    0  0.18763139052E+02 -0.41392576759E+02 -0.22119035606E+03  0.34668444787E+03  0.26305803919E+03 0.  0.
         25    1    4    4    0    0  0.25199251394E+02 -0.25135060917E+02 -0.16042955297E+03  0.20652342028E+03  0.12509000000E+03 0.  0.
         25    1    3    3    0    0 -0.18763139052E+02  0.41392576759E+02 -0.13170210717E+03  0.18723876183E+03  0.12509000000E+03 0.  0.
         25    1    4    4    0    0 -0.64361123428E+01 -0.16257515843E+02 -0.60760803091E+02  0.14016102759E+03  0.12509000000E+03 0.  0.
<mgrwt>
<rscale>  2 0.40067556E+03</rscale>
<asrwt>0</asrwt>
<pdfrwt beam="1">  1       21 0.13311084E-01 0.40067556E+03</pdfrwt>
<pdfrwt beam="2">  1       21 0.65207035E-01 0.40067556E+03</pdfrwt>
<totfact> 0.99198464E+04</totfact>
</mgrwt>
</event>
<event>
 7    0  0.4766352E-002  0.4419364E+03  0.7546771E-02  0.1030154E+00
         21   -1    0    0  502  501  0.00000000000E+00  0.00000000000E+00  0.20496530017E+03  0.20496530017E+03  0.00000000000E+00 0. -1.
         21   -1    0    0  501  502 -0.00000000000E+00 -0.00000000000E+00 -0.23822053276E+03  0.23822053276E+03  0.00000000000E+00 0. -1.
      99926    2    1    2    0    0 -0.17763568394E-14  0.00000000000E+00 -0.33255232590E+02  0.44318583293E+03  0.44193638911E+03 0.  0.
      99925    2    3    3    0    0 -0.80596178650E+01 -0.70687929414E+02 -0.92179563226E+02  0.28768237430E+03  0.26306336842E+03 0.  0.
         25    1    4    4    0    0  0.35921488568E+02 -0.42884991314E+02 -0.47236555037E+02  0.14494231974E+03  0.12509000000E+03 0.  0.
         25    1    3    3    0    0  0.80596178650E+01  0.70687929414E+02  0.58924330636E+02  0.15550345863E+03  0.12509000000E+03 0.  0.
         25    1    4    4    0    0 -0.43981106433E+02 -0.27802938100E+02 -0.44943008189E+02  0.14274005456E+03  0.12509000000E+03 0.  0.
<mgrwt>
<rscale>  2 0.44193639E+03</rscale>
<asrwt>0</asrwt>
<pdfrwt beam="1">  1       21 0.30141956E-01 0.44193639E+03</pdfrwt>
<pdfrwt beam="2">  1       21 0.35032431E-01 0.44193639E+03</pdfrwt>
<totfact> 0.77153760E+04</totfact>
</mgrwt>
</event>
<event>
 7    0  0.4766352E-002  0.4534603E+03  0.7546771E-02  0.1026695E+00
         21   -1    0    0  502  501  0.00000000000E+00  0.00000000000E+00  0.11847174706E+04  0.11847174706E+04  0.00000000000E+00 0.  1.
         21   -1    0    0  501  502 -0.00000000000E+00 -0.00000000000E+00 -0.43391412909E+02  0.43391412909E+02  0.00000000000E+00 0.  1.
      99926    2    1    2    0    0 -0.35527136788E-14  0.00000000000E+00  0.11413260577E+04  0.12281088835E+04  0.45346031776E+03 0.  0.
      99925    2    3    3    0    0 -0.25937589639E+02 -0.88976638988E+02  0.88807205002E+03  0.93083005590E+03  0.26302666423E+03 0.  0.
         25    1    4    4    0    0  0.89551488580E+01 -0.31449260392E+02  0.31686193340E+03  0.34222542806E+03  0.12509000000E+03 0.  0.
         25    1    3    3    0    0  0.25937589639E+02  0.88976638988E+02  0.25325400765E+03  0.29727882759E+03  0.12509000000E+03 0.  0.
         25    1    4    4    0    0 -0.34892738497E+02 -0.57527378596E+02  0.57121011662E+03  0.58860462784E+03  0.12509000000E+03 0.  0.
<mgrwt>
<rscale>  2 0.45346032E+03</rscale>
<asrwt>0</asrwt>
<pdfrwt beam="1">  1       21 0.17422314E+00 0.45346032E+03</pdfrwt>
<pdfrwt beam="2">  1       21 0.63810909E-02 0.45346032E+03</pdfrwt>
<totfact> 0.31653880E+04</totfact>
</mgrwt>
</event>
<event>
 6    0  0.4766352E-002  0.4370929E+03  0.7546771E-02  0.1031643E+00
         21   -1    0    0  502  501  0.00000000000E+00  0.00000000000E+00  0.61549743656E+02  0.61549743656E+02  0.00000000000E+00 0. -1.
         21   -1    0    0  501  502 -0.00000000000E+00 -0.00000000000E+00 -0.77599924086E+03  0.77599924086E+03  0.00000000000E+00 0. -1.
      99926    2    1    2    0    0 -0.14210854715E-13  0.00000000000E+00 -0.71444949721E+03  0.83754898452E+03  0.43709291622E+03 0.  0.
         25    1    3    3    0    0  0.77303059422E+02  0.15382989869E+02 -0.16295203176E+03  0.22003016186E+03  0.12509000000E+03 0.  0.
         25    1    3    3    0    0  0.67346458365E+01  0.53372021168E+00 -0.22365825101E+03  0.25635163673E+03  0.12509000000E+03 0.  0.
         25    1    3    3    0    0 -0.84037705259E+02 -0.15916710081E+02 -0.32783921444E+03  0.36116718593E+03  0.12509000000E+03 0.  0.
<mgrwt>
<rscale>  2 0.43709292E+03</rscale>
<asrwt>0</asrwt>
<pdfrwt beam="1">  1       21 0.90514335E-02 0.43709292E+03</pdfrwt>
<pdfrwt beam="2">  1       21 0.11411753E+00 0.43709292E+03</pdfrwt>
<totfact> 0.53074146E+04</totfact>
</mgrwt>
</event>
<event>
 7    0  0.4766352E-002  0.4554346E+03  0.7546771E-02  0.1026114E+00
         21   -1    0    0  502  501  0.00000000000E+00  0.00000000000E+00  0.52204168755E+03  0.52204168755E+03  0.00000000000E+00 0. -1.
         21   -1    0    0  501  502 -0.00000000000E+00 -0.00000000000E+00 -0.99331477965E+02  0.99331477965E+02  0.00000000000E+00 0. -1.
      99926    2    1    2    0    0  0.00000000000E+00  0.71054273576E-14  0.42271020958E+03  0.62137316551E+03  0.45543461609E+03 0.  0.
      99925    2    3    3    0    0 -0.64646606002E+02  0.60926784060E+02  0.16981137866E+03  0.32557495141E+03  0.26319553184E+03 0.  0.
         25    1    3    3    0    0  0.64646606002E+02 -0.60926784060E+02  0.25289883092E+03  0.29579821410E+03  0.12509000000E+03 0.  0.
         25    1    4    4    0    0 -0.54788079624E+02  0.49248696575E+02  0.55453042258E+02  0.15540178821E+03  0.12509000000E+03 0.  0.
         25    1    4    4    0    0 -0.98585263789E+01  0.11678087485E+02  0.11435833641E+03  0.17017316320E+03  0.12509000000E+03 0.  0.
<mgrwt>
<rscale>  2 0.45543462E+03</rscale>
<asrwt>0</asrwt>
<pdfrwt beam="1">  1       21 0.76770835E-01 0.45543462E+03</pdfrwt>
<pdfrwt beam="2">  1       21 0.14607570E-01 0.45543462E+03</pdfrwt>
<totfact> 0.57185108E+04</totfact>
</mgrwt>
</event>
<event>
 7    0  0.4766352E-002  0.4492788E+03  0.7546771E-02  0.1027937E+00
         21   -1    0    0  502  501  0.00000000000E+00  0.00000000000E+00  0.59182076700E+03  0.59182076700E+03  0.00000000000E+00 0.  1.
         21   -1    0    0  501  502 -0.00000000000E+00 -0.00000000000E+00 -0.85267127951E+02  0.85267127951E+02  0.00000000000E+00 0.  1.
      99926    2    1    2    0    0  0.17763568394E-14 -0.88817841970E-15  0.50655363905E+03  0.67708789495E+03  0.44927878678E+03 0.  0.
      99925    2    3    3    0    0 -0.15397572521E+02  0.76411103507E+01  0.16031667048E+03  0.30854614927E+03  0.26306618860E+03 0.  0.
         25    1    4    4    0    0 -0.30860471278E+02  0.12122054258E+01  0.11996024478E+03  0.17604489927E+03  0.12509000000E+03 0.  0.
         25    1    3    3    0    0  0.15397572521E+02 -0.76411103507E+01  0.34623696857E+03  0.36854174568E+03  0.12509000000E+03 0.  0.
         25    1    4    4    0    0  0.15462898757E+02  0.64289049249E+01  0.40356425696E+02  0.13250125000E+03  0.12509000000E+03 0.  0.
<mgrwt>
<rscale>  2 0.44927879E+03</rscale>
<asrwt>0</asrwt>
<pdfrwt beam="1">  1       21 0.87032464E-01 0.44927879E+03</pdfrwt>
<pdfrwt beam="2">  1       21 0.12539284E-01 0.44927879E+03</pdfrwt>
<totfact> 0.56675810E+04</totfact>
</mgrwt>
</event>
<event>
 7    0  0.4766352E-002  0.4628894E+03  0.7546771E-02  0.1023947E+00
         21   -1    0    0  502  501  0.00000000000E+00  0.00000000000E+00  0.86551706388E+02  0.86551706388E+02  0.00000000000E+00 0.  1.
         21   -1    0    0  501  502 -0.00000000000E+00 -0.00000000000E+00 -0.61889776960E+03  0.61889776960E+03  0.00000000000E+00 0.  1.
      99926    2    1    2    0    0  0.14210854715E-13  0.00000000000E+00 -0.53234606321E+03  0.70544947598E+03  0.46288943837E+03 0.  0.
      99925    2    3    3    0    0 -0.11007780039E+03 -0.43470520036E+02 -0.29928250115E+03  0.41566862722E+03  0.26306574066E+03 0.  0.
         25    1    3    3    0    0  0.11007780039E+03  0.43470520036E+02 -0.23306356206E+03  0.28978084876E+03  0.12509000000E+03 0.  0.
         25    1    4    4    0    0 -0.41514909847E+02 -0.27165920541E+02 -0.90078887640E+02  0.16193575602E+03  0.12509000000E+03 0.  0.
         25    1    4    4    0    0 -0.68562890540E+02 -0.16304599495E+02 -0.20920361351E+03  0.25373287120E+03  0.12509000000E+03 0.  0.
<mgrwt>
<rscale>  2 0.46288944E+03</rscale>
<asrwt>0</asrwt>
<pdfrwt beam="1">  1       21 0.12728192E-01 0.46288944E+03</pdfrwt>
<pdfrwt beam="2">  1       21 0.91014376E-01 0.46288944E+03</pdfrwt>
<totfact> 0.49464986E+04</totfact>
</mgrwt>
</event>
<event>
 7    0  0.4766352E-002  0.4562364E+03  0.7546771E-02  0.1025878E+00
         21   -1    0    0  502  501  0.00000000000E+00  0.00000000000E+00  0.10067063630E+04  0.10067063630E+04  0.00000000000E+00 0.  1.
         21   -1    0    0  501  502 -0.00000000000E+00 -0.00000000000E+00 -0.51691260183E+02  0.51691260183E+02  0.00000000000E+00 0.  1.
      99926    2    1    2    0    0  0.00000000000E+00  0.00000000000E+00  0.95501510279E+03  0.10583976232E+04  0.45623643229E+03 0.  0.
      99925    2    3    3    0    0  0.10490533062E+03  0.34209317144E+02  0.53103884695E+03  0.60278948080E+03  0.26301615048E+03 0.  0.
         25    1    4    4    0    0  0.64170274274E+02 -0.16599735376E+02  0.30686882504E+03  0.33794875232E+03  0.12509000000E+03 0.  0.
         25    1    3    3    0    0 -0.10490533062E+03 -0.34209317144E+02  0.42397625584E+03  0.45560814236E+03  0.12509000000E+03 0.  0.
         25    1    4    4    0    0  0.40735056346E+02  0.50809052521E+02  0.22417002191E+03  0.26484072847E+03  0.12509000000E+03 0.  0.
<mgrwt>
<rscale>  2 0.45623643E+03</rscale>
<asrwt>0</asrwt>
<pdfrwt beam="1">  1       21 0.14804504E+00 0.45623643E+03</pdfrwt>
<pdfrwt beam="2">  1       21 0.76016565E-02 0.45623643E+03</pdfrwt>
<totfact> 0.36616140E+04</totfact>
</mgrwt>
</event>
<event>
 7    0  0.4766352E-002  0.4557205E+03  0.7546771E-02  0.1026030E+00
         21   -1    0    0  502  501  0.00000000000E+00  0.00000000000E+00  0.59995043628E+02  0.59995043628E+02  0.00000000000E+00 0.  1.
         21   -1    0    0  501  502 -0.00000000000E+00 -0.00000000000E+00 -0.86540986732E+03  0.86540986732E+03  0.00000000000E+00 0.  1.
      99926    2    1    2    0    0  0.00000000000E+00 -0.71054273576E-14 -0.80541482369E+03  0.92540491095E+03  0.45572054045E+03 0.  0.
      99925    2    3    3    0    0 -0.19768053256E+02 -0.59311347326E+02 -0.69970892868E+03  0.75010557783E+03  0.26297752977E+03 0.  0.
         25    1    4    4    0    0 -0.57682759348E+01 -0.70564312894E+02 -0.38662092487E+03  0.41247526339E+03  0.12509000000E+03 0.  0.
         25    1    4    4    0    0 -0.13999777322E+02  0.11252965568E+02 -0.31308800382E+03  0.33763031444E+03  0.12509000000E+03 0.  0.
         25    1    3    3    0    0  0.19768053256E+02  0.59311347326E+02 -0.10570589501E+03  0.17529933312E+03  0.12509000000E+03 0.  0.
<mgrwt>
<rscale>  2 0.45572054E+03</rscale>
<asrwt>0</asrwt>
<pdfrwt beam="1">  1       21 0.88228013E-02 0.45572054E+03</pdfrwt>
<pdfrwt beam="2">  1       21 0.12726615E+00 0.45572054E+03</pdfrwt>
<totfact> 0.41916428E+04</totfact>
</mgrwt>
</event>
<event>
 7    0  0.4766352E-002  0.4535021E+03  0.7546771E-02  0.1026683E+00
         21   -1    0    0  502  501  0.00000000000E+00  0.00000000000E+00  0.80025003310E+02  0.80025003310E+02  0.00000000000E+00 0.  1.
         21   -1    0    0  501  502 -0.00000000000E+00 -0.00000000000E+00 -0.64249969821E+03  0.64249969821E+03  0.00000000000E+00 0.  1.
      99926    2    1    2    0    0  0.00000000000E+00 -0.35527136788E-14 -0.56247469490E+03  0.72252470152E+03  0.45350210794E+03 0.  0.
      99925    2    3    3    0    0 -0.81051067085E+02  0.28988149008E+02 -0.24077702412E+03  0.36679096999E+03  0.26296853817E+03 0.  0.
         25    1    3    3    0    0  0.81051067085E+02 -0.28988149008E+02 -0.32169767078E+03  0.35573373153E+03  0.12509000000E+03 0.  0.
         25    1    4    4    0    0 -0.48915353572E+02 -0.19288821174E+02 -0.91955813007E+02  0.16391506973E+03  0.12509000000E+03 0.  0.
         25    1    4    4    0    0 -0.32135713513E+02  0.48276970182E+02 -0.14882121111E+03  0.20287590027E+03  0.12509000000E+03 0.  0.
<mgrwt>
<rscale>  2 0.45350211E+03</rscale>
<asrwt>0</asrwt>
<pdfrwt beam="1">  1       21 0.11768383E-01 0.45350211E+03</pdfrwt>
<pdfrwt beam="2">  1       21 0.94485249E-01 0.45350211E+03</pdfrwt>
<totfact> 0.52310611E+04</totfact>
</mgrwt>
</event>
<event>
 7    0  0.4766352E-002  0.4514208E+03  0.7546771E-02  0.1027299E+00
         21   -1    0    0  502  501  0.00000000000E+00  0.00000000000E+00  0.47080604062E+03  0.47080604062E+03  0.00000000000E+00 0. -1.
         21   -1    0    0  501  502 -0.00000000000E+00 -0.00000000000E+00 -0.10820844617E+03  0.10820844617E+03  0.00000000000E+00 0. -1.
      99926    2    1    2    0    0  0.00000000000E+00  0.00000000000E+00  0.36259759445E+03  0.57901448679E+03  0.45142082408E+03 0.  0.
      99925    2    3    3    0    0  0.68868603686E+02  0.85444044437E+02  0.23446432680E+03  0.36899255536E+03  0.26294184921E+03 0.  0.
         25    1    4    4    0    0  0.14644616809E+02  0.75937149309E+02  0.10465567431E+03  0.18050272494E+03  0.12509000000E+03 0.  0.
         25    1    3    3    0    0 -0.68868603686E+02 -0.85444044437E+02  0.12813326765E+03  0.21002193143E+03  0.12509000000E+03 0.  0.
         25    1    4    4    0    0  0.54223986877E+02  0.95068951272E+01  0.12980865250E+03  0.18848983042E+03  0.12509000000E+03 0.  0.
<mgrwt>
<rscale>  2 0.45142082E+03</rscale>
<asrwt>0</asrwt>
<pdfrwt beam="1">  1       21 0.69236182E-01 0.45142082E+03</pdfrwt>
<pdfrwt beam="2">  1       21 0.15913007E-01 0.45142082E+03</pdfrwt>
<totfact> 0.61716847E+04</totfact>
</mgrwt>
</event>
<event>
 7    0  0.4766352E-002  0.4442698E+03  0.7546771E-02  0.1029445E+00
         21   -1    0    0  502  501  0.00000000000E+00  0.00000000000E+00  0.31328538898E+03  0.31328538898E+03  0.00000000000E+00 0.  1.
         21   -1    0    0  501  502 -0.00000000000E+00 -0.00000000000E+00 -0.15750465964E+03  0.15750465964E+03  0.00000000000E+00 0.  1.
      99926    2    1    2    0    0  0.14210854715E-13  0.14210854715E-13  0.15578072934E+03  0.47079004862E+03  0.44426977642E+03 0.  0.
      99925    2    3    3    0    0  0.76593574420E+02  0.68365241040E+02  0.10435941534E+03  0.30099004432E+03  0.26298999484E+03 0.  0.
         25    1    4    4    0    0  0.72059376773E+02  0.39507555104E+02  0.30270359401E+02  0.15269971660E+03  0.12509000000E+03 0.  0.
         25    1    3    3    0    0 -0.76593574420E+02 -0.68365241040E+02  0.51421313993E+02  0.16980000429E+03  0.12509000000E+03 0.  0.
         25    1    4    4    0    0  0.45341976473E+01  0.28857685936E+02  0.74089055943E+02  0.14829032772E+03  0.12509000000E+03 0.  0.
<mgrwt>
<rscale>  2 0.44426978E+03</rscale>
<asrwt>0</asrwt>
<pdfrwt beam="1">  1       21 0.46071381E-01 0.44426978E+03</pdfrwt>
<pdfrwt beam="2">  1       21 0.23162450E-01 0.44426978E+03</pdfrwt>
<totfact> 0.73434109E+04</totfact>
</mgrwt>
</event>
<event>
 7    0  0.4766352E-002  0.4571233E+03  0.7546771E-02  0.1025619E+00
         21   -1    0    0  502  501  0.00000000000E+00  0.00000000000E+00  0.50703180307E+03  0.50703180307E+03  0.00000000000E+00 0. -1.
         21   -1    0    0  501  502 -0.00000000000E+00 -0.00000000000E+00 -0.10303187028E+03  0.10303187028E+03  0.00000000000E+00 0. -1.
      99926    2    1    2    0    0  0.00000000000E+00  0.17763568394E-14  0.40399993279E+03  0.61006367335E+03  0.45712333112E+03 0.  0.
      99925    2    3    3    0    0  0.10091240049E+03  0.15520287404E+02  0.32469293141E+03  0.43017120419E+03  0.26305431628E+03 0.  0.
         25    1    3    3    0    0 -0.10091240049E+03 -0.15520287404E+02  0.79307001373E+02  0.17989246916E+03  0.12509000000E+03 0.  0.
         25    1    4    4    0    0  0.91191286677E+02  0.15525799788E+02  0.16049411246E+03  0.22352353223E+03  0.12509000000E+03 0.  0.
         25    1    4    4    0    0  0.97211138110E+01 -0.55123833516E-02  0.16419881895E+03  0.20664767197E+03  0.12509000000E+03 0.  0.
<mgrwt>
<rscale>  2 0.45712333E+03</rscale>
<asrwt>0</asrwt>
<pdfrwt beam="1">  1       21 0.74563499E-01 0.45712333E+03</pdfrwt>
<pdfrwt beam="2">  1       21 0.15151746E-01 0.45712333E+03</pdfrwt>
<totfact> 0.57099337E+04</totfact>
</mgrwt>
</event>
<event>
 7    0  0.4766352E-002  0.4552919E+03  0.7546771E-02  0.1026156E+00
         21   -1    0    0  502  501  0.00000000000E+00  0.00000000000E+00  0.17683923167E+04  0.17683923167E+04  0.00000000000E+00 0. -1.
         21   -1    0    0  501  502 -0.00000000000E+00 -0.00000000000E+00 -0.29304968624E+02  0.29304968624E+02  0.00000000000E+00 0. -1.
      99926    2    1    2    0    0  0.14210854715E-13 -0.71054273576E-14  0.17390873481E+04  0.17976972853E+04  0.45529191231E+03 0.  0.
      99925    2    3    3    0    0 -0.87092828315E+02  0.51105446973E+02  0.88966598143E+03  0.93319679738E+03  0.26297105669E+03 0.  0.
         25    1    4    4    0    0 -0.24000715220E+02  0.89558541982E+01  0.52437060630E+03  0.53969276678E+03  0.12509000000E+03 0.  0.
         25    1    4    4    0    0 -0.63092113094E+02  0.42149592774E+02  0.36529537513E+03  0.39350403060E+03  0.12509000000E+03 0.  0.
         25    1    3    3    0    0  0.87092828315E+02 -0.51105446973E+02  0.84942136663E+03  0.86450048794E+03  0.12509000000E+03 0.  0.
<mgrwt>
<rscale>  2 0.45529191E+03</rscale>
<asrwt>0</asrwt>
<pdfrwt beam="1">  1       21 0.26005762E+00 0.45529191E+03</pdfrwt>
<pdfrwt beam="2">  1       21 0.43095554E-02 0.45529191E+03</pdfrwt>
<totfact> 0.17264584E+04</totfact>
</mgrwt>
</event>
<event>
 7    0  0.4766352E-002  0.4534818E+03  0.7546771E-02  0.1026689E+00
         21   -1    0    0  502  501  0.00000000000E+00  0.00000000000E+00  0.62078455668E+02  0.62078455668E+02  0.00000000000E+00 0.  1.
         21   -1    0    0  501  502 -0.00000000000E+00 -0.00000000000E+00 -0.82816873036E+03  0.82816873036E+03  0.00000000000E+00 0.  1.
      99926    2    1    2    0    0  0.00000000000E+00  0.00000000000E+00 -0.76609027469E+03  0.89024718603E+03  0.45348180035E+03 0.  0.
      99925    2    3    3    0    0 -0.67792254705E+02 -0.13604709488E+02 -0.65506120255E+03  0.70926143831E+03  0.26299378483E+03 0.  0.
         25    1    4    4    0    0 -0.57855866534E+02  0.12278913722E+02 -0.41013616319E+03  0.43284784101E+03  0.12509000000E+03 0.  0.
         25    1    3    3    0    0  0.67792254705E+02  0.13604709488E+02 -0.11102907214E+03  0.18098574772E+03  0.12509000000E+03 0.  0.
         25    1    4    4    0    0 -0.99363881713E+01 -0.25883623211E+02 -0.24492503937E+03  0.27641359730E+03  0.12509000000E+03 0.  0.
<mgrwt>
<rscale>  2 0.45348180E+03</rscale>
<asrwt>0</asrwt>
<pdfrwt beam="1">  1       21 0.91291846E-02 0.45348180E+03</pdfrwt>
<pdfrwt beam="2">  1       21 0.12178952E+00 0.45348180E+03</pdfrwt>
<totfact> 0.44180958E+04</totfact>
</mgrwt>
</event>
<event>
 7    0  0.4766352E-002  0.4507678E+03  0.7546771E-02  0.1027493E+00
         21   -1    0    0  502  501  0.00000000000E+00  0.00000000000E+00  0.63861747802E+02  0.63861747802E+02  0.00000000000E+00 0. -1.
         21   -1    0    0  501  502 -0.00000000000E+00 -0.00000000000E+00 -0.79543561023E+03  0.79543561023E+03  0.00000000000E+00 0. -1.
      99926    2    1    2    0    0  0.00000000000E+00  0.00000000000E+00 -0.73157386243E+03  0.85929735803E+03  0.45076782642E+03 0.  0.
      99925    2    3    3    0    0 -0.37267280114E+02 -0.97719378833E+02 -0.52202546805E+03  0.59378659582E+03  0.26293346099E+03 0.  0.
         25    1    3    3    0    0  0.37267280114E+02  0.97719378833E+02 -0.20954839437E+03  0.26551076221E+03  0.12509000000E+03 0.  0.
         25    1    4    4    0    0 -0.56601346310E+02 -0.39249893143E+02 -0.28561005549E+03  0.31931939874E+03  0.12509000000E+03 0.  0.
         25    1    4    4    0    0  0.19334066196E+02 -0.58469485690E+02 -0.23641541256E+03  0.27446719707E+03  0.12509000000E+03 0.  0.
<mgrwt>
<rscale>  2 0.45076783E+03</rscale>
<asrwt>0</asrwt>
<pdfrwt beam="1">  1       21 0.93914344E-02 0.45076783E+03</pdfrwt>
<pdfrwt beam="2">  1       21 0.11697581E+00 0.45076783E+03</pdfrwt>
<totfact> 0.46552452E+04</totfact>
</mgrwt>
</event>
<event>
 7    0  0.4766352E-002  0.4573072E+03  0.7546771E-02  0.1025565E+00
         21   -1    0    0  502  501  0.00000000000E+00  0.00000000000E+00  0.11617928952E+03  0.11617928952E+03  0.00000000000E+00 0.  1.
         21   -1    0    0  501  502 -0.00000000000E+00 -0.00000000000E+00 -0.45001530160E+03  0.45001530160E+03  0.00000000000E+00 0.  1.
      99926    2    1    2    0    0 -0.17763568394E-14  0.00000000000E+00 -0.33383601208E+03  0.56619459112E+03  0.45730715286E+03 0.  0.
      99925    2    3    3    0    0  0.15684169828E+02  0.10897068105E+03 -0.16755333532E+03  0.33078422771E+03  0.26310355873E+03 0.  0.
         25    1    4    4    0    0 -0.25628025920E+02  0.64349611592E+02 -0.10936246679E+03  0.18001479236E+03  0.12509000000E+03 0.  0.
         25    1    3    3    0    0 -0.15684169828E+02 -0.10897068105E+03 -0.16628267676E+03  0.23541036341E+03  0.12509000000E+03 0.  0.
         25    1    4    4    0    0  0.41312195749E+02  0.44621069454E+02 -0.58190868530E+02  0.15076943535E+03  0.12509000000E+03 0.  0.
<mgrwt>
<rscale>  2 0.45730715E+03</rscale>
<asrwt>0</asrwt>
<pdfrwt beam="1">  1       21 0.17085190E-01 0.45730715E+03</pdfrwt>
<pdfrwt beam="2">  1       21 0.66178720E-01 0.45730715E+03</pdfrwt>
<totfact> 0.59711863E+04</totfact>
</mgrwt>
</event>
<event>
 7    0  0.4766352E-002  0.4495014E+03  0.7546771E-02  0.1027871E+00
         21   -1    0    0  502  501  0.00000000000E+00  0.00000000000E+00  0.45526729601E+03  0.45526729601E+03  0.00000000000E+00 0. -1.
         21   -1    0    0  501  502 -0.00000000000E+00 -0.00000000000E+00 -0.11095211768E+03  0.11095211768E+03  0.00000000000E+00 0. -1.
      99926    2    1    2    0    0 -0.71054273576E-14  0.00000000000E+00  0.34431517833E+03  0.56621941370E+03  0.44950137088E+03 0.  0.
      99925    2    3    3    0    0 -0.46183284802E+02 -0.41740886731E+02  0.32899920178E+03  0.42565880521E+03  0.26281123695E+03 0.  0.
         25    1    3    3    0    0  0.46183284802E+02  0.41740886731E+02  0.15315976552E+02  0.14056060849E+03  0.12509000000E+03 0.  0.
         25    1    4    4    0    0 -0.48636103470E+02 -0.52872910539E+02  0.16721294539E+03  0.22083634763E+03  0.12509000000E+03 0.  0.
         25    1    4    4    0    0  0.24528186683E+01  0.11132023807E+02  0.16178625639E+03  0.20482245758E+03  0.12509000000E+03 0.  0.
<mgrwt>
<rscale>  2 0.44950137E+03</rscale>
<asrwt>0</asrwt>
<pdfrwt beam="1">  1       21 0.66951072E-01 0.44950137E+03</pdfrwt>
<pdfrwt beam="2">  1       21 0.16316488E-01 0.44950137E+03</pdfrwt>
<totfact> 0.63524976E+04</totfact>
</mgrwt>
</event>
<event>
 7    0  0.4766352E-002  0.4524389E+03  0.7546771E-02  0.1026997E+00
         21   -1    0    0  502  501  0.00000000000E+00  0.00000000000E+00  0.17835671717E+03  0.17835671717E+03  0.00000000000E+00 0. -1.
         21   -1    0    0  501  502 -0.00000000000E+00 -0.00000000000E+00 -0.28692632163E+03  0.28692632163E+03  0.00000000000E+00 0. -1.
      99926    2    1    2    0    0  0.00000000000E+00  0.00000000000E+00 -0.10856960446E+03  0.46528303880E+03  0.45243888779E+03 0.  0.
      99925    2    3    3    0    0  0.10754989276E+03 -0.25387017803E+02 -0.62689890153E+02  0.29218209602E+03  0.26311380580E+03 0.  0.
         25    1    4    4    0    0  0.68452012856E+02 -0.49458740836E+02 -0.19925822000E+02  0.15223794399E+03  0.12509000000E+03 0.  0.
         25    1    4    4    0    0  0.39097879902E+02  0.24071723032E+02 -0.42764068154E+02  0.13994415203E+03  0.12509000000E+03 0.  0.
         25    1    3    3    0    0 -0.10754989276E+03  0.25387017803E+02 -0.45879714306E+02  0.17310094278E+03  0.12509000000E+03 0.  0.
<mgrwt>
<rscale>  2 0.45243889E+03</rscale>
<asrwt>0</asrwt>
<pdfrwt beam="1">  1       21 0.26228929E-01 0.45243889E+03</pdfrwt>
<pdfrwt beam="2">  1       21 0.42195047E-01 0.45243889E+03</pdfrwt>
<totfact> 0.69183162E+04</totfact>
</mgrwt>
</event>
<event>
 7    0  0.4766352E-002  0.4602651E+03  0.7546771E-02  0.1024704E+00
         21   -1    0    0  502  501  0.00000000000E+00  0.00000000000E+00  0.87063235184E+03  0.87063235184E+03  0.00000000000E+00 0.  1.
         21   -1    0    0  501  502 -0.00000000000E+00 -0.00000000000E+00 -0.60830485181E+02  0.60830485181E+02  0.00000000000E+00 0.  1.
      99926    2    1    2    0    0  0.00000000000E+00  0.00000000000E+00  0.80980186666E+03  0.93146283702E+03  0.46026509047E+03 0.  0.
      99925    2    3    3    0    0 -0.44369502902E+02 -0.80368177924E+02  0.35986758839E+03  0.45552580372E+03  0.26376387142E+03 0.  0.
         25    1    4    4    0    0  0.55013279989E+01 -0.30176428336E+02  0.22033962705E+03  0.25522135644E+03  0.12509000000E+03 0.  0.
         25    1    3    3    0    0  0.44369502902E+02  0.80368177924E+02  0.44993427827E+03  0.47593703330E+03  0.12509000000E+03 0.  0.
         25    1    4    4    0    0 -0.49870830901E+02 -0.50191749588E+02  0.13952796134E+03  0.20030444728E+03  0.12509000000E+03 0.  0.
<mgrwt>
<rscale>  2 0.46026509E+03</rscale>
<asrwt>0</asrwt>
<pdfrwt beam="1">  1       21 0.12803416E+00 0.46026509E+03</pdfrwt>
<pdfrwt beam="2">  1       21 0.89456601E-02 0.46026509E+03</pdfrwt>
<totfact> 0.40218537E+04</totfact>
</mgrwt>
</event>
<event>
 7    0  0.4766352E-002  0.4537607E+03  0.7546771E-02  0.1026606E+00
         21   -1    0    0  502  501  0.00000000000E+00  0.00000000000E+00  0.27202114928E+03  0.27202114928E+03  0.00000000000E+00 0. -1.
         21   -1    0    0  501  502 -0.00000000000E+00 -0.00000000000E+00 -0.18923045718E+03  0.18923045718E+03  0.00000000000E+00 0. -1.
      99926    2    1    2    0    0  0.71054273576E-14  0.00000000000E+00  0.82790692103E+02  0.46125160646E+03  0.45376067014E+03 0.  0.
      99925    2    3    3    0    0  0.42844699518E+02 -0.91336768915E+02  0.28963091319E+01  0.28178379831E+03  0.26308866709E+03 0.  0.
         25    1    4    4    0    0 -0.14807205294E+02 -0.39093367494E+02  0.20317006426E+02  0.13344599492E+03  0.12509000000E+03 0.  0.
         25    1    4    4    0    0  0.57651904812E+02 -0.52243401420E+02 -0.17420697294E+02  0.14833780339E+03  0.12509000000E+03 0.  0.
         25    1    3    3    0    0 -0.42844699518E+02  0.91336768915E+02  0.79894382971E+02  0.17946780815E+03  0.12509000000E+03 0.  0.
<mgrwt>
<rscale>  2 0.45376067E+03</rscale>
<asrwt>0</asrwt>
<pdfrwt beam="1">  1       21 0.40003110E-01 0.45376067E+03</pdfrwt>
<pdfrwt beam="2">  1       21 0.27828008E-01 0.45376067E+03</pdfrwt>
<totfact> 0.68764250E+04</totfact>
</mgrwt>
</event>
<event>
 7    0  0.4766352E-002  0.4527302E+03  0.7546771E-02  0.1026911E+00
         21   -1    0    0  502  501  0.00000000000E+00  0.00000000000E+00  0.13189033911E+03  0.13189033911E+03  0.00000000000E+00 0.  1.
         21   -1    0    0  501  502 -0.00000000000E+00 -0.00000000000E+00 -0.38851327469E+03  0.38851327469E+03  0.00000000000E+00 0.  1.
      99926    2    1    2    0    0 -0.14210854715E-13  0.00000000000E+00 -0.25662293558E+03  0.52040361380E+03  0.45273015163E+03 0.  0.
      99925    2    3    3    0    0 -0.10302549873E+03  0.35557187761E+02 -0.18604908863E+03  0.34010734939E+03  0.26302125149E+03 0.  0.
         25    1    4    4    0    0 -0.23944327464E+02  0.12611277095E+02 -0.48809160976E+02  0.13697524383E+03  0.12509000000E+03 0.  0.
         25    1    4    4    0    0 -0.79081171261E+02  0.22945910666E+02 -0.13723992766E+03  0.20313210556E+03  0.12509000000E+03 0.  0.
         25    1    3    3    0    0  0.10302549873E+03 -0.35557187761E+02 -0.70573846946E+02  0.18029626441E+03  0.12509000000E+03 0.  0.
<mgrwt>
<rscale>  2 0.45273015E+03</rscale>
<asrwt>0</asrwt>
<pdfrwt beam="1">  1       21 0.19395638E-01 0.45273015E+03</pdfrwt>
<pdfrwt beam="2">  1       21 0.57134305E-01 0.45273015E+03</pdfrwt>
<totfact> 0.65022787E+04</totfact>
</mgrwt>
</event>
<event>
 7    0  0.4766352E-002  0.4531527E+03  0.7546771E-02  0.1026786E+00
         21   -1    0    0  502  501  0.00000000000E+00  0.00000000000E+00  0.28892837979E+03  0.28892837979E+03  0.00000000000E+00 0. -1.
         21   -1    0    0  501  502 -0.00000000000E+00 -0.00000000000E+00 -0.17768015775E+03  0.17768015775E+03  0.00000000000E+00 0. -1.
      99926    2    1    2    0    0  0.00000000000E+00  0.00000000000E+00  0.11124822203E+03  0.46660853754E+03  0.45315268994E+03 0.  0.
      99925    2    3    3    0    0 -0.62528628497E+02 -0.22149298637E+02 -0.22005338066E+02  0.27217489798E+03  0.26304851145E+03 0.  0.
         25    1    4    4    0    0 -0.42617680157E+02 -0.42276460338E+02 -0.35486617231E+02  0.14321443315E+03  0.12509000000E+03 0.  0.
         25    1    4    4    0    0 -0.19910948340E+02  0.20127161701E+02  0.13481279164E+02  0.12896046483E+03  0.12509000000E+03 0.  0.
         25    1    3    3    0    0  0.62528628497E+02  0.22149298637E+02  0.13325356010E+03  0.19443363956E+03  0.12509000000E+03 0.  0.
<mgrwt>
<rscale>  2 0.45315269E+03</rscale>
<asrwt>0</asrwt>
<pdfrwt beam="1">  1       21 0.42489468E-01 0.45315269E+03</pdfrwt>
<pdfrwt beam="2">  1       21 0.26129435E-01 0.45315269E+03</pdfrwt>
<totfact> 0.68689944E+04</totfact>
</mgrwt>
</event>
<event>
 7    0  0.4766352E-002  0.4573386E+03  0.7546771E-02  0.1025556E+00
         21   -1    0    0  502  501  0.00000000000E+00  0.00000000000E+00  0.15965313971E+04  0.15965313971E+04  0.00000000000E+00 0. -1.
         21   -1    0    0  501  502 -0.00000000000E+00 -0.00000000000E+00 -0.32752026023E+02  0.32752026023E+02  0.00000000000E+00 0. -1.
      99926    2    1    2    0    0 -0.88817841970E-15  0.35527136788E-14  0.15637793710E+04  0.16292834231E+04  0.45733855233E+03 0.  0.
      99925    2    3    3    0    0  0.62780104440E+01  0.20952049396E+02  0.13854382444E+04  0.14103508596E+04  0.26300573463E+03 0.  0.
         25    1    4    4    0    0 -0.56141700807E+01 -0.28913466128E+02  0.64669563681E+03  0.65934077851E+03  0.12509000000E+03 0.  0.
         25    1    4    4    0    0  0.11892180525E+02  0.49865515523E+02  0.73874260754E+03  0.75101008109E+03  0.12509000000E+03 0.  0.
         25    1    3    3    0    0 -0.62780104440E+01 -0.20952049396E+02  0.17834112667E+03  0.21893256348E+03  0.12509000000E+03 0.  0.
<mgrwt>
<rscale>  2 0.45733855E+03</rscale>
<asrwt>0</asrwt>
<pdfrwt beam="1">  1       21 0.23478398E+00 0.45733855E+03</pdfrwt>
<pdfrwt beam="2">  1       21 0.48164755E-02 0.45733855E+03</pdfrwt>
<totfact> 0.20403067E+04</totfact>
</mgrwt>
</event>
<event>
 7    0  0.4766352E-002  0.4375970E+03  0.7546771E-02  0.1031487E+00
         21   -1    0    0  502  501  0.00000000000E+00  0.00000000000E+00  0.87122326495E+03  0.87122326495E+03  0.00000000000E+00 0. -1.
         21   -1    0    0  501  502 -0.00000000000E+00 -0.00000000000E+00 -0.54948921493E+02  0.54948921493E+02  0.00000000000E+00 0. -1.
      99926    2    1    2    0    0  0.00000000000E+00  0.17763568394E-14  0.81627434346E+03  0.92617218645E+03  0.43759697800E+03 0.  0.
      99925    2    3    3    0    0 -0.94489983194E+02 -0.15721295821E+02  0.53390988728E+03  0.60282607115E+03  0.26299047179E+03 0.  0.
         25    1    3    3    0    0  0.94489983194E+02  0.15721295821E+02  0.28236445618E+03  0.32334611530E+03  0.12509000000E+03 0.  0.
         25    1    4    4    0    0 -0.31691943602E+02 -0.29503156011E+02  0.32562362531E+03  0.35150116495E+03  0.12509000000E+03 0.  0.
         25    1    4    4    0    0 -0.62798039592E+02  0.13781860190E+02  0.20828626198E+03  0.25132490620E+03  0.12509000000E+03 0.  0.
<mgrwt>
<rscale>  2 0.43759698E+03</rscale>
<asrwt>0</asrwt>
<pdfrwt beam="1">  1       21 0.12812106E+00 0.43759698E+03</pdfrwt>
<pdfrwt beam="2">  1       21 0.80807243E-02 0.43759698E+03</pdfrwt>
<totfact> 0.48378248E+04</totfact>
</mgrwt>
</event>
<event>
 7    0  0.4766352E-002  0.4429769E+03  0.7546771E-02  0.1029837E+00
         21   -1    0    0  502  501  0.00000000000E+00  0.00000000000E+00  0.34856544866E+02  0.34856544866E+02  0.00000000000E+00 0.  1.
         21   -1    0    0  501  502 -0.00000000000E+00 -0.00000000000E+00 -0.14074008424E+04  0.14074008424E+04  0.00000000000E+00 0.  1.
      99926    2    1    2    0    0 -0.14210854715E-13  0.71054273576E-14 -0.13725442976E+04  0.14422573873E+04  0.44297688702E+03 0.  0.
      99925    2    3    3    0    0 -0.68681884713E+02  0.50577025539E+02 -0.10527047598E+04  0.10883929008E+04  0.26293831665E+03 0.  0.
         25    1    3    3    0    0  0.68681884713E+02 -0.50577025539E+02 -0.31983953777E+03  0.35386448652E+03  0.12509000000E+03 0.  0.
         25    1    4    4    0    0 -0.44349415318E+02  0.17827459547E+02 -0.68220215660E+03  0.69522081350E+03  0.12509000000E+03 0.  0.
         25    1    4    4    0    0 -0.24332469395E+02  0.32749565993E+02 -0.37050260320E+03  0.39317208728E+03  0.12509000000E+03 0.  0.
<mgrwt>
<rscale>  2 0.44297689E+03</rscale>
<asrwt>0</asrwt>
<pdfrwt beam="1">  1       21 0.51259615E-02 0.44297689E+03</pdfrwt>
<pdfrwt beam="2">  1       21 0.20697075E+00 0.44297689E+03</pdfrwt>
<totfact> 0.27728694E+04</totfact>
</mgrwt>
</event>
<event>
 7    0  0.4766352E-002  0.4867257E+03  0.7546771E-02  0.1017303E+00
         21   -1    0    0  502  501  0.00000000000E+00  0.00000000000E+00  0.13985316251E+03  0.13985316251E+03  0.00000000000E+00 0.  1.
         21   -1    0    0  501  502 -0.00000000000E+00 -0.00000000000E+00 -0.42348320209E+03  0.42348320209E+03  0.00000000000E+00 0.  1.
      99926    2    1    2    0    0  0.00000000000E+00  0.00000000000E+00 -0.28363003958E+03  0.56333636460E+03  0.48672565201E+03 0.  0.
      99925    2    3    3    0    0 -0.96441257502E+02 -0.10155605253E+03 -0.15654826004E+03  0.33659458472E+03  0.26300952223E+03 0.  0.
         25    1    3    3    0    0  0.96441257502E+02  0.10155605253E+03 -0.12708177954E+03  0.22674177988E+03  0.12509000000E+03 0.  0.
         25    1    4    4    0    0 -0.35146812124E+02 -0.46086910256E+02 -0.31650629305E+02  0.14145166006E+03  0.12509000000E+03 0.  0.
         25    1    4    4    0    0 -0.61294445378E+02 -0.55469142272E+02 -0.12489763074E+03  0.19514292465E+03  0.12509000000E+03 0.  0.
<mgrwt>
<rscale>  2 0.48672565E+03</rscale>
<asrwt>0</asrwt>
<pdfrwt beam="1">  1       21 0.20566642E-01 0.48672565E+03</pdfrwt>
<pdfrwt beam="2">  1       21 0.62276941E-01 0.48672565E+03</pdfrwt>
<totfact> 0.47808593E+04</totfact>
</mgrwt>
</event>
<event>
 7    0  0.4766352E-002  0.4573937E+03  0.7546771E-02  0.1025540E+00
         21   -1    0    0  502  501  0.00000000000E+00  0.00000000000E+00  0.48365778573E+03  0.48365778573E+03  0.00000000000E+00 0. -1.
         21   -1    0    0  501  502 -0.00000000000E+00 -0.00000000000E+00 -0.10813896472E+03  0.10813896472E+03  0.00000000000E+00 0. -1.
      99926    2    1    2    0    0  0.71054273576E-14  0.00000000000E+00  0.37551882101E+03  0.59179675045E+03  0.45739371324E+03 0.  0.
      99925    2    3    3    0    0  0.57344718616E+02 -0.77557964186E+02  0.31769950573E+03  0.42358784498E+03  0.26303998158E+03 0.  0.
         25    1    4    4    0    0  0.80398465978E+01 -0.58234779891E+02  0.20417309872E+03  0.24655646628E+03  0.12509000000E+03 0.  0.
         25    1    3    3    0    0 -0.57344718616E+02  0.77557964186E+02  0.57819315286E+02  0.16820890548E+03  0.12509000000E+03 0.  0.
         25    1    4    4    0    0  0.49304872018E+02 -0.19323184294E+02  0.11352640700E+03  0.17703137870E+03  0.12509000000E+03 0.  0.
<mgrwt>
<rscale>  2 0.45739371E+03</rscale>
<asrwt>0</asrwt>
<pdfrwt beam="1">  1       21 0.71126144E-01 0.45739371E+03</pdfrwt>
<pdfrwt beam="2">  1       21 0.15902789E-01 0.45739371E+03</pdfrwt>
<totfact> 0.58079489E+04</totfact>
</mgrwt>
</event>
<event>
 7    0  0.4766352E-002  0.4543495E+03  0.7546771E-02  0.1026433E+00
         21   -1    0    0  502  501  0.00000000000E+00  0.00000000000E+00  0.54436103378E+03  0.54436103378E+03  0.00000000000E+00 0. -1.
         21   -1    0    0  501  502 -0.00000000000E+00 -0.00000000000E+00 -0.94805417859E+02  0.94805417859E+02  0.00000000000E+00 0. -1.
      99926    2    1    2    0    0  0.00000000000E+00 -0.17763568394E-14  0.44955561592E+03  0.63916645164E+03  0.45434953625E+03 0.  0.
      99925    2    3    3    0    0 -0.72084680344E+02  0.13104275552E+02  0.40325187582E+03  0.48698410173E+03  0.26300858694E+03 0.  0.
         25    1    3    3    0    0  0.72084680344E+02 -0.13104275552E+02  0.46303740100E+02  0.15218234991E+03  0.12509000000E+03 0.  0.
         25    1    4    4    0    0 -0.76522211349E+02  0.16758760263E+02  0.22757574481E+03  0.27124662689E+03  0.12509000000E+03 0.  0.
         25    1    4    4    0    0  0.44375310045E+01 -0.36544847108E+01  0.17567613101E+03  0.21573747483E+03  0.12509000000E+03 0.  0.
<mgrwt>
<rscale>  2 0.45434954E+03</rscale>
<asrwt>0</asrwt>
<pdfrwt beam="1">  1       21 0.80053092E-01 0.45434954E+03</pdfrwt>
<pdfrwt beam="2">  1       21 0.13941973E-01 0.45434954E+03</pdfrwt>
<totfact> 0.56620050E+04</totfact>
</mgrwt>
</event>
<event>
 7    0  0.4766352E-002  0.4551513E+03  0.7546771E-02  0.1026197E+00
         21   -1    0    0  502  501  0.00000000000E+00  0.00000000000E+00  0.40892910353E+03  0.40892910353E+03  0.00000000000E+00 0. -1.
         21   -1    0    0  501  502 -0.00000000000E+00 -0.00000000000E+00 -0.12664952341E+03  0.12664952341E+03  0.00000000000E+00 0. -1.
      99926    2    1    2    0    0  0.00000000000E+00 -0.14210854715E-13  0.28227958012E+03  0.53557862695E+03  0.45515129824E+03 0.  0.
      99925    2    3    3    0    0 -0.73496242000E+02 -0.83390857951E+02  0.15185965848E+03  0.32341690363E+03  0.26302358241E+03 0.  0.
         25    1    4    4    0    0 -0.31798714506E+01 -0.59478314480E+02  0.90768450839E+02  0.16563272999E+03  0.12509000000E+03 0.  0.
         25    1    4    4    0    0 -0.70316370549E+02 -0.23912543470E+02  0.61091207637E+02  0.15778417365E+03  0.12509000000E+03 0.  0.
         25    1    3    3    0    0  0.73496242000E+02  0.83390857951E+02  0.13041992164E+03  0.21216172331E+03  0.12509000000E+03 0.  0.
<mgrwt>
<rscale>  2 0.45515130E+03</rscale>
<asrwt>0</asrwt>
<pdfrwt beam="1">  1       21 0.60136632E-01 0.45515130E+03</pdfrwt>
<pdfrwt beam="2">  1       21 0.18624930E-01 0.45515130E+03</pdfrwt>
<totfact> 0.62754482E+04</totfact>
</mgrwt>
</event>
<event>
 7    0  0.4766352E-002  0.4566845E+03  0.7546771E-02  0.1025747E+00
         21   -1    0    0  502  501  0.00000000000E+00  0.00000000000E+00  0.22531377528E+03  0.22531377528E+03  0.00000000000E+00 0. -1.
         21   -1    0    0  501  502 -0.00000000000E+00 -0.00000000000E+00 -0.23141143242E+03  0.23141143242E+03  0.00000000000E+00 0. -1.
      99926    2    1    2    0    0 -0.71054273576E-14  0.00000000000E+00 -0.60976571352E+01  0.45672520770E+03  0.45668450151E+03 0.  0.
      99925    2    3    3    0    0 -0.53172117149E+02  0.22394257782E+02  0.95295992406E+02  0.28567855590E+03  0.26306298544E+03 0.  0.
         25    1    4    4    0    0  0.29148137283E+00 -0.73976952003E+01  0.71886330913E+02  0.14446440229E+03  0.12509000000E+03 0.  0.
         25    1    4    4    0    0 -0.53463598522E+02  0.29791952982E+02  0.23409661493E+02  0.14121415361E+03  0.12509000000E+03 0.  0.
         25    1    3    3    0    0  0.53172117149E+02 -0.22394257782E+02 -0.10139364954E+03  0.17104665180E+03  0.12509000000E+03 0.  0.
<mgrwt>
<rscale>  2 0.45668450E+03</rscale>
<asrwt>0</asrwt>
<pdfrwt beam="1">  1       21 0.33134379E-01 0.45668450E+03</pdfrwt>
<pdfrwt beam="2">  1       21 0.34031093E-01 0.45668450E+03</pdfrwt>
<totfact> 0.67507676E+04</totfact>
</mgrwt>
</event>
<event>
 7    0  0.4766352E-002  0.4501340E+03  0.7546771E-02  0.1027682E+00
         21   -1    0    0  502  501  0.00000000000E+00  0.00000000000E+00  0.32161741336E+02  0.32161741336E+02  0.00000000000E+00 0.  1.
         21   -1    0    0  501  502 -0.00000000000E+00 -0.00000000000E+00 -0.15750125448E+04  0.15750125448E+04  0.00000000000E+00 0.  1.
      99926    2    1    2    0    0 -0.14210854715E-13  0.53290705182E-14 -0.15428508035E+04  0.16071742862E+04  0.45013396258E+03 0.  0.
      99925    2    3    3    0    0 -0.83484254896E+02  0.15829820068E+02 -0.12160309406E+04  0.12470646711E+04  0.26309473818E+03 0.  0.
         25    1    3    3    0    0  0.83484254896E+02 -0.15829820068E+02 -0.32681986288E+03  0.36010961511E+03  0.12509000000E+03 0.  0.
         25    1    4    4    0    0 -0.38928230197E+02  0.48420177524E+02 -0.62927918146E+03  0.64459267527E+03  0.12509000000E+03 0.  0.
         25    1    4    4    0    0 -0.44556024699E+02 -0.32590357456E+02 -0.58675175915E+03  0.60247199578E+03  0.12509000000E+03 0.  0.
<mgrwt>
<rscale>  2 0.45013396E+03</rscale>
<asrwt>0</asrwt>
<pdfrwt beam="1">  1       21 0.47296674E-02 0.45013396E+03</pdfrwt>
<pdfrwt beam="2">  1       21 0.23161951E+00 0.45013396E+03</pdfrwt>
<totfact> 0.22091132E+04</totfact>
</mgrwt>
</event>
<event>
 7    0  0.4766352E-002  0.4537539E+03  0.7546771E-02  0.1026608E+00
         21   -1    0    0  502  501  0.00000000000E+00  0.00000000000E+00  0.14885897619E+03  0.14885897619E+03  0.00000000000E+00 0.  1.
         21   -1    0    0  501  502 -0.00000000000E+00 -0.00000000000E+00 -0.34578458713E+03  0.34578458713E+03  0.00000000000E+00 0.  1.
      99926    2    1    2    0    0  0.00000000000E+00  0.00000000000E+00 -0.19692561094E+03  0.49464356332E+03  0.45375385231E+03 0.  0.
      99925    2    3    3    0    0  0.41475511500E+02 -0.89463944276E+02 -0.18235397250E+03  0.33469402088E+03  0.26276053917E+03 0.  0.
         25    1    3    3    0    0 -0.41475511500E+02  0.89463944276E+02 -0.14571638445E+02  0.15994954244E+03  0.12509000000E+03 0.  0.
         25    1    4    4    0    0 -0.14023823003E+00 -0.77374424109E+02 -0.11127159073E+03  0.18443344647E+03  0.12509000000E+03 0.  0.
         25    1    4    4    0    0  0.41615749730E+02 -0.12089520167E+02 -0.71082381765E+02  0.15026057441E+03  0.12509000000E+03 0.  0.
<mgrwt>
<rscale>  2 0.45375385E+03</rscale>
<asrwt>0</asrwt>
<pdfrwt beam="1">  1       21 0.21891026E-01 0.45375385E+03</pdfrwt>
<pdfrwt beam="2">  1       21 0.50850673E-01 0.45375385E+03</pdfrwt>
<totfact> 0.66302098E+04</totfact>
</mgrwt>
</event>
<event>
 7    0  0.4766352E-002  0.4562006E+03  0.7546771E-02  0.1025889E+00
         21   -1    0    0  502  501  0.00000000000E+00  0.00000000000E+00  0.11860030056E+03  0.11860030056E+03  0.00000000000E+00 0. -1.
         21   -1    0    0  501  502 -0.00000000000E+00 -0.00000000000E+00 -0.43869835426E+03  0.43869835426E+03  0.00000000000E+00 0. -1.
      99926    2    1    2    0    0  0.00000000000E+00  0.00000000000E+00 -0.32009805370E+03  0.55729865481E+03  0.45620064300E+03 0.  0.
      99925    2    3    3    0    0 -0.55039191106E+02  0.36973490945E+02 -0.31483573322E+03  0.41562455094E+03  0.26310810867E+03 0.  0.
         25    1    3    3    0    0  0.55039191106E+02 -0.36973490945E+02 -0.52623204815E+01  0.14167410387E+03  0.12509000000E+03 0.  0.
         25    1    4    4    0    0 -0.16608968850E+02 -0.34896350212E+01 -0.10094067740E+03  0.16163094955E+03  0.12509000000E+03 0.  0.
         25    1    4    4    0    0 -0.38430222256E+02  0.40463125966E+02 -0.21389505582E+03  0.25399360139E+03  0.12509000000E+03 0.  0.
<mgrwt>
<rscale>  2 0.45620064E+03</rscale>
<asrwt>0</asrwt>
<pdfrwt beam="1">  1       21 0.17441221E-01 0.45620064E+03</pdfrwt>
<pdfrwt beam="2">  1       21 0.64514464E-01 0.45620064E+03</pdfrwt>
<totfact> 0.60807187E+04</totfact>
</mgrwt>
</event>
<event>
 7    0  0.4766352E-002  0.4211666E+03  0.7546771E-02  0.1036687E+00
         21   -1    0    0  502  501  0.00000000000E+00  0.00000000000E+00  0.84843528087E+02  0.84843528087E+02  0.00000000000E+00 0. -1.
         21   -1    0    0  501  502 -0.00000000000E+00 -0.00000000000E+00 -0.52267176517E+03  0.52267176517E+03  0.00000000000E+00 0. -1.
      99926    2    1    2    0    0  0.00000000000E+00  0.00000000000E+00 -0.43782823708E+03  0.60751529325E+03  0.42116655417E+03 0.  0.
      99925    2    3    3    0    0  0.25815357157E+02  0.44792130696E+02 -0.36790415398E+03  0.45516814646E+03  0.26296731242E+03 0.  0.
         25    1    4    4    0    0  0.39842644495E+02 -0.71306464399E+01 -0.19257955358E+03  0.23317949094E+03  0.12509000000E+03 0.  0.
         25    1    4    4    0    0 -0.14027287338E+02  0.51922777136E+02 -0.17532460040E+03  0.22198865553E+03  0.12509000000E+03 0.  0.
         25    1    3    3    0    0 -0.25815357157E+02 -0.44792130696E+02 -0.69924083102E+02  0.15234714679E+03  0.12509000000E+03 0.  0.
<mgrwt>
<rscale>  2 0.42116655E+03</rscale>
<asrwt>0</asrwt>
<pdfrwt beam="1">  1       21 0.12476989E-01 0.42116655E+03</pdfrwt>
<pdfrwt beam="2">  1       21 0.76863497E-01 0.42116655E+03</pdfrwt>
<totfact> 0.76761824E+04</totfact>
</mgrwt>
</event>
<event>
 7    0  0.4766352E-002  0.4512417E+03  0.7546771E-02  0.1027352E+00
         21   -1    0    0  502  501  0.00000000000E+00  0.00000000000E+00  0.16774685724E+03  0.16774685724E+03  0.00000000000E+00 0. -1.
         21   -1    0    0  501  502 -0.00000000000E+00 -0.00000000000E+00 -0.30346180271E+03  0.30346180271E+03  0.00000000000E+00 0. -1.
      99926    2    1    2    0    0 -0.14210854715E-13  0.00000000000E+00 -0.13571494547E+03  0.47120865995E+03  0.45124168112E+03 0.  0.
      99925    2    3    3    0    0  0.96892107978E+02 -0.31370841036E+02 -0.43761859660E+02  0.28553397576E+03  0.26313939405E+03 0.  0.
         25    1    4    4    0    0  0.32933176069E+02  0.19826714388E+02 -0.36357675047E+02  0.13582003285E+03  0.12509000000E+03 0.  0.
         25    1    3    3    0    0 -0.96892107978E+02  0.31370841036E+02 -0.91953085812E+02  0.18567468418E+03  0.12509000000E+03 0.  0.
         25    1    4    4    0    0  0.63958931909E+02 -0.51197555424E+02 -0.74041846129E+01  0.14971394291E+03  0.12509000000E+03 0.  0.
<mgrwt>
<rscale>  2 0.45124168E+03</rscale>
<asrwt>0</asrwt>
<pdfrwt beam="1">  1       21 0.24668656E-01 0.45124168E+03</pdfrwt>
<pdfrwt beam="2">  1       21 0.44626735E-01 0.45124168E+03</pdfrwt>
<totfact> 0.69392359E+04</totfact>
</mgrwt>
</event>
<event>
 7    0  0.4766352E-002  0.4491001E+03  0.7546771E-02  0.1027991E+00
         21   -1    0    0  502  501  0.00000000000E+00  0.00000000000E+00  0.11327796020E+03  0.11327796020E+03  0.00000000000E+00 0.  1.
         21   -1    0    0  501  502 -0.00000000000E+00 -0.00000000000E+00 -0.44512379173E+03  0.44512379173E+03  0.00000000000E+00 0.  1.
      99926    2    1    2    0    0  0.00000000000E+00  0.00000000000E+00 -0.33184583153E+03  0.55840175193E+03  0.44910005639E+03 0.  0.
      99925    2    3    3    0    0  0.99264881431E+02 -0.35304748058E+02 -0.18060856273E+03  0.33564591812E+03  0.26256196887E+03 0.  0.
         25    1    4    4    0    0  0.64424087440E+02  0.54906638563E+01 -0.12611992245E+03  0.18903532307E+03  0.12509000000E+03 0.  0.
         25    1    4    4    0    0  0.34840793991E+02 -0.40795411914E+02 -0.54488640280E+02  0.14661059504E+03  0.12509000000E+03 0.  0.
         25    1    3    3    0    0 -0.99264881431E+02  0.35304748058E+02 -0.15123726881E+03  0.22275583381E+03  0.12509000000E+03 0.  0.
<mgrwt>
<rscale>  2 0.44910006E+03</rscale>
<asrwt>0</asrwt>
<pdfrwt beam="1">  1       21 0.16658524E-01 0.44910006E+03</pdfrwt>
<pdfrwt beam="2">  1       21 0.65459381E-01 0.44910006E+03</pdfrwt>
<totfact> 0.64261650E+04</totfact>
</mgrwt>
</event>
<event>
 7    0  0.4766352E-002  0.4598021E+03  0.7546771E-02  0.1024839E+00
         21   -1    0    0  502  501  0.00000000000E+00  0.00000000000E+00  0.65103677739E+02  0.65103677739E+02  0.00000000000E+00 0. -1.
         21   -1    0    0  501  502 -0.00000000000E+00 -0.00000000000E+00 -0.81185117439E+03  0.81185117439E+03  0.00000000000E+00 0. -1.
      99926    2    1    2    0    0  0.00000000000E+00  0.00000000000E+00 -0.74674749665E+03  0.87695485213E+03  0.45980211930E+03 0.  0.
      99925    2    3    3    0    0 -0.41044912549E+02  0.65670390489E+02 -0.29902501263E+03  0.40567975643E+03  0.26298825366E+03 0.  0.
         25    1    4    4    0    0 -0.24667776961E+02 -0.64453585412E+01 -0.15866119441E+03  0.20364411256E+03  0.12509000000E+03 0.  0.
         25    1    3    3    0    0  0.41044912549E+02 -0.65670390489E+02 -0.44772248402E+03  0.47127509570E+03  0.12509000000E+03 0.  0.
         25    1    4    4    0    0 -0.16377135588E+02  0.72115749031E+02 -0.14036381822E+03  0.20203564387E+03  0.12509000000E+03 0.  0.
<mgrwt>
<rscale>  2 0.45980212E+03</rscale>
<asrwt>0</asrwt>
<pdfrwt beam="1">  1       21 0.95740698E-02 0.45980212E+03</pdfrwt>
<pdfrwt beam="2">  1       21 0.11938988E+00 0.45980212E+03</pdfrwt>
<totfact> 0.42619363E+04</totfact>
</mgrwt>
</event>
<event>
 7    0  0.4766352E-002  0.4595035E+03  0.7546771E-02  0.1024925E+00
         21   -1    0    0  502  501  0.00000000000E+00  0.00000000000E+00  0.23047719038E+03  0.23047719038E+03  0.00000000000E+00 0. -1.
         21   -1    0    0  501  502 -0.00000000000E+00 -0.00000000000E+00 -0.22902858933E+03  0.22902858933E+03  0.00000000000E+00 0. -1.
      99926    2    1    2    0    0  0.00000000000E+00  0.00000000000E+00  0.14486010538E+01  0.45950577971E+03  0.45950349633E+03 0.  0.
      99925    2    3    3    0    0 -0.60831469427E+02 -0.76982277311E+02  0.65332191025E+02  0.28817172046E+03  0.26295989541E+03 0.  0.
         25    1    3    3    0    0  0.60831469427E+02  0.76982277311E+02 -0.63883589971E+02  0.17133405925E+03  0.12509000000E+03 0.  0.
         25    1    4    4    0    0 -0.10023639754E+02 -0.61128394063E+02  0.60525166300E+02  0.15214452922E+03  0.12509000000E+03 0.  0.
         25    1    4    4    0    0 -0.50807829673E+02 -0.15853883249E+02  0.48070247243E+01  0.13602719124E+03  0.12509000000E+03 0.  0.
<mgrwt>
<rscale>  2 0.45950350E+03</rscale>
<asrwt>0</asrwt>
<pdfrwt beam="1">  1       21 0.33893704E-01 0.45950350E+03</pdfrwt>
<pdfrwt beam="2">  1       21 0.33680675E-01 0.45950350E+03</pdfrwt>
<totfact> 0.65819847E+04</totfact>
</mgrwt>
</event>
<event>
 7    0  0.4766352E-002  0.4543721E+03  0.7546771E-02  0.1026426E+00
         21   -1    0    0  502  501  0.00000000000E+00  0.00000000000E+00  0.29320543924E+02  0.29320543924E+02  0.00000000000E+00 0.  1.
         21   -1    0    0  501  502 -0.00000000000E+00 -0.00000000000E+00 -0.17603184744E+04  0.17603184744E+04  0.00000000000E+00 0.  1.
      99926    2    1    2    0    0  0.00000000000E+00  0.71054273576E-14 -0.17309979304E+04  0.17896390183E+04  0.45437207286E+03 0.  0.
      99925    2    3    3    0    0  0.35822900196E+02 -0.62533152326E+02 -0.74913187086E+03  0.79721665740E+03  0.26298700271E+03 0.  0.
         25    1    4    4    0    0  0.32873523387E+02 -0.70473628717E+02 -0.40050438058E+03  0.42672997065E+03  0.12509000000E+03 0.  0.
         25    1    3    3    0    0 -0.35822900196E+02  0.62533152326E+02 -0.98186605958E+03  0.99242236088E+03  0.12509000000E+03 0.  0.
         25    1    4    4    0    0  0.29493768083E+01  0.79404763908E+01 -0.34862749027E+03  0.37048668676E+03  0.12509000000E+03 0.  0.
<mgrwt>
<rscale>  2 0.45437207E+03</rscale>
<asrwt>0</asrwt>
<pdfrwt beam="1">  1       21 0.43118448E-02 0.45437207E+03</pdfrwt>
<pdfrwt beam="2">  1       21 0.25887036E+00 0.45437207E+03</pdfrwt>
<totfact> 0.17544751E+04</totfact>
</mgrwt>
</event>
<event>
 7    0  0.4766352E-002  0.4419659E+03  0.7546771E-02  0.1030145E+00
         21   -1    0    0  502  501  0.00000000000E+00  0.00000000000E+00  0.49248770298E+02  0.49248770298E+02  0.00000000000E+00 0.  1.
         21   -1    0    0  501  502 -0.00000000000E+00 -0.00000000000E+00 -0.99156704894E+03  0.99156704894E+03  0.00000000000E+00 0.  1.
      99926    2    1    2    0    0  0.00000000000E+00  0.00000000000E+00 -0.94231827864E+03  0.10408158192E+04  0.44196587121E+03 0.  0.
      99925    2    3    3    0    0  0.12333659131E+02  0.91582750631E+02 -0.50653233592E+03  0.57811028076E+03  0.26286302523E+03 0.  0.
         25    1    4    4    0    0  0.90040722937E+01  0.79141890195E+02 -0.22137146372E+03  0.26645327010E+03  0.12509000000E+03 0.  0.
         25    1    3    3    0    0 -0.12333659131E+02 -0.91582750631E+02 -0.43578594273E+03  0.46270553848E+03  0.12509000000E+03 0.  0.
         25    1    4    4    0    0  0.33295868374E+01  0.12440860436E+02 -0.28516087220E+03  0.31165701066E+03  0.12509000000E+03 0.  0.
<mgrwt>
<rscale>  2 0.44196587E+03</rscale>
<asrwt>0</asrwt>
<pdfrwt beam="1">  1       21 0.72424661E-02 0.44196587E+03</pdfrwt>
<pdfrwt beam="2">  1       21 0.14581869E+00 0.44196587E+03</pdfrwt>
<totfact> 0.41700088E+04</totfact>
</mgrwt>
</event>
<event>
 7    0  0.4766352E-002  0.4423456E+03  0.7546771E-02  0.1030030E+00
         21   -1    0    0  502  501  0.00000000000E+00  0.00000000000E+00  0.14812618431E+03  0.14812618431E+03  0.00000000000E+00 0. -1.
         21   -1    0    0  501  502 -0.00000000000E+00 -0.00000000000E+00 -0.33024147685E+03  0.33024147685E+03  0.00000000000E+00 0. -1.
      99926    2    1    2    0    0  0.00000000000E+00  0.00000000000E+00 -0.18211529254E+03  0.47836766116E+03  0.44234561088E+03 0.  0.
      99925    2    3    3    0    0 -0.13357620586E+02  0.96040876642E+02 -0.14618238891E+03  0.31606868495E+03  0.26292175027E+03 0.  0.
         25    1    3    3    0    0  0.13357620586E+02 -0.96040876642E+02 -0.35932903633E+02  0.16229897621E+03  0.12509000000E+03 0.  0.
         25    1    4    4    0    0 -0.74392390422E+01  0.70171298708E+02 -0.37976503821E+02  0.14855664368E+03  0.12509000000E+03 0.  0.
         25    1    4    4    0    0 -0.59183815438E+01  0.25869577935E+02 -0.10820588508E+03  0.16751204127E+03  0.12509000000E+03 0.  0.
<mgrwt>
<rscale>  2 0.44234561E+03</rscale>
<asrwt>0</asrwt>
<pdfrwt beam="1">  1       21 0.21783263E-01 0.44234561E+03</pdfrwt>
<pdfrwt beam="2">  1       21 0.48564922E-01 0.44234561E+03</pdfrwt>
<totfact> 0.73975668E+04</totfact>
</mgrwt>
</event>
<event>
 7    0  0.4766352E-002  0.4510592E+03  0.7546771E-02  0.1027407E+00
         21   -1    0    0  502  501  0.00000000000E+00  0.00000000000E+00  0.62543342270E+02  0.62543342270E+02  0.00000000000E+00 0. -1.
         21   -1    0    0  501  502 -0.00000000000E+00 -0.00000000000E+00 -0.81325377260E+03  0.81325377260E+03  0.00000000000E+00 0. -1.
      99926    2    1    2    0    0 -0.71054273576E-14  0.14210854715E-13 -0.75071043033E+03  0.87579711487E+03  0.45105923803E+03 0.  0.
      99925    2    3    3    0    0 -0.47757040186E+02  0.96159320627E+02 -0.43250478619E+03  0.51742623172E+03  0.26294897862E+03 0.  0.
         25    1    3    3    0    0  0.47757040186E+02 -0.96159320627E+02 -0.31820564414E+03  0.35837088316E+03  0.12509000000E+03 0.  0.
         25    1    4    4    0    0 -0.31413289666E+02  0.85894981297E+02 -0.27172158197E+03  0.31280164448E+03  0.12509000000E+03 0.  0.
         25    1    4    4    0    0 -0.16343750520E+02  0.10264339330E+02 -0.16078320422E+03  0.20462458724E+03  0.12509000000E+03 0.  0.
<mgrwt>
<rscale>  2 0.45105924E+03</rscale>
<asrwt>0</asrwt>
<pdfrwt beam="1">  1       21 0.91975505E-02 0.45105924E+03</pdfrwt>
<pdfrwt beam="2">  1       21 0.11959614E+00 0.45105924E+03</pdfrwt>
<totfact> 0.45690754E+04</totfact>
</mgrwt>
</event>
<event>
 7    0  0.4766352E-002  0.4512735E+03  0.7546771E-02  0.1027343E+00
         21   -1    0    0  502  501  0.00000000000E+00  0.00000000000E+00  0.63962490582E+02  0.63962490582E+02  0.00000000000E+00 0.  1.
         21   -1    0    0  501  502 -0.00000000000E+00 -0.00000000000E+00 -0.79596573606E+03  0.79596573606E+03  0.00000000000E+00 0.  1.
      99926    2    1    2    0    0  0.00000000000E+00  0.00000000000E+00 -0.73200324548E+03  0.85992822664E+03  0.45127353521E+03 0.  0.
      99925    2    3    3    0    0 -0.42097252491E+01  0.83109785045E+02 -0.32641635179E+03  0.42740863796E+03  0.26306947929E+03 0.  0.
         25    1    3    3    0    0  0.42097252491E+01 -0.83109785045E+02 -0.40558689369E+03  0.43251958868E+03  0.12509000000E+03 0.  0.
         25    1    4    4    0    0  0.31576829447E+02  0.57767173962E+02 -0.14265771741E+03  0.20083046328E+03  0.12509000000E+03 0.  0.
         25    1    4    4    0    0 -0.35786554696E+02  0.25342611083E+02 -0.18375863438E+03  0.22657817468E+03  0.12509000000E+03 0.  0.
<mgrwt>
<rscale>  2 0.45127354E+03</rscale>
<asrwt>0</asrwt>
<pdfrwt beam="1">  1       21 0.94062485E-02 0.45127354E+03</pdfrwt>
<pdfrwt beam="2">  1       21 0.11705379E+00 0.45127354E+03</pdfrwt>
<totfact> 0.46338045E+04</totfact>
</mgrwt>
</event>
<event>
 7    0  0.4766352E-002  0.4569905E+03  0.7546771E-02  0.1025658E+00
         21   -1    0    0  502  501  0.00000000000E+00  0.00000000000E+00  0.11483672555E+03  0.11483672555E+03  0.00000000000E+00 0.  1.
         21   -1    0    0  501  502 -0.00000000000E+00 -0.00000000000E+00 -0.45464610709E+03  0.45464610709E+03  0.00000000000E+00 0.  1.
      99926    2    1    2    0    0 -0.35527136788E-14  0.00000000000E+00 -0.33980938154E+03  0.56948283265E+03  0.45699046040E+03 0.  0.
      99925    2    3    3    0    0 -0.21533140213E+02 -0.10664249024E+03 -0.26011994649E+03  0.38554205139E+03  0.26295244812E+03 0.  0.
         25    1    3    3    0    0  0.21533140213E+02  0.10664249024E+03 -0.79689435048E+02  0.18394078126E+03  0.12509000000E+03 0.  0.
         25    1    4    4    0    0  0.75341520660E+01 -0.62850279597E+02 -0.84783993080E+02  0.16383758627E+03  0.12509000000E+03 0.  0.
         25    1    4    4    0    0 -0.29067292279E+02 -0.43792210642E+02 -0.17533595341E+03  0.22170446512E+03  0.12509000000E+03 0.  0.
<mgrwt>
<rscale>  2 0.45699046E+03</rscale>
<asrwt>0</asrwt>
<pdfrwt beam="1">  1       21 0.16887754E-01 0.45699046E+03</pdfrwt>
<pdfrwt beam="2">  1       21 0.66859722E-01 0.45699046E+03</pdfrwt>
<totfact> 0.59652611E+04</totfact>
</mgrwt>
</event>
<event>
 7    0  0.4766352E-002  0.4543686E+03  0.7546771E-02  0.1026427E+00
         21   -1    0    0  502  501  0.00000000000E+00  0.00000000000E+00  0.27713944580E+03  0.27713944580E+03  0.00000000000E+00 0. -1.
         21   -1    0    0  501  502 -0.00000000000E+00 -0.00000000000E+00 -0.18623369864E+03  0.18623369864E+03  0.00000000000E+00 0. -1.
      99926    2    1    2    0    0  0.00000000000E+00  0.00000000000E+00  0.90905747154E+02  0.46337314444E+03  0.45436859060E+03 0.  0.
      99925    2    3    3    0    0 -0.62290840844E+02 -0.68597482811E+02 -0.79309995163E+01  0.27897690236E+03  0.26301986198E+03 0.  0.
         25    1    4    4    0    0 -0.33018925261E+02 -0.72376019029E+02  0.12784034938E+02  0.14879340444E+03  0.12509000000E+03 0.  0.
         25    1    4    4    0    0 -0.29271915583E+02  0.37785362171E+01 -0.20715034455E+02  0.13018349792E+03  0.12509000000E+03 0.  0.
         25    1    3    3    0    0  0.62290840844E+02  0.68597482811E+02  0.98836746671E+02  0.18439624208E+03  0.12509000000E+03 0.  0.
<mgrwt>
<rscale>  2 0.45436859E+03</rscale>
<asrwt>0</asrwt>
<pdfrwt beam="1">  1       21 0.40755801E-01 0.45436859E+03</pdfrwt>
<pdfrwt beam="2">  1       21 0.27387308E-01 0.45436859E+03</pdfrwt>
<totfact> 0.68273205E+04</totfact>
</mgrwt>
</event>
<event>
 7    0  0.4766352E-002  0.4433621E+03  0.7546771E-02  0.1029720E+00
         21   -1    0    0  502  501  0.00000000000E+00  0.00000000000E+00  0.10237697432E+03  0.10237697432E+03  0.00000000000E+00 0.  1.
         21   -1    0    0  501  502 -0.00000000000E+00 -0.00000000000E+00 -0.48001512534E+03  0.48001512534E+03  0.00000000000E+00 0.  1.
      99926    2    1    2    0    0  0.00000000000E+00  0.00000000000E+00 -0.37763815102E+03  0.58239209966E+03  0.44336213713E+03 0.  0.
      99925    2    3    3    0    0  0.25359372901E+02 -0.84527600395E+02 -0.17372735548E+03  0.32741144616E+03  0.26311413495E+03 0.  0.
         25    1    3    3    0    0 -0.25359372901E+02  0.84527600395E+02 -0.20391079554E+03  0.25498065350E+03  0.12509000000E+03 0.  0.
         25    1    4    4    0    0 -0.17079567893E+02 -0.69733491003E+02 -0.81936562854E+02  0.16587820785E+03  0.12509000000E+03 0.  0.
         25    1    4    4    0    0  0.42438940793E+02 -0.14794109392E+02 -0.91790792627E+02  0.16153323831E+03  0.12509000000E+03 0.  0.
<mgrwt>
<rscale>  2 0.44336214E+03</rscale>
<asrwt>0</asrwt>
<pdfrwt beam="1">  1       21 0.15055438E-01 0.44336214E+03</pdfrwt>
<pdfrwt beam="2">  1       21 0.70590458E-01 0.44336214E+03</pdfrwt>
<totfact> 0.65605722E+04</totfact>
</mgrwt>
</event>
<event>
 7    0  0.4766352E-002  0.4534832E+03  0.7546771E-02  0.1026688E+00
         21   -1    0    0  502  501  0.00000000000E+00  0.00000000000E+00  0.88452231198E+03  0.88452231198E+03  0.00000000000E+00 0.  1.
         21   -1    0    0  501  502 -0.00000000000E+00 -0.00000000000E+00 -0.58123756771E+02  0.58123756771E+02  0.00000000000E+00 0.  1.
      99926    2    1    2    0    0  0.00000000000E+00 -0.14210854715E-13  0.82639855521E+03  0.94264606875E+03  0.45348322889E+03 0.  0.
      99925    2    3    3    0    0  0.66946801644E+02 -0.88470421595E+02  0.49396222490E+03  0.57053007668E+03  0.26305322469E+03 0.  0.
         25    1    4    4    0    0  0.46474343824E+02 -0.84781963184E+02  0.25584865506E+03  0.30075552915E+03  0.12509000000E+03 0.  0.
         25    1    3    3    0    0 -0.66946801644E+02  0.88470421595E+02  0.33243633031E+03  0.37211599207E+03  0.12509000000E+03 0.  0.
         25    1    4    4    0    0  0.20472457821E+02 -0.36884584114E+01  0.23811356984E+03  0.26977454753E+03  0.12509000000E+03 0.  0.
<mgrwt>
<rscale>  2 0.45348323E+03</rscale>
<asrwt>0</asrwt>
<pdfrwt beam="1">  1       21 0.13007680E+00 0.45348323E+03</pdfrwt>
<pdfrwt beam="2">  1       21 0.85476118E-02 0.45348323E+03</pdfrwt>
<totfact> 0.41935245E+04</totfact>
</mgrwt>
</event>
<event>
 7    0  0.4766352E-002  0.4564480E+03  0.7546771E-02  0.1025816E+00
         21   -1    0    0  502  501  0.00000000000E+00  0.00000000000E+00  0.51705880022E+03  0.51705880022E+03  0.00000000000E+00 0. -1.
         21   -1    0    0  501  502 -0.00000000000E+00 -0.00000000000E+00 -0.10073555054E+03  0.10073555054E+03  0.00000000000E+00 0. -1.
      99926    2    1    2    0    0  0.00000000000E+00  0.00000000000E+00  0.41632324968E+03  0.61779435077E+03  0.45644803824E+03 0.  0.
      99925    2    3    3    0    0 -0.11052885703E+03  0.52116001649E+01  0.22220364668E+03  0.36172069460E+03  0.26310380327E+03 0.  0.
         25    1    4    4    0    0 -0.67801670757E+02  0.67653456468E+01  0.65723626606E+02  0.15687555467E+03  0.12509000000E+03 0.  0.
         25    1    4    4    0    0 -0.42727186269E+02 -0.15537454819E+01  0.15648002007E+03  0.20484513993E+03  0.12509000000E+03 0.  0.
         25    1    3    3    0    0  0.11052885703E+03 -0.52116001649E+01  0.19411960300E+03  0.25607365617E+03  0.12509000000E+03 0.  0.
<mgrwt>
<rscale>  2 0.45644804E+03</rscale>
<asrwt>0</asrwt>
<pdfrwt beam="1">  1       21 0.76038058E-01 0.45644804E+03</pdfrwt>
<pdfrwt beam="2">  1       21 0.14814052E-01 0.45644804E+03</pdfrwt>
<totfact> 0.56942182E+04</totfact>
</mgrwt>
</event>
<event>
 7    0  0.4766352E-002  0.4740273E+03  0.7546771E-02  0.1020790E+00
         21   -1    0    0  502  501  0.00000000000E+00  0.00000000000E+00  0.35763438742E+02  0.35763438742E+02  0.00000000000E+00 0.  1.
         21   -1    0    0  501  502 -0.00000000000E+00 -0.00000000000E+00 -0.15707515235E+04  0.15707515235E+04  0.00000000000E+00 0.  1.
      99926    2    1    2    0    0 -0.14210854715E-13  0.00000000000E+00 -0.15349880848E+04  0.16065149623E+04  0.47402732365E+03 0.  0.
      99925    2    3    3    0    0 -0.93457578061E+02 -0.88318628997E+02 -0.10204658373E+04  0.10616157511E+04  0.26295052513E+03 0.  0.
         25    1    4    4    0    0 -0.67681702437E+02 -0.94703047743E+01 -0.48551211389E+03  0.50600397267E+03  0.12509000000E+03 0.  0.
         25    1    4    4    0    0 -0.25775875624E+02 -0.78848324223E+02 -0.53495372341E+03  0.55561177839E+03  0.12509000000E+03 0.  0.
         25    1    3    3    0    0  0.93457578061E+02  0.88318628997E+02 -0.51452224749E+03  0.54489921122E+03  0.12509000000E+03 0.  0.
<mgrwt>
<rscale>  2 0.47402732E+03</rscale>
<asrwt>0</asrwt>
<pdfrwt beam="1">  1       21 0.52593302E-02 0.47402732E+03</pdfrwt>
<pdfrwt beam="2">  1       21 0.23099283E+00 0.47402732E+03</pdfrwt>
<totfact> 0.18409277E+04</totfact>
</mgrwt>
</event>
<event>
 7    0  0.4766352E-002  0.4552265E+03  0.7546771E-02  0.1026175E+00
         21   -1    0    0  502  501  0.00000000000E+00  0.00000000000E+00  0.19549771380E+04  0.19549771380E+04  0.00000000000E+00 0.  1.
         21   -1    0    0  501  502 -0.00000000000E+00 -0.00000000000E+00 -0.26500464824E+02  0.26500464824E+02  0.00000000000E+00 0.  1.
      99926    2    1    2    0    0  0.00000000000E+00  0.00000000000E+00  0.19284766732E+04  0.19814776029E+04  0.45522654966E+03 0.  0.
      99925    2    3    3    0    0  0.60329962524E+02  0.48961350477E+02  0.85422241867E+03  0.89717753843E+03  0.26304881047E+03 0.  0.
         25    1    4    4    0    0  0.33087620026E+02 -0.11693998086E+02  0.47173560100E+03  0.48929901445E+03  0.12509000000E+03 0.  0.
         25    1    4    4    0    0  0.27242342498E+02  0.60655348563E+02  0.38248681766E+03  0.40787852397E+03  0.12509000000E+03 0.  0.
         25    1    3    3    0    0 -0.60329962524E+02 -0.48961350477E+02  0.10742542545E+04  0.10843000644E+04  0.12509000000E+03 0.  0.
<mgrwt>
<rscale>  2 0.45522655E+03</rscale>
<asrwt>0</asrwt>
<pdfrwt beam="1">  1       21 0.28749654E+00 0.45522655E+03</pdfrwt>
<pdfrwt beam="2">  1       21 0.38971285E-02 0.45522655E+03</pdfrwt>
<totfact> 0.13989933E+04</totfact>
</mgrwt>
</event>
<event>
 7    0  0.4766352E-002  0.3954354E+03  0.7546771E-02  0.1045372E+00
         21   -1    0    0  502  501  0.00000000000E+00  0.00000000000E+00  0.37833340107E+02  0.37833340107E+02  0.00000000000E+00 0. -1.
         21   -1    0    0  501  502 -0.00000000000E+00 -0.00000000000E+00 -0.10332762911E+04  0.10332762911E+04  0.00000000000E+00 0. -1.
      99926    2    1    2    0    0  0.35527136788E-14  0.35527136788E-14 -0.99544295099E+03  0.10711096312E+04  0.39543542252E+03 0.  0.
      99925    2    3    3    0    0 -0.21096304771E+02  0.24694839479E+02 -0.63038797116E+03  0.68385321025E+03  0.26308046262E+03 0.  0.
         25    1    3    3    0    0  0.21096304771E+02 -0.24694839479E+02 -0.36505497983E+03  0.38725642095E+03  0.12509000000E+03 0.  0.
         25    1    4    4    0    0  0.20683083878E+02  0.38396215256E+02 -0.31810434184E+03  0.34458662148E+03  0.12509000000E+03 0.  0.
         25    1    4    4    0    0 -0.41779388649E+02 -0.13701375778E+02 -0.31228362932E+03  0.33926658877E+03  0.12509000000E+03 0.  0.
<mgrwt>
<rscale>  2 0.39543542E+03</rscale>
<asrwt>0</asrwt>
<pdfrwt beam="1">  1       21 0.55637270E-02 0.39543542E+03</pdfrwt>
<pdfrwt beam="2">  1       21 0.15195238E+00 0.39543542E+03</pdfrwt>
<totfact> 0.59863976E+04</totfact>
</mgrwt>
</event>
<event>
 7    0  0.4766352E-002  0.4508008E+03  0.7546771E-02  0.1027484E+00
         21   -1    0    0  502  501  0.00000000000E+00  0.00000000000E+00  0.52379908585E+03  0.52379908585E+03  0.00000000000E+00 0.  1.
         21   -1    0    0  501  502 -0.00000000000E+00 -0.00000000000E+00 -0.96993938677E+02  0.96993938677E+02  0.00000000000E+00 0.  1.
      99926    2    1    2    0    0  0.00000000000E+00  0.00000000000E+00  0.42680514717E+03  0.62079302452E+03  0.45080078266E+03 0.  0.
      99925    2    3    3    0    0 -0.75679302518E+02  0.51002570708E+02  0.35217686520E+03  0.44890495740E+03  0.26298003223E+03 0.  0.
         25    1    3    3    0    0  0.75679302518E+02 -0.51002570708E+02  0.74628281970E+02  0.17188806712E+03  0.12509000000E+03 0.  0.
         25    1    4    4    0    0 -0.58561122462E+02  0.59827174393E+02  0.16974065016E+03  0.22686580235E+03  0.12509000000E+03 0.  0.
         25    1    4    4    0    0 -0.17118180056E+02 -0.88246036845E+01  0.18243621504E+03  0.22203915506E+03  0.12509000000E+03 0.  0.
<mgrwt>
<rscale>  2 0.45080078E+03</rscale>
<asrwt>0</asrwt>
<pdfrwt beam="1">  1       21 0.77029276E-01 0.45080078E+03</pdfrwt>
<pdfrwt beam="2">  1       21 0.14263815E-01 0.45080078E+03</pdfrwt>
<totfact> 0.59360204E+04</totfact>
</mgrwt>
</event>
<event>
 7    0  0.4766352E-002  0.4440461E+03  0.7546771E-02  0.1029513E+00
         21   -1    0    0  502  501  0.00000000000E+00  0.00000000000E+00  0.13727756990E+03  0.13727756990E+03  0.00000000000E+00 0. -1.
         21   -1    0    0  501  502 -0.00000000000E+00 -0.00000000000E+00 -0.35908436384E+03  0.35908436384E+03  0.00000000000E+00 0. -1.
      99926    2    1    2    0    0 -0.21345772372E-14  0.00000000000E+00 -0.22180679394E+03  0.49636193373E+03  0.44404607354E+03 0.  0.
      99925    2    3    3    0    0 -0.50941163784E-02  0.75833909369E+02 -0.63403041417E+02  0.28074644554E+03  0.26276955529E+03 0.  0.
         25    1    4    4    0    0 -0.32352986438E+02  0.17321027779E+02 -0.16747229042E+02  0.13143329683E+03  0.12509000000E+03 0.  0.
         25    1    3    3    0    0  0.50941163784E-02 -0.75833909369E+02 -0.15840375252E+03  0.21561548819E+03  0.12509000000E+03 0.  0.
         25    1    4    4    0    0  0.32347892322E+02  0.58512881590E+02 -0.46655812375E+02  0.14931314871E+03  0.12509000000E+03 0.  0.
<mgrwt>
<rscale>  2 0.44404607E+03</rscale>
<asrwt>0</asrwt>
<pdfrwt beam="1">  1       21 0.20187878E-01 0.44404607E+03</pdfrwt>
<pdfrwt beam="2">  1       21 0.52806524E-01 0.44404607E+03</pdfrwt>
<totfact> 0.71548572E+04</totfact>
</mgrwt>
</event>
<event>
 7    0  0.4766352E-002  0.4440375E+03  0.7546771E-02  0.1029515E+00
         21   -1    0    0  502  501  0.00000000000E+00  0.00000000000E+00  0.61044147493E+03  0.61044147493E+03  0.00000000000E+00 0. -1.
         21   -1    0    0  501  502 -0.00000000000E+00 -0.00000000000E+00 -0.80748665264E+02  0.80748665264E+02  0.00000000000E+00 0. -1.
      99926    2    1    2    0    0  0.00000000000E+00 -0.14210854715E-13  0.52969280966E+03  0.69119014019E+03  0.44403754040E+03 0.  0.
      99925    2    3    3    0    0 -0.25242765617E+02  0.96527431792E+02  0.37385151001E+03  0.46783221872E+03  0.26295872496E+03 0.  0.
         25    1    3    3    0    0  0.25242765617E+02 -0.96527431792E+02  0.15584129966E+03  0.22335792147E+03  0.12509000000E+03 0.  0.
         25    1    4    4    0    0 -0.30357144448E+02  0.51073502489E+02  0.12981154612E+03  0.18981202407E+03  0.12509000000E+03 0.  0.
         25    1    4    4    0    0  0.51143788308E+01  0.45453929303E+02  0.24403996388E+03  0.27802019465E+03  0.12509000000E+03 0.  0.
<mgrwt>
<rscale>  2 0.44403754E+03</rscale>
<asrwt>0</asrwt>
<pdfrwt beam="1">  1       21 0.89770803E-01 0.44403754E+03</pdfrwt>
<pdfrwt beam="2">  1       21 0.11874804E-01 0.44403754E+03</pdfrwt>
<totfact> 0.58250033E+04</totfact>
</mgrwt>
</event>
<event>
 7    0  0.4766352E-002  0.4345513E+03  0.7546771E-02  0.1032432E+00
         21   -1    0    0  502  501  0.00000000000E+00  0.00000000000E+00  0.12986594803E+02  0.12986594803E+02  0.00000000000E+00 0.  1.
         21   -1    0    0  501  502 -0.00000000000E+00 -0.00000000000E+00 -0.36351881738E+04  0.36351881738E+04  0.00000000000E+00 0.  1.
      99926    2    1    2    0    0  0.71054273576E-14  0.00000000000E+00 -0.36222015790E+04  0.36481747686E+04  0.43455133573E+03 0.  0.
      99925    2    3    3    0    0  0.57628475332E+02  0.69992709206E+02 -0.21477674154E+04  0.21656689065E+04  0.26267265007E+03 0.  0.
         25    1    4    4    0    0  0.11296953093E+02  0.13906593962E+02 -0.76706224316E+03  0.77740144551E+03  0.12509000000E+03 0.  0.
         25    1    4    4    0    0  0.46331522239E+02  0.56086115244E+02 -0.13807051723E+04  0.13882674609E+04  0.12509000000E+03 0.  0.
         25    1    3    3    0    0 -0.57628475332E+02 -0.69992709206E+02 -0.14744341636E+04  0.14825058622E+04  0.12509000000E+03 0.  0.
<mgrwt>
<rscale>  2 0.43455134E+03</rscale>
<asrwt>0</asrwt>
<pdfrwt beam="1">  1       21 0.19097907E-02 0.43455134E+03</pdfrwt>
<pdfrwt beam="2">  1       21 0.53458723E+00 0.43455134E+03</pdfrwt>
<totfact> 0.11235067E+03</totfact>
</mgrwt>
</event>
<event>
 7    0  0.4766352E-002  0.4491517E+03  0.7546771E-02  0.1027975E+00
         21   -1    0    0  502  501  0.00000000000E+00  0.00000000000E+00  0.13988406267E+03  0.13988406267E+03  0.00000000000E+00 0.  1.
         21   -1    0    0  501  502 -0.00000000000E+00 -0.00000000000E+00 -0.36054371818E+03  0.36054371818E+03  0.00000000000E+00 0.  1.
      99926    2    1    2    0    0  0.00000000000E+00  0.00000000000E+00 -0.22065965551E+03  0.50042778084E+03  0.44915173413E+03 0.  0.
      99925    2    3    3    0    0 -0.41033347519E+02 -0.60589267257E+02 -0.22750803888E+03  0.35534434495E+03  0.26297319411E+03 0.  0.
         25    1    4    4    0    0 -0.29670636658E+02 -0.47579497126E+02 -0.71418297057E+02  0.15457113728E+03  0.12509000000E+03 0.  0.
         25    1    3    3    0    0  0.41033347519E+02  0.60589267257E+02  0.68483833626E+01  0.14508343589E+03  0.12509000000E+03 0.  0.
         25    1    4    4    0    0 -0.11362710861E+02 -0.13009770131E+02 -0.15608974182E+03  0.20077320767E+03  0.12509000000E+03 0.  0.
<mgrwt>
<rscale>  2 0.44915173E+03</rscale>
<asrwt>0</asrwt>
<pdfrwt beam="1">  1       21 0.20571186E-01 0.44915173E+03</pdfrwt>
<pdfrwt beam="2">  1       21 0.53021134E-01 0.44915173E+03</pdfrwt>
<totfact> 0.68359201E+04</totfact>
</mgrwt>
</event>
<event>
 7    0  0.4766352E-002  0.4557568E+03  0.7546771E-02  0.1026019E+00
         21   -1    0    0  502  501  0.00000000000E+00  0.00000000000E+00  0.20134906006E+03  0.20134906006E+03  0.00000000000E+00 0.  1.
         21   -1    0    0  501  502 -0.00000000000E+00 -0.00000000000E+00 -0.25790322931E+03  0.25790322931E+03  0.00000000000E+00 0.  1.
      99926    2    1    2    0    0 -0.71054273576E-14  0.00000000000E+00 -0.56554169256E+02  0.45925228937E+03  0.45575683344E+03 0.  0.
      99925    2    3    3    0    0 -0.40151285505E+02  0.10068139245E+03 -0.70999123931E+02  0.29310466426E+03  0.26290796887E+03 0.  0.
         25    1    4    4    0    0 -0.39196556435E+02  0.73762076382E+02 -0.83840440002E+01  0.15064864501E+03  0.12509000000E+03 0.  0.
         25    1    4    4    0    0 -0.95472906952E+00  0.26919316072E+02 -0.62615079931E+02  0.14245601925E+03  0.12509000000E+03 0.  0.
         25    1    3    3    0    0  0.40151285505E+02 -0.10068139245E+03  0.14444954675E+02  0.16614762511E+03  0.12509000000E+03 0.  0.
<mgrwt>
<rscale>  2 0.45575683E+03</rscale>
<asrwt>0</asrwt>
<pdfrwt beam="1">  1       21 0.29610156E-01 0.45575683E+03</pdfrwt>
<pdfrwt beam="2">  1       21 0.37926945E-01 0.45575683E+03</pdfrwt>
<totfact> 0.67824765E+04</totfact>
</mgrwt>
</event>
<event>
 7    0  0.4766352E-002  0.4575957E+03  0.7546771E-02  0.1025481E+00
         21   -1    0    0  502  501  0.00000000000E+00  0.00000000000E+00  0.54993865587E+03  0.54993865587E+03  0.00000000000E+00 0. -1.
         21   -1    0    0  501  502 -0.00000000000E+00 -0.00000000000E+00 -0.95189636701E+02  0.95189636701E+02  0.00000000000E+00 0. -1.
      99926    2    1    2    0    0  0.00000000000E+00 -0.71054273576E-14  0.45474901917E+03  0.64512829258E+03  0.45759572052E+03 0.  0.
      99925    2    3    3    0    0  0.97182778300E+01 -0.60613614836E+02  0.42358605976E+03  0.50234491341E+03  0.26297681795E+03 0.  0.
         25    1    4    4    0    0  0.10204475157E+02 -0.58072592834E+01  0.14344860375E+03  0.19069049685E+03  0.12509000000E+03 0.  0.
         25    1    4    4    0    0 -0.48619732704E+00 -0.54806355553E+02  0.28013745601E+03  0.31165441655E+03  0.12509000000E+03 0.  0.
         25    1    3    3    0    0 -0.97182778300E+01  0.60613614836E+02  0.31162959419E+02  0.14278337917E+03  0.12509000000E+03 0.  0.
<mgrwt>
<rscale>  2 0.45759572E+03</rscale>
<asrwt>0</asrwt>
<pdfrwt beam="1">  1       21 0.80873330E-01 0.45759572E+03</pdfrwt>
<pdfrwt beam="2">  1       21 0.13998476E-01 0.45759572E+03</pdfrwt>
<totfact> 0.54850945E+04</totfact>
</mgrwt>
</event>
<event>
 7    0  0.4766352E-002  0.4491167E+03  0.7546771E-02  0.1027986E+00
         21   -1    0    0  502  501  0.00000000000E+00  0.00000000000E+00  0.70097745643E+03  0.70097745643E+03  0.00000000000E+00 0.  1.
         21   -1    0    0  501  502 -0.00000000000E+00 -0.00000000000E+00 -0.71937347657E+02  0.71937347657E+02  0.00000000000E+00 0.  1.
      99926    2    1    2    0    0  0.00000000000E+00 -0.35527136788E-14  0.62904010877E+03  0.77291480409E+03  0.44911672863E+03 0.  0.
      99925    2    3    3    0    0 -0.21584162479E+02  0.30046671168E+02  0.57152208779E+03  0.63035075057E+03  0.26331709666E+03 0.  0.
         25    1    3    3    0    0  0.21584162479E+02 -0.30046671168E+02  0.57518020984E+02  0.14256405352E+03  0.12509000000E+03 0.  0.
         25    1    4    4    0    0 -0.17833928317E+02 -0.35390669371E+01  0.19718433478E+03  0.23422157026E+03  0.12509000000E+03 0.  0.
         25    1    4    4    0    0 -0.37502341625E+01  0.33585738105E+02  0.37433775301E+03  0.39612918031E+03  0.12509000000E+03 0.  0.
<mgrwt>
<rscale>  2 0.44911673E+03</rscale>
<asrwt>0</asrwt>
<pdfrwt beam="1">  1       21 0.10308492E+00 0.44911673E+03</pdfrwt>
<pdfrwt beam="2">  1       21 0.10579022E-01 0.44911673E+03</pdfrwt>
<totfact> 0.51437512E+04</totfact>
</mgrwt>
</event>
<event>
 7    0  0.4766352E-002  0.4190885E+03  0.7546771E-02  0.1037363E+00
         21   -1    0    0  502  501  0.00000000000E+00  0.00000000000E+00  0.16226723976E+03  0.16226723976E+03  0.00000000000E+00 0.  1.
         21   -1    0    0  501  502 -0.00000000000E+00 -0.00000000000E+00 -0.27059557836E+03  0.27059557836E+03  0.00000000000E+00 0.  1.
      99926    2    1    2    0    0 -0.35527136788E-14  0.00000000000E+00 -0.10832833860E+03  0.43286281812E+03  0.41908852330E+03 0.  0.
      99925    2    3    3    0    0  0.24985131777E+02 -0.60778143982E+02 -0.10713888465E+03  0.29155760768E+03  0.26307576550E+03 0.  0.
         25    1    4    4    0    0  0.14223396042E+02 -0.28569080771E+01 -0.83981220178E+02  0.15136320676E+03  0.12509000000E+03 0.  0.
         25    1    4    4    0    0  0.10761735735E+02 -0.57921235904E+02 -0.23157664473E+02  0.14019440092E+03  0.12509000000E+03 0.  0.
         25    1    3    3    0    0 -0.24985131777E+02  0.60778143982E+02 -0.11894539442E+01  0.14130521044E+03  0.12509000000E+03 0.  0.
<mgrwt>
<rscale>  2 0.41908852E+03</rscale>
<asrwt>0</asrwt>
<pdfrwt beam="1">  1       21 0.23862830E-01 0.41908852E+03</pdfrwt>
<pdfrwt beam="2">  1       21 0.39793467E-01 0.41908852E+03</pdfrwt>
<totfact> 0.94477007E+04</totfact>
</mgrwt>
</event>
<event>
 7    0  0.4766352E-002  0.4533287E+03  0.7546771E-02  0.1026734E+00
         21   -1    0    0  502  501  0.00000000000E+00  0.00000000000E+00  0.58064557058E+03  0.58064557058E+03  0.00000000000E+00 0. -1.
         21   -1    0    0  501  502 -0.00000000000E+00 -0.00000000000E+00 -0.88482071405E+02  0.88482071405E+02  0.00000000000E+00 0. -1.
      99926    2    1    2    0    0  0.00000000000E+00  0.00000000000E+00  0.49216349918E+03  0.66912764199E+03  0.45332867916E+03 0.  0.
      99925    2    3    3    0    0  0.30712331426E+02 -0.86470166019E+02  0.40382749402E+03  0.49060286830E+03  0.26304789021E+03 0.  0.
         25    1    4    4    0    0  0.21696861453E+01 -0.71594495737E+02  0.26004402150E+03  0.29732285579E+03  0.12509000000E+03 0.  0.
         25    1    3    3    0    0 -0.30712331426E+02  0.86470166019E+02  0.88336005161E+02  0.17852477369E+03  0.12509000000E+03 0.  0.
         25    1    4    4    0    0  0.28542645281E+02 -0.14875670281E+02  0.14378347252E+03  0.19328001251E+03  0.12509000000E+03 0.  0.
<mgrwt>
<rscale>  2 0.45332868E+03</rscale>
<asrwt>0</asrwt>
<pdfrwt beam="1">  1       21 0.85389052E-01 0.45332868E+03</pdfrwt>
<pdfrwt beam="2">  1       21 0.13012070E-01 0.45332868E+03</pdfrwt>
<totfact> 0.55336894E+04</totfact>
</mgrwt>
</event>
<event>
 7    0  0.4766352E-002  0.4574145E+03  0.7546771E-02  0.1025534E+00
         21   -1    0    0  502  501  0.00000000000E+00  0.00000000000E+00  0.11553039297E+04  0.11553039297E+04  0.00000000000E+00 0.  1.
         21   -1    0    0  501  502 -0.00000000000E+00 -0.00000000000E+00 -0.45275543279E+02  0.45275543279E+02  0.00000000000E+00 0.  1.
      99926    2    1    2    0    0 -0.14210854715E-13  0.00000000000E+00  0.11100283865E+04  0.12005794730E+04  0.45741453003E+03 0.  0.
      99925    2    3    3    0    0 -0.89207181658E+02 -0.69594994028E+02  0.75895891795E+03  0.81109434587E+03  0.26278130509E+03 0.  0.
         25    1    4    4    0    0 -0.31937464649E+02 -0.59525466010E+02  0.30238654896E+03  0.33413831843E+03  0.12509000000E+03 0.  0.
         25    1    3    3    0    0  0.89207181658E+02  0.69594994028E+02  0.35106946851E+03  0.38948512715E+03  0.12509000000E+03 0.  0.
         25    1    4    4    0    0 -0.57269717009E+02 -0.10069528018E+02  0.45657236900E+03  0.47695602744E+03  0.12509000000E+03 0.  0.
<mgrwt>
<rscale>  2 0.45741453E+03</rscale>
<asrwt>0</asrwt>
<pdfrwt beam="1">  1       21 0.16989762E+00 0.45741453E+03</pdfrwt>
<pdfrwt beam="2">  1       21 0.66581689E-02 0.45741453E+03</pdfrwt>
<totfact> 0.31540161E+04</totfact>
</mgrwt>
</event>
<event>
 7    0  0.4766352E-002  0.4552158E+03  0.7546771E-02  0.1026178E+00
         21   -1    0    0  502  501  0.00000000000E+00  0.00000000000E+00  0.85674619897E+02  0.85674619897E+02  0.00000000000E+00 0. -1.
         21   -1    0    0  501  502 -0.00000000000E+00 -0.00000000000E+00 -0.60467553994E+03  0.60467553994E+03  0.00000000000E+00 0. -1.
      99926    2    1    2    0    0 -0.14210854715E-13 -0.71054273576E-14 -0.51900092004E+03  0.69035015984E+03  0.45521576003E+03 0.  0.
      99925    2    3    3    0    0  0.86994924143E+02  0.55779219462E+02 -0.39726984809E+03  0.48750687025E+03  0.26298322797E+03 0.  0.
         25    1    4    4    0    0  0.65926181358E+02  0.15447100854E+02 -0.25957171270E+03  0.29598962219E+03  0.12509000000E+03 0.  0.
         25    1    3    3    0    0 -0.86994924143E+02 -0.55779219462E+02 -0.12173107195E+03  0.20284328959E+03  0.12509000000E+03 0.  0.
         25    1    4    4    0    0  0.21068742785E+02  0.40332118607E+02 -0.13769813539E+03  0.19151724806E+03  0.12509000000E+03 0.  0.
<mgrwt>
<rscale>  2 0.45521576E+03</rscale>
<asrwt>0</asrwt>
<pdfrwt beam="1">  1       21 0.12599209E-01 0.45521576E+03</pdfrwt>
<pdfrwt beam="2">  1       21 0.88922874E-01 0.45521576E+03</pdfrwt>
<totfact> 0.53339465E+04</totfact>
</mgrwt>
</event>
<event>
 7    0  0.4766352E-002  0.4482920E+03  0.7546771E-02  0.1028233E+00
         21   -1    0    0  502  501  0.00000000000E+00  0.00000000000E+00  0.29470575377E+03  0.29470575377E+03  0.00000000000E+00 0. -1.
         21   -1    0    0  501  502 -0.00000000000E+00 -0.00000000000E+00 -0.17047997945E+03  0.17047997945E+03  0.00000000000E+00 0. -1.
      99926    2    1    2    0    0  0.00000000000E+00  0.00000000000E+00  0.12422577431E+03  0.46518573322E+03  0.44829200683E+03 0.  0.
      99925    2    3    3    0    0 -0.92993314854E+02 -0.21832256574E+01  0.13337962709E+03  0.30903252575E+03  0.26278975240E+03 0.  0.
         25    1    4    4    0    0 -0.28936134913E+02 -0.36453942009E+02  0.74500437587E+02  0.15285291326E+03  0.12509000000E+03 0.  0.
         25    1    3    3    0    0  0.92993314854E+02  0.21832256574E+01 -0.91538527726E+01  0.15615320747E+03  0.12509000000E+03 0.  0.
         25    1    4    4    0    0 -0.64057179940E+02  0.34270716352E+02  0.58879189499E+02  0.15617961249E+03  0.12509000000E+03 0.  0.
<mgrwt>
<rscale>  2 0.44829201E+03</rscale>
<asrwt>0</asrwt>
<pdfrwt beam="1">  1       21 0.43339081E-01 0.44829201E+03</pdfrwt>
<pdfrwt beam="2">  1       21 0.25070585E-01 0.44829201E+03</pdfrwt>
<totfact> 0.71526649E+04</totfact>
</mgrwt>
</event>
<event>
 7    0  0.4766352E-002  0.4589089E+03  0.7546771E-02  0.1025098E+00
         21   -1    0    0  502  501  0.00000000000E+00  0.00000000000E+00  0.39752835918E+03  0.39752835918E+03  0.00000000000E+00 0.  1.
         21   -1    0    0  501  502 -0.00000000000E+00 -0.00000000000E+00 -0.13244176026E+03  0.13244176026E+03  0.00000000000E+00 0.  1.
      99926    2    1    2    0    0  0.00000000000E+00 -0.17763568394E-14  0.26508659892E+03  0.52997011944E+03  0.45890894802E+03 0.  0.
      99925    2    3    3    0    0 -0.87247643936E+02 -0.12129181134E+02  0.77575488075E+02  0.28796352201E+03  0.26295582376E+03 0.  0.
         25    1    3    3    0    0  0.87247643936E+02  0.12129181134E+02  0.18751111085E+03  0.24200659743E+03  0.12509000000E+03 0.  0.
         25    1    4    4    0    0 -0.23366333654E+02  0.27816140819E+02  0.48980175810E+02  0.13916281458E+03  0.12509000000E+03 0.  0.
         25    1    4    4    0    0 -0.63881310282E+02 -0.39945321954E+02  0.28595312264E+02  0.14880070743E+03  0.12509000000E+03 0.  0.
<mgrwt>
<rscale>  2 0.45890895E+03</rscale>
<asrwt>0</asrwt>
<pdfrwt beam="1">  1       21 0.58460052E-01 0.45890895E+03</pdfrwt>
<pdfrwt beam="2">  1       21 0.19476730E-01 0.45890895E+03</pdfrwt>
<totfact> 0.61287466E+04</totfact>
</mgrwt>
</event>
<event>
 7    0  0.4766352E-002  0.4505913E+03  0.7546771E-02  0.1027546E+00
         21   -1    0    0  502  501  0.00000000000E+00  0.00000000000E+00  0.57896272894E+03  0.57896272894E+03  0.00000000000E+00 0.  1.
         21   -1    0    0  501  502 -0.00000000000E+00 -0.00000000000E+00 -0.87670794241E+02  0.87670794241E+02  0.00000000000E+00 0.  1.
      99926    2    1    2    0    0  0.11102230246E-15  0.00000000000E+00  0.49129193470E+03  0.66663352318E+03  0.45059126615E+03 0.  0.
      99925    2    3    3    0    0  0.84273201185E+00 -0.86847783869E+02  0.21289001923E+03  0.34930343889E+03  0.26295909258E+03 0.  0.
         25    1    4    4    0    0  0.28228378331E+01 -0.52868924819E+02  0.15843791145E+03  0.20869396615E+03  0.12509000000E+03 0.  0.
         25    1    4    4    0    0 -0.19801058212E+01 -0.33978859050E+02  0.54452107789E+02  0.14060947274E+03  0.12509000000E+03 0.  0.
         25    1    3    3    0    0 -0.84273201185E+00  0.86847783869E+02  0.27840191546E+03  0.31733008429E+03  0.12509000000E+03 0.  0.
<mgrwt>
<rscale>  2 0.45059127E+03</rscale>
<asrwt>0</asrwt>
<pdfrwt beam="1">  1       21 0.85141576E-01 0.45059127E+03</pdfrwt>
<pdfrwt beam="2">  1       21 0.12892764E-01 0.45059127E+03</pdfrwt>
<totfact> 0.56697065E+04</totfact>
</mgrwt>
</event>
<event>
 7    0  0.4766352E-002  0.4571810E+03  0.7546771E-02  0.1025602E+00
         21   -1    0    0  502  501  0.00000000000E+00  0.00000000000E+00  0.15335439331E+03  0.15335439331E+03  0.00000000000E+00 0. -1.
         21   -1    0    0  501  502 -0.00000000000E+00 -0.00000000000E+00 -0.34073759783E+03  0.34073759783E+03  0.00000000000E+00 0. -1.
      99926    2    1    2    0    0  0.00000000000E+00  0.00000000000E+00 -0.18738320451E+03  0.49409199114E+03  0.45718096021E+03 0.  0.
      99925    2    3    3    0    0 -0.36322288198E+02 -0.44620609314E+02 -0.22552674037E+03  0.35121881373E+03  0.26302478420E+03 0.  0.
         25    1    4    4    0    0 -0.23065383634E+02 -0.32652146319E+02 -0.63851717404E+02  0.14602302728E+03  0.12509000000E+03 0.  0.
         25    1    3    3    0    0  0.36322288198E+02  0.44620609314E+02  0.38143535857E+02  0.14287317741E+03  0.12509000000E+03 0.  0.
         25    1    4    4    0    0 -0.13256904564E+02 -0.11968462995E+02 -0.16167502297E+03  0.20519578645E+03  0.12509000000E+03 0.  0.
<mgrwt>
<rscale>  2 0.45718096E+03</rscale>
<asrwt>0</asrwt>
<pdfrwt beam="1">  1       21 0.22552117E-01 0.45718096E+03</pdfrwt>
<pdfrwt beam="2">  1       21 0.50108470E-01 0.45718096E+03</pdfrwt>
<totfact> 0.64562647E+04</totfact>
</mgrwt>
</event>
<event>
 7    0  0.4766352E-002  0.4552429E+03  0.7546771E-02  0.1026170E+00
         21   -1    0    0  502  501  0.00000000000E+00  0.00000000000E+00  0.53034929439E+03  0.53034929439E+03  0.00000000000E+00 0. -1.
         21   -1    0    0  501  502 -0.00000000000E+00 -0.00000000000E+00 -0.97693196156E+02  0.97693196156E+02  0.00000000000E+00 0. -1.
      99926    2    1    2    0    0  0.00000000000E+00  0.35527136788E-14  0.43265609823E+03  0.62804249054E+03  0.45524286989E+03 0.  0.
      99925    2    3    3    0    0  0.50892681955E+02 -0.22115619053E+02  0.13551098535E+03  0.30090048485E+03  0.26286633285E+03 0.  0.
         25    1    4    4    0    0  0.27700724455E+02  0.28549049304E+02  0.57549393379E+02  0.14332417497E+03  0.12509000000E+03 0.  0.
         25    1    4    4    0    0  0.23191957499E+02 -0.50664668357E+02  0.77961591972E+02  0.15757630988E+03  0.12509000000E+03 0.  0.
         25    1    3    3    0    0 -0.50892681955E+02  0.22115619053E+02  0.29714511288E+03  0.32714200570E+03  0.12509000000E+03 0.  0.
<mgrwt>
<rscale>  2 0.45524287E+03</rscale>
<asrwt>0</asrwt>
<pdfrwt beam="1">  1       21 0.77992542E-01 0.45524287E+03</pdfrwt>
<pdfrwt beam="2">  1       21 0.14366647E-01 0.45524287E+03</pdfrwt>
<totfact> 0.56875414E+04</totfact>
</mgrwt>
</event>
<event>
 7    0  0.4766352E-002  0.4523150E+03  0.7546771E-02  0.1027034E+00
         21   -1    0    0  502  501  0.00000000000E+00  0.00000000000E+00  0.22329447434E+03  0.22329447434E+03  0.00000000000E+00 0.  1.
         21   -1    0    0  501  502 -0.00000000000E+00 -0.00000000000E+00 -0.22905719659E+03  0.22905719659E+03  0.00000000000E+00 0.  1.
      99926    2    1    2    0    0  0.00000000000E+00  0.00000000000E+00 -0.57627222508E+01  0.45235167092E+03  0.45231496241E+03 0.  0.
      99925    2    3    3    0    0 -0.10509301107E+03  0.19173653979E+02  0.25370381466E+02  0.28493318858E+03  0.26292792875E+03 0.  0.
         25    1    4    4    0    0 -0.95054147223E+02  0.38181951180E+01  0.84906706442E+01  0.15738319194E+03  0.12509000000E+03 0.  0.
         25    1    3    3    0    0  0.10509301107E+03 -0.19173653979E+02 -0.31133103717E+02  0.16741848234E+03  0.12509000000E+03 0.  0.
         25    1    4    4    0    0 -0.10038863849E+02  0.15355458861E+02  0.16879710822E+02  0.12754999664E+03  0.12509000000E+03 0.  0.
<mgrwt>
<rscale>  2 0.45231496E+03</rscale>
<asrwt>0</asrwt>
<pdfrwt beam="1">  1       21 0.32837423E-01 0.45231496E+03</pdfrwt>
<pdfrwt beam="2">  1       21 0.33684882E-01 0.45231496E+03</pdfrwt>
<totfact> 0.70232881E+04</totfact>
</mgrwt>
</event>
<event>
 7    0  0.4766352E-002  0.4891619E+03  0.7546771E-02  0.1016647E+00
         21   -1    0    0  502  501  0.00000000000E+00  0.00000000000E+00  0.64905533604E+03  0.64905533604E+03  0.00000000000E+00 0. -1.
         21   -1    0    0  501  502 -0.00000000000E+00 -0.00000000000E+00 -0.92164472615E+02  0.92164472615E+02  0.00000000000E+00 0. -1.
      99926    2    1    2    0    0  0.00000000000E+00  0.14210854715E-13  0.55689086342E+03  0.74121980865E+03  0.48916190671E+03 0.  0.
      99925    2    3    3    0    0 -0.43999959690E+02 -0.11093001039E+03  0.45995705854E+03  0.54301502998E+03  0.26279909329E+03 0.  0.
         25    1    4    4    0    0 -0.18463297064E+02 -0.20772547994E+02  0.25375141922E+03  0.28427043981E+03  0.12509000000E+03 0.  0.
         25    1    4    4    0    0 -0.25536662626E+02 -0.90157462392E+02  0.20620563931E+03  0.25874459018E+03  0.12509000000E+03 0.  0.
         25    1    3    3    0    0  0.43999959690E+02  0.11093001039E+03  0.96933804887E+02  0.19820477867E+03  0.12509000000E+03 0.  0.
<mgrwt>
<rscale>  2 0.48916191E+03</rscale>
<asrwt>0</asrwt>
<pdfrwt beam="1">  1       21 0.95449312E-01 0.48916191E+03</pdfrwt>
<pdfrwt beam="2">  1       21 0.13553599E-01 0.48916191E+03</pdfrwt>
<totfact> 0.39107313E+04</totfact>
</mgrwt>
</event>
<event>
 7    0  0.4766352E-002  0.5001789E+03  0.7546771E-02  0.1013732E+00
         21   -1    0    0  502  501  0.00000000000E+00  0.00000000000E+00  0.23847154224E+03  0.23847154224E+03  0.00000000000E+00 0. -1.
         21   -1    0    0  501  502 -0.00000000000E+00 -0.00000000000E+00 -0.26227333670E+03  0.26227333670E+03  0.00000000000E+00 0. -1.
      99926    2    1    2    0    0  0.17763568394E-14  0.00000000000E+00 -0.23801794452E+02  0.50074487894E+03  0.50017887637E+03 0.  0.
      99925    2    3    3    0    0 -0.43426295644E+01 -0.12151317119E+03  0.76404159834E+02  0.29956572848E+03  0.26290249302E+03 0.  0.
         25    1    3    3    0    0  0.43426295644E+01  0.12151317119E+03 -0.10020595429E+03  0.20117915046E+03  0.12509000000E+03 0.  0.
         25    1    4    4    0    0  0.15435346709E+02 -0.10063460614E+03  0.44266200648E+02  0.16725004784E+03  0.12509000000E+03 0.  0.
         25    1    4    4    0    0 -0.19777976273E+02 -0.20878565050E+02  0.32137959187E+02  0.13231568065E+03  0.12509000000E+03 0.  0.
<mgrwt>
<rscale>  2 0.50017888E+03</rscale>
<asrwt>0</asrwt>
<pdfrwt beam="1">  1       21 0.35069344E-01 0.50017888E+03</pdfrwt>
<pdfrwt beam="2">  1       21 0.38569608E-01 0.50017888E+03</pdfrwt>
<totfact> 0.46256114E+04</totfact>
</mgrwt>
</event>
<event>
 7    0  0.4766352E-002  0.4541257E+03  0.7546771E-02  0.1026499E+00
         21   -1    0    0  502  501  0.00000000000E+00  0.00000000000E+00  0.38022418378E+03  0.38022418378E+03  0.00000000000E+00 0.  1.
         21   -1    0    0  501  502 -0.00000000000E+00 -0.00000000000E+00 -0.13559773630E+03  0.13559773630E+03  0.00000000000E+00 0.  1.
      99926    2    1    2    0    0  0.00000000000E+00  0.00000000000E+00  0.24462644747E+03  0.51582192008E+03  0.45412570334E+03 0.  0.
      99925    2    3    3    0    0  0.31877319313E+02  0.25883065328E+02  0.27290974542E+03  0.38116105123E+03  0.26290287422E+03 0.  0.
         25    1    4    4    0    0  0.43591036862E+01  0.45715898888E+02  0.10870274759E+03  0.17196726616E+03  0.12509000000E+03 0.  0.
         25    1    4    4    0    0  0.27518215627E+02 -0.19832833561E+02  0.16420699783E+03  0.20919378507E+03  0.12509000000E+03 0.  0.
         25    1    3    3    0    0 -0.31877319313E+02 -0.25883065328E+02 -0.28283297942E+02  0.13466086885E+03  0.12509000000E+03 0.  0.
<mgrwt>
<rscale>  2 0.45412570E+03</rscale>
<asrwt>0</asrwt>
<pdfrwt beam="1">  1       21 0.55915321E-01 0.45412570E+03</pdfrwt>
<pdfrwt beam="2">  1       21 0.19940844E-01 0.45412570E+03</pdfrwt>
<totfact> 0.64619948E+04</totfact>
</mgrwt>
</event>
<event>
 7    0  0.4766352E-002  0.4556617E+03  0.7546771E-02  0.1026047E+00
         21   -1    0    0  502  501  0.00000000000E+00  0.00000000000E+00  0.10822236417E+03  0.10822236417E+03  0.00000000000E+00 0.  1.
         21   -1    0    0  501  502 -0.00000000000E+00 -0.00000000000E+00 -0.47963193684E+03  0.47963193684E+03  0.00000000000E+00 0.  1.
      99926    2    1    2    0    0  0.88817841970E-15  0.35527136788E-14 -0.37140957266E+03  0.58785430101E+03  0.45566172601E+03 0.  0.
      99925    2    3    3    0    0 -0.43527456760E+01 -0.16103643399E+02 -0.37881383849E+03  0.46143988341E+03  0.26296115310E+03 0.  0.
         25    1    3    3    0    0  0.43527456760E+01  0.16103643399E+02  0.74042658305E+01  0.12641441760E+03  0.12509000000E+03 0.  0.
         25    1    4    4    0    0 -0.22960531099E+02 -0.41056347567E+02 -0.21229593388E+03  0.25085828929E+03  0.12509000000E+03 0.  0.
         25    1    4    4    0    0  0.18607785423E+02  0.24952704169E+02 -0.16651790461E+03  0.21058159412E+03  0.12509000000E+03 0.  0.
<mgrwt>
<rscale>  2 0.45566173E+03</rscale>
<asrwt>0</asrwt>
<pdfrwt beam="1">  1       21 0.15915054E-01 0.45566173E+03</pdfrwt>
<pdfrwt beam="2">  1       21 0.70534109E-01 0.45566173E+03</pdfrwt>
<totfact> 0.59122328E+04</totfact>
</mgrwt>
</event>
<event>
 7    0  0.4766352E-002  0.4550000E+03  0.7546771E-02  0.1026241E+00
         21   -1    0    0  502  501  0.00000000000E+00  0.00000000000E+00  0.45419900610E+02  0.45419900610E+02  0.00000000000E+00 0. -1.
         21   -1    0    0  501  502 -0.00000000000E+00 -0.00000000000E+00 -0.11395058695E+04  0.11395058695E+04  0.00000000000E+00 0. -1.
      99926    2    1    2    0    0  0.00000000000E+00 -0.71054273576E-14 -0.10940859689E+04  0.11849257701E+04  0.45499997071E+03 0.  0.
      99925    2    3    3    0    0  0.90631019524E+02 -0.38347868799E+02 -0.54401423434E+03  0.61229066641E+03  0.26318022772E+03 0.  0.
         25    1    4    4    0    0  0.25012645853E+01 -0.13940479930E+02 -0.23439846836E+03  0.26606529908E+03  0.12509000000E+03 0.  0.
         25    1    4    4    0    0  0.88129754939E+02 -0.24407388869E+02 -0.30961576598E+03  0.34622536733E+03  0.12509000000E+03 0.  0.
         25    1    3    3    0    0 -0.90631019524E+02  0.38347868799E+02 -0.55007173455E+03  0.57263510371E+03  0.12509000000E+03 0.  0.
<mgrwt>
<rscale>  2 0.45499997E+03</rscale>
<asrwt>0</asrwt>
<pdfrwt beam="1">  1       21 0.66793973E-02 0.45499997E+03</pdfrwt>
<pdfrwt beam="2">  1       21 0.16757439E+00 0.45499997E+03</pdfrwt>
<totfact> 0.32637411E+04</totfact>
</mgrwt>
</event>
<event>
 7    0  0.4766352E-002  0.4622257E+03  0.7546771E-02  0.1024138E+00
         21   -1    0    0  502  501  0.00000000000E+00  0.00000000000E+00  0.21218509702E+03  0.21218509702E+03  0.00000000000E+00 0. -1.
         21   -1    0    0  501  502 -0.00000000000E+00 -0.00000000000E+00 -0.25172902882E+03  0.25172902882E+03  0.00000000000E+00 0. -1.
      99926    2    1    2    0    0 -0.14210854715E-13  0.00000000000E+00 -0.39543931795E+02  0.46391412584E+03  0.46222569554E+03 0.  0.
      99925    2    3    3    0    0 -0.88833412731E+02 -0.73825043745E+02  0.74397560549E+01  0.28728885210E+03  0.26294110038E+03 0.  0.
         25    1    4    4    0    0 -0.76477069456E+01 -0.52825346517E+02 -0.56837447169E+01  0.13612059987E+03  0.12509000000E+03 0.  0.
         25    1    3    3    0    0  0.88833412731E+02  0.73825043745E+02 -0.46983687850E+02  0.17662527374E+03  0.12509000000E+03 0.  0.
         25    1    4    4    0    0 -0.81185705785E+02 -0.20999697228E+02  0.13123500772E+02  0.15116825222E+03  0.12509000000E+03 0.  0.
<mgrwt>
<rscale>  2 0.46222570E+03</rscale>
<asrwt>0</asrwt>
<pdfrwt beam="1">  1       21 0.31203691E-01 0.46222570E+03</pdfrwt>
<pdfrwt beam="2">  1       21 0.37018975E-01 0.46222570E+03</pdfrwt>
<totfact> 0.64120504E+04</totfact>
</mgrwt>
</event>
<event>
 7    0  0.4766352E-002  0.4540824E+03  0.7546771E-02  0.1026512E+00
         21   -1    0    0  502  501  0.00000000000E+00  0.00000000000E+00  0.16468340011E+03  0.16468340011E+03  0.00000000000E+00 0.  1.
         21   -1    0    0  501  502 -0.00000000000E+00 -0.00000000000E+00 -0.31301099754E+03  0.31301099754E+03  0.00000000000E+00 0.  1.
      99926    2    1    2    0    0 -0.71054273576E-14 -0.53290705182E-14 -0.14832759743E+03  0.47769439764E+03  0.45408243897E+03 0.  0.
      99925    2    3    3    0    0 -0.47827511505E+02 -0.12746558763E+02 -0.19950593984E+03  0.33376150894E+03  0.26295280794E+03 0.  0.
         25    1    4    4    0    0 -0.46401581651E+02 -0.40124934552E+02 -0.11022671616E+03  0.17765290374E+03  0.12509000000E+03 0.  0.
         25    1    3    3    0    0  0.47827511505E+02  0.12746558763E+02  0.51178342414E+02  0.14393288870E+03  0.12509000000E+03 0.  0.
         25    1    4    4    0    0 -0.14259298541E+01  0.27378375789E+02 -0.89279223685E+02  0.15610860520E+03  0.12509000000E+03 0.  0.
<mgrwt>
<rscale>  2 0.45408244E+03</rscale>
<asrwt>0</asrwt>
<pdfrwt beam="1">  1       21 0.24218147E-01 0.45408244E+03</pdfrwt>
<pdfrwt beam="2">  1       21 0.46031029E-01 0.45408244E+03</pdfrwt>
<totfact> 0.67357517E+04</totfact>
</mgrwt>
</event>
<event>
 6    0  0.4766352E-002  0.4540943E+03  0.7546771E-02  0.1026508E+00
         21   -1    0    0  502  501  0.00000000000E+00  0.00000000000E+00  0.12587687733E+04  0.12587687733E+04  0.00000000000E+00 0.  1.
         21   -1    0    0  501  502 -0.00000000000E+00 -0.00000000000E+00 -0.40953047658E+02  0.40953047658E+02  0.00000000000E+00 0.  1.
      99926    2    1    2    0    0 -0.71054273576E-14  0.00000000000E+00  0.12178157256E+04  0.12997218209E+04  0.45409434069E+03 0.  0.
         25    1    3    3    0    0 -0.66925017166E+02  0.53908127959E+02  0.46417228265E+03  0.48835280307E+03  0.12509000000E+03 0.  0.
         25    1    3    3    0    0  0.51060925990E+01 -0.23539399015E+02  0.53695808478E+03  0.55186200123E+03  0.12509000000E+03 0.  0.
         25    1    3    3    0    0  0.61818924567E+02 -0.30368728944E+02  0.21668535818E+03  0.25950701664E+03  0.12509000000E+03 0.  0.
<mgrwt>
<rscale>  2 0.45409434E+03</rscale>
<asrwt>0</asrwt>
<pdfrwt beam="1">  1       21 0.18511303E+00 0.45409434E+03</pdfrwt>
<pdfrwt beam="2">  1       21 0.60225078E-02 0.45409434E+03</pdfrwt>
<totfact> 0.29328803E+04</totfact>
</mgrwt>
</event>
<event>
 7    0  0.4766352E-002  0.4561689E+03  0.7546771E-02  0.1025898E+00
         21   -1    0    0  502  501  0.00000000000E+00  0.00000000000E+00  0.47810886056E+03  0.47810886056E+03  0.00000000000E+00 0. -1.
         21   -1    0    0  501  502 -0.00000000000E+00 -0.00000000000E+00 -0.10880895907E+03  0.10880895907E+03  0.00000000000E+00 0. -1.
      99926    2    1    2    0    0 -0.14210854715E-13 -0.17763568394E-14  0.36929990149E+03  0.58691781963E+03  0.45616894871E+03 0.  0.
      99925    2    3    3    0    0 -0.77602727946E+02 -0.13074502786E+02  0.33884872468E+03  0.43602743466E+03  0.26288465066E+03 0.  0.
         25    1    4    4    0    0 -0.37663997964E+02 -0.39295162706E+02  0.20844636791E+03  0.24911861221E+03  0.12509000000E+03 0.  0.
         25    1    3    3    0    0  0.77602727946E+02  0.13074502786E+02  0.30451176809E+02  0.15089038497E+03  0.12509000000E+03 0.  0.
         25    1    4    4    0    0 -0.39938729983E+02  0.26220659920E+02  0.13040235677E+03  0.18690882245E+03  0.12509000000E+03 0.  0.
<mgrwt>
<rscale>  2 0.45616895E+03</rscale>
<asrwt>0</asrwt>
<pdfrwt beam="1">  1       21 0.70310126E-01 0.45616895E+03</pdfrwt>
<pdfrwt beam="2">  1       21 0.16001318E-01 0.45616895E+03</pdfrwt>
<totfact> 0.58944305E+04</totfact>
</mgrwt>
</event>
<event>
 7    0  0.4766352E-002  0.4633223E+03  0.7546771E-02  0.1023822E+00
         21   -1    0    0  502  501  0.00000000000E+00  0.00000000000E+00  0.85323428534E+03  0.85323428534E+03  0.00000000000E+00 0. -1.
         21   -1    0    0  501  502 -0.00000000000E+00 -0.00000000000E+00 -0.62898188741E+02  0.62898188741E+02  0.00000000000E+00 0. -1.
      99926    2    1    2    0    0  0.00000000000E+00  0.00000000000E+00  0.79033609660E+03  0.91613247408E+03  0.46332231166E+03 0.  0.
      99925    2    3    3    0    0  0.82776812328E+02  0.85523061280E+02  0.53366659825E+03  0.60678972865E+03  0.26311127310E+03 0.  0.
         25    1    4    4    0    0  0.28247827980E+02  0.37939988076E+02  0.17611357030E+03  0.22113543413E+03  0.12509000000E+03 0.  0.
         25    1    4    4    0    0  0.54528984348E+02  0.47583073205E+02  0.35755302795E+03  0.38565429452E+03  0.12509000000E+03 0.  0.
         25    1    3    3    0    0 -0.82776812328E+02 -0.85523061280E+02  0.25666949835E+03  0.30934274543E+03  0.12509000000E+03 0.  0.
<mgrwt>
<rscale>  2 0.46332231E+03</rscale>
<asrwt>0</asrwt>
<pdfrwt beam="1">  1       21 0.12547562E+00 0.46332231E+03</pdfrwt>
<pdfrwt beam="2">  1       21 0.92497341E-02 0.46332231E+03</pdfrwt>
<totfact> 0.39881352E+04</totfact>
</mgrwt>
</event>
<event>
 7    0  0.4766352E-002  0.4526873E+03  0.7546771E-02  0.1026924E+00
         21   -1    0    0  502  501  0.00000000000E+00  0.00000000000E+00  0.21473890753E+03  0.21473890753E+03  0.00000000000E+00 0. -1.
         21   -1    0    0  501  502 -0.00000000000E+00 -0.00000000000E+00 -0.23857556199E+03  0.23857556199E+03  0.00000000000E+00 0. -1.
      99926    2    1    2    0    0 -0.14210854715E-13  0.00000000000E+00 -0.23836654460E+02  0.45331446953E+03  0.45268733380E+03 0.  0.
      99925    2    3    3    0    0 -0.90569241633E+02 -0.32424667820E+02 -0.70439850364E+02  0.28877416267E+03  0.26301064216E+03 0.  0.
         25    1    3    3    0    0  0.90569241633E+02  0.32424667820E+02  0.46603195904E+02  0.16454030686E+03  0.12509000000E+03 0.  0.
         25    1    4    4    0    0 -0.83960376963E+02 -0.42190366976E-01 -0.39342462698E+02  0.15570704593E+03  0.12509000000E+03 0.  0.
         25    1    4    4    0    0 -0.66088646696E+01 -0.32382477453E+02 -0.31097387666E+02  0.13306711674E+03  0.12509000000E+03 0.  0.
<mgrwt>
<rscale>  2 0.45268733E+03</rscale>
<asrwt>0</asrwt>
<pdfrwt beam="1">  1       21 0.31579251E-01 0.45268733E+03</pdfrwt>
<pdfrwt beam="2">  1       21 0.35084641E-01 0.45268733E+03</pdfrwt>
<totfact> 0.69951367E+04</totfact>
</mgrwt>
</event>
<event>
 7    0  0.4766352E-002  0.4531570E+03  0.7546771E-02  0.1026785E+00
         21   -1    0    0  502  501  0.00000000000E+00  0.00000000000E+00  0.15098483003E+04  0.15098483003E+04  0.00000000000E+00 0. -1.
         21   -1    0    0  501  502 -0.00000000000E+00 -0.00000000000E+00 -0.34001972775E+02  0.34001972775E+02  0.00000000000E+00 0. -1.
      99926    2    1    2    0    0  0.00000000000E+00  0.00000000000E+00  0.14758463275E+04  0.15438502730E+04  0.45315701826E+03 0.  0.
      99925    2    3    3    0    0 -0.15959632794E+02 -0.97721678564E+02  0.75678094524E+03  0.80729968524E+03  0.26308011397E+03 0.  0.
         25    1    4    4    0    0 -0.41488403012E+00 -0.38213918316E+02  0.25597340290E+03  0.28745498217E+03  0.12509000000E+03 0.  0.
         25    1    4    4    0    0 -0.15544748764E+02 -0.59507760247E+02  0.50080754235E+03  0.51984470307E+03  0.12509000000E+03 0.  0.
         25    1    3    3    0    0  0.15959632794E+02  0.97721678564E+02  0.71906538224E+03  0.73655058779E+03  0.12509000000E+03 0.  0.
<mgrwt>
<rscale>  2 0.45315702E+03</rscale>
<asrwt>0</asrwt>
<pdfrwt beam="1">  1       21 0.22203647E+00 0.45315702E+03</pdfrwt>
<pdfrwt beam="2">  1       21 0.50002911E-02 0.45315702E+03</pdfrwt>
<totfact> 0.23052827E+04</totfact>
</mgrwt>
</event>
<event>
 7    0  0.4766352E-002  0.4555308E+03  0.7546771E-02  0.1026085E+00
         21   -1    0    0  502  501  0.00000000000E+00  0.00000000000E+00  0.11180647333E+03  0.11180647333E+03  0.00000000000E+00 0. -1.
         21   -1    0    0  501  502 -0.00000000000E+00 -0.00000000000E+00 -0.46398996639E+03  0.46398996639E+03  0.00000000000E+00 0. -1.
      99926    2    1    2    0    0 -0.14210854715E-13  0.00000000000E+00 -0.35218349306E+03  0.57579643972E+03  0.45553081916E+03 0.  0.
      99925    2    3    3    0    0 -0.78165295999E+02 -0.64262238955E+02 -0.15613467505E+03  0.32217842774E+03  0.26302367516E+03 0.  0.
         25    1    4    4    0    0 -0.49109176856E+02  0.43491633702E+01 -0.92972911641E+02  0.16346894773E+03  0.12509000000E+03 0.  0.
         25    1    4    4    0    0 -0.29056119143E+02 -0.68611402325E+02 -0.63161763410E+02  0.15870948001E+03  0.12509000000E+03 0.  0.
         25    1    3    3    0    0  0.78165295999E+02  0.64262238955E+02 -0.19604881801E+03  0.25361801197E+03  0.12509000000E+03 0.  0.
<mgrwt>
<rscale>  2 0.45553082E+03</rscale>
<asrwt>0</asrwt>
<pdfrwt beam="1">  1       21 0.16442129E-01 0.45553082E+03</pdfrwt>
<pdfrwt beam="2">  1       21 0.68233816E-01 0.45553082E+03</pdfrwt>
<totfact> 0.59941385E+04</totfact>
</mgrwt>
</event>
<event>
 7    0  0.4766352E-002  0.4554610E+03  0.7546771E-02  0.1026106E+00
         21   -1    0    0  502  501  0.00000000000E+00  0.00000000000E+00  0.25918848968E+03  0.25918848968E+03  0.00000000000E+00 0. -1.
         21   -1    0    0  501  502 -0.00000000000E+00 -0.00000000000E+00 -0.20009063963E+03  0.20009063963E+03  0.00000000000E+00 0. -1.
      99926    2    1    2    0    0 -0.17763568394E-14  0.00000000000E+00  0.59097850045E+02  0.45927912931E+03  0.45546104415E+03 0.  0.
      99925    2    3    3    0    0 -0.68672560827E+01 -0.96650782601E+02 -0.22643374736E+02  0.28118457883E+03  0.26298956627E+03 0.  0.
         25    1    4    4    0    0  0.26708404035E+02 -0.23731938637E+02 -0.25287130275E+02  0.13252732101E+03  0.12509000000E+03 0.  0.
         25    1    3    3    0    0  0.68672560827E+01  0.96650782601E+02  0.81741224781E+02  0.17809455048E+03  0.12509000000E+03 0.  0.
         25    1    4    4    0    0 -0.33575660118E+02 -0.72918843964E+02  0.26437555392E+01  0.14865725781E+03  0.12509000000E+03 0.  0.
<mgrwt>
<rscale>  2 0.45546104E+03</rscale>
<asrwt>0</asrwt>
<pdfrwt beam="1">  1       21 0.38115954E-01 0.45546104E+03</pdfrwt>
<pdfrwt beam="2">  1       21 0.29425094E-01 0.45546104E+03</pdfrwt>
<totfact> 0.67982820E+04</totfact>
</mgrwt>
</event>
<event>
 7    0  0.4766352E-002  0.4568270E+03  0.7546771E-02  0.1025706E+00
         21   -1    0    0  502  501  0.00000000000E+00  0.00000000000E+00  0.37349540123E+03  0.37349540123E+03  0.00000000000E+00 0.  1.
         21   -1    0    0  501  502 -0.00000000000E+00 -0.00000000000E+00 -0.13968773232E+03  0.13968773232E+03  0.00000000000E+00 0.  1.
      99926    2    1    2    0    0  0.00000000000E+00  0.00000000000E+00  0.23380766891E+03  0.51318313355E+03  0.45682699408E+03 0.  0.
      99925    2    3    3    0    0 -0.56697588599E+02  0.67702440210E+02  0.64262375834E+02  0.28472886796E+03  0.26294987800E+03 0.  0.
         25    1    4    4    0    0 -0.60040083951E+02  0.59229527437E+02  0.22481096972E+02  0.15253149321E+03  0.12509000000E+03 0.  0.
         25    1    4    4    0    0  0.33424953517E+01  0.84729127725E+01  0.41781278862E+02  0.13219737474E+03  0.12509000000E+03 0.  0.
         25    1    3    3    0    0  0.56697588599E+02 -0.67702440210E+02  0.16954529308E+03  0.22845426559E+03  0.12509000000E+03 0.  0.
<mgrwt>
<rscale>  2 0.45682699E+03</rscale>
<asrwt>0</asrwt>
<pdfrwt beam="1">  1       21 0.54925794E-01 0.45682699E+03</pdfrwt>
<pdfrwt beam="2">  1       21 0.20542314E-01 0.45682699E+03</pdfrwt>
<totfact> 0.63429437E+04</totfact>
</mgrwt>
</event>
<event>
 7    0  0.4766352E-002  0.4522587E+03  0.7546771E-02  0.1027051E+00
         21   -1    0    0  502  501  0.00000000000E+00  0.00000000000E+00  0.16207140520E+03  0.16207140520E+03  0.00000000000E+00 0.  1.
         21   -1    0    0  501  502 -0.00000000000E+00 -0.00000000000E+00 -0.31550585938E+03  0.31550585938E+03  0.00000000000E+00 0.  1.
      99926    2    1    2    0    0 -0.71054273576E-14  0.14210854715E-13 -0.15343445418E+03  0.47757726458E+03  0.45225867810E+03 0.  0.
      99925    2    3    3    0    0  0.30535649780E+02 -0.84329622008E+02 -0.16611767464E+03  0.32313542039E+03  0.26225466065E+03 0.  0.
         25    1    3    3    0    0 -0.30535649780E+02  0.84329622008E+02  0.12683220458E+02  0.15444184419E+03  0.12509000000E+03 0.  0.
         25    1    4    4    0    0  0.35409049140E+02 -0.75873601363E+01 -0.82524903174E+02  0.15417274901E+03  0.12509000000E+03 0.  0.
         25    1    4    4    0    0 -0.48733993602E+01 -0.76742261872E+02 -0.83592771467E+02  0.16896267138E+03  0.12509000000E+03 0.  0.
<mgrwt>
<rscale>  2 0.45225868E+03</rscale>
<asrwt>0</asrwt>
<pdfrwt beam="1">  1       21 0.23834031E-01 0.45225868E+03</pdfrwt>
<pdfrwt beam="2">  1       21 0.46397920E-01 0.45225868E+03</pdfrwt>
<totfact> 0.68352052E+04</totfact>
</mgrwt>
</event>
<event>
 7    0  0.4766352E-002  0.4530428E+03  0.7546771E-02  0.1026819E+00
         21   -1    0    0  502  501  0.00000000000E+00  0.00000000000E+00  0.24331284150E+02  0.24331284150E+02  0.00000000000E+00 0.  1.
         21   -1    0    0  501  502 -0.00000000000E+00 -0.00000000000E+00 -0.21088875012E+04  0.21088875012E+04  0.00000000000E+00 0.  1.
      99926    2    1    2    0    0  0.35527136788E-14  0.00000000000E+00 -0.20845562171E+04  0.21332187854E+04  0.45304278399E+03 0.  0.
      99925    2    3    3    0    0 -0.28181998891E+02 -0.94763858422E+02 -0.10723167616E+04  0.11084990007E+04  0.26293037723E+03 0.  0.
         25    1    4    4    0    0 -0.13984366149E+02 -0.75812771497E+01 -0.54497542285E+03  0.55937354056E+03  0.12509000000E+03 0.  0.
         25    1    4    4    0    0 -0.14197632742E+02 -0.87182581272E+02 -0.52734133878E+03  0.54912546011E+03  0.12509000000E+03 0.  0.
         25    1    3    3    0    0  0.28181998891E+02  0.94763858422E+02 -0.10122394554E+04  0.10247197847E+04  0.12509000000E+03 0.  0.
<mgrwt>
<rscale>  2 0.45304278E+03</rscale>
<asrwt>0</asrwt>
<pdfrwt beam="1">  1       21 0.35781284E-02 0.45304278E+03</pdfrwt>
<pdfrwt beam="2">  1       21 0.31013066E+00 0.45304278E+03</pdfrwt>
<totfact> 0.11832982E+04</totfact>
</mgrwt>
</event>
<event>
 7    0  0.4766352E-002  0.4539411E+03  0.7546771E-02  0.1026553E+00
         21   -1    0    0  502  501  0.00000000000E+00  0.00000000000E+00  0.28489286579E+03  0.28489286579E+03  0.00000000000E+00 0. -1.
         21   -1    0    0  501  502 -0.00000000000E+00 -0.00000000000E+00 -0.18082454466E+03  0.18082454466E+03  0.00000000000E+00 0. -1.
      99926    2    1    2    0    0 -0.71054273576E-14  0.26645352591E-14  0.10406832113E+03  0.46571741045E+03  0.45394106548E+03 0.  0.
      99925    2    3    3    0    0 -0.63562647900E+02 -0.36105293088E+01  0.16045731294E+03  0.31445448496E+03  0.26283422096E+03 0.  0.
         25    1    3    3    0    0  0.63562647900E+02  0.36105293088E+01 -0.56388991809E+02  0.15126292549E+03  0.12509000000E+03 0.  0.
         25    1    4    4    0    0 -0.60370946370E+02  0.27136223986E+02  0.80680569373E+02  0.16290453705E+03  0.12509000000E+03 0.  0.
         25    1    4    4    0    0 -0.31917015298E+01 -0.30746753294E+02  0.79776743570E+02  0.15154994791E+03  0.12509000000E+03 0.  0.
<mgrwt>
<rscale>  2 0.45394107E+03</rscale>
<asrwt>0</asrwt>
<pdfrwt beam="1">  1       21 0.41896009E-01 0.45394107E+03</pdfrwt>
<pdfrwt beam="2">  1       21 0.26591845E-01 0.45394107E+03</pdfrwt>
<totfact> 0.68327994E+04</totfact>
</mgrwt>
</event>
<event>
 7    0  0.4766352E-002  0.4622181E+03  0.7546771E-02  0.1024140E+00
         21   -1    0    0  502  501  0.00000000000E+00  0.00000000000E+00  0.18080528027E+03  0.18080528027E+03  0.00000000000E+00 0.  1.
         21   -1    0    0  501  502 -0.00000000000E+00 -0.00000000000E+00 -0.29540835772E+03  0.29540835772E+03  0.00000000000E+00 0.  1.
      99926    2    1    2    0    0  0.00000000000E+00  0.00000000000E+00 -0.11460307745E+03  0.47621363799E+03  0.46221809100E+03 0.  0.
      99925    2    3    3    0    0 -0.95618028488E+02  0.28142254016E+02 -0.19388117808E+01  0.28057228579E+03  0.26226371218E+03 0.  0.
         25    1    4    4    0    0 -0.54518312226E+02  0.52493906296E+02  0.70156537514E+01  0.14637139086E+03  0.12509000000E+03 0.  0.
         25    1    3    3    0    0  0.95618028488E+02 -0.28142254016E+02 -0.11266426567E+03  0.19564135220E+03  0.12509000000E+03 0.  0.
         25    1    4    4    0    0 -0.41099716262E+02 -0.24351652280E+02 -0.89544655322E+01  0.13420089492E+03  0.12509000000E+03 0.  0.
<mgrwt>
<rscale>  2 0.46221809E+03</rscale>
<asrwt>0</asrwt>
<pdfrwt beam="1">  1       21 0.26589012E-01 0.46221809E+03</pdfrwt>
<pdfrwt beam="2">  1       21 0.43442405E-01 0.46221809E+03</pdfrwt>
<totfact> 0.63274666E+04</totfact>
</mgrwt>
</event>
<event>
 7    0  0.4766352E-002  0.4542458E+03  0.7546771E-02  0.1026463E+00
         21   -1    0    0  502  501  0.00000000000E+00  0.00000000000E+00  0.79580910034E+03  0.79580910034E+03  0.00000000000E+00 0. -1.
         21   -1    0    0  501  502 -0.00000000000E+00 -0.00000000000E+00 -0.64820593297E+02  0.64820593297E+02  0.00000000000E+00 0. -1.
      99926    2    1    2    0    0  0.00000000000E+00  0.00000000000E+00  0.73098850705E+03  0.86062969364E+03  0.45424582787E+03 0.  0.
      99925    2    3    3    0    0 -0.10367881029E+03 -0.18755046278E+02  0.38554990902E+03  0.47843029468E+03  0.26295582719E+03 0.  0.
         25    1    3    3    0    0  0.10367881029E+03  0.18755046278E+02  0.34543859803E+03  0.38219939897E+03  0.12509000000E+03 0.  0.
         25    1    4    4    0    0 -0.43035203630E+02 -0.43359428337E+02  0.22554866975E+03  0.26505052217E+03  0.12509000000E+03 0.  0.
         25    1    4    4    0    0 -0.60643606660E+02  0.24604382059E+02  0.16000123927E+03  0.21337977250E+03  0.12509000000E+03 0.  0.
<mgrwt>
<rscale>  2 0.45424583E+03</rscale>
<asrwt>0</asrwt>
<pdfrwt beam="1">  1       21 0.11703074E+00 0.45424583E+03</pdfrwt>
<pdfrwt beam="2">  1       21 0.95324406E-02 0.45424583E+03</pdfrwt>
<totfact> 0.45234504E+04</totfact>
</mgrwt>
</event>
<event>
 7    0  0.4766352E-002  0.4576787E+03  0.7546771E-02  0.1025457E+00
         21   -1    0    0  502  501  0.00000000000E+00  0.00000000000E+00  0.80572958195E+02  0.80572958195E+02  0.00000000000E+00 0.  1.
         21   -1    0    0  501  502 -0.00000000000E+00 -0.00000000000E+00 -0.64993823211E+03  0.64993823211E+03  0.00000000000E+00 0.  1.
      99926    2    1    2    0    0  0.00000000000E+00  0.71054273576E-14 -0.56936527391E+03  0.73051119030E+03  0.45767869081E+03 0.  0.
      99925    2    3    3    0    0  0.66652407886E+02 -0.48179056051E+02 -0.22793305775E+03  0.35770127728E+03  0.26312156892E+03 0.  0.
         25    1    4    4    0    0  0.24765573649E+02 -0.62296635997E+02 -0.10194320549E+03  0.17474017781E+03  0.12509000000E+03 0.  0.
         25    1    3    3    0    0 -0.66652407886E+02  0.48179056051E+02 -0.34143221616E+03  0.37280991302E+03  0.12509000000E+03 0.  0.
         25    1    4    4    0    0  0.41886834237E+02  0.14117579945E+02 -0.12598985227E+03  0.18296109947E+03  0.12509000000E+03 0.  0.
<mgrwt>
<rscale>  2 0.45767869E+03</rscale>
<asrwt>0</asrwt>
<pdfrwt beam="1">  1       21 0.11848965E-01 0.45767869E+03</pdfrwt>
<pdfrwt beam="2">  1       21 0.95579150E-01 0.45767869E+03</pdfrwt>
<totfact> 0.50211511E+04</totfact>
</mgrwt>
</event>
<event>
 7    0  0.4766352E-002  0.4430555E+03  0.7546771E-02  0.1029813E+00
         21   -1    0    0  502  501  0.00000000000E+00  0.00000000000E+00  0.11972917658E+03  0.11972917658E+03  0.00000000000E+00 0.  1.
         21   -1    0    0  501  502 -0.00000000000E+00 -0.00000000000E+00 -0.40987964983E+03  0.40987964983E+03  0.00000000000E+00 0.  1.
      99926    2    1    2    0    0 -0.14210854715E-13 -0.71054273576E-14 -0.29015047325E+03  0.52960882641E+03  0.44305554040E+03 0.  0.
      99925    2    3    3    0    0  0.68756005570E+02  0.58475188860E+02 -0.12949616161E+03  0.30688915516E+03  0.26318237340E+03 0.  0.
         25    1    4    4    0    0  0.70464260775E+02  0.49161103807E+02 -0.57735755858E+02  0.16236672005E+03  0.12509000000E+03 0.  0.
         25    1    3    3    0    0 -0.68756005570E+02 -0.58475188860E+02 -0.16065431164E+03  0.22271967125E+03  0.12509000000E+03 0.  0.
         25    1    4    4    0    0 -0.17082552049E+01  0.93140850535E+01 -0.71760405754E+02  0.14452243511E+03  0.12509000000E+03 0.  0.
<mgrwt>
<rscale>  2 0.44305554E+03</rscale>
<asrwt>0</asrwt>
<pdfrwt beam="1">  1       21 0.17607232E-01 0.44305554E+03</pdfrwt>
<pdfrwt beam="2">  1       21 0.60276418E-01 0.44305554E+03</pdfrwt>
<totfact> 0.69583940E+04</totfact>
</mgrwt>
</event>
<event>
 7    0  0.4766352E-002  0.4572776E+03  0.7546771E-02  0.1025574E+00
         21   -1    0    0  502  501  0.00000000000E+00  0.00000000000E+00  0.17078018287E+03  0.17078018287E+03  0.00000000000E+00 0.  1.
         21   -1    0    0  501  502 -0.00000000000E+00 -0.00000000000E+00 -0.30609934852E+03  0.30609934852E+03  0.00000000000E+00 0.  1.
      99926    2    1    2    0    0  0.00000000000E+00  0.00000000000E+00 -0.13531916565E+03  0.47687953138E+03  0.45727760809E+03 0.  0.
      99925    2    3    3    0    0 -0.75190904973E+02 -0.73936034660E+02 -0.13467894647E+03  0.31326985138E+03  0.26244879833E+03 0.  0.
         25    1    3    3    0    0  0.75190904973E+02  0.73936034660E+02 -0.64021918291E+00  0.16360968001E+03  0.12509000000E+03 0.  0.
         25    1    4    4    0    0 -0.20594919642E+02 -0.92021476204E+01 -0.33470072600E+02  0.13144042033E+03  0.12509000000E+03 0.  0.
         25    1    4    4    0    0 -0.54595985331E+02 -0.64733887040E+02 -0.10120887387E+03  0.18182943105E+03  0.12509000000E+03 0.  0.
<mgrwt>
<rscale>  2 0.45727761E+03</rscale>
<asrwt>0</asrwt>
<pdfrwt beam="1">  1       21 0.25114733E-01 0.45727761E+03</pdfrwt>
<pdfrwt beam="2">  1       21 0.45014610E-01 0.45727761E+03</pdfrwt>
<totfact> 0.65731788E+04</totfact>
</mgrwt>
</event>
<event>
 7    0  0.4766352E-002  0.4356793E+03  0.7546771E-02  0.1032081E+00
         21   -1    0    0  502  501  0.00000000000E+00  0.00000000000E+00  0.23337493675E+02  0.23337493675E+02  0.00000000000E+00 0. -1.
         21   -1    0    0  501  502 -0.00000000000E+00 -0.00000000000E+00 -0.20333853384E+04  0.20333853384E+04  0.00000000000E+00 0. -1.
      99926    2    1    2    0    0 -0.71054273576E-14  0.00000000000E+00 -0.20100478448E+04  0.20567228321E+04  0.43567932003E+03 0.  0.
      99925    2    3    3    0    0  0.54044879958E+02 -0.23385468854E+02 -0.16337900334E+04  0.16558672747E+04  0.26298066272E+03 0.  0.
         25    1    3    3    0    0 -0.54044879958E+02  0.23385468854E+02 -0.37625781139E+03  0.40085555745E+03  0.12509000000E+03 0.  0.
         25    1    4    4    0    0  0.37906080901E+02 -0.50662510190E+02 -0.81372955851E+03  0.82571597017E+03  0.12509000000E+03 0.  0.
         25    1    4    4    0    0  0.16138799058E+02  0.27277041336E+02 -0.82006047486E+03  0.83015130449E+03  0.12509000000E+03 0.  0.
<mgrwt>
<rscale>  2 0.43567932E+03</rscale>
<asrwt>0</asrwt>
<pdfrwt beam="1">  1       21 0.34319844E-02 0.43567932E+03</pdfrwt>
<pdfrwt beam="2">  1       21 0.29902725E+00 0.43567932E+03</pdfrwt>
<totfact> 0.14921663E+04</totfact>
</mgrwt>
</event>
<event>
 7    0  0.4766352E-002  0.4556296E+03  0.7546771E-02  0.1026056E+00
         21   -1    0    0  502  501  0.00000000000E+00  0.00000000000E+00  0.25267395728E+04  0.25267395728E+04  0.00000000000E+00 0. -1.
         21   -1    0    0  501  502 -0.00000000000E+00 -0.00000000000E+00 -0.20540141974E+02  0.20540141974E+02  0.00000000000E+00 0. -1.
      99926    2    1    2    0    0  0.00000000000E+00  0.71054273576E-14  0.25061994308E+04  0.25472797148E+04  0.45562962835E+03 0.  0.
      99925    2    3    3    0    0 -0.10458707443E+03 -0.34970965646E+02  0.14199365146E+04  0.14482910634E+04  0.26299405746E+03 0.  0.
         25    1    4    4    0    0 -0.78543170028E+02 -0.46117804027E+02  0.68629715075E+03  0.70352481736E+03  0.12509000000E+03 0.  0.
         25    1    4    4    0    0 -0.26043904403E+02  0.11146838382E+02  0.73363936382E+03  0.74476624601E+03  0.12509000000E+03 0.  0.
         25    1    3    3    0    0  0.10458707443E+03  0.34970965646E+02  0.10862629163E+04  0.10989886514E+04  0.12509000000E+03 0.  0.
<mgrwt>
<rscale>  2 0.45562963E+03</rscale>
<asrwt>0</asrwt>
<pdfrwt beam="1">  1       21 0.37157913E+00 0.45562963E+03</pdfrwt>
<pdfrwt beam="2">  1       21 0.30206109E-02 0.45562963E+03</pdfrwt>
<totfact> 0.66275883E+03</totfact>
</mgrwt>
</event>
<event>
 7    0  0.4766352E-002  0.4607527E+03  0.7546771E-02  0.1024563E+00
         21   -1    0    0  502  501  0.00000000000E+00  0.00000000000E+00  0.22819915277E+04  0.22819915277E+04  0.00000000000E+00 0.  1.
         21   -1    0    0  501  502 -0.00000000000E+00 -0.00000000000E+00 -0.23257435900E+02  0.23257435900E+02  0.00000000000E+00 0.  1.
      99926    2    1    2    0    0  0.00000000000E+00  0.00000000000E+00  0.22587340918E+04  0.23052489636E+04  0.46075273924E+03 0.  0.
      99925    2    3    3    0    0  0.30005984618E+02 -0.53768484841E+02  0.90749818142E+03  0.94683908338E+03  0.26298268282E+03 0.  0.
         25    1    4    4    0    0  0.12944351660E+01  0.52549376037E+01  0.34998424856E+03  0.37170656743E+03  0.12509000000E+03 0.  0.
         25    1    4    4    0    0  0.28711549452E+02 -0.59023422445E+02  0.55751393286E+03  0.57513251595E+03  0.12509000000E+03 0.  0.
         25    1    3    3    0    0 -0.30005984618E+02  0.53768484841E+02  0.13512359104E+04  0.13584098802E+04  0.12509000000E+03 0.  0.
<mgrwt>
<rscale>  2 0.46075274E+03</rscale>
<asrwt>0</asrwt>
<pdfrwt beam="1">  1       21 0.33558684E+00 0.46075274E+03</pdfrwt>
<pdfrwt beam="2">  1       21 0.34202127E-02 0.46075274E+03</pdfrwt>
<totfact> 0.89297616E+03</totfact>
</mgrwt>
</event>
<event>
 7    0  0.4766352E-002  0.4722794E+03  0.7546771E-02  0.1021279E+00
         21   -1    0    0  502  501  0.00000000000E+00  0.00000000000E+00  0.16165022357E+03  0.16165022357E+03  0.00000000000E+00 0. -1.
         21   -1    0    0  501  502 -0.00000000000E+00 -0.00000000000E+00 -0.34495448001E+03  0.34495448001E+03  0.00000000000E+00 0. -1.
      99926    2    1    2    0    0  0.71054273576E-14  0.00000000000E+00 -0.18330425644E+03  0.50660470359E+03  0.47227944616E+03 0.  0.
      99925    2    3    3    0    0  0.49440068895E+02 -0.97904528552E+02 -0.18582975807E+03  0.34022110048E+03  0.26303627336E+03 0.  0.
         25    1    4    4    0    0  0.57491791522E+02 -0.25704558168E+02 -0.83829743831E+02  0.16322060058E+03  0.12509000000E+03 0.  0.
         25    1    4    4    0    0 -0.80517226268E+01 -0.72199970384E+02 -0.10200001424E+03  0.17700049990E+03  0.12509000000E+03 0.  0.
         25    1    3    3    0    0 -0.49440068895E+02  0.97904528552E+02  0.25255016266E+01  0.16638360310E+03  0.12509000000E+03 0.  0.
<mgrwt>
<rscale>  2 0.47227945E+03</rscale>
<asrwt>0</asrwt>
<pdfrwt beam="1">  1       21 0.23772092E-01 0.47227945E+03</pdfrwt>
<pdfrwt beam="2">  1       21 0.50728600E-01 0.47227945E+03</pdfrwt>
<totfact> 0.56632982E+04</totfact>
</mgrwt>
</event>
<event>
 7    0  0.4766352E-002  0.4550447E+03  0.7546771E-02  0.1026228E+00
         21   -1    0    0  502  501  0.00000000000E+00  0.00000000000E+00  0.70210766549E+03  0.70210766549E+03  0.00000000000E+00 0.  1.
         21   -1    0    0  501  502 -0.00000000000E+00 -0.00000000000E+00 -0.73730023765E+02  0.73730023765E+02  0.00000000000E+00 0.  1.
      99926    2    1    2    0    0  0.00000000000E+00  0.14210854715E-13  0.62837764173E+03  0.77583768926E+03  0.45504467852E+03 0.  0.
      99925    2    3    3    0    0 -0.27191533581E+02 -0.10897014705E+03  0.37001810039E+03  0.46759909150E+03  0.26290995285E+03 0.  0.
         25    1    3    3    0    0  0.27191533581E+02  0.10897014705E+03  0.25835954133E+03  0.30823859775E+03  0.12509000000E+03 0.  0.
         25    1    4    4    0    0 -0.37563566420E+02 -0.75198260134E+02  0.24245666384E+03  0.28547949451E+03  0.12509000000E+03 0.  0.
         25    1    4    4    0    0  0.10372032838E+02 -0.33771886919E+02  0.12756143656E+03  0.18211959699E+03  0.12509000000E+03 0.  0.
<mgrwt>
<rscale>  2 0.45504468E+03</rscale>
<asrwt>0</asrwt>
<pdfrwt beam="1">  1       21 0.10325112E+00 0.45504468E+03</pdfrwt>
<pdfrwt beam="2">  1       21 0.10842651E-01 0.45504468E+03</pdfrwt>
<totfact> 0.48938575E+04</totfact>
</mgrwt>
</event>
<event>
 7    0  0.4766352E-002  0.4171409E+03  0.7546771E-02  0.1038001E+00
         21   -1    0    0  502  501  0.00000000000E+00  0.00000000000E+00  0.12713729537E+04  0.12713729537E+04  0.00000000000E+00 0. -1.
         21   -1    0    0  501  502 -0.00000000000E+00 -0.00000000000E+00 -0.34216260572E+02  0.34216260572E+02  0.00000000000E+00 0. -1.
      99926    2    1    2    0    0  0.17763568394E-14 -0.71054273576E-14  0.12371566932E+04  0.13055892143E+04  0.41714087917E+03 0.  0.
      99925    2    3    3    0    0 -0.63551861971E+01 -0.47920589049E+02  0.64073739540E+03  0.69427893458E+03  0.26294877429E+03 0.  0.
         25    1    4    4    0    0  0.24936207697E+02 -0.51427206228E+01  0.36932011971E+03  0.39075967161E+03  0.12509000000E+03 0.  0.
         25    1    3    3    0    0  0.63551861971E+01  0.47920589049E+02  0.59641929777E+03  0.61131027973E+03  0.12509000000E+03 0.  0.
         25    1    4    4    0    0 -0.31291393894E+02 -0.42777868426E+02  0.27141727568E+03  0.30351926298E+03  0.12509000000E+03 0.  0.
<mgrwt>
<rscale>  2 0.41714088E+03</rscale>
<asrwt>0</asrwt>
<pdfrwt beam="1">  1       21 0.18696658E+00 0.41714088E+03</pdfrwt>
<pdfrwt beam="2">  1       21 0.50318039E-02 0.41714088E+03</pdfrwt>
<totfact> 0.39316133E+04</totfact>
</mgrwt>
</event>
<event>
 7    0  0.4766352E-002  0.4464407E+03  0.7546771E-02  0.1028789E+00
         21   -1    0    0  502  501  0.00000000000E+00  0.00000000000E+00  0.76499350051E+03  0.76499350051E+03  0.00000000000E+00 0.  1.
         21   -1    0    0  501  502 -0.00000000000E+00 -0.00000000000E+00 -0.65134311729E+02  0.65134311729E+02  0.00000000000E+00 0.  1.
      99926    2    1    2    0    0  0.00000000000E+00  0.00000000000E+00  0.69985918878E+03  0.83012781224E+03  0.44644070214E+03 0.  0.
      99925    2    3    3    0    0 -0.42403063459E+02  0.90403591771E+02  0.38260637910E+03  0.47478617023E+03  0.26279923310E+03 0.  0.
         25    1    3    3    0    0  0.42403063459E+02 -0.90403591771E+02  0.31725280969E+03  0.35534164201E+03  0.12509000000E+03 0.  0.
         25    1    4    4    0    0  0.12690477457E+02  0.23876270850E+02  0.15377264513E+03  0.20006163804E+03  0.12509000000E+03 0.  0.
         25    1    4    4    0    0 -0.55093540916E+02  0.66527320921E+02  0.22883373397E+03  0.27472453218E+03  0.12509000000E+03 0.  0.
<mgrwt>
<rscale>  2 0.44644070E+03</rscale>
<asrwt>0</asrwt>
<pdfrwt beam="1">  1       21 0.11249904E+00 0.44644070E+03</pdfrwt>
<pdfrwt beam="2">  1       21 0.95785757E-02 0.44644070E+03</pdfrwt>
<totfact> 0.49589116E+04</totfact>
</mgrwt>
</event>
<event>
 6    0  0.4766352E-002  0.4434646E+03  0.7546771E-02  0.1029689E+00
         21   -1    0    0  502  501  0.00000000000E+00  0.00000000000E+00  0.11367326086E+03  0.11367326086E+03  0.00000000000E+00 0. -1.
         21   -1    0    0  501  502 -0.00000000000E+00 -0.00000000000E+00 -0.43251352522E+03  0.43251352522E+03  0.00000000000E+00 0. -1.
      99926    2    1    2    0    0  0.00000000000E+00  0.14210854715E-13 -0.31884026436E+03  0.54618678608E+03  0.44346464471E+03 0.  0.
         25    1    3    3    0    0 -0.64631945458E+02 -0.81139272336E+02 -0.11482872852E+03  0.19898244868E+03  0.12509000000E+03 0.  0.
         25    1    3    3    0    0 -0.20108977617E+00  0.26154297916E+02 -0.11367721710E+03  0.17103831595E+03  0.12509000000E+03 0.  0.
         25    1    3    3    0    0  0.64833035234E+02  0.54984974420E+02 -0.90334318746E+02  0.17616602145E+03  0.12509000000E+03 0.  0.
<mgrwt>
<rscale>  2 0.44346464E+03</rscale>
<asrwt>0</asrwt>
<pdfrwt beam="1">  1       21 0.16716656E-01 0.44346464E+03</pdfrwt>
<pdfrwt beam="2">  1       21 0.63604929E-01 0.44346464E+03</pdfrwt>
<totfact> 0.68127799E+04</totfact>
</mgrwt>
</event>
<event>
 7    0  0.4766352E-002  0.4623384E+03  0.7546771E-02  0.1024105E+00
         21   -1    0    0  502  501  0.00000000000E+00  0.00000000000E+00  0.44450946839E+03  0.44450946839E+03  0.00000000000E+00 0.  1.
         21   -1    0    0  501  502 -0.00000000000E+00 -0.00000000000E+00 -0.12022061656E+03  0.12022061656E+03  0.00000000000E+00 0.  1.
      99926    2    1    2    0    0  0.14210854715E-13  0.00000000000E+00  0.32428885182E+03  0.56473008495E+03  0.46233841440E+03 0.  0.
      99925    2    3    3    0    0 -0.83942428164E+02  0.83763009834E+02  0.22373778512E+03  0.36517909353E+03  0.26312468679E+03 0.  0.
         25    1    3    3    0    0  0.83942428164E+02 -0.83763009834E+02  0.10055106670E+03  0.19955099142E+03  0.12509000000E+03 0.  0.
         25    1    4    4    0    0 -0.17176151781E+02  0.28740197868E+02  0.14323789831E+03  0.19309485435E+03  0.12509000000E+03 0.  0.
         25    1    4    4    0    0 -0.66766276383E+02  0.55022811967E+02  0.80499886812E+02  0.17208423918E+03  0.12509000000E+03 0.  0.
<mgrwt>
<rscale>  2 0.46233841E+03</rscale>
<asrwt>0</asrwt>
<pdfrwt beam="1">  1       21 0.65369039E-01 0.46233841E+03</pdfrwt>
<pdfrwt beam="2">  1       21 0.17679503E-01 0.46233841E+03</pdfrwt>
<totfact> 0.57493220E+04</totfact>
</mgrwt>
</event>
<event>
 7    0  0.4766352E-002  0.4548058E+03  0.7546771E-02  0.1026299E+00
         21   -1    0    0  502  501  0.00000000000E+00  0.00000000000E+00  0.55649089484E+03  0.55649089484E+03  0.00000000000E+00 0.  1.
         21   -1    0    0  501  502 -0.00000000000E+00 -0.00000000000E+00 -0.92925284387E+02  0.92925284387E+02  0.00000000000E+00 0.  1.
      99926    2    1    2    0    0  0.00000000000E+00  0.00000000000E+00  0.46356561045E+03  0.64941617922E+03  0.45480578123E+03 0.  0.
      99925    2    3    3    0    0  0.11162151659E+03 -0.17183435575E+02  0.28564478119E+03  0.40434891701E+03  0.26296477377E+03 0.  0.
         25    1    4    4    0    0  0.39861569396E+02  0.25255432843E+02  0.15938955979E+03  0.20803682721E+03  0.12509000000E+03 0.  0.
         25    1    4    4    0    0  0.71759947192E+02 -0.42438868418E+02  0.12625522139E+03  0.19631208980E+03  0.12509000000E+03 0.  0.
         25    1    3    3    0    0 -0.11162151659E+03  0.17183435575E+02  0.17792082926E+03  0.24506726221E+03  0.12509000000E+03 0.  0.
<mgrwt>
<rscale>  2 0.45480578E+03</rscale>
<asrwt>0</asrwt>
<pdfrwt beam="1">  1       21 0.81836895E-01 0.45480578E+03</pdfrwt>
<pdfrwt beam="2">  1       21 0.13665483E-01 0.45480578E+03</pdfrwt>
<totfact> 0.55820617E+04</totfact>
</mgrwt>
</event>
<event>
 7    0  0.4766352E-002  0.4541530E+03  0.7546771E-02  0.1026491E+00
         21   -1    0    0  502  501  0.00000000000E+00  0.00000000000E+00  0.40862396854E+03  0.40862396854E+03  0.00000000000E+00 0.  1.
         21   -1    0    0  501  502 -0.00000000000E+00 -0.00000000000E+00 -0.12618871893E+03  0.12618871893E+03  0.00000000000E+00 0.  1.
      99926    2    1    2    0    0  0.00000000000E+00  0.00000000000E+00  0.28243524961E+03  0.53481268747E+03  0.45415299234E+03 0.  0.
      99925    2    3    3    0    0  0.78872641197E+02  0.75364280970E+02  0.14575274818E+03  0.31980040253E+03  0.26292159570E+03 0.  0.
         25    1    4    4    0    0  0.58306744762E+02  0.13568470818E+02  0.10197070716E+03  0.17213167374E+03  0.12509000000E+03 0.  0.
         25    1    4    4    0    0  0.20565896434E+02  0.61795810152E+02  0.43782041017E+02  0.14766872880E+03  0.12509000000E+03 0.  0.
         25    1    3    3    0    0 -0.78872641197E+02 -0.75364280970E+02  0.13668250143E+03  0.21501228493E+03  0.12509000000E+03 0.  0.
<mgrwt>
<rscale>  2 0.45415299E+03</rscale>
<asrwt>0</asrwt>
<pdfrwt beam="1">  1       21 0.60091760E-01 0.45415299E+03</pdfrwt>
<pdfrwt beam="2">  1       21 0.18557165E-01 0.45415299E+03</pdfrwt>
<totfact> 0.63304726E+04</totfact>
</mgrwt>
</event>
<event>
 7    0  0.4766352E-002  0.4579031E+03  0.7546771E-02  0.1025391E+00
         21   -1    0    0  502  501  0.00000000000E+00  0.00000000000E+00  0.15378902920E+03  0.15378902920E+03  0.00000000000E+00 0. -1.
         21   -1    0    0  501  502 -0.00000000000E+00 -0.00000000000E+00 -0.34084885841E+03  0.34084885841E+03  0.00000000000E+00 0. -1.
      99926    2    1    2    0    0  0.00000000000E+00 -0.35527136788E-14 -0.18705982921E+03  0.49463788761E+03  0.45790311219E+03 0.  0.
      99925    2    3    3    0    0  0.10723520511E+03  0.22782300824E+02 -0.76864236424E+02  0.29511596096E+03  0.26299600211E+03 0.  0.
         25    1    3    3    0    0 -0.10723520511E+03 -0.22782300824E+02 -0.11019559279E+03  0.19952192666E+03  0.12509000000E+03 0.  0.
         25    1    4    4    0    0  0.37456173028E+02  0.41271616527E+02 -0.14187419226E+02  0.13767752973E+03  0.12509000000E+03 0.  0.
         25    1    4    4    0    0  0.69779032081E+02 -0.18489315703E+02 -0.62676817198E+02  0.15743843123E+03  0.12509000000E+03 0.  0.
<mgrwt>
<rscale>  2 0.45790311E+03</rscale>
<asrwt>0</asrwt>
<pdfrwt beam="1">  1       21 0.22616034E-01 0.45790311E+03</pdfrwt>
<pdfrwt beam="2">  1       21 0.50124832E-01 0.45790311E+03</pdfrwt>
<totfact> 0.64157605E+04</totfact>
</mgrwt>
</event>
<event>
 7    0  0.4766352E-002  0.4597502E+03  0.7546771E-02  0.1024854E+00
         21   -1    0    0  502  501  0.00000000000E+00  0.00000000000E+00  0.32760106236E+03  0.32760106236E+03  0.00000000000E+00 0.  1.
         21   -1    0    0  501  502 -0.00000000000E+00 -0.00000000000E+00 -0.16130156688E+03  0.16130156688E+03  0.00000000000E+00 0.  1.
      99926    2    1    2    0    0 -0.88817841970E-15  0.00000000000E+00  0.16629949548E+03  0.48890262924E+03  0.45975021335E+03 0.  0.
      99925    2    3    3    0    0 -0.67168434969E+01  0.55387139019E+02 -0.46775499102E+01  0.26982841965E+03  0.26395576414E+03 0.  0.
         25    1    4    4    0    0 -0.25362046973E+02  0.16639868853E+02 -0.36479439427E+02  0.13378481327E+03  0.12509000000E+03 0.  0.
         25    1    4    4    0    0  0.18645203476E+02  0.38747270166E+02  0.31801889517E+02  0.13604360637E+03  0.12509000000E+03 0.  0.
         25    1    3    3    0    0  0.67168434969E+01 -0.55387139019E+02  0.17097704539E+03  0.21907420959E+03  0.12509000000E+03 0.  0.
<mgrwt>
<rscale>  2 0.45975021E+03</rscale>
<asrwt>0</asrwt>
<pdfrwt beam="1">  1       21 0.48176627E-01 0.45975021E+03</pdfrwt>
<pdfrwt beam="2">  1       21 0.23720819E-01 0.45975021E+03</pdfrwt>
<totfact> 0.63624251E+04</totfact>
</mgrwt>
</event>
<event>
 7    0  0.4766352E-002  0.4441848E+03  0.7546771E-02  0.1029471E+00
         21   -1    0    0  502  501  0.00000000000E+00  0.00000000000E+00  0.11280983795E+04  0.11280983795E+04  0.00000000000E+00 0. -1.
         21   -1    0    0  501  502 -0.00000000000E+00 -0.00000000000E+00 -0.43724053663E+02  0.43724053663E+02  0.00000000000E+00 0. -1.
      99926    2    1    2    0    0  0.00000000000E+00  0.00000000000E+00  0.10843743258E+04  0.11718224331E+04  0.44418479974E+03 0.  0.
      99925    2    3    3    0    0  0.93776570621E+02  0.36401154041E+02  0.74449032899E+03  0.79593983364E+03  0.26293588495E+03 0.  0.
         25    1    4    4    0    0  0.17748167971E+02  0.37935737909E+02  0.29342256658E+03  0.32171171622E+03  0.12509000000E+03 0.  0.
         25    1    4    4    0    0  0.76028402649E+02 -0.15345838679E+01  0.45106776241E+03  0.47422811741E+03  0.12509000000E+03 0.  0.
         25    1    3    3    0    0 -0.93776570621E+02 -0.36401154041E+02  0.33988399679E+03  0.37588259948E+03  0.12509000000E+03 0.  0.
<mgrwt>
<rscale>  2 0.44418480E+03</rscale>
<asrwt>0</asrwt>
<pdfrwt beam="1">  1       21 0.16589680E+00 0.44418480E+03</pdfrwt>
<pdfrwt beam="2">  1       21 0.64300086E-02 0.44418480E+03</pdfrwt>
<totfact> 0.36001643E+04</totfact>
</mgrwt>
</event>
<event>
 7    0  0.4766352E-002  0.4889865E+03  0.7546771E-02  0.1016694E+00
         21   -1    0    0  502  501  0.00000000000E+00  0.00000000000E+00  0.14062248083E+04  0.14062248083E+04  0.00000000000E+00 0. -1.
         21   -1    0    0  501  502 -0.00000000000E+00 -0.00000000000E+00 -0.42508811684E+02  0.42508811684E+02  0.00000000000E+00 0. -1.
      99926    2    1    2    0    0  0.00000000000E+00  0.22204460493E-15  0.13637159967E+04  0.14487336200E+04  0.48898648474E+03 0.  0.
      99925    2    3    3    0    0  0.38840782356E+02 -0.13600461919E+01  0.12416037221E+04  0.12696543867E+04  0.26254904857E+03 0.  0.
         25    1    4    4    0    0 -0.50625837317E+01 -0.21651080121E+02  0.71758280882E+03  0.72874343540E+03  0.12509000000E+03 0.  0.
         25    1    4    4    0    0  0.43903366088E+02  0.20291033930E+02  0.52402091329E+03  0.54091095134E+03  0.12509000000E+03 0.  0.
         25    1    3    3    0    0 -0.38840782356E+02  0.13600461919E+01  0.12211227454E+03  0.17907923329E+03  0.12509000000E+03 0.  0.
<mgrwt>
<rscale>  2 0.48898648E+03</rscale>
<asrwt>0</asrwt>
<pdfrwt beam="1">  1       21 0.20679774E+00 0.48898648E+03</pdfrwt>
<pdfrwt beam="2">  1       21 0.62512967E-02 0.48898648E+03</pdfrwt>
<totfact> 0.19407901E+04</totfact>
</mgrwt>
</event>
<event>
 7    0  0.4766352E-002  0.4574589E+03  0.7546771E-02  0.1025521E+00
         21   -1    0    0  502  501  0.00000000000E+00  0.00000000000E+00  0.12281550713E+04  0.12281550713E+04  0.00000000000E+00 0. -1.
         21   -1    0    0  501  502 -0.00000000000E+00 -0.00000000000E+00 -0.42598165892E+02  0.42598165892E+02  0.00000000000E+00 0. -1.
      99926    2    1    2    0    0  0.00000000000E+00  0.71054273576E-14  0.11855569054E+04  0.12707532372E+04  0.45745886576E+03 0.  0.
      99925    2    3    3    0    0 -0.59045086865E+01 -0.63706531525E+02  0.47768473036E+03  0.54907192963E+03  0.26306633556E+03 0.  0.
         25    1    4    4    0    0  0.25163972121E+02 -0.54315176458E+02  0.28663311141E+03  0.31841704186E+03  0.12509000000E+03 0.  0.
         25    1    4    4    0    0 -0.31068480807E+02 -0.93913550664E+01  0.19105161895E+03  0.23065488777E+03  0.12509000000E+03 0.  0.
         25    1    3    3    0    0  0.59045086865E+01  0.63706531525E+02  0.70787217501E+03  0.72168130752E+03  0.12509000000E+03 0.  0.
<mgrwt>
<rscale>  2 0.45745887E+03</rscale>
<asrwt>0</asrwt>
<pdfrwt beam="1">  1       21 0.18061102E+00 0.45745887E+03</pdfrwt>
<pdfrwt beam="2">  1       21 0.62644369E-02 0.45745887E+03</pdfrwt>
<totfact> 0.29409223E+04</totfact>
</mgrwt>
</event>
<event>
 7    0  0.4766352E-002  0.4545994E+03  0.7546771E-02  0.1026359E+00
         21   -1    0    0  502  501  0.00000000000E+00  0.00000000000E+00  0.63838870019E+03  0.63838870019E+03  0.00000000000E+00 0. -1.
         21   -1    0    0  501  502 -0.00000000000E+00 -0.00000000000E+00 -0.80930556615E+02  0.80930556615E+02  0.00000000000E+00 0. -1.
      99926    2    1    2    0    0  0.00000000000E+00  0.00000000000E+00  0.55745814358E+03  0.71931925681E+03  0.45459939658E+03 0.  0.
      99925    2    3    3    0    0 -0.10186666449E+03  0.47791182094E+02  0.33972283801E+03  0.44415206071E+03  0.26305632846E+03 0.  0.
         25    1    4    4    0    0 -0.50276408141E+02 -0.34268503308E+01  0.21146049428E+03  0.25080372657E+03  0.12509000000E+03 0.  0.
         25    1    3    3    0    0  0.10186666449E+03 -0.47791182094E+02  0.21773530557E+03  0.27516719610E+03  0.12509000000E+03 0.  0.
         25    1    4    4    0    0 -0.51590256345E+02  0.51218032425E+02  0.12826234373E+03  0.19334833414E+03  0.12509000000E+03 0.  0.
<mgrwt>
<rscale>  2 0.45459940E+03</rscale>
<asrwt>0</asrwt>
<pdfrwt beam="1">  1       21 0.93880689E-01 0.45459940E+03</pdfrwt>
<pdfrwt beam="2">  1       21 0.11901553E-01 0.45459940E+03</pdfrwt>
<totfact> 0.52030363E+04</totfact>
</mgrwt>
</event>
<event>
 7    0  0.4766352E-002  0.4547280E+03  0.7546771E-02  0.1026321E+00
         21   -1    0    0  502  501  0.00000000000E+00  0.00000000000E+00  0.38671762748E+02  0.38671762748E+02  0.00000000000E+00 0.  1.
         21   -1    0    0  501  502 -0.00000000000E+00 -0.00000000000E+00 -0.13367479463E+04  0.13367479463E+04  0.00000000000E+00 0.  1.
      99926    2    1    2    0    0 -0.88817841970E-15  0.00000000000E+00 -0.12980761836E+04  0.13754197091E+04  0.45472804811E+03 0.  0.
      99925    2    3    3    0    0 -0.41326662580E+01  0.89572521419E+02 -0.60908893078E+03  0.66945139666E+03  0.26293636371E+03 0.  0.
         25    1    4    4    0    0 -0.53645001167E+01  0.11497754018E+02 -0.22056134665E+03  0.25388145254E+03  0.12509000000E+03 0.  0.
         25    1    3    3    0    0  0.41326662580E+01 -0.89572521419E+02 -0.68898725280E+03  0.70596831243E+03  0.12509000000E+03 0.  0.
         25    1    4    4    0    0  0.12318338588E+01  0.78074767402E+02 -0.38852758413E+03  0.41556994411E+03  0.12509000000E+03 0.  0.
<mgrwt>
<rscale>  2 0.45472805E+03</rscale>
<asrwt>0</asrwt>
<pdfrwt beam="1">  1       21 0.56870245E-02 0.45472805E+03</pdfrwt>
<pdfrwt beam="2">  1       21 0.19658056E+00 0.45472805E+03</pdfrwt>
<totfact> 0.27051593E+04</totfact>
</mgrwt>
</event>
<event>
 7    0  0.4766352E-002  0.4505986E+03  0.7546771E-02  0.1027544E+00
         21   -1    0    0  502  501  0.00000000000E+00  0.00000000000E+00  0.84802810949E+02  0.84802810949E+02  0.00000000000E+00 0. -1.
         21   -1    0    0  501  502 -0.00000000000E+00 -0.00000000000E+00 -0.59856238226E+03  0.59856238226E+03  0.00000000000E+00 0. -1.
      99926    2    1    2    0    0  0.00000000000E+00  0.00000000000E+00 -0.51375957131E+03  0.68336519321E+03  0.45059859096E+03 0.  0.
      99925    2    3    3    0    0  0.70330344710E+02  0.61155990203E+02 -0.41023946780E+03  0.49614785305E+03  0.26302064296E+03 0.  0.
         25    1    4    4    0    0  0.19367805229E+02  0.42594857447E+02 -0.14014219301E+03  0.19358919423E+03  0.12509000000E+03 0.  0.
         25    1    3    3    0    0 -0.70330344710E+02 -0.61155990203E+02 -0.10352010351E+03  0.18721734016E+03  0.12509000000E+03 0.  0.
         25    1    4    4    0    0  0.50962539480E+02  0.18561132756E+02 -0.27009727479E+03  0.30255865882E+03  0.12509000000E+03 0.  0.
<mgrwt>
<rscale>  2 0.45059859E+03</rscale>
<asrwt>0</asrwt>
<pdfrwt beam="1">  1       21 0.12471002E-01 0.45059859E+03</pdfrwt>
<pdfrwt beam="2">  1       21 0.88023880E-01 0.45059859E+03</pdfrwt>
<totfact> 0.55721747E+04</totfact>
</mgrwt>
</event>
<event>
 7    0  0.4766352E-002  0.4468974E+03  0.7546771E-02  0.1028651E+00
         21   -1    0    0  502  501  0.00000000000E+00  0.00000000000E+00  0.36396432284E+03  0.36396432284E+03  0.00000000000E+00 0.  1.
         21   -1    0    0  501  502 -0.00000000000E+00 -0.00000000000E+00 -0.13718193787E+03  0.13718193787E+03  0.00000000000E+00 0.  1.
      99926    2    1    2    0    0  0.00000000000E+00  0.00000000000E+00  0.22678238498E+03  0.50114626071E+03  0.44689744292E+03 0.  0.
      99925    2    3    3    0    0 -0.67739271655E+02  0.78231594630E+02  0.12194321232E+03  0.30789111448E+03  0.26309313944E+03 0.  0.
         25    1    4    4    0    0 -0.36554079264E+02  0.63056774310E+01  0.29686159016E+02  0.13380858872E+03  0.12509000000E+03 0.  0.
         25    1    4    4    0    0 -0.31185192390E+02  0.71925917199E+02  0.92257053299E+02  0.17408252575E+03  0.12509000000E+03 0.  0.
         25    1    3    3    0    0  0.67739271655E+02 -0.78231594630E+02  0.10483917266E+03  0.19325514624E+03  0.12509000000E+03 0.  0.
<mgrwt>
<rscale>  2 0.44689744E+03</rscale>
<asrwt>0</asrwt>
<pdfrwt beam="1">  1       21 0.53524165E-01 0.44689744E+03</pdfrwt>
<pdfrwt beam="2">  1       21 0.20173815E-01 0.44689744E+03</pdfrwt>
<totfact> 0.69557000E+04</totfact>
</mgrwt>
</event>
<event>
 7    0  0.4766352E-002  0.3898203E+03  0.7546771E-02  0.1047363E+00
         21   -1    0    0  502  501  0.00000000000E+00  0.00000000000E+00  0.12077274777E+03  0.12077274777E+03  0.00000000000E+00 0.  1.
         21   -1    0    0  501  502 -0.00000000000E+00 -0.00000000000E+00 -0.31455743530E+03  0.31455743530E+03  0.00000000000E+00 0.  1.
      99926    2    1    2    0    0 -0.88817841970E-15  0.00000000000E+00 -0.19378468753E+03  0.43533018308E+03  0.38982029601E+03 0.  0.
      99925    2    3    3    0    0  0.49557280165E+01 -0.37276187607E+01 -0.11297143132E+03  0.28627735734E+03  0.26297096161E+03 0.  0.
         25    1    4    4    0    0 -0.13713605644E+02 -0.12463253832E+02 -0.95149442834E+02  0.15825397388E+03  0.12509000000E+03 0.  0.
         25    1    3    3    0    0 -0.49557280165E+01  0.37276187607E+01 -0.80813256210E+02  0.14905282574E+03  0.12509000000E+03 0.  0.
         25    1    4    4    0    0  0.18669333660E+02  0.87356350713E+01 -0.17821988485E+02  0.12802338346E+03  0.12509000000E+03 0.  0.
<mgrwt>
<rscale>  2 0.38982030E+03</rscale>
<asrwt>0</asrwt>
<pdfrwt beam="1">  1       21 0.17760698E-01 0.38982030E+03</pdfrwt>
<pdfrwt beam="2">  1       21 0.46258446E-01 0.38982030E+03</pdfrwt>
<totfact> 0.12202207E+05</totfact>
</mgrwt>
</event>
<event>
 7    0  0.4766352E-002  0.4449182E+03  0.7546771E-02  0.1029248E+00
         21   -1    0    0  502  501  0.00000000000E+00  0.00000000000E+00  0.30703550638E+03  0.30703550638E+03  0.00000000000E+00 0. -1.
         21   -1    0    0  501  502 -0.00000000000E+00 -0.00000000000E+00 -0.16118024172E+03  0.16118024172E+03  0.00000000000E+00 0. -1.
      99926    2    1    2    0    0  0.00000000000E+00  0.00000000000E+00  0.14585526467E+03  0.46821574810E+03  0.44491822680E+03 0.  0.
      99925    2    3    3    0    0 -0.42814884081E+02  0.64787547428E+02  0.20775642777E+02  0.27502423557E+03  0.26301361603E+03 0.  0.
         25    1    3    3    0    0  0.42814884081E+02 -0.64787547428E+02  0.12507962189E+03  0.19319151253E+03  0.12509000000E+03 0.  0.
         25    1    4    4    0    0 -0.32196591953E+02 -0.69644314446E+01  0.35459023832E+01  0.12940326643E+03  0.12509000000E+03 0.  0.
         25    1    4    4    0    0 -0.10618292128E+02  0.71751978873E+02  0.17229740394E+02  0.14562096914E+03  0.12509000000E+03 0.  0.
<mgrwt>
<rscale>  2 0.44491823E+03</rscale>
<asrwt>0</asrwt>
<pdfrwt beam="1">  1       21 0.45152280E-01 0.44491823E+03</pdfrwt>
<pdfrwt beam="2">  1       21 0.23702977E-01 0.44491823E+03</pdfrwt>
<totfact> 0.73256068E+04</totfact>
</mgrwt>
</event>
<event>
 7    0  0.4766352E-002  0.4346850E+03  0.7546771E-02  0.1032390E+00
         21   -1    0    0  502  501  0.00000000000E+00  0.00000000000E+00  0.70382623770E+03  0.70382623770E+03  0.00000000000E+00 0. -1.
         21   -1    0    0  501  502 -0.00000000000E+00 -0.00000000000E+00 -0.67115659773E+02  0.67115659773E+02  0.00000000000E+00 0. -1.
      99926    2    1    2    0    0  0.35527136788E-14  0.44408920985E-15  0.63671057792E+03  0.77094189747E+03  0.43468500001E+03 0.  0.
      99925    2    3    3    0    0  0.84490735991E+01 -0.31727241956E+01  0.57244211059E+03  0.63001852461E+03  0.26296752339E+03 0.  0.
         25    1    3    3    0    0 -0.84490735991E+01  0.31727241956E+01  0.64268467332E+02  0.14092337285E+03  0.12509000000E+03 0.  0.
         25    1    4    4    0    0  0.39678676086E+02 -0.11006681990E+02  0.24772935782E+03  0.28055817081E+03  0.12509000000E+03 0.  0.
         25    1    4    4    0    0 -0.31229602487E+02  0.78339577940E+01  0.32471275277E+03  0.34946035380E+03  0.12509000000E+03 0.  0.
<mgrwt>
<rscale>  2 0.43468500E+03</rscale>
<asrwt>0</asrwt>
<pdfrwt beam="1">  1       21 0.10350385E+00 0.43468500E+03</pdfrwt>
<pdfrwt beam="2">  1       21 0.98699504E-02 0.43468500E+03</pdfrwt>
<totfact> 0.57898472E+04</totfact>
</mgrwt>
</event>
<event>
 7    0  0.4766352E-002  0.4956841E+03  0.7546771E-02  0.1014912E+00
         21   -1    0    0  502  501  0.00000000000E+00  0.00000000000E+00  0.53155419189E+03  0.53155419189E+03  0.00000000000E+00 0. -1.
         21   -1    0    0  501  502 -0.00000000000E+00 -0.00000000000E+00 -0.11555863051E+03  0.11555863051E+03  0.00000000000E+00 0. -1.
      99926    2    1    2    0    0 -0.71054273576E-14  0.14210854715E-13  0.41599556138E+03  0.64711282240E+03  0.49568407058E+03 0.  0.
      99925    2    3    3    0    0  0.59665701394E+02 -0.64838224820E+02  0.97863251588E+02  0.29409771514E+03  0.26296817054E+03 0.  0.
         25    1    3    3    0    0 -0.59665701394E+02  0.64838224820E+02  0.31813230979E+03  0.35301510726E+03  0.12509000000E+03 0.  0.
         25    1    4    4    0    0  0.44543193228E+02 -0.71904047745E+02  0.57898639111E+02  0.16172213409E+03  0.12509000000E+03 0.  0.
         25    1    4    4    0    0  0.15122508166E+02  0.70658229250E+01  0.39964612477E+02  0.13237558105E+03  0.12509000000E+03 0.  0.
<mgrwt>
<rscale>  2 0.49568407E+03</rscale>
<asrwt>0</asrwt>
<pdfrwt beam="1">  1       21 0.78169733E-01 0.49568407E+03</pdfrwt>
<pdfrwt beam="2">  1       21 0.16993916E-01 0.49568407E+03</pdfrwt>
<totfact> 0.41022292E+04</totfact>
</mgrwt>
</event>
<event>
 7    0  0.4766352E-002  0.4313009E+03  0.7546771E-02  0.1033450E+00
         21   -1    0    0  502  501  0.00000000000E+00  0.00000000000E+00  0.18260967886E+04  0.18260967886E+04  0.00000000000E+00 0. -1.
         21   -1    0    0  501  502 -0.00000000000E+00 -0.00000000000E+00 -0.25466946072E+02  0.25466946072E+02  0.00000000000E+00 0. -1.
      99926    2    1    2    0    0 -0.35527136788E-14  0.00000000000E+00  0.18006298425E+04  0.18515637346E+04  0.43130086221E+03 0.  0.
      99925    2    3    3    0    0 -0.20043361333E+02 -0.78193288323E+02  0.99674520851E+03  0.10340101037E+04  0.26298280762E+03 0.  0.
         25    1    4    4    0    0 -0.46893951142E+02 -0.41106125089E+02  0.57412974938E+03  0.59089866593E+03  0.12509000000E+03 0.  0.
         25    1    4    4    0    0  0.26850589809E+02 -0.37087163234E+02  0.42261545912E+03  0.44311143772E+03  0.12509000000E+03 0.  0.
         25    1    3    3    0    0  0.20043361333E+02  0.78193288323E+02  0.80388463397E+03  0.81755363097E+03  0.12509000000E+03 0.  0.
<mgrwt>
<rscale>  2 0.43130086E+03</rscale>
<asrwt>0</asrwt>
<pdfrwt beam="1">  1       21 0.26854356E+00 0.43130086E+03</pdfrwt>
<pdfrwt beam="2">  1       21 0.37451404E-02 0.43130086E+03</pdfrwt>
<totfact> 0.19664117E+04</totfact>
</mgrwt>
</event>
<event>
 7    0  0.4766352E-002  0.4582658E+03  0.7546771E-02  0.1025285E+00
         21   -1    0    0  502  501  0.00000000000E+00  0.00000000000E+00  0.91859787744E+02  0.91859787744E+02  0.00000000000E+00 0.  1.
         21   -1    0    0  501  502 -0.00000000000E+00 -0.00000000000E+00 -0.57154363490E+03  0.57154363490E+03  0.00000000000E+00 0.  1.
      99926    2    1    2    0    0 -0.35527136788E-14  0.35527136788E-14 -0.47968384716E+03  0.66340342264E+03  0.45826576127E+03 0.  0.
      99925    2    3    3    0    0 -0.16602609577E+02 -0.31164233684E+02 -0.14070424636E+03  0.30035861279E+03  0.26300333692E+03 0.  0.
         25    1    4    4    0    0  0.31932752595E+02 -0.95999999780E+01 -0.67522788845E+02  0.14600923190E+03  0.12509000000E+03 0.  0.
         25    1    4    4    0    0 -0.48535362172E+02 -0.21564233706E+02 -0.73181457520E+02  0.15434938089E+03  0.12509000000E+03 0.  0.
         25    1    3    3    0    0  0.16602609577E+02  0.31164233684E+02 -0.33897960079E+03  0.36304480985E+03  0.12509000000E+03 0.  0.
<mgrwt>
<rscale>  2 0.45826576E+03</rscale>
<asrwt>0</asrwt>
<pdfrwt beam="1">  1       21 0.13508793E-01 0.45826576E+03</pdfrwt>
<pdfrwt beam="2">  1       21 0.84050532E-01 0.45826576E+03</pdfrwt>
<totfact> 0.53542943E+04</totfact>
</mgrwt>
</event>
<event>
 7    0  0.4766352E-002  0.4401486E+03  0.7546771E-02  0.1030701E+00
         21   -1    0    0  502  501  0.00000000000E+00  0.00000000000E+00  0.76304869117E+02  0.76304869117E+02  0.00000000000E+00 0.  1.
         21   -1    0    0  501  502 -0.00000000000E+00 -0.00000000000E+00 -0.63472621706E+03  0.63472621706E+03  0.00000000000E+00 0.  1.
      99926    2    1    2    0    0  0.00000000000E+00  0.00000000000E+00 -0.55842134794E+03  0.71103108617E+03  0.44014861544E+03 0.  0.
      99925    2    3    3    0    0 -0.74141516926E+02 -0.63714161438E+02 -0.33596346100E+03  0.43773366858E+03  0.26302634580E+03 0.  0.
         25    1    4    4    0    0 -0.39009086714E+02 -0.68103376431E+02 -0.14697440440E+03  0.20834769588E+03  0.12509000000E+03 0.  0.
         25    1    4    4    0    0 -0.35132430212E+02  0.43892149929E+01 -0.18898905660E+03  0.22938597270E+03  0.12509000000E+03 0.  0.
         25    1    3    3    0    0  0.74141516926E+02  0.63714161438E+02 -0.22245788694E+03  0.27329741759E+03  0.12509000000E+03 0.  0.
<mgrwt>
<rscale>  2 0.44014862E+03</rscale>
<asrwt>0</asrwt>
<pdfrwt beam="1">  1       21 0.11221305E-01 0.44014862E+03</pdfrwt>
<pdfrwt beam="2">  1       21 0.93342087E-01 0.44014862E+03</pdfrwt>
<totfact> 0.58893500E+04</totfact>
</mgrwt>
</event>
<event>
 7    0  0.4766352E-002  0.4664050E+03  0.7546771E-02  0.1022940E+00
         21   -1    0    0  502  501  0.00000000000E+00  0.00000000000E+00  0.19334447754E+03  0.19334447754E+03  0.00000000000E+00 0.  1.
         21   -1    0    0  501  502 -0.00000000000E+00 -0.00000000000E+00 -0.28127730898E+03  0.28127730898E+03  0.00000000000E+00 0.  1.
      99926    2    1    2    0    0 -0.71054273576E-14  0.00000000000E+00 -0.87932831443E+02  0.47462178652E+03  0.46640503577E+03 0.  0.
      99925    2    3    3    0    0 -0.45786263250E+02 -0.10458188325E+03 -0.10286457278E+03  0.30460938343E+03  0.26300571084E+03 0.  0.
         25    1    4    4    0    0 -0.63184008096E+02 -0.63952294669E+02 -0.54613185264E+02  0.16343874381E+03  0.12509000000E+03 0.  0.
         25    1    4    4    0    0  0.17397744846E+02 -0.40629588581E+02 -0.48251387515E+02  0.14117063962E+03  0.12509000000E+03 0.  0.
         25    1    3    3    0    0  0.45786263250E+02  0.10458188325E+03  0.14931741336E+02  0.17001240309E+03  0.12509000000E+03 0.  0.
<mgrwt>
<rscale>  2 0.46640504E+03</rscale>
<asrwt>0</asrwt>
<pdfrwt beam="1">  1       21 0.28433012E-01 0.46640504E+03</pdfrwt>
<pdfrwt beam="2">  1       21 0.41364310E-01 0.46640504E+03</pdfrwt>
<totfact> 0.61348395E+04</totfact>
</mgrwt>
</event>
<event>
 7    0  0.4766352E-002  0.4509714E+03  0.7546771E-02  0.1027433E+00
         21   -1    0    0  502  501  0.00000000000E+00  0.00000000000E+00  0.29869751661E+03  0.29869751661E+03  0.00000000000E+00 0. -1.
         21   -1    0    0  501  502 -0.00000000000E+00 -0.00000000000E+00 -0.17021834634E+03  0.17021834634E+03  0.00000000000E+00 0. -1.
      99926    2    1    2    0    0  0.00000000000E+00  0.00000000000E+00  0.12847917027E+03  0.46891586296E+03  0.45097138417E+03 0.  0.
      99925    2    3    3    0    0 -0.90160055591E+02  0.53922176568E+02  0.51007111426E+02  0.28812353803E+03  0.26339516131E+03 0.  0.
         25    1    3    3    0    0  0.90160055591E+02 -0.53922176568E+02  0.77472058846E+02  0.18079232492E+03  0.12509000000E+03 0.  0.
         25    1    4    4    0    0 -0.33747741131E+02  0.17173689930E+02 -0.14861984069E+02  0.13153795014E+03  0.12509000000E+03 0.  0.
         25    1    4    4    0    0 -0.56412314459E+02  0.36748486637E+02  0.65869095495E+02  0.15658558789E+03  0.12509000000E+03 0.  0.
<mgrwt>
<rscale>  2 0.45097138E+03</rscale>
<asrwt>0</asrwt>
<pdfrwt beam="1">  1       21 0.43926105E-01 0.45097138E+03</pdfrwt>
<pdfrwt beam="2">  1       21 0.25032110E-01 0.45097138E+03</pdfrwt>
<totfact> 0.69718256E+04</totfact>
</mgrwt>
</event>
<event>
 7    0  0.4766352E-002  0.4532333E+03  0.7546771E-02  0.1026762E+00
         21   -1    0    0  502  501  0.00000000000E+00  0.00000000000E+00  0.29138296383E+03  0.29138296383E+03  0.00000000000E+00 0. -1.
         21   -1    0    0  501  502 -0.00000000000E+00 -0.00000000000E+00 -0.17624610048E+03  0.17624610048E+03  0.00000000000E+00 0. -1.
      99926    2    1    2    0    0 -0.17763568394E-14  0.00000000000E+00  0.11513686334E+03  0.46762906431E+03  0.45323332235E+03 0.  0.
      99925    2    3    3    0    0  0.11431409958E+02  0.71102256143E+02 -0.15265351646E+02  0.27310797615E+03  0.26299948235E+03 0.  0.
         25    1    3    3    0    0 -0.11431409958E+02 -0.71102256143E+02  0.13040221499E+03  0.19452108815E+03  0.12509000000E+03 0.  0.
         25    1    4    4    0    0 -0.34831986635E+02  0.33446838322E+02 -0.85977576135E+01  0.13436289600E+03  0.12509000000E+03 0.  0.
         25    1    4    4    0    0  0.46263396593E+02  0.37655417821E+02 -0.66675940322E+01  0.13874508015E+03  0.12509000000E+03 0.  0.
<mgrwt>
<rscale>  2 0.45323332E+03</rscale>
<asrwt>0</asrwt>
<pdfrwt beam="1">  1       21 0.42850436E-01 0.45323332E+03</pdfrwt>
<pdfrwt beam="2">  1       21 0.25918544E-01 0.45323332E+03</pdfrwt>
<totfact> 0.68568421E+04</totfact>
</mgrwt>
</event>
<event>
 7    0  0.4766352E-002  0.4566552E+03  0.7546771E-02  0.1025756E+00
         21   -1    0    0  502  501  0.00000000000E+00  0.00000000000E+00  0.17049750736E+03  0.17049750736E+03  0.00000000000E+00 0. -1.
         21   -1    0    0  501  502 -0.00000000000E+00 -0.00000000000E+00 -0.30577272090E+03  0.30577272090E+03  0.00000000000E+00 0. -1.
      99926    2    1    2    0    0  0.00000000000E+00  0.00000000000E+00 -0.13527521355E+03  0.47627022826E+03  0.45665517289E+03 0.  0.
      99925    2    3    3    0    0 -0.78806343952E+02 -0.36716272739E+02 -0.16287251755E+03  0.32145535876E+03  0.26314932295E+03 0.  0.
         25    1    3    3    0    0  0.78806343952E+02  0.36716272739E+02  0.27597304001E+02  0.15481486950E+03  0.12509000000E+03 0.  0.
         25    1    4    4    0    0 -0.81007505161E+02 -0.28300663858E+02 -0.85992732881E+02  0.17437144742E+03  0.12509000000E+03 0.  0.
         25    1    4    4    0    0  0.22011612092E+01 -0.84156088804E+01 -0.76879784668E+02  0.14708391134E+03  0.12509000000E+03 0.  0.
<mgrwt>
<rscale>  2 0.45665517E+03</rscale>
<asrwt>0</asrwt>
<pdfrwt beam="1">  1       21 0.25073163E-01 0.45665517E+03</pdfrwt>
<pdfrwt beam="2">  1       21 0.44966576E-01 0.45665517E+03</pdfrwt>
<totfact> 0.66100097E+04</totfact>
</mgrwt>
</event>
<event>
 7    0  0.4766352E-002  0.4492458E+03  0.7546771E-02  0.1027947E+00
         21   -1    0    0  502  501  0.00000000000E+00  0.00000000000E+00  0.92807976639E+02  0.92807976639E+02  0.00000000000E+00 0. -1.
         21   -1    0    0  501  502 -0.00000000000E+00 -0.00000000000E+00 -0.54365419853E+03  0.54365419853E+03  0.00000000000E+00 0. -1.
      99926    2    1    2    0    0  0.00000000000E+00  0.00000000000E+00 -0.45084622190E+03  0.63646217517E+03  0.44924579534E+03 0.  0.
      99925    2    3    3    0    0  0.30369722433E+02 -0.43938851271E+02 -0.15295113110E+03  0.30898402947E+03  0.26310480663E+03 0.  0.
         25    1    4    4    0    0  0.20887118800E+02 -0.38563694596E+02 -0.12086360285E+03  0.17938491817E+03  0.12509000000E+03 0.  0.
         25    1    4    4    0    0  0.94826036328E+01 -0.53751566750E+01 -0.32087528246E+02  0.12959911130E+03  0.12509000000E+03 0.  0.
         25    1    3    3    0    0 -0.30369722433E+02  0.43938851271E+02 -0.29789509080E+03  0.32747814570E+03  0.12509000000E+03 0.  0.
<mgrwt>
<rscale>  2 0.44924580E+03</rscale>
<asrwt>0</asrwt>
<pdfrwt beam="1">  1       21 0.13648232E-01 0.44924580E+03</pdfrwt>
<pdfrwt beam="2">  1       21 0.79949146E-01 0.44924580E+03</pdfrwt>
<totfact> 0.59127977E+04</totfact>
</mgrwt>
</event>
<event>
 7    0  0.4766352E-002  0.4566162E+03  0.7546771E-02  0.1025767E+00
         21   -1    0    0  502  501  0.00000000000E+00  0.00000000000E+00  0.85381102521E+02  0.85381102521E+02  0.00000000000E+00 0.  1.
         21   -1    0    0  501  502 -0.00000000000E+00 -0.00000000000E+00 -0.61049327479E+03  0.61049327479E+03  0.00000000000E+00 0.  1.
      99926    2    1    2    0    0  0.00000000000E+00 -0.71054273576E-14 -0.52511217226E+03  0.69587437731E+03  0.45661620157E+03 0.  0.
      99925    2    3    3    0    0 -0.10910554535E+03 -0.35333734841E+02 -0.32858903841E+03  0.43621817560E+03  0.26298868363E+03 0.  0.
         25    1    3    3    0    0  0.10910554535E+03  0.35333734841E+02 -0.19652313385E+03  0.25965620170E+03  0.12509000000E+03 0.  0.
         25    1    4    4    0    0 -0.26339475019E+02 -0.47224805622E+02 -0.14875164006E+03  0.20173871401E+03  0.12509000000E+03 0.  0.
         25    1    4    4    0    0 -0.82766070332E+02  0.11891070780E+02 -0.17983739835E+03  0.23447946159E+03  0.12509000000E+03 0.  0.
<mgrwt>
<rscale>  2 0.45661620E+03</rscale>
<asrwt>0</asrwt>
<pdfrwt beam="1">  1       21 0.12556044E-01 0.45661620E+03</pdfrwt>
<pdfrwt beam="2">  1       21 0.89778424E-01 0.45661620E+03</pdfrwt>
<totfact> 0.52457066E+04</totfact>
</mgrwt>
</event>
<event>
 7    0  0.4766352E-002  0.4477324E+03  0.7546771E-02  0.1028400E+00
         21   -1    0    0  502  501  0.00000000000E+00  0.00000000000E+00  0.64214086667E+03  0.64214086667E+03  0.00000000000E+00 0.  1.
         21   -1    0    0  501  502 -0.00000000000E+00 -0.00000000000E+00 -0.78045291888E+02  0.78045291888E+02  0.00000000000E+00 0.  1.
      99926    2    1    2    0    0  0.44408920985E-15  0.00000000000E+00  0.56409557479E+03  0.72018615856E+03  0.44773238155E+03 0.  0.
      99925    2    3    3    0    0 -0.32218641646E+01  0.81470253577E+02  0.46682927987E+03  0.54198396202E+03  0.26300048653E+03 0.  0.
         25    1    4    4    0    0 -0.72143895797E+01  0.20856418593E+02  0.15390444940E+03  0.19955231208E+03  0.12509000000E+03 0.  0.
         25    1    3    3    0    0  0.32218641646E+01 -0.81470253577E+02  0.97266294916E+02  0.17820219654E+03  0.12509000000E+03 0.  0.
         25    1    4    4    0    0  0.39925254151E+01  0.60613834984E+02  0.31292483047E+03  0.34243164994E+03  0.12509000000E+03 0.  0.
<mgrwt>
<rscale>  2 0.44773238E+03</rscale>
<asrwt>0</asrwt>
<pdfrwt beam="1">  1       21 0.94432478E-01 0.44773238E+03</pdfrwt>
<pdfrwt beam="2">  1       21 0.11477249E-01 0.44773238E+03</pdfrwt>
<totfact> 0.54891821E+04</totfact>
</mgrwt>
</event>
<event>
 7    0  0.4766352E-002  0.4537295E+03  0.7546771E-02  0.1026616E+00
         21   -1    0    0  502  501  0.00000000000E+00  0.00000000000E+00  0.40317332807E+03  0.40317332807E+03  0.00000000000E+00 0.  1.
         21   -1    0    0  501  502 -0.00000000000E+00 -0.00000000000E+00 -0.12765627514E+03  0.12765627514E+03  0.00000000000E+00 0.  1.
      99926    2    1    2    0    0  0.00000000000E+00  0.00000000000E+00  0.27551705293E+03  0.53082960320E+03  0.45372945814E+03 0.  0.
      99925    2    3    3    0    0 -0.24571788975E+02 -0.10771151403E+03  0.19494559081E+03  0.34550607076E+03  0.26299262060E+03 0.  0.
         25    1    4    4    0    0  0.11299890500E+02 -0.51051624984E+02  0.55387456868E+02  0.14645557148E+03  0.12509000000E+03 0.  0.
         25    1    4    4    0    0 -0.35871679475E+02 -0.56659889048E+02  0.13955813394E+03  0.19905049928E+03  0.12509000000E+03 0.  0.
         25    1    3    3    0    0  0.24571788975E+02  0.10771151403E+03  0.80571462121E+02  0.18532353244E+03  0.12509000000E+03 0.  0.
<mgrwt>
<rscale>  2 0.45372946E+03</rscale>
<asrwt>0</asrwt>
<pdfrwt beam="1">  1       21 0.59290195E-01 0.45372946E+03</pdfrwt>
<pdfrwt beam="2">  1       21 0.18772982E-01 0.45372946E+03</pdfrwt>
<totfact> 0.63790322E+04</totfact>
</mgrwt>
</event>
<event>
 7    0  0.4766352E-002  0.4627822E+03  0.7546771E-02  0.1023977E+00
         21   -1    0    0  502  501  0.00000000000E+00  0.00000000000E+00  0.38313745693E+03  0.38313745693E+03  0.00000000000E+00 0. -1.
         21   -1    0    0  501  502 -0.00000000000E+00 -0.00000000000E+00 -0.13974575230E+03  0.13974575230E+03  0.00000000000E+00 0. -1.
      99926    2    1    2    0    0  0.14210854715E-13  0.00000000000E+00  0.24339170463E+03  0.52288320923E+03  0.46278216108E+03 0.  0.
      99925    2    3    3    0    0 -0.10792910531E+03  0.49020259151E+02  0.12970009548E+03  0.31642505930E+03  0.26315589639E+03 0.  0.
         25    1    4    4    0    0 -0.24781212614E+02 -0.49484695378E+01  0.73167187866E+02  0.14710384539E+03  0.12509000000E+03 0.  0.
         25    1    3    3    0    0  0.10792910531E+03 -0.49020259151E+02  0.11369160915E+03  0.20645814993E+03  0.12509000000E+03 0.  0.
         25    1    4    4    0    0 -0.83147892696E+02  0.53968728689E+02  0.56532907609E+02  0.16932121391E+03  0.12509000000E+03 0.  0.
<mgrwt>
<rscale>  2 0.46278216E+03</rscale>
<asrwt>0</asrwt>
<pdfrwt beam="1">  1       21 0.56343744E-01 0.46278216E+03</pdfrwt>
<pdfrwt beam="2">  1       21 0.20550846E-01 0.46278216E+03</pdfrwt>
<totfact> 0.59905978E+04</totfact>
</mgrwt>
</event>
<event>
 7    0  0.4766352E-002  0.4454108E+03  0.7546771E-02  0.1029099E+00
         21   -1    0    0  502  501  0.00000000000E+00  0.00000000000E+00  0.96922057359E+02  0.96922057359E+02  0.00000000000E+00 0.  1.
         21   -1    0    0  501  502 -0.00000000000E+00 -0.00000000000E+00 -0.51172758355E+03  0.51172758355E+03  0.00000000000E+00 0.  1.
      99926    2    1    2    0    0  0.00000000000E+00 -0.71054273576E-14 -0.41480552619E+03  0.60864964090E+03  0.44541077762E+03 0.  0.
      99925    2    3    3    0    0  0.65995621354E+02  0.48634904387E+02 -0.17609301248E+03  0.32695486235E+03  0.26300181940E+03 0.  0.
         25    1    4    4    0    0  0.16427433398E+02  0.32098438022E+02 -0.43322542118E+02  0.13720248193E+03  0.12509000000E+03 0.  0.
         25    1    4    4    0    0  0.49568187955E+02  0.16536466365E+02 -0.13277047036E+03  0.18975238042E+03  0.12509000000E+03 0.  0.
         25    1    3    3    0    0 -0.65995621354E+02 -0.48634904387E+02 -0.23871251371E+03  0.28169477855E+03  0.12509000000E+03 0.  0.
<mgrwt>
<rscale>  2 0.44541078E+03</rscale>
<asrwt>0</asrwt>
<pdfrwt beam="1">  1       21 0.14253244E-01 0.44541078E+03</pdfrwt>
<pdfrwt beam="2">  1       21 0.75254055E-01 0.44541078E+03</pdfrwt>
<totfact> 0.62770021E+04</totfact>
</mgrwt>
</event>
<event>
 7    0  0.4766352E-002  0.4492082E+03  0.7546771E-02  0.1027958E+00
         21   -1    0    0  502  501  0.00000000000E+00  0.00000000000E+00  0.19533429283E+03  0.19533429283E+03  0.00000000000E+00 0. -1.
         21   -1    0    0  501  502 -0.00000000000E+00 -0.00000000000E+00 -0.25825982915E+03  0.25825982915E+03  0.00000000000E+00 0. -1.
      99926    2    1    2    0    0  0.35527136788E-14  0.00000000000E+00 -0.62925536317E+02  0.45359412198E+03  0.44920819714E+03 0.  0.
      99925    2    3    3    0    0  0.19964998511E+02 -0.36299268298E+01 -0.14652986596E+03  0.30177525106E+03  0.26303141067E+03 0.  0.
         25    1    4    4    0    0 -0.24662594172E+02 -0.10636826971E+02 -0.94087074656E+02  0.15881206301E+03  0.12509000000E+03 0.  0.
         25    1    4    4    0    0  0.44627592682E+02  0.70069001416E+01 -0.52442791301E+02  0.14296318805E+03  0.12509000000E+03 0.  0.
         25    1    3    3    0    0 -0.19964998511E+02  0.36299268298E+01  0.83604329640E+02  0.15181887092E+03  0.12509000000E+03 0.  0.
<mgrwt>
<rscale>  2 0.44920820E+03</rscale>
<asrwt>0</asrwt>
<pdfrwt beam="1">  1       21 0.28725631E-01 0.44920820E+03</pdfrwt>
<pdfrwt beam="2">  1       21 0.37979386E-01 0.44920820E+03</pdfrwt>
<totfact> 0.71914601E+04</totfact>
</mgrwt>
</event>
<event>
 7    0  0.4766352E-002  0.4399484E+03  0.7546771E-02  0.1030763E+00
         21   -1    0    0  502  501  0.00000000000E+00  0.00000000000E+00  0.32956668788E+03  0.32956668788E+03  0.00000000000E+00 0. -1.
         21   -1    0    0  501  502 -0.00000000000E+00 -0.00000000000E+00 -0.14682504034E+03  0.14682504034E+03  0.00000000000E+00 0. -1.
      99926    2    1    2    0    0 -0.71054273576E-14  0.00000000000E+00  0.18274164755E+03  0.47639172822E+03  0.43994837080E+03 0.  0.
      99925    2    3    3    0    0 -0.33051926555E+02  0.74574042282E+02  0.57162762012E+02  0.28127309194E+03  0.26304610481E+03 0.  0.
         25    1    3    3    0    0  0.33051926555E+02 -0.74574042282E+02  0.12557888553E+03  0.19511863628E+03  0.12509000000E+03 0.  0.
         25    1    4    4    0    0  0.21999402512E+01  0.72185265759E+02  0.41904764296E+02  0.15039637529E+03  0.12509000000E+03 0.  0.
         25    1    4    4    0    0 -0.35251866806E+02  0.23887765232E+01  0.15257997716E+02  0.13087671665E+03  0.12509000000E+03 0.  0.
<mgrwt>
<rscale>  2 0.43994837E+03</rscale>
<asrwt>0</asrwt>
<pdfrwt beam="1">  1       21 0.48465689E-01 0.43994837E+03</pdfrwt>
<pdfrwt beam="2">  1       21 0.21591918E-01 0.43994837E+03</pdfrwt>
<totfact> 0.75600898E+04</totfact>
</mgrwt>
</event>
<event>
 7    0  0.4766352E-002  0.4577442E+03  0.7546771E-02  0.1025438E+00
         21   -1    0    0  502  501  0.00000000000E+00  0.00000000000E+00  0.11568826950E+03  0.11568826950E+03  0.00000000000E+00 0. -1.
         21   -1    0    0  501  502 -0.00000000000E+00 -0.00000000000E+00 -0.45278949804E+03  0.45278949804E+03  0.00000000000E+00 0. -1.
      99926    2    1    2    0    0  0.00000000000E+00  0.00000000000E+00 -0.33710122853E+03  0.56847776754E+03  0.45774417955E+03 0.  0.
      99925    2    3    3    0    0 -0.24819899488E+02 -0.71969263215E+02 -0.10327772613E+03  0.29258550481E+03  0.26295320240E+03 0.  0.
         25    1    4    4    0    0 -0.21624290060E+01 -0.12915448680E+02 -0.83638337779E+02  0.15104424703E+03  0.12509000000E+03 0.  0.
         25    1    3    3    0    0  0.24819899488E+02  0.71969263215E+02 -0.23382350241E+03  0.27589226273E+03  0.12509000000E+03 0.  0.
         25    1    4    4    0    0 -0.22657470482E+02 -0.59053814535E+02 -0.19639388349E+02  0.14154125778E+03  0.12509000000E+03 0.  0.
<mgrwt>
<rscale>  2 0.45774418E+03</rscale>
<asrwt>0</asrwt>
<pdfrwt beam="1">  1       21 0.17012981E-01 0.45774418E+03</pdfrwt>
<pdfrwt beam="2">  1       21 0.66586691E-01 0.45774418E+03</pdfrwt>
<totfact> 0.59362954E+04</totfact>
</mgrwt>
</event>
<event>
 7    0  0.4766352E-002  0.4385050E+03  0.7546771E-02  0.1031207E+00
         21   -1    0    0  502  501  0.00000000000E+00  0.00000000000E+00  0.15378329790E+03  0.15378329790E+03  0.00000000000E+00 0. -1.
         21   -1    0    0  501  502 -0.00000000000E+00 -0.00000000000E+00 -0.31259342583E+03  0.31259342583E+03  0.00000000000E+00 0. -1.
      99926    2    1    2    0    0  0.00000000000E+00  0.00000000000E+00 -0.15881012793E+03  0.46637672373E+03  0.43850495060E+03 0.  0.
      99925    2    3    3    0    0  0.47061180324E+02 -0.52106583358E+02 -0.17260983556E+03  0.32226638145E+03  0.26292891541E+03 0.  0.
         25    1    3    3    0    0 -0.47061180324E+02  0.52106583358E+02  0.13799707628E+02  0.14411034228E+03  0.12509000000E+03 0.  0.
         25    1    4    4    0    0  0.31042703134E+01 -0.46684374314E+02 -0.53229511501E+02  0.14377049869E+03  0.12509000000E+03 0.  0.
         25    1    4    4    0    0  0.43956910011E+02 -0.54222090438E+01 -0.11938032406E+03  0.17849588276E+03  0.12509000000E+03 0.  0.
<mgrwt>
<rscale>  2 0.43850495E+03</rscale>
<asrwt>0</asrwt>
<pdfrwt beam="1">  1       21 0.22615191E-01 0.43850495E+03</pdfrwt>
<pdfrwt beam="2">  1       21 0.45969621E-01 0.43850495E+03</pdfrwt>
<totfact> 0.77345755E+04</totfact>
</mgrwt>
</event>
<event>
 7    0  0.4766352E-002  0.4523480E+03  0.7546771E-02  0.1027024E+00
         21   -1    0    0  502  501  0.00000000000E+00  0.00000000000E+00  0.35773851645E+03  0.35773851645E+03  0.00000000000E+00 0.  1.
         21   -1    0    0  501  502 -0.00000000000E+00 -0.00000000000E+00 -0.14299460429E+03  0.14299460429E+03  0.00000000000E+00 0.  1.
      99926    2    1    2    0    0  0.00000000000E+00  0.00000000000E+00  0.21474391216E+03  0.50073312074E+03  0.45234799701E+03 0.  0.
      99925    2    3    3    0    0 -0.89982363562E+02  0.50335284227E+02  0.17677736620E+03  0.33424157951E+03  0.26426639908E+03 0.  0.
         25    1    4    4    0    0 -0.88145804871E+02  0.16560414050E+02  0.90295057337E+02  0.17845065343E+03  0.12509000000E+03 0.  0.
         25    1    3    3    0    0  0.89982363562E+02 -0.50335284227E+02  0.37966545962E+02  0.16649154123E+03  0.12509000000E+03 0.  0.
         25    1    4    4    0    0 -0.18365586907E+01  0.33774870178E+02  0.86482308859E+02  0.15579092608E+03  0.12509000000E+03 0.  0.
<mgrwt>
<rscale>  2 0.45234800E+03</rscale>
<asrwt>0</asrwt>
<pdfrwt beam="1">  1       21 0.52608605E-01 0.45234800E+03</pdfrwt>
<pdfrwt beam="2">  1       21 0.21028618E-01 0.45234800E+03</pdfrwt>
<totfact> 0.66610393E+04</totfact>
</mgrwt>
</event>
<event>
 7    0  0.4766352E-002  0.4560619E+03  0.7546771E-02  0.1025930E+00
         21   -1    0    0  502  501  0.00000000000E+00  0.00000000000E+00  0.35548218942E+03  0.35548218942E+03  0.00000000000E+00 0.  1.
         21   -1    0    0  501  502 -0.00000000000E+00 -0.00000000000E+00 -0.14627490343E+03  0.14627490343E+03  0.00000000000E+00 0.  1.
      99926    2    1    2    0    0  0.88817841970E-15  0.00000000000E+00  0.20920728600E+03  0.50175709285E+03  0.45606193846E+03 0.  0.
      99925    2    3    3    0    0  0.60167765455E+01 -0.10020304186E+03  0.19132023868E+03  0.34037461003E+03  0.26301062760E+03 0.  0.
         25    1    3    3    0    0 -0.60167765455E+01  0.10020304186E+03  0.17887047320E+02  0.16138248281E+03  0.12509000000E+03 0.  0.
         25    1    4    4    0    0 -0.73820906671E+01 -0.12472244521E+02  0.10761233573E+03  0.16564412168E+03  0.12509000000E+03 0.  0.
         25    1    4    4    0    0  0.13398867213E+02 -0.87730797337E+02  0.83707902946E+02  0.17473048835E+03  0.12509000000E+03 0.  0.
<mgrwt>
<rscale>  2 0.45606194E+03</rscale>
<asrwt>0</asrwt>
<pdfrwt beam="1">  1       21 0.52276792E-01 0.45606194E+03</pdfrwt>
<pdfrwt beam="2">  1       21 0.21511015E-01 0.45606194E+03</pdfrwt>
<totfact> 0.64601118E+04</totfact>
</mgrwt>
</event>
<event>
 7    0  0.4766352E-002  0.4475759E+03  0.7546771E-02  0.1028447E+00
         21   -1    0    0  502  501  0.00000000000E+00  0.00000000000E+00  0.84104076446E+03  0.84104076446E+03  0.00000000000E+00 0.  1.
         21   -1    0    0  501  502 -0.00000000000E+00 -0.00000000000E+00 -0.59546525850E+02  0.59546525850E+02  0.00000000000E+00 0.  1.
      99926    2    1    2    0    0  0.00000000000E+00  0.00000000000E+00  0.78149423861E+03  0.90058729031E+03  0.44757594047E+03 0.  0.
      99925    2    3    3    0    0 -0.23191050689E+02 -0.77026496952E+02  0.63426755774E+03  0.69131686783E+03  0.26296914435E+03 0.  0.
         25    1    4    4    0    0  0.15222137071E+02 -0.52385687790E+02  0.25287912919E+03  0.28735228522E+03  0.12509000000E+03 0.  0.
         25    1    3    3    0    0  0.23191050689E+02  0.77026496952E+02  0.14722668087E+03  0.20927042248E+03  0.12509000000E+03 0.  0.
         25    1    4    4    0    0 -0.38413187759E+02 -0.24640809162E+02  0.38138842855E+03  0.40396458261E+03  0.12509000000E+03 0.  0.
<mgrwt>
<rscale>  2 0.44757594E+03</rscale>
<asrwt>0</asrwt>
<pdfrwt beam="1">  1       21 0.12368246E+00 0.44757594E+03</pdfrwt>
<pdfrwt beam="2">  1       21 0.87568425E-02 0.44757594E+03</pdfrwt>
<totfact> 0.45812981E+04</totfact>
</mgrwt>
</event>
<event>
 7    0  0.4766352E-002  0.4658585E+03  0.7546771E-02  0.1023096E+00
         21   -1    0    0  502  501  0.00000000000E+00  0.00000000000E+00  0.58821971033E+03  0.58821971033E+03  0.00000000000E+00 0.  1.
         21   -1    0    0  501  502 -0.00000000000E+00 -0.00000000000E+00 -0.92237722306E+02  0.92237722306E+02  0.00000000000E+00 0.  1.
      99926    2    1    2    0    0  0.00000000000E+00  0.00000000000E+00  0.49598198802E+03  0.68045743263E+03  0.46585854633E+03 0.  0.
      99925    2    3    3    0    0  0.11712155247E+03  0.22752146910E+02  0.26538661757E+03  0.39226157698E+03  0.26306647400E+03 0.  0.
         25    1    4    4    0    0  0.71640930446E+02 -0.48306049534E+01  0.18413415920E+03  0.23389881219E+03  0.12509000000E+03 0.  0.
         25    1    3    3    0    0 -0.11712155247E+03 -0.22752146910E+02  0.23059537045E+03  0.28819585566E+03  0.12509000000E+03 0.  0.
         25    1    4    4    0    0  0.45480622029E+02  0.27582751863E+02  0.81252458371E+02  0.15836276479E+03  0.12509000000E+03 0.  0.
<mgrwt>
<rscale>  2 0.46585855E+03</rscale>
<asrwt>0</asrwt>
<pdfrwt beam="1">  1       21 0.86502897E-01 0.46585855E+03</pdfrwt>
<pdfrwt beam="2">  1       21 0.13564371E-01 0.46585855E+03</pdfrwt>
<totfact> 0.49595220E+04</totfact>
</mgrwt>
</event>
<event>
 7    0  0.4766352E-002  0.4574137E+03  0.7546771E-02  0.1025534E+00
         21   -1    0    0  502  501  0.00000000000E+00  0.00000000000E+00  0.10164051472E+03  0.10164051472E+03  0.00000000000E+00 0.  1.
         21   -1    0    0  501  502 -0.00000000000E+00 -0.00000000000E+00 -0.51462565729E+03  0.51462565729E+03  0.00000000000E+00 0.  1.
      99926    2    1    2    0    0  0.00000000000E+00  0.00000000000E+00 -0.41298514257E+03  0.61626617201E+03  0.45741367140E+03 0.  0.
      99925    2    3    3    0    0  0.60328876253E+02 -0.85999308047E+02 -0.32289404251E+03  0.42972028301E+03  0.26336952110E+03 0.  0.
         25    1    3    3    0    0 -0.60328876253E+02  0.85999308047E+02 -0.90091100062E+02  0.18654588901E+03  0.12509000000E+03 0.  0.
         25    1    4    4    0    0 -0.81451969918E-02 -0.70278406168E+02 -0.15370269318E+03  0.21026431088E+03  0.12509000000E+03 0.  0.
         25    1    4    4    0    0  0.60337021450E+02 -0.15720901880E+02 -0.16919134933E+03  0.21945597213E+03  0.12509000000E+03 0.  0.
<mgrwt>
<rscale>  2 0.45741367E+03</rscale>
<asrwt>0</asrwt>
<pdfrwt beam="1">  1       21 0.14947135E-01 0.45741367E+03</pdfrwt>
<pdfrwt beam="2">  1       21 0.75680244E-01 0.45741367E+03</pdfrwt>
<totfact> 0.56601370E+04</totfact>
</mgrwt>
</event>
<event>
 7    0  0.4766352E-002  0.4584044E+03  0.7546771E-02  0.1025245E+00
         21   -1    0    0  502  501  0.00000000000E+00  0.00000000000E+00  0.10253176891E+03  0.10253176891E+03  0.00000000000E+00 0.  1.
         21   -1    0    0  501  502 -0.00000000000E+00 -0.00000000000E+00 -0.51236455753E+03  0.51236455753E+03  0.00000000000E+00 0.  1.
      99926    2    1    2    0    0  0.00000000000E+00  0.00000000000E+00 -0.40983278861E+03  0.61489632644E+03  0.45840438223E+03 0.  0.
      99925    2    3    3    0    0  0.10975058536E+03  0.15767038445E+02 -0.30391504440E+03  0.41700780447E+03  0.26312993803E+03 0.  0.
         25    1    3    3    0    0 -0.10975058536E+03 -0.15767038445E+02 -0.10591774421E+03  0.19788852197E+03  0.12509000000E+03 0.  0.
         25    1    4    4    0    0  0.31619349151E+02 -0.15352716385E+02 -0.17931654449E+03  0.22144394408E+03  0.12509000000E+03 0.  0.
         25    1    4    4    0    0  0.78131236208E+02  0.31119754830E+02 -0.12459849991E+03  0.19556386039E+03  0.12509000000E+03 0.  0.
<mgrwt>
<rscale>  2 0.45840438E+03</rscale>
<asrwt>0</asrwt>
<pdfrwt beam="1">  1       21 0.15078201E-01 0.45840438E+03</pdfrwt>
<pdfrwt beam="2">  1       21 0.75347731E-01 0.45840438E+03</pdfrwt>
<totfact> 0.56243043E+04</totfact>
</mgrwt>
</event>
<event>
 7    0  0.4766352E-002  0.4673251E+03  0.7546771E-02  0.1022678E+00
         21   -1    0    0  502  501  0.00000000000E+00  0.00000000000E+00  0.64670539097E+02  0.64670539097E+02  0.00000000000E+00 0.  1.
         21   -1    0    0  501  502 -0.00000000000E+00 -0.00000000000E+00 -0.84425131064E+03  0.84425131064E+03  0.00000000000E+00 0.  1.
      99926    2    1    2    0    0 -0.17763568394E-14 -0.14210854715E-13 -0.77958077154E+03  0.90892184973E+03  0.46732510051E+03 0.  0.
      99925    2    3    3    0    0 -0.10497868232E+02 -0.83703696623E+02 -0.66162082786E+03  0.71740534789E+03  0.26421922575E+03 0.  0.
         25    1    4    4    0    0 -0.27575821440E+02 -0.74605302430E+02 -0.30806442813E+03  0.34187362733E+03  0.12509000000E+03 0.  0.
         25    1    4    4    0    0  0.17077953208E+02 -0.90983941930E+01 -0.35355639973E+03  0.37553172056E+03  0.12509000000E+03 0.  0.
         25    1    3    3    0    0  0.10497868232E+02  0.83703696623E+02 -0.11795994368E+03  0.19151650184E+03  0.12509000000E+03 0.  0.
<mgrwt>
<rscale>  2 0.46732510E+03</rscale>
<asrwt>0</asrwt>
<pdfrwt beam="1">  1       21 0.95103749E-02 0.46732510E+03</pdfrwt>
<pdfrwt beam="2">  1       21 0.12415458E+00 0.46732510E+03</pdfrwt>
<totfact> 0.38953420E+04</totfact>
</mgrwt>
</event>
<event>
 7    0  0.4766352E-002  0.4557389E+03  0.7546771E-02  0.1026024E+00
         21   -1    0    0  502  501  0.00000000000E+00  0.00000000000E+00  0.17445198162E+03  0.17445198162E+03  0.00000000000E+00 0.  1.
         21   -1    0    0  501  502 -0.00000000000E+00 -0.00000000000E+00 -0.29764343764E+03  0.29764343764E+03  0.00000000000E+00 0.  1.
      99926    2    1    2    0    0 -0.14210854715E-13  0.35527136788E-14 -0.12319145603E+03  0.47209541926E+03  0.45573890556E+03 0.  0.
      99925    2    3    3    0    0 -0.11001560224E+03  0.27282999871E+02 -0.80062594998E+02  0.29786740322E+03  0.26356626485E+03 0.  0.
         25    1    4    4    0    0 -0.83352273743E+02  0.18947662175E+02 -0.10095025625E+02  0.15184213211E+03  0.12509000000E+03 0.  0.
         25    1    3    3    0    0  0.11001560224E+03 -0.27282999871E+02 -0.43128861027E+02  0.17422801603E+03  0.12509000000E+03 0.  0.
         25    1    4    4    0    0 -0.26663328493E+02  0.83353376958E+01 -0.69967569373E+02  0.14602527112E+03  0.12509000000E+03 0.  0.
<mgrwt>
<rscale>  2 0.45573891E+03</rscale>
<asrwt>0</asrwt>
<pdfrwt beam="1">  1       21 0.25654704E-01 0.45573891E+03</pdfrwt>
<pdfrwt beam="2">  1       21 0.43771093E-01 0.45573891E+03</pdfrwt>
<totfact> 0.66887235E+04</totfact>
</mgrwt>
</event>
<event>
 7    0  0.4766352E-002  0.4497385E+03  0.7546771E-02  0.1027800E+00
         21   -1    0    0  502  501  0.00000000000E+00  0.00000000000E+00  0.37654274705E+03  0.37654274705E+03  0.00000000000E+00 0. -1.
         21   -1    0    0  501  502 -0.00000000000E+00 -0.00000000000E+00 -0.13429067312E+03  0.13429067312E+03  0.00000000000E+00 0. -1.
      99926    2    1    2    0    0  0.00000000000E+00 -0.35527136788E-14  0.24225207393E+03  0.51083342018E+03  0.44973849718E+03 0.  0.
      99925    2    3    3    0    0 -0.99878411136E+02 -0.31411318962E+02  0.12237609673E+03  0.30839793421E+03  0.26300381899E+03 0.  0.
         25    1    4    4    0    0 -0.55094478904E+02 -0.55895476607E+02  0.56769484739E+02  0.15820868626E+03  0.12509000000E+03 0.  0.
         25    1    4    4    0    0 -0.44783932232E+02  0.24484157645E+02  0.65606611992E+02  0.15018924795E+03  0.12509000000E+03 0.  0.
         25    1    3    3    0    0  0.99878411136E+02  0.31411318962E+02  0.11987597720E+03  0.20243548597E+03  0.12509000000E+03 0.  0.
<mgrwt>
<rscale>  2 0.44973850E+03</rscale>
<asrwt>0</asrwt>
<pdfrwt beam="1">  1       21 0.55373933E-01 0.44973850E+03</pdfrwt>
<pdfrwt beam="2">  1       21 0.19748628E-01 0.44973850E+03</pdfrwt>
<totfact> 0.67281646E+04</totfact>
</mgrwt>
</event>
<event>
 7    0  0.4766352E-002  0.4444252E+03  0.7546771E-02  0.1029398E+00
         21   -1    0    0  502  501  0.00000000000E+00  0.00000000000E+00  0.68437868584E+02  0.68437868584E+02  0.00000000000E+00 0. -1.
         21   -1    0    0  501  502 -0.00000000000E+00 -0.00000000000E+00 -0.72150763863E+03  0.72150763863E+03  0.00000000000E+00 0. -1.
      99926    2    1    2    0    0  0.00000000000E+00  0.35527136788E-14 -0.65306977005E+03  0.78994550721E+03  0.44442522410E+03 0.  0.
      99925    2    3    3    0    0  0.92430974460E+02 -0.31892811425E+02 -0.47203432485E+03  0.54915103681E+03  0.26303958054E+03 0.  0.
         25    1    3    3    0    0 -0.92430974460E+02  0.31892811425E+02 -0.18103544520E+03  0.24079447041E+03  0.12509000000E+03 0.  0.
         25    1    4    4    0    0  0.66959969950E+02 -0.10610094217E+02 -0.31511813983E+03  0.34575014363E+03  0.12509000000E+03 0.  0.
         25    1    4    4    0    0  0.25471004510E+02 -0.21282717208E+02 -0.15691618502E+03  0.20340089318E+03  0.12509000000E+03 0.  0.
<mgrwt>
<rscale>  2 0.44442522E+03</rscale>
<asrwt>0</asrwt>
<pdfrwt beam="1">  1       21 0.10064392E-01 0.44442522E+03</pdfrwt>
<pdfrwt beam="2">  1       21 0.10610407E+00 0.44442522E+03</pdfrwt>
<totfact> 0.52476719E+04</totfact>
</mgrwt>
</event>
<event>
 7    0  0.4766352E-002  0.4487876E+03  0.7546771E-02  0.1028084E+00
         21   -1    0    0  502  501  0.00000000000E+00  0.00000000000E+00  0.49468065250E+03  0.49468065250E+03  0.00000000000E+00 0.  1.
         21   -1    0    0  501  502 -0.00000000000E+00 -0.00000000000E+00 -0.10178803081E+03  0.10178803081E+03  0.00000000000E+00 0.  1.
      99926    2    1    2    0    0  0.35527136788E-14  0.00000000000E+00  0.39289262169E+03  0.59646868331E+03  0.44878756444E+03 0.  0.
      99925    2    3    3    0    0  0.27900870922E+02  0.91261956823E+02  0.18390317755E+03  0.33487491576E+03  0.26308482878E+03 0.  0.
         25    1    3    3    0    0 -0.27900870922E+02 -0.91261956823E+02  0.20898944414E+03  0.26159376755E+03  0.12509000000E+03 0.  0.
         25    1    4    4    0    0 -0.13606164006E+02  0.65207720722E+02  0.12179797451E+03  0.18686741084E+03  0.12509000000E+03 0.  0.
         25    1    4    4    0    0  0.41507034928E+02  0.26054236101E+02  0.62105203041E+02  0.14800750492E+03  0.12509000000E+03 0.  0.
<mgrwt>
<rscale>  2 0.44878756E+03</rscale>
<asrwt>0</asrwt>
<pdfrwt beam="1">  1       21 0.72747154E-01 0.44878756E+03</pdfrwt>
<pdfrwt beam="2">  1       21 0.14968828E-01 0.44878756E+03</pdfrwt>
<totfact> 0.61878255E+04</totfact>
</mgrwt>
</event>
<event>
 7    0  0.4766352E-002  0.4579988E+03  0.7546771E-02  0.1025363E+00
         21   -1    0    0  502  501  0.00000000000E+00  0.00000000000E+00  0.42333715249E+02  0.42333715249E+02  0.00000000000E+00 0.  1.
         21   -1    0    0  501  502 -0.00000000000E+00 -0.00000000000E+00 -0.12387461180E+04  0.12387461180E+04  0.00000000000E+00 0.  1.
      99926    2    1    2    0    0  0.17763568394E-14  0.00000000000E+00 -0.11964124028E+04  0.12810798333E+04  0.45799880099E+03 0.  0.
      99925    2    3    3    0    0  0.10859822521E+02  0.11187333570E+03 -0.82625011242E+03  0.87450732033E+03  0.26351513437E+03 0.  0.
         25    1    4    4    0    0 -0.97500416689E+01  0.15440950529E+02 -0.39799137061E+03  0.41758606951E+03  0.12509000000E+03 0.  0.
         25    1    4    4    0    0  0.20609864190E+02  0.96432385171E+02 -0.42825874181E+03  0.45692125081E+03  0.12509000000E+03 0.  0.
         25    1    3    3    0    0 -0.10859822521E+02 -0.11187333570E+03 -0.37016229037E+03  0.40657251296E+03  0.12509000000E+03 0.  0.
<mgrwt>
<rscale>  2 0.45799880E+03</rscale>
<asrwt>0</asrwt>
<pdfrwt beam="1">  1       21 0.62255467E-02 0.45799880E+03</pdfrwt>
<pdfrwt beam="2">  1       21 0.18216854E+00 0.45799880E+03</pdfrwt>
<totfact> 0.28986856E+04</totfact>
</mgrwt>
</event>
<event>
 7    0  0.4766352E-002  0.4538495E+03  0.7546771E-02  0.1026580E+00
         21   -1    0    0  502  501  0.00000000000E+00  0.00000000000E+00  0.28180803151E+03  0.28180803151E+03  0.00000000000E+00 0.  1.
         21   -1    0    0  501  502 -0.00000000000E+00 -0.00000000000E+00 -0.18273023148E+03  0.18273023148E+03  0.00000000000E+00 0.  1.
      99926    2    1    2    0    0  0.00000000000E+00  0.00000000000E+00  0.99077800032E+02  0.46453826299E+03  0.45384952057E+03 0.  0.
      99925    2    3    3    0    0  0.37886053538E+02  0.62308593277E+02 -0.24772373382E+02  0.27400194780E+03  0.26295566750E+03 0.  0.
         25    1    3    3    0    0 -0.37886053538E+02 -0.62308593277E+02  0.12385017341E+03  0.19053631518E+03  0.12509000000E+03 0.  0.
         25    1    4    4    0    0 -0.65562063261E+01  0.62632329111E+02 -0.16068440798E+02  0.14096629165E+03  0.12509000000E+03 0.  0.
         25    1    4    4    0    0  0.44442259865E+02 -0.32373583389E+00 -0.87039325838E+01  0.13303565616E+03  0.12509000000E+03 0.  0.
<mgrwt>
<rscale>  2 0.45384952E+03</rscale>
<asrwt>0</asrwt>
<pdfrwt beam="1">  1       21 0.41442358E-01 0.45384952E+03</pdfrwt>
<pdfrwt beam="2">  1       21 0.26872093E-01 0.45384952E+03</pdfrwt>
<totfact> 0.68467295E+04</totfact>
</mgrwt>
</event>
<event>
 7    0  0.4766352E-002  0.4741390E+03  0.7546771E-02  0.1020758E+00
         21   -1    0    0  502  501  0.00000000000E+00  0.00000000000E+00  0.52656872249E+02  0.52656872249E+02  0.00000000000E+00 0. -1.
         21   -1    0    0  501  502 -0.00000000000E+00 -0.00000000000E+00 -0.10673242624E+04  0.10673242624E+04  0.00000000000E+00 0. -1.
      99926    2    1    2    0    0  0.00000000000E+00  0.00000000000E+00 -0.10146673901E+04  0.11199811346E+04  0.47413904008E+03 0.  0.
      99925    2    3    3    0    0 -0.39313022894E+02 -0.90084356577E+02 -0.42664282142E+03  0.51081686567E+03  0.26315217672E+03 0.  0.
         25    1    4    4    0    0 -0.54269865857E+02 -0.25361279898E+02 -0.19467742929E+03  0.23902975219E+03  0.12509000000E+03 0.  0.
         25    1    4    4    0    0  0.14956842963E+02 -0.64723076678E+02 -0.23196539213E+03  0.27178711348E+03  0.12509000000E+03 0.  0.
         25    1    3    3    0    0  0.39313022894E+02  0.90084356577E+02 -0.58802456872E+03  0.60916426897E+03  0.12509000000E+03 0.  0.
<mgrwt>
<rscale>  2 0.47413904E+03</rscale>
<asrwt>0</asrwt>
<pdfrwt beam="1">  1       21 0.77436587E-02 0.47413904E+03</pdfrwt>
<pdfrwt beam="2">  1       21 0.15695943E+00 0.47413904E+03</pdfrwt>
<totfact> 0.30058623E+04</totfact>
</mgrwt>
</event>
<event>
 7    0  0.4766352E-002  0.4602930E+03  0.7546771E-02  0.1024696E+00
         21   -1    0    0  502  501  0.00000000000E+00  0.00000000000E+00  0.47283190290E+03  0.47283190290E+03  0.00000000000E+00 0. -1.
         21   -1    0    0  501  502 -0.00000000000E+00 -0.00000000000E+00 -0.11202167268E+03  0.11202167268E+03  0.00000000000E+00 0. -1.
      99926    2    1    2    0    0  0.17763568394E-14  0.00000000000E+00  0.36081023023E+03  0.58485357558E+03  0.46029303995E+03 0.  0.
      99925    2    3    3    0    0  0.14835018107E+02 -0.44106956102E+02  0.87995922983E+02  0.28114210777E+03  0.26292984038E+03 0.  0.
         25    1    4    4    0    0  0.41080425458E+02 -0.25746601576E+01  0.31795498540E+02  0.13547210804E+03  0.12509000000E+03 0.  0.
         25    1    4    4    0    0 -0.26245407352E+02 -0.41532295945E+02  0.56200424444E+02  0.14566999973E+03  0.12509000000E+03 0.  0.
         25    1    3    3    0    0 -0.14835018107E+02  0.44106956102E+02  0.27281430725E+03  0.30371146781E+03  0.12509000000E+03 0.  0.
<mgrwt>
<rscale>  2 0.46029304E+03</rscale>
<asrwt>0</asrwt>
<pdfrwt beam="1">  1       21 0.69534103E-01 0.46029304E+03</pdfrwt>
<pdfrwt beam="2">  1       21 0.16473775E-01 0.46029304E+03</pdfrwt>
<totfact> 0.57189718E+04</totfact>
</mgrwt>
</event>
<event>
 7    0  0.4766352E-002  0.4597477E+03  0.7546771E-02  0.1024854E+00
         21   -1    0    0  502  501  0.00000000000E+00  0.00000000000E+00  0.11088850962E+03  0.11088850962E+03  0.00000000000E+00 0. -1.
         21   -1    0    0  501  502 -0.00000000000E+00 -0.00000000000E+00 -0.47653256802E+03  0.47653256802E+03  0.00000000000E+00 0. -1.
      99926    2    1    2    0    0  0.14210854715E-13  0.00000000000E+00 -0.36564405840E+03  0.58742107764E+03  0.45974769713E+03 0.  0.
      99925    2    3    3    0    0  0.64641056167E+02  0.96501087790E+02 -0.25346797122E+03  0.38316166239E+03  0.26282298415E+03 0.  0.
         25    1    3    3    0    0 -0.64641056167E+02 -0.96501087790E+02 -0.11217608718E+03  0.20425941526E+03  0.12509000000E+03 0.  0.
         25    1    4    4    0    0  0.15781264276E+00  0.61916915458E+02 -0.97490107914E+02  0.17025145687E+03  0.12509000000E+03 0.  0.
         25    1    4    4    0    0  0.64483243525E+02  0.34584172331E+02 -0.15597786331E+03  0.21291020552E+03  0.12509000000E+03 0.  0.
<mgrwt>
<rscale>  2 0.45974770E+03</rscale>
<asrwt>0</asrwt>
<pdfrwt beam="1">  1       21 0.16307133E-01 0.45974770E+03</pdfrwt>
<pdfrwt beam="2">  1       21 0.70078320E-01 0.45974770E+03</pdfrwt>
<totfact> 0.57279317E+04</totfact>
</mgrwt>
</event>
<event>
 7    0  0.4766352E-002  0.4492772E+03  0.7546771E-02  0.1027938E+00
         21   -1    0    0  502  501  0.00000000000E+00  0.00000000000E+00  0.54019711212E+02  0.54019711212E+02  0.00000000000E+00 0.  1.
         21   -1    0    0  501  502 -0.00000000000E+00 -0.00000000000E+00 -0.93414986447E+03  0.93414986447E+03  0.00000000000E+00 0.  1.
      99926    2    1    2    0    0  0.00000000000E+00  0.00000000000E+00 -0.88013015326E+03  0.98816957568E+03  0.44927722358E+03 0.  0.
      99925    2    3    3    0    0 -0.56121889528E+02  0.91049364669E+02 -0.58266601716E+03  0.64821064631E+03  0.26313057814E+03 0.  0.
         25    1    4    4    0    0 -0.68024306565E+02  0.54819126513E+02 -0.33608887329E+03  0.36910118093E+03  0.12509000000E+03 0.  0.
         25    1    3    3    0    0  0.56121889528E+02 -0.91049364669E+02 -0.29746413610E+03  0.33995892937E+03  0.12509000000E+03 0.  0.
         25    1    4    4    0    0  0.11902417037E+02  0.36230238156E+02 -0.24657714387E+03  0.27910946538E+03  0.12509000000E+03 0.  0.
<mgrwt>
<rscale>  2 0.44927722E+03</rscale>
<asrwt>0</asrwt>
<pdfrwt beam="1">  1       21 0.79440753E-02 0.44927722E+03</pdfrwt>
<pdfrwt beam="2">  1       21 0.13737498E+00 0.44927722E+03</pdfrwt>
<totfact> 0.41452206E+04</totfact>
</mgrwt>
</event>
<event>
 7    0  0.4766352E-002  0.4526340E+03  0.7546771E-02  0.1026939E+00
         21   -1    0    0  502  501  0.00000000000E+00  0.00000000000E+00  0.17302356102E+03  0.17302356102E+03  0.00000000000E+00 0. -1.
         21   -1    0    0  501  502 -0.00000000000E+00 -0.00000000000E+00 -0.29602543280E+03  0.29602543280E+03  0.00000000000E+00 0. -1.
      99926    2    1    2    0    0  0.00000000000E+00  0.00000000000E+00 -0.12300187178E+03  0.46904899382E+03  0.45263395602E+03 0.  0.
      99925    2    3    3    0    0  0.65629077231E+02  0.14722340508E+02  0.13874672603E+02  0.27180138398E+03  0.26298205776E+03 0.  0.
         25    1    4    4    0    0  0.42288596204E+01  0.30017307868E+00  0.35387318625E+02  0.13006822739E+03  0.12509000000E+03 0.  0.
         25    1    4    4    0    0  0.61400217611E+02  0.14422167429E+02 -0.21512646022E+02  0.14173315658E+03  0.12509000000E+03 0.  0.
         25    1    3    3    0    0 -0.65629077231E+02 -0.14722340508E+02 -0.13687654438E+03  0.19724760985E+03  0.12509000000E+03 0.  0.
<mgrwt>
<rscale>  2 0.45263396E+03</rscale>
<asrwt>0</asrwt>
<pdfrwt beam="1">  1       21 0.25444641E-01 0.45263396E+03</pdfrwt>
<pdfrwt beam="2">  1       21 0.43533152E-01 0.45263396E+03</pdfrwt>
<totfact> 0.68788665E+04</totfact>
</mgrwt>
</event>
<event>
 7    0  0.4766352E-002  0.4502177E+03  0.7546771E-02  0.1027657E+00
         21   -1    0    0  502  501  0.00000000000E+00  0.00000000000E+00  0.24836193494E+03  0.24836193494E+03  0.00000000000E+00 0.  1.
         21   -1    0    0  501  502 -0.00000000000E+00 -0.00000000000E+00 -0.20403288570E+03  0.20403288570E+03  0.00000000000E+00 0.  1.
      99926    2    1    2    0    0 -0.14210854715E-13  0.00000000000E+00  0.44329049242E+02  0.45239482063E+03  0.45021773525E+03 0.  0.
      99925    2    3    3    0    0  0.10127373784E+03  0.36334118524E+02  0.18364950406E+02  0.28536733585E+03  0.26366779633E+03 0.  0.
         25    1    4    4    0    0  0.69599713419E+02  0.46331636582E+02  0.36108365165E+02  0.15473222932E+03  0.12509000000E+03 0.  0.
         25    1    4    4    0    0  0.31674024420E+02 -0.99975180575E+01 -0.17743414759E+02  0.13063510653E+03  0.12509000000E+03 0.  0.
         25    1    3    3    0    0 -0.10127373784E+03 -0.36334118524E+02  0.25964098836E+02  0.16702748478E+03  0.12509000000E+03 0.  0.
<mgrwt>
<rscale>  2 0.45021774E+03</rscale>
<asrwt>0</asrwt>
<pdfrwt beam="1">  1       21 0.36523814E-01 0.45021774E+03</pdfrwt>
<pdfrwt beam="2">  1       21 0.30004836E-01 0.45021774E+03</pdfrwt>
<totfact> 0.71423620E+04</totfact>
</mgrwt>
</event>
<event>
 7    0  0.4766352E-002  0.4531198E+03  0.7546771E-02  0.1026796E+00
         21   -1    0    0  502  501  0.00000000000E+00  0.00000000000E+00  0.17375385194E+03  0.17375385194E+03  0.00000000000E+00 0. -1.
         21   -1    0    0  501  502 -0.00000000000E+00 -0.00000000000E+00 -0.29541444333E+03  0.29541444333E+03  0.00000000000E+00 0. -1.
      99926    2    1    2    0    0  0.00000000000E+00  0.71054273576E-14 -0.12166059139E+03  0.46916829527E+03  0.45311984043E+03 0.  0.
      99925    2    3    3    0    0 -0.84443013610E+02 -0.58058585596E+02 -0.31288655776E+02  0.28392246737E+03  0.26292882228E+03 0.  0.
         25    1    4    4    0    0 -0.84209930858E+02 -0.34140101004E+02 -0.11495340466E+02  0.15503712428E+03  0.12509000000E+03 0.  0.
         25    1    4    4    0    0 -0.23308275264E+00 -0.23918484592E+02 -0.19793315310E+02  0.12888534309E+03  0.12509000000E+03 0.  0.
         25    1    3    3    0    0  0.84443013610E+02  0.58058585596E+02 -0.90371935616E+02  0.18524582790E+03  0.12509000000E+03 0.  0.
<mgrwt>
<rscale>  2 0.45311984E+03</rscale>
<asrwt>0</asrwt>
<pdfrwt beam="1">  1       21 0.25552038E-01 0.45311984E+03</pdfrwt>
<pdfrwt beam="2">  1       21 0.43443300E-01 0.45311984E+03</pdfrwt>
<totfact> 0.68513860E+04</totfact>
</mgrwt>
</event>
<event>
 7    0  0.4766352E-002  0.4582937E+03  0.7546771E-02  0.1025277E+00
         21   -1    0    0  502  501  0.00000000000E+00  0.00000000000E+00  0.13976468046E+04  0.13976468046E+04  0.00000000000E+00 0. -1.
         21   -1    0    0  501  502 -0.00000000000E+00 -0.00000000000E+00 -0.37569054322E+02  0.37569054322E+02  0.00000000000E+00 0. -1.
      99926    2    1    2    0    0  0.00000000000E+00 -0.14210854715E-13  0.13600777502E+04  0.14352158589E+04  0.45829365574E+03 0.  0.
      99925    2    3    3    0    0 -0.69107078933E+02 -0.73578237714E+02  0.10324576158E+04  0.10702884606E+04  0.26336118746E+03 0.  0.
         25    1    4    4    0    0 -0.50175720718E+02 -0.60166166286E+02  0.67258188960E+03  0.68858657904E+03  0.12509000000E+03 0.  0.
         25    1    3    3    0    0  0.69107078933E+02  0.73578237714E+02  0.32762013445E+03  0.36492739829E+03  0.12509000000E+03 0.  0.
         25    1    4    4    0    0 -0.18931358214E+02 -0.13412071428E+02  0.35987572617E+03  0.38170188154E+03  0.12509000000E+03 0.  0.
<mgrwt>
<rscale>  2 0.45829366E+03</rscale>
<asrwt>0</asrwt>
<pdfrwt beam="1">  1       21 0.20553626E+00 0.45829366E+03</pdfrwt>
<pdfrwt beam="2">  1       21 0.55248618E-02 0.45829366E+03</pdfrwt>
<totfact> 0.24768556E+04</totfact>
</mgrwt>
</event>
<event>
 7    0  0.4766352E-002  0.4577716E+03  0.7546771E-02  0.1025430E+00
         21   -1    0    0  502  501  0.00000000000E+00  0.00000000000E+00  0.78300142405E+03  0.78300142405E+03  0.00000000000E+00 0. -1.
         21   -1    0    0  501  502 -0.00000000000E+00 -0.00000000000E+00 -0.66907552141E+02  0.66907552141E+02  0.00000000000E+00 0. -1.
      99926    2    1    2    0    0 -0.14210854715E-13  0.88817841970E-15  0.71609387191E+03  0.84990897619E+03  0.45777159635E+03 0.  0.
      99925    2    3    3    0    0  0.10973296440E+03 -0.64778517545E+01  0.51679097820E+03  0.59019290511E+03  0.26300468447E+03 0.  0.
         25    1    4    4    0    0  0.95475321913E+02 -0.17994373713E+02  0.27535522827E+03  0.31765916391E+03  0.12509000000E+03 0.  0.
         25    1    4    4    0    0  0.14257642484E+02  0.11516521958E+02  0.24143574994E+03  0.27253374120E+03  0.12509000000E+03 0.  0.
         25    1    3    3    0    0 -0.10973296440E+03  0.64778517545E+01  0.19930289371E+03  0.25971607108E+03  0.12509000000E+03 0.  0.
<mgrwt>
<rscale>  2 0.45777160E+03</rscale>
<asrwt>0</asrwt>
<pdfrwt beam="1">  1       21 0.11514726E+00 0.45777160E+03</pdfrwt>
<pdfrwt beam="2">  1       21 0.98393464E-02 0.45777160E+03</pdfrwt>
<totfact> 0.44468695E+04</totfact>
</mgrwt>
</event>
<event>
 7    0  0.4766352E-002  0.4498211E+03  0.7546771E-02  0.1027775E+00
         21   -1    0    0  502  501  0.00000000000E+00  0.00000000000E+00  0.63206287109E+03  0.63206287109E+03  0.00000000000E+00 0. -1.
         21   -1    0    0  501  502 -0.00000000000E+00 -0.00000000000E+00 -0.80031220739E+02  0.80031220739E+02  0.00000000000E+00 0. -1.
      99926    2    1    2    0    0  0.00000000000E+00  0.00000000000E+00  0.55203165035E+03  0.71209409183E+03  0.44982113404E+03 0.  0.
      99925    2    3    3    0    0 -0.51799131606E+02  0.76797760061E+02  0.25972758982E+03  0.38092915122E+03  0.26280706107E+03 0.  0.
         25    1    4    4    0    0 -0.59989201350E+02  0.55143408923E+02  0.11651914619E+03  0.18937718805E+03  0.12509000000E+03 0.  0.
         25    1    4    4    0    0  0.81900697437E+01  0.21654351138E+02  0.14320844363E+03  0.19155196317E+03  0.12509000000E+03 0.  0.
         25    1    3    3    0    0  0.51799131606E+02 -0.76797760061E+02  0.29230406053E+03  0.33116494061E+03  0.12509000000E+03 0.  0.
<mgrwt>
<rscale>  2 0.44982113E+03</rscale>
<asrwt>0</asrwt>
<pdfrwt beam="1">  1       21 0.92950420E-01 0.44982113E+03</pdfrwt>
<pdfrwt beam="2">  1       21 0.11769297E-01 0.44982113E+03</pdfrwt>
<totfact> 0.54435445E+04</totfact>
</mgrwt>
</event>
<event>
 7    0  0.4766352E-002  0.4679415E+03  0.7546771E-02  0.1022503E+00
         21   -1    0    0  502  501  0.00000000000E+00  0.00000000000E+00  0.23944656631E+03  0.23944656631E+03  0.00000000000E+00 0.  1.
         21   -1    0    0  501  502 -0.00000000000E+00 -0.00000000000E+00 -0.22862017463E+03  0.22862017463E+03  0.00000000000E+00 0.  1.
      99926    2    1    2    0    0  0.00000000000E+00  0.00000000000E+00  0.10826391685E+02  0.46806674094E+03  0.46794151687E+03 0.  0.
      99925    2    3    3    0    0 -0.48629553741E+02 -0.32819102051E+02  0.11662686301E+03  0.29404612495E+03  0.26347556142E+03 0.  0.
         25    1    4    4    0    0  0.80112533472E+01 -0.36058745574E+02  0.75318481406E+02  0.15061472389E+03  0.12509000000E+03 0.  0.
         25    1    4    4    0    0 -0.56640807088E+02  0.32396435229E+01  0.41308381601E+02  0.14343140105E+03  0.12509000000E+03 0.  0.
         25    1    3    3    0    0  0.48629553741E+02  0.32819102051E+02 -0.10580047132E+03  0.17402061599E+03  0.12509000000E+03 0.  0.
<mgrwt>
<rscale>  2 0.46794152E+03</rscale>
<asrwt>0</asrwt>
<pdfrwt beam="1">  1       21 0.35212731E-01 0.46794152E+03</pdfrwt>
<pdfrwt beam="2">  1       21 0.33620614E-01 0.46794152E+03</pdfrwt>
<totfact> 0.61047463E+04</totfact>
</mgrwt>
</event>
<event>
 7    0  0.4766352E-002  0.4633539E+03  0.7546771E-02  0.1023813E+00
         21   -1    0    0  502  501  0.00000000000E+00  0.00000000000E+00  0.17208831359E+03  0.17208831359E+03  0.00000000000E+00 0. -1.
         21   -1    0    0  501  502 -0.00000000000E+00 -0.00000000000E+00 -0.31189922531E+03  0.31189922531E+03  0.00000000000E+00 0. -1.
      99926    2    1    2    0    0  0.00000000000E+00  0.00000000000E+00 -0.13981091173E+03  0.48398753890E+03  0.46335391093E+03 0.  0.
      99925    2    3    3    0    0  0.10004865932E+03  0.62462875389E+02 -0.59728739272E+02  0.29432466041E+03  0.26296033617E+03 0.  0.
         25    1    3    3    0    0 -0.10004865932E+03 -0.62462875389E+02 -0.80082172457E+02  0.18966287849E+03  0.12509000000E+03 0.  0.
         25    1    4    4    0    0  0.10499173069E+02  0.30812439779E+02 -0.43716812253E+02  0.13644891665E+03  0.12509000000E+03 0.  0.
         25    1    4    4    0    0  0.89549486247E+02  0.31650435610E+02 -0.16011927019E+02  0.15787574376E+03  0.12509000000E+03 0.  0.
<mgrwt>
<rscale>  2 0.46335391E+03</rscale>
<asrwt>0</asrwt>
<pdfrwt beam="1">  1       21 0.25307105E-01 0.46335391E+03</pdfrwt>
<pdfrwt beam="2">  1       21 0.45867533E-01 0.46335391E+03</pdfrwt>
<totfact> 0.62184324E+04</totfact>
</mgrwt>
</event>
<event>
 7    0  0.4766352E-002  0.4545027E+03  0.7546771E-02  0.1026388E+00
         21   -1    0    0  502  501  0.00000000000E+00  0.00000000000E+00  0.10466830959E+03  0.10466830959E+03  0.00000000000E+00 0. -1.
         21   -1    0    0  501  502 -0.00000000000E+00 -0.00000000000E+00 -0.49339850309E+03  0.49339850309E+03  0.00000000000E+00 0. -1.
      99926    2    1    2    0    0  0.00000000000E+00  0.14210854715E-13 -0.38873019351E+03  0.59806681268E+03  0.45450274926E+03 0.  0.
      99925    2    3    3    0    0  0.71631240636E+02  0.75716092823E+02 -0.18832749689E+03  0.33985621983E+03  0.26300388348E+03 0.  0.
         25    1    3    3    0    0 -0.71631240636E+02 -0.75716092823E+02 -0.20040269662E+03  0.25821059285E+03  0.12509000000E+03 0.  0.
         25    1    4    4    0    0 -0.49768632122E+01  0.29253815740E+02 -0.75940549144E+02  0.14931520354E+03  0.12509000000E+03 0.  0.
         25    1    4    4    0    0  0.76608103849E+02  0.46462277084E+02 -0.11238694775E+03  0.19054101630E+03  0.12509000000E+03 0.  0.
<mgrwt>
<rscale>  2 0.45450275E+03</rscale>
<asrwt>0</asrwt>
<pdfrwt beam="1">  1       21 0.15392398E-01 0.45450275E+03</pdfrwt>
<pdfrwt beam="2">  1       21 0.72558605E-01 0.45450275E+03</pdfrwt>
<totfact> 0.59029007E+04</totfact>
</mgrwt>
</event>
<event>
 7    0  0.4766352E-002  0.4650773E+03  0.7546771E-02  0.1023319E+00
         21   -1    0    0  502  501  0.00000000000E+00  0.00000000000E+00  0.47693618804E+03  0.47693618804E+03  0.00000000000E+00 0. -1.
         21   -1    0    0  501  502 -0.00000000000E+00 -0.00000000000E+00 -0.11337830049E+03  0.11337830049E+03  0.00000000000E+00 0. -1.
      99926    2    1    2    0    0  0.00000000000E+00 -0.35527136788E-14  0.36355788756E+03  0.59031448853E+03  0.46507725999E+03 0.  0.
      99925    2    3    3    0    0 -0.69413307947E+02  0.24872583004E+02  0.10260790531E+03  0.29168553139E+03  0.26289772591E+03 0.  0.
         25    1    4    4    0    0 -0.46780353807E+00  0.34866392712E+02  0.48260038598E+02  0.13853672295E+03  0.12509000000E+03 0.  0.
         25    1    3    3    0    0  0.69413307947E+02 -0.24872583004E+02  0.26094998225E+03  0.29862895714E+03  0.12509000000E+03 0.  0.
         25    1    4    4    0    0 -0.68945504408E+02 -0.99938097084E+01  0.54347866715E+02  0.15314880844E+03  0.12509000000E+03 0.  0.
<mgrwt>
<rscale>  2 0.46507726E+03</rscale>
<asrwt>0</asrwt>
<pdfrwt beam="1">  1       21 0.70137674E-01 0.46507726E+03</pdfrwt>
<pdfrwt beam="2">  1       21 0.16673280E-01 0.46507726E+03</pdfrwt>
<totfact> 0.54782915E+04</totfact>
</mgrwt>
</event>
<event>
 7    0  0.4766352E-002  0.4566050E+03  0.7546771E-02  0.1025770E+00
         21   -1    0    0  502  501  0.00000000000E+00  0.00000000000E+00  0.28527095865E+02  0.28527095865E+02  0.00000000000E+00 0. -1.
         21   -1    0    0  501  502 -0.00000000000E+00 -0.00000000000E+00 -0.18271064410E+04  0.18271064410E+04  0.00000000000E+00 0. -1.
      99926    2    1    2    0    0  0.71054273576E-14  0.00000000000E+00 -0.17985793451E+04  0.18556335369E+04  0.45660503982E+03 0.  0.
      99925    2    3    3    0    0 -0.55527943138E+02  0.99908239633E+02 -0.10904263416E+04  0.11274898743E+04  0.26294258191E+03 0.  0.
         25    1    4    4    0    0 -0.95679779456E+01  0.55193971903E+02 -0.67953128615E+03  0.69321583774E+03  0.12509000000E+03 0.  0.
         25    1    3    3    0    0  0.55527943138E+02 -0.99908239633E+02 -0.70815300348E+03  0.72814366251E+03  0.12509000000E+03 0.  0.
         25    1    4    4    0    0 -0.45959965193E+02  0.44714267730E+02 -0.41089505549E+03  0.43427403660E+03  0.12509000000E+03 0.  0.
<mgrwt>
<rscale>  2 0.45660504E+03</rscale>
<asrwt>0</asrwt>
<pdfrwt beam="1">  1       21 0.41951624E-02 0.45660504E+03</pdfrwt>
<pdfrwt beam="2">  1       21 0.26869204E+00 0.45660504E+03</pdfrwt>
<totfact> 0.16013109E+04</totfact>
</mgrwt>
</event>
<event>
 7    0  0.4766352E-002  0.4502283E+03  0.7546771E-02  0.1027654E+00
         21   -1    0    0  502  501  0.00000000000E+00  0.00000000000E+00  0.43294533161E+03  0.43294533161E+03  0.00000000000E+00 0. -1.
         21   -1    0    0  501  502 -0.00000000000E+00 -0.00000000000E+00 -0.11705028433E+03  0.11705028433E+03  0.00000000000E+00 0. -1.
      99926    2    1    2    0    0  0.00000000000E+00 -0.14210854715E-13  0.31589504728E+03  0.54999561594E+03  0.45022827172E+03 0.  0.
      99925    2    3    3    0    0  0.45604389845E+02 -0.94948684206E+02  0.23199706416E+03  0.36619846505E+03  0.26302787878E+03 0.  0.
         25    1    4    4    0    0  0.86713500783E+01 -0.82119832389E+02  0.14731868190E+03  0.21016460530E+03  0.12509000000E+03 0.  0.
         25    1    4    4    0    0  0.36933039767E+02 -0.12828851817E+02  0.84678382263E+02  0.15603385975E+03  0.12509000000E+03 0.  0.
         25    1    3    3    0    0 -0.45604389845E+02  0.94948684206E+02  0.83897983113E+02  0.18379715089E+03  0.12509000000E+03 0.  0.
<mgrwt>
<rscale>  2 0.45022827E+03</rscale>
<asrwt>0</asrwt>
<pdfrwt beam="1">  1       21 0.63668431E-01 0.45022827E+03</pdfrwt>
<pdfrwt beam="2">  1       21 0.17213277E-01 0.45022827E+03</pdfrwt>
<totfact> 0.64258621E+04</totfact>
</mgrwt>
</event>
<event>
 7    0  0.4766352E-002  0.4599544E+03  0.7546771E-02  0.1024794E+00
         21   -1    0    0  502  501  0.00000000000E+00  0.00000000000E+00  0.25187441908E+03  0.25187441908E+03  0.00000000000E+00 0.  1.
         21   -1    0    0  501  502 -0.00000000000E+00 -0.00000000000E+00 -0.20998362805E+03  0.20998362805E+03  0.00000000000E+00 0.  1.
      99926    2    1    2    0    0  0.14210854715E-13  0.35527136788E-14  0.41890791031E+02  0.46185804714E+03  0.45995436440E+03 0.  0.
      99925    2    3    3    0    0 -0.99784737059E+02 -0.77120239226E+01 -0.36064367312E+02  0.28369805198E+03  0.26299710463E+03 0.  0.
         25    1    3    3    0    0  0.99784737059E+02  0.77120239226E+01  0.77955158343E+02  0.17815999516E+03  0.12509000000E+03 0.  0.
         25    1    4    4    0    0 -0.22368234303E+02  0.27570453456E+02 -0.20159936744E+02  0.13158418962E+03  0.12509000000E+03 0.  0.
         25    1    4    4    0    0 -0.77416502756E+02 -0.35282477378E+02 -0.15904430568E+02  0.15211386236E+03  0.12509000000E+03 0.  0.
<mgrwt>
<rscale>  2 0.45995436E+03</rscale>
<asrwt>0</asrwt>
<pdfrwt beam="1">  1       21 0.37040356E-01 0.45995436E+03</pdfrwt>
<pdfrwt beam="2">  1       21 0.30879945E-01 0.45995436E+03</pdfrwt>
<totfact> 0.65421728E+04</totfact>
</mgrwt>
</event>
<event>
 7    0  0.4766352E-002  0.4610686E+03  0.7546771E-02  0.1024472E+00
         21   -1    0    0  502  501  0.00000000000E+00  0.00000000000E+00  0.78818518696E+03  0.78818518696E+03  0.00000000000E+00 0. -1.
         21   -1    0    0  501  502 -0.00000000000E+00 -0.00000000000E+00 -0.67428407103E+02  0.67428407103E+02  0.00000000000E+00 0. -1.
      99926    2    1    2    0    0  0.35527136788E-14  0.00000000000E+00  0.72075677986E+03  0.85561359407E+03  0.46106863550E+03 0.  0.
      99925    2    3    3    0    0  0.20180932285E+02  0.68273100612E+02  0.62757950922E+03  0.68415514966E+03  0.26295197682E+03 0.  0.
         25    1    4    4    0    0 -0.19371568530E+02  0.11576252213E+02  0.25061067527E+03  0.28100264401E+03  0.12509000000E+03 0.  0.
         25    1    3    3    0    0 -0.20180932285E+02 -0.68273100612E+02  0.93177270639E+02  0.17145844441E+03  0.12509000000E+03 0.  0.
         25    1    4    4    0    0  0.39552500815E+02  0.56696848399E+02  0.37696883395E+03  0.40315250564E+03  0.12509000000E+03 0.  0.
<mgrwt>
<rscale>  2 0.46106864E+03</rscale>
<asrwt>0</asrwt>
<pdfrwt beam="1">  1       21 0.11590958E+00 0.46106864E+03</pdfrwt>
<pdfrwt beam="2">  1       21 0.99159427E-02 0.46106864E+03</pdfrwt>
<totfact> 0.43100630E+04</totfact>
</mgrwt>
</event>
<event>
 7    0  0.4766352E-002  0.4529416E+03  0.7546771E-02  0.1026848E+00
         21   -1    0    0  502  501  0.00000000000E+00  0.00000000000E+00  0.93285256987E+03  0.93285256987E+03  0.00000000000E+00 0. -1.
         21   -1    0    0  501  502 -0.00000000000E+00 -0.00000000000E+00 -0.54980856328E+02  0.54980856328E+02  0.00000000000E+00 0. -1.
      99926    2    1    2    0    0  0.00000000000E+00  0.00000000000E+00  0.87787171354E+03  0.98783342619E+03  0.45294164356E+03 0.  0.
      99925    2    3    3    0    0  0.41162564602E+02  0.93621781577E+02  0.45800294851E+03  0.53794823789E+03  0.26298709302E+03 0.  0.
         25    1    4    4    0    0  0.38258430337E+02  0.46722553677E+02  0.30285017162E+03  0.33318529238E+03  0.12509000000E+03 0.  0.
         25    1    3    3    0    0 -0.41162564602E+02 -0.93621781577E+02  0.41986876503E+03  0.44988518830E+03  0.12509000000E+03 0.  0.
         25    1    4    4    0    0  0.29041342644E+01  0.46899227900E+02  0.15515277690E+03  0.20476294551E+03  0.12509000000E+03 0.  0.
<mgrwt>
<rscale>  2 0.45294164E+03</rscale>
<asrwt>0</asrwt>
<pdfrwt beam="1">  1       21 0.13718419E+00 0.45294164E+03</pdfrwt>
<pdfrwt beam="2">  1       21 0.80854206E-02 0.45294164E+03</pdfrwt>
<totfact> 0.40287137E+04</totfact>
</mgrwt>
</event>
<event>
 7    0  0.4766352E-002  0.4481483E+03  0.7546771E-02  0.1028276E+00
         21   -1    0    0  502  501  0.00000000000E+00  0.00000000000E+00  0.16112043331E+03  0.16112043331E+03  0.00000000000E+00 0. -1.
         21   -1    0    0  501  502 -0.00000000000E+00 -0.00000000000E+00 -0.31162537963E+03  0.31162537963E+03  0.00000000000E+00 0. -1.
      99926    2    1    2    0    0  0.71054273576E-14  0.00000000000E+00 -0.15050494632E+03  0.47274581294E+03  0.44814826206E+03 0.  0.
      99925    2    3    3    0    0  0.63352941575E+02  0.80879916888E+02 -0.65116059311E+02  0.28973235364E+03  0.26296307612E+03 0.  0.
         25    1    4    4    0    0  0.23358512578E+02  0.36214356610E+02  0.87155038121E+01  0.13259173368E+03  0.12509000000E+03 0.  0.
         25    1    3    3    0    0 -0.63352941575E+02 -0.80879916888E+02 -0.85388887010E+02  0.18301345930E+03  0.12509000000E+03 0.  0.
         25    1    4    4    0    0  0.39994428997E+02  0.44665560278E+02 -0.73831563123E+02  0.15714061995E+03  0.12509000000E+03 0.  0.
<mgrwt>
<rscale>  2 0.44814826E+03</rscale>
<asrwt>0</asrwt>
<pdfrwt beam="1">  1       21 0.23694182E-01 0.44814826E+03</pdfrwt>
<pdfrwt beam="2">  1       21 0.45827261E-01 0.44814826E+03</pdfrwt>
<totfact> 0.71015938E+04</totfact>
</mgrwt>
</event>
<event>
 7    0  0.4766352E-002  0.4513740E+03  0.7546771E-02  0.1027313E+00
         21   -1    0    0  502  501  0.00000000000E+00  0.00000000000E+00  0.30056203771E+03  0.30056203771E+03  0.00000000000E+00 0.  1.
         21   -1    0    0  501  502 -0.00000000000E+00 -0.00000000000E+00 -0.16946456277E+03  0.16946456277E+03  0.00000000000E+00 0.  1.
      99926    2    1    2    0    0 -0.17763568394E-14  0.00000000000E+00  0.13109747494E+03  0.47002660049E+03  0.45137396605E+03 0.  0.
      99925    2    3    3    0    0 -0.44092890480E+01 -0.67043185433E+02 -0.76167423228E+01  0.27152377251E+03  0.26296941597E+03 0.  0.
         25    1    3    3    0    0  0.44092890480E+01  0.67043185433E+02  0.13871421726E+03  0.19850282797E+03  0.12509000000E+03 0.  0.
         25    1    4    4    0    0  0.34019236676E+02 -0.46928393224E+02 -0.16388675321E+02  0.13883688031E+03  0.12509000000E+03 0.  0.
         25    1    4    4    0    0 -0.38428525725E+02 -0.20114792209E+02  0.87719329982E+01  0.13268689221E+03  0.12509000000E+03 0.  0.
<mgrwt>
<rscale>  2 0.45137397E+03</rscale>
<asrwt>0</asrwt>
<pdfrwt beam="1">  1       21 0.44200300E-01 0.45137397E+03</pdfrwt>
<pdfrwt beam="2">  1       21 0.24921259E-01 0.45137397E+03</pdfrwt>
<totfact> 0.69409213E+04</totfact>
</mgrwt>
</event>
<event>
 7    0  0.4766352E-002  0.4489780E+03  0.7546771E-02  0.1028027E+00
         21   -1    0    0  502  501  0.00000000000E+00  0.00000000000E+00  0.42299804696E+03  0.42299804696E+03  0.00000000000E+00 0.  1.
         21   -1    0    0  501  502 -0.00000000000E+00 -0.00000000000E+00 -0.11913840834E+03  0.11913840834E+03  0.00000000000E+00 0.  1.
      99926    2    1    2    0    0  0.00000000000E+00  0.00000000000E+00  0.30385963862E+03  0.54213645530E+03  0.44897801302E+03 0.  0.
      99925    2    3    3    0    0  0.47900199182E+02 -0.35329042665E+02  0.30027518076E+03  0.40356183000E+03  0.26297223450E+03 0.  0.
         25    1    4    4    0    0  0.50077651271E+02 -0.70227034789E+01  0.10996933911E+03  0.17406278512E+03  0.12509000000E+03 0.  0.
         25    1    3    3    0    0 -0.47900199182E+02  0.35329042665E+02  0.35844578686E+01  0.13857462529E+03  0.12509000000E+03 0.  0.
         25    1    4    4    0    0 -0.21774520886E+01 -0.28306339186E+02  0.19030584165E+03  0.22949904488E+03  0.12509000000E+03 0.  0.
<mgrwt>
<rscale>  2 0.44897801E+03</rscale>
<asrwt>0</asrwt>
<pdfrwt beam="1">  1       21 0.62205595E-01 0.44897801E+03</pdfrwt>
<pdfrwt beam="2">  1       21 0.17520354E-01 0.44897801E+03</pdfrwt>
<totfact> 0.65452951E+04</totfact>
</mgrwt>
</event>
<event>
 7    0  0.4766352E-002  0.4536696E+03  0.7546771E-02  0.1026633E+00
         21   -1    0    0  502  501  0.00000000000E+00  0.00000000000E+00  0.55188326451E+02  0.55188326451E+02  0.00000000000E+00 0. -1.
         21   -1    0    0  501  502 -0.00000000000E+00 -0.00000000000E+00 -0.93233535607E+03  0.93233535607E+03  0.00000000000E+00 0. -1.
      99926    2    1    2    0    0  0.17763568394E-14  0.00000000000E+00 -0.87714702962E+03  0.98752368252E+03  0.45366960662E+03 0.  0.
      99925    2    3    3    0    0  0.61243318413E+01  0.11072675273E+03 -0.52003425200E+03  0.59322054374E+03  0.26301533996E+03 0.  0.
         25    1    3    3    0    0 -0.61243318413E+01 -0.11072675273E+03 -0.35711277762E+03  0.39430313878E+03  0.12509000000E+03 0.  0.
         25    1    4    4    0    0 -0.29211205428E+02  0.71006092193E+02 -0.22880018913E+03  0.27183118713E+03  0.12509000000E+03 0.  0.
         25    1    4    4    0    0  0.35335537269E+02  0.39720660542E+02 -0.29123406287E+03  0.32138935661E+03  0.12509000000E+03 0.  0.
<mgrwt>
<rscale>  2 0.45366961E+03</rscale>
<asrwt>0</asrwt>
<pdfrwt beam="1">  1       21 0.81159315E-02 0.45366961E+03</pdfrwt>
<pdfrwt beam="2">  1       21 0.13710812E+00 0.45366961E+03</pdfrwt>
<totfact> 0.40070295E+04</totfact>
</mgrwt>
</event>
<event>
 7    0  0.4766352E-002  0.4584840E+03  0.7546771E-02  0.1025222E+00
         21   -1    0    0  502  501  0.00000000000E+00  0.00000000000E+00  0.24489091766E+03  0.24489091766E+03  0.00000000000E+00 0.  1.
         21   -1    0    0  501  502 -0.00000000000E+00 -0.00000000000E+00 -0.21459304310E+03  0.21459304310E+03  0.00000000000E+00 0.  1.
      99926    2    1    2    0    0 -0.71054273576E-14  0.00000000000E+00  0.30297874560E+02  0.45948396075E+03  0.45848396808E+03 0.  0.
      99925    2    3    3    0    0  0.58012474515E+02 -0.53529191399E+02 -0.64767631469E+02  0.28365512334E+03  0.26464043791E+03 0.  0.
         25    1    4    4    0    0  0.20363179456E+01 -0.55862354323E+02 -0.49780933606E+02  0.14577516480E+03  0.12509000000E+03 0.  0.
         25    1    4    4    0    0  0.55976156570E+02  0.23331629240E+01 -0.14986697863E+02  0.13787995854E+03  0.12509000000E+03 0.  0.
         25    1    3    3    0    0 -0.58012474515E+02  0.53529191399E+02  0.95065506029E+02  0.17582883742E+03  0.12509000000E+03 0.  0.
<mgrwt>
<rscale>  2 0.45848397E+03</rscale>
<asrwt>0</asrwt>
<pdfrwt beam="1">  1       21 0.36013370E-01 0.45848397E+03</pdfrwt>
<pdfrwt beam="2">  1       21 0.31557800E-01 0.45848397E+03</pdfrwt>
<totfact> 0.66354787E+04</totfact>
</mgrwt>
</event>
<event>
 7    0  0.4766352E-002  0.4592862E+03  0.7546771E-02  0.1024988E+00
         21   -1    0    0  502  501  0.00000000000E+00  0.00000000000E+00  0.93410017018E+02  0.93410017018E+02  0.00000000000E+00 0.  1.
         21   -1    0    0  501  502 -0.00000000000E+00 -0.00000000000E+00 -0.56456432612E+03  0.56456432612E+03  0.00000000000E+00 0.  1.
      99926    2    1    2    0    0 -0.14210854715E-13  0.00000000000E+00 -0.47115430910E+03  0.65797434313E+03  0.45928624325E+03 0.  0.
      99925    2    3    3    0    0  0.80281383326E+02  0.16286122583E+02 -0.17514547924E+03  0.32634341311E+03  0.26289493354E+03 0.  0.
         25    1    3    3    0    0 -0.80281383326E+02 -0.16286122583E+02 -0.29600882986E+03  0.33163093003E+03  0.12509000000E+03 0.  0.
         25    1    4    4    0    0  0.77561104394E+02 -0.16633120434E+01 -0.75737764074E+02  0.16553612454E+03  0.12509000000E+03 0.  0.
         25    1    4    4    0    0  0.27202789316E+01  0.17949434626E+02 -0.99407715168E+02  0.16080728857E+03  0.12509000000E+03 0.  0.
<mgrwt>
<rscale>  2 0.45928624E+03</rscale>
<asrwt>0</asrwt>
<pdfrwt beam="1">  1       21 0.13736767E-01 0.45928624E+03</pdfrwt>
<pdfrwt beam="2">  1       21 0.83024164E-01 0.45928624E+03</pdfrwt>
<totfact> 0.53415597E+04</totfact>
</mgrwt>
</event>
<event>
 7    0  0.4766352E-002  0.4567942E+03  0.7546771E-02  0.1025715E+00
         21   -1    0    0  502  501  0.00000000000E+00  0.00000000000E+00  0.57935109678E+02  0.57935109678E+02  0.00000000000E+00 0.  1.
         21   -1    0    0  501  502 -0.00000000000E+00 -0.00000000000E+00 -0.90040779544E+03  0.90040779544E+03  0.00000000000E+00 0.  1.
      99926    2    1    2    0    0  0.00000000000E+00  0.00000000000E+00 -0.84247268577E+03  0.95834290512E+03  0.45679415226E+03 0.  0.
      99925    2    3    3    0    0  0.70793855383E+02  0.14699048972E+02 -0.71672818005E+03  0.76680434290E+03  0.26279608865E+03 0.  0.
         25    1    4    4    0    0  0.74437344899E+02 -0.53037405916E+01 -0.39676432974E+03  0.42265646740E+03  0.12509000000E+03 0.  0.
         25    1    3    3    0    0 -0.70793855383E+02 -0.14699048972E+02 -0.12574450571E+03  0.19153856222E+03  0.12509000000E+03 0.  0.
         25    1    4    4    0    0 -0.36434895166E+01  0.20002789564E+02 -0.31996385031E+03  0.34414787550E+03  0.12509000000E+03 0.  0.
<mgrwt>
<rscale>  2 0.45679415E+03</rscale>
<asrwt>0</asrwt>
<pdfrwt beam="1">  1       21 0.85198686E-02 0.45679415E+03</pdfrwt>
<pdfrwt beam="2">  1       21 0.13241292E+00 0.45679415E+03</pdfrwt>
<totfact> 0.40237386E+04</totfact>
</mgrwt>
</event>
<event>
 7    0  0.4766352E-002  0.4542202E+03  0.7546771E-02  0.1026471E+00
         21   -1    0    0  502  501  0.00000000000E+00  0.00000000000E+00  0.44500844594E+03  0.44500844594E+03  0.00000000000E+00 0. -1.
         21   -1    0    0  501  502 -0.00000000000E+00 -0.00000000000E+00 -0.11590568016E+03  0.11590568016E+03  0.00000000000E+00 0. -1.
      99926    2    1    2    0    0  0.00000000000E+00  0.00000000000E+00  0.32910276578E+03  0.56091412610E+03  0.45422023999E+03 0.  0.
      99925    2    3    3    0    0 -0.64805210039E+02 -0.25000213081E+02  0.31689197255E+03  0.41731281178E+03  0.26249711372E+03 0.  0.
         25    1    3    3    0    0  0.64805210039E+02  0.25000213081E+02  0.12210793232E+02  0.14360131432E+03  0.12509000000E+03 0.  0.
         25    1    4    4    0    0 -0.44608974080E+02  0.25303243762E+02  0.15924892280E+03  0.20889696558E+03  0.12509000000E+03 0.  0.
         25    1    4    4    0    0 -0.20196235959E+02 -0.50303456844E+02  0.15764304974E+03  0.20841584621E+03  0.12509000000E+03 0.  0.
<mgrwt>
<rscale>  2 0.45422024E+03</rscale>
<asrwt>0</asrwt>
<pdfrwt beam="1">  1       21 0.65442418E-01 0.45422024E+03</pdfrwt>
<pdfrwt beam="2">  1       21 0.17044953E-01 0.45422024E+03</pdfrwt>
<totfact> 0.61529624E+04</totfact>
</mgrwt>
</event>
<event>
 7    0  0.4766352E-002  0.4549566E+03  0.7546771E-02  0.1026254E+00
         21   -1    0    0  502  501  0.00000000000E+00  0.00000000000E+00  0.35767799982E+03  0.35767799982E+03  0.00000000000E+00 0.  1.
         21   -1    0    0  501  502 -0.00000000000E+00 -0.00000000000E+00 -0.14467307407E+03  0.14467307407E+03  0.00000000000E+00 0.  1.
      99926    2    1    2    0    0  0.35527136788E-14  0.00000000000E+00  0.21300492575E+03  0.50235107390E+03  0.45495659469E+03 0.  0.
      99925    2    3    3    0    0 -0.13500678998E+02  0.57629410133E+02  0.28087367679E+02  0.27138478062E+03  0.26335789657E+03 0.  0.
         25    1    4    4    0    0 -0.26420116254E+02  0.12333153279E+02 -0.18638910286E+02  0.12978846747E+03  0.12509000000E+03 0.  0.
         25    1    4    4    0    0  0.12919437257E+02  0.45296256854E+02  0.46726277965E+02  0.14159631315E+03  0.12509000000E+03 0.  0.
         25    1    3    3    0    0  0.13500678998E+02 -0.57629410133E+02  0.18491755807E+03  0.23096629328E+03  0.12509000000E+03 0.  0.
<mgrwt>
<rscale>  2 0.45495659E+03</rscale>
<asrwt>0</asrwt>
<pdfrwt beam="1">  1       21 0.52599706E-01 0.45495659E+03</pdfrwt>
<pdfrwt beam="2">  1       21 0.21275452E-01 0.45495659E+03</pdfrwt>
<totfact> 0.65128243E+04</totfact>
</mgrwt>
</event>
<event>
 7    0  0.4766352E-002  0.4351856E+03  0.7546771E-02  0.1032234E+00
         21   -1    0    0  502  501  0.00000000000E+00  0.00000000000E+00  0.42244575580E+03  0.42244575580E+03  0.00000000000E+00 0. -1.
         21   -1    0    0  501  502 -0.00000000000E+00 -0.00000000000E+00 -0.11207743150E+03  0.11207743150E+03  0.00000000000E+00 0. -1.
      99926    2    1    2    0    0  0.00000000000E+00  0.00000000000E+00  0.31036832430E+03  0.53452318731E+03  0.43518563975E+03 0.  0.
      99925    2    3    3    0    0 -0.45514418547E+02 -0.80982829639E+02  0.21059287366E+03  0.34950310828E+03  0.26300814298E+03 0.  0.
         25    1    4    4    0    0 -0.13207329295E+02 -0.85085219361E+01  0.65181066895E+02  0.14192571322E+03  0.12509000000E+03 0.  0.
         25    1    3    3    0    0  0.45514418547E+02  0.80982829639E+02  0.99775450643E+02  0.18502007903E+03  0.12509000000E+03 0.  0.
         25    1    4    4    0    0 -0.32307089252E+02 -0.72474307703E+02  0.14541180676E+03  0.20757739506E+03  0.12509000000E+03 0.  0.
<mgrwt>
<rscale>  2 0.43518564E+03</rscale>
<asrwt>0</asrwt>
<pdfrwt beam="1">  1       21 0.62124375E-01 0.43518564E+03</pdfrwt>
<pdfrwt beam="2">  1       21 0.16481975E-01 0.43518564E+03</pdfrwt>
<totfact> 0.73813673E+04</totfact>
</mgrwt>
</event>
<event>
 7    0  0.4766352E-002  0.4544808E+03  0.7546771E-02  0.1026394E+00
         21   -1    0    0  502  501  0.00000000000E+00  0.00000000000E+00  0.37880043684E+02  0.37880043684E+02  0.00000000000E+00 0.  1.
         21   -1    0    0  501  502 -0.00000000000E+00 -0.00000000000E+00 -0.13632033333E+04  0.13632033333E+04  0.00000000000E+00 0.  1.
      99926    2    1    2    0    0  0.00000000000E+00  0.00000000000E+00 -0.13253232896E+04  0.14010833770E+04  0.45448081067E+03 0.  0.
      99925    2    3    3    0    0 -0.56609017753E+02  0.53212442238E+02 -0.10859346272E+04  0.11200307402E+04  0.26301843915E+03 0.  0.
         25    1    3    3    0    0  0.56609017753E+02 -0.53212442238E+02 -0.23938866239E+03  0.28105263685E+03  0.12509000000E+03 0.  0.
         25    1    4    4    0    0 -0.20809774931E+02  0.22657814950E+02 -0.69618017087E+03  0.70799771308E+03  0.12509000000E+03 0.  0.
         25    1    4    4    0    0 -0.35799242822E+02  0.30554627288E+02 -0.38975445638E+03  0.41203302708E+03  0.12509000000E+03 0.  0.
<mgrwt>
<rscale>  2 0.45448081E+03</rscale>
<asrwt>0</asrwt>
<pdfrwt beam="1">  1       21 0.55705940E-02 0.45448081E+03</pdfrwt>
<pdfrwt beam="2">  1       21 0.20047110E+00 0.45448081E+03</pdfrwt>
<totfact> 0.26409532E+04</totfact>
</mgrwt>
</event>
<event>
 7    0  0.4766352E-002  0.4573963E+03  0.7546771E-02  0.1025539E+00
         21   -1    0    0  502  501  0.00000000000E+00  0.00000000000E+00  0.71813195574E+03  0.71813195574E+03  0.00000000000E+00 0.  1.
         21   -1    0    0  501  502 -0.00000000000E+00 -0.00000000000E+00 -0.72831803372E+02  0.72831803372E+02  0.00000000000E+00 0.  1.
      99926    2    1    2    0    0  0.00000000000E+00  0.71054273576E-14  0.64530015237E+03  0.79096375912E+03  0.45739630692E+03 0.  0.
      99925    2    3    3    0    0 -0.97824771713E+02  0.61301105418E+02  0.40452350888E+03  0.49609359848E+03  0.26294881198E+03 0.  0.
         25    1    4    4    0    0 -0.73708446782E+02  0.65951499354E+02  0.21493595154E+03  0.26763315706E+03  0.12509000000E+03 0.  0.
         25    1    4    4    0    0 -0.24116324931E+02 -0.46503939359E+01  0.18958755734E+03  0.22846044142E+03  0.12509000000E+03 0.  0.
         25    1    3    3    0    0  0.97824771713E+02 -0.61301105418E+02  0.24077664349E+03  0.29487016064E+03  0.12509000000E+03 0.  0.
<mgrwt>
<rscale>  2 0.45739631E+03</rscale>
<asrwt>0</asrwt>
<pdfrwt beam="1">  1       21 0.10560764E+00 0.45739631E+03</pdfrwt>
<pdfrwt beam="2">  1       21 0.10710560E-01 0.45739631E+03</pdfrwt>
<totfact> 0.47308968E+04</totfact>
</mgrwt>
</event>
<event>
 7    0  0.4766352E-002  0.4441278E+03  0.7546771E-02  0.1029488E+00
         21   -1    0    0  502  501  0.00000000000E+00  0.00000000000E+00  0.61052806817E+03  0.61052806817E+03  0.00000000000E+00 0.  1.
         21   -1    0    0  501  502 -0.00000000000E+00 -0.00000000000E+00 -0.80770026105E+02  0.80770026105E+02  0.00000000000E+00 0.  1.
      99926    2    1    2    0    0 -0.53290705182E-14  0.00000000000E+00  0.52975804206E+03  0.69129809427E+03  0.44412776542E+03 0.  0.
      99925    2    3    3    0    0 -0.10131187170E+02 -0.43078602998E+02  0.19249684624E+03  0.32887426876E+03  0.26295406795E+03 0.  0.
         25    1    4    4    0    0  0.29822141184E+02 -0.18923054075E+02  0.12019498374E+03  0.17703611015E+03  0.12509000000E+03 0.  0.
         25    1    4    4    0    0 -0.39953328353E+02 -0.24155548923E+02  0.72301862499E+02  0.15183815861E+03  0.12509000000E+03 0.  0.
         25    1    3    3    0    0  0.10131187170E+02  0.43078602998E+02  0.33726119582E+03  0.36242382551E+03  0.12509000000E+03 0.  0.
<mgrwt>
<rscale>  2 0.44412777E+03</rscale>
<asrwt>0</asrwt>
<pdfrwt beam="1">  1       21 0.89783537E-01 0.44412777E+03</pdfrwt>
<pdfrwt beam="2">  1       21 0.11877945E-01 0.44412777E+03</pdfrwt>
<totfact> 0.58201295E+04</totfact>
</mgrwt>
</event>
<event>
 7    0  0.4766352E-002  0.4517556E+03  0.7546771E-02  0.1027200E+00
         21   -1    0    0  502  501  0.00000000000E+00  0.00000000000E+00  0.31616314727E+03  0.31616314727E+03  0.00000000000E+00 0.  1.
         21   -1    0    0  501  502 -0.00000000000E+00 -0.00000000000E+00 -0.16137482122E+03  0.16137482122E+03  0.00000000000E+00 0.  1.
      99926    2    1    2    0    0  0.00000000000E+00  0.00000000000E+00  0.15478832605E+03  0.47753796850E+03  0.45175555943E+03 0.  0.
      99925    2    3    3    0    0 -0.42064345278E+02 -0.89430465358E+02  0.46420233880E+02  0.28477290741E+03  0.26300865651E+03 0.  0.
         25    1    4    4    0    0 -0.20299651890E+02 -0.80353144697E+02  0.47763517948E+02  0.15747242767E+03  0.12509000000E+03 0.  0.
         25    1    3    3    0    0  0.42064345278E+02  0.89430465358E+02  0.10836809217E+03  0.19276506109E+03  0.12509000000E+03 0.  0.
         25    1    4    4    0    0 -0.21764693388E+02 -0.90773206610E+01 -0.13432840676E+01  0.12730047973E+03  0.12509000000E+03 0.  0.
<mgrwt>
<rscale>  2 0.45175556E+03</rscale>
<asrwt>0</asrwt>
<pdfrwt beam="1">  1       21 0.46494581E-01 0.45175556E+03</pdfrwt>
<pdfrwt beam="2">  1       21 0.23731591E-01 0.45175556E+03</pdfrwt>
<totfact> 0.68630166E+04</totfact>
</mgrwt>
</event>
<event>
 7    0  0.4766352E-002  0.4553851E+03  0.7546771E-02  0.1026128E+00
         21   -1    0    0  502  501  0.00000000000E+00  0.00000000000E+00  0.38081418883E+03  0.38081418883E+03  0.00000000000E+00 0.  1.
         21   -1    0    0  501  502 -0.00000000000E+00 -0.00000000000E+00 -0.13613959370E+03  0.13613959370E+03  0.00000000000E+00 0.  1.
      99926    2    1    2    0    0  0.00000000000E+00  0.00000000000E+00  0.24467459513E+03  0.51695378252E+03  0.45538506317E+03 0.  0.
      99925    2    3    3    0    0  0.60894967747E+02 -0.34965056452E+02  0.25556315036E+03  0.37308988502E+03  0.26258862544E+03 0.  0.
         25    1    4    4    0    0 -0.28921670692E+01 -0.30853316802E+02  0.14743972002E+03  0.19582203892E+03  0.12509000000E+03 0.  0.
         25    1    4    4    0    0  0.63787134816E+02 -0.41117396499E+01  0.10812343034E+03  0.17726784609E+03  0.12509000000E+03 0.  0.
         25    1    3    3    0    0 -0.60894967747E+02  0.34965056452E+02 -0.10888555230E+02  0.14386389750E+03  0.12509000000E+03 0.  0.
<mgrwt>
<rscale>  2 0.45538506E+03</rscale>
<asrwt>0</asrwt>
<pdfrwt beam="1">  1       21 0.56002086E-01 0.45538506E+03</pdfrwt>
<pdfrwt beam="2">  1       21 0.20020529E-01 0.45538506E+03</pdfrwt>
<totfact> 0.63899831E+04</totfact>
</mgrwt>
</event>
<event>
 7    0  0.4766352E-002  0.4227347E+03  0.7546771E-02  0.1036180E+00
         21   -1    0    0  502  501  0.00000000000E+00  0.00000000000E+00  0.78955652556E+02  0.78955652556E+02  0.00000000000E+00 0. -1.
         21   -1    0    0  501  502 -0.00000000000E+00 -0.00000000000E+00 -0.56583848592E+03  0.56583848592E+03  0.00000000000E+00 0. -1.
      99926    2    1    2    0    0  0.00000000000E+00  0.71054273576E-14 -0.48688283336E+03  0.64479413847E+03  0.42273465388E+03 0.  0.
      99925    2    3    3    0    0  0.66862544545E+02 -0.39858739878E+02 -0.33849552315E+03  0.43568741706E+03  0.26303039213E+03 0.  0.
         25    1    4    4    0    0  0.14399656984E+02 -0.39758950805E+02 -0.21463346222E+03  0.25199832439E+03  0.12509000000E+03 0.  0.
         25    1    3    3    0    0 -0.66862544545E+02  0.39858739878E+02 -0.14838731021E+03  0.20910672141E+03  0.12509000000E+03 0.  0.
         25    1    4    4    0    0  0.52462887561E+02 -0.99789072957E-01 -0.12386206093E+03  0.18368909267E+03  0.12509000000E+03 0.  0.
<mgrwt>
<rscale>  2 0.42273465E+03</rscale>
<asrwt>0</asrwt>
<pdfrwt beam="1">  1       21 0.11611126E-01 0.42273465E+03</pdfrwt>
<pdfrwt beam="2">  1       21 0.83211539E-01 0.42273465E+03</pdfrwt>
<totfact> 0.72838625E+04</totfact>
</mgrwt>
</event>
<event>
 7    0  0.4766352E-002  0.4568290E+03  0.7546771E-02  0.1025705E+00
         21   -1    0    0  502  501  0.00000000000E+00  0.00000000000E+00  0.49027750518E+03  0.49027750518E+03  0.00000000000E+00 0.  1.
         21   -1    0    0  501  502 -0.00000000000E+00 -0.00000000000E+00 -0.10641562022E+03  0.10641562022E+03  0.00000000000E+00 0.  1.
      99926    2    1    2    0    0  0.00000000000E+00  0.00000000000E+00  0.38386188496E+03  0.59669312540E+03  0.45682900430E+03 0.  0.
      99925    2    3    3    0    0 -0.82357249621E+02  0.78594473549E+02  0.22087293410E+03  0.36180439847E+03  0.26297863391E+03 0.  0.
         25    1    3    3    0    0  0.82357249621E+02 -0.78594473549E+02  0.16298895086E+03  0.23488872693E+03  0.12509000000E+03 0.  0.
         25    1    4    4    0    0 -0.17103742024E+02  0.65850687782E+02  0.86848539780E+02  0.16679037153E+03  0.12509000000E+03 0.  0.
         25    1    4    4    0    0 -0.65253507596E+02  0.12743785767E+02  0.13402439432E+03  0.19501402694E+03  0.12509000000E+03 0.  0.
<mgrwt>
<rscale>  2 0.45682900E+03</rscale>
<asrwt>0</asrwt>
<pdfrwt beam="1">  1       21 0.72099632E-01 0.45682900E+03</pdfrwt>
<pdfrwt beam="2">  1       21 0.15649356E-01 0.45682900E+03</pdfrwt>
<totfact> 0.58038885E+04</totfact>
</mgrwt>
</event>
<event>
 7    0  0.4766352E-002  0.4649314E+03  0.7546771E-02  0.1023361E+00
         21   -1    0    0  502  501  0.00000000000E+00  0.00000000000E+00  0.14710749368E+03  0.14710749368E+03  0.00000000000E+00 0. -1.
         21   -1    0    0  501  502 -0.00000000000E+00 -0.00000000000E+00 -0.36735247944E+03  0.36735247944E+03  0.00000000000E+00 0. -1.
      99926    2    1    2    0    0  0.00000000000E+00  0.00000000000E+00 -0.22024498575E+03  0.51445997312E+03  0.46493140375E+03 0.  0.
      99925    2    3    3    0    0  0.91763223724E+02  0.79114435592E+02 -0.15486068140E+03  0.32844331122E+03  0.26308476751E+03 0.  0.
         25    1    4    4    0    0  0.32656185043E+02  0.37441908422E+02 -0.30974358324E+02  0.13811314891E+03  0.12509000000E+03 0.  0.
         25    1    4    4    0    0  0.59107038682E+02  0.41672527170E+02 -0.12388632307E+03  0.19033016231E+03  0.12509000000E+03 0.  0.
         25    1    3    3    0    0 -0.91763223724E+02 -0.79114435592E+02 -0.65384304355E+02  0.18601666190E+03  0.12509000000E+03 0.  0.
<mgrwt>
<rscale>  2 0.46493140E+03</rscale>
<asrwt>0</asrwt>
<pdfrwt beam="1">  1       21 0.21633455E-01 0.46493140E+03</pdfrwt>
<pdfrwt beam="2">  1       21 0.54022424E-01 0.46493140E+03</pdfrwt>
<totfact> 0.59441090E+04</totfact>
</mgrwt>
</event>
<event>
 7    0  0.4766352E-002  0.4616967E+03  0.7546771E-02  0.1024290E+00
         21   -1    0    0  502  501  0.00000000000E+00  0.00000000000E+00  0.11097597410E+03  0.11097597410E+03  0.00000000000E+00 0.  1.
         21   -1    0    0  501  502 -0.00000000000E+00 -0.00000000000E+00 -0.48020266244E+03  0.48020266244E+03  0.00000000000E+00 0.  1.
      99926    2    1    2    0    0  0.00000000000E+00  0.00000000000E+00 -0.36922668834E+03  0.59117863655E+03  0.46169668932E+03 0.  0.
      99925    2    3    3    0    0  0.21383733818E+02 -0.25568551292E+02 -0.84155755993E+02  0.27809085420E+03  0.26294736552E+03 0.  0.
         25    1    4    4    0    0  0.19019856373E+02 -0.32130916211E+01 -0.16767057795E+01  0.12657961264E+03  0.12509000000E+03 0.  0.
         25    1    4    4    0    0  0.23638774452E+01 -0.22355459671E+02 -0.82479050213E+02  0.15151124156E+03  0.12509000000E+03 0.  0.
         25    1    3    3    0    0 -0.21383733818E+02  0.25568551292E+02 -0.28507093235E+03  0.31308778235E+03  0.12509000000E+03 0.  0.
<mgrwt>
<rscale>  2 0.46169669E+03</rscale>
<asrwt>0</asrwt>
<pdfrwt beam="1">  1       21 0.16319996E-01 0.46169669E+03</pdfrwt>
<pdfrwt beam="2">  1       21 0.70618038E-01 0.46169669E+03</pdfrwt>
<totfact> 0.56190948E+04</totfact>
</mgrwt>
</event>
<event>
 7    0  0.4766352E-002  0.4487330E+03  0.7546771E-02  0.1028101E+00
         21   -1    0    0  502  501  0.00000000000E+00  0.00000000000E+00  0.39897351591E+02  0.39897351591E+02  0.00000000000E+00 0. -1.
         21   -1    0    0  501  502 -0.00000000000E+00 -0.00000000000E+00 -0.12617462336E+04  0.12617462336E+04  0.00000000000E+00 0. -1.
      99926    2    1    2    0    0  0.00000000000E+00  0.17763568394E-14 -0.12218488820E+04  0.13016435851E+04  0.44873303020E+03 0.  0.
      99925    2    3    3    0    0  0.73248212801E+02 -0.10239810848E+02 -0.54843126377E+03  0.61272490272E+03  0.26303003807E+03 0.  0.
         25    1    3    3    0    0 -0.73248212801E+02  0.10239810848E+02 -0.67341761820E+03  0.68891868243E+03  0.12509000000E+03 0.  0.
         25    1    4    4    0    0  0.44427926430E+02 -0.32801805319E+00 -0.36686743328E+03  0.39014506270E+03  0.12509000000E+03 0.  0.
         25    1    4    4    0    0  0.28820286371E+02 -0.99117927949E+01 -0.18156383049E+03  0.22257984002E+03  0.12509000000E+03 0.  0.
<mgrwt>
<rscale>  2 0.44873303E+03</rscale>
<asrwt>0</asrwt>
<pdfrwt beam="1">  1       21 0.58672576E-02 0.44873303E+03</pdfrwt>
<pdfrwt beam="2">  1       21 0.18555092E+00 0.44873303E+03</pdfrwt>
<totfact> 0.30527968E+04</totfact>
</mgrwt>
</event>
<event>
 7    0  0.4766352E-002  0.4303027E+03  0.7546771E-02  0.1033764E+00
         21   -1    0    0  502  501  0.00000000000E+00  0.00000000000E+00  0.58377989540E+03  0.58377989540E+03  0.00000000000E+00 0.  1.
         21   -1    0    0  501  502 -0.00000000000E+00 -0.00000000000E+00 -0.79293771222E+02  0.79293771222E+02  0.00000000000E+00 0.  1.
      99926    2    1    2    0    0  0.00000000000E+00  0.00000000000E+00  0.50448612418E+03  0.66307366662E+03  0.43030272818E+03 0.  0.
      99925    2    3    3    0    0  0.28179580753E+02  0.82156109850E+02  0.34824877896E+03  0.44489637335E+03  0.26289133843E+03 0.  0.
         25    1    4    4    0    0  0.54434520998E+01  0.70491409007E+02  0.22806501580E+03  0.26955487279E+03  0.12509000000E+03 0.  0.
         25    1    3    3    0    0 -0.28179580753E+02 -0.82156109850E+02  0.15623734522E+03  0.21817729327E+03  0.12509000000E+03 0.  0.
         25    1    4    4    0    0  0.22736128654E+02  0.11664700843E+02  0.12018376316E+03  0.17534150056E+03  0.12509000000E+03 0.  0.
<mgrwt>
<rscale>  2 0.43030273E+03</rscale>
<asrwt>0</asrwt>
<pdfrwt beam="1">  1       21 0.85849982E-01 0.43030273E+03</pdfrwt>
<pdfrwt beam="2">  1       21 0.11660849E-01 0.43030273E+03</pdfrwt>
<totfact> 0.67085481E+04</totfact>
</mgrwt>
</event>
<event>
 7    0  0.4766352E-002  0.4498778E+03  0.7546771E-02  0.1027758E+00
         21   -1    0    0  502  501  0.00000000000E+00  0.00000000000E+00  0.58711177328E+03  0.58711177328E+03  0.00000000000E+00 0.  1.
         21   -1    0    0  501  502 -0.00000000000E+00 -0.00000000000E+00 -0.86180361061E+02  0.86180361061E+02  0.00000000000E+00 0.  1.
      99926    2    1    2    0    0  0.14210854715E-13 -0.71054273576E-14  0.50093141222E+03  0.67329213434E+03  0.44987778164E+03 0.  0.
      99925    2    3    3    0    0  0.89295301523E+02 -0.33599064876E+02  0.39333018708E+03  0.48269286943E+03  0.26302323489E+03 0.  0.
         25    1    3    3    0    0 -0.89295301523E+02  0.33599064876E+02  0.10760122513E+03  0.19059926491E+03  0.12509000000E+03 0.  0.
         25    1    4    4    0    0  0.22401111484E+02  0.84874222010E+01  0.13959005434E+03  0.18896226476E+03  0.12509000000E+03 0.  0.
         25    1    4    4    0    0  0.66894190039E+02 -0.42086487077E+02  0.25374013274E+03  0.29373060467E+03  0.12509000000E+03 0.  0.
<mgrwt>
<rscale>  2 0.44987778E+03</rscale>
<asrwt>0</asrwt>
<pdfrwt beam="1">  1       21 0.86339964E-01 0.44987778E+03</pdfrwt>
<pdfrwt beam="2">  1       21 0.12673583E-01 0.44987778E+03</pdfrwt>
<totfact> 0.56627998E+04</totfact>
</mgrwt>
</event>
<event>
 7    0  0.4766352E-002  0.4503215E+03  0.7546771E-02  0.1027626E+00
         21   -1    0    0  502  501  0.00000000000E+00  0.00000000000E+00  0.96698917012E+02  0.96698917012E+02  0.00000000000E+00 0.  1.
         21   -1    0    0  501  502 -0.00000000000E+00 -0.00000000000E+00 -0.52428065185E+03  0.52428065185E+03  0.00000000000E+00 0.  1.
      99926    2    1    2    0    0  0.00000000000E+00  0.00000000000E+00 -0.42758173483E+03  0.62097956886E+03  0.45032153510E+03 0.  0.
      99925    2    3    3    0    0 -0.88860953487E+02 -0.77436934487E+01 -0.18454822726E+03  0.33345734755E+03  0.26302000039E+03 0.  0.
         25    1    4    4    0    0 -0.23676440958E+02 -0.15414620463E+02 -0.12831637498E+03  0.18141329766E+03  0.12509000000E+03 0.  0.
         25    1    4    4    0    0 -0.65184512528E+02  0.76709270144E+01 -0.56231852275E+02  0.15204404988E+03  0.12509000000E+03 0.  0.
         25    1    3    3    0    0  0.88860953487E+02  0.77436934487E+01 -0.24303350758E+03  0.28752222131E+03  0.12509000000E+03 0.  0.
<mgrwt>
<rscale>  2 0.45032154E+03</rscale>
<asrwt>0</asrwt>
<pdfrwt beam="1">  1       21 0.14220429E-01 0.45032154E+03</pdfrwt>
<pdfrwt beam="2">  1       21 0.77100094E-01 0.45032154E+03</pdfrwt>
<totfact> 0.59575646E+04</totfact>
</mgrwt>
</event>
<event>
 7    0  0.4766352E-002  0.4583091E+03  0.7546771E-02  0.1025273E+00
         21   -1    0    0  502  501  0.00000000000E+00  0.00000000000E+00  0.21307622087E+03  0.21307622087E+03  0.00000000000E+00 0. -1.
         21   -1    0    0  501  502 -0.00000000000E+00 -0.00000000000E+00 -0.24644615815E+03  0.24644615815E+03  0.00000000000E+00 0. -1.
      99926    2    1    2    0    0  0.00000000000E+00 -0.14210854715E-13 -0.33369937272E+02  0.45952237902E+03  0.45830913596E+03 0.  0.
      99925    2    3    3    0    0 -0.54099560214E+02  0.64804541861E+02 -0.10081428706E+03  0.29422676662E+03  0.26320995167E+03 0.  0.
         25    1    4    4    0    0 -0.39996522044E+02  0.40839480150E+02 -0.11465621284E+02  0.13800925145E+03  0.12509000000E+03 0.  0.
         25    1    3    3    0    0  0.54099560214E+02 -0.64804541861E+02  0.67444349789E+02  0.16529561240E+03  0.12509000000E+03 0.  0.
         25    1    4    4    0    0 -0.14103038170E+02  0.23965061712E+02 -0.89348665778E+02  0.15621751517E+03  0.12509000000E+03 0.  0.
<mgrwt>
<rscale>  2 0.45830914E+03</rscale>
<asrwt>0</asrwt>
<pdfrwt beam="1">  1       21 0.31334738E-01 0.45830914E+03</pdfrwt>
<pdfrwt beam="2">  1       21 0.36242082E-01 0.45830914E+03</pdfrwt>
<totfact> 0.66444072E+04</totfact>
</mgrwt>
</event>
<event>
 7    0  0.4766352E-002  0.4398443E+03  0.7546771E-02  0.1030795E+00
         21   -1    0    0  502  501  0.00000000000E+00  0.00000000000E+00  0.97272928513E+03  0.97272928513E+03  0.00000000000E+00 0. -1.
         21   -1    0    0  501  502 -0.00000000000E+00 -0.00000000000E+00 -0.49721705538E+02  0.49721705538E+02  0.00000000000E+00 0. -1.
      99926    2    1    2    0    0 -0.71054273576E-14  0.00000000000E+00  0.92300757960E+03  0.10224509907E+04  0.43984433193E+03 0.  0.
      99925    2    3    3    0    0  0.46565574103E+02 -0.19318830285E+02  0.39306666841E+03  0.47561788327E+03  0.26300075130E+03 0.  0.
         25    1    4    4    0    0 -0.11584735365E+01 -0.76965531743E+01  0.24799152960E+03  0.27786307032E+03  0.12509000000E+03 0.  0.
         25    1    3    3    0    0 -0.46565574103E+02  0.19318830285E+02  0.52994091119E+03  0.54683310740E+03  0.12509000000E+03 0.  0.
         25    1    4    4    0    0  0.47724047640E+02 -0.11622277111E+02  0.14507513881E+03  0.19775481296E+03  0.12509000000E+03 0.  0.
<mgrwt>
<rscale>  2 0.43984433E+03</rscale>
<asrwt>0</asrwt>
<pdfrwt beam="1">  1       21 0.14304841E+00 0.43984433E+03</pdfrwt>
<pdfrwt beam="2">  1       21 0.73120161E-02 0.43984433E+03</pdfrwt>
<totfact> 0.43193912E+04</totfact>
</mgrwt>
</event>
<event>
 7    0  0.4766352E-002  0.4572852E+03  0.7546771E-02  0.1025572E+00
         21   -1    0    0  502  501  0.00000000000E+00  0.00000000000E+00  0.25694740176E+04  0.25694740176E+04  0.00000000000E+00 0.  1.
         21   -1    0    0  501  502 -0.00000000000E+00 -0.00000000000E+00 -0.20345581562E+02  0.20345581562E+02  0.00000000000E+00 0.  1.
      99926    2    1    2    0    0  0.00000000000E+00  0.00000000000E+00  0.25491284361E+04  0.25898195992E+04  0.45728522039E+03 0.  0.
      99925    2    3    3    0    0 -0.50888414048E+02 -0.86132706468E+02  0.12739691722E+04  0.13046397946E+04  0.26282897124E+03 0.  0.
         25    1    4    4    0    0  0.96187051895E+01 -0.61924217227E+02  0.60597707410E+03  0.62191868488E+03  0.12509000000E+03 0.  0.
         25    1    4    4    0    0 -0.60507119237E+02 -0.24208489242E+02  0.66799209815E+03  0.68272110976E+03  0.12509000000E+03 0.  0.
         25    1    3    3    0    0  0.50888414048E+02  0.86132706468E+02  0.12751592638E+04  0.12851798046E+04  0.12509000000E+03 0.  0.
<mgrwt>
<rscale>  2 0.45728522E+03</rscale>
<asrwt>0</asrwt>
<pdfrwt beam="1">  1       21 0.37786360E+00 0.45728522E+03</pdfrwt>
<pdfrwt beam="2">  1       21 0.29919991E-02 0.45728522E+03</pdfrwt>
<totfact> 0.61459305E+03</totfact>
</mgrwt>
</event>
<event>
 7    0  0.4766352E-002  0.4552441E+03  0.7546771E-02  0.1026170E+00
         21   -1    0    0  502  501  0.00000000000E+00  0.00000000000E+00  0.20011207427E+03  0.20011207427E+03  0.00000000000E+00 0. -1.
         21   -1    0    0  501  502 -0.00000000000E+00 -0.00000000000E+00 -0.25891388253E+03  0.25891388253E+03  0.00000000000E+00 0. -1.
      99926    2    1    2    0    0  0.00000000000E+00  0.00000000000E+00 -0.58801808255E+02  0.45902595680E+03  0.45524408438E+03 0.  0.
      99925    2    3    3    0    0  0.56709857135E+02 -0.95321047172E+02 -0.14449802986E+02  0.28606145640E+03  0.26328739069E+03 0.  0.
         25    1    4    4    0    0  0.12780631327E+02 -0.61887302964E+02 -0.42572015757E+02  0.14646933956E+03  0.12509000000E+03 0.  0.
         25    1    3    3    0    0 -0.56709857135E+02  0.95321047172E+02 -0.44352005269E+02  0.17296450041E+03  0.12509000000E+03 0.  0.
         25    1    4    4    0    0  0.43929225807E+02 -0.33433744208E+02  0.28122212770E+02  0.13959211684E+03  0.12509000000E+03 0.  0.
<mgrwt>
<rscale>  2 0.45524408E+03</rscale>
<asrwt>0</asrwt>
<pdfrwt beam="1">  1       21 0.29428246E-01 0.45524408E+03</pdfrwt>
<pdfrwt beam="2">  1       21 0.38075571E-01 0.45524408E+03</pdfrwt>
<totfact> 0.68118903E+04</totfact>
</mgrwt>
</event>
<event>
 7    0  0.4766352E-002  0.4558217E+03  0.7546771E-02  0.1026000E+00
         21   -1    0    0  502  501  0.00000000000E+00  0.00000000000E+00  0.14624540828E+03  0.14624540828E+03  0.00000000000E+00 0.  1.
         21   -1    0    0  501  502 -0.00000000000E+00 -0.00000000000E+00 -0.35517934288E+03  0.35517934288E+03  0.00000000000E+00 0.  1.
      99926    2    1    2    0    0  0.00000000000E+00  0.00000000000E+00 -0.20893393460E+03  0.50142475116E+03  0.45582166694E+03 0.  0.
      99925    2    3    3    0    0  0.90926308443E+02 -0.23290172792E+02 -0.20246539196E+03  0.34490198649E+03  0.26297361014E+03 0.  0.
         25    1    4    4    0    0  0.59292476553E+02 -0.44612612538E+02 -0.13167890452E+03  0.19619562933E+03  0.12509000000E+03 0.  0.
         25    1    3    3    0    0 -0.90926308443E+02  0.23290172792E+02 -0.64685426448E+01  0.15652276467E+03  0.12509000000E+03 0.  0.
         25    1    4    4    0    0  0.31633831890E+02  0.21322439746E+02 -0.70786487440E+02  0.14870635716E+03  0.12509000000E+03 0.  0.
<mgrwt>
<rscale>  2 0.45582167E+03</rscale>
<asrwt>0</asrwt>
<pdfrwt beam="1">  1       21 0.21506678E-01 0.45582167E+03</pdfrwt>
<pdfrwt beam="2">  1       21 0.52232255E-01 0.45582167E+03</pdfrwt>
<totfact> 0.64747350E+04</totfact>
</mgrwt>
</event>
<event>
 7    0  0.4766352E-002  0.4495683E+03  0.7546771E-02  0.1027851E+00
         21   -1    0    0  502  501  0.00000000000E+00  0.00000000000E+00  0.26872736368E+03  0.26872736368E+03  0.00000000000E+00 0. -1.
         21   -1    0    0  501  502 -0.00000000000E+00 -0.00000000000E+00 -0.18802666332E+03  0.18802666332E+03  0.00000000000E+00 0. -1.
      99926    2    1    2    0    0 -0.35527136788E-14  0.00000000000E+00  0.80700700367E+02  0.45675402700E+03  0.44956827973E+03 0.  0.
      99925    2    3    3    0    0 -0.26782100816E+02  0.10363887016E+03  0.37948088859E+02  0.28665526092E+03  0.26319742558E+03 0.  0.
         25    1    4    4    0    0 -0.25182091472E+02  0.89466810582E+02  0.39413470437E+02  0.16074631467E+03  0.12509000000E+03 0.  0.
         25    1    4    4    0    0 -0.16000093444E+01  0.14172059579E+02 -0.14653815777E+01  0.12590894625E+03  0.12509000000E+03 0.  0.
         25    1    3    3    0    0  0.26782100816E+02 -0.10363887016E+03  0.42752611507E+02  0.17009876608E+03  0.12509000000E+03 0.  0.
<mgrwt>
<rscale>  2 0.44956828E+03</rscale>
<asrwt>0</asrwt>
<pdfrwt beam="1">  1       21 0.39518730E-01 0.44956828E+03</pdfrwt>
<pdfrwt beam="2">  1       21 0.27650980E-01 0.44956828E+03</pdfrwt>
<totfact> 0.71462832E+04</totfact>
</mgrwt>
</event>
<event>
 6    0  0.4766352E-002  0.4528237E+03  0.7546771E-02  0.1026883E+00
         21   -1    0    0  502  501  0.00000000000E+00  0.00000000000E+00  0.13838379297E+03  0.13838379297E+03  0.00000000000E+00 0. -1.
         21   -1    0    0  501  502 -0.00000000000E+00 -0.00000000000E+00 -0.37043587231E+03  0.37043587231E+03  0.00000000000E+00 0. -1.
      99926    2    1    2    0    0  0.00000000000E+00  0.00000000000E+00 -0.23205207934E+03  0.50881966528E+03  0.45282367899E+03 0.  0.
         25    1    3    3    0    0 -0.46918532473E+01 -0.52575796475E+01 -0.16047783428E+03  0.20359346509E+03  0.12509000000E+03 0.  0.
         25    1    3    3    0    0  0.24225967456E+02 -0.52184662327E+02  0.19446355414E+02  0.13905324635E+03  0.12509000000E+03 0.  0.
         25    1    3    3    0    0 -0.19534114209E+02  0.57442241974E+02 -0.91020600472E+02  0.16617295385E+03  0.12509000000E+03 0.  0.
<mgrwt>
<rscale>  2 0.45282368E+03</rscale>
<asrwt>0</asrwt>
<pdfrwt beam="1">  1       21 0.20350558E-01 0.45282368E+03</pdfrwt>
<pdfrwt beam="2">  1       21 0.54475863E-01 0.45282368E+03</pdfrwt>
<totfact> 0.65784285E+04</totfact>
</mgrwt>
</event>
<event>
 7    0  0.4766352E-002  0.4608726E+03  0.7546771E-02  0.1024528E+00
         21   -1    0    0  502  501  0.00000000000E+00  0.00000000000E+00  0.49224427727E+03  0.49224427727E+03  0.00000000000E+00 0.  1.
         21   -1    0    0  501  502 -0.00000000000E+00 -0.00000000000E+00 -0.10787509517E+03  0.10787509517E+03  0.00000000000E+00 0.  1.
      99926    2    1    2    0    0  0.00000000000E+00  0.00000000000E+00  0.38436918210E+03  0.60011937245E+03  0.46087264297E+03 0.  0.
      99925    2    3    3    0    0 -0.71604701604E+02  0.82277790239E+02  0.30100393050E+03  0.41439338791E+03  0.26310006786E+03 0.  0.
         25    1    4    4    0    0 -0.25542325228E+02  0.57505736884E+02  0.10052795868E+03  0.17237371821E+03  0.12509000000E+03 0.  0.
         25    1    3    3    0    0  0.71604701604E+02 -0.82277790239E+02  0.83365251601E+02  0.18572598454E+03  0.12509000000E+03 0.  0.
         25    1    4    4    0    0 -0.46062376376E+02  0.24772053355E+02  0.20047597182E+03  0.24201966970E+03  0.12509000000E+03 0.  0.
<mgrwt>
<rscale>  2 0.46087264E+03</rscale>
<asrwt>0</asrwt>
<pdfrwt beam="1">  1       21 0.72388863E-01 0.46087264E+03</pdfrwt>
<pdfrwt beam="2">  1       21 0.15863985E-01 0.46087264E+03</pdfrwt>
<totfact> 0.56025585E+04</totfact>
</mgrwt>
</event>
<event>
 7    0  0.4766352E-002  0.4524813E+03  0.7546771E-02  0.1026985E+00
         21   -1    0    0  502  501  0.00000000000E+00  0.00000000000E+00  0.99651964234E+03  0.99651964234E+03  0.00000000000E+00 0.  1.
         21   -1    0    0  501  502 -0.00000000000E+00 -0.00000000000E+00 -0.51363604769E+02  0.51363604769E+02  0.00000000000E+00 0.  1.
      99926    2    1    2    0    0  0.14210854715E-13  0.00000000000E+00  0.94515603757E+03  0.10478832471E+04  0.45248134129E+03 0.  0.
      99925    2    3    3    0    0  0.10438459080E+03  0.23472935578E+02  0.52905510510E+03  0.60040742027E+03  0.26294988987E+03 0.  0.
         25    1    3    3    0    0 -0.10438459080E+03 -0.23472935578E+02  0.41610093248E+03  0.44747582684E+03  0.12509000000E+03 0.  0.
         25    1    4    4    0    0  0.81470751323E+02  0.13712667579E+02  0.34822021350E+03  0.37911785208E+03  0.12509000000E+03 0.  0.
         25    1    4    4    0    0  0.22913839482E+02  0.97602679987E+01  0.18083489159E+03  0.22128956819E+03  0.12509000000E+03 0.  0.
<mgrwt>
<rscale>  2 0.45248134E+03</rscale>
<asrwt>0</asrwt>
<pdfrwt beam="1">  1       21 0.14654699E+00 0.45248134E+03</pdfrwt>
<pdfrwt beam="2">  1       21 0.75534719E-02 0.45248134E+03</pdfrwt>
<totfact> 0.38098648E+04</totfact>
</mgrwt>
</event>
<event>
 7    0  0.4766352E-002  0.4598589E+03  0.7546771E-02  0.1024822E+00
         21   -1    0    0  502  501  0.00000000000E+00  0.00000000000E+00  0.42334628643E+03  0.42334628643E+03  0.00000000000E+00 0.  1.
         21   -1    0    0  501  502 -0.00000000000E+00 -0.00000000000E+00 -0.12488013791E+03  0.12488013791E+03  0.00000000000E+00 0.  1.
      99926    2    1    2    0    0  0.00000000000E+00  0.00000000000E+00  0.29846614852E+03  0.54822642434E+03  0.45985885936E+03 0.  0.
      99925    2    3    3    0    0  0.66169906907E+02 -0.90942978722E+02  0.22767505971E+03  0.36572171669E+03  0.26318692841E+03 0.  0.
         25    1    4    4    0    0  0.11133520127E+02 -0.66217225594E+02  0.79831828808E+02  0.16287819138E+03  0.12509000000E+03 0.  0.
         25    1    4    4    0    0  0.55036386779E+02 -0.24725753128E+02  0.14784323090E+03  0.20284352531E+03  0.12509000000E+03 0.  0.
         25    1    3    3    0    0 -0.66169906907E+02  0.90942978722E+02  0.70791088807E+02  0.18250470765E+03  0.12509000000E+03 0.  0.
<mgrwt>
<rscale>  2 0.45985886E+03</rscale>
<asrwt>0</asrwt>
<pdfrwt beam="1">  1       21 0.62256807E-01 0.45985886E+03</pdfrwt>
<pdfrwt beam="2">  1       21 0.18364726E-01 0.45985886E+03</pdfrwt>
<totfact> 0.59657051E+04</totfact>
</mgrwt>
</event>
<event>
 7    0  0.4766352E-002  0.4666653E+03  0.7546771E-02  0.1022866E+00
         21   -1    0    0  502  501  0.00000000000E+00  0.00000000000E+00  0.49013771082E+03  0.49013771082E+03  0.00000000000E+00 0. -1.
         21   -1    0    0  501  502 -0.00000000000E+00 -0.00000000000E+00 -0.11107925128E+03  0.11107925128E+03  0.00000000000E+00 0. -1.
      99926    2    1    2    0    0  0.00000000000E+00  0.14210854715E-13  0.37905845954E+03  0.60121696211E+03  0.46666531881E+03 0.  0.
      99925    2    3    3    0    0 -0.14401356728E+02  0.12071754822E+03  0.20549531731E+03  0.35514421277E+03  0.26290485144E+03 0.  0.
         25    1    4    4    0    0 -0.30796887546E+02  0.25536909151E+02  0.85449673923E+02  0.15668355652E+03  0.12509000000E+03 0.  0.
         25    1    3    3    0    0  0.14401356728E+02 -0.12071754822E+03  0.17356314223E+03  0.24607274933E+03  0.12509000000E+03 0.  0.
         25    1    4    4    0    0  0.16395530818E+02  0.95180639066E+02  0.12004564338E+03  0.19846065625E+03  0.12509000000E+03 0.  0.
<mgrwt>
<rscale>  2 0.46666532E+03</rscale>
<asrwt>0</asrwt>
<pdfrwt beam="1">  1       21 0.72079075E-01 0.46666532E+03</pdfrwt>
<pdfrwt beam="2">  1       21 0.16335184E-01 0.46666532E+03</pdfrwt>
<totfact> 0.53499084E+04</totfact>
</mgrwt>
</event>
<event>
 7    0  0.4766352E-002  0.4547957E+03  0.7546771E-02  0.1026302E+00
         21   -1    0    0  502  501  0.00000000000E+00  0.00000000000E+00  0.45454863178E+03  0.45454863178E+03  0.00000000000E+00 0.  1.
         21   -1    0    0  501  502 -0.00000000000E+00 -0.00000000000E+00 -0.11376070385E+03  0.11376070385E+03  0.00000000000E+00 0.  1.
      99926    2    1    2    0    0  0.00000000000E+00  0.22204460493E-14  0.34078792794E+03  0.56830933563E+03  0.45479565646E+03 0.  0.
      99925    2    3    3    0    0 -0.57176191727E+02 -0.39992219773E+01  0.33601180121E+03  0.43063061482E+03  0.26316094922E+03 0.  0.
         25    1    4    4    0    0 -0.39820146578E+02 -0.40927180991E+02  0.16249259571E+03  0.21286622555E+03  0.12509000000E+03 0.  0.
         25    1    3    3    0    0  0.57176191727E+02  0.39992219773E+01  0.47761267318E+01  0.13767872081E+03  0.12509000000E+03 0.  0.
         25    1    4    4    0    0 -0.17356045148E+02  0.36927959013E+02  0.17351920549E+03  0.21776438927E+03  0.12509000000E+03 0.  0.
<mgrwt>
<rscale>  2 0.45479566E+03</rscale>
<asrwt>0</asrwt>
<pdfrwt beam="1">  1       21 0.66845386E-01 0.45479566E+03</pdfrwt>
<pdfrwt beam="2">  1       21 0.16729515E-01 0.45479566E+03</pdfrwt>
<totfact> 0.60770730E+04</totfact>
</mgrwt>
</event>
<event>
 7    0  0.4766352E-002  0.4543118E+03  0.7546771E-02  0.1026444E+00
         21   -1    0    0  502  501  0.00000000000E+00  0.00000000000E+00  0.36419872486E+03  0.36419872486E+03  0.00000000000E+00 0. -1.
         21   -1    0    0  501  502 -0.00000000000E+00 -0.00000000000E+00 -0.14168036229E+03  0.14168036229E+03  0.00000000000E+00 0. -1.
      99926    2    1    2    0    0 -0.71054273576E-14  0.00000000000E+00  0.22251836257E+03  0.50587908715E+03  0.45431181928E+03 0.  0.
      99925    2    3    3    0    0 -0.39913417673E+02  0.79006545818E+02  0.21751471692E+03  0.35255700863E+03  0.26296136040E+03 0.  0.
         25    1    4    4    0    0  0.27178310061E+01  0.26004327913E+02  0.63129928670E+02  0.14253598728E+03  0.12509000000E+03 0.  0.
         25    1    4    4    0    0 -0.42631248680E+02  0.53002217905E+02  0.15438478825E+03  0.21002102135E+03  0.12509000000E+03 0.  0.
         25    1    3    3    0    0  0.39913417673E+02 -0.79006545818E+02  0.50036456561E+01  0.15332207852E+03  0.12509000000E+03 0.  0.
<mgrwt>
<rscale>  2 0.45431182E+03</rscale>
<asrwt>0</asrwt>
<pdfrwt beam="1">  1       21 0.53558636E-01 0.45431182E+03</pdfrwt>
<pdfrwt beam="2">  1       21 0.20835347E-01 0.45431182E+03</pdfrwt>
<totfact> 0.65215066E+04</totfact>
</mgrwt>
</event>
<event>
 7    0  0.4766352E-002  0.4522887E+03  0.7546771E-02  0.1027042E+00
         21   -1    0    0  502  501  0.00000000000E+00  0.00000000000E+00  0.62777442618E+03  0.62777442618E+03  0.00000000000E+00 0. -1.
         21   -1    0    0  501  502 -0.00000000000E+00 -0.00000000000E+00 -0.81464403795E+02  0.81464403795E+02  0.00000000000E+00 0. -1.
      99926    2    1    2    0    0 -0.35527136788E-14  0.71054273576E-14  0.54631002238E+03  0.70923882997E+03  0.45228871021E+03 0.  0.
      99925    2    3    3    0    0  0.18461200246E+02 -0.45003428240E+02  0.50063044226E+03  0.56746345620E+03  0.26271240918E+03 0.  0.
         25    1    4    4    0    0 -0.22100172337E+02  0.33229824967E+01  0.24007128893E+03  0.27162693478E+03  0.12509000000E+03 0.  0.
         25    1    3    3    0    0 -0.18461200246E+02  0.45003428240E+02  0.45679580119E+02  0.14177537377E+03  0.12509000000E+03 0.  0.
         25    1    4    4    0    0  0.40561372582E+02 -0.48326410737E+02  0.26055915334E+03  0.29583652142E+03  0.12509000000E+03 0.  0.
<mgrwt>
<rscale>  2 0.45228871E+03</rscale>
<asrwt>0</asrwt>
<pdfrwt beam="1">  1       21 0.92319766E-01 0.45228871E+03</pdfrwt>
<pdfrwt beam="2">  1       21 0.11980060E-01 0.45228871E+03</pdfrwt>
<totfact> 0.53537164E+04</totfact>
</mgrwt>
</event>
<event>
 7    0  0.4766352E-002  0.4336217E+03  0.7546771E-02  0.1032722E+00
         21   -1    0    0  502  501  0.00000000000E+00  0.00000000000E+00  0.82378928094E+02  0.82378928094E+02  0.00000000000E+00 0.  1.
         21   -1    0    0  501  502 -0.00000000000E+00 -0.00000000000E+00 -0.57061858281E+03  0.57061858281E+03  0.00000000000E+00 0.  1.
      99926    2    1    2    0    0  0.00000000000E+00 -0.14210854715E-13 -0.48823965472E+03  0.65299751091E+03  0.43362171164E+03 0.  0.
      99925    2    3    3    0    0  0.50115225801E+02 -0.76141355042E+02 -0.32577996756E+03  0.42861012299E+03  0.26318246230E+03 0.  0.
         25    1    3    3    0    0 -0.50115225801E+02  0.76141355042E+02 -0.16245968716E+03  0.22438738792E+03  0.12509000000E+03 0.  0.
         25    1    4    4    0    0  0.35572030570E+02  0.24381628424E+01 -0.15405907337E+03  0.20162594125E+03  0.12509000000E+03 0.  0.
         25    1    4    4    0    0  0.14543195231E+02 -0.78579517885E+02 -0.17172089418E+03  0.22698418173E+03  0.12509000000E+03 0.  0.
<mgrwt>
<rscale>  2 0.43362171E+03</rscale>
<asrwt>0</asrwt>
<pdfrwt beam="1">  1       21 0.12114548E-01 0.43362171E+03</pdfrwt>
<pdfrwt beam="2">  1       21 0.83914496E-01 0.43362171E+03</pdfrwt>
<totfact> 0.65962167E+04</totfact>
</mgrwt>
</event>
<event>
 7    0  0.4766352E-002  0.4560501E+03  0.7546771E-02  0.1025933E+00
         21   -1    0    0  502  501  0.00000000000E+00  0.00000000000E+00  0.55504085066E+03  0.55504085066E+03  0.00000000000E+00 0.  1.
         21   -1    0    0  501  502 -0.00000000000E+00 -0.00000000000E+00 -0.93678568119E+02  0.93678568119E+02  0.00000000000E+00 0.  1.
      99926    2    1    2    0    0  0.00000000000E+00 -0.88817841970E-15  0.46136228254E+03  0.64871941878E+03  0.45605013820E+03 0.  0.
      99925    2    3    3    0    0  0.10715666187E+03 -0.40892178890E+01  0.34475484364E+03  0.44686780300E+03  0.26331665208E+03 0.  0.
         25    1    3    3    0    0 -0.10715666187E+03  0.40892178890E+01  0.11660743890E+03  0.20185161578E+03  0.12509000000E+03 0.  0.
         25    1    4    4    0    0  0.30692862268E+02  0.64849893534E+01  0.10808995071E+03  0.16827077116E+03  0.12509000000E+03 0.  0.
         25    1    4    4    0    0  0.76463799598E+02 -0.10574207242E+02  0.23666489293E+03  0.27859703184E+03  0.12509000000E+03 0.  0.
<mgrwt>
<rscale>  2 0.45605014E+03</rscale>
<asrwt>0</asrwt>
<pdfrwt beam="1">  1       21 0.81623653E-01 0.45605014E+03</pdfrwt>
<pdfrwt beam="2">  1       21 0.13776260E-01 0.45605014E+03</pdfrwt>
<totfact> 0.55315612E+04</totfact>
</mgrwt>
</event>
<event>
 7    0  0.4766352E-002  0.4594891E+03  0.7546771E-02  0.1024929E+00
         21   -1    0    0  502  501  0.00000000000E+00  0.00000000000E+00  0.42590470166E+03  0.42590470166E+03  0.00000000000E+00 0. -1.
         21   -1    0    0  501  502 -0.00000000000E+00 -0.00000000000E+00 -0.12393043770E+03  0.12393043770E+03  0.00000000000E+00 0. -1.
      99926    2    1    2    0    0  0.00000000000E+00  0.00000000000E+00  0.30197426395E+03  0.54983513936E+03  0.45948909060E+03 0.  0.
      99925    2    3    3    0    0 -0.81450775886E+02 -0.17754282836E+02  0.28812035833E+03  0.39887526968E+03  0.26294238234E+03 0.  0.
         25    1    4    4    0    0 -0.66353473733E+02 -0.35782380377E+02  0.12699436634E+03  0.19354131188E+03  0.12509000000E+03 0.  0.
         25    1    3    3    0    0  0.81450775886E+02  0.17754282836E+02  0.13853905625E+02  0.15095986968E+03  0.12509000000E+03 0.  0.
         25    1    4    4    0    0 -0.15097302154E+02  0.18028097540E+02  0.16112599199E+03  0.20533395781E+03  0.12509000000E+03 0.  0.
<mgrwt>
<rscale>  2 0.45948909E+03</rscale>
<asrwt>0</asrwt>
<pdfrwt beam="1">  1       21 0.62633044E-01 0.45948909E+03</pdfrwt>
<pdfrwt beam="2">  1       21 0.18225064E-01 0.45948909E+03</pdfrwt>
<totfact> 0.59727578E+04</totfact>
</mgrwt>
</event>
<event>
 7    0  0.4766352E-002  0.4571943E+03  0.7546771E-02  0.1025598E+00
         21   -1    0    0  502  501  0.00000000000E+00  0.00000000000E+00  0.51906071534E+03  0.51906071534E+03  0.00000000000E+00 0.  1.
         21   -1    0    0  501  502 -0.00000000000E+00 -0.00000000000E+00 -0.10067543897E+03  0.10067543897E+03  0.00000000000E+00 0.  1.
      99926    2    1    2    0    0  0.00000000000E+00 -0.17763568394E-14  0.41838527637E+03  0.61973615431E+03  0.45719433667E+03 0.  0.
      99925    2    3    3    0    0 -0.78341037115E+02  0.15074704965E+02  0.37539080956E+03  0.46526739663E+03  0.26304168041E+03 0.  0.
         25    1    4    4    0    0 -0.74780952762E+02  0.20824958565E+02  0.17208858544E+03  0.22646822985E+03  0.12509000000E+03 0.  0.
         25    1    3    3    0    0  0.78341037115E+02 -0.15074704965E+02  0.42994466803E+02  0.15446875769E+03  0.12509000000E+03 0.  0.
         25    1    4    4    0    0 -0.35600843528E+01 -0.57502535999E+01  0.20330222413E+03  0.23879916677E+03  0.12509000000E+03 0.  0.
<mgrwt>
<rscale>  2 0.45719434E+03</rscale>
<asrwt>0</asrwt>
<pdfrwt beam="1">  1       21 0.76332457E-01 0.45719434E+03</pdfrwt>
<pdfrwt beam="2">  1       21 0.14805212E-01 0.45719434E+03</pdfrwt>
<totfact> 0.56494294E+04</totfact>
</mgrwt>
</event>
<event>
 7    0  0.4766352E-002  0.4612586E+03  0.7546771E-02  0.1024417E+00
         21   -1    0    0  502  501  0.00000000000E+00  0.00000000000E+00  0.35825382853E+03  0.35825382853E+03  0.00000000000E+00 0.  1.
         21   -1    0    0  501  502 -0.00000000000E+00 -0.00000000000E+00 -0.14846980790E+03  0.14846980790E+03  0.00000000000E+00 0.  1.
      99926    2    1    2    0    0  0.71054273576E-14  0.00000000000E+00  0.20978402063E+03  0.50672363644E+03  0.46125861338E+03 0.  0.
      99925    2    3    3    0    0  0.61776338655E+02 -0.95445667994E+02  0.92464959303E+02  0.30096294581E+03  0.26287398977E+03 0.  0.
         25    1    4    4    0    0  0.29140107375E+02 -0.82867602195E+02  0.73818583734E+02  0.16974356175E+03  0.12509000000E+03 0.  0.
         25    1    4    4    0    0  0.32636231280E+02 -0.12578065799E+02  0.18646375569E+02  0.13121938406E+03  0.12509000000E+03 0.  0.
         25    1    3    3    0    0 -0.61776338655E+02  0.95445667994E+02  0.11731906133E+03  0.20576069063E+03  0.12509000000E+03 0.  0.
<mgrwt>
<rscale>  2 0.46125861E+03</rscale>
<asrwt>0</asrwt>
<pdfrwt beam="1">  1       21 0.52684386E-01 0.46125861E+03</pdfrwt>
<pdfrwt beam="2">  1       21 0.21833795E-01 0.46125861E+03</pdfrwt>
<totfact> 0.61679294E+04</totfact>
</mgrwt>
</event>
<event>
 7    0  0.4766352E-002  0.4518816E+03  0.7546771E-02  0.1027162E+00
         21   -1    0    0  502  501  0.00000000000E+00  0.00000000000E+00  0.11205705265E+03  0.11205705265E+03  0.00000000000E+00 0.  1.
         21   -1    0    0  501  502 -0.00000000000E+00 -0.00000000000E+00 -0.45556470713E+03  0.45556470713E+03  0.00000000000E+00 0.  1.
      99926    2    1    2    0    0  0.14210854715E-13  0.14210854715E-13 -0.34350765448E+03  0.56762175978E+03  0.45188157020E+03 0.  0.
      99925    2    3    3    0    0 -0.57373708057E+02 -0.93293260444E+02 -0.23251524761E+03  0.36771628886E+03  0.26297633715E+03 0.  0.
         25    1    4    4    0    0  0.91020488395E+01 -0.27554780829E+02 -0.11323961995E+03  0.17120990879E+03  0.12509000000E+03 0.  0.
         25    1    3    3    0    0  0.57373708057E+02  0.93293260444E+02 -0.11099240688E+03  0.19990547092E+03  0.12509000000E+03 0.  0.
         25    1    4    4    0    0 -0.66475756896E+02 -0.65738479615E+02 -0.11927562765E+03  0.19650638007E+03  0.12509000000E+03 0.  0.
<mgrwt>
<rscale>  2 0.45188157E+03</rscale>
<asrwt>0</asrwt>
<pdfrwt beam="1">  1       21 0.16478979E-01 0.45188157E+03</pdfrwt>
<pdfrwt beam="2">  1       21 0.66994809E-01 0.45188157E+03</pdfrwt>
<totfact> 0.62237572E+04</totfact>
</mgrwt>
</event>
<event>
 7    0  0.4766352E-002  0.4476815E+03  0.7546771E-02  0.1028416E+00
         21   -1    0    0  502  501  0.00000000000E+00  0.00000000000E+00  0.28250902235E+03  0.28250902235E+03  0.00000000000E+00 0.  1.
         21   -1    0    0  501  502 -0.00000000000E+00 -0.00000000000E+00 -0.17735601997E+03  0.17735601997E+03  0.00000000000E+00 0.  1.
      99926    2    1    2    0    0  0.00000000000E+00  0.00000000000E+00  0.10515300238E+03  0.45986504232E+03  0.44768147520E+03 0.  0.
      99925    2    3    3    0    0  0.69524367274E+02  0.79456011116E+02  0.74989473592E+02  0.29341912943E+03  0.26329540258E+03 0.  0.
         25    1    3    3    0    0 -0.69524367274E+02 -0.79456011116E+02  0.30163528793E+02  0.16644591289E+03  0.12509000000E+03 0.  0.
         25    1    4    4    0    0  0.14456583918E+01  0.34149781470E+02  0.61031720180E+02  0.14332018864E+03  0.12509000000E+03 0.  0.
         25    1    4    4    0    0  0.68078708882E+02  0.45306229645E+02  0.13957753412E+02  0.15009894080E+03  0.12509000000E+03 0.  0.
<mgrwt>
<rscale>  2 0.44768148E+03</rscale>
<asrwt>0</asrwt>
<pdfrwt beam="1">  1       21 0.41545444E-01 0.44768148E+03</pdfrwt>
<pdfrwt beam="2">  1       21 0.26081768E-01 0.44768148E+03</pdfrwt>
<totfact> 0.72304254E+04</totfact>
</mgrwt>
</event>
<event>
 7    0  0.4766352E-002  0.4445419E+03  0.7546771E-02  0.1029362E+00
         21   -1    0    0  502  501  0.00000000000E+00  0.00000000000E+00  0.69864251214E+03  0.69864251214E+03  0.00000000000E+00 0.  1.
         21   -1    0    0  501  502 -0.00000000000E+00 -0.00000000000E+00 -0.70714829215E+02  0.70714829215E+02  0.00000000000E+00 0.  1.
      99926    2    1    2    0    0  0.00000000000E+00  0.00000000000E+00  0.62792768292E+03  0.76935734135E+03  0.44454194820E+03 0.  0.
      99925    2    3    3    0    0  0.70246288518E+02  0.66828129763E+02  0.45984829087E+03  0.53849216400E+03  0.26289317242E+03 0.  0.
         25    1    3    3    0    0 -0.70246288518E+02 -0.66828129763E+02  0.16807939205E+03  0.23086517735E+03  0.12509000000E+03 0.  0.
         25    1    4    4    0    0  0.31647690816E+02  0.16827900611E+01  0.16585089879E+03  0.21013908929E+03  0.12509000000E+03 0.  0.
         25    1    4    4    0    0  0.38598597702E+02  0.65145339702E+02  0.29399739208E+03  0.32835307472E+03  0.12509000000E+03 0.  0.
<mgrwt>
<rscale>  2 0.44454195E+03</rscale>
<asrwt>0</asrwt>
<pdfrwt beam="1">  1       21 0.10274154E+00 0.44454195E+03</pdfrwt>
<pdfrwt beam="2">  1       21 0.10399240E-01 0.44454195E+03</pdfrwt>
<totfact> 0.53545144E+04</totfact>
</mgrwt>
</event>
<event>
 7    0  0.4766352E-002  0.4639297E+03  0.7546771E-02  0.1023648E+00
         21   -1    0    0  502  501  0.00000000000E+00  0.00000000000E+00  0.24120278983E+03  0.24120278983E+03  0.00000000000E+00 0. -1.
         21   -1    0    0  501  502 -0.00000000000E+00 -0.00000000000E+00 -0.22308074881E+03  0.22308074881E+03  0.00000000000E+00 0. -1.
      99926    2    1    2    0    0  0.00000000000E+00  0.00000000000E+00  0.18122041026E+02  0.46428353864E+03  0.46392973162E+03 0.  0.
      99925    2    3    3    0    0  0.77185910499E+02 -0.84856676432E+02  0.51638874837E+02  0.29128294164E+03  0.26271821098E+03 0.  0.
         25    1    3    3    0    0 -0.77185910499E+02  0.84856676432E+02 -0.33516833810E+02  0.17300059700E+03  0.12509000000E+03 0.  0.
         25    1    4    4    0    0  0.67833905665E+02 -0.51390477712E+02 -0.71969999014E+00  0.15129588899E+03  0.12509000000E+03 0.  0.
         25    1    4    4    0    0  0.93520048344E+01 -0.33466198720E+02  0.52358574827E+02  0.13998705265E+03  0.12509000000E+03 0.  0.
<mgrwt>
<rscale>  2 0.46392973E+03</rscale>
<asrwt>0</asrwt>
<pdfrwt beam="1">  1       21 0.35470999E-01 0.46392973E+03</pdfrwt>
<pdfrwt beam="2">  1       21 0.32805992E-01 0.46392973E+03</pdfrwt>
<totfact> 0.63243383E+04</totfact>
</mgrwt>
</event>
<event>
 7    0  0.4766352E-002  0.4362556E+03  0.7546771E-02  0.1031902E+00
         21   -1    0    0  502  501  0.00000000000E+00  0.00000000000E+00  0.23382154960E+03  0.23382154960E+03  0.00000000000E+00 0.  1.
         21   -1    0    0  501  502 -0.00000000000E+00 -0.00000000000E+00 -0.20348740654E+03  0.20348740654E+03  0.00000000000E+00 0.  1.
      99926    2    1    2    0    0  0.00000000000E+00  0.00000000000E+00  0.30334143059E+02  0.43730895614E+03  0.43625561646E+03 0.  0.
      99925    2    3    3    0    0  0.84445837653E+02 -0.30063446505E+02 -0.10721399682E+02  0.27803568154E+03  0.26297144614E+03 0.  0.
         25    1    4    4    0    0  0.42717900856E+02  0.23815058408E+02 -0.17382878776E+02  0.13543134288E+03  0.12509000000E+03 0.  0.
         25    1    3    3    0    0 -0.84445837653E+02  0.30063446505E+02  0.41055542741E+02  0.15927327460E+03  0.12509000000E+03 0.  0.
         25    1    4    4    0    0  0.41727936797E+02 -0.53878504913E+02  0.66614790937E+01  0.14260433866E+03  0.12509000000E+03 0.  0.
<mgrwt>
<rscale>  2 0.43625562E+03</rscale>
<asrwt>0</asrwt>
<pdfrwt beam="1">  1       21 0.34385522E-01 0.43625562E+03</pdfrwt>
<pdfrwt beam="2">  1       21 0.29924618E-01 0.43625562E+03</pdfrwt>
<totfact> 0.81366652E+04</totfact>
</mgrwt>
</event>
<event>
 7    0  0.4766352E-002  0.4549754E+03  0.7546771E-02  0.1026249E+00
         21   -1    0    0  502  501  0.00000000000E+00  0.00000000000E+00  0.16524331755E+04  0.16524331755E+04  0.00000000000E+00 0.  1.
         21   -1    0    0  501  502 -0.00000000000E+00 -0.00000000000E+00 -0.31317846003E+02  0.31317846003E+02  0.00000000000E+00 0.  1.
      99926    2    1    2    0    0  0.00000000000E+00  0.00000000000E+00  0.16211153295E+04  0.16837510215E+04  0.45497537393E+03 0.  0.
      99925    2    3    3    0    0 -0.79964794235E+02 -0.20010408444E+02  0.73307299615E+03  0.78316150419E+03  0.26296604193E+03 0.  0.
         25    1    4    4    0    0 -0.46183575879E+02 -0.55962236947E+01  0.25734731667E+03  0.28989548099E+03  0.12509000000E+03 0.  0.
         25    1    4    4    0    0 -0.33781218355E+02 -0.14414184750E+02  0.47572567947E+03  0.49326602320E+03  0.12509000000E+03 0.  0.
         25    1    3    3    0    0  0.79964794235E+02  0.20010408444E+02  0.88804233335E+03  0.90058951731E+03  0.12509000000E+03 0.  0.
<mgrwt>
<rscale>  2 0.45497537E+03</rscale>
<asrwt>0</asrwt>
<pdfrwt beam="1">  1       21 0.24300482E+00 0.45497537E+03</pdfrwt>
<pdfrwt beam="2">  1       21 0.46055667E-02 0.45497537E+03</pdfrwt>
<totfact> 0.19605544E+04</totfact>
</mgrwt>
</event>
<event>
 7    0  0.4766352E-002  0.4627347E+03  0.7546771E-02  0.1023991E+00
         21   -1    0    0  502  501  0.00000000000E+00  0.00000000000E+00  0.13424977921E+03  0.13424977921E+03  0.00000000000E+00 0. -1.
         21   -1    0    0  501  502 -0.00000000000E+00 -0.00000000000E+00 -0.39874064927E+03  0.39874064927E+03  0.00000000000E+00 0. -1.
      99926    2    1    2    0    0  0.00000000000E+00  0.00000000000E+00 -0.26449087006E+03  0.53299042848E+03  0.46273467182E+03 0.  0.
      99925    2    3    3    0    0 -0.79452097069E+02  0.88365939805E+02 -0.18683166334E+03  0.34378251233E+03  0.26298131172E+03 0.  0.
         25    1    3    3    0    0  0.79452097069E+02 -0.88365939805E+02 -0.77659206722E+02  0.18920791615E+03  0.12509000000E+03 0.  0.
         25    1    4    4    0    0 -0.39953477002E+02  0.45289476915E+02 -0.14193593843E+03  0.19859691780E+03  0.12509000000E+03 0.  0.
         25    1    4    4    0    0 -0.39498620067E+02  0.43076462890E+02 -0.44895724908E+02  0.14518559452E+03  0.12509000000E+03 0.  0.
<mgrwt>
<rscale>  2 0.46273467E+03</rscale>
<asrwt>0</asrwt>
<pdfrwt beam="1">  1       21 0.19742615E-01 0.46273467E+03</pdfrwt>
<pdfrwt beam="2">  1       21 0.58638331E-01 0.46273467E+03</pdfrwt>
<totfact> 0.59285629E+04</totfact>
</mgrwt>
</event>
<event>
 7    0  0.4766352E-002  0.4436641E+03  0.7546771E-02  0.1029628E+00
         21   -1    0    0  502  501  0.00000000000E+00  0.00000000000E+00  0.68661917341E+03  0.68661917341E+03  0.00000000000E+00 0.  1.
         21   -1    0    0  501  502 -0.00000000000E+00 -0.00000000000E+00 -0.71669216001E+02  0.71669216001E+02  0.00000000000E+00 0.  1.
      99926    2    1    2    0    0  0.00000000000E+00  0.00000000000E+00  0.61494995741E+03  0.75828838941E+03  0.44366409749E+03 0.  0.
      99925    2    3    3    0    0  0.34132266677E+02  0.88356613751E+02  0.45233940558E+03  0.53232024456E+03  0.26416283256E+03 0.  0.
         25    1    4    4    0    0  0.41591190729E+02  0.64985034372E+02  0.18608848512E+03  0.23712721107E+03  0.12509000000E+03 0.  0.
         25    1    4    4    0    0 -0.74589240527E+01  0.23371579379E+02  0.26625092047E+03  0.29519303349E+03  0.12509000000E+03 0.  0.
         25    1    3    3    0    0 -0.34132266677E+02 -0.88356613751E+02  0.16261055183E+03  0.22596814485E+03  0.12509000000E+03 0.  0.
<mgrwt>
<rscale>  2 0.44366410E+03</rscale>
<asrwt>0</asrwt>
<pdfrwt beam="1">  1       21 0.10097340E+00 0.44366410E+03</pdfrwt>
<pdfrwt beam="2">  1       21 0.10539591E-01 0.44366410E+03</pdfrwt>
<totfact> 0.54542983E+04</totfact>
</mgrwt>
</event>
<event>
 7    0  0.4766352E-002  0.4679388E+03  0.7546771E-02  0.1022504E+00
         21   -1    0    0  502  501  0.00000000000E+00  0.00000000000E+00  0.20548828852E+03  0.20548828852E+03  0.00000000000E+00 0.  1.
         21   -1    0    0  501  502 -0.00000000000E+00 -0.00000000000E+00 -0.26639802588E+03  0.26639802588E+03  0.00000000000E+00 0.  1.
      99926    2    1    2    0    0  0.00000000000E+00  0.71054273576E-14 -0.60909737358E+02  0.47188631440E+03  0.46793877549E+03 0.  0.
      99925    2    3    3    0    0  0.11705270876E+03  0.37116579763E+02 -0.14455263155E+02  0.29054546573E+03  0.26292344115E+03 0.  0.
         25    1    4    4    0    0  0.18747849822E+02  0.16075028188E+02  0.11327592632E+02  0.12800668287E+03  0.12509000000E+03 0.  0.
         25    1    4    4    0    0  0.98304858934E+02  0.21041551575E+02 -0.25782855787E+02  0.16253878287E+03  0.12509000000E+03 0.  0.
         25    1    3    3    0    0 -0.11705270876E+03 -0.37116579763E+02 -0.46454474203E+02  0.18134084866E+03  0.12509000000E+03 0.  0.
<mgrwt>
<rscale>  2 0.46793878E+03</rscale>
<asrwt>0</asrwt>
<pdfrwt beam="1">  1       21 0.30218866E-01 0.46793878E+03</pdfrwt>
<pdfrwt beam="2">  1       21 0.39176180E-01 0.46793878E+03</pdfrwt>
<totfact> 0.60802528E+04</totfact>
</mgrwt>
</event>
<event>
 7    0  0.4766352E-002  0.4714675E+03  0.7546771E-02  0.1021507E+00
         21   -1    0    0  502  501  0.00000000000E+00  0.00000000000E+00  0.63577402589E+02  0.63577402589E+02  0.00000000000E+00 0. -1.
         21   -1    0    0  501  502 -0.00000000000E+00 -0.00000000000E+00 -0.87405907481E+03  0.87405907481E+03  0.00000000000E+00 0. -1.
      99926    2    1    2    0    0  0.14210854715E-13  0.00000000000E+00 -0.81048167222E+03  0.93763647740E+03  0.47146752035E+03 0.  0.
      99925    2    3    3    0    0  0.91943630603E+02 -0.15095813966E+02 -0.67721311410E+03  0.73247914389E+03  0.26310944400E+03 0.  0.
         25    1    4    4    0    0  0.88743747110E+02 -0.12688052905E+02 -0.38163679601E+03  0.41149798482E+03  0.12509000000E+03 0.  0.
         25    1    4    4    0    0  0.31998834933E+01 -0.24077610604E+01 -0.29557631809E+03  0.32098115908E+03  0.12509000000E+03 0.  0.
         25    1    3    3    0    0 -0.91943630603E+02  0.15095813966E+02 -0.13326855812E+03  0.20515733351E+03  0.12509000000E+03 0.  0.
<mgrwt>
<rscale>  2 0.47146752E+03</rscale>
<asrwt>0</asrwt>
<pdfrwt beam="1">  1       21 0.93496191E-02 0.47146752E+03</pdfrwt>
<pdfrwt beam="2">  1       21 0.12853808E+00 0.47146752E+03</pdfrwt>
<totfact> 0.36685436E+04</totfact>
</mgrwt>
</event>
<event>
 7    0  0.4766352E-002  0.4585239E+03  0.7546771E-02  0.1025210E+00
         21   -1    0    0  502  501  0.00000000000E+00  0.00000000000E+00  0.84219355948E+02  0.84219355948E+02  0.00000000000E+00 0. -1.
         21   -1    0    0  501  502 -0.00000000000E+00 -0.00000000000E+00 -0.62409698180E+03  0.62409698180E+03  0.00000000000E+00 0. -1.
      99926    2    1    2    0    0  0.00000000000E+00 -0.17763568394E-14 -0.53987762585E+03  0.70831633775E+03  0.45852391805E+03 0.  0.
      99925    2    3    3    0    0 -0.11372888036E+03  0.14256876151E+02 -0.36987928491E+03  0.46814044227E+03  0.26307274951E+03 0.  0.
         25    1    4    4    0    0 -0.89250797266E+02  0.34779349757E+02 -0.21392360549E+03  0.26568049433E+03  0.12509000000E+03 0.  0.
         25    1    4    4    0    0 -0.24478083099E+02 -0.20522473607E+02 -0.15595567942E+03  0.20245994794E+03  0.12509000000E+03 0.  0.
         25    1    3    3    0    0  0.11372888036E+03 -0.14256876151E+02 -0.16999834094E+03  0.24017589548E+03  0.12509000000E+03 0.  0.
<mgrwt>
<rscale>  2 0.45852392E+03</rscale>
<asrwt>0</asrwt>
<pdfrwt beam="1">  1       21 0.12385200E-01 0.45852392E+03</pdfrwt>
<pdfrwt beam="2">  1       21 0.91778966E-01 0.45852392E+03</pdfrwt>
<totfact> 0.51024253E+04</totfact>
</mgrwt>
</event>
<event>
 7    0  0.4766352E-002  0.4559804E+03  0.7546771E-02  0.1025953E+00
         21   -1    0    0  502  501  0.00000000000E+00  0.00000000000E+00  0.12625759217E+04  0.12625759217E+04  0.00000000000E+00 0. -1.
         21   -1    0    0  501  502 -0.00000000000E+00 -0.00000000000E+00 -0.41169439048E+02  0.41169439048E+02  0.00000000000E+00 0. -1.
      99926    2    1    2    0    0  0.00000000000E+00  0.00000000000E+00  0.12214064827E+04  0.13037453608E+04  0.45598044893E+03 0.  0.
      99925    2    3    3    0    0  0.83962542163E+02  0.59993110121E+02  0.62866875328E+03  0.68922570633E+03  0.26298059085E+03 0.  0.
         25    1    3    3    0    0 -0.83962542163E+02 -0.59993110121E+02  0.59273772938E+03  0.61451965442E+03  0.12509000000E+03 0.  0.
         25    1    4    4    0    0  0.32618324913E+02  0.45575387375E+02  0.40387769649E+03  0.42650412997E+03  0.12509000000E+03 0.  0.
         25    1    4    4    0    0  0.51344217250E+02  0.14417722747E+02  0.22479105679E+03  0.26272157636E+03  0.12509000000E+03 0.  0.
<mgrwt>
<rscale>  2 0.45598045E+03</rscale>
<asrwt>0</asrwt>
<pdfrwt beam="1">  1       21 0.18567290E+00 0.45598045E+03</pdfrwt>
<pdfrwt beam="2">  1       21 0.60543301E-02 0.45598045E+03</pdfrwt>
<totfact> 0.28785991E+04</totfact>
</mgrwt>
</event>
<event>
 7    0  0.4766352E-002  0.4636471E+03  0.7546771E-02  0.1023729E+00
         21   -1    0    0  502  501  0.00000000000E+00  0.00000000000E+00  0.92680657833E+02  0.92680657833E+02  0.00000000000E+00 0.  1.
         21   -1    0    0  501  502 -0.00000000000E+00 -0.00000000000E+00 -0.57986386252E+03  0.57986386252E+03  0.00000000000E+00 0.  1.
      99926    2    1    2    0    0  0.00000000000E+00  0.00000000000E+00 -0.48718320469E+03  0.67254452036E+03  0.46364712544E+03 0.  0.
      99925    2    3    3    0    0 -0.59319374724E+02  0.95866047090E+02 -0.36789625250E+03  0.46618083105E+03  0.26318781778E+03 0.  0.
         25    1    4    4    0    0 -0.21519168656E+02  0.21192810632E+02 -0.22179964205E+03  0.25642698601E+03  0.12509000000E+03 0.  0.
         25    1    4    4    0    0 -0.37800206068E+02  0.74673236458E+02 -0.14609661045E+03  0.20975384504E+03  0.12509000000E+03 0.  0.
         25    1    3    3    0    0  0.59319374724E+02 -0.95866047090E+02 -0.11928695219E+03  0.20636368931E+03  0.12509000000E+03 0.  0.
<mgrwt>
<rscale>  2 0.46364713E+03</rscale>
<asrwt>0</asrwt>
<pdfrwt beam="1">  1       21 0.13629509E-01 0.46364713E+03</pdfrwt>
<pdfrwt beam="2">  1       21 0.85274094E-01 0.46364713E+03</pdfrwt>
<totfact> 0.50862599E+04</totfact>
</mgrwt>
</event>
<event>
 7    0  0.4766352E-002  0.4549767E+03  0.7546771E-02  0.1026248E+00
         21   -1    0    0  502  501  0.00000000000E+00  0.00000000000E+00  0.67867084722E+02  0.67867084722E+02  0.00000000000E+00 0. -1.
         21   -1    0    0  501  502 -0.00000000000E+00 -0.00000000000E+00 -0.76253398889E+03  0.76253398889E+03  0.00000000000E+00 0. -1.
      99926    2    1    2    0    0  0.00000000000E+00 -0.26645352591E-14 -0.69466690417E+03  0.83040107362E+03  0.45497674151E+03 0.  0.
      99925    2    3    3    0    0 -0.10428776617E+03 -0.30283332636E+01 -0.51645278552E+03  0.58896186976E+03  0.26318718696E+03 0.  0.
         25    1    4    4    0    0 -0.22429352336E+02  0.23364080974E+02 -0.20215310916E+03  0.23992153669E+03  0.12509000000E+03 0.  0.
         25    1    4    4    0    0 -0.81858413829E+02 -0.26392414238E+02 -0.31429967637E+03  0.34904033307E+03  0.12509000000E+03 0.  0.
         25    1    3    3    0    0  0.10428776617E+03  0.30283332636E+01 -0.17821411865E+03  0.24143920386E+03  0.12509000000E+03 0.  0.
<mgrwt>
<rscale>  2 0.45497674E+03</rscale>
<asrwt>0</asrwt>
<pdfrwt beam="1">  1       21 0.99804527E-02 0.45497674E+03</pdfrwt>
<pdfrwt beam="2">  1       21 0.11213736E+00 0.45497674E+03</pdfrwt>
<totfact> 0.46337688E+04</totfact>
</mgrwt>
</event>
<event>
 7    0  0.4766352E-002  0.4516522E+03  0.7546771E-02  0.1027230E+00
         21   -1    0    0  502  501  0.00000000000E+00  0.00000000000E+00  0.35500405172E+03  0.35500405172E+03  0.00000000000E+00 0. -1.
         21   -1    0    0  501  502 -0.00000000000E+00 -0.00000000000E+00 -0.14365306155E+03  0.14365306155E+03  0.00000000000E+00 0. -1.
      99926    2    1    2    0    0  0.00000000000E+00  0.00000000000E+00  0.21135099018E+03  0.49865711327E+03  0.45165216214E+03 0.  0.
      99925    2    3    3    0    0  0.65179903029E+02 -0.81426644908E+02  0.94649615554E+02  0.29829385017E+03  0.26294857495E+03 0.  0.
         25    1    3    3    0    0 -0.65179903029E+02  0.81426644908E+02  0.11670137462E+03  0.20036326310E+03  0.12509000000E+03 0.  0.
         25    1    4    4    0    0  0.52495365873E+02 -0.79106276571E+02  0.48861890834E+02  0.16446446092E+03  0.12509000000E+03 0.  0.
         25    1    4    4    0    0  0.12684537155E+02 -0.23203683369E+01  0.45787724720E+02  0.13382938925E+03  0.12509000000E+03 0.  0.
<mgrwt>
<rscale>  2 0.45165216E+03</rscale>
<asrwt>0</asrwt>
<pdfrwt beam="1">  1       21 0.52206478E-01 0.45165216E+03</pdfrwt>
<pdfrwt beam="2">  1       21 0.21125450E-01 0.45165216E+03</pdfrwt>
<totfact> 0.67131468E+04</totfact>
</mgrwt>
</event>
<event>
 7    0  0.4766352E-002  0.4472571E+03  0.7546771E-02  0.1028543E+00
         21   -1    0    0  502  501  0.00000000000E+00  0.00000000000E+00  0.87594915177E+03  0.87594915177E+03  0.00000000000E+00 0. -1.
         21   -1    0    0  501  502 -0.00000000000E+00 -0.00000000000E+00 -0.57092033997E+02  0.57092033997E+02  0.00000000000E+00 0. -1.
      99926    2    1    2    0    0  0.00000000000E+00  0.00000000000E+00  0.81885711777E+03  0.93304118576E+03  0.44725705697E+03 0.  0.
      99925    2    3    3    0    0  0.94804471059E+02 -0.28866008025E+02  0.59585839238E+03  0.65882033722E+03  0.26301307726E+03 0.  0.
         25    1    4    4    0    0  0.39921226553E+02 -0.29524762930E+02  0.38242573829E+03  0.40541629144E+03  0.12509000000E+03 0.  0.
         25    1    4    4    0    0  0.54883244507E+02  0.65875490578E+00  0.21343265409E+03  0.25340404578E+03  0.12509000000E+03 0.  0.
         25    1    3    3    0    0 -0.94804471059E+02  0.28866008025E+02  0.22299872539E+03  0.27422084855E+03  0.12509000000E+03 0.  0.
<mgrwt>
<rscale>  2 0.44725706E+03</rscale>
<asrwt>0</asrwt>
<pdfrwt beam="1">  1       21 0.12881604E+00 0.44725706E+03</pdfrwt>
<pdfrwt beam="2">  1       21 0.83958879E-02 0.44725706E+03</pdfrwt>
<totfact> 0.44467717E+04</totfact>
</mgrwt>
</event>
<event>
 7    0  0.4766352E-002  0.4598530E+03  0.7546771E-02  0.1024824E+00
         21   -1    0    0  502  501  0.00000000000E+00  0.00000000000E+00  0.25340315320E+03  0.25340315320E+03  0.00000000000E+00 0.  1.
         21   -1    0    0  501  502 -0.00000000000E+00 -0.00000000000E+00 -0.20862484167E+03  0.20862484167E+03  0.00000000000E+00 0.  1.
      99926    2    1    2    0    0  0.00000000000E+00  0.00000000000E+00  0.44778311526E+02  0.46202799487E+03  0.45985298832E+03 0.  0.
      99925    2    3    3    0    0 -0.41264177744E+02  0.15360341184E+02 -0.81610626945E+02  0.27883316876E+03  0.26296191573E+03 0.  0.
         25    1    4    4    0    0  0.19584032875E+02  0.10783817521E+02 -0.31611157760E+02  0.13094502075E+03  0.12509000000E+03 0.  0.
         25    1    3    3    0    0  0.41264177744E+02 -0.15360341184E+02  0.12638893847E+03  0.18319482611E+03  0.12509000000E+03 0.  0.
         25    1    4    4    0    0 -0.60848210618E+02  0.45765236625E+01 -0.49999469184E+02  0.14788814801E+03  0.12509000000E+03 0.  0.
<mgrwt>
<rscale>  2 0.45985299E+03</rscale>
<asrwt>0</asrwt>
<pdfrwt beam="1">  1       21 0.37265170E-01 0.45985299E+03</pdfrwt>
<pdfrwt beam="2">  1       21 0.30680124E-01 0.45985299E+03</pdfrwt>
<totfact> 0.65462306E+04</totfact>
</mgrwt>
</event>
<event>
 7    0  0.4766352E-002  0.4384554E+03  0.7546771E-02  0.1031222E+00
         21   -1    0    0  502  501  0.00000000000E+00  0.00000000000E+00  0.69778646878E+02  0.69778646878E+02  0.00000000000E+00 0.  1.
         21   -1    0    0  501  502 -0.00000000000E+00 -0.00000000000E+00 -0.68876071651E+03  0.68876071651E+03  0.00000000000E+00 0.  1.
      99926    2    1    2    0    0  0.00000000000E+00  0.44408920985E-15 -0.61898206964E+03  0.75853936339E+03  0.43845542907E+03 0.  0.
      99925    2    3    3    0    0  0.33275695776E+02  0.28330982709E+01 -0.55313042222E+03  0.61328356853E+03  0.26277019059E+03 0.  0.
         25    1    4    4    0    0  0.36666962987E+02 -0.14931677766E+02 -0.21003259670E+03  0.24764616079E+03  0.12509000000E+03 0.  0.
         25    1    3    3    0    0 -0.33275695776E+02 -0.28330982709E+01 -0.65851647415E+02  0.14525579487E+03  0.12509000000E+03 0.  0.
         25    1    4    4    0    0 -0.33912672114E+01  0.17764776036E+02 -0.34309782552E+03  0.36563740773E+03  0.12509000000E+03 0.  0.
<mgrwt>
<rscale>  2 0.43845543E+03</rscale>
<asrwt>0</asrwt>
<pdfrwt beam="1">  1       21 0.10261566E-01 0.43845543E+03</pdfrwt>
<pdfrwt beam="2">  1       21 0.10128834E+00 0.43845543E+03</pdfrwt>
<totfact> 0.56870658E+04</totfact>
</mgrwt>
</event>
<event>
 7    0  0.4766352E-002  0.4478815E+03  0.7546771E-02  0.1028356E+00
         21   -1    0    0  502  501  0.00000000000E+00  0.00000000000E+00  0.43511747495E+02  0.43511747495E+02  0.00000000000E+00 0.  1.
         21   -1    0    0  501  502 -0.00000000000E+00 -0.00000000000E+00 -0.11525496669E+04  0.11525496669E+04  0.00000000000E+00 0.  1.
      99926    2    1    2    0    0  0.00000000000E+00  0.17763568394E-14 -0.11090379194E+04  0.11960614144E+04  0.44788145790E+03 0.  0.
      99925    2    3    3    0    0  0.10561535692E+03  0.12696745391E+02 -0.70205815778E+03  0.75720398261E+03  0.26297605103E+03 0.  0.
         25    1    4    4    0    0  0.82577631848E+02  0.35511968800E+02 -0.40207314271E+03  0.43056995413E+03  0.12509000000E+03 0.  0.
         25    1    3    3    0    0 -0.10561535692E+03 -0.12696745391E+02 -0.40697976164E+03  0.43885743180E+03  0.12509000000E+03 0.  0.
         25    1    4    4    0    0  0.23037725075E+02 -0.22815223409E+02 -0.29998501507E+03  0.32663402848E+03  0.12509000000E+03 0.  0.
<mgrwt>
<rscale>  2 0.44788146E+03</rscale>
<asrwt>0</asrwt>
<pdfrwt beam="1">  1       21 0.63987869E-02 0.44788146E+03</pdfrwt>
<pdfrwt beam="2">  1       21 0.16949259E+00 0.44788146E+03</pdfrwt>
<totfact> 0.34135053E+04</totfact>
</mgrwt>
</event>
<event>
 7    0  0.4766352E-002  0.4629497E+03  0.7546771E-02  0.1023929E+00
         21   -1    0    0  502  501  0.00000000000E+00  0.00000000000E+00  0.33766612843E+03  0.33766612843E+03  0.00000000000E+00 0. -1.
         21   -1    0    0  501  502 -0.00000000000E+00 -0.00000000000E+00 -0.15867927049E+03  0.15867927049E+03  0.00000000000E+00 0. -1.
      99926    2    1    2    0    0  0.00000000000E+00  0.00000000000E+00  0.17898685795E+03  0.49634539892E+03  0.46294973778E+03 0.  0.
      99925    2    3    3    0    0 -0.55539546743E+02 -0.10688287370E+03  0.11039310332E+03  0.30963385344E+03  0.26301691199E+03 0.  0.
         25    1    4    4    0    0  0.85369861326E+01 -0.36581415667E+02  0.65990268131E+02  0.14633285240E+03  0.12509000000E+03 0.  0.
         25    1    4    4    0    0 -0.64076532876E+02 -0.70301458032E+02  0.44402835194E+02  0.16330100104E+03  0.12509000000E+03 0.  0.
         25    1    3    3    0    0  0.55539546743E+02  0.10688287370E+03  0.68593754622E+02  0.18671154548E+03  0.12509000000E+03 0.  0.
<mgrwt>
<rscale>  2 0.46294974E+03</rscale>
<asrwt>0</asrwt>
<pdfrwt beam="1">  1       21 0.49656783E-01 0.46294974E+03</pdfrwt>
<pdfrwt beam="2">  1       21 0.23335187E-01 0.46294974E+03</pdfrwt>
<totfact> 0.61551008E+04</totfact>
</mgrwt>
</event>
<event>
 7    0  0.4766352E-002  0.4498767E+03  0.7546771E-02  0.1027759E+00
         21   -1    0    0  502  501  0.00000000000E+00  0.00000000000E+00  0.94279295283E+02  0.94279295283E+02  0.00000000000E+00 0.  1.
         21   -1    0    0  501  502 -0.00000000000E+00 -0.00000000000E+00 -0.53667424155E+03  0.53667424155E+03  0.00000000000E+00 0.  1.
      99926    2    1    2    0    0  0.14210854715E-13 -0.22204460493E-14 -0.44239494627E+03  0.63095353684E+03  0.44987673552E+03 0.  0.
      99925    2    3    3    0    0 -0.82050641916E+02  0.23551335173E+01 -0.18067802507E+03  0.32948859785E+03  0.26302154452E+03 0.  0.
         25    1    4    4    0    0 -0.56563309532E+02  0.17613531343E+02 -0.52759185820E+02  0.14812388146E+03  0.12509000000E+03 0.  0.
         25    1    3    3    0    0  0.82050641916E+02 -0.23551335173E+01 -0.26171692120E+03  0.30146493898E+03  0.12509000000E+03 0.  0.
         25    1    4    4    0    0 -0.25487332384E+02 -0.15258397826E+02 -0.12791883925E+03  0.18136471639E+03  0.12509000000E+03 0.  0.
<mgrwt>
<rscale>  2 0.44987674E+03</rscale>
<asrwt>0</asrwt>
<pdfrwt beam="1">  1       21 0.13864602E-01 0.44987674E+03</pdfrwt>
<pdfrwt beam="2">  1       21 0.78922682E-01 0.44987674E+03</pdfrwt>
<totfact> 0.59169098E+04</totfact>
</mgrwt>
</event>
<event>
 7    0  0.4766352E-002  0.4553809E+03  0.7546771E-02  0.1026129E+00
         21   -1    0    0  502  501  0.00000000000E+00  0.00000000000E+00  0.34734394267E+02  0.34734394267E+02  0.00000000000E+00 0.  1.
         21   -1    0    0  501  502 -0.00000000000E+00 -0.00000000000E+00 -0.14925535442E+04  0.14925535442E+04  0.00000000000E+00 0.  1.
      99926    2    1    2    0    0  0.00000000000E+00  0.71054273576E-14 -0.14578191499E+04  0.15272879384E+04  0.45538090987E+03 0.  0.
      99925    2    3    3    0    0  0.10086033951E+03  0.44015348316E+02 -0.10106156114E+04  0.10500577299E+04  0.26299650793E+03 0.  0.
         25    1    3    3    0    0 -0.10086033951E+03 -0.44015348316E+02 -0.44720353852E+03  0.47723020853E+03  0.12509000000E+03 0.  0.
         25    1    4    4    0    0  0.52308055129E+02 -0.18864205323E+02 -0.47992938425E+03  0.49907084952E+03  0.12509000000E+03 0.  0.
         25    1    4    4    0    0  0.48552284383E+02  0.62879553638E+02 -0.53068622714E+03  0.55098688039E+03  0.12509000000E+03 0.  0.
<mgrwt>
<rscale>  2 0.45538091E+03</rscale>
<asrwt>0</asrwt>
<pdfrwt beam="1">  1       21 0.51079998E-02 0.45538091E+03</pdfrwt>
<pdfrwt beam="2">  1       21 0.21949314E+00 0.45538091E+03</pdfrwt>
<totfact> 0.23049931E+04</totfact>
</mgrwt>
</event>
<event>
 7    0  0.4766352E-002  0.4683417E+03  0.7546771E-02  0.1022389E+00
         21   -1    0    0  502  501  0.00000000000E+00  0.00000000000E+00  0.24358428761E+03  0.24358428761E+03  0.00000000000E+00 0. -1.
         21   -1    0    0  501  502 -0.00000000000E+00 -0.00000000000E+00 -0.22512122529E+03  0.22512122529E+03  0.00000000000E+00 0. -1.
      99926    2    1    2    0    0  0.00000000000E+00  0.00000000000E+00  0.18463062327E+02  0.46870551290E+03  0.46834172690E+03 0.  0.
      99925    2    3    3    0    0  0.39998715613E+02 -0.67669140691E+02  0.10908248144E+03  0.29538962479E+03  0.26301527108E+03 0.  0.
         25    1    4    4    0    0 -0.70249482580E+01 -0.13049238984E+01  0.50977371399E+02  0.13526733981E+03  0.12509000000E+03 0.  0.
         25    1    4    4    0    0  0.47023663871E+02 -0.66364216793E+02  0.58105110038E+02  0.16012228498E+03  0.12509000000E+03 0.  0.
         25    1    3    3    0    0 -0.39998715613E+02  0.67669140691E+02 -0.90619419109E+02  0.17331588811E+03  0.12509000000E+03 0.  0.
<mgrwt>
<rscale>  2 0.46834173E+03</rscale>
<asrwt>0</asrwt>
<pdfrwt beam="1">  1       21 0.35821219E-01 0.46834173E+03</pdfrwt>
<pdfrwt beam="2">  1       21 0.33106063E-01 0.46834173E+03</pdfrwt>
<totfact> 0.60816671E+04</totfact>
</mgrwt>
</event>
<event>
 7    0  0.4766352E-002  0.4546419E+03  0.7546771E-02  0.1026347E+00
         21   -1    0    0  502  501  0.00000000000E+00  0.00000000000E+00  0.81224118039E+02  0.81224118039E+02  0.00000000000E+00 0. -1.
         21   -1    0    0  501  502 -0.00000000000E+00 -0.00000000000E+00 -0.63620036713E+03  0.63620036713E+03  0.00000000000E+00 0. -1.
      99926    2    1    2    0    0 -0.14210854715E-13  0.44408920985E-14 -0.55497624910E+03  0.71742448517E+03  0.45464189740E+03 0.  0.
      99925    2    3    3    0    0  0.11272604285E+03  0.44198243980E+01 -0.35680427620E+03  0.45733539558E+03  0.26290621322E+03 0.  0.
         25    1    3    3    0    0 -0.11272604285E+03 -0.44198243980E+01 -0.19817197289E+03  0.26008908959E+03  0.12509000000E+03 0.  0.
         25    1    4    4    0    0  0.65689412381E+02 -0.33112478336E+02 -0.15427024464E+03  0.21179790274E+03  0.12509000000E+03 0.  0.
         25    1    4    4    0    0  0.47036630469E+02  0.37532302734E+02 -0.20253403156E+03  0.24553749285E+03  0.12509000000E+03 0.  0.
<mgrwt>
<rscale>  2 0.45464190E+03</rscale>
<asrwt>0</asrwt>
<pdfrwt beam="1">  1       21 0.11944724E-01 0.45464190E+03</pdfrwt>
<pdfrwt beam="2">  1       21 0.93558874E-01 0.45464190E+03</pdfrwt>
<totfact> 0.52113789E+04</totfact>
</mgrwt>
</event>
<event>
 7    0  0.4766352E-002  0.4488417E+03  0.7546771E-02  0.1028068E+00
         21   -1    0    0  502  501  0.00000000000E+00  0.00000000000E+00  0.87925310222E+02  0.87925310222E+02  0.00000000000E+00 0. -1.
         21   -1    0    0  501  502 -0.00000000000E+00 -0.00000000000E+00 -0.57281256599E+03  0.57281256599E+03  0.00000000000E+00 0. -1.
      99926    2    1    2    0    0  0.00000000000E+00  0.00000000000E+00 -0.48488725577E+03  0.66073787621E+03  0.44884172072E+03 0.  0.
      99925    2    3    3    0    0 -0.84653234590E+02 -0.56253563137E+02 -0.35756700813E+03  0.45533927093E+03  0.26296207494E+03 0.  0.
         25    1    3    3    0    0  0.84653234590E+02  0.56253563137E+02 -0.12732024764E+03  0.20539860528E+03  0.12509000000E+03 0.  0.
         25    1    4    4    0    0 -0.41706716578E+02 -0.25905989805E+02 -0.24329002212E+03  0.27793544841E+03  0.12509000000E+03 0.  0.
         25    1    4    4    0    0 -0.42946518011E+02 -0.30347573332E+02 -0.11427698600E+03  0.17740382252E+03  0.12509000000E+03 0.  0.
<mgrwt>
<rscale>  2 0.44884172E+03</rscale>
<asrwt>0</asrwt>
<pdfrwt beam="1">  1       21 0.12930193E-01 0.44884172E+03</pdfrwt>
<pdfrwt beam="2">  1       21 0.84237139E-01 0.44884172E+03</pdfrwt>
<totfact> 0.57844620E+04</totfact>
</mgrwt>
</event>
<event>
 7    0  0.4766352E-002  0.4543080E+03  0.7546771E-02  0.1026445E+00
         21   -1    0    0  502  501  0.00000000000E+00  0.00000000000E+00  0.42675395334E+02  0.42675395334E+02  0.00000000000E+00 0.  1.
         21   -1    0    0  501  502 -0.00000000000E+00 -0.00000000000E+00 -0.12091026338E+04  0.12091026338E+04  0.00000000000E+00 0.  1.
      99926    2    1    2    0    0 -0.14210854715E-13  0.71054273576E-14 -0.11664272385E+04  0.12517780291E+04  0.45430796998E+03 0.  0.
      99925    2    3    3    0    0 -0.10123792018E+03  0.46397831608E+02 -0.68828354662E+03  0.74515117097E+03  0.26289570516E+03 0.  0.
         25    1    3    3    0    0  0.10123792018E+03 -0.46397831608E+02 -0.47814369185E+03  0.50662685817E+03  0.12509000000E+03 0.  0.
         25    1    4    4    0    0 -0.86474490086E+02  0.21644852854E+02 -0.43244103570E+03  0.45891076970E+03  0.12509000000E+03 0.  0.
         25    1    4    4    0    0 -0.14763430090E+02  0.24752978754E+02 -0.25584251092E+03  0.28624040127E+03  0.12509000000E+03 0.  0.
<mgrwt>
<rscale>  2 0.45430797E+03</rscale>
<asrwt>0</asrwt>
<pdfrwt beam="1">  1       21 0.62757936E-02 0.45430797E+03</pdfrwt>
<pdfrwt beam="2">  1       21 0.17780921E+00 0.45430797E+03</pdfrwt>
<totfact> 0.30713049E+04</totfact>
</mgrwt>
</event>
<event>
 7    0  0.4766352E-002  0.4615312E+03  0.7546771E-02  0.1024338E+00
         21   -1    0    0  502  501  0.00000000000E+00  0.00000000000E+00  0.20580468614E+03  0.20580468614E+03  0.00000000000E+00 0. -1.
         21   -1    0    0  501  502 -0.00000000000E+00 -0.00000000000E+00 -0.25875389988E+03  0.25875389988E+03  0.00000000000E+00 0. -1.
      99926    2    1    2    0    0  0.00000000000E+00  0.00000000000E+00 -0.52949213741E+02  0.46455858601E+03  0.46153121303E+03 0.  0.
      99925    2    3    3    0    0  0.38999318404E+02 -0.32086615073E+02 -0.14177214756E+03  0.30304227299E+03  0.26302999770E+03 0.  0.
         25    1    4    4    0    0  0.40014931266E+02 -0.14310074814E+02 -0.11207983135E+03  0.17324944346E+03  0.12509000000E+03 0.  0.
         25    1    4    4    0    0 -0.10156128623E+01 -0.17776540259E+02 -0.29692316208E+02  0.12979282952E+03  0.12509000000E+03 0.  0.
         25    1    3    3    0    0 -0.38999318404E+02  0.32086615073E+02  0.88822933817E+02  0.16151631303E+03  0.12509000000E+03 0.  0.
<mgrwt>
<rscale>  2 0.46153121E+03</rscale>
<asrwt>0</asrwt>
<pdfrwt beam="1">  1       21 0.30265395E-01 0.46153121E+03</pdfrwt>
<pdfrwt beam="2">  1       21 0.38052044E-01 0.46153121E+03</pdfrwt>
<totfact> 0.64427764E+04</totfact>
</mgrwt>
</event>
<event>
 7    0  0.4766352E-002  0.4601023E+03  0.7546771E-02  0.1024752E+00
         21   -1    0    0  502  501  0.00000000000E+00  0.00000000000E+00  0.53127397248E+03  0.53127397248E+03  0.00000000000E+00 0.  1.
         21   -1    0    0  501  502 -0.00000000000E+00 -0.00000000000E+00 -0.99616289367E+02  0.99616289367E+02  0.00000000000E+00 0.  1.
      99926    2    1    2    0    0  0.00000000000E+00 -0.14210854715E-13  0.43165768311E+03  0.63089026185E+03  0.46010234416E+03 0.  0.
      99925    2    3    3    0    0  0.49873823541E+02 -0.10574136762E+03  0.25069046818E+03  0.38176122685E+03  0.26311079108E+03 0.  0.
         25    1    4    4    0    0  0.14903390112E+02 -0.59273347098E+02  0.74218131912E+02  0.15776970532E+03  0.12509000000E+03 0.  0.
         25    1    4    4    0    0  0.34970433429E+02 -0.46468020524E+02  0.17647233627E+03  0.22399152152E+03  0.12509000000E+03 0.  0.
         25    1    3    3    0    0 -0.49873823541E+02  0.10574136762E+03  0.18096721493E+03  0.24912903500E+03  0.12509000000E+03 0.  0.
<mgrwt>
<rscale>  2 0.46010234E+03</rscale>
<asrwt>0</asrwt>
<pdfrwt beam="1">  1       21 0.78128524E-01 0.46010234E+03</pdfrwt>
<pdfrwt beam="2">  1       21 0.14649455E-01 0.46010234E+03</pdfrwt>
<totfact> 0.54584043E+04</totfact>
</mgrwt>
</event>
<event>
 7    0  0.4766352E-002  0.4538585E+03  0.7546771E-02  0.1026578E+00
         21   -1    0    0  502  501  0.00000000000E+00  0.00000000000E+00  0.10784466996E+03  0.10784466996E+03  0.00000000000E+00 0. -1.
         21   -1    0    0  501  502 -0.00000000000E+00 -0.00000000000E+00 -0.47750976409E+03  0.47750976409E+03  0.00000000000E+00 0. -1.
      99926    2    1    2    0    0 -0.44408920985E-15  0.00000000000E+00 -0.36966509413E+03  0.58535443405E+03  0.45385849297E+03 0.  0.
      99925    2    3    3    0    0 -0.30703275666E+01  0.10446148602E+03 -0.18051486080E+03  0.33566072600E+03  0.26298456045E+03 0.  0.
         25    1    3    3    0    0  0.30703275666E+01 -0.10446148602E+03 -0.18915023334E+03  0.24969370806E+03  0.12509000000E+03 0.  0.
         25    1    4    4    0    0 -0.29582464265E+02  0.82303476408E+02 -0.10825855439E+03  0.18712671407E+03  0.12509000000E+03 0.  0.
         25    1    4    4    0    0  0.26512136699E+02  0.22158009609E+02 -0.72256306405E+02  0.14853401192E+03  0.12509000000E+03 0.  0.
<mgrwt>
<rscale>  2 0.45385849E+03</rscale>
<asrwt>0</asrwt>
<pdfrwt beam="1">  1       21 0.15859511E-01 0.45385849E+03</pdfrwt>
<pdfrwt beam="2">  1       21 0.70222023E-01 0.45385849E+03</pdfrwt>
<totfact> 0.60129636E+04</totfact>
</mgrwt>
</event>
<event>
 7    0  0.4766352E-002  0.4294453E+03  0.7546771E-02  0.1034035E+00
         21   -1    0    0  502  501  0.00000000000E+00  0.00000000000E+00  0.59094119085E+03  0.59094119085E+03  0.00000000000E+00 0. -1.
         21   -1    0    0  501  502 -0.00000000000E+00 -0.00000000000E+00 -0.78021006689E+02  0.78021006689E+02  0.00000000000E+00 0. -1.
      99926    2    1    2    0    0  0.00000000000E+00  0.00000000000E+00  0.51292018416E+03  0.66896219754E+03  0.42944534741E+03 0.  0.
      99925    2    3    3    0    0 -0.65515945342E+02 -0.53196172840E+02  0.29911080774E+03  0.40726747187E+03  0.26320590122E+03 0.  0.
         25    1    3    3    0    0  0.65515945342E+02  0.53196172840E+02  0.21380937642E+03  0.26169472567E+03  0.12509000000E+03 0.  0.
         25    1    4    4    0    0 -0.15020990957E+02 -0.63505692288E+02  0.14995149697E+03  0.20589211414E+03  0.12509000000E+03 0.  0.
         25    1    4    4    0    0 -0.50494954386E+02  0.10309519447E+02  0.14915931078E+03  0.20137535773E+03  0.12509000000E+03 0.  0.
<mgrwt>
<rscale>  2 0.42944535E+03</rscale>
<asrwt>0</asrwt>
<pdfrwt beam="1">  1       21 0.86903114E-01 0.42944535E+03</pdfrwt>
<pdfrwt beam="2">  1       21 0.11473678E-01 0.42944535E+03</pdfrwt>
<totfact> 0.67151002E+04</totfact>
</mgrwt>
</event>
<event>
 7    0  0.4766352E-002  0.4544793E+03  0.7546771E-02  0.1026395E+00
         21   -1    0    0  502  501  0.00000000000E+00  0.00000000000E+00  0.24858679352E+03  0.24858679352E+03  0.00000000000E+00 0. -1.
         21   -1    0    0  501  502 -0.00000000000E+00 -0.00000000000E+00 -0.20772571555E+03  0.20772571555E+03  0.00000000000E+00 0. -1.
      99926    2    1    2    0    0  0.00000000000E+00  0.00000000000E+00  0.40861077979E+02  0.45631250907E+03  0.45447934853E+03 0.  0.
      99925    2    3    3    0    0 -0.62470154073E+02  0.68176906956E+02 -0.40072635026E+02  0.28096033545E+03  0.26226376651E+03 0.  0.
         25    1    3    3    0    0  0.62470154073E+02 -0.68176906956E+02  0.80933713005E+02  0.17535217362E+03  0.12509000000E+03 0.  0.
         25    1    4    4    0    0  0.41140804885E+01  0.50011907013E+02 -0.27361083326E+02  0.13752910049E+03  0.12509000000E+03 0.  0.
         25    1    4    4    0    0 -0.66584234562E+02  0.18164999943E+02 -0.12711551700E+02  0.14343123496E+03  0.12509000000E+03 0.  0.
<mgrwt>
<rscale>  2 0.45447935E+03</rscale>
<asrwt>0</asrwt>
<pdfrwt beam="1">  1       21 0.36556881E-01 0.45447935E+03</pdfrwt>
<pdfrwt beam="2">  1       21 0.30547899E-01 0.45447935E+03</pdfrwt>
<totfact> 0.68734852E+04</totfact>
</mgrwt>
</event>
<event>
 7    0  0.4766352E-002  0.4478040E+03  0.7546771E-02  0.1028379E+00
         21   -1    0    0  502  501  0.00000000000E+00  0.00000000000E+00  0.31432742684E+03  0.31432742684E+03  0.00000000000E+00 0.  1.
         21   -1    0    0  501  502 -0.00000000000E+00 -0.00000000000E+00 -0.15949004599E+03  0.15949004599E+03  0.00000000000E+00 0.  1.
      99926    2    1    2    0    0  0.00000000000E+00  0.00000000000E+00  0.15483738084E+03  0.47381747283E+03  0.44780395605E+03 0.  0.
      99925    2    3    3    0    0  0.15238734206E+02  0.56904240646E+02  0.19169559436E+03  0.33072188370E+03  0.26298184698E+03 0.  0.
         25    1    3    3    0    0 -0.15238734206E+02 -0.56904240646E+02 -0.36858213513E+02  0.14309558912E+03  0.12509000000E+03 0.  0.
         25    1    4    4    0    0 -0.25314605902E+02  0.38381881142E+01  0.92425561564E+02  0.15762472360E+03  0.12509000000E+03 0.  0.
         25    1    4    4    0    0  0.40553340108E+02  0.53066052532E+02  0.99270032793E+02  0.17309716010E+03  0.12509000000E+03 0.  0.
<mgrwt>
<rscale>  2 0.44780396E+03</rscale>
<asrwt>0</asrwt>
<pdfrwt beam="1">  1       21 0.46224622E-01 0.44780396E+03</pdfrwt>
<pdfrwt beam="2">  1       21 0.23454419E-01 0.44780396E+03</pdfrwt>
<totfact> 0.71129461E+04</totfact>
</mgrwt>
</event>
<event>
 7    0  0.4766352E-002  0.4586603E+03  0.7546771E-02  0.1025170E+00
         21   -1    0    0  502  501  0.00000000000E+00  0.00000000000E+00  0.58308439174E+03  0.58308439174E+03  0.00000000000E+00 0. -1.
         21   -1    0    0  501  502 -0.00000000000E+00 -0.00000000000E+00 -0.90196759420E+02  0.90196759420E+02  0.00000000000E+00 0. -1.
      99926    2    1    2    0    0  0.00000000000E+00  0.14210854715E-13  0.49288763232E+03  0.67328115116E+03  0.45866032138E+03 0.  0.
      99925    2    3    3    0    0 -0.35513571408E+02  0.10570505303E+03  0.25838331210E+03  0.38505458005E+03  0.26281233163E+03 0.  0.
         25    1    4    4    0    0 -0.21469578836E+02  0.10051704998E+02  0.11975848722E+03  0.17479011113E+03  0.12509000000E+03 0.  0.
         25    1    4    4    0    0 -0.14043992573E+02  0.95653348032E+02  0.13862482488E+03  0.21026446892E+03  0.12509000000E+03 0.  0.
         25    1    3    3    0    0  0.35513571408E+02 -0.10570505303E+03  0.23450432021E+03  0.28822657110E+03  0.12509000000E+03 0.  0.
<mgrwt>
<rscale>  2 0.45866032E+03</rscale>
<asrwt>0</asrwt>
<pdfrwt beam="1">  1       21 0.85747703E-01 0.45866032E+03</pdfrwt>
<pdfrwt beam="2">  1       21 0.13264230E-01 0.45866032E+03</pdfrwt>
<totfact> 0.52836998E+04</totfact>
</mgrwt>
</event>
<event>
 7    0  0.4766352E-002  0.4536007E+03  0.7546771E-02  0.1026654E+00
         21   -1    0    0  502  501  0.00000000000E+00  0.00000000000E+00  0.34995710243E+03  0.34995710243E+03  0.00000000000E+00 0. -1.
         21   -1    0    0  501  502 -0.00000000000E+00 -0.00000000000E+00 -0.14698486490E+03  0.14698486490E+03  0.00000000000E+00 0. -1.
      99926    2    1    2    0    0 -0.35527136788E-14  0.00000000000E+00  0.20297223753E+03  0.49694196733E+03  0.45360069410E+03 0.  0.
      99925    2    3    3    0    0 -0.12908550189E+02 -0.39602943401E+02  0.14134427199E+02  0.26663293471E+03  0.26297968752E+03 0.  0.
         25    1    4    4    0    0  0.17237763811E+02  0.27523159459E+01 -0.17544644645E+02  0.12751485561E+03  0.12509000000E+03 0.  0.
         25    1    3    3    0    0  0.12908550189E+02  0.39602943401E+02  0.18883781033E+03  0.23030903262E+03  0.12509000000E+03 0.  0.
         25    1    4    4    0    0 -0.30146314000E+02 -0.42355259347E+02  0.31679071844E+02  0.13911807911E+03  0.12509000000E+03 0.  0.
<mgrwt>
<rscale>  2 0.45360069E+03</rscale>
<asrwt>0</asrwt>
<pdfrwt beam="1">  1       21 0.51464279E-01 0.45360069E+03</pdfrwt>
<pdfrwt beam="2">  1       21 0.21615421E-01 0.45360069E+03</pdfrwt>
<totfact> 0.66218545E+04</totfact>
</mgrwt>
</event>
<event>
 7    0  0.4766352E-002  0.4539616E+03  0.7546771E-02  0.1026547E+00
         21   -1    0    0  502  501  0.00000000000E+00  0.00000000000E+00  0.20319063333E+04  0.20319063333E+04  0.00000000000E+00 0. -1.
         21   -1    0    0  501  502 -0.00000000000E+00 -0.00000000000E+00 -0.25355634885E+02  0.25355634885E+02  0.00000000000E+00 0. -1.
      99926    2    1    2    0    0  0.00000000000E+00  0.00000000000E+00  0.20065506984E+04  0.20572619682E+04  0.45396156272E+03 0.  0.
      99925    2    3    3    0    0  0.84729454585E+02  0.31687030913E+01  0.15968233387E+04  0.16205548140E+04  0.26299051097E+03 0.  0.
         25    1    4    4    0    0  0.63429008342E+02  0.61901409497E+00  0.10422293872E+04  0.10516240897E+04  0.12509000000E+03 0.  0.
         25    1    3    3    0    0 -0.84729454585E+02 -0.31687030913E+01  0.40972735964E+03  0.43670715415E+03  0.12509000000E+03 0.  0.
         25    1    4    4    0    0  0.21300446243E+02  0.25496889963E+01  0.55459395152E+03  0.56893072433E+03  0.12509000000E+03 0.  0.
<mgrwt>
<rscale>  2 0.45396156E+03</rscale>
<asrwt>0</asrwt>
<pdfrwt beam="1">  1       21 0.29880964E+00 0.45396156E+03</pdfrwt>
<pdfrwt beam="2">  1       21 0.37287712E-02 0.45396156E+03</pdfrwt>
<totfact> 0.12901024E+04</totfact>
</mgrwt>
</event>
<event>
 7    0  0.4766352E-002  0.4533613E+03  0.7546771E-02  0.1026724E+00
         21   -1    0    0  502  501  0.00000000000E+00  0.00000000000E+00  0.43052262762E+03  0.43052262762E+03  0.00000000000E+00 0. -1.
         21   -1    0    0  501  502 -0.00000000000E+00 -0.00000000000E+00 -0.11935287869E+03  0.11935287869E+03  0.00000000000E+00 0. -1.
      99926    2    1    2    0    0  0.00000000000E+00  0.00000000000E+00  0.31116974893E+03  0.54987550631E+03  0.45336129057E+03 0.  0.
      99925    2    3    3    0    0 -0.99396443184E+02 -0.50507515516E+02  0.20308439175E+03  0.35047486795E+03  0.26298041914E+03 0.  0.
         25    1    3    3    0    0  0.99396443184E+02  0.50507515516E+02  0.10808535718E+03  0.19940063836E+03  0.12509000000E+03 0.  0.
         25    1    4    4    0    0 -0.64951326973E+02 -0.55833183096E+02  0.13894400450E+03  0.20564280609E+03  0.12509000000E+03 0.  0.
         25    1    4    4    0    0 -0.34445116211E+02  0.53256675794E+01  0.64140387245E+02  0.14483206186E+03  0.12509000000E+03 0.  0.
<mgrwt>
<rscale>  2 0.45336129E+03</rscale>
<asrwt>0</asrwt>
<pdfrwt beam="1">  1       21 0.63312151E-01 0.45336129E+03</pdfrwt>
<pdfrwt beam="2">  1       21 0.17551894E-01 0.45336129E+03</pdfrwt>
<totfact> 0.62683506E+04</totfact>
</mgrwt>
</event>
<event>
 7    0  0.4766352E-002  0.4512386E+03  0.7546771E-02  0.1027353E+00
         21   -1    0    0  502  501  0.00000000000E+00  0.00000000000E+00  0.36780781235E+03  0.36780781235E+03  0.00000000000E+00 0. -1.
         21   -1    0    0  501  502 -0.00000000000E+00 -0.00000000000E+00 -0.13839856889E+03  0.13839856889E+03  0.00000000000E+00 0. -1.
      99926    2    1    2    0    0 -0.35527136788E-14  0.00000000000E+00  0.22940924345E+03  0.50620638124E+03  0.45123862803E+03 0.  0.
      99925    2    3    3    0    0  0.31398322104E+02 -0.33167576487E+02  0.32922925823E+02  0.26884521366E+03  0.26288379011E+03 0.  0.
         25    1    4    4    0    0  0.24742906818E+02 -0.15940192024E+02 -0.23063033236E+02  0.13055923086E+03  0.12509000000E+03 0.  0.
         25    1    3    3    0    0 -0.31398322104E+02  0.33167576487E+02  0.19648631763E+03  0.23736116759E+03  0.12509000000E+03 0.  0.
         25    1    4    4    0    0  0.66554152862E+01 -0.17227384463E+02  0.55985959059E+02  0.13828598280E+03  0.12509000000E+03 0.  0.
<mgrwt>
<rscale>  2 0.45123863E+03</rscale>
<asrwt>0</asrwt>
<pdfrwt beam="1">  1       21 0.54089384E-01 0.45123863E+03</pdfrwt>
<pdfrwt beam="2">  1       21 0.20352731E-01 0.45123863E+03</pdfrwt>
<totfact> 0.66809068E+04</totfact>
</mgrwt>
</event>
<event>
 7    0  0.4766352E-002  0.4469595E+03  0.7546771E-02  0.1028633E+00
         21   -1    0    0  502  501  0.00000000000E+00  0.00000000000E+00  0.15273672740E+04  0.15273672740E+04  0.00000000000E+00 0. -1.
         21   -1    0    0  501  502 -0.00000000000E+00 -0.00000000000E+00 -0.32698874647E+02  0.32698874647E+02  0.00000000000E+00 0. -1.
      99926    2    1    2    0    0  0.00000000000E+00  0.00000000000E+00  0.14946683994E+04  0.15600661487E+04  0.44695946588E+03 0.  0.
      99925    2    3    3    0    0 -0.90899262001E+02 -0.42213812007E+02  0.10622422229E+04  0.10988887555E+04  0.26297010311E+03 0.  0.
         25    1    4    4    0    0 -0.36565548694E+02 -0.87383209277E+01  0.66101070924E+03  0.67379229992E+03  0.12509000000E+03 0.  0.
         25    1    4    4    0    0 -0.54333713306E+02 -0.33475491079E+02  0.40123151366E+03  0.42509645559E+03  0.12509000000E+03 0.  0.
         25    1    3    3    0    0  0.90899262001E+02  0.42213812007E+02  0.43242617650E+03  0.46117739318E+03  0.12509000000E+03 0.  0.
<mgrwt>
<rscale>  2 0.44695947E+03</rscale>
<asrwt>0</asrwt>
<pdfrwt beam="1">  1       21 0.22461279E+00 0.44695947E+03</pdfrwt>
<pdfrwt beam="2">  1       21 0.48086590E-02 0.44695947E+03</pdfrwt>
<totfact> 0.23796330E+04</totfact>
</mgrwt>
</event>
<event>
 7    0  0.4766352E-002  0.4534333E+03  0.7546771E-02  0.1026703E+00
         21   -1    0    0  502  501  0.00000000000E+00  0.00000000000E+00  0.37180285367E+02  0.37180285367E+02  0.00000000000E+00 0.  1.
         21   -1    0    0  501  502 -0.00000000000E+00 -0.00000000000E+00 -0.13824650254E+04  0.13824650254E+04  0.00000000000E+00 0.  1.
      99926    2    1    2    0    0  0.00000000000E+00  0.00000000000E+00 -0.13452847400E+04  0.14196453107E+04  0.45343332102E+03 0.  0.
      99925    2    3    3    0    0  0.16189908082E+02 -0.10972442017E+03 -0.89182986960E+03  0.93635410546E+03  0.26286295478E+03 0.  0.
         25    1    4    4    0    0  0.21969073871E+02 -0.82458070096E+02 -0.57453343072E+03  0.59415330062E+03  0.12509000000E+03 0.  0.
         25    1    4    4    0    0 -0.57791657890E+01 -0.27266350072E+02 -0.31729643889E+03  0.34220080484E+03  0.12509000000E+03 0.  0.
         25    1    3    3    0    0 -0.16189908082E+02  0.10972442017E+03 -0.45345487041E+03  0.48329120528E+03  0.12509000000E+03 0.  0.
<mgrwt>
<rscale>  2 0.45343332E+03</rscale>
<asrwt>0</asrwt>
<pdfrwt beam="1">  1       21 0.54676900E-02 0.45343332E+03</pdfrwt>
<pdfrwt beam="2">  1       21 0.20330364E+00 0.45343332E+03</pdfrwt>
<totfact> 0.26129838E+04</totfact>
</mgrwt>
</event>
<event>
 7    0  0.4766352E-002  0.4704776E+03  0.7546771E-02  0.1021786E+00
         21   -1    0    0  502  501  0.00000000000E+00  0.00000000000E+00  0.13425981481E+03  0.13425981481E+03  0.00000000000E+00 0.  1.
         21   -1    0    0  501  502 -0.00000000000E+00 -0.00000000000E+00 -0.41216566023E+03  0.41216566023E+03  0.00000000000E+00 0.  1.
      99926    2    1    2    0    0 -0.14210854715E-13  0.71054273576E-14 -0.27790584542E+03  0.54642547504E+03  0.47047756679E+03 0.  0.
      99925    2    3    3    0    0  0.89941640533E+02 -0.41939763506E+02 -0.26473259337E+03  0.38620848114E+03  0.26310682707E+03 0.  0.
         25    1    4    4    0    0  0.27795213676E+02 -0.38247792971E+02 -0.84615306097E+02  0.15824893585E+03  0.12509000000E+03 0.  0.
         25    1    4    4    0    0  0.62146426857E+02 -0.36919705350E+01 -0.18011728727E+03  0.22795954529E+03  0.12509000000E+03 0.  0.
         25    1    3    3    0    0 -0.89941640533E+02  0.41939763506E+02 -0.13173252056E+02  0.16021699390E+03  0.12509000000E+03 0.  0.
<mgrwt>
<rscale>  2 0.47047757E+03</rscale>
<asrwt>0</asrwt>
<pdfrwt beam="1">  1       21 0.19744091E-01 0.47047757E+03</pdfrwt>
<pdfrwt beam="2">  1       21 0.60612597E-01 0.47047757E+03</pdfrwt>
<totfact> 0.55040954E+04</totfact>
</mgrwt>
</event>
<event>
 7    0  0.4766352E-002  0.4566023E+03  0.7546771E-02  0.1025771E+00
         21   -1    0    0  502  501  0.00000000000E+00  0.00000000000E+00  0.24472397650E+04  0.24472397650E+04  0.00000000000E+00 0. -1.
         21   -1    0    0  501  502 -0.00000000000E+00 -0.00000000000E+00 -0.21298045616E+02  0.21298045616E+02  0.00000000000E+00 0. -1.
      99926    2    1    2    0    0  0.00000000000E+00  0.00000000000E+00  0.24259417194E+04  0.24685378106E+04  0.45660233967E+03 0.  0.
      99925    2    3    3    0    0 -0.57436293484E+02  0.98981239808E+02  0.15337931871E+04  0.15604228810E+04  0.26325237529E+03 0.  0.
         25    1    3    3    0    0  0.57436293484E+02 -0.98981239808E+02  0.89214853231E+03  0.90811492965E+03  0.12509000000E+03 0.  0.
         25    1    4    4    0    0 -0.34558390551E+02  0.17981519068E+02  0.56670690435E+03  0.58165439990E+03  0.12509000000E+03 0.  0.
         25    1    4    4    0    0 -0.22877902932E+02  0.80999720740E+02  0.96708628272E+03  0.97876848107E+03  0.12509000000E+03 0.  0.
<mgrwt>
<rscale>  2 0.45660234E+03</rscale>
<asrwt>0</asrwt>
<pdfrwt beam="1">  1       21 0.35988801E+00 0.45660234E+03</pdfrwt>
<pdfrwt beam="2">  1       21 0.31320672E-02 0.45660234E+03</pdfrwt>
<totfact> 0.73669425E+03</totfact>
</mgrwt>
</event>
<event>
 7    0  0.4766352E-002  0.4557723E+03  0.7546771E-02  0.1026015E+00
         21   -1    0    0  502  501  0.00000000000E+00  0.00000000000E+00  0.22312679157E+03  0.22312679157E+03  0.00000000000E+00 0. -1.
         21   -1    0    0  501  502 -0.00000000000E+00 -0.00000000000E+00 -0.23274704167E+03  0.23274704167E+03  0.00000000000E+00 0. -1.
      99926    2    1    2    0    0  0.00000000000E+00  0.00000000000E+00 -0.96202501012E+01  0.45587383324E+03  0.45577231446E+03 0.  0.
      99925    2    3    3    0    0  0.87438451037E+02  0.49478332892E+02  0.47690401495E+02  0.28550480134E+03  0.26295442390E+03 0.  0.
         25    1    4    4    0    0  0.13412024105E+02  0.18341476980E+02 -0.64541196989E+01  0.12730065172E+03  0.12509000000E+03 0.  0.
         25    1    4    4    0    0  0.74026426932E+02  0.31136855911E+02  0.54144521194E+02  0.15820414962E+03  0.12509000000E+03 0.  0.
         25    1    3    3    0    0 -0.87438451037E+02 -0.49478332892E+02 -0.57310651596E+02  0.17036903190E+03  0.12509000000E+03 0.  0.
<mgrwt>
<rscale>  2 0.45577231E+03</rscale>
<asrwt>0</asrwt>
<pdfrwt beam="1">  1       21 0.32812764E-01 0.45577231E+03</pdfrwt>
<pdfrwt beam="2">  1       21 0.34227506E-01 0.45577231E+03</pdfrwt>
<totfact> 0.68061448E+04</totfact>
</mgrwt>
</event>
<event>
 7    0  0.4766352E-002  0.4173267E+03  0.7546771E-02  0.1037940E+00
         21   -1    0    0  502  501  0.00000000000E+00  0.00000000000E+00  0.63788767674E+03  0.63788767674E+03  0.00000000000E+00 0. -1.
         21   -1    0    0  501  502 -0.00000000000E+00 -0.00000000000E+00 -0.68257135834E+02  0.68257135834E+02  0.00000000000E+00 0. -1.
      99926    2    1    2    0    0  0.71054273576E-14 -0.71054273576E-14  0.56963054090E+03  0.70614481257E+03  0.41732666245E+03 0.  0.
      99925    2    3    3    0    0  0.36325058706E+02 -0.61944089364E+02  0.38822029963E+03  0.47438251228E+03  0.26299655286E+03 0.  0.
         25    1    3    3    0    0 -0.36325058706E+02  0.61944089364E+02  0.18141024127E+03  0.23176230029E+03  0.12509000000E+03 0.  0.
         25    1    4    4    0    0  0.45833786776E+02 -0.50725353099E+02  0.24675347333E+03  0.28497119531E+03  0.12509000000E+03 0.  0.
         25    1    4    4    0    0 -0.95087280697E+01 -0.11218736265E+02  0.14146682630E+03  0.18941131697E+03  0.12509000000E+03 0.  0.
<mgrwt>
<rscale>  2 0.41732666E+03</rscale>
<asrwt>0</asrwt>
<pdfrwt beam="1">  1       21 0.93807008E-01 0.41732666E+03</pdfrwt>
<pdfrwt beam="2">  1       21 0.10037814E-01 0.41732666E+03</pdfrwt>
<totfact> 0.71531655E+04</totfact>
</mgrwt>
</event>
<event>
 7    0  0.4766352E-002  0.4536435E+03  0.7546771E-02  0.1026641E+00
         21   -1    0    0  502  501  0.00000000000E+00  0.00000000000E+00  0.26123277164E+03  0.26123277164E+03  0.00000000000E+00 0. -1.
         21   -1    0    0  501  502 -0.00000000000E+00 -0.00000000000E+00 -0.19694350658E+03  0.19694350658E+03  0.00000000000E+00 0. -1.
      99926    2    1    2    0    0  0.00000000000E+00  0.00000000000E+00  0.64289265054E+02  0.45817627822E+03  0.45364346388E+03 0.  0.
      99925    2    3    3    0    0 -0.84977387527E+02 -0.47908684114E+02 -0.14633334562E+02  0.28099647340E+03  0.26311306539E+03 0.  0.
         25    1    3    3    0    0  0.84977387527E+02  0.47908684114E+02  0.78922599616E+02  0.17717980482E+03  0.12509000000E+03 0.  0.
         25    1    4    4    0    0 -0.22221242690E+02  0.13126313365E+02 -0.12439531983E+01  0.12773072946E+03  0.12509000000E+03 0.  0.
         25    1    4    4    0    0 -0.62756144837E+02 -0.61034997478E+02 -0.13389381364E+02  0.15326574394E+03  0.12509000000E+03 0.  0.
<mgrwt>
<rscale>  2 0.45364346E+03</rscale>
<asrwt>0</asrwt>
<pdfrwt beam="1">  1       21 0.38416584E-01 0.45364346E+03</pdfrwt>
<pdfrwt beam="2">  1       21 0.28962280E-01 0.45364346E+03</pdfrwt>
<totfact> 0.69057737E+04</totfact>
</mgrwt>
</event>
<event>
 7    0  0.4766352E-002  0.4595655E+03  0.7546771E-02  0.1024907E+00
         21   -1    0    0  502  501  0.00000000000E+00  0.00000000000E+00  0.15699241487E+03  0.15699241487E+03  0.00000000000E+00 0.  1.
         21   -1    0    0  501  502 -0.00000000000E+00 -0.00000000000E+00 -0.33632264101E+03  0.33632264101E+03  0.00000000000E+00 0.  1.
      99926    2    1    2    0    0  0.00000000000E+00  0.00000000000E+00 -0.17933022615E+03  0.49331505588E+03  0.45956546252E+03 0.  0.
      99925    2    3    3    0    0 -0.83540209077E+02  0.43746322027E+02 -0.37620100513E+02  0.28207591407E+03  0.26317074707E+03 0.  0.
         25    1    4    4    0    0 -0.60243971106E+02  0.59585205461E+02 -0.26246288310E+02  0.15334962835E+03  0.12509000000E+03 0.  0.
         25    1    3    3    0    0  0.83540209077E+02 -0.43746322027E+02 -0.14171012563E+03  0.21123914181E+03  0.12509000000E+03 0.  0.
         25    1    4    4    0    0 -0.23296237971E+02 -0.15838883434E+02 -0.11373812203E+02  0.12872628572E+03  0.12509000000E+03 0.  0.
<mgrwt>
<rscale>  2 0.45956546E+03</rscale>
<asrwt>0</asrwt>
<pdfrwt beam="1">  1       21 0.23087121E-01 0.45956546E+03</pdfrwt>
<pdfrwt beam="2">  1       21 0.49459210E-01 0.45956546E+03</pdfrwt>
<totfact> 0.63413213E+04</totfact>
</mgrwt>
</event>
<event>
 7    0  0.4766352E-002  0.4585865E+03  0.7546771E-02  0.1025192E+00
         21   -1    0    0  502  501  0.00000000000E+00  0.00000000000E+00  0.14699991925E+03  0.14699991925E+03  0.00000000000E+00 0. -1.
         21   -1    0    0  501  502 -0.00000000000E+00 -0.00000000000E+00 -0.35765599564E+03  0.35765599564E+03  0.00000000000E+00 0. -1.
      99926    2    1    2    0    0  0.71054273576E-14 -0.71054273576E-14 -0.21065607639E+03  0.50465591489E+03  0.45858653481E+03 0.  0.
      99925    2    3    3    0    0  0.50857987616E+02 -0.44057496633E+02 -0.27455001651E+02  0.27284189504E+03  0.26298540769E+03 0.  0.
         25    1    4    4    0    0  0.84546979999E+01  0.15649534422E+02 -0.81326612607E+01  0.12660978685E+03  0.12509000000E+03 0.  0.
         25    1    4    4    0    0  0.42403289617E+02 -0.59707031054E+02 -0.19322340390E+02  0.14623210819E+03  0.12509000000E+03 0.  0.
         25    1    3    3    0    0 -0.50857987616E+02  0.44057496633E+02 -0.18320107474E+03  0.23181401985E+03  0.12509000000E+03 0.  0.
<mgrwt>
<rscale>  2 0.45858653E+03</rscale>
<asrwt>0</asrwt>
<pdfrwt beam="1">  1       21 0.21617636E-01 0.45858653E+03</pdfrwt>
<pdfrwt beam="2">  1       21 0.52596469E-01 0.45858653E+03</pdfrwt>
<totfact> 0.63128373E+04</totfact>
</mgrwt>
</event>
<event>
 7    0  0.4766352E-002  0.4490606E+03  0.7546771E-02  0.1028003E+00
         21   -1    0    0  502  501  0.00000000000E+00  0.00000000000E+00  0.23921757145E+03  0.23921757145E+03  0.00000000000E+00 0.  1.
         21   -1    0    0  501  502 -0.00000000000E+00 -0.00000000000E+00 -0.21074480858E+03  0.21074480858E+03  0.00000000000E+00 0.  1.
      99926    2    1    2    0    0  0.00000000000E+00  0.00000000000E+00  0.28472762866E+02  0.44996238003E+03  0.44906062532E+03 0.  0.
      99925    2    3    3    0    0 -0.20641539047E+02 -0.94432093897E+02  0.65164690237E+02  0.28767467524E+03  0.26299579546E+03 0.  0.
         25    1    4    4    0    0 -0.26541139736E+02 -0.15738896446E+02  0.79254403258E+01  0.12908317344E+03  0.12509000000E+03 0.  0.
         25    1    4    4    0    0  0.58996006888E+01 -0.78693197451E+02  0.57239249912E+02  0.15859150180E+03  0.12509000000E+03 0.  0.
         25    1    3    3    0    0  0.20641539047E+02  0.94432093897E+02 -0.36691927372E+02  0.16228770479E+03  0.12509000000E+03 0.  0.
<mgrwt>
<rscale>  2 0.44906063E+03</rscale>
<asrwt>0</asrwt>
<pdfrwt beam="1">  1       21 0.35179055E-01 0.44906063E+03</pdfrwt>
<pdfrwt beam="2">  1       21 0.30991883E-01 0.44906063E+03</pdfrwt>
<totfact> 0.72281569E+04</totfact>
</mgrwt>
</event>
<event>
 7    0  0.4766352E-002  0.4537596E+03  0.7546771E-02  0.1026607E+00
         21   -1    0    0  502  501  0.00000000000E+00  0.00000000000E+00  0.11669030244E+03  0.11669030244E+03  0.00000000000E+00 0.  1.
         21   -1    0    0  501  502 -0.00000000000E+00 -0.00000000000E+00 -0.44112009551E+03  0.44112009551E+03  0.00000000000E+00 0.  1.
      99926    2    1    2    0    0  0.00000000000E+00  0.71054273576E-14 -0.32442979307E+03  0.55781039796E+03  0.45375957228E+03 0.  0.
      99925    2    3    3    0    0  0.79618516227E+02 -0.56882369432E+02 -0.27131579543E+03  0.39034900860E+03  0.26303113046E+03 0.  0.
         25    1    4    4    0    0  0.19448050938E+02 -0.32942611463E+02 -0.17988817214E+03  0.22242010905E+03  0.12509000000E+03 0.  0.
         25    1    3    3    0    0 -0.79618516227E+02  0.56882369432E+02 -0.53113997639E+02  0.16746138935E+03  0.12509000000E+03 0.  0.
         25    1    4    4    0    0  0.60170465289E+02 -0.23939757969E+02 -0.91427623287E+02  0.16792889955E+03  0.12509000000E+03 0.  0.
<mgrwt>
<rscale>  2 0.45375957E+03</rscale>
<asrwt>0</asrwt>
<pdfrwt beam="1">  1       21 0.17160339E-01 0.45375957E+03</pdfrwt>
<pdfrwt beam="2">  1       21 0.64870602E-01 0.45375957E+03</pdfrwt>
<totfact> 0.61959044E+04</totfact>
</mgrwt>
</event>
<event>
 7    0  0.4766352E-002  0.4584161E+03  0.7546771E-02  0.1025242E+00
         21   -1    0    0  502  501  0.00000000000E+00  0.00000000000E+00  0.32717820783E+03  0.32717820783E+03  0.00000000000E+00 0.  1.
         21   -1    0    0  501  502 -0.00000000000E+00 -0.00000000000E+00 -0.16057405478E+03  0.16057405478E+03  0.00000000000E+00 0.  1.
      99926    2    1    2    0    0  0.00000000000E+00  0.00000000000E+00  0.16660415305E+03  0.48775226262E+03  0.45841610560E+03 0.  0.
      99925    2    3    3    0    0 -0.83045250547E+02 -0.36918543908E+02  0.27346024061E+02  0.27966615758E+03  0.26307007078E+03 0.  0.
         25    1    4    4    0    0 -0.37428477414E+02 -0.48057629578E+02  0.41793085814E+02  0.14527421245E+03  0.12509000000E+03 0.  0.
         25    1    3    3    0    0  0.83045250547E+02  0.36918543908E+02  0.13925812899E+03  0.20808610504E+03  0.12509000000E+03 0.  0.
         25    1    4    4    0    0 -0.45616773133E+02  0.11139085670E+02 -0.14447061753E+02  0.13439194512E+03  0.12509000000E+03 0.  0.
<mgrwt>
<rscale>  2 0.45841611E+03</rscale>
<asrwt>0</asrwt>
<pdfrwt beam="1">  1       21 0.48114442E-01 0.45841611E+03</pdfrwt>
<pdfrwt beam="2">  1       21 0.23613832E-01 0.45841611E+03</pdfrwt>
<totfact> 0.64376393E+04</totfact>
</mgrwt>
</event>
<event>
 7    0  0.4766352E-002  0.4536764E+03  0.7546771E-02  0.1026631E+00
         21   -1    0    0  502  501  0.00000000000E+00  0.00000000000E+00  0.32161471434E+02  0.32161471434E+02  0.00000000000E+00 0.  1.
         21   -1    0    0  501  502 -0.00000000000E+00 -0.00000000000E+00 -0.15999130873E+04  0.15999130873E+04  0.00000000000E+00 0.  1.
      99926    2    1    2    0    0  0.71054273576E-14  0.35527136788E-14 -0.15677516159E+04  0.16320745588E+04  0.45367635625E+03 0.  0.
      99925    2    3    3    0    0 -0.56837150739E+02 -0.26003337159E+02 -0.13216539224E+04  0.13490229414E+04  0.26303454255E+03 0.  0.
         25    1    4    4    0    0 -0.60446842564E+02 -0.34833596473E+01 -0.57048152143E+03  0.58716490781E+03  0.12509000000E+03 0.  0.
         25    1    3    3    0    0  0.56837150739E+02  0.26003337159E+02 -0.24609769346E+03  0.28305161733E+03  0.12509000000E+03 0.  0.
         25    1    4    4    0    0  0.36096918247E+01 -0.22519977512E+02 -0.75117240100E+03  0.76185803362E+03  0.12509000000E+03 0.  0.
<mgrwt>
<rscale>  2 0.45367636E+03</rscale>
<asrwt>0</asrwt>
<pdfrwt beam="1">  1       21 0.47296256E-02 0.45367636E+03</pdfrwt>
<pdfrwt beam="2">  1       21 0.23528146E+00 0.45367636E+03</pdfrwt>
<totfact> 0.20928827E+04</totfact>
</mgrwt>
</event>
<event>
 7    0  0.4766352E-002  0.4480887E+03  0.7546771E-02  0.1028294E+00
         21   -1    0    0  502  501  0.00000000000E+00  0.00000000000E+00  0.13158118586E+03  0.13158118586E+03  0.00000000000E+00 0.  1.
         21   -1    0    0  501  502 -0.00000000000E+00 -0.00000000000E+00 -0.38148207450E+03  0.38148207450E+03  0.00000000000E+00 0.  1.
      99926    2    1    2    0    0 -0.71054273576E-14  0.00000000000E+00 -0.24990088863E+03  0.51306326036E+03  0.44808866867E+03 0.  0.
      99925    2    3    3    0    0  0.55903243376E+02 -0.13406094849E+02 -0.55480270184E+02  0.27483693735E+03  0.26296841208E+03 0.  0.
         25    1    3    3    0    0 -0.55903243376E+02  0.13406094849E+02 -0.19442061845E+03  0.23822632302E+03  0.12509000000E+03 0.  0.
         25    1    4    4    0    0 -0.11783438670E+02 -0.57577642331E+01 -0.14401699627E+02  0.12659746572E+03  0.12509000000E+03 0.  0.
         25    1    4    4    0    0  0.67686682046E+02 -0.76483306162E+01 -0.41078570558E+02  0.14823947162E+03  0.12509000000E+03 0.  0.
<mgrwt>
<rscale>  2 0.44808867E+03</rscale>
<asrwt>0</asrwt>
<pdfrwt beam="1">  1       21 0.19350174E-01 0.44808867E+03</pdfrwt>
<pdfrwt beam="2">  1       21 0.56100305E-01 0.44808867E+03</pdfrwt>
<totfact> 0.68016390E+04</totfact>
</mgrwt>
</event>
<event>
 7    0  0.4766352E-002  0.4545576E+03  0.7546771E-02  0.1026372E+00
         21   -1    0    0  502  501  0.00000000000E+00  0.00000000000E+00  0.14085310392E+03  0.14085310392E+03  0.00000000000E+00 0.  1.
         21   -1    0    0  501  502 -0.00000000000E+00 -0.00000000000E+00 -0.36673423903E+03  0.36673423903E+03  0.00000000000E+00 0.  1.
      99926    2    1    2    0    0  0.00000000000E+00  0.71054273576E-14 -0.22588113511E+03  0.50758734295E+03  0.45455761299E+03 0.  0.
      99925    2    3    3    0    0  0.48683213593E+02  0.32497178986E+02 -0.24982514218E+03  0.36741978072E+03  0.26298017353E+03 0.  0.
         25    1    3    3    0    0 -0.48683213593E+02 -0.32497178986E+02  0.23944007071E+02  0.14016756223E+03  0.12509000000E+03 0.  0.
         25    1    4    4    0    0  0.20598883374E+02  0.54842397925E+02 -0.11165210192E+03  0.17761109923E+03  0.12509000000E+03 0.  0.
         25    1    4    4    0    0  0.28084330219E+02 -0.22345218939E+02 -0.13817304026E+03  0.18980868149E+03  0.12509000000E+03 0.  0.
<mgrwt>
<rscale>  2 0.45455761E+03</rscale>
<asrwt>0</asrwt>
<pdfrwt beam="1">  1       21 0.20713692E-01 0.45455761E+03</pdfrwt>
<pdfrwt beam="2">  1       21 0.53931506E-01 0.45455761E+03</pdfrwt>
<totfact> 0.64968660E+04</totfact>
</mgrwt>
</event>
<event>
 7    0  0.4766352E-002  0.4378202E+03  0.7546771E-02  0.1031418E+00
         21   -1    0    0  502  501  0.00000000000E+00  0.00000000000E+00  0.64295182128E+02  0.64295182128E+02  0.00000000000E+00 0.  1.
         21   -1    0    0  501  502 -0.00000000000E+00 -0.00000000000E+00 -0.74533770014E+03  0.74533770014E+03  0.00000000000E+00 0.  1.
      99926    2    1    2    0    0  0.00000000000E+00  0.00000000000E+00 -0.68104251801E+03  0.80963288227E+03  0.43782016024E+03 0.  0.
      99925    2    3    3    0    0 -0.83624261467E+02  0.76688618388E+01 -0.34938198234E+03  0.44535545012E+03  0.26310051088E+03 0.  0.
         25    1    4    4    0    0 -0.57856763741E+01  0.47986408788E+01 -0.12568582770E+03  0.17748503145E+03  0.12509000000E+03 0.  0.
         25    1    3    3    0    0  0.83624261467E+02 -0.76688618388E+01 -0.33166053567E+03  0.36427743214E+03  0.12509000000E+03 0.  0.
         25    1    4    4    0    0 -0.77838585093E+02  0.28702209600E+01 -0.22369615464E+03  0.26787041867E+03  0.12509000000E+03 0.  0.
<mgrwt>
<rscale>  2 0.43782016E+03</rscale>
<asrwt>0</asrwt>
<pdfrwt beam="1">  1       21 0.94551741E-02 0.43782016E+03</pdfrwt>
<pdfrwt beam="2">  1       21 0.10960848E+00 0.43782016E+03</pdfrwt>
<totfact> 0.54255370E+04</totfact>
</mgrwt>
</event>
<event>
 7    0  0.4766352E-002  0.4049072E+03  0.7546771E-02  0.1042094E+00
         21   -1    0    0  502  501  0.00000000000E+00  0.00000000000E+00  0.17173776246E+03  0.17173776246E+03  0.00000000000E+00 0.  1.
         21   -1    0    0  501  502 -0.00000000000E+00 -0.00000000000E+00 -0.23866308004E+03  0.23866308004E+03  0.00000000000E+00 0.  1.
      99926    2    1    2    0    0  0.00000000000E+00  0.23314683517E-14 -0.66925317579E+02  0.41040084251E+03  0.40490721579E+03 0.  0.
      99925    2    3    3    0    0  0.14532137881E+02  0.75961960559E+00 -0.97475324171E+02  0.28081468948E+03  0.26295187954E+03 0.  0.
         25    1    4    4    0    0  0.16355590151E+02 -0.27653898336E+02 -0.19303143661E+02  0.13058469618E+03  0.12509000000E+03 0.  0.
         25    1    4    4    0    0 -0.18234522699E+01  0.28413517941E+02 -0.78172180511E+02  0.15022999330E+03  0.12509000000E+03 0.  0.
         25    1    3    3    0    0 -0.14532137881E+02 -0.75961960559E+00  0.30550006593E+02  0.12958615303E+03  0.12509000000E+03 0.  0.
<mgrwt>
<rscale>  2 0.40490722E+03</rscale>
<asrwt>0</asrwt>
<pdfrwt beam="1">  1       21 0.25255553E-01 0.40490722E+03</pdfrwt>
<pdfrwt beam="2">  1       21 0.35097512E-01 0.40490722E+03</pdfrwt>
<totfact> 0.10961826E+05</totfact>
</mgrwt>
</event>
<event>
 7    0  0.4766352E-002  0.4383086E+03  0.7546771E-02  0.1031267E+00
         21   -1    0    0  502  501  0.00000000000E+00  0.00000000000E+00  0.30219152440E+03  0.30219152440E+03  0.00000000000E+00 0.  1.
         21   -1    0    0  501  502 -0.00000000000E+00 -0.00000000000E+00 -0.15893435010E+03  0.15893435010E+03  0.00000000000E+00 0.  1.
      99926    2    1    2    0    0  0.00000000000E+00  0.00000000000E+00  0.14325717431E+03  0.46112587450E+03  0.43830862887E+03 0.  0.
      99925    2    3    3    0    0  0.16331998396E+02  0.82506237915E+02  0.14115541908E+03  0.31037462594E+03  0.26331263286E+03 0.  0.
         25    1    4    4    0    0  0.42718384862E+02  0.19316035295E+02  0.74536452001E+02  0.15297437825E+03  0.12509000000E+03 0.  0.
         25    1    3    3    0    0 -0.16331998396E+02 -0.82506237915E+02  0.21017552243E+01  0.15075124856E+03  0.12509000000E+03 0.  0.
         25    1    4    4    0    0 -0.26386386466E+02  0.63190202619E+02  0.66618967081E+02  0.15740024769E+03  0.12509000000E+03 0.  0.
<mgrwt>
<rscale>  2 0.43830863E+03</rscale>
<asrwt>0</asrwt>
<pdfrwt beam="1">  1       21 0.44439930E-01 0.43830863E+03</pdfrwt>
<pdfrwt beam="2">  1       21 0.23372699E-01 0.43830863E+03</pdfrwt>
<totfact> 0.77920654E+04</totfact>
</mgrwt>
</event>
<event>
 7    0  0.4766352E-002  0.4524223E+03  0.7546771E-02  0.1027002E+00
         21   -1    0    0  502  501  0.00000000000E+00  0.00000000000E+00  0.30843940635E+03  0.30843940635E+03  0.00000000000E+00 0. -1.
         21   -1    0    0  501  502 -0.00000000000E+00 -0.00000000000E+00 -0.16590447530E+03  0.16590447530E+03  0.00000000000E+00 0. -1.
      99926    2    1    2    0    0  0.00000000000E+00  0.00000000000E+00  0.14253493105E+03  0.47434388165E+03  0.45242227121E+03 0.  0.
      99925    2    3    3    0    0  0.19853367103E+02 -0.10815265001E+03  0.10300327075E+03  0.30316732906E+03  0.26307718209E+03 0.  0.
         25    1    4    4    0    0 -0.12087180797E+02 -0.88241885308E+02  0.43341609044E+02  0.15955793129E+03  0.12509000000E+03 0.  0.
         25    1    4    4    0    0  0.31940547900E+02 -0.19910764704E+02  0.59661661708E+02  0.14360939777E+03  0.12509000000E+03 0.  0.
         25    1    3    3    0    0 -0.19853367103E+02  0.10815265001E+03  0.39531660300E+02  0.17117655259E+03  0.12509000000E+03 0.  0.
<mgrwt>
<rscale>  2 0.45242227E+03</rscale>
<asrwt>0</asrwt>
<pdfrwt beam="1">  1       21 0.45358736E-01 0.45242227E+03</pdfrwt>
<pdfrwt beam="2">  1       21 0.24397717E-01 0.45242227E+03</pdfrwt>
<totfact> 0.68504917E+04</totfact>
</mgrwt>
</event>
<event>
 7    0  0.4766352E-002  0.4195310E+03  0.7546771E-02  0.1037219E+00
         21   -1    0    0  502  501  0.00000000000E+00  0.00000000000E+00  0.87809766538E+02  0.87809766538E+02  0.00000000000E+00 0.  1.
         21   -1    0    0  501  502 -0.00000000000E+00 -0.00000000000E+00 -0.50110103199E+03  0.50110103199E+03  0.00000000000E+00 0.  1.
      99926    2    1    2    0    0  0.00000000000E+00  0.71054273576E-14 -0.41329126546E+03  0.58891079853E+03  0.41953099829E+03 0.  0.
      99925    2    3    3    0    0  0.81766396917E+01 -0.63491254843E+02 -0.21366846064E+03  0.34479039959E+03  0.26292244426E+03 0.  0.
         25    1    4    4    0    0 -0.41769150424E+01  0.89754259834E+01 -0.96498496827E+02  0.15829552388E+03  0.12509000000E+03 0.  0.
         25    1    3    3    0    0 -0.81766396917E+01  0.63491254843E+02 -0.19962280482E+03  0.24412039895E+03  0.12509000000E+03 0.  0.
         25    1    4    4    0    0  0.12353554734E+02 -0.72466680827E+02 -0.11716996381E+03  0.18649487571E+03  0.12509000000E+03 0.  0.
<mgrwt>
<rscale>  2 0.41953100E+03</rscale>
<asrwt>0</asrwt>
<pdfrwt beam="1">  1       21 0.12913202E-01 0.41953100E+03</pdfrwt>
<pdfrwt beam="2">  1       21 0.73691325E-01 0.41953100E+03</pdfrwt>
<totfact> 0.79385682E+04</totfact>
</mgrwt>
</event>
<event>
 7    0  0.4766352E-002  0.4510018E+03  0.7546771E-02  0.1027424E+00
         21   -1    0    0  502  501  0.00000000000E+00  0.00000000000E+00  0.22769670965E+03  0.22769670965E+03  0.00000000000E+00 0. -1.
         21   -1    0    0  501  502 -0.00000000000E+00 -0.00000000000E+00 -0.22332626368E+03  0.22332626368E+03  0.00000000000E+00 0. -1.
      99926    2    1    2    0    0  0.00000000000E+00 -0.14210854715E-13  0.43704459707E+01  0.45102297333E+03  0.45100179786E+03 0.  0.
      99925    2    3    3    0    0 -0.16687671573E+02  0.72235576865E+02  0.83389436505E+02  0.28552987404E+03  0.26282513940E+03 0.  0.
         25    1    4    4    0    0 -0.52076241412E+01  0.37641826339E+02  0.83708515695E+02  0.15523739929E+03  0.12509000000E+03 0.  0.
         25    1    3    3    0    0  0.16687671573E+02 -0.72235576865E+02 -0.79018990534E+02  0.16549309929E+03  0.12509000000E+03 0.  0.
         25    1    4    4    0    0 -0.11480047431E+02  0.34593750527E+02 -0.31907918981E+00  0.13029247475E+03  0.12509000000E+03 0.  0.
<mgrwt>
<rscale>  2 0.45100180E+03</rscale>
<asrwt>0</asrwt>
<pdfrwt beam="1">  1       21 0.33484810E-01 0.45100180E+03</pdfrwt>
<pdfrwt beam="2">  1       21 0.32842098E-01 0.45100180E+03</pdfrwt>
<totfact> 0.71078729E+04</totfact>
</mgrwt>
</event>
<event>
 7    0  0.4766352E-002  0.4178723E+03  0.7546771E-02  0.1037761E+00
         21   -1    0    0  502  501  0.00000000000E+00  0.00000000000E+00  0.52949573830E+02  0.52949573830E+02  0.00000000000E+00 0. -1.
         21   -1    0    0  501  502 -0.00000000000E+00 -0.00000000000E+00 -0.82445070998E+03  0.82445070998E+03  0.00000000000E+00 0. -1.
      99926    2    1    2    0    0 -0.35527136788E-14  0.71054273576E-14 -0.77150113615E+03  0.87740028381E+03  0.41787229503E+03 0.  0.
      99925    2    3    3    0    0 -0.24022752093E+02  0.37143422507E+02 -0.38158457730E+03  0.46552753961E+03  0.26296838982E+03 0.  0.
         25    1    4    4    0    0 -0.13949410635E+02 -0.21535351762E+02 -0.19629067459E+03  0.23417065244E+03  0.12509000000E+03 0.  0.
         25    1    4    4    0    0 -0.10073341458E+02  0.58678774269E+02 -0.18529390271E+03  0.23135688717E+03  0.12509000000E+03 0.  0.
         25    1    3    3    0    0  0.24022752093E+02 -0.37143422507E+02 -0.38991655885E+03  0.41187274420E+03  0.12509000000E+03 0.  0.
<mgrwt>
<rscale>  2 0.41787230E+03</rscale>
<asrwt>0</asrwt>
<pdfrwt beam="1">  1       21 0.77867019E-02 0.41787230E+03</pdfrwt>
<pdfrwt beam="2">  1       21 0.12124275E+00 0.41787230E+03</pdfrwt>
<totfact> 0.59805276E+04</totfact>
</mgrwt>
</event>
<event>
 7    0  0.4766352E-002  0.4499631E+03  0.7546771E-02  0.1027733E+00
         21   -1    0    0  502  501  0.00000000000E+00  0.00000000000E+00  0.41547818811E+03  0.41547818811E+03  0.00000000000E+00 0.  1.
         21   -1    0    0  501  502 -0.00000000000E+00 -0.00000000000E+00 -0.12182756237E+03  0.12182756237E+03  0.00000000000E+00 0.  1.
      99926    2    1    2    0    0  0.00000000000E+00 -0.44408920985E-15  0.29365062574E+03  0.53730575048E+03  0.44996308682E+03 0.  0.
      99925    2    3    3    0    0 -0.35828220208E+02 -0.36389574959E+01  0.30764576355E+03  0.40638487607E+03  0.26307004446E+03 0.  0.
         25    1    4    4    0    0 -0.37873428786E+02  0.26809949299E+02  0.12433977659E+03  0.18237614463E+03  0.12509000000E+03 0.  0.
         25    1    4    4    0    0  0.20452085774E+01 -0.30448906795E+02  0.18330598696E+03  0.22400873144E+03  0.12509000000E+03 0.  0.
         25    1    3    3    0    0  0.35828220208E+02  0.36389574959E+01 -0.13995137810E+02  0.13092087441E+03  0.12509000000E+03 0.  0.
<mgrwt>
<rscale>  2 0.44996309E+03</rscale>
<asrwt>0</asrwt>
<pdfrwt beam="1">  1       21 0.61099733E-01 0.44996309E+03</pdfrwt>
<pdfrwt beam="2">  1       21 0.17915818E-01 0.44996309E+03</pdfrwt>
<totfact> 0.65276773E+04</totfact>
</mgrwt>
</event>
<event>
 7    0  0.4766352E-002  0.4447221E+03  0.7546771E-02  0.1029308E+00
         21   -1    0    0  502  501  0.00000000000E+00  0.00000000000E+00  0.45789556343E+03  0.45789556343E+03  0.00000000000E+00 0.  1.
         21   -1    0    0  501  502 -0.00000000000E+00 -0.00000000000E+00 -0.10798191715E+03  0.10798191715E+03  0.00000000000E+00 0.  1.
      99926    2    1    2    0    0  0.17763568394E-14  0.00000000000E+00  0.34991364629E+03  0.56587748058E+03  0.44472211905E+03 0.  0.
      99925    2    3    3    0    0  0.13476507964E+02  0.45998995218E+02  0.33861234656E+03  0.43144254724E+03  0.26303388850E+03 0.  0.
         25    1    4    4    0    0 -0.11659849743E+02  0.34819539969E+02  0.11545852230E+03  0.17414514329E+03  0.12509000000E+03 0.  0.
         25    1    3    3    0    0 -0.13476507964E+02 -0.45998995218E+02  0.11301299732E+02  0.13443493335E+03  0.12509000000E+03 0.  0.
         25    1    4    4    0    0  0.25136357706E+02  0.11179455248E+02  0.22315382426E+03  0.25729740395E+03  0.12509000000E+03 0.  0.
<mgrwt>
<rscale>  2 0.44472212E+03</rscale>
<asrwt>0</asrwt>
<pdfrwt beam="1">  1       21 0.67337582E-01 0.44472212E+03</pdfrwt>
<pdfrwt beam="2">  1       21 0.15879694E-01 0.44472212E+03</pdfrwt>
<totfact> 0.66035417E+04</totfact>
</mgrwt>
</event>
<event>
 7    0  0.4766352E-002  0.4556814E+03  0.7546771E-02  0.1026041E+00
         21   -1    0    0  502  501  0.00000000000E+00  0.00000000000E+00  0.16556463509E+03  0.16556463509E+03  0.00000000000E+00 0. -1.
         21   -1    0    0  501  502 -0.00000000000E+00 -0.00000000000E+00 -0.31354147784E+03  0.31354147784E+03  0.00000000000E+00 0. -1.
      99926    2    1    2    0    0 -0.71054273576E-14  0.00000000000E+00 -0.14797684275E+03  0.47910611293E+03  0.45568138151E+03 0.  0.
      99925    2    3    3    0    0 -0.32230329315E+02 -0.27850891170E+02  0.17876553825E+02  0.26704639605E+03  0.26302041784E+03 0.  0.
         25    1    3    3    0    0  0.32230329315E+02  0.27850891170E+02 -0.16585339657E+03  0.21205971688E+03  0.12509000000E+03 0.  0.
         25    1    4    4    0    0 -0.42004148795E+02  0.16759281128E+02  0.29497860964E+01  0.13304672622E+03  0.12509000000E+03 0.  0.
         25    1    4    4    0    0  0.97738194805E+01 -0.44610172298E+02  0.14926767729E+02  0.13399966983E+03  0.12509000000E+03 0.  0.
<mgrwt>
<rscale>  2 0.45568138E+03</rscale>
<asrwt>0</asrwt>
<pdfrwt beam="1">  1       21 0.24347741E-01 0.45568138E+03</pdfrwt>
<pdfrwt beam="2">  1       21 0.46109040E-01 0.45568138E+03</pdfrwt>
<totfact> 0.66405361E+04</totfact>
</mgrwt>
</event>
<event>
 7    0  0.4766352E-002  0.4531670E+03  0.7546771E-02  0.1026782E+00
         21   -1    0    0  502  501  0.00000000000E+00  0.00000000000E+00  0.87209208403E+03  0.87209208403E+03  0.00000000000E+00 0. -1.
         21   -1    0    0  501  502 -0.00000000000E+00 -0.00000000000E+00 -0.58870012130E+02  0.58870012130E+02  0.00000000000E+00 0. -1.
      99926    2    1    2    0    0 -0.44408920985E-15  0.00000000000E+00  0.81322207190E+03  0.93096209616E+03  0.45316695187E+03 0.  0.
      99925    2    3    3    0    0  0.32737468239E+01 -0.75853953609E+02  0.34498094397E+03  0.44038916409E+03  0.26299472323E+03 0.  0.
         25    1    4    4    0    0  0.25195098442E+02 -0.53331365817E+02  0.13070468071E+03  0.19028990836E+03  0.12509000000E+03 0.  0.
         25    1    3    3    0    0 -0.32737468239E+01  0.75853953609E+02  0.46824112793E+03  0.49057293207E+03  0.12509000000E+03 0.  0.
         25    1    4    4    0    0 -0.21921351618E+02 -0.22522587792E+02  0.21427626326E+03  0.25009925572E+03  0.12509000000E+03 0.  0.
<mgrwt>
<rscale>  2 0.45316695E+03</rscale>
<asrwt>0</asrwt>
<pdfrwt beam="1">  1       21 0.12824883E+00 0.45316695E+03</pdfrwt>
<pdfrwt beam="2">  1       21 0.86573553E-02 0.45316695E+03</pdfrwt>
<totfact> 0.42527956E+04</totfact>
</mgrwt>
</event>
<event>
 7    0  0.4766352E-002  0.4411316E+03  0.7546771E-02  0.1030400E+00
         21   -1    0    0  502  501  0.00000000000E+00  0.00000000000E+00  0.69577984635E+02  0.69577984635E+02  0.00000000000E+00 0.  1.
         21   -1    0    0  501  502 -0.00000000000E+00 -0.00000000000E+00 -0.69920509921E+03  0.69920509921E+03  0.00000000000E+00 0.  1.
      99926    2    1    2    0    0 -0.17763568394E-14  0.88817841970E-15 -0.62962711457E+03  0.76878308384E+03  0.44113164316E+03 0.  0.
      99925    2    3    3    0    0  0.15518249813E+02 -0.46512610024E+01 -0.57264867548E+03  0.63037607200E+03  0.26303048553E+03 0.  0.
         25    1    3    3    0    0 -0.15518249813E+02  0.46512610024E+01 -0.56978439097E+02  0.13840701185E+03  0.12509000000E+03 0.  0.
         25    1    4    4    0    0  0.17341096667E+01 -0.94246913152E+01 -0.19128322579E+03  0.22875448085E+03  0.12509000000E+03 0.  0.
         25    1    4    4    0    0  0.13784140146E+02  0.47734303128E+01 -0.38136544969E+03  0.40162159114E+03  0.12509000000E+03 0.  0.
<mgrwt>
<rscale>  2 0.44113164E+03</rscale>
<asrwt>0</asrwt>
<pdfrwt beam="1">  1       21 0.10232057E-01 0.44113164E+03</pdfrwt>
<pdfrwt beam="2">  1       21 0.10282428E+00 0.44113164E+03</pdfrwt>
<totfact> 0.55066675E+04</totfact>
</mgrwt>
</event>
<event>
 7    0  0.4766352E-002  0.4681326E+03  0.7546771E-02  0.1022449E+00
         21   -1    0    0  502  501  0.00000000000E+00  0.00000000000E+00  0.10989331871E+03  0.10989331871E+03  0.00000000000E+00 0.  1.
         21   -1    0    0  501  502 -0.00000000000E+00 -0.00000000000E+00 -0.49854743565E+03  0.49854743565E+03  0.00000000000E+00 0.  1.
      99926    2    1    2    0    0  0.00000000000E+00 -0.88817841970E-15 -0.38865411694E+03  0.60844075436E+03  0.46813259762E+03 0.  0.
      99925    2    3    3    0    0  0.11357129192E+03  0.61698311570E+01 -0.17448992506E+03  0.33558490534E+03  0.26312352532E+03 0.  0.
         25    1    4    4    0    0  0.18507883921E+02 -0.99117552738E+00 -0.54201912525E+02  0.13758226491E+03  0.12509000000E+03 0.  0.
         25    1    3    3    0    0 -0.11357129192E+03 -0.61698311570E+01 -0.21416419188E+03  0.27285584903E+03  0.12509000000E+03 0.  0.
         25    1    4    4    0    0  0.95063407997E+02  0.71610066843E+01 -0.12028801254E+03  0.19800264043E+03  0.12509000000E+03 0.  0.
<mgrwt>
<rscale>  2 0.46813260E+03</rscale>
<asrwt>0</asrwt>
<pdfrwt beam="1">  1       21 0.16160782E-01 0.46813260E+03</pdfrwt>
<pdfrwt beam="2">  1       21 0.73315798E-01 0.46813260E+03</pdfrwt>
<totfact> 0.52499398E+04</totfact>
</mgrwt>
</event>
<event>
 7    0  0.4766352E-002  0.4113752E+03  0.7546771E-02  0.1039911E+00
         21   -1    0    0  502  501  0.00000000000E+00  0.00000000000E+00  0.23242532300E+03  0.23242532300E+03  0.00000000000E+00 0.  1.
         21   -1    0    0  501  502 -0.00000000000E+00 -0.00000000000E+00 -0.18202574613E+03  0.18202574613E+03  0.00000000000E+00 0.  1.
      99926    2    1    2    0    0  0.00000000000E+00 -0.71054273576E-14  0.50399576869E+02  0.41445106912E+03  0.41137521966E+03 0.  0.
      99925    2    3    3    0    0  0.45660818425E+02  0.40935186458E+02  0.15478657126E+02  0.27082802583E+03  0.26333938353E+03 0.  0.
         25    1    3    3    0    0 -0.45660818425E+02 -0.40935186458E+02  0.34920919743E+02  0.14362304329E+03  0.12509000000E+03 0.  0.
         25    1    4    4    0    0  0.26882675286E+02 -0.48647437325E+01  0.39879094678E+02  0.13410516118E+03  0.12509000000E+03 0.  0.
         25    1    4    4    0    0  0.18778143138E+02  0.45799930191E+02 -0.24400437552E+02  0.13672286465E+03  0.12509000000E+03 0.  0.
<mgrwt>
<rscale>  2 0.41137522E+03</rscale>
<asrwt>0</asrwt>
<pdfrwt beam="1">  1       21 0.34180195E-01 0.41137522E+03</pdfrwt>
<pdfrwt beam="2">  1       21 0.26768492E-01 0.41137522E+03</pdfrwt>
<totfact> 0.10309893E+05</totfact>
</mgrwt>
</event>
<event>
 7    0  0.4766352E-002  0.4592003E+03  0.7546771E-02  0.1025013E+00
         21   -1    0    0  502  501  0.00000000000E+00  0.00000000000E+00  0.86196370983E+02  0.86196370983E+02  0.00000000000E+00 0.  1.
         21   -1    0    0  501  502 -0.00000000000E+00 -0.00000000000E+00 -0.61158297885E+03  0.61158297885E+03  0.00000000000E+00 0.  1.
      99926    2    1    2    0    0  0.14210854715E-13 -0.55511151231E-16 -0.52538660786E+03  0.69777934983E+03  0.45920031939E+03 0.  0.
      99925    2    3    3    0    0 -0.91473556657E+02  0.53582096648E-01 -0.21806719442E+03  0.35359895467E+03  0.26289067123E+03 0.  0.
         25    1    4    4    0    0 -0.38163607390E+02 -0.81325846552E+01 -0.57675756992E+02  0.14316633999E+03  0.12509000000E+03 0.  0.
         25    1    3    3    0    0  0.91473556657E+02 -0.53582096648E-01 -0.30731941344E+03  0.34418039516E+03  0.12509000000E+03 0.  0.
         25    1    4    4    0    0 -0.53309949267E+02  0.81861667519E+01 -0.16039143743E+03  0.21043261467E+03  0.12509000000E+03 0.  0.
<mgrwt>
<rscale>  2 0.45920032E+03</rscale>
<asrwt>0</asrwt>
<pdfrwt beam="1">  1       21 0.12675937E-01 0.45920032E+03</pdfrwt>
<pdfrwt beam="2">  1       21 0.89938676E-01 0.45920032E+03</pdfrwt>
<totfact> 0.51306448E+04</totfact>
</mgrwt>
</event>
<event>
 7    0  0.4766352E-002  0.4168501E+03  0.7546771E-02  0.1038096E+00
         21   -1    0    0  502  501  0.00000000000E+00  0.00000000000E+00  0.55404997182E+02  0.55404997182E+02  0.00000000000E+00 0.  1.
         21   -1    0    0  501  502 -0.00000000000E+00 -0.00000000000E+00 -0.78406277961E+03  0.78406277961E+03  0.00000000000E+00 0.  1.
      99926    2    1    2    0    0  0.00000000000E+00  0.00000000000E+00 -0.72865778243E+03  0.83946777679E+03  0.41685007422E+03 0.  0.
      99925    2    3    3    0    0 -0.53827359045E+02 -0.45140046143E+02 -0.44592061452E+03  0.52241443339E+03  0.26293846697E+03 0.  0.
         25    1    3    3    0    0  0.53827359045E+02  0.45140046143E+02 -0.28273716791E+03  0.31705334341E+03  0.12509000000E+03 0.  0.
         25    1    4    4    0    0 -0.46193544001E+02 -0.46375285652E+02 -0.18281255318E+03  0.23098148914E+03  0.12509000000E+03 0.  0.
         25    1    4    4    0    0 -0.76338150444E+01  0.12352395086E+01 -0.26310806134E+03  0.29143294424E+03  0.12509000000E+03 0.  0.
<mgrwt>
<rscale>  2 0.41685007E+03</rscale>
<asrwt>0</asrwt>
<pdfrwt beam="1">  1       21 0.81477937E-02 0.41685007E+03</pdfrwt>
<pdfrwt beam="2">  1       21 0.11530335E+00 0.41685007E+03</pdfrwt>
<totfact> 0.62663225E+04</totfact>
</mgrwt>
</event>
<event>
 7    0  0.4766352E-002  0.4187158E+03  0.7546771E-02  0.1037485E+00
         21   -1    0    0  502  501  0.00000000000E+00  0.00000000000E+00  0.90304763422E+02  0.90304763422E+02  0.00000000000E+00 0. -1.
         21   -1    0    0  501  502 -0.00000000000E+00 -0.00000000000E+00 -0.48536448494E+03  0.48536448494E+03  0.00000000000E+00 0. -1.
      99926    2    1    2    0    0  0.00000000000E+00 -0.71054273576E-14 -0.39505972152E+03  0.57566924837E+03  0.41871577465E+03 0.  0.
      99925    2    3    3    0    0  0.30303503296E+02  0.48433841745E+02 -0.32370373390E+03  0.42073918541E+03  0.26262752228E+03 0.  0.
         25    1    4    4    0    0 -0.49886146361E+01 -0.10385953247E+02 -0.13897025861E+03  0.18733124453E+03  0.12509000000E+03 0.  0.
         25    1    4    4    0    0  0.35292117932E+02  0.58819794992E+02 -0.18473347529E+03  0.23340794087E+03  0.12509000000E+03 0.  0.
         25    1    3    3    0    0 -0.30303503296E+02 -0.48433841745E+02 -0.71355987627E+02  0.15493006296E+03  0.12509000000E+03 0.  0.
<mgrwt>
<rscale>  2 0.41871577E+03</rscale>
<asrwt>0</asrwt>
<pdfrwt beam="1">  1       21 0.13280112E-01 0.41871577E+03</pdfrwt>
<pdfrwt beam="2">  1       21 0.71377129E-01 0.41871577E+03</pdfrwt>
<totfact> 0.81073035E+04</totfact>
</mgrwt>
</event>
<event>
 7    0  0.4766352E-002  0.4531980E+03  0.7546771E-02  0.1026773E+00
         21   -1    0    0  502  501  0.00000000000E+00  0.00000000000E+00  0.19468446024E+03  0.19468446024E+03  0.00000000000E+00 0. -1.
         21   -1    0    0  501  502 -0.00000000000E+00 -0.00000000000E+00 -0.26374531635E+03  0.26374531635E+03  0.00000000000E+00 0. -1.
      99926    2    1    2    0    0 -0.35527136788E-14 -0.71054273576E-14 -0.69060856108E+02  0.45842977659E+03  0.45319803421E+03 0.  0.
      99925    2    3    3    0    0 -0.18788074996E+02 -0.50631552518E+02  0.55103921890E+02  0.27409056191E+03  0.26300693536E+03 0.  0.
         25    1    4    4    0    0  0.13613852637E+02  0.78770982496E+01  0.34862773531E+02  0.13080637117E+03  0.12509000000E+03 0.  0.
         25    1    4    4    0    0 -0.32401927633E+02 -0.58508650768E+02  0.20241148359E+02  0.14328419074E+03  0.12509000000E+03 0.  0.
         25    1    3    3    0    0  0.18788074996E+02  0.50631552518E+02 -0.12416477800E+03  0.18433921468E+03  0.12509000000E+03 0.  0.
<mgrwt>
<rscale>  2 0.45319803E+03</rscale>
<asrwt>0</asrwt>
<pdfrwt beam="1">  1       21 0.28630068E-01 0.45319803E+03</pdfrwt>
<pdfrwt beam="2">  1       21 0.38786076E-01 0.45319803E+03</pdfrwt>
<totfact> 0.69285439E+04</totfact>
</mgrwt>
</event>
<event>
 7    0  0.4766352E-002  0.4558239E+03  0.7546771E-02  0.1025999E+00
         21   -1    0    0  502  501  0.00000000000E+00  0.00000000000E+00  0.18032900585E+03  0.18032900585E+03  0.00000000000E+00 0.  1.
         21   -1    0    0  501  502 -0.00000000000E+00 -0.00000000000E+00 -0.28805041868E+03  0.28805041868E+03  0.00000000000E+00 0.  1.
      99926    2    1    2    0    0  0.14210854715E-13  0.00000000000E+00 -0.10772141283E+03  0.46837942453E+03  0.45582385034E+03 0.  0.
      99925    2    3    3    0    0 -0.83632923478E+02  0.76718536089E+02 -0.56939417078E+02  0.29200902208E+03  0.26295811850E+03 0.  0.
         25    1    4    4    0    0 -0.57840192715E+02  0.63007518668E+02 -0.87874905833E-01  0.15153531313E+03  0.12509000000E+03 0.  0.
         25    1    3    3    0    0  0.83632923478E+02 -0.76718536089E+02 -0.50781995756E+02  0.17637040246E+03  0.12509000000E+03 0.  0.
         25    1    4    4    0    0 -0.25792730764E+02  0.13711017421E+02 -0.56851542172E+02  0.14047370895E+03  0.12509000000E+03 0.  0.
<mgrwt>
<rscale>  2 0.45582385E+03</rscale>
<asrwt>0</asrwt>
<pdfrwt beam="1">  1       21 0.26518971E-01 0.45582385E+03</pdfrwt>
<pdfrwt beam="2">  1       21 0.42360356E-01 0.45582385E+03</pdfrwt>
<totfact> 0.67116907E+04</totfact>
</mgrwt>
</event>
<event>
 7    0  0.4766352E-002  0.4519897E+03  0.7546771E-02  0.1027130E+00
         21   -1    0    0  502  501  0.00000000000E+00  0.00000000000E+00  0.87799897949E+02  0.87799897949E+02  0.00000000000E+00 0. -1.
         21   -1    0    0  501  502 -0.00000000000E+00 -0.00000000000E+00 -0.58170545042E+03  0.58170545042E+03  0.00000000000E+00 0. -1.
      99926    2    1    2    0    0  0.00000000000E+00  0.00000000000E+00 -0.49390555247E+03  0.66950534837E+03  0.45198973078E+03 0.  0.
      99925    2    3    3    0    0  0.77317612078E+02 -0.24640838016E+02 -0.20103257353E+03  0.34086074712E+03  0.26303377972E+03 0.  0.
         25    1    4    4    0    0  0.27911723943E+01  0.82699381538E+01 -0.80683958834E+02  0.14910932846E+03  0.12509000000E+03 0.  0.
         25    1    4    4    0    0  0.74526439684E+02 -0.32910776170E+02 -0.12034861470E+03  0.19175141866E+03  0.12509000000E+03 0.  0.
         25    1    3    3    0    0 -0.77317612078E+02  0.24640838016E+02 -0.29287297894E+03  0.32864460125E+03  0.12509000000E+03 0.  0.
<mgrwt>
<rscale>  2 0.45198973E+03</rscale>
<asrwt>0</asrwt>
<pdfrwt beam="1">  1       21 0.12911750E-01 0.45198973E+03</pdfrwt>
<pdfrwt beam="2">  1       21 0.85544920E-01 0.45198973E+03</pdfrwt>
<totfact> 0.55904966E+04</totfact>
</mgrwt>
</event>
<event>
 7    0  0.4766352E-002  0.4572001E+03  0.7546771E-02  0.1025596E+00
         21   -1    0    0  502  501  0.00000000000E+00  0.00000000000E+00  0.36047980583E+03  0.36047980583E+03  0.00000000000E+00 0. -1.
         21   -1    0    0  501  502 -0.00000000000E+00 -0.00000000000E+00 -0.14496785962E+03  0.14496785962E+03  0.00000000000E+00 0. -1.
      99926    2    1    2    0    0  0.00000000000E+00 -0.17763568394E-14  0.21551194621E+03  0.50544766546E+03  0.45720011325E+03 0.  0.
      99925    2    3    3    0    0 -0.49868923669E+02 -0.14128888996E+02  0.24908170006E+03  0.36594507937E+03  0.26303530705E+03 0.  0.
         25    1    4    4    0    0 -0.35384640066E+02  0.29643152205E+02  0.10559966836E+03  0.17008699916E+03  0.12509000000E+03 0.  0.
         25    1    4    4    0    0 -0.14484283604E+02 -0.43772041201E+02  0.14348203170E+03  0.19585808021E+03  0.12509000000E+03 0.  0.
         25    1    3    3    0    0  0.49868923669E+02  0.14128888996E+02 -0.33569753846E+02  0.13950258609E+03  0.12509000000E+03 0.  0.
<mgrwt>
<rscale>  2 0.45720011E+03</rscale>
<asrwt>0</asrwt>
<pdfrwt beam="1">  1       21 0.53011736E-01 0.45720011E+03</pdfrwt>
<pdfrwt beam="2">  1       21 0.21318803E-01 0.45720011E+03</pdfrwt>
<totfact> 0.63768712E+04</totfact>
</mgrwt>
</event>
<event>
 7    0  0.4766352E-002  0.4718268E+03  0.7546771E-02  0.1021406E+00
         21   -1    0    0  502  501  0.00000000000E+00  0.00000000000E+00  0.60790255848E+02  0.60790255848E+02  0.00000000000E+00 0.  1.
         21   -1    0    0  501  502 -0.00000000000E+00 -0.00000000000E+00 -0.91552723381E+03  0.91552723381E+03  0.00000000000E+00 0.  1.
      99926    2    1    2    0    0  0.00000000000E+00  0.00000000000E+00 -0.85473697796E+03  0.97631748965E+03  0.47182681051E+03 0.  0.
      99925    2    3    3    0    0 -0.48310911555E+02 -0.10101557771E+03 -0.40038491663E+03  0.49194016272E+03  0.26298089496E+03 0.  0.
         25    1    3    3    0    0  0.48310911555E+02  0.10101557771E+03 -0.45435206133E+03  0.48437732694E+03  0.12509000000E+03 0.  0.
         25    1    4    4    0    0 -0.40319676145E+02 -0.74401010604E+02 -0.16322122774E+03  0.22237325367E+03  0.12509000000E+03 0.  0.
         25    1    4    4    0    0 -0.79912354096E+01 -0.26614567109E+02 -0.23716368889E+03  0.26956690904E+03  0.12509000000E+03 0.  0.
<mgrwt>
<rscale>  2 0.47182681E+03</rscale>
<asrwt>0</asrwt>
<pdfrwt beam="1">  1       21 0.89397433E-02 0.47182681E+03</pdfrwt>
<pdfrwt beam="2">  1       21 0.13463636E+00 0.47182681E+03</pdfrwt>
<totfact> 0.35225654E+04</totfact>
</mgrwt>
</event>
<event>
 7    0  0.4766352E-002  0.4560251E+03  0.7546771E-02  0.1025940E+00
         21   -1    0    0  502  501  0.00000000000E+00  0.00000000000E+00  0.27092862603E+02  0.27092862603E+02  0.00000000000E+00 0. -1.
         21   -1    0    0  501  502 -0.00000000000E+00 -0.00000000000E+00 -0.19189453593E+04  0.19189453593E+04  0.00000000000E+00 0. -1.
      99926    2    1    2    0    0 -0.35527136788E-14  0.00000000000E+00 -0.18918524967E+04  0.19460382219E+04  0.45602510002E+03 0.  0.
      99925    2    3    3    0    0 -0.26940450265E+02 -0.36224180161E+02 -0.74369652843E+03  0.79020622085E+03  0.26325532470E+03 0.  0.
         25    1    3    3    0    0  0.26940450265E+02  0.36224180161E+02 -0.11481559683E+04  0.11558320011E+04  0.12509000000E+03 0.  0.
         25    1    4    4    0    0 -0.54277541977E+02 -0.13195290539E+02 -0.38412766543E+03  0.40782562291E+03  0.12509000000E+03 0.  0.
         25    1    4    4    0    0  0.27337091712E+02 -0.23028889621E+02 -0.35956886300E+03  0.38238059794E+03  0.12509000000E+03 0.  0.
<mgrwt>
<rscale>  2 0.45602510E+03</rscale>
<asrwt>0</asrwt>
<pdfrwt beam="1">  1       21 0.39842450E-02 0.45602510E+03</pdfrwt>
<pdfrwt beam="2">  1       21 0.28219781E+00 0.45602510E+03</pdfrwt>
<totfact> 0.14495384E+04</totfact>
</mgrwt>
</event>
<event>
 7    0  0.4766352E-002  0.4517116E+03  0.7546771E-02  0.1027213E+00
         21   -1    0    0  502  501  0.00000000000E+00  0.00000000000E+00  0.34550992527E+02  0.34550992527E+02  0.00000000000E+00 0. -1.
         21   -1    0    0  501  502 -0.00000000000E+00 -0.00000000000E+00 -0.14763929735E+04  0.14763929735E+04  0.00000000000E+00 0. -1.
      99926    2    1    2    0    0 -0.14210854715E-13 -0.71054273576E-14 -0.14418419810E+04  0.15109439660E+04  0.45171160089E+03 0.  0.
      99925    2    3    3    0    0  0.91392130239E+02  0.54342102881E+02 -0.81884864705E+03  0.86668176177E+03  0.26328422627E+03 0.  0.
         25    1    4    4    0    0  0.81363300994E+02  0.49526738581E+02 -0.49330225483E+03  0.51775236098E+03  0.12509000000E+03 0.  0.
         25    1    3    3    0    0 -0.91392130239E+02 -0.54342102881E+02 -0.62299333393E+03  0.64426220426E+03  0.12509000000E+03 0.  0.
         25    1    4    4    0    0  0.10028829245E+02  0.48153643002E+01 -0.32554639222E+03  0.34892940079E+03  0.12509000000E+03 0.  0.
<mgrwt>
<rscale>  2 0.45171160E+03</rscale>
<asrwt>0</asrwt>
<pdfrwt beam="1">  1       21 0.50810278E-02 0.45171160E+03</pdfrwt>
<pdfrwt beam="2">  1       21 0.21711664E+00 0.45171160E+03</pdfrwt>
<totfact> 0.24122427E+04</totfact>
</mgrwt>
</event>
<event>
 7    0  0.4766352E-002  0.4550420E+03  0.7546771E-02  0.1026229E+00
         21   -1    0    0  502  501  0.00000000000E+00  0.00000000000E+00  0.21811254821E+03  0.21811254821E+03  0.00000000000E+00 0. -1.
         21   -1    0    0  501  502 -0.00000000000E+00 -0.00000000000E+00 -0.23733528044E+03  0.23733528044E+03  0.00000000000E+00 0. -1.
      99926    2    1    2    0    0  0.00000000000E+00  0.00000000000E+00 -0.19222732233E+02  0.45544782865E+03  0.45504198837E+03 0.  0.
      99925    2    3    3    0    0 -0.39400260047E+02 -0.98216518557E+02  0.28443306823E+02  0.28480661326E+03  0.26288195116E+03 0.  0.
         25    1    4    4    0    0  0.16292475277E+02 -0.41333680864E+02  0.31777379105E+02  0.13649625580E+03  0.12509000000E+03 0.  0.
         25    1    3    3    0    0  0.39400260047E+02  0.98216518557E+02 -0.47666039056E+02  0.17064121539E+03  0.12509000000E+03 0.  0.
         25    1    4    4    0    0 -0.55692735324E+02 -0.56882837694E+02 -0.33340722825E+01  0.14831035746E+03  0.12509000000E+03 0.  0.
<mgrwt>
<rscale>  2 0.45504199E+03</rscale>
<asrwt>0</asrwt>
<pdfrwt beam="1">  1       21 0.32075375E-01 0.45504199E+03</pdfrwt>
<pdfrwt beam="2">  1       21 0.34902247E-01 0.45504199E+03</pdfrwt>
<totfact> 0.68490070E+04</totfact>
</mgrwt>
</event>
<event>
 7    0  0.4766352E-002  0.4608023E+03  0.7546771E-02  0.1024549E+00
         21   -1    0    0  502  501  0.00000000000E+00  0.00000000000E+00  0.13061690606E+04  0.13061690606E+04  0.00000000000E+00 0. -1.
         21   -1    0    0  501  502 -0.00000000000E+00 -0.00000000000E+00 -0.40641512342E+02  0.40641512342E+02  0.00000000000E+00 0. -1.
      99926    2    1    2    0    0  0.00000000000E+00  0.35527136788E-14  0.12655275482E+04  0.13468105729E+04  0.46080228296E+03 0.  0.
      99925    2    3    3    0    0 -0.10977564946E+03  0.27947732894E+02  0.89383204687E+03  0.93859883519E+03  0.26305945412E+03 0.  0.
         25    1    3    3    0    0  0.10977564946E+03 -0.27947732894E+02  0.37169550134E+03  0.40821173771E+03  0.12509000000E+03 0.  0.
         25    1    4    4    0    0 -0.17015192321E+02 -0.83134751846E+01  0.39394410030E+03  0.41376091273E+03  0.12509000000E+03 0.  0.
         25    1    4    4    0    0 -0.92760457144E+02  0.36261208079E+02  0.49988794657E+03  0.52483792246E+03  0.12509000000E+03 0.  0.
<mgrwt>
<rscale>  2 0.46080228E+03</rscale>
<asrwt>0</asrwt>
<pdfrwt beam="1">  1       21 0.19208366E+00 0.46080228E+03</pdfrwt>
<pdfrwt beam="2">  1       21 0.59766938E-02 0.46080228E+03</pdfrwt>
<totfact> 0.26565910E+04</totfact>
</mgrwt>
</event>
<event>
 7    0  0.4766352E-002  0.4514690E+03  0.7546771E-02  0.1027285E+00
         21   -1    0    0  502  501  0.00000000000E+00  0.00000000000E+00  0.18767546991E+03  0.18767546991E+03  0.00000000000E+00 0. -1.
         21   -1    0    0  501  502 -0.00000000000E+00 -0.00000000000E+00 -0.27151161550E+03  0.27151161550E+03  0.00000000000E+00 0. -1.
      99926    2    1    2    0    0  0.00000000000E+00  0.00000000000E+00 -0.83836145589E+02  0.45918708541E+03  0.45146902452E+03 0.  0.
      99925    2    3    3    0    0 -0.38300429068E+02 -0.44615307425E+02 -0.14727460727E+03  0.30710357202E+03  0.26299305215E+03 0.  0.
         25    1    3    3    0    0  0.38300429068E+02  0.44615307425E+02  0.63438461681E+02  0.15208351339E+03  0.12509000000E+03 0.  0.
         25    1    4    4    0    0 -0.38598246168E+02 -0.23834235972E+02 -0.34636437126E+02  0.13749576826E+03  0.12509000000E+03 0.  0.
         25    1    4    4    0    0  0.29781710000E+00 -0.20781071452E+02 -0.11263817014E+03  0.16960780377E+03  0.12509000000E+03 0.  0.
<mgrwt>
<rscale>  2 0.45146902E+03</rscale>
<asrwt>0</asrwt>
<pdfrwt beam="1">  1       21 0.27599334E-01 0.45146902E+03</pdfrwt>
<pdfrwt beam="2">  1       21 0.39928179E-01 0.45146902E+03</pdfrwt>
<totfact> 0.70193497E+04</totfact>
</mgrwt>
</event>
<event>
 7    0  0.4766352E-002  0.4614733E+03  0.7546771E-02  0.1024355E+00
         21   -1    0    0  502  501  0.00000000000E+00  0.00000000000E+00  0.87112361402E+02  0.87112361402E+02  0.00000000000E+00 0. -1.
         21   -1    0    0  501  502 -0.00000000000E+00 -0.00000000000E+00 -0.61115776478E+03  0.61115776478E+03  0.00000000000E+00 0. -1.
      99926    2    1    2    0    0 -0.71054273576E-14 -0.14210854715E-13 -0.52404540338E+03  0.69827012618E+03  0.46147327584E+03 0.  0.
      99925    2    3    3    0    0  0.61600440520E+02  0.98197630381E+02 -0.37032115806E+03  0.46867038624E+03  0.26282462203E+03 0.  0.
         25    1    3    3    0    0 -0.61600440520E+02 -0.98197630381E+02 -0.15372424532E+03  0.22959973995E+03  0.12509000000E+03 0.  0.
         25    1    4    4    0    0  0.26979527287E+02  0.71215713613E+02 -0.24950121541E+03  0.28930595802E+03  0.12509000000E+03 0.  0.
         25    1    4    4    0    0  0.34620913233E+02  0.26981916768E+02 -0.12081994265E+03  0.17936442821E+03  0.12509000000E+03 0.  0.
<mgrwt>
<rscale>  2 0.46147328E+03</rscale>
<asrwt>0</asrwt>
<pdfrwt beam="1">  1       21 0.12810641E-01 0.46147328E+03</pdfrwt>
<pdfrwt beam="2">  1       21 0.89876143E-01 0.46147328E+03</pdfrwt>
<totfact> 0.50380754E+04</totfact>
</mgrwt>
</event>
<event>
 7    0  0.4766352E-002  0.4331316E+03  0.7546771E-02  0.1032875E+00
         21   -1    0    0  502  501  0.00000000000E+00  0.00000000000E+00  0.54132805710E+03  0.54132805710E+03  0.00000000000E+00 0. -1.
         21   -1    0    0  501  502 -0.00000000000E+00 -0.00000000000E+00 -0.86640171810E+02  0.86640171810E+02  0.00000000000E+00 0. -1.
      99926    2    1    2    0    0  0.71054273576E-14 -0.35527136788E-14  0.45468788529E+03  0.62796822891E+03  0.43313164684E+03 0.  0.
      99925    2    3    3    0    0 -0.52302739593E+02  0.85997949682E+01  0.39961740185E+03  0.48137423419E+03  0.26309228881E+03 0.  0.
         25    1    4    4    0    0 -0.46946912930E+02  0.39664356213E+02  0.20605776249E+03  0.24876612183E+03  0.12509000000E+03 0.  0.
         25    1    4    4    0    0 -0.53558266627E+01 -0.31064561245E+02  0.19355963936E+03  0.23260811236E+03  0.12509000000E+03 0.  0.
         25    1    3    3    0    0  0.52302739593E+02 -0.85997949682E+01  0.55070483433E+02  0.14659399472E+03  0.12509000000E+03 0.  0.
<mgrwt>
<rscale>  2 0.43313165E+03</rscale>
<asrwt>0</asrwt>
<pdfrwt beam="1">  1       21 0.79607066E-01 0.43313165E+03</pdfrwt>
<pdfrwt beam="2">  1       21 0.12741202E-01 0.43313165E+03</pdfrwt>
<totfact> 0.67984907E+04</totfact>
</mgrwt>
</event>
<event>
 7    0  0.4766352E-002  0.4572387E+03  0.7546771E-02  0.1025585E+00
         21   -1    0    0  502  501  0.00000000000E+00  0.00000000000E+00  0.51237442865E+03  0.51237442865E+03  0.00000000000E+00 0.  1.
         21   -1    0    0  501  502 -0.00000000000E+00 -0.00000000000E+00 -0.10200899664E+03  0.10200899664E+03  0.00000000000E+00 0.  1.
      99926    2    1    2    0    0  0.00000000000E+00 -0.71054273576E-14  0.41036543202E+03  0.61438342529E+03  0.45723867452E+03 0.  0.
      99925    2    3    3    0    0  0.51335894882E+02  0.57637125467E+02  0.14290729189E+03  0.30919696236E+03  0.26310236625E+03 0.  0.
         25    1    4    4    0    0 -0.13920047179E+02  0.35520442094E+02  0.58105881877E+02  0.14310580397E+03  0.12509000000E+03 0.  0.
         25    1    3    3    0    0 -0.51335894882E+02 -0.57637125467E+02  0.26745814013E+03  0.30518646293E+03  0.12509000000E+03 0.  0.
         25    1    4    4    0    0  0.65255942061E+02  0.22116683373E+02  0.84801410013E+02  0.16609115840E+03  0.12509000000E+03 0.  0.
<mgrwt>
<rscale>  2 0.45723867E+03</rscale>
<asrwt>0</asrwt>
<pdfrwt beam="1">  1       21 0.75349180E-01 0.45723867E+03</pdfrwt>
<pdfrwt beam="2">  1       21 0.15001323E-01 0.45723867E+03</pdfrwt>
<totfact> 0.56790755E+04</totfact>
</mgrwt>
</event>
<event>
 7    0  0.4766352E-002  0.4555720E+03  0.7546771E-02  0.1026073E+00
         21   -1    0    0  502  501  0.00000000000E+00  0.00000000000E+00  0.20751303076E+03  0.20751303076E+03  0.00000000000E+00 0.  1.
         21   -1    0    0  501  502 -0.00000000000E+00 -0.00000000000E+00 -0.25003953744E+03  0.25003953744E+03  0.00000000000E+00 0.  1.
      99926    2    1    2    0    0 -0.71054273576E-14  0.71054273576E-14 -0.42526506673E+02  0.45755256820E+03  0.45557200188E+03 0.  0.
      99925    2    3    3    0    0 -0.48227350296E+02  0.35788568690E+02 -0.12376452426E+03  0.29676132911E+03  0.26295043264E+03 0.  0.
         25    1    3    3    0    0  0.48227350296E+02 -0.35788568690E+02  0.81238017585E+02  0.16079123909E+03  0.12509000000E+03 0.  0.
         25    1    4    4    0    0 -0.62593397202E+02  0.43587629748E+01 -0.63754109969E+02  0.15378240090E+03  0.12509000000E+03 0.  0.
         25    1    4    4    0    0  0.14366046905E+02  0.31429805715E+02 -0.60010414289E+02  0.14297892822E+03  0.12509000000E+03 0.  0.
<mgrwt>
<rscale>  2 0.45557200E+03</rscale>
<asrwt>0</asrwt>
<pdfrwt beam="1">  1       21 0.30516622E-01 0.45557200E+03</pdfrwt>
<pdfrwt beam="2">  1       21 0.36770520E-01 0.45557200E+03</pdfrwt>
<totfact> 0.68048120E+04</totfact>
</mgrwt>
</event>
<event>
 7    0  0.4766352E-002  0.4480746E+03  0.7546771E-02  0.1028298E+00
         21   -1    0    0  502  501  0.00000000000E+00  0.00000000000E+00  0.42027103466E+03  0.42027103466E+03  0.00000000000E+00 0. -1.
         21   -1    0    0  501  502 -0.00000000000E+00 -0.00000000000E+00 -0.11942940409E+03  0.11942940409E+03  0.00000000000E+00 0. -1.
      99926    2    1    2    0    0  0.00000000000E+00 -0.14210854715E-13  0.30084163057E+03  0.53970043875E+03  0.44807463318E+03 0.  0.
      99925    2    3    3    0    0 -0.83498155251E+02  0.65670038109E+02  0.19871781490E+03  0.34640978284E+03  0.26310923939E+03 0.  0.
         25    1    3    3    0    0  0.83498155251E+02 -0.65670038109E+02  0.10212381567E+03  0.19329065591E+03  0.12509000000E+03 0.  0.
         25    1    4    4    0    0 -0.51770688627E+02  0.74178673938E+02  0.10511723402E+03  0.18676140087E+03  0.12509000000E+03 0.  0.
         25    1    4    4    0    0 -0.31727466624E+02 -0.85086358298E+01  0.93600580885E+02  0.15964838197E+03  0.12509000000E+03 0.  0.
<mgrwt>
<rscale>  2 0.44807463E+03</rscale>
<asrwt>0</asrwt>
<pdfrwt beam="1">  1       21 0.61804563E-01 0.44807463E+03</pdfrwt>
<pdfrwt beam="2">  1       21 0.17563148E-01 0.44807463E+03</pdfrwt>
<totfact> 0.66101262E+04</totfact>
</mgrwt>
</event>
<event>
 7    0  0.4766352E-002  0.4559565E+03  0.7546771E-02  0.1025960E+00
         21   -1    0    0  502  501  0.00000000000E+00  0.00000000000E+00  0.28183612082E+03  0.28183612082E+03  0.00000000000E+00 0. -1.
         21   -1    0    0  501  502 -0.00000000000E+00 -0.00000000000E+00 -0.18441244921E+03  0.18441244921E+03  0.00000000000E+00 0. -1.
      99926    2    1    2    0    0  0.14210854715E-13  0.00000000000E+00  0.97423671612E+02  0.46624857003E+03  0.45595653001E+03 0.  0.
      99925    2    3    3    0    0 -0.68647942459E+02 -0.65642050727E+02 -0.33427945990E+01  0.27963986809E+03  0.26299403552E+03 0.  0.
         25    1    4    4    0    0 -0.60290489503E+02 -0.10369902252E+02 -0.23293186026E+02  0.14118271358E+03  0.12509000000E+03 0.  0.
         25    1    3    3    0    0  0.68647942459E+02  0.65642050727E+02  0.10076646621E+03  0.18660870194E+03  0.12509000000E+03 0.  0.
         25    1    4    4    0    0 -0.83574529560E+01 -0.55272148476E+02  0.19950391428E+02  0.13845715451E+03  0.12509000000E+03 0.  0.
<mgrwt>
<rscale>  2 0.45595653E+03</rscale>
<asrwt>0</asrwt>
<pdfrwt beam="1">  1       21 0.41446488E-01 0.45595653E+03</pdfrwt>
<pdfrwt beam="2">  1       21 0.27119478E-01 0.45595653E+03</pdfrwt>
<totfact> 0.67205009E+04</totfact>
</mgrwt>
</event>
<event>
 7    0  0.4766352E-002  0.4518418E+03  0.7546771E-02  0.1027174E+00
         21   -1    0    0  502  501  0.00000000000E+00  0.00000000000E+00  0.30759272509E+03  0.30759272509E+03  0.00000000000E+00 0. -1.
         21   -1    0    0  501  502 -0.00000000000E+00 -0.00000000000E+00 -0.16593454046E+03  0.16593454046E+03  0.00000000000E+00 0. -1.
      99926    2    1    2    0    0  0.00000000000E+00  0.00000000000E+00  0.14165818463E+03  0.47352726555E+03  0.45184181961E+03 0.  0.
      99925    2    3    3    0    0  0.10473783915E+03 -0.32366531862E+02  0.77895074310E+02  0.29539571396E+03  0.26300832285E+03 0.  0.
         25    1    4    4    0    0  0.59336059227E+02 -0.56651269738E+02  0.44322128479E+02  0.15601952910E+03  0.12509000000E+03 0.  0.
         25    1    3    3    0    0 -0.10473783915E+03  0.32366531862E+02  0.63763110315E+02  0.17813155159E+03  0.12509000000E+03 0.  0.
         25    1    4    4    0    0  0.45401779921E+02  0.24284737876E+02  0.33572945831E+02  0.13937618486E+03  0.12509000000E+03 0.  0.
<mgrwt>
<rscale>  2 0.45184182E+03</rscale>
<asrwt>0</asrwt>
<pdfrwt beam="1">  1       21 0.45234224E-01 0.45184182E+03</pdfrwt>
<pdfrwt beam="2">  1       21 0.24402138E-01 0.45184182E+03</pdfrwt>
<totfact> 0.68884726E+04</totfact>
</mgrwt>
</event>
<event>
 7    0  0.4766352E-002  0.4456788E+03  0.7546771E-02  0.1029019E+00
         21   -1    0    0  502  501  0.00000000000E+00  0.00000000000E+00  0.53816020652E+03  0.53816020652E+03  0.00000000000E+00 0. -1.
         21   -1    0    0  501  502 -0.00000000000E+00 -0.00000000000E+00 -0.92272523454E+02  0.92272523454E+02  0.00000000000E+00 0. -1.
      99926    2    1    2    0    0  0.00000000000E+00  0.17763568394E-14  0.44588768307E+03  0.63043272998E+03  0.44567880936E+03 0.  0.
      99925    2    3    3    0    0 -0.27801980417E+02  0.53881315167E+01  0.14122652711E+03  0.29987576042E+03  0.26301816981E+03 0.  0.
         25    1    4    4    0    0 -0.46558815188E+01 -0.30356922975E+02  0.94362773956E+02  0.15967172954E+03  0.12509000000E+03 0.  0.
         25    1    4    4    0    0 -0.23146098898E+02  0.35745054492E+02  0.46863753158E+02  0.14020403088E+03  0.12509000000E+03 0.  0.
         25    1    3    3    0    0  0.27801980417E+02 -0.53881315167E+01  0.30466115595E+03  0.33055696956E+03  0.12509000000E+03 0.  0.
<mgrwt>
<rscale>  2 0.44567881E+03</rscale>
<asrwt>0</asrwt>
<pdfrwt beam="1">  1       21 0.79141205E-01 0.44567881E+03</pdfrwt>
<pdfrwt beam="2">  1       21 0.13569489E-01 0.44567881E+03</pdfrwt>
<totfact> 0.61224952E+04</totfact>
</mgrwt>
</event>
<event>
 7    0  0.4766352E-002  0.4533123E+03  0.7546771E-02  0.1026739E+00
         21   -1    0    0  502  501  0.00000000000E+00  0.00000000000E+00  0.27947804868E+03  0.27947804868E+03  0.00000000000E+00 0.  1.
         21   -1    0    0  501  502 -0.00000000000E+00 -0.00000000000E+00 -0.18381771877E+03  0.18381771877E+03  0.00000000000E+00 0.  1.
      99926    2    1    2    0    0  0.00000000000E+00  0.00000000000E+00  0.95660329908E+02  0.46329576746E+03  0.45331233099E+03 0.  0.
      99925    2    3    3    0    0  0.18966835049E+01 -0.65110030007E+02  0.15290176668E+03  0.31108865987E+03  0.26297203393E+03 0.  0.
         25    1    4    4    0    0 -0.11155691119E+01 -0.61234656762E+02  0.46627708367E+02  0.14687606671E+03  0.12509000000E+03 0.  0.
         25    1    4    4    0    0  0.30122526168E+01 -0.38753732451E+01  0.10627405832E+03  0.16421259317E+03  0.12509000000E+03 0.  0.
         25    1    3    3    0    0 -0.18966835049E+01  0.65110030007E+02 -0.57241436774E+02  0.15220710759E+03  0.12509000000E+03 0.  0.
<mgrwt>
<rscale>  2 0.45331233E+03</rscale>
<asrwt>0</asrwt>
<pdfrwt beam="1">  1       21 0.41099713E-01 0.45331233E+03</pdfrwt>
<pdfrwt beam="2">  1       21 0.27032018E-01 0.45331233E+03</pdfrwt>
<totfact> 0.68855437E+04</totfact>
</mgrwt>
</event>
<event>
 7    0  0.4766352E-002  0.5081404E+03  0.7546771E-02  0.1011676E+00
         21   -1    0    0  502  501  0.00000000000E+00  0.00000000000E+00  0.36539841657E+03  0.36539841657E+03  0.00000000000E+00 0.  1.
         21   -1    0    0  501  502 -0.00000000000E+00 -0.00000000000E+00 -0.17666107855E+03  0.17666107855E+03  0.00000000000E+00 0.  1.
      99926    2    1    2    0    0  0.00000000000E+00  0.00000000000E+00  0.18873733802E+03  0.54205949511E+03  0.50814044661E+03 0.  0.
      99925    2    3    3    0    0 -0.80754988364E+02  0.38899606703E+02  0.25252877097E+03  0.37547197287E+03  0.26300926732E+03 0.  0.
         25    1    4    4    0    0 -0.22469448303E+02  0.42071887892E+02  0.16305197774E+03  0.21097008177E+03  0.12509000000E+03 0.  0.
         25    1    3    3    0    0  0.80754988364E+02 -0.38899606703E+02 -0.63791432954E+02  0.16658752224E+03  0.12509000000E+03 0.  0.
         25    1    4    4    0    0 -0.58285540061E+02 -0.31722811891E+01  0.89476793235E+02  0.16450189110E+03  0.12509000000E+03 0.  0.
<mgrwt>
<rscale>  2 0.50814045E+03</rscale>
<asrwt>0</asrwt>
<pdfrwt beam="1">  1       21 0.53735061E-01 0.50814045E+03</pdfrwt>
<pdfrwt beam="2">  1       21 0.25979570E-01 0.50814045E+03</pdfrwt>
<totfact> 0.41800813E+04</totfact>
</mgrwt>
</event>
<event>
 7    0  0.4766352E-002  0.4550440E+03  0.7546771E-02  0.1026228E+00
         21   -1    0    0  502  501  0.00000000000E+00  0.00000000000E+00  0.47219512380E+03  0.47219512380E+03  0.00000000000E+00 0. -1.
         21   -1    0    0  501  502 -0.00000000000E+00 -0.00000000000E+00 -0.10962898333E+03  0.10962898333E+03  0.00000000000E+00 0. -1.
      99926    2    1    2    0    0  0.00000000000E+00  0.00000000000E+00  0.36256614047E+03  0.58182410713E+03  0.45504404778E+03 0.  0.
      99925    2    3    3    0    0  0.19581824222E+02  0.48553717292E+02  0.99823057108E+02  0.28615140420E+03  0.26301534574E+03 0.  0.
         25    1    4    4    0    0  0.18274434565E+02  0.62846993502E+02  0.39895597569E+02  0.14670673589E+03  0.12509000000E+03 0.  0.
         25    1    3    3    0    0 -0.19581824222E+02 -0.48553717292E+02  0.26274308336E+03  0.29567270293E+03  0.12509000000E+03 0.  0.
         25    1    4    4    0    0  0.13073896565E+01 -0.14293276209E+02  0.59927459540E+02  0.13944466831E+03  0.12509000000E+03 0.  0.
<mgrwt>
<rscale>  2 0.45504405E+03</rscale>
<asrwt>0</asrwt>
<pdfrwt beam="1">  1       21 0.69440458E-01 0.45504405E+03</pdfrwt>
<pdfrwt beam="2">  1       21 0.16121910E-01 0.45504405E+03</pdfrwt>
<totfact> 0.59790401E+04</totfact>
</mgrwt>
</event>
<event>
 7    0  0.4766352E-002  0.4550587E+03  0.7546771E-02  0.1026224E+00
         21   -1    0    0  502  501  0.00000000000E+00  0.00000000000E+00  0.21684923871E+03  0.21684923871E+03  0.00000000000E+00 0.  1.
         21   -1    0    0  501  502 -0.00000000000E+00 -0.00000000000E+00 -0.23873550230E+03  0.23873550230E+03  0.00000000000E+00 0.  1.
      99926    2    1    2    0    0 -0.17763568394E-14  0.14210854715E-13 -0.21886263588E+02  0.45558474101E+03  0.45505872996E+03 0.  0.
      99925    2    3    3    0    0 -0.29621325173E+01 -0.69579875952E+02 -0.10309114433E+03  0.29098864713E+03  0.26305222933E+03 0.  0.
         25    1    3    3    0    0  0.29621325173E+01  0.69579875952E+02  0.81204880738E+02  0.16459609388E+03  0.12509000000E+03 0.  0.
         25    1    4    4    0    0 -0.17425830239E+02 -0.70754647716E+02 -0.69901480139E+02  0.16075946242E+03  0.12509000000E+03 0.  0.
         25    1    4    4    0    0  0.14463697722E+02  0.11747717646E+01 -0.33189664187E+02  0.13022918471E+03  0.12509000000E+03 0.  0.
<mgrwt>
<rscale>  2 0.45505873E+03</rscale>
<asrwt>0</asrwt>
<pdfrwt beam="1">  1       21 0.31889594E-01 0.45505873E+03</pdfrwt>
<pdfrwt beam="2">  1       21 0.35108162E-01 0.45505873E+03</pdfrwt>
<totfact> 0.68470911E+04</totfact>
</mgrwt>
</event>
<event>
 7    0  0.4766352E-002  0.4437046E+03  0.7546771E-02  0.1029616E+00
         21   -1    0    0  502  501  0.00000000000E+00  0.00000000000E+00  0.25071329047E+03  0.25071329047E+03  0.00000000000E+00 0. -1.
         21   -1    0    0  501  502 -0.00000000000E+00 -0.00000000000E+00 -0.19631366395E+03  0.19631366395E+03  0.00000000000E+00 0. -1.
      99926    2    1    2    0    0  0.71054273576E-14  0.00000000000E+00  0.54399626515E+02  0.44702695442E+03  0.44370460738E+03 0.  0.
      99925    2    3    3    0    0 -0.59984536875E+02 -0.70284064286E+02  0.78761645924E+02  0.28961345294E+03  0.26293451827E+03 0.  0.
         25    1    4    4    0    0 -0.64685504514E+02 -0.14881088997E+02  0.34591343154E+02  0.14577287273E+03  0.12509000000E+03 0.  0.
         25    1    3    3    0    0  0.59984536875E+02  0.70284064286E+02 -0.24362019409E+02  0.15741350147E+03  0.12509000000E+03 0.  0.
         25    1    4    4    0    0  0.47009676387E+01 -0.55402975289E+02  0.44170302769E+02  0.14384058021E+03  0.12509000000E+03 0.  0.
<mgrwt>
<rscale>  2 0.44370461E+03</rscale>
<asrwt>0</asrwt>
<pdfrwt beam="1">  1       21 0.36869602E-01 0.44370461E+03</pdfrwt>
<pdfrwt beam="2">  1       21 0.28869656E-01 0.44370461E+03</pdfrwt>
<totfact> 0.75731917E+04</totfact>
</mgrwt>
</event>
<event>
 7    0  0.4766352E-002  0.4566995E+03  0.7546771E-02  0.1025743E+00
         21   -1    0    0  502  501  0.00000000000E+00  0.00000000000E+00  0.10275214796E+04  0.10275214796E+04  0.00000000000E+00 0. -1.
         21   -1    0    0  501  502 -0.00000000000E+00 -0.00000000000E+00 -0.50746984083E+02  0.50746984083E+02  0.00000000000E+00 0. -1.
      99926    2    1    2    0    0  0.00000000000E+00 -0.14210854715E-13  0.97677449555E+03  0.10782684637E+04  0.45669953436E+03 0.  0.
      99925    2    3    3    0    0  0.23320917538E+02 -0.69075926405E+02  0.40480304976E+03  0.48825643697E+03  0.26308456881E+03 0.  0.
         25    1    3    3    0    0 -0.23320917538E+02  0.69075926405E+02  0.57197144579E+03  0.59001202674E+03  0.12509000000E+03 0.  0.
         25    1    4    4    0    0 -0.36511499341E+01  0.47854751037E+01  0.18329233327E+03  0.22199058359E+03  0.12509000000E+03 0.  0.
         25    1    4    4    0    0  0.26972067472E+02 -0.73861401509E+02  0.22151071649E+03  0.26626585338E+03  0.12509000000E+03 0.  0.
<mgrwt>
<rscale>  2 0.45669953E+03</rscale>
<asrwt>0</asrwt>
<pdfrwt beam="1">  1       21 0.15110609E+00 0.45669953E+03</pdfrwt>
<pdfrwt beam="2">  1       21 0.74627924E-02 0.45669953E+03</pdfrwt>
<totfact> 0.35780075E+04</totfact>
</mgrwt>
</event>
<event>
 7    0  0.4766352E-002  0.4470967E+03  0.7546771E-02  0.1028591E+00
         21   -1    0    0  502  501  0.00000000000E+00  0.00000000000E+00  0.39523835679E+03  0.39523835679E+03  0.00000000000E+00 0. -1.
         21   -1    0    0  501  502 -0.00000000000E+00 -0.00000000000E+00 -0.12643983787E+03  0.12643983787E+03  0.00000000000E+00 0. -1.
      99926    2    1    2    0    0  0.00000000000E+00  0.00000000000E+00  0.26879851892E+03  0.52167819465E+03  0.44709674009E+03 0.  0.
      99925    2    3    3    0    0 -0.28016480509E+02 -0.77734016399E+02  0.93510039172E+02  0.29102464554E+03  0.26291389541E+03 0.  0.
         25    1    4    4    0    0  0.21559468315E+02 -0.57549804570E+02  0.52274626726E+02  0.14885205870E+03  0.12509000000E+03 0.  0.
         25    1    4    4    0    0 -0.49575948823E+02 -0.20184211829E+02  0.41235412446E+02  0.14217258684E+03  0.12509000000E+03 0.  0.
         25    1    3    3    0    0  0.28016480509E+02  0.77734016399E+02  0.17528847975E+03  0.23065354911E+03  0.12509000000E+03 0.  0.
<mgrwt>
<rscale>  2 0.44709674E+03</rscale>
<asrwt>0</asrwt>
<pdfrwt beam="1">  1       21 0.58123287E-01 0.44709674E+03</pdfrwt>
<pdfrwt beam="2">  1       21 0.18594094E-01 0.44709674E+03</pdfrwt>
<totfact> 0.67929617E+04</totfact>
</mgrwt>
</event>
<event>
 7    0  0.4766352E-002  0.4032676E+03  0.7546771E-02  0.1042654E+00
         21   -1    0    0  502  501  0.00000000000E+00  0.00000000000E+00  0.16265305819E+03  0.16265305819E+03  0.00000000000E+00 0. -1.
         21   -1    0    0  501  502 -0.00000000000E+00 -0.00000000000E+00 -0.24995655717E+03  0.24995655717E+03  0.00000000000E+00 0. -1.
      99926    2    1    2    0    0 -0.35527136788E-14  0.88817841970E-15 -0.87303498980E+02  0.41260961536E+03  0.40326764531E+03 0.  0.
      99925    2    3    3    0    0  0.25160300340E+02  0.28340101017E+01 -0.10386201928E+03  0.28391320896E+03  0.26301771584E+03 0.  0.
         25    1    4    4    0    0  0.14799096493E+02  0.33070881998E+02 -0.24954860399E+02  0.13260071512E+03  0.12509000000E+03 0.  0.
         25    1    3    3    0    0 -0.25160300340E+02 -0.28340101017E+01  0.16558520303E+02  0.12869640640E+03  0.12509000000E+03 0.  0.
         25    1    4    4    0    0  0.10361203847E+02 -0.30236871897E+02 -0.78907158884E+02  0.15131249383E+03  0.12509000000E+03 0.  0.
<mgrwt>
<rscale>  2 0.40326765E+03</rscale>
<asrwt>0</asrwt>
<pdfrwt beam="1">  1       21 0.23919567E-01 0.40326765E+03</pdfrwt>
<pdfrwt beam="2">  1       21 0.36758317E-01 0.40326765E+03</pdfrwt>
<totfact> 0.11094216E+05</totfact>
</mgrwt>
</event>
<event>
 7    0  0.4766352E-002  0.4532493E+03  0.7546771E-02  0.1026757E+00
         21   -1    0    0  502  501  0.00000000000E+00  0.00000000000E+00  0.25501818674E+03  0.25501818674E+03  0.00000000000E+00 0.  1.
         21   -1    0    0  501  502 -0.00000000000E+00 -0.00000000000E+00 -0.20139240176E+03  0.20139240176E+03  0.00000000000E+00 0.  1.
      99926    2    1    2    0    0  0.00000000000E+00 -0.35527136788E-14  0.53625784981E+02  0.45641058850E+03  0.45324926969E+03 0.  0.
      99925    2    3    3    0    0 -0.10642045306E+03  0.29219246761E+02  0.17777113056E+02  0.28578904065E+03  0.26302143030E+03 0.  0.
         25    1    4    4    0    0 -0.49160478120E+02 -0.17218343559E+02 -0.16774060636E+02  0.13653608012E+03  0.12509000000E+03 0.  0.
         25    1    3    3    0    0  0.10642045306E+03 -0.29219246761E+02  0.35848671925E+02  0.17062154784E+03  0.12509000000E+03 0.  0.
         25    1    4    4    0    0 -0.57259974936E+02  0.46437590320E+02  0.34551173692E+02  0.14925296053E+03  0.12509000000E+03 0.  0.
<mgrwt>
<rscale>  2 0.45324927E+03</rscale>
<asrwt>0</asrwt>
<pdfrwt beam="1">  1       21 0.37502675E-01 0.45324927E+03</pdfrwt>
<pdfrwt beam="2">  1       21 0.29616529E-01 0.45324927E+03</pdfrwt>
<totfact> 0.69406894E+04</totfact>
</mgrwt>
</event>
<event>
 7    0  0.4766352E-002  0.4403283E+03  0.7546771E-02  0.1030646E+00
         21   -1    0    0  502  501  0.00000000000E+00  0.00000000000E+00  0.19987911093E+02  0.19987911093E+02  0.00000000000E+00 0. -1.
         21   -1    0    0  501  502 -0.00000000000E+00 -0.00000000000E+00 -0.24250789889E+04  0.24250789889E+04  0.00000000000E+00 0. -1.
      99926    2    1    2    0    0  0.00000000000E+00 -0.71054273576E-14 -0.24050910778E+04  0.24450669000E+04  0.44032834669E+03 0.  0.
      99925    2    3    3    0    0 -0.88349947681E+02  0.37127832633E+02 -0.13961118356E+04  0.14238564376E+04  0.26278262530E+03 0.  0.
         25    1    3    3    0    0  0.88349947681E+02 -0.37127832633E+02 -0.10089792422E+04  0.10212104623E+04  0.12509000000E+03 0.  0.
         25    1    4    4    0    0 -0.55581523571E+02 -0.92677497599E+01 -0.83337860665E+03  0.84459612068E+03  0.12509000000E+03 0.  0.
         25    1    4    4    0    0 -0.32768424110E+02  0.46395582393E+02 -0.56273322897E+03  0.57926031693E+03  0.12509000000E+03 0.  0.
<mgrwt>
<rscale>  2 0.44032835E+03</rscale>
<asrwt>0</asrwt>
<pdfrwt beam="1">  1       21 0.29393991E-02 0.44032835E+03</pdfrwt>
<pdfrwt beam="2">  1       21 0.35662921E+00 0.44032835E+03</pdfrwt>
<totfact> 0.86563301E+03</totfact>
</mgrwt>
</event>
<event>
 7    0  0.4766352E-002  0.4494409E+03  0.7546771E-02  0.1027889E+00
         21   -1    0    0  502  501  0.00000000000E+00  0.00000000000E+00  0.69804589078E+02  0.69804589078E+02  0.00000000000E+00 0. -1.
         21   -1    0    0  501  502 -0.00000000000E+00 -0.00000000000E+00 -0.72343773686E+03  0.72343773686E+03  0.00000000000E+00 0. -1.
      99926    2    1    2    0    0  0.00000000000E+00  0.00000000000E+00 -0.65363314778E+03  0.79324232593E+03  0.44944087017E+03 0.  0.
      99925    2    3    3    0    0  0.55315664983E+02 -0.91961553445E+02 -0.39309842609E+03  0.48495252816E+03  0.26293693516E+03 0.  0.
         25    1    4    4    0    0  0.48929185104E+02 -0.37046981690E+02 -0.25506234576E+03  0.29063869724E+03  0.12509000000E+03 0.  0.
         25    1    4    4    0    0  0.63864798784E+01 -0.54914571755E+02 -0.13803608033E+03  0.19431383092E+03  0.12509000000E+03 0.  0.
         25    1    3    3    0    0 -0.55315664983E+02  0.91961553445E+02 -0.26053472169E+03  0.30828979777E+03  0.12509000000E+03 0.  0.
<mgrwt>
<rscale>  2 0.44944087E+03</rscale>
<asrwt>0</asrwt>
<pdfrwt beam="1">  1       21 0.10265381E-01 0.44944087E+03</pdfrwt>
<pdfrwt beam="2">  1       21 0.10638790E+00 0.44944087E+03</pdfrwt>
<totfact> 0.50250204E+04</totfact>
</mgrwt>
</event>
<event>
 7    0  0.4766352E-002  0.4497926E+03  0.7546771E-02  0.1027784E+00
         21   -1    0    0  502  501  0.00000000000E+00  0.00000000000E+00  0.51930041755E+02  0.51930041755E+02  0.00000000000E+00 0.  1.
         21   -1    0    0  501  502 -0.00000000000E+00 -0.00000000000E+00 -0.97397082910E+03  0.97397082910E+03  0.00000000000E+00 0.  1.
      99926    2    1    2    0    0  0.44408920985E-15 -0.14210854715E-13 -0.92204078735E+03  0.10259008709E+04  0.44979260031E+03 0.  0.
      99925    2    3    3    0    0 -0.35836904080E+01  0.10305368821E+03 -0.65827585354E+03  0.71630055771E+03  0.26291915894E+03 0.  0.
         25    1    4    4    0    0 -0.32866559477E+02  0.23982062165E+02 -0.31103173972E+03  0.33770342203E+03  0.12509000000E+03 0.  0.
         25    1    4    4    0    0  0.29282869069E+02  0.79071626047E+02 -0.34724411382E+03  0.37859713569E+03  0.12509000000E+03 0.  0.
         25    1    3    3    0    0  0.35836904080E+01 -0.10305368821E+03 -0.26376493381E+03  0.30960031314E+03  0.12509000000E+03 0.  0.
<mgrwt>
<rscale>  2 0.44979260E+03</rscale>
<asrwt>0</asrwt>
<pdfrwt beam="1">  1       21 0.76367715E-02 0.44979260E+03</pdfrwt>
<pdfrwt beam="2">  1       21 0.14323099E+00 0.44979260E+03</pdfrwt>
<totfact> 0.39766572E+04</totfact>
</mgrwt>
</event>
<event>
 7    0  0.4766352E-002  0.4243502E+03  0.7546771E-02  0.1035660E+00
         21   -1    0    0  502  501  0.00000000000E+00  0.00000000000E+00  0.75971445841E+02  0.75971445841E+02  0.00000000000E+00 0.  1.
         21   -1    0    0  501  502 -0.00000000000E+00 -0.00000000000E+00 -0.59256842910E+03  0.59256842910E+03  0.00000000000E+00 0.  1.
      99926    2    1    2    0    0  0.35527136788E-14  0.00000000000E+00 -0.51659698326E+03  0.66853987494E+03  0.42435023421E+03 0.  0.
      99925    2    3    3    0    0 -0.30191472896E+02  0.73564785915E+02 -0.30949544744E+03  0.41385996407E+03  0.26300063710E+03 0.  0.
         25    1    3    3    0    0  0.30191472896E+02 -0.73564785915E+02 -0.20710153582E+03  0.25467991087E+03  0.12509000000E+03 0.  0.
         25    1    4    4    0    0  0.13306389876E+02  0.65552876045E+02 -0.16834970264E+03  0.22014397573E+03  0.12509000000E+03 0.  0.
         25    1    4    4    0    0 -0.43497862772E+02  0.80119098698E+01 -0.14114574480E+03  0.19371598835E+03  0.12509000000E+03 0.  0.
<mgrwt>
<rscale>  2 0.42435023E+03</rscale>
<asrwt>0</asrwt>
<pdfrwt beam="1">  1       21 0.11172271E-01 0.42435023E+03</pdfrwt>
<pdfrwt beam="2">  1       21 0.87142416E-01 0.42435023E+03</pdfrwt>
<totfact> 0.70095891E+04</totfact>
</mgrwt>
</event>
<event>
 7    0  0.4766352E-002  0.4519549E+03  0.7546771E-02  0.1027141E+00
         21   -1    0    0  502  501  0.00000000000E+00  0.00000000000E+00  0.20679860284E+03  0.20679860284E+03  0.00000000000E+00 0.  1.
         21   -1    0    0  501  502 -0.00000000000E+00 -0.00000000000E+00 -0.24693494787E+03  0.24693494787E+03  0.00000000000E+00 0.  1.
      99926    2    1    2    0    0 -0.71054273576E-14  0.00000000000E+00 -0.40136345029E+02  0.45373355071E+03  0.45195487479E+03 0.  0.
      99925    2    3    3    0    0  0.37632858131E+02 -0.86512799563E+02 -0.82962538028E+02  0.29130729850E+03  0.26282401516E+03 0.  0.
         25    1    4    4    0    0 -0.20874920406E+02 -0.36513019957E+02 -0.31460686130E+02  0.13566962003E+03  0.12509000000E+03 0.  0.
         25    1    4    4    0    0  0.58507778536E+02 -0.49999779606E+02 -0.51501851898E+02  0.15563767847E+03  0.12509000000E+03 0.  0.
         25    1    3    3    0    0 -0.37632858131E+02  0.86512799563E+02  0.42826192999E+02  0.16242625221E+03  0.12509000000E+03 0.  0.
<mgrwt>
<rscale>  2 0.45195487E+03</rscale>
<asrwt>0</asrwt>
<pdfrwt beam="1">  1       21 0.30411559E-01 0.45195487E+03</pdfrwt>
<pdfrwt beam="2">  1       21 0.36313963E-01 0.45195487E+03</pdfrwt>
<totfact> 0.70332005E+04</totfact>
</mgrwt>
</event>
<event>
 7    0  0.4766352E-002  0.4570102E+03  0.7546771E-02  0.1025652E+00
         21   -1    0    0  502  501  0.00000000000E+00  0.00000000000E+00  0.28220281771E+03  0.28220281771E+03  0.00000000000E+00 0.  1.
         21   -1    0    0  501  502 -0.00000000000E+00 -0.00000000000E+00 -0.18502505504E+03  0.18502505504E+03  0.00000000000E+00 0.  1.
      99926    2    1    2    0    0  0.00000000000E+00  0.00000000000E+00  0.97177762664E+02  0.46722787275E+03  0.45701024881E+03 0.  0.
      99925    2    3    3    0    0 -0.71540459587E+02  0.10011573665E+02  0.15259702178E+03  0.31251177357E+03  0.26298191686E+03 0.  0.
         25    1    3    3    0    0  0.71540459587E+02 -0.10011573665E+02 -0.55419259116E+02  0.15471609918E+03  0.12509000000E+03 0.  0.
         25    1    4    4    0    0 -0.40998825267E+02 -0.13354850682E+02  0.11765995790E+03  0.17706108975E+03  0.12509000000E+03 0.  0.
         25    1    4    4    0    0 -0.30541634320E+02  0.23366424347E+02  0.34937063878E+02  0.13545068382E+03  0.12509000000E+03 0.  0.
<mgrwt>
<rscale>  2 0.45701025E+03</rscale>
<asrwt>0</asrwt>
<pdfrwt beam="1">  1       21 0.41500415E-01 0.45701025E+03</pdfrwt>
<pdfrwt beam="2">  1       21 0.27209567E-01 0.45701025E+03</pdfrwt>
<totfact> 0.66575047E+04</totfact>
</mgrwt>
</event>
<event>
 7    0  0.4766352E-002  0.4585561E+03  0.7546771E-02  0.1025201E+00
         21   -1    0    0  502  501  0.00000000000E+00  0.00000000000E+00  0.23036607646E+03  0.23036607646E+03  0.00000000000E+00 0. -1.
         21   -1    0    0  501  502 -0.00000000000E+00 -0.00000000000E+00 -0.22819513301E+03  0.22819513301E+03  0.00000000000E+00 0. -1.
      99926    2    1    2    0    0 -0.14210854715E-13  0.00000000000E+00  0.21709434469E+01  0.45856120947E+03  0.45855607055E+03 0.  0.
      99925    2    3    3    0    0  0.10974676578E+03 -0.33626209254E+02 -0.18506890456E+02  0.28753444121E+03  0.26297999038E+03 0.  0.
         25    1    3    3    0    0 -0.10974676578E+03  0.33626209254E+02  0.20677833903E+02  0.17102676826E+03  0.12509000000E+03 0.  0.
         25    1    4    4    0    0  0.67265485699E+02 -0.41550814040E+01  0.27203877201E+02  0.14467020876E+03  0.12509000000E+03 0.  0.
         25    1    4    4    0    0  0.42481280077E+02 -0.29471127850E+02 -0.45710767657E+02  0.14286423245E+03  0.12509000000E+03 0.  0.
<mgrwt>
<rscale>  2 0.45855607E+03</rscale>
<asrwt>0</asrwt>
<pdfrwt beam="1">  1       21 0.33877364E-01 0.45855607E+03</pdfrwt>
<pdfrwt beam="2">  1       21 0.33558108E-01 0.45855607E+03</pdfrwt>
<totfact> 0.66382085E+04</totfact>
</mgrwt>
</event>
<event>
 7    0  0.4766352E-002  0.4647510E+03  0.7546771E-02  0.1023412E+00
         21   -1    0    0  502  501  0.00000000000E+00  0.00000000000E+00  0.18075279821E+03  0.18075279821E+03  0.00000000000E+00 0. -1.
         21   -1    0    0  501  502 -0.00000000000E+00 -0.00000000000E+00 -0.29874161133E+03  0.29874161133E+03  0.00000000000E+00 0. -1.
      99926    2    1    2    0    0  0.71054273576E-14  0.00000000000E+00 -0.11798881311E+03  0.47949440954E+03  0.46475103955E+03 0.  0.
      99925    2    3    3    0    0  0.55612421246E+02  0.77197996506E+02 -0.15060453779E+03  0.31898408073E+03  0.26460696305E+03 0.  0.
         25    1    4    4    0    0 -0.12256109580E+02  0.53661810038E+02 -0.66173374007E+02  0.15184276606E+03  0.12509000000E+03 0.  0.
         25    1    3    3    0    0 -0.55612421246E+02 -0.77197996506E+02  0.32615724671E+02  0.16051032882E+03  0.12509000000E+03 0.  0.
         25    1    4    4    0    0  0.67868530826E+02  0.23536186468E+02 -0.84431163778E+02  0.16714131466E+03  0.12509000000E+03 0.  0.
<mgrwt>
<rscale>  2 0.46475104E+03</rscale>
<asrwt>0</asrwt>
<pdfrwt beam="1">  1       21 0.26581294E-01 0.46475104E+03</pdfrwt>
<pdfrwt beam="2">  1       21 0.43932589E-01 0.46475104E+03</pdfrwt>
<totfact> 0.61813778E+04</totfact>
</mgrwt>
</event>
<event>
 7    0  0.4766352E-002  0.4496252E+03  0.7546771E-02  0.1027834E+00
         21   -1    0    0  502  501  0.00000000000E+00  0.00000000000E+00  0.52549088043E+03  0.52549088043E+03  0.00000000000E+00 0.  1.
         21   -1    0    0  501  502 -0.00000000000E+00 -0.00000000000E+00 -0.96178087666E+02  0.96178087666E+02  0.00000000000E+00 0.  1.
      99926    2    1    2    0    0  0.00000000000E+00  0.00000000000E+00  0.42931279277E+03  0.62166896810E+03  0.44962521266E+03 0.  0.
      99925    2    3    3    0    0 -0.30887454547E+02 -0.36516120546E+02  0.40542820729E+03  0.48563425403E+03  0.26302307031E+03 0.  0.
         25    1    4    4    0    0 -0.38442535470E+02 -0.45948388317E+02  0.17644299101E+03  0.22442976652E+03  0.12509000000E+03 0.  0.
         25    1    4    4    0    0  0.75550809223E+01  0.94322677712E+01  0.22898521628E+03  0.26120448751E+03  0.12509000000E+03 0.  0.
         25    1    3    3    0    0  0.30887454547E+02  0.36516120546E+02  0.23884585477E+02  0.13603471407E+03  0.12509000000E+03 0.  0.
<mgrwt>
<rscale>  2 0.44962521E+03</rscale>
<asrwt>0</asrwt>
<pdfrwt beam="1">  1       21 0.77278070E-01 0.44962521E+03</pdfrwt>
<pdfrwt beam="2">  1       21 0.14143837E-01 0.44962521E+03</pdfrwt>
<totfact> 0.59864310E+04</totfact>
</mgrwt>
</event>
<event>
 7    0  0.4766352E-002  0.4555921E+03  0.7546771E-02  0.1026067E+00
         21   -1    0    0  502  501  0.00000000000E+00  0.00000000000E+00  0.10679469080E+04  0.10679469080E+04  0.00000000000E+00 0. -1.
         21   -1    0    0  501  502 -0.00000000000E+00 -0.00000000000E+00 -0.48589540133E+02  0.48589540133E+02  0.00000000000E+00 0. -1.
      99926    2    1    2    0    0  0.35527136788E-14  0.00000000000E+00  0.10193573679E+04  0.11165364481E+04  0.45559213841E+03 0.  0.
      99925    2    3    3    0    0 -0.26287331401E+02 -0.62081963832E+02  0.41667376437E+03  0.49732709092E+03  0.26300573270E+03 0.  0.
         25    1    3    3    0    0  0.26287331401E+02  0.62081963832E+02  0.60268360350E+03  0.61920935721E+03  0.12509000000E+03 0.  0.
         25    1    4    4    0    0  0.20611034751E+02 -0.32203570565E+02  0.16221055446E+03  0.20837863803E+03  0.12509000000E+03 0.  0.
         25    1    4    4    0    0 -0.46898366152E+02 -0.29878393267E+02  0.25446320990E+03  0.28894845289E+03  0.12509000000E+03 0.  0.
<mgrwt>
<rscale>  2 0.45559214E+03</rscale>
<asrwt>0</asrwt>
<pdfrwt beam="1">  1       21 0.15705100E+00 0.45559214E+03</pdfrwt>
<pdfrwt beam="2">  1       21 0.71455213E-02 0.45559214E+03</pdfrwt>
<totfact> 0.34758710E+04</totfact>
</mgrwt>
</event>
<event>
 7    0  0.4766352E-002  0.4582586E+03  0.7546771E-02  0.1025287E+00
         21   -1    0    0  502  501  0.00000000000E+00  0.00000000000E+00  0.60060847605E+03  0.60060847605E+03  0.00000000000E+00 0.  1.
         21   -1    0    0  501  502 -0.00000000000E+00 -0.00000000000E+00 -0.87411731774E+02  0.87411731774E+02  0.00000000000E+00 0.  1.
      99926    2    1    2    0    0  0.00000000000E+00  0.00000000000E+00  0.51319674428E+03  0.68802020783E+03  0.45825856025E+03 0.  0.
      99925    2    3    3    0    0  0.87082695185E+02 -0.76866000159E+02  0.31530967396E+03  0.42668024058E+03  0.26295258019E+03 0.  0.
         25    1    3    3    0    0 -0.87082695185E+02  0.76866000159E+02  0.19788707032E+03  0.26133996725E+03  0.12509000000E+03 0.  0.
         25    1    4    4    0    0  0.50165432314E+02 -0.23572886995E+02  0.21058986461E+03  0.25113313357E+03  0.12509000000E+03 0.  0.
         25    1    4    4    0    0  0.36917262872E+02 -0.53293113165E+02  0.10471980934E+03  0.17554710700E+03  0.12509000000E+03 0.  0.
<mgrwt>
<rscale>  2 0.45825856E+03</rscale>
<asrwt>0</asrwt>
<pdfrwt beam="1">  1       21 0.88324774E-01 0.45825856E+03</pdfrwt>
<pdfrwt beam="2">  1       21 0.12854667E-01 0.45825856E+03</pdfrwt>
<totfact> 0.52206177E+04</totfact>
</mgrwt>
</event>
<event>
 7    0  0.4766352E-002  0.4555041E+03  0.7546771E-02  0.1026093E+00
         21   -1    0    0  502  501  0.00000000000E+00  0.00000000000E+00  0.22417231064E+03  0.22417231064E+03  0.00000000000E+00 0.  1.
         21   -1    0    0  501  502 -0.00000000000E+00 -0.00000000000E+00 -0.23138898059E+03  0.23138898059E+03  0.00000000000E+00 0.  1.
      99926    2    1    2    0    0  0.00000000000E+00 -0.14210854715E-13 -0.72166699538E+01  0.45556129122E+03  0.45550412702E+03 0.  0.
      99925    2    3    3    0    0  0.52423556898E+02  0.98412093988E+02  0.18157861943E+02  0.28607812235E+03  0.26282658651E+03 0.  0.
         25    1    4    4    0    0  0.36621604165E+02  0.17566211412E+02  0.32916048542E+02  0.13557539610E+03  0.12509000000E+03 0.  0.
         25    1    3    3    0    0 -0.52423556898E+02 -0.98412093988E+02 -0.25374531897E+02  0.16948316887E+03  0.12509000000E+03 0.  0.
         25    1    4    4    0    0  0.15801952733E+02  0.80845882576E+02 -0.14758186599E+02  0.15050272626E+03  0.12509000000E+03 0.  0.
<mgrwt>
<rscale>  2 0.45550413E+03</rscale>
<asrwt>0</asrwt>
<pdfrwt beam="1">  1       21 0.32966516E-01 0.45550413E+03</pdfrwt>
<pdfrwt beam="2">  1       21 0.34027791E-01 0.45550413E+03</pdfrwt>
<totfact> 0.68229832E+04</totfact>
</mgrwt>
</event>
<event>
 7    0  0.4766352E-002  0.4521723E+03  0.7546771E-02  0.1027076E+00
         21   -1    0    0  502  501  0.00000000000E+00  0.00000000000E+00  0.54601867844E+02  0.54601867844E+02  0.00000000000E+00 0. -1.
         21   -1    0    0  501  502 -0.00000000000E+00 -0.00000000000E+00 -0.93613926029E+03  0.93613926029E+03  0.00000000000E+00 0. -1.
      99926    2    1    2    0    0  0.00000000000E+00  0.14210854715E-13 -0.88153739244E+03  0.99074112813E+03  0.45217232190E+03 0.  0.
      99925    2    3    3    0    0  0.64480571415E+02  0.86337339595E+02 -0.50292813081E+03  0.57769831995E+03  0.26303376934E+03 0.  0.
         25    1    4    4    0    0 -0.55867698725E+01  0.39830933773E+02 -0.19933302520E+03  0.23874437861E+03  0.12509000000E+03 0.  0.
         25    1    4    4    0    0  0.70067341287E+02  0.46506405822E+02 -0.30359510561E+03  0.33895394134E+03  0.12509000000E+03 0.  0.
         25    1    3    3    0    0 -0.64480571415E+02 -0.86337339595E+02 -0.37860926163E+03  0.41304280818E+03  0.12509000000E+03 0.  0.
<mgrwt>
<rscale>  2 0.45217232E+03</rscale>
<asrwt>0</asrwt>
<pdfrwt beam="1">  1       21 0.80296862E-02 0.45217232E+03</pdfrwt>
<pdfrwt beam="2">  1       21 0.13766754E+00 0.45217232E+03</pdfrwt>
<totfact> 0.40414060E+04</totfact>
</mgrwt>
</event>
<event>
 7    0  0.4766352E-002  0.4666385E+03  0.7546771E-02  0.1022873E+00
         21   -1    0    0  502  501  0.00000000000E+00  0.00000000000E+00  0.92173304783E+03  0.92173304783E+03  0.00000000000E+00 0.  1.
         21   -1    0    0  501  502 -0.00000000000E+00 -0.00000000000E+00 -0.59060338783E+02  0.59060338783E+02  0.00000000000E+00 0.  1.
      99926    2    1    2    0    0 -0.71054273576E-14 -0.14210854715E-13  0.86267270904E+03  0.98079338661E+03  0.46663847279E+03 0.  0.
      99925    2    3    3    0    0  0.47804828036E+02  0.11362254869E+03  0.56202595771E+03  0.63261044283E+03  0.26292091982E+03 0.  0.
         25    1    3    3    0    0 -0.47804828036E+02 -0.11362254869E+03  0.30064675133E+03  0.34818294378E+03  0.12509000000E+03 0.  0.
         25    1    4    4    0    0  0.13137460768E+02  0.16353299534E+02  0.21679871274E+03  0.25117566209E+03  0.12509000000E+03 0.  0.
         25    1    4    4    0    0  0.34667367269E+02  0.97269249156E+02  0.34522724498E+03  0.38143478074E+03  0.12509000000E+03 0.  0.
<mgrwt>
<rscale>  2 0.46663847E+03</rscale>
<asrwt>0</asrwt>
<pdfrwt beam="1">  1       21 0.13554897E+00 0.46663847E+03</pdfrwt>
<pdfrwt beam="2">  1       21 0.86853445E-02 0.46663847E+03</pdfrwt>
<totfact> 0.36484131E+04</totfact>
</mgrwt>
</event>
<event>
 7    0  0.4766352E-002  0.4181943E+03  0.7546771E-02  0.1037656E+00
         21   -1    0    0  502  501  0.00000000000E+00  0.00000000000E+00  0.36279155602E+03  0.36279155602E+03  0.00000000000E+00 0.  1.
         21   -1    0    0  501  502 -0.00000000000E+00 -0.00000000000E+00 -0.12051440846E+03  0.12051440846E+03  0.00000000000E+00 0.  1.
      99926    2    1    2    0    0 -0.14210854715E-13  0.00000000000E+00  0.24227714756E+03  0.48330596448E+03  0.41819425997E+03 0.  0.
      99925    2    3    3    0    0  0.68364338340E+02  0.68574389353E+01  0.18818208961E+03  0.33068063689E+03  0.26309024600E+03 0.  0.
         25    1    4    4    0    0  0.75383607446E+02  0.16817501773E+01  0.91623296624E+02  0.17241767061E+03  0.12509000000E+03 0.  0.
         25    1    4    4    0    0 -0.70192691055E+01  0.51756887580E+01  0.96558792985E+02  0.15826296628E+03  0.12509000000E+03 0.  0.
         25    1    3    3    0    0 -0.68364338340E+02 -0.68574389353E+01  0.54095057955E+02  0.15262532759E+03  0.12509000000E+03 0.  0.
<mgrwt>
<rscale>  2 0.41819426E+03</rscale>
<asrwt>0</asrwt>
<pdfrwt beam="1">  1       21 0.53351699E-01 0.41819426E+03</pdfrwt>
<pdfrwt beam="2">  1       21 0.17722707E-01 0.41819426E+03</pdfrwt>
<totfact> 0.90013280E+04</totfact>
</mgrwt>
</event>
<event>
 7    0  0.4766352E-002  0.4537980E+03  0.7546771E-02  0.1026595E+00
         21   -1    0    0  502  501  0.00000000000E+00  0.00000000000E+00  0.24518697647E+03  0.24518697647E+03  0.00000000000E+00 0. -1.
         21   -1    0    0  501  502 -0.00000000000E+00 -0.00000000000E+00 -0.20997505363E+03  0.20997505363E+03  0.00000000000E+00 0. -1.
      99926    2    1    2    0    0 -0.71054273576E-14 -0.35527136788E-14  0.35211922838E+02  0.45516203009E+03  0.45379796620E+03 0.  0.
      99925    2    3    3    0    0  0.48880974825E+02  0.28603811061E+02 -0.74794384963E+02  0.27921765376E+03  0.26298435399E+03 0.  0.
         25    1    4    4    0    0  0.43974305303E+02  0.49270497677E+02 -0.29509540732E+02  0.14449789812E+03  0.12509000000E+03 0.  0.
         25    1    4    4    0    0  0.49066695217E+01 -0.20666686616E+02 -0.45284844231E+02  0.13471975564E+03  0.12509000000E+03 0.  0.
         25    1    3    3    0    0 -0.48880974825E+02 -0.28603811061E+02  0.11000630780E+03  0.17594437633E+03  0.12509000000E+03 0.  0.
<mgrwt>
<rscale>  2 0.45379797E+03</rscale>
<asrwt>0</asrwt>
<pdfrwt beam="1">  1       21 0.36056908E-01 0.45379797E+03</pdfrwt>
<pdfrwt beam="2">  1       21 0.30878684E-01 0.45379797E+03</pdfrwt>
<totfact> 0.69195210E+04</totfact>
</mgrwt>
</event>
<event>
 7    0  0.4766352E-002  0.4544511E+03  0.7546771E-02  0.1026403E+00
         21   -1    0    0  502  501  0.00000000000E+00  0.00000000000E+00  0.25471918104E+04  0.25471918104E+04  0.00000000000E+00 0.  1.
         21   -1    0    0  501  502 -0.00000000000E+00 -0.00000000000E+00 -0.20269950279E+02  0.20269950279E+02  0.00000000000E+00 0.  1.
      99926    2    1    2    0    0  0.00000000000E+00  0.14210854715E-13  0.25269218602E+04  0.25674617607E+04  0.45445110341E+03 0.  0.
      99925    2    3    3    0    0 -0.18769533953E+02 -0.78377439113E+02  0.11464143362E+04  0.11789575835E+04  0.26302059816E+03 0.  0.
         25    1    4    4    0    0  0.14053157107E+02 -0.69924689811E+02  0.66434672777E+03  0.67977278282E+03  0.12509000000E+03 0.  0.
         25    1    4    4    0    0 -0.32822691059E+02 -0.84527493024E+01  0.48206760843E+03  0.49918480066E+03  0.12509000000E+03 0.  0.
         25    1    3    3    0    0  0.18769533953E+02  0.78377439113E+02  0.13805075240E+04  0.13885041772E+04  0.12509000000E+03 0.  0.
<mgrwt>
<rscale>  2 0.45445110E+03</rscale>
<asrwt>0</asrwt>
<pdfrwt beam="1">  1       21 0.37458681E+00 0.45445110E+03</pdfrwt>
<pdfrwt beam="2">  1       21 0.29808768E-02 0.45445110E+03</pdfrwt>
<totfact> 0.64936827E+03</totfact>
</mgrwt>
</event>
<event>
 7    0  0.4766352E-002  0.4556644E+03  0.7546771E-02  0.1026046E+00
         21   -1    0    0  502  501  0.00000000000E+00  0.00000000000E+00  0.22916630406E+03  0.22916630406E+03  0.00000000000E+00 0.  1.
         21   -1    0    0  501  502 -0.00000000000E+00 -0.00000000000E+00 -0.22650585095E+03  0.22650585095E+03  0.00000000000E+00 0.  1.
      99926    2    1    2    0    0  0.00000000000E+00  0.00000000000E+00  0.26604531100E+01  0.45567215500E+03  0.45566438838E+03 0.  0.
      99925    2    3    3    0    0  0.58463121533E+02 -0.76360376377E+02  0.62566349143E+02  0.28689695499E+03  0.26295716586E+03 0.  0.
         25    1    3    3    0    0 -0.58463121533E+02  0.76360376377E+02 -0.59905896033E+02  0.16877520001E+03  0.12509000000E+03 0.  0.
         25    1    4    4    0    0 -0.36490711477E+01 -0.16122818750E+02  0.12617987430E+02  0.12680687170E+03  0.12509000000E+03 0.  0.
         25    1    4    4    0    0  0.62112192681E+02 -0.60237557627E+02  0.49948361714E+02  0.16009008329E+03  0.12509000000E+03 0.  0.
<mgrwt>
<rscale>  2 0.45566439E+03</rscale>
<asrwt>0</asrwt>
<pdfrwt beam="1">  1       21 0.33700927E-01 0.45566439E+03</pdfrwt>
<pdfrwt beam="2">  1       21 0.33309684E-01 0.45566439E+03</pdfrwt>
<totfact> 0.68134669E+04</totfact>
</mgrwt>
</event>
<event>
 7    0  0.4766352E-002  0.4470996E+03  0.7546771E-02  0.1028591E+00
         21   -1    0    0  502  501  0.00000000000E+00  0.00000000000E+00  0.37286162719E+03  0.37286162719E+03  0.00000000000E+00 0. -1.
         21   -1    0    0  501  502 -0.00000000000E+00 -0.00000000000E+00 -0.13402965383E+03  0.13402965383E+03  0.00000000000E+00 0. -1.
      99926    2    1    2    0    0 -0.13322676296E-14  0.00000000000E+00  0.23883197337E+03  0.50689128102E+03  0.44709960777E+03 0.  0.
      99925    2    3    3    0    0 -0.14617725873E+01  0.96478405667E+02  0.19971437725E+03  0.34414020125E+03  0.26312815527E+03 0.  0.
         25    1    3    3    0    0  0.14617725873E+01 -0.96478405667E+02  0.39117596113E+02  0.16275107977E+03  0.12509000000E+03 0.  0.
         25    1    4    4    0    0 -0.19972372770E+02  0.62643688799E+02  0.62561705809E+02  0.15454644142E+03  0.12509000000E+03 0.  0.
         25    1    4    4    0    0  0.18510600183E+02  0.33834716868E+02  0.13715267145E+03  0.18959375984E+03  0.12509000000E+03 0.  0.
<mgrwt>
<rscale>  2 0.44709961E+03</rscale>
<asrwt>0</asrwt>
<pdfrwt beam="1">  1       21 0.54832592E-01 0.44709961E+03</pdfrwt>
<pdfrwt beam="2">  1       21 0.19710243E-01 0.44709961E+03</pdfrwt>
<totfact> 0.69015825E+04</totfact>
</mgrwt>
</event>
<event>
 7    0  0.4766352E-002  0.4506355E+03  0.7546771E-02  0.1027533E+00
         21   -1    0    0  502  501  0.00000000000E+00  0.00000000000E+00  0.95355056809E+03  0.95355056809E+03  0.00000000000E+00 0.  1.
         21   -1    0    0  501  502 -0.00000000000E+00 -0.00000000000E+00 -0.53241115300E+02  0.53241115300E+02  0.00000000000E+00 0.  1.
      99926    2    1    2    0    0  0.00000000000E+00  0.00000000000E+00  0.90030945279E+03  0.10067916834E+04  0.45063553229E+03 0.  0.
      99925    2    3    3    0    0 -0.72994069596E+02  0.68148290246E+02  0.47106060078E+03  0.54867116572E+03  0.26300120689E+03 0.  0.
         25    1    4    4    0    0 -0.29402030462E+02  0.14127073703E+02  0.15564506197E+03  0.20232880917E+03  0.12509000000E+03 0.  0.
         25    1    4    4    0    0 -0.43592039134E+02  0.54021216543E+02  0.31541553881E+03  0.34634235654E+03  0.12509000000E+03 0.  0.
         25    1    3    3    0    0  0.72994069596E+02 -0.68148290246E+02  0.42924885202E+03  0.45812051768E+03  0.12509000000E+03 0.  0.
<mgrwt>
<rscale>  2 0.45063553E+03</rscale>
<asrwt>0</asrwt>
<pdfrwt beam="1">  1       21 0.14022801E+00 0.45063553E+03</pdfrwt>
<pdfrwt beam="2">  1       21 0.78295764E-02 0.45063553E+03</pdfrwt>
<totfact> 0.40258355E+04</totfact>
</mgrwt>
</event>
<event>
 7    0  0.4766352E-002  0.4481115E+03  0.7546771E-02  0.1028287E+00
         21   -1    0    0  502  501  0.00000000000E+00  0.00000000000E+00  0.28689177658E+02  0.28689177658E+02  0.00000000000E+00 0.  1.
         21   -1    0    0  501  502 -0.00000000000E+00 -0.00000000000E+00 -0.17498225105E+04  0.17498225105E+04  0.00000000000E+00 0.  1.
      99926    2    1    2    0    0  0.00000000000E+00  0.28865798640E-14 -0.17211333329E+04  0.17785116882E+04  0.44811145433E+03 0.  0.
      99925    2    3    3    0    0 -0.26142032334E+02 -0.98721498406E+00 -0.68382544902E+03  0.73336120408E+03  0.26366082466E+03 0.  0.
         25    1    4    4    0    0 -0.21767870942E+02 -0.19372383540E+02 -0.44412751529E+03  0.46232660250E+03  0.12509000000E+03 0.  0.
         25    1    3    3    0    0  0.26142032334E+02  0.98721498406E+00 -0.10373078839E+04  0.10451504841E+04  0.12509000000E+03 0.  0.
         25    1    4    4    0    0 -0.43741613926E+01  0.18385168556E+02 -0.23969793374E+03  0.27103460157E+03  0.12509000000E+03 0.  0.
<mgrwt>
<rscale>  2 0.44811145E+03</rscale>
<asrwt>0</asrwt>
<pdfrwt beam="1">  1       21 0.42189976E-02 0.44811145E+03</pdfrwt>
<pdfrwt beam="2">  1       21 0.25732679E+00 0.44811145E+03</pdfrwt>
<totfact> 0.18653820E+04</totfact>
</mgrwt>
</event>
<event>
 7    0  0.4766352E-002  0.4572673E+03  0.7546771E-02  0.1025577E+00
         21   -1    0    0  502  501  0.00000000000E+00  0.00000000000E+00  0.12378222788E+03  0.12378222788E+03  0.00000000000E+00 0. -1.
         21   -1    0    0  501  502 -0.00000000000E+00 -0.00000000000E+00 -0.42230097215E+03  0.42230097215E+03  0.00000000000E+00 0. -1.
      99926    2    1    2    0    0  0.00000000000E+00  0.00000000000E+00 -0.29851874428E+03  0.54608320003E+03  0.45726734048E+03 0.  0.
      99925    2    3    3    0    0 -0.64352125994E+02 -0.30840080893E+02 -0.80250427571E+02  0.28458583315E+03  0.26354631204E+03 0.  0.
         25    1    4    4    0    0 -0.78629326806E+01 -0.47546909567E+02 -0.49815707269E+02  0.14300925533E+03  0.12509000000E+03 0.  0.
         25    1    4    4    0    0 -0.56489193313E+02  0.16706828675E+02 -0.30434720303E+02  0.14157657781E+03  0.12509000000E+03 0.  0.
         25    1    3    3    0    0  0.64352125994E+02  0.30840080893E+02 -0.21826831671E+03  0.26149736688E+03  0.12509000000E+03 0.  0.
<mgrwt>
<rscale>  2 0.45726734E+03</rscale>
<asrwt>0</asrwt>
<pdfrwt beam="1">  1       21 0.18203269E-01 0.45726734E+03</pdfrwt>
<pdfrwt beam="2">  1       21 0.62103083E-01 0.45726734E+03</pdfrwt>
<totfact> 0.61023870E+04</totfact>
</mgrwt>
</event>
<event>
 7    0  0.4766352E-002  0.4541568E+03  0.7546771E-02  0.1026490E+00
         21   -1    0    0  502  501  0.00000000000E+00  0.00000000000E+00  0.42907234346E+03  0.42907234346E+03  0.00000000000E+00 0. -1.
         21   -1    0    0  501  502 -0.00000000000E+00 -0.00000000000E+00 -0.12017693325E+03  0.12017693325E+03  0.00000000000E+00 0. -1.
      99926    2    1    2    0    0 -0.33306690739E-14  0.00000000000E+00  0.30889541021E+03  0.54924927671E+03  0.45415679398E+03 0.  0.
      99925    2    3    3    0    0 -0.19945564807E+01 -0.94823479368E+02  0.26740006884E+03  0.38687673608E+03  0.26301205601E+03 0.  0.
         25    1    4    4    0    0  0.35733827385E+02 -0.65613429969E+02  0.13812142928E+03  0.20076619720E+03  0.12509000000E+03 0.  0.
         25    1    4    4    0    0 -0.37728383866E+02 -0.29210049400E+02  0.12927863956E+03  0.18611053888E+03  0.12509000000E+03 0.  0.
         25    1    3    3    0    0  0.19945564807E+01  0.94823479368E+02  0.41495341370E+02  0.16237254063E+03  0.12509000000E+03 0.  0.
<mgrwt>
<rscale>  2 0.45415679E+03</rscale>
<asrwt>0</asrwt>
<pdfrwt beam="1">  1       21 0.63098873E-01 0.45415679E+03</pdfrwt>
<pdfrwt beam="2">  1       21 0.17673079E-01 0.45415679E+03</pdfrwt>
<totfact> 0.62330948E+04</totfact>
</mgrwt>
</event>
<event>
 7    0  0.4766352E-002  0.4578871E+03  0.7546771E-02  0.1025396E+00
         21   -1    0    0  502  501  0.00000000000E+00  0.00000000000E+00  0.31606577670E+03  0.31606577670E+03  0.00000000000E+00 0.  1.
         21   -1    0    0  501  502 -0.00000000000E+00 -0.00000000000E+00 -0.16583617555E+03  0.16583617555E+03  0.00000000000E+00 0.  1.
      99926    2    1    2    0    0  0.00000000000E+00  0.71054273576E-14  0.15022960115E+03  0.48190195225E+03  0.45788705869E+03 0.  0.
      99925    2    3    3    0    0 -0.97507978027E+02 -0.60430907088E+02  0.77594921536E+02  0.29728612115E+03  0.26305582234E+03 0.  0.
         25    1    3    3    0    0  0.97507978027E+02  0.60430907088E+02  0.72634679618E+02  0.18461583110E+03  0.12509000000E+03 0.  0.
         25    1    4    4    0    0 -0.75750307959E+02 -0.63402585148E+02  0.33725404132E+02  0.16291994336E+03  0.12509000000E+03 0.  0.
         25    1    4    4    0    0 -0.21757670068E+02  0.29716780600E+01  0.43869517403E+02  0.13436617779E+03  0.12509000000E+03 0.  0.
<mgrwt>
<rscale>  2 0.45788706E+03</rscale>
<asrwt>0</asrwt>
<pdfrwt beam="1">  1       21 0.46480262E-01 0.45788706E+03</pdfrwt>
<pdfrwt beam="2">  1       21 0.24387673E-01 0.45788706E+03</pdfrwt>
<totfact> 0.65058203E+04</totfact>
</mgrwt>
</event>
<event>
 7    0  0.4766352E-002  0.4584545E+03  0.7546771E-02  0.1025230E+00
         21   -1    0    0  502  501  0.00000000000E+00  0.00000000000E+00  0.29346335621E+03  0.29346335621E+03  0.00000000000E+00 0. -1.
         21   -1    0    0  501  502 -0.00000000000E+00 -0.00000000000E+00 -0.17905179741E+03  0.17905179741E+03  0.00000000000E+00 0. -1.
      99926    2    1    2    0    0  0.14210854715E-13  0.00000000000E+00  0.11441155880E+03  0.47251515362E+03  0.45845454040E+03 0.  0.
      99925    2    3    3    0    0 -0.10142077623E+03 -0.14768528204E+02  0.14813383238E+02  0.28258993689E+03  0.26293222098E+03 0.  0.
         25    1    4    4    0    0 -0.15843163393E+02 -0.30670739292E+02  0.43980244001E+01  0.12984048211E+03  0.12509000000E+03 0.  0.
         25    1    3    3    0    0  0.10142077623E+03  0.14768528204E+02  0.99598175559E+02  0.18992521673E+03  0.12509000000E+03 0.  0.
         25    1    4    4    0    0 -0.85577612837E+02  0.15902211089E+02  0.10415358838E+02  0.15274945478E+03  0.12509000000E+03 0.  0.
<mgrwt>
<rscale>  2 0.45845454E+03</rscale>
<asrwt>0</asrwt>
<pdfrwt beam="1">  1       21 0.43156376E-01 0.45845454E+03</pdfrwt>
<pdfrwt beam="2">  1       21 0.26331147E-01 0.45845454E+03</pdfrwt>
<totfact> 0.65437344E+04</totfact>
</mgrwt>
</event>
<event>
 7    0  0.4766352E-002  0.4500817E+03  0.7546771E-02  0.1027698E+00
         21   -1    0    0  502  501  0.00000000000E+00  0.00000000000E+00  0.35389419549E+03  0.35389419549E+03  0.00000000000E+00 0. -1.
         21   -1    0    0  501  502 -0.00000000000E+00 -0.00000000000E+00 -0.14310317053E+03  0.14310317053E+03  0.00000000000E+00 0. -1.
      99926    2    1    2    0    0 -0.14210854715E-13 -0.88817841970E-15  0.21079102496E+03  0.49699736602E+03  0.45008168773E+03 0.  0.
      99925    2    3    3    0    0 -0.72064533035E+02 -0.68499048693E+01  0.43871143495E+02  0.27620340540E+03  0.26291334277E+03 0.  0.
         25    1    4    4    0    0 -0.57728064448E+01  0.57098349457E+01  0.47446930914E+02  0.13403226053E+03  0.12509000000E+03 0.  0.
         25    1    4    4    0    0 -0.66291726590E+02 -0.12559739815E+02 -0.35757874195E+01  0.14217114487E+03  0.12509000000E+03 0.  0.
         25    1    3    3    0    0  0.72064533035E+02  0.68499048693E+01  0.16691988146E+03  0.22079396062E+03  0.12509000000E+03 0.  0.
<mgrwt>
<rscale>  2 0.45008169E+03</rscale>
<asrwt>0</asrwt>
<pdfrwt beam="1">  1       21 0.52043264E-01 0.45008169E+03</pdfrwt>
<pdfrwt beam="2">  1       21 0.21044584E-01 0.45008169E+03</pdfrwt>
<totfact> 0.68102382E+04</totfact>
</mgrwt>
</event>
<event>
 7    0  0.4766352E-002  0.4497991E+03  0.7546771E-02  0.1027782E+00
         21   -1    0    0  502  501  0.00000000000E+00  0.00000000000E+00  0.34213319823E+03  0.34213319823E+03  0.00000000000E+00 0. -1.
         21   -1    0    0  501  502 -0.00000000000E+00 -0.00000000000E+00 -0.14783661787E+03  0.14783661787E+03  0.00000000000E+00 0. -1.
      99926    2    1    2    0    0  0.00000000000E+00 -0.35527136788E-14  0.19429658036E+03  0.48996981611E+03  0.44979913245E+03 0.  0.
      99925    2    3    3    0    0  0.88253787212E+02 -0.26953918282E+02  0.61273043370E+02  0.28537750403E+03  0.26300321156E+03 0.  0.
         25    1    3    3    0    0 -0.88253787212E+02  0.26953918282E+02  0.13302353699E+03  0.20459231208E+03  0.12509000000E+03 0.  0.
         25    1    4    4    0    0  0.32468003694E+02 -0.34874690188E+02 -0.29607892043E+01  0.13389058836E+03  0.12509000000E+03 0.  0.
         25    1    4    4    0    0  0.55785783517E+02  0.79207719062E+01  0.64233832574E+02  0.15148691566E+03  0.12509000000E+03 0.  0.
<mgrwt>
<rscale>  2 0.44979913E+03</rscale>
<asrwt>0</asrwt>
<pdfrwt beam="1">  1       21 0.50313706E-01 0.44979913E+03</pdfrwt>
<pdfrwt beam="2">  1       21 0.21740679E-01 0.44979913E+03</pdfrwt>
<totfact> 0.68777318E+04</totfact>
</mgrwt>
</event>
<event>
 7    0  0.4766352E-002  0.4550143E+03  0.7546771E-02  0.1026237E+00
         21   -1    0    0  502  501  0.00000000000E+00  0.00000000000E+00  0.36138180529E+03  0.36138180529E+03  0.00000000000E+00 0.  1.
         21   -1    0    0  501  502 -0.00000000000E+00 -0.00000000000E+00 -0.14322661712E+03  0.14322661712E+03  0.00000000000E+00 0.  1.
      99926    2    1    2    0    0  0.00000000000E+00  0.00000000000E+00  0.21815518817E+03  0.50460842241E+03  0.45501425675E+03 0.  0.
      99925    2    3    3    0    0 -0.37772525935E+02  0.59877319333E+02  0.39356298069E+02  0.27519916304E+03  0.26300875281E+03 0.  0.
         25    1    3    3    0    0  0.37772525935E+02 -0.59877319333E+02  0.17879889010E+03  0.22940925937E+03  0.12509000000E+03 0.  0.
         25    1    4    4    0    0 -0.31959308458E+02  0.23508980634E+02  0.57994776103E+02  0.14347463791E+03  0.12509000000E+03 0.  0.
         25    1    4    4    0    0 -0.58132174771E+01  0.36368338699E+02 -0.18638478034E+02  0.13172452513E+03  0.12509000000E+03 0.  0.
<mgrwt>
<rscale>  2 0.45501426E+03</rscale>
<asrwt>0</asrwt>
<pdfrwt beam="1">  1       21 0.53144383E-01 0.45501426E+03</pdfrwt>
<pdfrwt beam="2">  1       21 0.21062738E-01 0.45501426E+03</pdfrwt>
<totfact> 0.64940756E+04</totfact>
</mgrwt>
</event>
<event>
 7    0  0.4766352E-002  0.4464412E+03  0.7546771E-02  0.1028789E+00
         21   -1    0    0  502  501  0.00000000000E+00  0.00000000000E+00  0.71846427353E+03  0.71846427353E+03  0.00000000000E+00 0. -1.
         21   -1    0    0  501  502 -0.00000000000E+00 -0.00000000000E+00 -0.69352705580E+02  0.69352705580E+02  0.00000000000E+00 0. -1.
      99926    2    1    2    0    0  0.00000000000E+00  0.00000000000E+00  0.64911156795E+03  0.78781697911E+03  0.44644122225E+03 0.  0.
      99925    2    3    3    0    0 -0.48551596402E+02  0.35592687919E+02  0.26219956472E+03  0.37675432781E+03  0.26376336903E+03 0.  0.
         25    1    3    3    0    0  0.48551596402E+02 -0.35592687919E+02  0.38691200323E+03  0.41106265130E+03  0.12509000000E+03 0.  0.
         25    1    4    4    0    0 -0.34739072004E+02 -0.22728698412E+02  0.13100048945E+03  0.18582796666E+03  0.12509000000E+03 0.  0.
         25    1    4    4    0    0 -0.13812524398E+02  0.58321386330E+02  0.13119907527E+03  0.19092636116E+03  0.12509000000E+03 0.  0.
<mgrwt>
<rscale>  2 0.44644122E+03</rscale>
<asrwt>0</asrwt>
<pdfrwt beam="1">  1       21 0.10565651E+00 0.44644122E+03</pdfrwt>
<pdfrwt beam="2">  1       21 0.10198928E-01 0.44644122E+03</pdfrwt>
<totfact> 0.51749455E+04</totfact>
</mgrwt>
</event>
<event>
 6    0  0.4766352E-002  0.4431284E+03  0.7546771E-02  0.1029791E+00
         21   -1    0    0  502  501  0.00000000000E+00  0.00000000000E+00  0.49692322774E+02  0.49692322774E+02  0.00000000000E+00 0. -1.
         21   -1    0    0  501  502 -0.00000000000E+00 -0.00000000000E+00 -0.98789277827E+03  0.98789277827E+03  0.00000000000E+00 0. -1.
      99926    2    1    2    0    0 -0.71054273576E-14 -0.71054273576E-14 -0.93820045549E+03  0.10375851010E+04  0.44312836426E+03 0.  0.
         25    1    3    3    0    0 -0.63060541317E+02 -0.35642468911E+02 -0.18270464011E+03  0.23297105202E+03  0.12509000000E+03 0.  0.
         25    1    3    3    0    0  0.54946252518E+02 -0.22796909683E+02 -0.37728156121E+03  0.40190505630E+03  0.12509000000E+03 0.  0.
         25    1    3    3    0    0  0.81142887986E+01  0.58439378594E+02 -0.37821425417E+03  0.40270899272E+03  0.12509000000E+03 0.  0.
<mgrwt>
<rscale>  2 0.44312836E+03</rscale>
<asrwt>0</asrwt>
<pdfrwt beam="1">  1       21 0.73076948E-02 0.44312836E+03</pdfrwt>
<pdfrwt beam="2">  1       21 0.14527834E+00 0.44312836E+03</pdfrwt>
<totfact> 0.41445995E+04</totfact>
</mgrwt>
</event>
<event>
 7    0  0.4766352E-002  0.4543552E+03  0.7546771E-02  0.1026431E+00
         21   -1    0    0  502  501  0.00000000000E+00  0.00000000000E+00  0.67983781231E+03  0.67983781231E+03  0.00000000000E+00 0.  1.
         21   -1    0    0  501  502 -0.00000000000E+00 -0.00000000000E+00 -0.75914657720E+02  0.75914657720E+02  0.00000000000E+00 0.  1.
      99926    2    1    2    0    0  0.14210854715E-13  0.71054273576E-14  0.60392315459E+03  0.75575247003E+03  0.45435516868E+03 0.  0.
      99925    2    3    3    0    0  0.98642410475E+02  0.53637891164E+02  0.37068949549E+03  0.46825847644E+03  0.26315005259E+03 0.  0.
         25    1    4    4    0    0  0.66216009289E+02  0.43743375776E+02  0.25307111150E+03  0.29324143361E+03  0.12509000000E+03 0.  0.
         25    1    3    3    0    0 -0.98642410475E+02 -0.53637891164E+02  0.23323365910E+03  0.28749399359E+03  0.12509000000E+03 0.  0.
         25    1    4    4    0    0  0.32426401187E+02  0.98945153884E+01  0.11761838399E+03  0.17501704283E+03  0.12509000000E+03 0.  0.
<mgrwt>
<rscale>  2 0.45435517E+03</rscale>
<asrwt>0</asrwt>
<pdfrwt beam="1">  1       21 0.99976145E-01 0.45435517E+03</pdfrwt>
<pdfrwt beam="2">  1       21 0.11163921E-01 0.45435517E+03</pdfrwt>
<totfact> 0.50232401E+04</totfact>
</mgrwt>
</event>
<event>
 7    0  0.4766352E-002  0.4567778E+03  0.7546771E-02  0.1025720E+00
         21   -1    0    0  502  501  0.00000000000E+00  0.00000000000E+00  0.19250097393E+03  0.19250097393E+03  0.00000000000E+00 0. -1.
         21   -1    0    0  501  502 -0.00000000000E+00 -0.00000000000E+00 -0.27096737712E+03  0.27096737712E+03  0.00000000000E+00 0. -1.
      99926    2    1    2    0    0  0.00000000000E+00 -0.13322676296E-14 -0.78466403198E+02  0.46346835105E+03  0.45677777529E+03 0.  0.
      99925    2    3    3    0    0 -0.41975984731E+02  0.94086137338E+00  0.58588612843E+02  0.27321995017E+03  0.26354059859E+03 0.  0.
         25    1    4    4    0    0 -0.61942852496E+02  0.93097167518E+01  0.32291940669E+02  0.14357529500E+03  0.12509000000E+03 0.  0.
         25    1    4    4    0    0  0.19966867765E+02 -0.83688553784E+01  0.26296672174E+02  0.12964465518E+03  0.12509000000E+03 0.  0.
         25    1    3    3    0    0  0.41975984731E+02 -0.94086137338E+00 -0.13705501604E+03  0.19024840088E+03  0.12509000000E+03 0.  0.
<mgrwt>
<rscale>  2 0.45677778E+03</rscale>
<asrwt>0</asrwt>
<pdfrwt beam="1">  1       21 0.28308967E-01 0.45677778E+03</pdfrwt>
<pdfrwt beam="2">  1       21 0.39848144E-01 0.45677778E+03</pdfrwt>
<totfact> 0.66972461E+04</totfact>
</mgrwt>
</event>
<event>
 7    0  0.4766352E-002  0.4601034E+03  0.7546771E-02  0.1024751E+00
         21   -1    0    0  502  501  0.00000000000E+00  0.00000000000E+00  0.17879715093E+03  0.17879715093E+03  0.00000000000E+00 0.  1.
         21   -1    0    0  501  502 -0.00000000000E+00 -0.00000000000E+00 -0.29599909279E+03  0.29599909279E+03  0.00000000000E+00 0.  1.
      99926    2    1    2    0    0  0.35527136788E-14  0.00000000000E+00 -0.11720194186E+03  0.47479624372E+03  0.46010344258E+03 0.  0.
      99925    2    3    3    0    0  0.30975992538E+02  0.11285911329E+03 -0.58901381236E+02  0.29384554592E+03  0.26301927796E+03 0.  0.
         25    1    4    4    0    0 -0.95053807396E+01  0.75936818592E+02 -0.41105228147E+01  0.14670091063E+03  0.12509000000E+03 0.  0.
         25    1    4    4    0    0  0.40481373278E+02  0.36922294703E+02 -0.54790858422E+02  0.14714463529E+03  0.12509000000E+03 0.  0.
         25    1    3    3    0    0 -0.30975992538E+02 -0.11285911329E+03 -0.58300560620E+02  0.18095069780E+03  0.12509000000E+03 0.  0.
<mgrwt>
<rscale>  2 0.46010344E+03</rscale>
<asrwt>0</asrwt>
<pdfrwt beam="1">  1       21 0.26293699E-01 0.46010344E+03</pdfrwt>
<pdfrwt beam="2">  1       21 0.43529277E-01 0.46010344E+03</pdfrwt>
<totfact> 0.64432179E+04</totfact>
</mgrwt>
</event>
<event>
 7    0  0.4766352E-002  0.4527403E+03  0.7546771E-02  0.1026908E+00
         21   -1    0    0  502  501  0.00000000000E+00  0.00000000000E+00  0.65180408457E+03  0.65180408457E+03  0.00000000000E+00 0. -1.
         21   -1    0    0  501  502 -0.00000000000E+00 -0.00000000000E+00 -0.78617857469E+02  0.78617857469E+02  0.00000000000E+00 0. -1.
      99926    2    1    2    0    0 -0.71054273576E-14  0.00000000000E+00  0.57318622710E+03  0.73042194204E+03  0.45274028148E+03 0.  0.
      99925    2    3    3    0    0  0.36274788488E+02  0.39724414916E+02  0.51808301349E+03  0.58352823329E+03  0.26306140111E+03 0.  0.
         25    1    4    4    0    0  0.38179966579E+02  0.30276973977E+02  0.19319888033E+03  0.23526096247E+03  0.12509000000E+03 0.  0.
         25    1    4    4    0    0 -0.19051780915E+01  0.94474409390E+01  0.32488413316E+03  0.34826727081E+03  0.12509000000E+03 0.  0.
         25    1    3    3    0    0 -0.36274788488E+02 -0.39724414916E+02  0.55103213608E+02  0.14689370875E+03  0.12509000000E+03 0.  0.
<mgrwt>
<rscale>  2 0.45274028E+03</rscale>
<asrwt>0</asrwt>
<pdfrwt beam="1">  1       21 0.95853539E-01 0.45274028E+03</pdfrwt>
<pdfrwt beam="2">  1       21 0.11561450E-01 0.45274028E+03</pdfrwt>
<totfact> 0.52203653E+04</totfact>
</mgrwt>
</event>
<event>
 7    0  0.4766352E-002  0.4079510E+03  0.7546771E-02  0.1041061E+00
         21   -1    0    0  502  501  0.00000000000E+00  0.00000000000E+00  0.95933230236E+03  0.95933230236E+03  0.00000000000E+00 0.  1.
         21   -1    0    0  501  502 -0.00000000000E+00 -0.00000000000E+00 -0.43369751449E+02  0.43369751449E+02  0.00000000000E+00 0.  1.
      99926    2    1    2    0    0  0.00000000000E+00  0.00000000000E+00  0.91596255091E+03  0.10027020538E+04  0.40795099466E+03 0.  0.
      99925    2    3    3    0    0  0.18156261309E+02  0.43120260806E+02  0.51642860048E+03  0.58143741921E+03  0.26302464969E+03 0.  0.
         25    1    3    3    0    0 -0.18156261309E+02 -0.43120260806E+02  0.39953395043E+03  0.42126463460E+03  0.12509000000E+03 0.  0.
         25    1    4    4    0    0 -0.26314171381E+02  0.13559578822E+01  0.23770721495E+03  0.26990091214E+03  0.12509000000E+03 0.  0.
         25    1    4    4    0    0  0.44470432690E+02  0.41764302924E+02  0.27872138553E+03  0.31153650707E+03  0.12509000000E+03 0.  0.
<mgrwt>
<rscale>  2 0.40795099E+03</rscale>
<asrwt>0</asrwt>
<pdfrwt beam="1">  1       21 0.14107827E+00 0.40795099E+03</pdfrwt>
<pdfrwt beam="2">  1       21 0.63779052E-02 0.40795099E+03</pdfrwt>
<totfact> 0.57439281E+04</totfact>
</mgrwt>
</event>
<event>
 7    0  0.4766352E-002  0.4456123E+03  0.7546771E-02  0.1029039E+00
         21   -1    0    0  502  501  0.00000000000E+00  0.00000000000E+00  0.29287690670E+03  0.29287690670E+03  0.00000000000E+00 0.  1.
         21   -1    0    0  501  502 -0.00000000000E+00 -0.00000000000E+00 -0.16949977773E+03  0.16949977773E+03  0.00000000000E+00 0.  1.
      99926    2    1    2    0    0  0.00000000000E+00  0.00000000000E+00  0.12337712898E+03  0.46237668443E+03  0.44561225561E+03 0.  0.
      99925    2    3    3    0    0 -0.71878971035E+02 -0.64257382503E+02  0.11872470562E+03  0.30437430842E+03  0.26315882318E+03 0.  0.
         25    1    4    4    0    0 -0.32626073154E+02 -0.29994702940E+01  0.24272532997E+02  0.13156793466E+03  0.12509000000E+03 0.  0.
         25    1    4    4    0    0 -0.39252897882E+02 -0.61257912209E+02  0.94452172620E+02  0.17280637376E+03  0.12509000000E+03 0.  0.
         25    1    3    3    0    0  0.71878971035E+02  0.64257382503E+02  0.46524233595E+01  0.15800237601E+03  0.12509000000E+03 0.  0.
<mgrwt>
<rscale>  2 0.44561226E+03</rscale>
<asrwt>0</asrwt>
<pdfrwt beam="1">  1       21 0.43070134E-01 0.44561226E+03</pdfrwt>
<pdfrwt beam="2">  1       21 0.24926438E-01 0.44561226E+03</pdfrwt>
<totfact> 0.73316725E+04</totfact>
</mgrwt>
</event>
<event>
 7    0  0.4766352E-002  0.4564754E+03  0.7546771E-02  0.1025808E+00
         21   -1    0    0  502  501  0.00000000000E+00  0.00000000000E+00  0.20778508479E+03  0.20778508479E+03  0.00000000000E+00 0. -1.
         21   -1    0    0  501  502 -0.00000000000E+00 -0.00000000000E+00 -0.25070354282E+03  0.25070354282E+03  0.00000000000E+00 0. -1.
      99926    2    1    2    0    0  0.14210854715E-13 -0.35527136788E-14 -0.42918458037E+02  0.45848862761E+03  0.45647544031E+03 0.  0.
      99925    2    3    3    0    0  0.11311273971E+03 -0.16941410202E+02 -0.27155780355E+02  0.28826091726E+03  0.26320223545E+03 0.  0.
         25    1    4    4    0    0  0.33670169977E+02  0.76690363587E+01  0.18915477891E+02  0.13114037467E+03  0.12509000000E+03 0.  0.
         25    1    4    4    0    0  0.79442569736E+02 -0.24610446561E+02 -0.46071258246E+02  0.15712054259E+03  0.12509000000E+03 0.  0.
         25    1    3    3    0    0 -0.11311273971E+03  0.16941410202E+02 -0.15762677682E+02  0.17022771036E+03  0.12509000000E+03 0.  0.
<mgrwt>
<rscale>  2 0.45647544E+03</rscale>
<asrwt>0</asrwt>
<pdfrwt beam="1">  1       21 0.30556630E-01 0.45647544E+03</pdfrwt>
<pdfrwt beam="2">  1       21 0.36868168E-01 0.45647544E+03</pdfrwt>
<totfact> 0.67492949E+04</totfact>
</mgrwt>
</event>
<event>
 7    0  0.4766352E-002  0.4447815E+03  0.7546771E-02  0.1029290E+00
         21   -1    0    0  502  501  0.00000000000E+00  0.00000000000E+00  0.44173070530E+03  0.44173070530E+03  0.00000000000E+00 0.  1.
         21   -1    0    0  501  502 -0.00000000000E+00 -0.00000000000E+00 -0.11196332624E+03  0.11196332624E+03  0.00000000000E+00 0.  1.
      99926    2    1    2    0    0  0.71054273576E-14  0.00000000000E+00  0.32976737906E+03  0.55369403155E+03  0.44478147025E+03 0.  0.
      99925    2    3    3    0    0  0.49355634130E+02 -0.33128002592E+02  0.10446248709E+03  0.28922617788E+03  0.26307019517E+03 0.  0.
         25    1    4    4    0    0  0.42496877136E+00 -0.39246505055E+02  0.26350103371E+02  0.13372473520E+03  0.12509000000E+03 0.  0.
         25    1    4    4    0    0  0.48930665358E+02  0.61185024626E+01  0.78112383724E+02  0.15550144268E+03  0.12509000000E+03 0.  0.
         25    1    3    3    0    0 -0.49355634130E+02  0.33128002592E+02  0.22530489197E+03  0.26446785366E+03  0.12509000000E+03 0.  0.
<mgrwt>
<rscale>  2 0.44478147E+03</rscale>
<asrwt>0</asrwt>
<pdfrwt beam="1">  1       21 0.64960397E-01 0.44478147E+03</pdfrwt>
<pdfrwt beam="2">  1       21 0.16465195E-01 0.44478147E+03</pdfrwt>
<totfact> 0.66866787E+04</totfact>
</mgrwt>
</event>
<event>
 7    0  0.4766352E-002  0.4582820E+03  0.7546771E-02  0.1025281E+00
         21   -1    0    0  502  501  0.00000000000E+00  0.00000000000E+00  0.38136087486E+03  0.38136087486E+03  0.00000000000E+00 0. -1.
         21   -1    0    0  501  502 -0.00000000000E+00 -0.00000000000E+00 -0.13767959043E+03  0.13767959043E+03  0.00000000000E+00 0. -1.
      99926    2    1    2    0    0  0.14210854715E-13  0.00000000000E+00  0.24368128444E+03  0.51904046529E+03  0.45828204877E+03 0.  0.
      99925    2    3    3    0    0 -0.92662096157E+02  0.66266508112E+02  0.17764620036E+03  0.33742093278E+03  0.26328159680E+03 0.  0.
         25    1    4    4    0    0 -0.78497482576E+02  0.10224103210E+02  0.10630261968E+03  0.18224747490E+03  0.12509000000E+03 0.  0.
         25    1    3    3    0    0  0.92662096157E+02 -0.66266508112E+02  0.66035084081E+02  0.18161953252E+03  0.12509000000E+03 0.  0.
         25    1    4    4    0    0 -0.14164613581E+02  0.56042404902E+02  0.71343580674E+02  0.15517345787E+03  0.12509000000E+03 0.  0.
<mgrwt>
<rscale>  2 0.45828205E+03</rscale>
<asrwt>0</asrwt>
<pdfrwt beam="1">  1       21 0.56082481E-01 0.45828205E+03</pdfrwt>
<pdfrwt beam="2">  1       21 0.20246999E-01 0.45828205E+03</pdfrwt>
<totfact> 0.62314059E+04</totfact>
</mgrwt>
</event>
<event>
 7    0  0.4766352E-002  0.4382554E+03  0.7546771E-02  0.1031283E+00
         21   -1    0    0  502  501  0.00000000000E+00  0.00000000000E+00  0.79794879450E+02  0.79794879450E+02  0.00000000000E+00 0.  1.
         21   -1    0    0  501  502 -0.00000000000E+00 -0.00000000000E+00 -0.60175484307E+03  0.60175484307E+03  0.00000000000E+00 0.  1.
      99926    2    1    2    0    0  0.00000000000E+00  0.17763568394E-14 -0.52195996362E+03  0.68154972252E+03  0.43825542854E+03 0.  0.
      99925    2    3    3    0    0  0.83855770894E+02 -0.11355627694E+02 -0.26204420229E+03  0.38094291674E+03  0.26322918012E+03 0.  0.
         25    1    4    4    0    0  0.56592238091E+02 -0.30828797349E+02 -0.17655631677E+03  0.22577142700E+03  0.12509000000E+03 0.  0.
         25    1    3    3    0    0 -0.83855770894E+02  0.11355627694E+02 -0.25991576134E+03  0.30060680579E+03  0.12509000000E+03 0.  0.
         25    1    4    4    0    0  0.27263532802E+02  0.19473169655E+02 -0.85487885511E+02  0.15517148973E+03  0.12509000000E+03 0.  0.
<mgrwt>
<rscale>  2 0.43825543E+03</rscale>
<asrwt>0</asrwt>
<pdfrwt beam="1">  1       21 0.11734542E-01 0.43825543E+03</pdfrwt>
<pdfrwt beam="2">  1       21 0.88493356E-01 0.43825543E+03</pdfrwt>
<totfact> 0.61651340E+04</totfact>
</mgrwt>
</event>
<event>
 7    0  0.4766352E-002  0.4442138E+03  0.7546771E-02  0.1029462E+00
         21   -1    0    0  502  501  0.00000000000E+00  0.00000000000E+00  0.66604056283E+03  0.66604056283E+03  0.00000000000E+00 0.  1.
         21   -1    0    0  501  502 -0.00000000000E+00 -0.00000000000E+00 -0.74066765670E+02  0.74066765670E+02  0.00000000000E+00 0.  1.
      99926    2    1    2    0    0  0.00000000000E+00  0.00000000000E+00  0.59197379716E+03  0.74010732850E+03  0.44421377869E+03 0.  0.
      99925    2    3    3    0    0  0.74543387071E+02  0.41404954170E+02  0.47210876419E+03  0.54701092508E+03  0.26279874456E+03 0.  0.
         25    1    3    3    0    0 -0.74543387071E+02 -0.41404954170E+02  0.11986503296E+03  0.19309640342E+03  0.12509000000E+03 0.  0.
         25    1    4    4    0    0  0.26480289641E+02 -0.12838519959E+02  0.18096716583E+03  0.22195192395E+03  0.12509000000E+03 0.  0.
         25    1    4    4    0    0  0.48063097430E+02  0.54243474129E+02  0.29114159836E+03  0.32505900113E+03  0.12509000000E+03 0.  0.
<mgrwt>
<rscale>  2 0.44421378E+03</rscale>
<asrwt>0</asrwt>
<pdfrwt beam="1">  1       21 0.97947138E-01 0.44421378E+03</pdfrwt>
<pdfrwt beam="2">  1       21 0.10892172E-01 0.44421378E+03</pdfrwt>
<totfact> 0.55322849E+04</totfact>
</mgrwt>
</event>
<event>
 7    0  0.4766352E-002  0.4562923E+03  0.7546771E-02  0.1025862E+00
         21   -1    0    0  502  501  0.00000000000E+00  0.00000000000E+00  0.90220414869E+02  0.90220414869E+02  0.00000000000E+00 0. -1.
         21   -1    0    0  501  502 -0.00000000000E+00 -0.00000000000E+00 -0.57692788985E+03  0.57692788985E+03  0.00000000000E+00 0. -1.
      99926    2    1    2    0    0  0.71054273576E-14  0.00000000000E+00 -0.48670747498E+03  0.66714830472E+03  0.45629233424E+03 0.  0.
      99925    2    3    3    0    0 -0.53482881449E+02 -0.55363302330E+02 -0.18255392977E+03  0.32938744106E+03  0.26314375387E+03 0.  0.
         25    1    4    4    0    0 -0.33516020900E+02 -0.74262228259E+01 -0.13131259154E+03  0.18457783518E+03  0.12509000000E+03 0.  0.
         25    1    4    4    0    0 -0.19966860548E+02 -0.47937079504E+02 -0.51241338221E+02  0.14480960588E+03  0.12509000000E+03 0.  0.
         25    1    3    3    0    0  0.53482881449E+02  0.55363302330E+02 -0.30415354521E+03  0.33776086366E+03  0.12509000000E+03 0.  0.
<mgrwt>
<rscale>  2 0.45629233E+03</rscale>
<asrwt>0</asrwt>
<pdfrwt beam="1">  1       21 0.13267708E-01 0.45629233E+03</pdfrwt>
<pdfrwt beam="2">  1       21 0.84842337E-01 0.45629233E+03</pdfrwt>
<totfact> 0.54169042E+04</totfact>
</mgrwt>
</event>
<event>
 7    0  0.4766352E-002  0.4485281E+03  0.7546771E-02  0.1028162E+00
         21   -1    0    0  502  501  0.00000000000E+00  0.00000000000E+00  0.21268550322E+03  0.21268550322E+03  0.00000000000E+00 0. -1.
         21   -1    0    0  501  502 -0.00000000000E+00 -0.00000000000E+00 -0.23647293546E+03  0.23647293546E+03  0.00000000000E+00 0. -1.
      99926    2    1    2    0    0  0.00000000000E+00  0.00000000000E+00 -0.23787432249E+02  0.44915843868E+03  0.44852810514E+03 0.  0.
      99925    2    3    3    0    0 -0.76375110830E+02 -0.39388250618E+02  0.48939090081E+02  0.28086926199E+03  0.26288384498E+03 0.  0.
         25    1    4    4    0    0 -0.29399883692E+02 -0.46823066209E+02 -0.43271133207E+01  0.13683195789E+03  0.12509000000E+03 0.  0.
         25    1    3    3    0    0  0.76375110830E+02  0.39388250618E+02 -0.72726522330E+02  0.16828917669E+03  0.12509000000E+03 0.  0.
         25    1    4    4    0    0 -0.46975227138E+02  0.74348155914E+01  0.53266203401E+02  0.14403730410E+03  0.12509000000E+03 0.  0.
<mgrwt>
<rscale>  2 0.44852811E+03</rscale>
<asrwt>0</asrwt>
<pdfrwt beam="1">  1       21 0.31277280E-01 0.44852811E+03</pdfrwt>
<pdfrwt beam="2">  1       21 0.34775432E-01 0.44852811E+03</pdfrwt>
<totfact> 0.72655866E+04</totfact>
</mgrwt>
</event>
<event>
 7    0  0.4766352E-002  0.4533248E+03  0.7546771E-02  0.1026735E+00
         21   -1    0    0  502  501  0.00000000000E+00  0.00000000000E+00  0.83682615128E+03  0.83682615128E+03  0.00000000000E+00 0.  1.
         21   -1    0    0  501  502 -0.00000000000E+00 -0.00000000000E+00 -0.61393683768E+02  0.61393683768E+02  0.00000000000E+00 0.  1.
      99926    2    1    2    0    0 -0.35527136788E-14  0.00000000000E+00  0.77543246751E+03  0.89821983505E+03  0.45332478468E+03 0.  0.
      99925    2    3    3    0    0 -0.31038505425E+02 -0.63347273680E+02  0.66002778768E+03  0.71398624927E+03  0.26298938712E+03 0.  0.
         25    1    3    3    0    0  0.31038505425E+02  0.63347273680E+02  0.11540467983E+03  0.18423358578E+03  0.12509000000E+03 0.  0.
         25    1    4    4    0    0 -0.60107625661E+01 -0.31423659325E+01  0.23719791106E+03  0.26824682820E+03  0.12509000000E+03 0.  0.
         25    1    4    4    0    0 -0.25027742858E+02 -0.60204907748E+02  0.42282987663E+03  0.44573942107E+03  0.12509000000E+03 0.  0.
<mgrwt>
<rscale>  2 0.45332478E+03</rscale>
<asrwt>0</asrwt>
<pdfrwt beam="1">  1       21 0.12306266E+00 0.45332478E+03</pdfrwt>
<pdfrwt beam="2">  1       21 0.90284834E-02 0.45332478E+03</pdfrwt>
<totfact> 0.43883510E+04</totfact>
</mgrwt>
</event>
<event>
 7    0  0.4766352E-002  0.4549669E+03  0.7546771E-02  0.1026251E+00
         21   -1    0    0  502  501  0.00000000000E+00  0.00000000000E+00  0.36025308378E+03  0.36025308378E+03  0.00000000000E+00 0.  1.
         21   -1    0    0  501  502 -0.00000000000E+00 -0.00000000000E+00 -0.14364546260E+03  0.14364546260E+03  0.00000000000E+00 0.  1.
      99926    2    1    2    0    0  0.00000000000E+00 -0.14210854715E-13  0.21660762118E+03  0.50389854638E+03  0.45496690373E+03 0.  0.
      99925    2    3    3    0    0  0.88550389925E+02 -0.70081493590E+02  0.14021121603E+03  0.31886745137E+03  0.26318183665E+03 0.  0.
         25    1    3    3    0    0 -0.88550389925E+02  0.70081493590E+02  0.76396405143E+02  0.18503109500E+03  0.12509000000E+03 0.  0.
         25    1    4    4    0    0  0.61886855848E+02 -0.72212848710E+02  0.61950939216E+02  0.16890857117E+03  0.12509000000E+03 0.  0.
         25    1    4    4    0    0  0.26663534078E+02  0.21313551196E+01  0.78260276818E+02  0.14995888020E+03  0.12509000000E+03 0.  0.
<mgrwt>
<rscale>  2 0.45496690E+03</rscale>
<asrwt>0</asrwt>
<pdfrwt beam="1">  1       21 0.52978395E-01 0.45496690E+03</pdfrwt>
<pdfrwt beam="2">  1       21 0.21124333E-01 0.45496690E+03</pdfrwt>
<totfact> 0.65014715E+04</totfact>
</mgrwt>
</event>
<event>
 7    0  0.4766352E-002  0.4103746E+03  0.7546771E-02  0.1040245E+00
         21   -1    0    0  502  501  0.00000000000E+00  0.00000000000E+00  0.21607884513E+03  0.21607884513E+03  0.00000000000E+00 0. -1.
         21   -1    0    0  501  502 -0.00000000000E+00 -0.00000000000E+00 -0.19484474952E+03  0.19484474952E+03  0.00000000000E+00 0. -1.
      99926    2    1    2    0    0  0.00000000000E+00  0.00000000000E+00  0.21234095611E+02  0.41092359465E+03  0.41037460183E+03 0.  0.
      99925    2    3    3    0    0 -0.20476479055E+02  0.22749948676E+02  0.68650014731E+02  0.27369158729E+03  0.26316803391E+03 0.  0.
         25    1    3    3    0    0  0.20476479055E+02 -0.22749948676E+02 -0.47415919119E+02  0.13723200736E+03  0.12509000000E+03 0.  0.
         25    1    4    4    0    0 -0.11163957249E+02  0.52281220855E+01  0.75893039256E+02  0.14683061230E+03  0.12509000000E+03 0.  0.
         25    1    4    4    0    0 -0.93125218065E+01  0.17521826591E+02 -0.72430245255E+01  0.12686097498E+03  0.12509000000E+03 0.  0.
<mgrwt>
<rscale>  2 0.41037460E+03</rscale>
<asrwt>0</asrwt>
<pdfrwt beam="1">  1       21 0.31776301E-01 0.41037460E+03</pdfrwt>
<pdfrwt beam="2">  1       21 0.28653640E-01 0.41037460E+03</pdfrwt>
<totfact> 0.10441695E+05</totfact>
</mgrwt>
</event>
<event>
 6    0  0.4766352E-002  0.4629422E+03  0.7546771E-02  0.1023931E+00
         21   -1    0    0  502  501  0.00000000000E+00  0.00000000000E+00  0.50700984688E+03  0.50700984688E+03  0.00000000000E+00 0.  1.
         21   -1    0    0  501  502 -0.00000000000E+00 -0.00000000000E+00 -0.10567619323E+03  0.10567619323E+03  0.00000000000E+00 0.  1.
      99926    2    1    2    0    0  0.00000000000E+00  0.00000000000E+00  0.40133365365E+03  0.61268604011E+03  0.46294220179E+03 0.  0.
         25    1    3    3    0    0  0.19634344619E+02  0.61347790985E+01  0.15565399344E+03  0.20074565195E+03  0.12509000000E+03 0.  0.
         25    1    3    3    0    0 -0.25182503065E+02  0.87242147472E+02  0.19263056649E+03  0.24698055389E+03  0.12509000000E+03 0.  0.
         25    1    3    3    0    0  0.55481584454E+01 -0.93376926571E+02  0.53049093716E+02  0.16495983427E+03  0.12509000000E+03 0.  0.
<mgrwt>
<rscale>  2 0.46294220E+03</rscale>
<asrwt>0</asrwt>
<pdfrwt beam="1">  1       21 0.74560271E-01 0.46294220E+03</pdfrwt>
<pdfrwt beam="2">  1       21 0.15540617E-01 0.46294220E+03</pdfrwt>
<totfact> 0.54409678E+04</totfact>
</mgrwt>
</event>
<event>
 7    0  0.4766352E-002  0.4556454E+03  0.7546771E-02  0.1026052E+00
         21   -1    0    0  502  501  0.00000000000E+00  0.00000000000E+00  0.16228800206E+03  0.16228800206E+03  0.00000000000E+00 0.  1.
         21   -1    0    0  501  502 -0.00000000000E+00 -0.00000000000E+00 -0.31982147166E+03  0.31982147166E+03  0.00000000000E+00 0.  1.
      99926    2    1    2    0    0  0.00000000000E+00  0.00000000000E+00 -0.15753346961E+03  0.48210947372E+03  0.45564542201E+03 0.  0.
      99925    2    3    3    0    0 -0.32537504021E+02  0.10079461186E+03 -0.55288423580E+02  0.28892613985E+03  0.26306512798E+03 0.  0.
         25    1    3    3    0    0  0.32537504021E+02 -0.10079461186E+03 -0.10224504603E+03  0.19318333387E+03  0.12509000000E+03 0.  0.
         25    1    4    4    0    0 -0.52535730508E+02  0.34367201011E+02 -0.18039813467E+02  0.14111715153E+03  0.12509000000E+03 0.  0.
         25    1    4    4    0    0  0.19998226487E+02  0.66427410844E+02 -0.37248610113E+02  0.14780898832E+03  0.12509000000E+03 0.  0.
<mgrwt>
<rscale>  2 0.45564542E+03</rscale>
<asrwt>0</asrwt>
<pdfrwt beam="1">  1       21 0.23865883E-01 0.45564542E+03</pdfrwt>
<pdfrwt beam="2">  1       21 0.47032568E-01 0.45564542E+03</pdfrwt>
<totfact> 0.66207019E+04</totfact>
</mgrwt>
</event>
<event>
 7    0  0.4766352E-002  0.4554205E+03  0.7546771E-02  0.1026118E+00
         21   -1    0    0  502  501  0.00000000000E+00  0.00000000000E+00  0.28827277327E+03  0.28827277327E+03  0.00000000000E+00 0.  1.
         21   -1    0    0  501  502 -0.00000000000E+00 -0.00000000000E+00 -0.17987117393E+03  0.17987117393E+03  0.00000000000E+00 0.  1.
      99926    2    1    2    0    0  0.35527136788E-14  0.71054273576E-14  0.10840159935E+03  0.46814394720E+03  0.45542051838E+03 0.  0.
      99925    2    3    3    0    0  0.27348409310E+02 -0.56299571746E+02  0.16562765004E+03  0.31701517347E+03  0.26296107028E+03 0.  0.
         25    1    4    4    0    0  0.34192987147E+02  0.38513670235E+01  0.97221957837E+02  0.16212220879E+03  0.12509000000E+03 0.  0.
         25    1    4    4    0    0 -0.68445778366E+01 -0.60150938770E+02  0.68405692206E+02  0.15489296468E+03  0.12509000000E+03 0.  0.
         25    1    3    3    0    0 -0.27348409310E+02  0.56299571746E+02 -0.57226050697E+02  0.15112877373E+03  0.12509000000E+03 0.  0.
<mgrwt>
<rscale>  2 0.45542052E+03</rscale>
<asrwt>0</asrwt>
<pdfrwt beam="1">  1       21 0.42393055E-01 0.45542052E+03</pdfrwt>
<pdfrwt beam="2">  1       21 0.26451643E-01 0.45542052E+03</pdfrwt>
<totfact> 0.67349215E+04</totfact>
</mgrwt>
</event>
<event>
 7    0  0.4766352E-002  0.4546292E+03  0.7546771E-02  0.1026351E+00
         21   -1    0    0  502  501  0.00000000000E+00  0.00000000000E+00  0.48226153981E+03  0.48226153981E+03  0.00000000000E+00 0.  1.
         21   -1    0    0  501  502 -0.00000000000E+00 -0.00000000000E+00 -0.10714500975E+03  0.10714500975E+03  0.00000000000E+00 0.  1.
      99926    2    1    2    0    0  0.71054273576E-14  0.00000000000E+00  0.37511653006E+03  0.58940654956E+03  0.45462915605E+03 0.  0.
      99925    2    3    3    0    0  0.60304244829E+02  0.95268060892E+02  0.23125846632E+03  0.36792233799E+03  0.26300905531E+03 0.  0.
         25    1    3    3    0    0 -0.60304244829E+02 -0.95268060892E+02  0.14385806374E+03  0.22148421157E+03  0.12509000000E+03 0.  0.
         25    1    4    4    0    0  0.32371832924E+02  0.77570268734E+01  0.86431161533E+02  0.15564691072E+03  0.12509000000E+03 0.  0.
         25    1    4    4    0    0  0.27932411905E+02  0.87511034019E+02  0.14482730479E+03  0.21227542727E+03  0.12509000000E+03 0.  0.
<mgrwt>
<rscale>  2 0.45462916E+03</rscale>
<asrwt>0</asrwt>
<pdfrwt beam="1">  1       21 0.70920814E-01 0.45462916E+03</pdfrwt>
<pdfrwt beam="2">  1       21 0.15756619E-01 0.45462916E+03</pdfrwt>
<totfact> 0.59509335E+04</totfact>
</mgrwt>
</event>
<event>
 7    0  0.5089020E-002  0.4195893E+03  0.7546771E-02  0.1037200E+00
         21   -1    0    0  502  501  0.00000000000E+00  0.00000000000E+00  0.23266625766E+03  0.23266625766E+03  0.00000000000E+00 0.  1.
         21   -1    0    0  501  502 -0.00000000000E+00 -0.00000000000E+00 -0.18917138457E+03  0.18917138457E+03  0.00000000000E+00 0.  1.
      99926    2    1    2    0    0 -0.17763568394E-14  0.00000000000E+00  0.43494873095E+02  0.42183764223E+03  0.41958931399E+03 0.  0.
      99925    2    3    3    0    0 -0.91417849090E+01  0.74944147976E+02  0.29683439478E+02  0.27507776574E+03  0.26284305789E+03 0.  0.
         25    1    3    3    0    0  0.91417849090E+01 -0.74944147976E+02  0.13811433617E+02  0.14675987648E+03  0.12509000000E+03 0.  0.
         25    1    4    4    0    0  0.18697070108E+02  0.52731675586E+01  0.25621746710E+02  0.12915637317E+03  0.12509000000E+03 0.  0.
         25    1    4    4    0    0 -0.27838855017E+02  0.69670980418E+02  0.40616927680E+01  0.14592139257E+03  0.12509000000E+03 0.  0.
<mgrwt>
<rscale>  2 0.41958931E+03</rscale>
<asrwt>0</asrwt>
<pdfrwt beam="1">  1       21 0.34215626E-01 0.41958931E+03</pdfrwt>
<pdfrwt beam="2">  1       21 0.27819321E-01 0.41958931E+03</pdfrwt>
<totfact> 0.95242503E+04</totfact>
</mgrwt>
</event>
<event>
 7    0  0.4766352E-002  0.4515069E+03  0.7546771E-02  0.1027274E+00
         21   -1    0    0  502  501  0.00000000000E+00  0.00000000000E+00  0.35127074769E+02  0.35127074769E+02  0.00000000000E+00 0.  1.
         21   -1    0    0  501  502 -0.00000000000E+00 -0.00000000000E+00 -0.14508645782E+04  0.14508645782E+04  0.00000000000E+00 0.  1.
      99926    2    1    2    0    0  0.66613381478E-15  0.14210854715E-13 -0.14157375034E+04  0.14859916530E+04  0.45150693690E+03 0.  0.
      99925    2    3    3    0    0  0.16531696641E+01 -0.94281143193E+02 -0.10768990657E+04  0.11126946373E+04  0.26360214569E+03 0.  0.
         25    1    4    4    0    0 -0.20205842930E+02 -0.59498609391E+02 -0.68848179413E+03  0.70256889311E+03  0.12509000000E+03 0.  0.
         25    1    4    4    0    0  0.21859012594E+02 -0.34782533802E+02 -0.38841727156E+03  0.41012574417E+03  0.12509000000E+03 0.  0.
         25    1    3    3    0    0 -0.16531696641E+01  0.94281143193E+02 -0.33883843772E+03  0.37329701567E+03  0.12509000000E+03 0.  0.
<mgrwt>
<rscale>  2 0.45150694E+03</rscale>
<asrwt>0</asrwt>
<pdfrwt beam="1">  1       21 0.51657477E-02 0.45150694E+03</pdfrwt>
<pdfrwt beam="2">  1       21 0.21336238E+00 0.45150694E+03</pdfrwt>
<totfact> 0.24790404E+04</totfact>
</mgrwt>
</event>
<event>
 7    0  0.4766352E-002  0.4555989E+03  0.7546771E-02  0.1026065E+00
         21   -1    0    0  502  501  0.00000000000E+00  0.00000000000E+00  0.33210681129E+03  0.33210681129E+03  0.00000000000E+00 0. -1.
         21   -1    0    0  501  502 -0.00000000000E+00 -0.00000000000E+00 -0.15625269885E+03  0.15625269885E+03  0.00000000000E+00 0. -1.
      99926    2    1    2    0    0  0.00000000000E+00  0.00000000000E+00  0.17585411245E+03  0.48835951014E+03  0.45559888310E+03 0.  0.
      99925    2    3    3    0    0 -0.75578878132E+02 -0.72813698515E+02  0.15752802912E+03  0.32405079175E+03  0.26302059646E+03 0.  0.
         25    1    3    3    0    0  0.75578878132E+02  0.72813698515E+02  0.18326083329E+02  0.16430871840E+03  0.12509000000E+03 0.  0.
         25    1    4    4    0    0 -0.64787418339E+02 -0.36073616393E+02  0.11834797732E+03  0.18748991229E+03  0.12509000000E+03 0.  0.
         25    1    4    4    0    0 -0.10791459793E+02 -0.36740082121E+02  0.39180051793E+02  0.13656087945E+03  0.12509000000E+03 0.  0.
<mgrwt>
<rscale>  2 0.45559888E+03</rscale>
<asrwt>0</asrwt>
<pdfrwt beam="1">  1       21 0.48839237E-01 0.45559888E+03</pdfrwt>
<pdfrwt beam="2">  1       21 0.22978338E-01 0.45559888E+03</pdfrwt>
<totfact> 0.65783131E+04</totfact>
</mgrwt>
</event>
<event>
 7    0  0.4766352E-002  0.4554384E+03  0.7546771E-02  0.1026113E+00
         21   -1    0    0  502  501  0.00000000000E+00  0.00000000000E+00  0.28180471417E+02  0.28180471417E+02  0.00000000000E+00 0.  1.
         21   -1    0    0  501  502 -0.00000000000E+00 -0.00000000000E+00 -0.18401404625E+04  0.18401404625E+04  0.00000000000E+00 0.  1.
      99926    2    1    2    0    0  0.00000000000E+00 -0.14210854715E-13 -0.18119599911E+04  0.18683209340E+04  0.45543836337E+03 0.  0.
      99925    2    3    3    0    0  0.54325564882E+01 -0.80426378745E+02 -0.81029538976E+03  0.85566235537E+03  0.26283365968E+03 0.  0.
         25    1    3    3    0    0 -0.54325564882E+01  0.80426378745E+02 -0.10016646014E+04  0.10126585786E+04  0.12509000000E+03 0.  0.
         25    1    4    4    0    0  0.25095206350E+02 -0.12908592124E+02 -0.31810783085E+03  0.34298177981E+03  0.12509000000E+03 0.  0.
         25    1    4    4    0    0 -0.19662649862E+02 -0.67517786621E+02 -0.49218755891E+03  0.51268057556E+03  0.12509000000E+03 0.  0.
<mgrwt>
<rscale>  2 0.45543836E+03</rscale>
<asrwt>0</asrwt>
<pdfrwt beam="1">  1       21 0.41441856E-02 0.45543836E+03</pdfrwt>
<pdfrwt beam="2">  1       21 0.27060898E+00 0.45543836E+03</pdfrwt>
<totfact> 0.15926944E+04</totfact>
</mgrwt>
</event>
<event>
 7    0  0.4766352E-002  0.4578094E+03  0.7546771E-02  0.1025418E+00
         21   -1    0    0  502  501  0.00000000000E+00  0.00000000000E+00  0.55971458100E+03  0.55971458100E+03  0.00000000000E+00 0. -1.
         21   -1    0    0  501  502 -0.00000000000E+00 -0.00000000000E+00 -0.93614438628E+02  0.93614438628E+02  0.00000000000E+00 0. -1.
      99926    2    1    2    0    0 -0.44408920985E-15  0.00000000000E+00  0.46610014237E+03  0.65332901963E+03  0.45780942014E+03 0.  0.
      99925    2    3    3    0    0  0.27055607802E+01 -0.91598317206E+02  0.39371114224E+03  0.48219969072E+03  0.26288877197E+03 0.  0.
         25    1    4    4    0    0  0.77539000057E+01 -0.54440132438E+02  0.13337261104E+03  0.19094400347E+03  0.12509000000E+03 0.  0.
         25    1    3    3    0    0 -0.27055607802E+01  0.91598317206E+02  0.72389000125E+02  0.17112932891E+03  0.12509000000E+03 0.  0.
         25    1    4    4    0    0 -0.50483392256E+01 -0.37158184768E+02  0.26033853120E+03  0.29125568725E+03  0.12509000000E+03 0.  0.
<mgrwt>
<rscale>  2 0.45780942E+03</rscale>
<asrwt>0</asrwt>
<pdfrwt beam="1">  1       21 0.82310967E-01 0.45780942E+03</pdfrwt>
<pdfrwt beam="2">  1       21 0.13766829E-01 0.45780942E+03</pdfrwt>
<totfact> 0.54296775E+04</totfact>
</mgrwt>
</event>
<event>
 7    0  0.4766352E-002  0.4469378E+03  0.7546771E-02  0.1028639E+00
         21   -1    0    0  502  501  0.00000000000E+00  0.00000000000E+00  0.22773643869E+03  0.22773643869E+03  0.00000000000E+00 0. -1.
         21   -1    0    0  501  502 -0.00000000000E+00 -0.00000000000E+00 -0.21928128230E+03  0.21928128230E+03  0.00000000000E+00 0. -1.
      99926    2    1    2    0    0  0.00000000000E+00  0.00000000000E+00  0.84551563902E+01  0.44701772100E+03  0.44693775094E+03 0.  0.
      99925    2    3    3    0    0  0.11744166862E+02  0.10240950956E+03 -0.16987955444E+02  0.28294306377E+03  0.26294971687E+03 0.  0.
         25    1    4    4    0    0 -0.67233746300E+01  0.37748718469E+02 -0.44671248665E+02  0.13825049031E+03  0.12509000000E+03 0.  0.
         25    1    4    4    0    0  0.18467541492E+02  0.64660791089E+02  0.27683293220E+02  0.14469257347E+03  0.12509000000E+03 0.  0.
         25    1    3    3    0    0 -0.11744166862E+02 -0.10240950956E+03  0.25443111834E+02  0.16407465722E+03  0.12509000000E+03 0.  0.
<mgrwt>
<rscale>  2 0.44693775E+03</rscale>
<asrwt>0</asrwt>
<pdfrwt beam="1">  1       21 0.33490653E-01 0.44693775E+03</pdfrwt>
<pdfrwt beam="2">  1       21 0.32247247E-01 0.44693775E+03</pdfrwt>
<totfact> 0.73766881E+04</totfact>
</mgrwt>
</event>
<event>
 7    0  0.4766352E-002  0.4599116E+03  0.7546771E-02  0.1024807E+00
         21   -1    0    0  502  501  0.00000000000E+00  0.00000000000E+00  0.18757882970E+03  0.18757882970E+03  0.00000000000E+00 0.  1.
         21   -1    0    0  501  502 -0.00000000000E+00 -0.00000000000E+00 -0.28190642655E+03  0.28190642655E+03  0.00000000000E+00 0.  1.
      99926    2    1    2    0    0  0.00000000000E+00  0.17763568394E-14 -0.94327596854E+02  0.46948525625E+03  0.45991163316E+03 0.  0.
      99925    2    3    3    0    0  0.64299248371E+02 -0.96897475590E+01 -0.15929245559E+03  0.31425566655E+03  0.26297196239E+03 0.  0.
         25    1    4    4    0    0  0.37121399109E+02  0.23879669014E+02 -0.11236819377E+03  0.17384578204E+03  0.12509000000E+03 0.  0.
         25    1    4    4    0    0  0.27177849262E+02 -0.33569416573E+02 -0.46924261823E+02  0.14040988451E+03  0.12509000000E+03 0.  0.
         25    1    3    3    0    0 -0.64299248371E+02  0.96897475590E+01  0.64964858737E+02  0.15522958970E+03  0.12509000000E+03 0.  0.
<mgrwt>
<rscale>  2 0.45991163E+03</rscale>
<asrwt>0</asrwt>
<pdfrwt beam="1">  1       21 0.27585123E-01 0.45991163E+03</pdfrwt>
<pdfrwt beam="2">  1       21 0.41456827E-01 0.45991163E+03</pdfrwt>
<totfact> 0.64907171E+04</totfact>
</mgrwt>
</event>
<event>
 7    0  0.4766352E-002  0.4562612E+03  0.7546771E-02  0.1025871E+00
         21   -1    0    0  502  501  0.00000000000E+00  0.00000000000E+00  0.69516679053E+02  0.69516679053E+02  0.00000000000E+00 0.  1.
         21   -1    0    0  501  502 -0.00000000000E+00 -0.00000000000E+00 -0.74864854337E+03  0.74864854337E+03  0.00000000000E+00 0.  1.
      99926    2    1    2    0    0  0.00000000000E+00  0.00000000000E+00 -0.67913186431E+03  0.81816522242E+03  0.45626115554E+03 0.  0.
      99925    2    3    3    0    0  0.70223486317E+02 -0.59418740593E+02 -0.30505648162E+03  0.41314445159E+03  0.26299611430E+03 0.  0.
         25    1    4    4    0    0  0.26954226566E+01 -0.52771894601E+02 -0.13637617206E+03  0.19245286843E+03  0.12509000000E+03 0.  0.
         25    1    4    4    0    0  0.67528063660E+02 -0.66468459925E+01 -0.16868030956E+03  0.22069158316E+03  0.12509000000E+03 0.  0.
         25    1    3    3    0    0 -0.70223486317E+02  0.59418740593E+02 -0.37407538269E+03  0.40502077083E+03  0.12509000000E+03 0.  0.
<mgrwt>
<rscale>  2 0.45626116E+03</rscale>
<asrwt>0</asrwt>
<pdfrwt beam="1">  1       21 0.10223041E-01 0.45626116E+03</pdfrwt>
<pdfrwt beam="2">  1       21 0.11009537E+00 0.45626116E+03</pdfrwt>
<totfact> 0.46437451E+04</totfact>
</mgrwt>
</event>
<event>
 7    0  0.4766352E-002  0.4673015E+03  0.7546771E-02  0.1022685E+00
         21   -1    0    0  502  501  0.00000000000E+00  0.00000000000E+00  0.13226695984E+03  0.13226695984E+03  0.00000000000E+00 0.  1.
         21   -1    0    0  501  502 -0.00000000000E+00 -0.00000000000E+00 -0.41274603871E+03  0.41274603871E+03  0.00000000000E+00 0.  1.
      99926    2    1    2    0    0 -0.35527136788E-14  0.14210854715E-13 -0.28047907888E+03  0.54501299855E+03  0.46730146041E+03 0.  0.
      99925    2    3    3    0    0  0.22303243705E+02 -0.10186969865E+03 -0.25363140908E+03  0.37995793000E+03  0.26299100120E+03 0.  0.
         25    1    4    4    0    0  0.13630662462E+02 -0.21046376540E+02 -0.15663037587E+03  0.20201318687E+03  0.12509000000E+03 0.  0.
         25    1    3    3    0    0 -0.22303243705E+02  0.10186969865E+03 -0.26847669800E+02  0.16505506856E+03  0.12509000000E+03 0.  0.
         25    1    4    4    0    0  0.86725812428E+01 -0.80823322111E+02 -0.97001033205E+02  0.17794474312E+03  0.12509000000E+03 0.  0.
<mgrwt>
<rscale>  2 0.46730146E+03</rscale>
<asrwt>0</asrwt>
<pdfrwt beam="1">  1       21 0.19451024E-01 0.46730146E+03</pdfrwt>
<pdfrwt beam="2">  1       21 0.60697946E-01 0.46730146E+03</pdfrwt>
<totfact> 0.56490502E+04</totfact>
</mgrwt>
</event>
<event>
 7    0  0.4766352E-002  0.4535411E+03  0.7546771E-02  0.1026671E+00
         21   -1    0    0  502  501  0.00000000000E+00  0.00000000000E+00  0.28079143617E+02  0.28079143617E+02  0.00000000000E+00 0. -1.
         21   -1    0    0  501  502 -0.00000000000E+00 -0.00000000000E+00 -0.18314264154E+04  0.18314264154E+04  0.00000000000E+00 0. -1.
      99926    2    1    2    0    0  0.14210854715E-13 -0.88817841970E-15 -0.18033472718E+04  0.18595055591E+04  0.45354111321E+03 0.  0.
      99925    2    3    3    0    0 -0.10837393183E+03  0.29615522681E+01 -0.10242462250E+04  0.10630134818E+04  0.26298983467E+03 0.  0.
         25    1    4    4    0    0 -0.23158955284E+02 -0.26720561358E+02 -0.48968053739E+03  0.50664076268E+03  0.12509000000E+03 0.  0.
         25    1    3    3    0    0  0.10837393183E+03 -0.29615522681E+01 -0.77910104683E+03  0.79649207728E+03  0.12509000000E+03 0.  0.
         25    1    4    4    0    0 -0.85214976547E+02  0.29682113626E+02 -0.53456568760E+03  0.55637271910E+03  0.12509000000E+03 0.  0.
<mgrwt>
<rscale>  2 0.45354111E+03</rscale>
<asrwt>0</asrwt>
<pdfrwt beam="1">  1       21 0.41292840E-02 0.45354111E+03</pdfrwt>
<pdfrwt beam="2">  1       21 0.26932754E+00 0.45354111E+03</pdfrwt>
<totfact> 0.16326362E+04</totfact>
</mgrwt>
</event>
<event>
 7    0  0.4766352E-002  0.4540307E+03  0.7546771E-02  0.1026527E+00
         21   -1    0    0  502  501  0.00000000000E+00  0.00000000000E+00  0.63196612598E+03  0.63196612598E+03  0.00000000000E+00 0.  1.
         21   -1    0    0  501  502 -0.00000000000E+00 -0.00000000000E+00 -0.81548638002E+02  0.81548638002E+02  0.00000000000E+00 0.  1.
      99926    2    1    2    0    0  0.00000000000E+00 -0.35527136788E-14  0.55041748797E+03  0.71351476398E+03  0.45403073392E+03 0.  0.
      99925    2    3    3    0    0  0.77923508953E+02  0.24893926999E+02  0.46747892202E+03  0.54258175174E+03  0.26299550176E+03 0.  0.
         25    1    3    3    0    0 -0.77923508953E+02 -0.24893926999E+02  0.82938565956E+02  0.17093301224E+03  0.12509000000E+03 0.  0.
         25    1    4    4    0    0  0.11921317259E+01  0.33224532773E+01  0.18202216443E+03  0.22088919466E+03  0.12509000000E+03 0.  0.
         25    1    4    4    0    0  0.76731377227E+02  0.21571473722E+02  0.28545675759E+03  0.32169255709E+03  0.12509000000E+03 0.  0.
<mgrwt>
<rscale>  2 0.45403073E+03</rscale>
<asrwt>0</asrwt>
<pdfrwt beam="1">  1       21 0.92936192E-01 0.45403073E+03</pdfrwt>
<pdfrwt beam="2">  1       21 0.11992447E-01 0.45403073E+03</pdfrwt>
<totfact> 0.52575098E+04</totfact>
</mgrwt>
</event>
<event>
 7    0  0.4766352E-002  0.4505230E+03  0.7546771E-02  0.1027566E+00
         21   -1    0    0  502  501  0.00000000000E+00  0.00000000000E+00  0.38992387305E+03  0.38992387305E+03  0.00000000000E+00 0. -1.
         21   -1    0    0  501  502 -0.00000000000E+00 -0.00000000000E+00 -0.13013499931E+03  0.13013499931E+03  0.00000000000E+00 0. -1.
      99926    2    1    2    0    0  0.00000000000E+00  0.35527136788E-14  0.25978887374E+03  0.52005887236E+03  0.45052299808E+03 0.  0.
      99925    2    3    3    0    0  0.10843203356E+03 -0.57873449062E+01  0.17184803859E+03  0.33251661619E+03  0.26314359656E+03 0.  0.
         25    1    4    4    0    0  0.60355393339E+02  0.36766976407E+02  0.78161158977E+02  0.16355812096E+03  0.12509000000E+03 0.  0.
         25    1    4    4    0    0  0.48076640225E+02 -0.42554321313E+02  0.93686879614E+02  0.16895849523E+03  0.12509000000E+03 0.  0.
         25    1    3    3    0    0 -0.10843203356E+03  0.57873449062E+01  0.87940835148E+02  0.18754225617E+03  0.12509000000E+03 0.  0.
<mgrwt>
<rscale>  2 0.45052300E+03</rscale>
<asrwt>0</asrwt>
<pdfrwt beam="1">  1       21 0.57341746E-01 0.45052300E+03</pdfrwt>
<pdfrwt beam="2">  1       21 0.19137500E-01 0.45052300E+03</pdfrwt>
<totfact> 0.66203166E+04</totfact>
</mgrwt>
</event>
<event>
 7    0  0.4766352E-002  0.4504283E+03  0.7546771E-02  0.1027594E+00
         21   -1    0    0  502  501  0.00000000000E+00  0.00000000000E+00  0.22601574844E+03  0.22601574844E+03  0.00000000000E+00 0. -1.
         21   -1    0    0  501  502 -0.00000000000E+00 -0.00000000000E+00 -0.22441536203E+03  0.22441536203E+03  0.00000000000E+00 0. -1.
      99926    2    1    2    0    0  0.00000000000E+00  0.14210854715E-13  0.16003864170E+01  0.45043111047E+03  0.45042826737E+03 0.  0.
      99925    2    3    3    0    0 -0.16714409113E+02 -0.63099753917E+02 -0.86062682087E+02  0.28431888306E+03  0.26300093460E+03 0.  0.
         25    1    3    3    0    0  0.16714409113E+02  0.63099753917E+02  0.87663068504E+02  0.16611222741E+03  0.12509000000E+03 0.  0.
         25    1    4    4    0    0 -0.33097526694E+02  0.11164263184E+01 -0.42813717643E+02  0.13629825824E+03  0.12509000000E+03 0.  0.
         25    1    4    4    0    0  0.16383117582E+02 -0.64216180235E+02 -0.43248964443E+02  0.14802062482E+03  0.12509000000E+03 0.  0.
<mgrwt>
<rscale>  2 0.45042827E+03</rscale>
<asrwt>0</asrwt>
<pdfrwt beam="1">  1       21 0.33237610E-01 0.45042827E+03</pdfrwt>
<pdfrwt beam="2">  1       21 0.33002259E-01 0.45042827E+03</pdfrwt>
<totfact> 0.71452887E+04</totfact>
</mgrwt>
</event>
<event>
 7    0  0.4766352E-002  0.4549534E+03  0.7546771E-02  0.1026255E+00
         21   -1    0    0  502  501  0.00000000000E+00  0.00000000000E+00  0.13163688743E+04  0.13163688743E+04  0.00000000000E+00 0. -1.
         21   -1    0    0  501  502 -0.00000000000E+00 -0.00000000000E+00 -0.39309381710E+02  0.39309381710E+02  0.00000000000E+00 0. -1.
      99926    2    1    2    0    0  0.00000000000E+00  0.00000000000E+00  0.12770594926E+04  0.13556782560E+04  0.45495338904E+03 0.  0.
      99925    2    3    3    0    0 -0.84035163715E+02  0.61086384077E+02  0.93701590107E+03  0.97875570787E+03  0.26300281704E+03 0.  0.
         25    1    3    3    0    0  0.84035163715E+02 -0.61086384077E+02  0.34004359149E+03  0.37692254811E+03  0.12509000000E+03 0.  0.
         25    1    4    4    0    0 -0.26651095595E+02  0.58578700249E+02  0.55998914697E+03  0.57738816912E+03  0.12509000000E+03 0.  0.
         25    1    4    4    0    0 -0.57384068119E+02  0.25076838276E+01  0.37702675410E+03  0.40136753874E+03  0.12509000000E+03 0.  0.
<mgrwt>
<rscale>  2 0.45495339E+03</rscale>
<asrwt>0</asrwt>
<pdfrwt beam="1">  1       21 0.19358363E+00 0.45495339E+03</pdfrwt>
<pdfrwt beam="2">  1       21 0.57807923E-02 0.45495339E+03</pdfrwt>
<totfact> 0.27547393E+04</totfact>
</mgrwt>
</event>
<event>
 7    0  0.4766352E-002  0.4576707E+03  0.7546771E-02  0.1025459E+00
         21   -1    0    0  502  501  0.00000000000E+00  0.00000000000E+00  0.13080725301E+04  0.13080725301E+04  0.00000000000E+00 0.  1.
         21   -1    0    0  501  502 -0.00000000000E+00 -0.00000000000E+00 -0.40032649430E+02  0.40032649430E+02  0.00000000000E+00 0.  1.
      99926    2    1    2    0    0  0.00000000000E+00  0.14210854715E-13  0.12680398807E+04  0.13481051796E+04  0.45767066338E+03 0.  0.
      99925    2    3    3    0    0  0.78648914494E+02 -0.79204744364E+02  0.88466464565E+03  0.92967582802E+03  0.26307140982E+03 0.  0.
         25    1    3    3    0    0 -0.78648914494E+02  0.79204744364E+02  0.38337523506E+03  0.41842935155E+03  0.12509000000E+03 0.  0.
         25    1    4    4    0    0  0.36629816508E+01 -0.28808577030E+02  0.47013912682E+03  0.48736193759E+03  0.12509000000E+03 0.  0.
         25    1    4    4    0    0  0.74985932843E+02 -0.50396167334E+02  0.41452551883E+03  0.44231389043E+03  0.12509000000E+03 0.  0.
<mgrwt>
<rscale>  2 0.45767066E+03</rscale>
<asrwt>0</asrwt>
<pdfrwt beam="1">  1       21 0.19236358E+00 0.45767066E+03</pdfrwt>
<pdfrwt beam="2">  1       21 0.58871552E-02 0.45767066E+03</pdfrwt>
<totfact> 0.27179649E+04</totfact>
</mgrwt>
</event>
<event>
 7    0  0.4766352E-002  0.4561388E+03  0.7546771E-02  0.1025907E+00
         21   -1    0    0  502  501  0.00000000000E+00  0.00000000000E+00  0.15803534929E+04  0.15803534929E+04  0.00000000000E+00 0. -1.
         21   -1    0    0  501  502 -0.00000000000E+00 -0.00000000000E+00 -0.32913936393E+02  0.32913936393E+02  0.00000000000E+00 0. -1.
      99926    2    1    2    0    0  0.00000000000E+00  0.00000000000E+00  0.15474395565E+04  0.16132674293E+04  0.45613881372E+03 0.  0.
      99925    2    3    3    0    0  0.10968915434E+03  0.18288172447E+02  0.88134566620E+03  0.92646706045E+03  0.26306817168E+03 0.  0.
         25    1    3    3    0    0 -0.10968915434E+03 -0.18288172447E+02  0.66609389032E+03  0.68680036885E+03  0.12509000000E+03 0.  0.
         25    1    4    4    0    0  0.73035588620E+02 -0.83117847487E+01  0.56402224027E+03  0.58238464832E+03  0.12509000000E+03 0.  0.
         25    1    4    4    0    0  0.36653565720E+02  0.26599957196E+02  0.31732342592E+03  0.34408241214E+03  0.12509000000E+03 0.  0.
<mgrwt>
<rscale>  2 0.45613881E+03</rscale>
<asrwt>0</asrwt>
<pdfrwt beam="1">  1       21 0.23240488E+00 0.45613881E+03</pdfrwt>
<pdfrwt beam="2">  1       21 0.48402858E-02 0.45613881E+03</pdfrwt>
<totfact> 0.20945807E+04</totfact>
</mgrwt>
</event>
<event>
 7    0  0.4766352E-002  0.4698175E+03  0.7546771E-02  0.1021972E+00
         21   -1    0    0  502  501  0.00000000000E+00  0.00000000000E+00  0.18630781435E+03  0.18630781435E+03  0.00000000000E+00 0.  1.
         21   -1    0    0  501  502 -0.00000000000E+00 -0.00000000000E+00 -0.29618792698E+03  0.29618792698E+03  0.00000000000E+00 0.  1.
      99926    2    1    2    0    0  0.00000000000E+00 -0.44408920985E-15 -0.10988011263E+03  0.48249574133E+03  0.46981751910E+03 0.  0.
      99925    2    3    3    0    0  0.11040417951E+03  0.28442356566E+01 -0.49617408332E+01  0.28538525107E+03  0.26310254679E+03 0.  0.
         25    1    4    4    0    0  0.55535333648E+02  0.10380336268E+02 -0.42213665180E+02  0.14360162357E+03  0.12509000000E+03 0.  0.
         25    1    4    4    0    0  0.54868845863E+02 -0.75361006115E+01  0.37251924347E+02  0.14178362750E+03  0.12509000000E+03 0.  0.
         25    1    3    3    0    0 -0.11040417951E+03 -0.28442356566E+01 -0.10491837180E+03  0.19711049026E+03  0.12509000000E+03 0.  0.
<mgrwt>
<rscale>  2 0.46981752E+03</rscale>
<asrwt>0</asrwt>
<pdfrwt beam="1">  1       21 0.27398208E-01 0.46981752E+03</pdfrwt>
<pdfrwt beam="2">  1       21 0.43557048E-01 0.46981752E+03</pdfrwt>
<totfact> 0.59240191E+04</totfact>
</mgrwt>
</event>
<event>
 7    0  0.4766352E-002  0.4432026E+03  0.7546771E-02  0.1029769E+00
         21   -1    0    0  502  501  0.00000000000E+00  0.00000000000E+00  0.22029502281E+03  0.22029502281E+03  0.00000000000E+00 0.  1.
         21   -1    0    0  501  502 -0.00000000000E+00 -0.00000000000E+00 -0.22291533045E+03  0.22291533045E+03  0.00000000000E+00 0.  1.
      99926    2    1    2    0    0  0.00000000000E+00  0.00000000000E+00 -0.26203076401E+01  0.44321035325E+03  0.44320260741E+03 0.  0.
      99925    2    3    3    0    0  0.42259654409E+02 -0.53395116374E+02 -0.77229782364E+02  0.28242789568E+03  0.26299079857E+03 0.  0.
         25    1    4    4    0    0  0.34982321357E+01 -0.13912692586E+02 -0.11548176670E+01  0.12591521889E+03  0.12509000000E+03 0.  0.
         25    1    4    4    0    0  0.38761422274E+02 -0.39482423788E+02 -0.76074964697E+02  0.15651267680E+03  0.12509000000E+03 0.  0.
         25    1    3    3    0    0 -0.42259654409E+02  0.53395116374E+02  0.74609474724E+02  0.16078245757E+03  0.12509000000E+03 0.  0.
<mgrwt>
<rscale>  2 0.44320261E+03</rscale>
<asrwt>0</asrwt>
<pdfrwt beam="1">  1       21 0.32396327E-01 0.44320261E+03</pdfrwt>
<pdfrwt beam="2">  1       21 0.32781666E-01 0.44320261E+03</pdfrwt>
<totfact> 0.76356612E+04</totfact>
</mgrwt>
</event>
<event>
 7    0  0.4766352E-002  0.4649488E+03  0.7546771E-02  0.1023356E+00
         21   -1    0    0  502  501  0.00000000000E+00  0.00000000000E+00  0.13727978883E+03  0.13727978883E+03  0.00000000000E+00 0.  1.
         21   -1    0    0  501  502 -0.00000000000E+00 -0.00000000000E+00 -0.39368026750E+03  0.39368026750E+03  0.00000000000E+00 0.  1.
      99926    2    1    2    0    0 -0.35527136788E-14  0.00000000000E+00 -0.25640047867E+03  0.53096005632E+03  0.46494878853E+03 0.  0.
      99925    2    3    3    0    0 -0.19520298391E+02 -0.48287325902E+02 -0.28684749886E+03  0.39208155896E+03  0.26217122913E+03 0.  0.
         25    1    4    4    0    0  0.25842248227E+02 -0.67942862645E+01 -0.13804605961E+03  0.18819725501E+03  0.12509000000E+03 0.  0.
         25    1    3    3    0    0  0.19520298391E+02  0.48287325902E+02  0.30447020192E+02  0.13887849737E+03  0.12509000000E+03 0.  0.
         25    1    4    4    0    0 -0.45362546619E+02 -0.41493039637E+02 -0.14880143925E+03  0.20388430395E+03  0.12509000000E+03 0.  0.
<mgrwt>
<rscale>  2 0.46494879E+03</rscale>
<asrwt>0</asrwt>
<pdfrwt beam="1">  1       21 0.20188204E-01 0.46494879E+03</pdfrwt>
<pdfrwt beam="2">  1       21 0.57894157E-01 0.46494879E+03</pdfrwt>
<totfact> 0.58398242E+04</totfact>
</mgrwt>
</event>
<event>
 7    0  0.4766352E-002  0.4604931E+03  0.7546771E-02  0.1024638E+00
         21   -1    0    0  502  501  0.00000000000E+00  0.00000000000E+00  0.38414876085E+03  0.38414876085E+03  0.00000000000E+00 0. -1.
         21   -1    0    0  501  502 -0.00000000000E+00 -0.00000000000E+00 -0.13800243463E+03  0.13800243463E+03  0.00000000000E+00 0. -1.
      99926    2    1    2    0    0  0.00000000000E+00  0.00000000000E+00  0.24614632622E+03  0.52215119548E+03  0.46049305861E+03 0.  0.
      99925    2    3    3    0    0 -0.83065220728E+02  0.84028972174E+02  0.14744659108E+03  0.32378324223E+03  0.26293419646E+03 0.  0.
         25    1    4    4    0    0  0.85528832342E+00  0.36632921092E+02  0.65989517042E+02  0.14609868886E+03  0.12509000000E+03 0.  0.
         25    1    3    3    0    0  0.83065220728E+02 -0.84028972174E+02  0.98699735137E+02  0.19836795325E+03  0.12509000000E+03 0.  0.
         25    1    4    4    0    0 -0.83920509051E+02  0.47396051082E+02  0.81457074042E+02  0.17768455338E+03  0.12509000000E+03 0.  0.
<mgrwt>
<rscale>  2 0.46049306E+03</rscale>
<asrwt>0</asrwt>
<pdfrwt beam="1">  1       21 0.56492465E-01 0.46049306E+03</pdfrwt>
<pdfrwt beam="2">  1       21 0.20294476E-01 0.46049306E+03</pdfrwt>
<totfact> 0.61037097E+04</totfact>
</mgrwt>
</event>
<event>
 7    0  0.4766352E-002  0.4306886E+03  0.7546771E-02  0.1033643E+00
         21   -1    0    0  502  501  0.00000000000E+00  0.00000000000E+00  0.44123571272E+02  0.44123571272E+02  0.00000000000E+00 0.  1.
         21   -1    0    0  501  502 -0.00000000000E+00 -0.00000000000E+00 -0.10509841595E+04  0.10509841595E+04  0.00000000000E+00 0.  1.
      99926    2    1    2    0    0 -0.71054273576E-14  0.71054273576E-14 -0.10068605883E+04  0.10951077308E+04  0.43068863216E+03 0.  0.
      99925    2    3    3    0    0 -0.36544432344E+02  0.50769637472E+02 -0.80779857138E+03  0.85182549493E+03  0.26297355433E+03 0.  0.
         25    1    4    4    0    0 -0.36181860126E+02  0.83616804639E+01 -0.50278114718E+03  0.51943761393E+03  0.12509000000E+03 0.  0.
         25    1    4    4    0    0 -0.36257221767E+00  0.42407957008E+02 -0.30501742419E+03  0.33238788100E+03  0.12509000000E+03 0.  0.
         25    1    3    3    0    0  0.36544432344E+02 -0.50769637472E+02 -0.19906201688E+03  0.24328223587E+03  0.12509000000E+03 0.  0.
<mgrwt>
<rscale>  2 0.43068863E+03</rscale>
<asrwt>0</asrwt>
<pdfrwt beam="1">  1       21 0.64887611E-02 0.43068863E+03</pdfrwt>
<pdfrwt beam="2">  1       21 0.15455648E+00 0.43068863E+03</pdfrwt>
<totfact> 0.43314523E+04</totfact>
</mgrwt>
</event>
<event>
 7    0  0.4766352E-002  0.4522761E+03  0.7546771E-02  0.1027045E+00
         21   -1    0    0  502  501  0.00000000000E+00  0.00000000000E+00  0.13490040315E+04  0.13490040315E+04  0.00000000000E+00 0. -1.
         21   -1    0    0  501  502 -0.00000000000E+00 -0.00000000000E+00 -0.37908273411E+02  0.37908273411E+02  0.00000000000E+00 0. -1.
      99926    2    1    2    0    0  0.00000000000E+00  0.31086244690E-14  0.13110957581E+04  0.13869123049E+04  0.45227608232E+03 0.  0.
      99925    2    3    3    0    0  0.37386275457E+02  0.31210816517E+01  0.50908694796E+03  0.57434039156E+03  0.26322972866E+03 0.  0.
         25    1    4    4    0    0  0.53987085168E+02  0.19803786726E+02  0.28843920537E+03  0.31961144946E+03  0.12509000000E+03 0.  0.
         25    1    4    4    0    0 -0.16600809712E+02 -0.16682705074E+02  0.22064774260E+03  0.25472894210E+03  0.12509000000E+03 0.  0.
         25    1    3    3    0    0 -0.37386275457E+02 -0.31210816517E+01  0.80200881015E+03  0.81257191337E+03  0.12509000000E+03 0.  0.
<mgrwt>
<rscale>  2 0.45227608E+03</rscale>
<asrwt>0</asrwt>
<pdfrwt beam="1">  1       21 0.19838291E+00 0.45227608E+03</pdfrwt>
<pdfrwt beam="2">  1       21 0.55747470E-02 0.45227608E+03</pdfrwt>
<totfact> 0.27255298E+04</totfact>
</mgrwt>
</event>
<event>
 6    0  0.4766352E-002  0.4509811E+03  0.7546771E-02  0.1027430E+00
         21   -1    0    0  502  501  0.00000000000E+00  0.00000000000E+00  0.23421324948E+03  0.23421324948E+03  0.00000000000E+00 0.  1.
         21   -1    0    0  501  502 -0.00000000000E+00 -0.00000000000E+00 -0.21709271426E+03  0.21709271426E+03  0.00000000000E+00 0.  1.
      99926    2    1    2    0    0  0.00000000000E+00 -0.35527136788E-14  0.17120535224E+02  0.45130596374E+03  0.45098110846E+03 0.  0.
         25    1    3    3    0    0 -0.17772625227E+02 -0.56288208350E+01  0.81083506222E+02  0.15023179728E+03  0.12509000000E+03 0.  0.
         25    1    3    3    0    0  0.76089168966E+02 -0.28433673406E+02 -0.53794505701E+02  0.15855406763E+03  0.12509000000E+03 0.  0.
         25    1    3    3    0    0 -0.58316543738E+02  0.34062494241E+02 -0.10168465297E+02  0.14252009884E+03  0.12509000000E+03 0.  0.
<mgrwt>
<rscale>  2 0.45098111E+03</rscale>
<asrwt>0</asrwt>
<pdfrwt beam="1">  1       21 0.34443125E-01 0.45098111E+03</pdfrwt>
<pdfrwt beam="2">  1       21 0.31925399E-01 0.45098111E+03</pdfrwt>
<totfact> 0.71069012E+04</totfact>
</mgrwt>
</event>
<event>
 7    0  0.4766352E-002  0.4460296E+03  0.7546771E-02  0.1028913E+00
         21   -1    0    0  502  501  0.00000000000E+00  0.00000000000E+00  0.14087784449E+03  0.14087784449E+03  0.00000000000E+00 0.  1.
         21   -1    0    0  501  502 -0.00000000000E+00 -0.00000000000E+00 -0.35304055941E+03  0.35304055941E+03  0.00000000000E+00 0.  1.
      99926    2    1    2    0    0  0.00000000000E+00  0.35527136788E-14 -0.21216271492E+03  0.49391840390E+03  0.44602956417E+03 0.  0.
      99925    2    3    3    0    0 -0.28578663485E+02 -0.20645291551E+02 -0.25644184265E+02  0.26658684330E+03  0.26299800905E+03 0.  0.
         25    1    4    4    0    0  0.34119521906E+01  0.21841655017E+02  0.54643794991E+01  0.12714584875E+03  0.12509000000E+03 0.  0.
         25    1    4    4    0    0 -0.31990615675E+02 -0.42486946569E+02 -0.31108563764E+02  0.13944099454E+03  0.12509000000E+03 0.  0.
         25    1    3    3    0    0  0.28578663485E+02  0.20645291551E+02 -0.18651853065E+03  0.22733156061E+03  0.12509000000E+03 0.  0.
<mgrwt>
<rscale>  2 0.44602956E+03</rscale>
<asrwt>0</asrwt>
<pdfrwt beam="1">  1       21 0.20717331E-01 0.44602956E+03</pdfrwt>
<pdfrwt beam="2">  1       21 0.51917728E-01 0.44602956E+03</pdfrwt>
<totfact> 0.70594655E+04</totfact>
</mgrwt>
</event>
<event>
 7    0  0.4766352E-002  0.4546838E+03  0.7546771E-02  0.1026334E+00
         21   -1    0    0  502  501  0.00000000000E+00  0.00000000000E+00  0.23404028353E+03  0.23404028353E+03  0.00000000000E+00 0.  1.
         21   -1    0    0  501  502 -0.00000000000E+00 -0.00000000000E+00 -0.22083524841E+03  0.22083524841E+03  0.00000000000E+00 0.  1.
      99926    2    1    2    0    0  0.14210854715E-13  0.00000000000E+00  0.13205035119E+02  0.45487553194E+03  0.45468382048E+03 0.  0.
      99925    2    3    3    0    0  0.89056960855E+02 -0.64195667450E+02 -0.17266876230E+02  0.28567662096E+03  0.26317439228E+03 0.  0.
         25    1    3    3    0    0 -0.89056960855E+02  0.64195667450E+02  0.30471911349E+02  0.16919891098E+03  0.12509000000E+03 0.  0.
         25    1    4    4    0    0  0.67008377495E+02 -0.27536773692E+02 -0.43373375431E+02  0.15092102026E+03  0.12509000000E+03 0.  0.
         25    1    4    4    0    0  0.22048583360E+02 -0.36658893757E+02  0.26106499202E+02  0.13475560070E+03  0.12509000000E+03 0.  0.
<mgrwt>
<rscale>  2 0.45468382E+03</rscale>
<asrwt>0</asrwt>
<pdfrwt beam="1">  1       21 0.34417689E-01 0.45468382E+03</pdfrwt>
<pdfrwt beam="2">  1       21 0.32475772E-01 0.45468382E+03</pdfrwt>
<totfact> 0.68728143E+04</totfact>
</mgrwt>
</event>
<event>
 7    0  0.4766352E-002  0.4244441E+03  0.7546771E-02  0.1035630E+00
         21   -1    0    0  502  501  0.00000000000E+00  0.00000000000E+00  0.19913636945E+02  0.19913636945E+02  0.00000000000E+00 0. -1.
         21   -1    0    0  501  502 -0.00000000000E+00 -0.00000000000E+00 -0.22616757728E+04  0.22616757728E+04  0.00000000000E+00 0. -1.
      99926    2    1    2    0    0  0.00000000000E+00  0.00000000000E+00 -0.22417621359E+04  0.22815894098E+04  0.42444406099E+03 0.  0.
      99925    2    3    3    0    0 -0.54656171290E+02  0.35304428635E+02 -0.11914820374E+04  0.12218868604E+04  0.26295314121E+03 0.  0.
         25    1    4    4    0    0 -0.56135686765E+02 -0.50982899724E+01 -0.68629272684E+03  0.69987314772E+03  0.12509000000E+03 0.  0.
         25    1    4    4    0    0  0.14795154753E+01  0.40402718607E+02 -0.50518931053E+03  0.52201371266E+03  0.12509000000E+03 0.  0.
         25    1    3    3    0    0  0.54656171290E+02 -0.35304428635E+02 -0.10502800985E+04  0.10597025494E+04  0.12509000000E+03 0.  0.
<mgrwt>
<rscale>  2 0.42444406E+03</rscale>
<asrwt>0</asrwt>
<pdfrwt beam="1">  1       21 0.29284751E-02 0.42444406E+03</pdfrwt>
<pdfrwt beam="2">  1       21 0.33259948E+00 0.42444406E+03</pdfrwt>
<totfact> 0.12305314E+04</totfact>
</mgrwt>
</event>
<event>
 7    0  0.4766352E-002  0.4491447E+03  0.7546771E-02  0.1027977E+00
         21   -1    0    0  502  501  0.00000000000E+00  0.00000000000E+00  0.73586462417E+03  0.73586462417E+03  0.00000000000E+00 0.  1.
         21   -1    0    0  501  502 -0.00000000000E+00 -0.00000000000E+00 -0.68535361202E+02  0.68535361202E+02  0.00000000000E+00 0.  1.
      99926    2    1    2    0    0  0.14210854715E-13  0.71054273576E-14  0.66732926297E+03  0.80439998538E+03  0.44914473308E+03 0.  0.
      99925    2    3    3    0    0  0.75336928897E+02  0.38339126253E+02  0.54139732093E+03  0.60779911156E+03  0.26298889606E+03 0.  0.
         25    1    4    4    0    0  0.12760967155E+02 -0.12341701116E+02  0.27617385457E+03  0.30370160671E+03  0.12509000000E+03 0.  0.
         25    1    4    4    0    0  0.62575961742E+02  0.50680827369E+02  0.26522346636E+03  0.30409750486E+03  0.12509000000E+03 0.  0.
         25    1    3    3    0    0 -0.75336928897E+02 -0.38339126253E+02  0.12593194204E+03  0.19660087381E+03  0.12509000000E+03 0.  0.
<mgrwt>
<rscale>  2 0.44914473E+03</rscale>
<asrwt>0</asrwt>
<pdfrwt beam="1">  1       21 0.10821538E+00 0.44914473E+03</pdfrwt>
<pdfrwt beam="2">  1       21 0.10078730E-01 0.44914473E+03</pdfrwt>
<totfact> 0.49801976E+04</totfact>
</mgrwt>
</event>
<event>
 7    0  0.4766352E-002  0.4546500E+03  0.7546771E-02  0.1026344E+00
         21   -1    0    0  502  501  0.00000000000E+00  0.00000000000E+00  0.19168873996E+03  0.19168873996E+03  0.00000000000E+00 0. -1.
         21   -1    0    0  501  502 -0.00000000000E+00 -0.00000000000E+00 -0.26958625537E+03  0.26958625537E+03  0.00000000000E+00 0. -1.
      99926    2    1    2    0    0  0.00000000000E+00  0.71054273576E-14 -0.77897515405E+02  0.46127499533E+03  0.45464997351E+03 0.  0.
      99925    2    3    3    0    0 -0.26600130661E+02 -0.61106505116E+02  0.43303084330E+02  0.27478460578E+03  0.26303963683E+03 0.  0.
         25    1    4    4    0    0  0.26525895418E+01  0.71667325106E+01  0.11344942950E+02  0.12583566314E+03  0.12509000000E+03 0.  0.
         25    1    3    3    0    0  0.26600130661E+02  0.61106505116E+02 -0.12120059973E+03  0.18649038955E+03  0.12509000000E+03 0.  0.
         25    1    4    4    0    0 -0.29252720203E+02 -0.68273237627E+02  0.31958141379E+02  0.14894894265E+03  0.12509000000E+03 0.  0.
<mgrwt>
<rscale>  2 0.45464997E+03</rscale>
<asrwt>0</asrwt>
<pdfrwt beam="1">  1       21 0.28189521E-01 0.45464997E+03</pdfrwt>
<pdfrwt beam="2">  1       21 0.39645037E-01 0.45464997E+03</pdfrwt>
<totfact> 0.68277281E+04</totfact>
</mgrwt>
</event>
<event>
 7    0  0.4766352E-002  0.4484488E+03  0.7546771E-02  0.1028186E+00
         21   -1    0    0  502  501  0.00000000000E+00  0.00000000000E+00  0.84730304136E+03  0.84730304136E+03  0.00000000000E+00 0.  1.
         21   -1    0    0  501  502 -0.00000000000E+00 -0.00000000000E+00 -0.59337178831E+02  0.59337178831E+02  0.00000000000E+00 0.  1.
      99926    2    1    2    0    0  0.00000000000E+00  0.00000000000E+00  0.78796586253E+03  0.90664022020E+03  0.44844875778E+03 0.  0.
      99925    2    3    3    0    0 -0.48983815660E+02  0.39279739127E+02  0.67382328939E+03  0.72603471860E+03  0.26295679338E+03 0.  0.
         25    1    4    4    0    0 -0.41817130682E+02 -0.75554382420E+01  0.26910672715E+03  0.29978608334E+03  0.12509000000E+03 0.  0.
         25    1    4    4    0    0 -0.71666849788E+01  0.46835177369E+02  0.40471656224E+03  0.42624863526E+03  0.12509000000E+03 0.  0.
         25    1    3    3    0    0  0.48983815660E+02 -0.39279739127E+02  0.11414257314E+03  0.18060550160E+03  0.12509000000E+03 0.  0.
<mgrwt>
<rscale>  2 0.44844876E+03</rscale>
<asrwt>0</asrwt>
<pdfrwt beam="1">  1       21 0.12460338E+00 0.44844876E+03</pdfrwt>
<pdfrwt beam="2">  1       21 0.87260562E-02 0.44844876E+03</pdfrwt>
<totfact> 0.45222071E+04</totfact>
</mgrwt>
</event>
<event>
 7    0  0.4766352E-002  0.4418510E+03  0.7546771E-02  0.1030180E+00
         21   -1    0    0  502  501  0.00000000000E+00  0.00000000000E+00  0.18297205145E+03  0.18297205145E+03  0.00000000000E+00 0.  1.
         21   -1    0    0  501  502 -0.00000000000E+00 -0.00000000000E+00 -0.26675155903E+03  0.26675155903E+03  0.00000000000E+00 0.  1.
      99926    2    1    2    0    0  0.71054273576E-14  0.00000000000E+00 -0.83779507578E+02  0.44972361048E+03  0.44185101554E+03 0.  0.
      99925    2    3    3    0    0  0.37024140177E+02 -0.57409809524E+02  0.21385844247E+02  0.27259672797E+03  0.26303031874E+03 0.  0.
         25    1    4    4    0    0 -0.14215874452E+01 -0.51268016316E+02  0.38260750684E+02  0.14050559971E+03  0.12509000000E+03 0.  0.
         25    1    4    4    0    0  0.38445727622E+02 -0.61417932082E+01 -0.16874906437E+02  0.13209112825E+03  0.12509000000E+03 0.  0.
         25    1    3    3    0    0 -0.37024140177E+02  0.57409809524E+02 -0.10516535183E+03  0.17712688252E+03  0.12509000000E+03 0.  0.
<mgrwt>
<rscale>  2 0.44185102E+03</rscale>
<asrwt>0</asrwt>
<pdfrwt beam="1">  1       21 0.26907655E-01 0.44185102E+03</pdfrwt>
<pdfrwt beam="2">  1       21 0.39228170E-01 0.44185102E+03</pdfrwt>
<totfact> 0.76662818E+04</totfact>
</mgrwt>
</event>
<event>
 7    0  0.4766352E-002  0.4511517E+03  0.7546771E-02  0.1027379E+00
         21   -1    0    0  502  501  0.00000000000E+00  0.00000000000E+00  0.90248252249E+02  0.90248252249E+02  0.00000000000E+00 0.  1.
         21   -1    0    0  501  502 -0.00000000000E+00 -0.00000000000E+00 -0.56382765812E+03  0.56382765812E+03  0.00000000000E+00 0.  1.
      99926    2    1    2    0    0  0.00000000000E+00  0.35527136788E-14 -0.47357940587E+03  0.65407591036E+03  0.45115168498E+03 0.  0.
      99925    2    3    3    0    0  0.10348025495E+03 -0.31557759117E+02 -0.32500713695E+03  0.43175793422E+03  0.26283306369E+03 0.  0.
         25    1    3    3    0    0 -0.10348025495E+03  0.31557759117E+02 -0.14857226892E+03  0.22231797615E+03  0.12509000000E+03 0.  0.
         25    1    4    4    0    0  0.51423385445E+02 -0.46100180021E+02 -0.12563414309E+03  0.19026570153E+03  0.12509000000E+03 0.  0.
         25    1    4    4    0    0  0.52056869510E+02  0.14542420904E+02 -0.19937299386E+03  0.24149223269E+03  0.12509000000E+03 0.  0.
<mgrwt>
<rscale>  2 0.45115168E+03</rscale>
<asrwt>0</asrwt>
<pdfrwt beam="1">  1       21 0.13271802E-01 0.45115168E+03</pdfrwt>
<pdfrwt beam="2">  1       21 0.82915831E-01 0.45115168E+03</pdfrwt>
<totfact> 0.57183370E+04</totfact>
</mgrwt>
</event>
<event>
 7    0  0.4766352E-002  0.4512510E+03  0.7546771E-02  0.1027350E+00
         21   -1    0    0  502  501  0.00000000000E+00  0.00000000000E+00  0.52763487375E+02  0.52763487375E+02  0.00000000000E+00 0. -1.
         21   -1    0    0  501  502 -0.00000000000E+00 -0.00000000000E+00 -0.96481224659E+03  0.96481224659E+03  0.00000000000E+00 0. -1.
      99926    2    1    2    0    0  0.71054273576E-14  0.26645352591E-14 -0.91204875921E+03  0.10175757340E+04  0.45125096694E+03 0.  0.
      99925    2    3    3    0    0  0.37956415916E+02 -0.56651824768E+01 -0.80740186502E+03  0.85003092096E+03  0.26302473484E+03 0.  0.
         25    1    4    4    0    0  0.46215401440E+02  0.27271737317E+02 -0.42388243817E+03  0.44520044977E+03  0.12509000000E+03 0.  0.
         25    1    4    4    0    0 -0.82589855233E+01 -0.32936919794E+02 -0.38351942685E+03  0.40483047118E+03  0.12509000000E+03 0.  0.
         25    1    3    3    0    0 -0.37956415916E+02  0.56651824768E+01 -0.10464689419E+03  0.16754481301E+03  0.12509000000E+03 0.  0.
<mgrwt>
<rscale>  2 0.45125097E+03</rscale>
<asrwt>0</asrwt>
<pdfrwt beam="1">  1       21 0.77593366E-02 0.45125097E+03</pdfrwt>
<pdfrwt beam="2">  1       21 0.14188415E+00 0.45125097E+03</pdfrwt>
<totfact> 0.39637691E+04</totfact>
</mgrwt>
</event>
<event>
 7    0  0.4766352E-002  0.4549273E+03  0.7546771E-02  0.1026263E+00
         21   -1    0    0  502  501  0.00000000000E+00  0.00000000000E+00  0.10170628350E+03  0.10170628350E+03  0.00000000000E+00 0. -1.
         21   -1    0    0  501  502 -0.00000000000E+00 -0.00000000000E+00 -0.50871701632E+03  0.50871701632E+03  0.00000000000E+00 0. -1.
      99926    2    1    2    0    0  0.00000000000E+00  0.00000000000E+00 -0.40701073282E+03  0.61042329982E+03  0.45492732203E+03 0.  0.
      99925    2    3    3    0    0  0.77251657350E+02 -0.34116291137E+02 -0.35701551108E+03  0.45143031198E+03  0.26305419886E+03 0.  0.
         25    1    4    4    0    0  0.55584817928E+02  0.14136946243E+02 -0.21200543071E+03  0.25275153013E+03  0.12509000000E+03 0.  0.
         25    1    3    3    0    0 -0.77251657350E+02  0.34116291137E+02 -0.49995221738E+02  0.15899298784E+03  0.12509000000E+03 0.  0.
         25    1    4    4    0    0  0.21666839422E+02 -0.48253237380E+02 -0.14501008037E+03  0.19867878185E+03  0.12509000000E+03 0.  0.
<mgrwt>
<rscale>  2 0.45492732E+03</rscale>
<asrwt>0</asrwt>
<pdfrwt beam="1">  1       21 0.14956806E-01 0.45492732E+03</pdfrwt>
<pdfrwt beam="2">  1       21 0.74811327E-01 0.45492732E+03</pdfrwt>
<totfact> 0.58074564E+04</totfact>
</mgrwt>
</event>
<event>
 7    0  0.4766352E-002  0.4406525E+03  0.7546771E-02  0.1030547E+00
         21   -1    0    0  502  501  0.00000000000E+00  0.00000000000E+00  0.96223748865E+02  0.96223748865E+02  0.00000000000E+00 0. -1.
         21   -1    0    0  501  502 -0.00000000000E+00 -0.00000000000E+00 -0.50448727832E+03  0.50448727832E+03  0.00000000000E+00 0. -1.
      99926    2    1    2    0    0  0.00000000000E+00 -0.71054273576E-14 -0.40826352946E+03  0.60071102719E+03  0.44065250334E+03 0.  0.
      99925    2    3    3    0    0  0.74492627927E+02 -0.63070111688E+02 -0.28523787855E+03  0.39993799741E+03  0.26279795245E+03 0.  0.
         25    1    3    3    0    0 -0.74492627927E+02  0.63070111688E+02 -0.12302565091E+03  0.20077302978E+03  0.12509000000E+03 0.  0.
         25    1    4    4    0    0  0.60864896675E+02 -0.28549511590E+01 -0.12043853038E+03  0.18402617774E+03  0.12509000000E+03 0.  0.
         25    1    4    4    0    0  0.13627731252E+02 -0.60215160530E+02 -0.16479934817E+03  0.21591181967E+03  0.12509000000E+03 0.  0.
<mgrwt>
<rscale>  2 0.44065250E+03</rscale>
<asrwt>0</asrwt>
<pdfrwt beam="1">  1       21 0.14150551E-01 0.44065250E+03</pdfrwt>
<pdfrwt beam="2">  1       21 0.74189305E-01 0.44065250E+03</pdfrwt>
<totfact> 0.65779732E+04</totfact>
</mgrwt>
</event>
<event>
 7    0  0.4766352E-002  0.4490311E+03  0.7546771E-02  0.1028011E+00
         21   -1    0    0  502  501  0.00000000000E+00  0.00000000000E+00  0.35437428059E+03  0.35437428059E+03  0.00000000000E+00 0.  1.
         21   -1    0    0  501  502 -0.00000000000E+00 -0.00000000000E+00 -0.14224294388E+03  0.14224294388E+03  0.00000000000E+00 0.  1.
      99926    2    1    2    0    0  0.00000000000E+00  0.00000000000E+00  0.21213133671E+03  0.49661722448E+03  0.44903113882E+03 0.  0.
      99925    2    3    3    0    0  0.10361971429E+03 -0.72794751185E+01  0.16462860415E+03  0.32722403203E+03  0.26302652696E+03 0.  0.
         25    1    3    3    0    0 -0.10361971429E+03  0.72794751185E+01  0.47502732562E+02  0.16939319245E+03  0.12509000000E+03 0.  0.
         25    1    4    4    0    0  0.22845968549E+02  0.50686139834E+01  0.10975917662E+03  0.16805419982E+03  0.12509000000E+03 0.  0.
         25    1    4    4    0    0  0.80773745742E+02 -0.12348089102E+02  0.54869427534E+02  0.15916983220E+03  0.12509000000E+03 0.  0.
<mgrwt>
<rscale>  2 0.44903114E+03</rscale>
<asrwt>0</asrwt>
<pdfrwt beam="1">  1       21 0.52113865E-01 0.44903114E+03</pdfrwt>
<pdfrwt beam="2">  1       21 0.20918080E-01 0.44903114E+03</pdfrwt>
<totfact> 0.68707129E+04</totfact>
</mgrwt>
</event>
<event>
 7    0  0.4766352E-002  0.4515572E+03  0.7546771E-02  0.1027259E+00
         21   -1    0    0  502  501  0.00000000000E+00  0.00000000000E+00  0.79136483298E+02  0.79136483298E+02  0.00000000000E+00 0. -1.
         21   -1    0    0  501  502 -0.00000000000E+00 -0.00000000000E+00 -0.64415258011E+03  0.64415258011E+03  0.00000000000E+00 0. -1.
      99926    2    1    2    0    0  0.00000000000E+00  0.00000000000E+00 -0.56501609681E+03  0.72328906341E+03  0.45155717201E+03 0.  0.
      99925    2    3    3    0    0  0.92904632704E+02 -0.49183416609E+02 -0.40757935813E+03  0.49638795272E+03  0.26311553960E+03 0.  0.
         25    1    4    4    0    0  0.65504739684E+02 -0.94693097321E+01 -0.15138904247E+03  0.20723582950E+03  0.12509000000E+03 0.  0.
         25    1    3    3    0    0 -0.92904632704E+02  0.49183416609E+02 -0.15743673868E+03  0.22690111069E+03  0.12509000000E+03 0.  0.
         25    1    4    4    0    0  0.27399893021E+02 -0.39714106877E+02 -0.25619031566E+03  0.28915212322E+03  0.12509000000E+03 0.  0.
<mgrwt>
<rscale>  2 0.45155717E+03</rscale>
<asrwt>0</asrwt>
<pdfrwt beam="1">  1       21 0.11637718E-01 0.45155717E+03</pdfrwt>
<pdfrwt beam="2">  1       21 0.94728322E-01 0.45155717E+03</pdfrwt>
<totfact> 0.53079443E+04</totfact>
</mgrwt>
</event>
<event>
 7    0  0.4766352E-002  0.4562303E+03  0.7546771E-02  0.1025880E+00
         21   -1    0    0  502  501  0.00000000000E+00  0.00000000000E+00  0.17779054532E+03  0.17779054532E+03  0.00000000000E+00 0.  1.
         21   -1    0    0  501  502 -0.00000000000E+00 -0.00000000000E+00 -0.29268440488E+03  0.29268440488E+03  0.00000000000E+00 0.  1.
      99926    2    1    2    0    0  0.00000000000E+00  0.14210854715E-13 -0.11489385956E+03  0.47047495020E+03  0.45623029250E+03 0.  0.
      99925    2    3    3    0    0  0.88515085555E+02  0.72098069298E+02 -0.66383200716E+02  0.29431069705E+03  0.26301902040E+03 0.  0.
         25    1    4    4    0    0  0.17310040541E+02  0.36583917572E+02  0.96347766931E+00  0.13147797123E+03  0.12509000000E+03 0.  0.
         25    1    3    3    0    0 -0.88515085555E+02 -0.72098069298E+02 -0.48510658841E+02  0.17616425315E+03  0.12509000000E+03 0.  0.
         25    1    4    4    0    0  0.71205045014E+02  0.35514151726E+02 -0.67346678385E+02  0.16283272582E+03  0.12509000000E+03 0.  0.
<mgrwt>
<rscale>  2 0.45623029E+03</rscale>
<asrwt>0</asrwt>
<pdfrwt beam="1">  1       21 0.26145669E-01 0.45623029E+03</pdfrwt>
<pdfrwt beam="2">  1       21 0.43041824E-01 0.45623029E+03</pdfrwt>
<totfact> 0.66746609E+04</totfact>
</mgrwt>
</event>
<event>
 7    0  0.4766352E-002  0.4588621E+03  0.7546771E-02  0.1025112E+00
         21   -1    0    0  502  501  0.00000000000E+00  0.00000000000E+00  0.67665230476E+02  0.67665230476E+02  0.00000000000E+00 0. -1.
         21   -1    0    0  501  502 -0.00000000000E+00 -0.00000000000E+00 -0.77792698830E+03  0.77792698830E+03  0.00000000000E+00 0. -1.
      99926    2    1    2    0    0 -0.88817841970E-15  0.00000000000E+00 -0.71026175783E+03  0.84559221878E+03  0.45886210982E+03 0.  0.
      99925    2    3    3    0    0  0.71685607107E+01 -0.67393269877E+02 -0.27025612008E+03  0.38315767159E+03  0.26301747046E+03 0.  0.
         25    1    4    4    0    0  0.95729327375E+01 -0.70956968767E+02 -0.16937304604E+03  0.22239889676E+03  0.12509000000E+03 0.  0.
         25    1    3    3    0    0 -0.71685607107E+01  0.67393269877E+02 -0.44000563774E+03  0.46243454719E+03  0.12509000000E+03 0.  0.
         25    1    4    4    0    0 -0.24043720268E+01  0.35636988902E+01 -0.10088307405E+03  0.16075877483E+03  0.12509000000E+03 0.  0.
<mgrwt>
<rscale>  2 0.45886211E+03</rscale>
<asrwt>0</asrwt>
<pdfrwt beam="1">  1       21 0.99507691E-02 0.45886211E+03</pdfrwt>
<pdfrwt beam="2">  1       21 0.11440103E+00 0.45886211E+03</pdfrwt>
<totfact> 0.44280263E+04</totfact>
</mgrwt>
</event>
<event>
 7    0  0.4766352E-002  0.4554547E+03  0.7546771E-02  0.1026108E+00
         21   -1    0    0  502  501  0.00000000000E+00  0.00000000000E+00  0.84754870645E+02  0.84754870645E+02  0.00000000000E+00 0.  1.
         21   -1    0    0  501  502 -0.00000000000E+00 -0.00000000000E+00 -0.61187920725E+03  0.61187920725E+03  0.00000000000E+00 0.  1.
      99926    2    1    2    0    0  0.00000000000E+00  0.00000000000E+00 -0.52712433661E+03  0.69663407790E+03  0.45545468737E+03 0.  0.
      99925    2    3    3    0    0 -0.33260958140E+02 -0.34810996469E+02 -0.48885361311E+03  0.55724163481E+03  0.26310128793E+03 0.  0.
         25    1    3    3    0    0  0.33260958140E+02  0.34810996469E+02 -0.38270723502E+02  0.13939244308E+03  0.12509000000E+03 0.  0.
         25    1    4    4    0    0 -0.73144898466E+01  0.21491470180E+02 -0.25357598034E+03  0.28366119044E+03  0.12509000000E+03 0.  0.
         25    1    4    4    0    0 -0.25946468294E+02 -0.56302466649E+02 -0.23527763276E+03  0.27358044438E+03  0.12509000000E+03 0.  0.
<mgrwt>
<rscale>  2 0.45545469E+03</rscale>
<asrwt>0</asrwt>
<pdfrwt beam="1">  1       21 0.12463952E-01 0.45545469E+03</pdfrwt>
<pdfrwt beam="2">  1       21 0.89982236E-01 0.45545469E+03</pdfrwt>
<totfact> 0.52896551E+04</totfact>
</mgrwt>
</event>
<event>
 7    0  0.4766352E-002  0.4520795E+03  0.7546771E-02  0.1027104E+00
         21   -1    0    0  502  501  0.00000000000E+00  0.00000000000E+00  0.97943098156E+02  0.97943098156E+02  0.00000000000E+00 0.  1.
         21   -1    0    0  501  502 -0.00000000000E+00 -0.00000000000E+00 -0.52166986133E+03  0.52166986133E+03  0.00000000000E+00 0.  1.
      99926    2    1    2    0    0  0.35527136788E-14  0.00000000000E+00 -0.42372676317E+03  0.61961295949E+03  0.45207947281E+03 0.  0.
      99925    2    3    3    0    0 -0.20497236845E+02  0.81371079835E+02 -0.36567809690E+03  0.45818636593E+03  0.26300738776E+03 0.  0.
         25    1    3    3    0    0  0.20497236845E+02 -0.81371079835E+02 -0.58048666270E+02  0.16142659356E+03  0.12509000000E+03 0.  0.
         25    1    4    4    0    0  0.22770015613E+02  0.46200251647E+02 -0.14368954909E+03  0.19735027611E+03  0.12509000000E+03 0.  0.
         25    1    4    4    0    0 -0.43267252458E+02  0.35170828187E+02 -0.22198854782E+03  0.26083608982E+03  0.12509000000E+03 0.  0.
<mgrwt>
<rscale>  2 0.45207947E+03</rscale>
<asrwt>0</asrwt>
<pdfrwt beam="1">  1       21 0.14403397E-01 0.45207947E+03</pdfrwt>
<pdfrwt beam="2">  1       21 0.76716155E-01 0.45207947E+03</pdfrwt>
<totfact> 0.58832077E+04</totfact>
</mgrwt>
</event>
<event>
 7    0  0.4766352E-002  0.4592576E+03  0.7546771E-02  0.1024997E+00
         21   -1    0    0  502  501  0.00000000000E+00  0.00000000000E+00  0.34606770534E+03  0.34606770534E+03  0.00000000000E+00 0.  1.
         21   -1    0    0  501  502 -0.00000000000E+00 -0.00000000000E+00 -0.15236727376E+03  0.15236727376E+03  0.00000000000E+00 0.  1.
      99926    2    1    2    0    0  0.00000000000E+00  0.00000000000E+00  0.19370043158E+03  0.49843497910E+03  0.45925763052E+03 0.  0.
      99925    2    3    3    0    0  0.47408068126E+02  0.51638390880E+02  0.19572488095E+02  0.27286437565E+03  0.26297877647E+03 0.  0.
         25    1    3    3    0    0 -0.47408068126E+02 -0.51638390880E+02  0.17412794349E+03  0.22557060345E+03  0.12509000000E+03 0.  0.
         25    1    4    4    0    0 -0.15694014777E+02  0.21897563785E+02 -0.22896238101E+01  0.12797873213E+03  0.12509000000E+03 0.  0.
         25    1    4    4    0    0  0.63102082903E+02  0.29740827096E+02  0.21862111905E+02  0.14488564353E+03  0.12509000000E+03 0.  0.
<mgrwt>
<rscale>  2 0.45925763E+03</rscale>
<asrwt>0</asrwt>
<pdfrwt beam="1">  1       21 0.50892310E-01 0.45925763E+03</pdfrwt>
<pdfrwt beam="2">  1       21 0.22406952E-01 0.45925763E+03</pdfrwt>
<totfact> 0.63216908E+04</totfact>
</mgrwt>
</event>
<event>
 7    0  0.4766352E-002  0.4519442E+03  0.7546771E-02  0.1027144E+00
         21   -1    0    0  502  501  0.00000000000E+00  0.00000000000E+00  0.63126904981E+03  0.63126904981E+03  0.00000000000E+00 0.  1.
         21   -1    0    0  501  502 -0.00000000000E+00 -0.00000000000E+00 -0.80890061753E+02  0.80890061753E+02  0.00000000000E+00 0.  1.
      99926    2    1    2    0    0 -0.14210854715E-13  0.00000000000E+00  0.55037898806E+03  0.71215911156E+03  0.45194421081E+03 0.  0.
      99925    2    3    3    0    0  0.92552583623E+02  0.48251050398E+02  0.40367600233E+03  0.49292540357E+03  0.26292012861E+03 0.  0.
         25    1    4    4    0    0  0.81742526907E+02  0.63673334602E+01  0.19386111536E+03  0.24485102366E+03  0.12509000000E+03 0.  0.
         25    1    4    4    0    0  0.10810056716E+02  0.41883716938E+02  0.20981488697E+03  0.24807437991E+03  0.12509000000E+03 0.  0.
         25    1    3    3    0    0 -0.92552583623E+02 -0.48251050398E+02  0.14670298573E+03  0.21923370799E+03  0.12509000000E+03 0.  0.
<mgrwt>
<rscale>  2 0.45194421E+03</rscale>
<asrwt>0</asrwt>
<pdfrwt beam="1">  1       21 0.92833681E-01 0.45194421E+03</pdfrwt>
<pdfrwt beam="2">  1       21 0.11895598E-01 0.45194421E+03</pdfrwt>
<totfact> 0.53522935E+04</totfact>
</mgrwt>
</event>
<event>
 7    0  0.4766352E-002  0.4517220E+03  0.7546771E-02  0.1027210E+00
         21   -1    0    0  502  501  0.00000000000E+00  0.00000000000E+00  0.15983052995E+04  0.15983052995E+04  0.00000000000E+00 0. -1.
         21   -1    0    0  501  502 -0.00000000000E+00 -0.00000000000E+00 -0.31917044008E+02  0.31917044008E+02  0.00000000000E+00 0. -1.
      99926    2    1    2    0    0  0.00000000000E+00 -0.26645352591E-14  0.15663882555E+04  0.16302223435E+04  0.45172195246E+03 0.  0.
      99925    2    3    3    0    0 -0.10970264534E+03 -0.43998700710E+01  0.96491349122E+03  0.10061442800E+04  0.26308598841E+03 0.  0.
         25    1    3    3    0    0  0.10970264534E+03  0.43998700710E+01  0.60147476428E+03  0.62407806356E+03  0.12509000000E+03 0.  0.
         25    1    4    4    0    0 -0.33529184590E+02  0.31770968582E+02  0.49214761785E+03  0.50989252448E+03  0.12509000000E+03 0.  0.
         25    1    4    4    0    0 -0.76173460748E+02 -0.36170838653E+02  0.47276587337E+03  0.49625175548E+03  0.12509000000E+03 0.  0.
<mgrwt>
<rscale>  2 0.45172195E+03</rscale>
<asrwt>0</asrwt>
<pdfrwt beam="1">  1       21 0.23504484E+00 0.45172195E+03</pdfrwt>
<pdfrwt beam="2">  1       21 0.46936840E-02 0.45172195E+03</pdfrwt>
<totfact> 0.21292177E+04</totfact>
</mgrwt>
</event>
<event>
 7    0  0.4766352E-002  0.4223517E+03  0.7546771E-02  0.1036304E+00
         21   -1    0    0  502  501  0.00000000000E+00  0.00000000000E+00  0.20217248671E+03  0.20217248671E+03  0.00000000000E+00 0.  1.
         21   -1    0    0  501  502 -0.00000000000E+00 -0.00000000000E+00 -0.22058017267E+03  0.22058017267E+03  0.00000000000E+00 0.  1.
      99926    2    1    2    0    0  0.00000000000E+00  0.00000000000E+00 -0.18407685964E+02  0.42275265938E+03  0.42235171138E+03 0.  0.
      99925    2    3    3    0    0  0.10081277743E+02  0.42862860361E+02 -0.77101498101E+02  0.27773083811E+03  0.26315569625E+03 0.  0.
         25    1    4    4    0    0 -0.26838569340E+02  0.46321787380E+02 -0.33008147408E+02  0.14001093774E+03  0.12509000000E+03 0.  0.
         25    1    4    4    0    0  0.36919847083E+02 -0.34589270182E+01 -0.44093350693E+02  0.13771990038E+03  0.12509000000E+03 0.  0.
         25    1    3    3    0    0 -0.10081277743E+02 -0.42862860361E+02  0.58693812137E+02  0.14502182126E+03  0.12509000000E+03 0.  0.
<mgrwt>
<rscale>  2 0.42235171E+03</rscale>
<asrwt>0</asrwt>
<pdfrwt beam="1">  1       21 0.29731248E-01 0.42235171E+03</pdfrwt>
<pdfrwt beam="2">  1       21 0.32438261E-01 0.42235171E+03</pdfrwt>
<totfact> 0.92923944E+04</totfact>
</mgrwt>
</event>
<event>
 7    0  0.4766352E-002  0.4274453E+03  0.7546771E-02  0.1034670E+00
         21   -1    0    0  502  501  0.00000000000E+00  0.00000000000E+00  0.17092239284E+03  0.17092239284E+03  0.00000000000E+00 0.  1.
         21   -1    0    0  501  502 -0.00000000000E+00 -0.00000000000E+00 -0.26724042931E+03  0.26724042931E+03  0.00000000000E+00 0.  1.
      99926    2    1    2    0    0 -0.44408920985E-15  0.17763568394E-14 -0.96318036469E+02  0.43816282215E+03  0.42744531178E+03 0.  0.
      99925    2    3    3    0    0 -0.17307048441E+01 -0.53804608526E+01 -0.14897323376E+03  0.30232459998E+03  0.26301177669E+03 0.  0.
         25    1    4    4    0    0 -0.25208913889E+02  0.24398678076E+02 -0.94822089977E+02  0.16084004998E+03  0.12509000000E+03 0.  0.
         25    1    4    4    0    0  0.23478209045E+02 -0.29779138928E+02 -0.54151143785E+02  0.14148455000E+03  0.12509000000E+03 0.  0.
         25    1    3    3    0    0  0.17307048441E+01  0.53804608526E+01  0.52655197293E+02  0.13583822216E+03  0.12509000000E+03 0.  0.
<mgrwt>
<rscale>  2 0.42744531E+03</rscale>
<asrwt>0</asrwt>
<pdfrwt beam="1">  1       21 0.25135646E-01 0.42744531E+03</pdfrwt>
<pdfrwt beam="2">  1       21 0.39300063E-01 0.42744531E+03</pdfrwt>
<totfact> 0.87491936E+04</totfact>
</mgrwt>
</event>
<event>
 7    0  0.4766352E-002  0.4474198E+03  0.7546771E-02  0.1028494E+00
         21   -1    0    0  502  501  0.00000000000E+00  0.00000000000E+00  0.98408571515E+03  0.98408571515E+03  0.00000000000E+00 0. -1.
         21   -1    0    0  501  502 -0.00000000000E+00 -0.00000000000E+00 -0.50855449354E+02  0.50855449354E+02  0.00000000000E+00 0. -1.
      99926    2    1    2    0    0  0.00000000000E+00  0.00000000000E+00  0.93323026580E+03  0.10349411645E+04  0.44741980844E+03 0.  0.
      99925    2    3    3    0    0 -0.74972876596E+02  0.51443440645E+02  0.71676109425E+03  0.76890776408E+03  0.26306904726E+03 0.  0.
         25    1    3    3    0    0  0.74972876596E+02 -0.51443440645E+02  0.21646917155E+03  0.26603340042E+03  0.12509000000E+03 0.  0.
         25    1    4    4    0    0 -0.15334109779E+02 -0.86594780355E+01  0.29481137738E+03  0.32073568217E+03  0.12509000000E+03 0.  0.
         25    1    4    4    0    0 -0.59638766817E+02  0.60102918680E+02  0.42194971687E+03  0.44817208192E+03  0.12509000000E+03 0.  0.
<mgrwt>
<rscale>  2 0.44741981E+03</rscale>
<asrwt>0</asrwt>
<pdfrwt beam="1">  1       21 0.14471848E+00 0.44741981E+03</pdfrwt>
<pdfrwt beam="2">  1       21 0.74787432E-02 0.44741981E+03</pdfrwt>
<totfact> 0.40159131E+04</totfact>
</mgrwt>
</event>
<event>
 7    0  0.4766352E-002  0.4508651E+03  0.7546771E-02  0.1027464E+00
         21   -1    0    0  502  501  0.00000000000E+00  0.00000000000E+00  0.66297889600E+02  0.66297889600E+02  0.00000000000E+00 0. -1.
         21   -1    0    0  501  502 -0.00000000000E+00 -0.00000000000E+00 -0.76653789999E+03  0.76653789999E+03  0.00000000000E+00 0. -1.
      99926    2    1    2    0    0  0.00000000000E+00  0.35527136788E-14 -0.70024001039E+03  0.83283578959E+03  0.45086514644E+03 0.  0.
      99925    2    3    3    0    0  0.10004918242E+03  0.20051733689E+02 -0.37000962796E+03  0.46526059387E+03  0.26296080411E+03 0.  0.
         25    1    3    3    0    0 -0.10004918242E+03 -0.20051733689E+02 -0.33023038243E+03  0.36757519572E+03  0.12509000000E+03 0.  0.
         25    1    4    4    0    0  0.46462384388E+02 -0.27414410665E+02 -0.20543781055E+03  0.24650051761E+03  0.12509000000E+03 0.  0.
         25    1    4    4    0    0  0.53586798035E+02  0.47466144354E+02 -0.16457181741E+03  0.21876007627E+03  0.12509000000E+03 0.  0.
<mgrwt>
<rscale>  2 0.45086515E+03</rscale>
<asrwt>0</asrwt>
<pdfrwt beam="1">  1       21 0.97496902E-02 0.45086515E+03</pdfrwt>
<pdfrwt beam="2">  1       21 0.11272616E+00 0.45086515E+03</pdfrwt>
<totfact> 0.47747478E+04</totfact>
</mgrwt>
</event>
<event>
 7    0  0.4766352E-002  0.4559106E+03  0.7546771E-02  0.1025974E+00
         21   -1    0    0  502  501  0.00000000000E+00  0.00000000000E+00  0.30055778264E+04  0.30055778264E+04  0.00000000000E+00 0. -1.
         21   -1    0    0  501  502 -0.00000000000E+00 -0.00000000000E+00 -0.17289060746E+02  0.17289060746E+02  0.00000000000E+00 0. -1.
      99926    2    1    2    0    0  0.88817841970E-15 -0.14210854715E-13  0.29882887657E+04  0.30228668872E+04  0.45591059483E+03 0.  0.
      99925    2    3    3    0    0 -0.43608484698E+01 -0.67351728739E+02  0.24890014630E+04  0.25037420553E+04  0.26275601654E+03 0.  0.
         25    1    4    4    0    0  0.25885626728E+02 -0.43819269265E+01  0.11261305630E+04  0.11333608516E+04  0.12509000000E+03 0.  0.
         25    1    4    4    0    0 -0.30246475198E+02 -0.62969801813E+02  0.13628709001E+04  0.13703812037E+04  0.12509000000E+03 0.  0.
         25    1    3    3    0    0  0.43608484698E+01  0.67351728739E+02  0.49928730267E+03  0.51912483187E+03  0.12509000000E+03 0.  0.
<mgrwt>
<rscale>  2 0.45591059E+03</rscale>
<asrwt>0</asrwt>
<pdfrwt beam="1">  1       21 0.44199638E+00 0.45591059E+03</pdfrwt>
<pdfrwt beam="2">  1       21 0.25425110E-02 0.45591059E+03</pdfrwt>
<totfact> 0.31000718E+03</totfact>
</mgrwt>
</event>
<event>
 7    0  0.4766352E-002  0.4568559E+03  0.7546771E-02  0.1025697E+00
         21   -1    0    0  502  501  0.00000000000E+00  0.00000000000E+00  0.63801316354E+03  0.63801316354E+03  0.00000000000E+00 0.  1.
         21   -1    0    0  501  502 -0.00000000000E+00 -0.00000000000E+00 -0.81784088589E+02  0.81784088589E+02  0.00000000000E+00 0.  1.
      99926    2    1    2    0    0  0.00000000000E+00  0.00000000000E+00  0.55622907495E+03  0.71979725213E+03  0.45685588576E+03 0.  0.
      99925    2    3    3    0    0  0.33400932235E+02  0.86969404168E+02  0.24369763371E+03  0.37050838972E+03  0.26307533264E+03 0.  0.
         25    1    4    4    0    0  0.28117255739E+01  0.10804448126E+02  0.14218559032E+03  0.18970738545E+03  0.12509000000E+03 0.  0.
         25    1    4    4    0    0  0.30589206661E+02  0.76164956042E+02  0.10151204339E+03  0.18080100427E+03  0.12509000000E+03 0.  0.
         25    1    3    3    0    0 -0.33400932235E+02 -0.86969404168E+02  0.31253144124E+03  0.34928886241E+03  0.12509000000E+03 0.  0.
<mgrwt>
<rscale>  2 0.45685589E+03</rscale>
<asrwt>0</asrwt>
<pdfrwt beam="1">  1       21 0.93825463E-01 0.45685589E+03</pdfrwt>
<pdfrwt beam="2">  1       21 0.12027072E-01 0.45685589E+03</pdfrwt>
<totfact> 0.51091367E+04</totfact>
</mgrwt>
</event>
<event>
 7    0  0.4766352E-002  0.4641156E+03  0.7546771E-02  0.1023594E+00
         21   -1    0    0  502  501  0.00000000000E+00  0.00000000000E+00  0.20581386351E+03  0.20581386351E+03  0.00000000000E+00 0. -1.
         21   -1    0    0  501  502 -0.00000000000E+00 -0.00000000000E+00 -0.26164822198E+03  0.26164822198E+03  0.00000000000E+00 0. -1.
      99926    2    1    2    0    0  0.00000000000E+00  0.00000000000E+00 -0.55834358477E+02  0.46746208549E+03  0.46411563838E+03 0.  0.
      99925    2    3    3    0    0 -0.82334127215E+02  0.80708568396E+02 -0.73747406547E+02  0.29640312809E+03  0.26291320403E+03 0.  0.
         25    1    4    4    0    0 -0.35930094846E+01  0.30515736311E+02 -0.15271934476E+02  0.12971067790E+03  0.12509000000E+03 0.  0.
         25    1    4    4    0    0 -0.78741117730E+02  0.50192832085E+02 -0.58475472070E+02  0.16669245018E+03  0.12509000000E+03 0.  0.
         25    1    3    3    0    0  0.82334127215E+02 -0.80708568396E+02  0.17913048069E+02  0.17105895740E+03  0.12509000000E+03 0.  0.
<mgrwt>
<rscale>  2 0.46411564E+03</rscale>
<asrwt>0</asrwt>
<pdfrwt beam="1">  1       21 0.30266745E-01 0.46411564E+03</pdfrwt>
<pdfrwt beam="2">  1       21 0.38477679E-01 0.46411564E+03</pdfrwt>
<totfact> 0.62938685E+04</totfact>
</mgrwt>
</event>
<event>
 7    0  0.4766352E-002  0.4588023E+03  0.7546771E-02  0.1025129E+00
         21   -1    0    0  502  501  0.00000000000E+00  0.00000000000E+00  0.17227098608E+03  0.17227098608E+03  0.00000000000E+00 0.  1.
         21   -1    0    0  501  502 -0.00000000000E+00 -0.00000000000E+00 -0.30547739964E+03  0.30547739964E+03  0.00000000000E+00 0.  1.
      99926    2    1    2    0    0  0.00000000000E+00  0.00000000000E+00 -0.13320641356E+03  0.47774838572E+03  0.45880232284E+03 0.  0.
      99925    2    3    3    0    0  0.10892687430E+03  0.35003857477E+02 -0.58415656602E+02  0.29246077305E+03  0.26273671394E+03 0.  0.
         25    1    4    4    0    0  0.69337689929E+02 -0.81201403296E+01 -0.57461739607E+02  0.15434704902E+03  0.12509000000E+03 0.  0.
         25    1    4    4    0    0  0.39589184374E+02  0.43123997807E+02 -0.95391699590E+00  0.13811372402E+03  0.12509000000E+03 0.  0.
         25    1    3    3    0    0 -0.10892687430E+03 -0.35003857477E+02 -0.74790756957E+02  0.18528761267E+03  0.12509000000E+03 0.  0.
<mgrwt>
<rscale>  2 0.45880232E+03</rscale>
<asrwt>0</asrwt>
<pdfrwt beam="1">  1       21 0.25333969E-01 0.45880232E+03</pdfrwt>
<pdfrwt beam="2">  1       21 0.44923146E-01 0.45880232E+03</pdfrwt>
<totfact> 0.64884256E+04</totfact>
</mgrwt>
</event>
<event>
 7    0  0.4766352E-002  0.4955129E+03  0.7546771E-02  0.1014957E+00
         21   -1    0    0  502  501  0.00000000000E+00  0.00000000000E+00  0.57584544790E+02  0.57584544790E+02  0.00000000000E+00 0.  1.
         21   -1    0    0  501  502 -0.00000000000E+00 -0.00000000000E+00 -0.10659676871E+04  0.10659676871E+04  0.00000000000E+00 0.  1.
      99926    2    1    2    0    0  0.00000000000E+00  0.35527136788E-14 -0.10083831423E+04  0.11235522318E+04  0.49551292221E+03 0.  0.
      99925    2    3    3    0    0 -0.11744644121E+03 -0.28563279840E+02 -0.80757247610E+03  0.85787957753E+03  0.26301052806E+03 0.  0.
         25    1    4    4    0    0 -0.74460178541E+02 -0.35700420745E+02 -0.33321711590E+03  0.36537650808E+03  0.12509000000E+03 0.  0.
         25    1    4    4    0    0 -0.42986262669E+02  0.71371409050E+01 -0.47435536021E+03  0.49250306945E+03  0.12509000000E+03 0.  0.
         25    1    3    3    0    0  0.11744644121E+03  0.28563279840E+02 -0.20081066616E+03  0.26567265432E+03  0.12509000000E+03 0.  0.
<mgrwt>
<rscale>  2 0.49551292E+03</rscale>
<asrwt>0</asrwt>
<pdfrwt beam="1">  1       21 0.84683153E-02 0.49551292E+03</pdfrwt>
<pdfrwt beam="2">  1       21 0.15675996E+00 0.49551292E+03</pdfrwt>
<totfact> 0.25588865E+04</totfact>
</mgrwt>
</event>
<event>
 7    0  0.4766352E-002  0.4495449E+03  0.7546771E-02  0.1027858E+00
         21   -1    0    0  502  501  0.00000000000E+00  0.00000000000E+00  0.16676424455E+03  0.16676424455E+03  0.00000000000E+00 0.  1.
         21   -1    0    0  501  502 -0.00000000000E+00 -0.00000000000E+00 -0.30295855148E+03  0.30295855148E+03  0.00000000000E+00 0.  1.
      99926    2    1    2    0    0  0.00000000000E+00  0.00000000000E+00 -0.13619430693E+03  0.46972279603E+03  0.44954489861E+03 0.  0.
      99925    2    3    3    0    0  0.64704140517E+02 -0.83209727868E+02 -0.61812310851E+02  0.29002673582E+03  0.26302901191E+03 0.  0.
         25    1    4    4    0    0  0.45733935481E+02 -0.44789928013E+02  0.75356718706E+01  0.14071966798E+03  0.12509000000E+03 0.  0.
         25    1    4    4    0    0  0.18970205036E+02 -0.38419799856E+02 -0.69347982721E+02  0.14930706784E+03  0.12509000000E+03 0.  0.
         25    1    3    3    0    0 -0.64704140517E+02  0.83209727868E+02 -0.74381996079E+02  0.17969606020E+03  0.12509000000E+03 0.  0.
<mgrwt>
<rscale>  2 0.44954490E+03</rscale>
<asrwt>0</asrwt>
<pdfrwt beam="1">  1       21 0.24524154E-01 0.44954490E+03</pdfrwt>
<pdfrwt beam="2">  1       21 0.44552728E-01 0.44954490E+03</pdfrwt>
<totfact> 0.70456953E+04</totfact>
</mgrwt>
</event>
<event>
 7    0  0.4766352E-002  0.4592045E+03  0.7546771E-02  0.1025012E+00
         21   -1    0    0  502  501  0.00000000000E+00  0.00000000000E+00  0.10977032215E+03  0.10977032215E+03  0.00000000000E+00 0. -1.
         21   -1    0    0  501  502 -0.00000000000E+00 -0.00000000000E+00 -0.48024990348E+03  0.48024990348E+03  0.00000000000E+00 0. -1.
      99926    2    1    2    0    0 -0.88817841970E-15  0.00000000000E+00 -0.37047958133E+03  0.59002022563E+03  0.45920447131E+03 0.  0.
      99925    2    3    3    0    0 -0.64351229305E+01 -0.10538390545E+03 -0.16711406041E+03  0.32896042112E+03  0.26294613734E+03 0.  0.
         25    1    3    3    0    0  0.64351229305E+01  0.10538390545E+03 -0.20336552092E+03  0.26105980452E+03  0.12509000000E+03 0.  0.
         25    1    4    4    0    0 -0.12407974541E+02 -0.71286507839E+02 -0.12893945843E+03  0.19367141263E+03  0.12509000000E+03 0.  0.
         25    1    4    4    0    0  0.59728516107E+01 -0.34097397609E+02 -0.38174601980E+02  0.13528900848E+03  0.12509000000E+03 0.  0.
<mgrwt>
<rscale>  2 0.45920447E+03</rscale>
<asrwt>0</asrwt>
<pdfrwt beam="1">  1       21 0.16142695E-01 0.45920447E+03</pdfrwt>
<pdfrwt beam="2">  1       21 0.70624984E-01 0.45920447E+03</pdfrwt>
<totfact> 0.57366562E+04</totfact>
</mgrwt>
</event>
<event>
 7    0  0.4766352E-002  0.4537025E+03  0.7546771E-02  0.1026624E+00
         21   -1    0    0  502  501  0.00000000000E+00  0.00000000000E+00  0.93326459388E+02  0.93326459388E+02  0.00000000000E+00 0.  1.
         21   -1    0    0  501  502 -0.00000000000E+00 -0.00000000000E+00 -0.55141380563E+03  0.55141380563E+03  0.00000000000E+00 0.  1.
      99926    2    1    2    0    0  0.00000000000E+00  0.00000000000E+00 -0.45808734625E+03  0.64474026502E+03  0.45370253752E+03 0.  0.
      99925    2    3    3    0    0  0.49456822367E+02  0.89115403749E+02 -0.35463758697E+03  0.45307155798E+03  0.26290394842E+03 0.  0.
         25    1    3    3    0    0 -0.49456822367E+02 -0.89115403749E+02 -0.10344975928E+03  0.19166870704E+03  0.12509000000E+03 0.  0.
         25    1    4    4    0    0 -0.66696103244E+01  0.58826226500E+02 -0.20990969010E+03  0.25142512747E+03  0.12509000000E+03 0.  0.
         25    1    4    4    0    0  0.56126432691E+02  0.30289177249E+02 -0.14472789687E+03  0.20164643051E+03  0.12509000000E+03 0.  0.
<mgrwt>
<rscale>  2 0.45370254E+03</rscale>
<asrwt>0</asrwt>
<pdfrwt beam="1">  1       21 0.13724479E-01 0.45370254E+03</pdfrwt>
<pdfrwt beam="2">  1       21 0.81090266E-01 0.45370254E+03</pdfrwt>
<totfact> 0.56582553E+04</totfact>
</mgrwt>
</event>
<event>
 7    0  0.4766352E-002  0.4730355E+03  0.7546771E-02  0.1021067E+00
         21   -1    0    0  502  501  0.00000000000E+00  0.00000000000E+00  0.14932279227E+03  0.14932279227E+03  0.00000000000E+00 0.  1.
         21   -1    0    0  501  502 -0.00000000000E+00 -0.00000000000E+00 -0.37462898513E+03  0.37462898513E+03  0.00000000000E+00 0.  1.
      99926    2    1    2    0    0  0.00000000000E+00  0.00000000000E+00 -0.22530619286E+03  0.52395177741E+03  0.47303550026E+03 0.  0.
      99925    2    3    3    0    0  0.11898706302E+03 -0.43132518396E+02 -0.11096308909E+03  0.31243301042E+03  0.26321710345E+03 0.  0.
         25    1    4    4    0    0  0.75227698544E+02 -0.44780940986E+01 -0.20699796745E+02  0.14749660891E+03  0.12509000000E+03 0.  0.
         25    1    4    4    0    0  0.43759364473E+02 -0.38654424297E+02 -0.90263292345E+02  0.16493640151E+03  0.12509000000E+03 0.  0.
         25    1    3    3    0    0 -0.11898706302E+03  0.43132518396E+02 -0.11434310377E+03  0.21151876699E+03  0.12509000000E+03 0.  0.
<mgrwt>
<rscale>  2 0.47303550E+03</rscale>
<asrwt>0</asrwt>
<pdfrwt beam="1">  1       21 0.21959235E-01 0.47303550E+03</pdfrwt>
<pdfrwt beam="2">  1       21 0.55092497E-01 0.47303550E+03</pdfrwt>
<totfact> 0.55274190E+04</totfact>
</mgrwt>
</event>
<event>
 7    0  0.4766352E-002  0.4540010E+03  0.7546771E-02  0.1026536E+00
         21   -1    0    0  502  501  0.00000000000E+00  0.00000000000E+00  0.20325638283E+03  0.20325638283E+03  0.00000000000E+00 0. -1.
         21   -1    0    0  501  502 -0.00000000000E+00 -0.00000000000E+00 -0.25351842622E+03  0.25351842622E+03  0.00000000000E+00 0. -1.
      99926    2    1    2    0    0  0.00000000000E+00  0.00000000000E+00 -0.50262043394E+02  0.45677480905E+03  0.45400104975E+03 0.  0.
      99925    2    3    3    0    0  0.10399617666E+03  0.73260428623E+01 -0.73079388544E+02  0.29234544730E+03  0.26316608418E+03 0.  0.
         25    1    4    4    0    0  0.57519116503E+02 -0.36669256455E+02 -0.33465826963E+02  0.14635761957E+03  0.12509000000E+03 0.  0.
         25    1    4    4    0    0  0.46477060161E+02  0.43995299318E+02 -0.39613561582E+02  0.14598782773E+03  0.12509000000E+03 0.  0.
         25    1    3    3    0    0 -0.10399617666E+03 -0.73260428623E+01  0.22817345150E+02  0.16442936175E+03  0.12509000000E+03 0.  0.
<mgrwt>
<rscale>  2 0.45400105E+03</rscale>
<asrwt>0</asrwt>
<pdfrwt beam="1">  1       21 0.29890645E-01 0.45400105E+03</pdfrwt>
<pdfrwt beam="2">  1       21 0.37282121E-01 0.45400105E+03</pdfrwt>
<totfact> 0.68963922E+04</totfact>
</mgrwt>
</event>
<event>
 7    0  0.4766352E-002  0.4590575E+03  0.7546771E-02  0.1025055E+00
         21   -1    0    0  502  501  0.00000000000E+00  0.00000000000E+00  0.41425796180E+02  0.41425796180E+02  0.00000000000E+00 0. -1.
         21   -1    0    0  501  502 -0.00000000000E+00 -0.00000000000E+00 -0.12717546083E+04  0.12717546083E+04  0.00000000000E+00 0. -1.
      99926    2    1    2    0    0 -0.71054273576E-14  0.00000000000E+00 -0.12303288122E+04  0.13131804045E+04  0.45905750052E+03 0.  0.
      99925    2    3    3    0    0 -0.38221180056E+02 -0.38844300203E+02 -0.10674590574E+04  0.11007096927E+04  0.26291300868E+03 0.  0.
         25    1    4    4    0    0 -0.32995128224E+01 -0.56666518799E+02 -0.55625696947E+03  0.57296710666E+03  0.12509000000E+03 0.  0.
         25    1    4    4    0    0 -0.34921667234E+02  0.17822218596E+02 -0.51120208791E+03  0.52774258602E+03  0.12509000000E+03 0.  0.
         25    1    3    3    0    0  0.38221180056E+02  0.38844300203E+02 -0.16286975477E+03  0.21247071183E+03  0.12509000000E+03 0.  0.
<mgrwt>
<rscale>  2 0.45905750E+03</rscale>
<asrwt>0</asrwt>
<pdfrwt beam="1">  1       21 0.60920292E-02 0.45905750E+03</pdfrwt>
<pdfrwt beam="2">  1       21 0.18702273E+00 0.45905750E+03</pdfrwt>
<totfact> 0.27845281E+04</totfact>
</mgrwt>
</event>
<event>
 7    0  0.4766352E-002  0.4513369E+03  0.7546771E-02  0.1027324E+00
         21   -1    0    0  502  501  0.00000000000E+00  0.00000000000E+00  0.71742442568E+03  0.71742442568E+03  0.00000000000E+00 0. -1.
         21   -1    0    0  501  502 -0.00000000000E+00 -0.00000000000E+00 -0.70984832435E+02  0.70984832435E+02  0.00000000000E+00 0. -1.
      99926    2    1    2    0    0  0.00000000000E+00  0.35527136788E-14  0.64643959325E+03  0.78840925811E+03  0.45133691469E+03 0.  0.
      99925    2    3    3    0    0  0.10276555418E+03 -0.30058566136E+02  0.45172845819E+03  0.53341080569E+03  0.26268652642E+03 0.  0.
         25    1    4    4    0    0  0.45586600312E+02 -0.51999905547E+02  0.20174223245E+03  0.24724393776E+03  0.12509000000E+03 0.  0.
         25    1    3    3    0    0 -0.10276555418E+03  0.30058566136E+02  0.19471113506E+03  0.25499845243E+03  0.12509000000E+03 0.  0.
         25    1    4    4    0    0  0.57178953872E+02  0.21941339412E+02  0.24998622573E+03  0.28616686792E+03  0.12509000000E+03 0.  0.
<mgrwt>
<rscale>  2 0.45133691E+03</rscale>
<asrwt>0</asrwt>
<pdfrwt beam="1">  1       21 0.10550359E+00 0.45133691E+03</pdfrwt>
<pdfrwt beam="2">  1       21 0.10438946E-01 0.45133691E+03</pdfrwt>
<totfact> 0.49745414E+04</totfact>
</mgrwt>
</event>
<event>
 7    0  0.4766352E-002  0.4610932E+03  0.7546771E-02  0.1024465E+00
         21   -1    0    0  502  501  0.00000000000E+00  0.00000000000E+00  0.36406673344E+03  0.36406673344E+03  0.00000000000E+00 0.  1.
         21   -1    0    0  501  502 -0.00000000000E+00 -0.00000000000E+00 -0.14599445889E+03  0.14599445889E+03  0.00000000000E+00 0.  1.
      99926    2    1    2    0    0  0.00000000000E+00  0.14210854715E-13  0.21807227455E+03  0.51006119233E+03  0.46109316086E+03 0.  0.
      99925    2    3    3    0    0 -0.30581425070E+02 -0.11453900348E+03  0.14415819948E+03  0.32253731260E+03  0.26304814135E+03 0.  0.
         25    1    4    4    0    0 -0.34294050557E+02 -0.91912776033E+02  0.10052000272E+03  0.18808460689E+03  0.12509000000E+03 0.  0.
         25    1    4    4    0    0  0.37126254875E+01 -0.22626227443E+02  0.43638196757E+02  0.13445270571E+03  0.12509000000E+03 0.  0.
         25    1    3    3    0    0  0.30581425070E+02  0.11453900348E+03  0.73914075073E+02  0.18752387973E+03  0.12509000000E+03 0.  0.
<mgrwt>
<rscale>  2 0.46109316E+03</rscale>
<asrwt>0</asrwt>
<pdfrwt beam="1">  1       21 0.53539225E-01 0.46109316E+03</pdfrwt>
<pdfrwt beam="2">  1       21 0.21469773E-01 0.46109316E+03</pdfrwt>
<totfact> 0.61539058E+04</totfact>
</mgrwt>
</event>
<event>
 7    0  0.4766352E-002  0.4562266E+03  0.7546771E-02  0.1025881E+00
         21   -1    0    0  502  501  0.00000000000E+00  0.00000000000E+00  0.53441137877E+02  0.53441137877E+02  0.00000000000E+00 0.  1.
         21   -1    0    0  501  502 -0.00000000000E+00 -0.00000000000E+00 -0.97370079464E+03  0.97370079464E+03  0.00000000000E+00 0.  1.
      99926    2    1    2    0    0 -0.71054273576E-14  0.71054273576E-14 -0.92025965677E+03  0.10271419325E+04  0.45622660342E+03 0.  0.
      99925    2    3    3    0    0 -0.52335654099E+02 -0.42806983216E+02 -0.37058419953E+03  0.45937254722E+03  0.26290498225E+03 0.  0.
         25    1    4    4    0    0  0.40670672476E+01  0.72859823338E+01 -0.17367004830E+03  0.21419248435E+03  0.12509000000E+03 0.  0.
         25    1    4    4    0    0 -0.56402721347E+02 -0.50092965550E+02 -0.19691415124E+03  0.24518006287E+03  0.12509000000E+03 0.  0.
         25    1    3    3    0    0  0.52335654099E+02  0.42806983216E+02 -0.54967545724E+03  0.56776938530E+03  0.12509000000E+03 0.  0.
<mgrwt>
<rscale>  2 0.45622660E+03</rscale>
<asrwt>0</asrwt>
<pdfrwt beam="1">  1       21 0.78589919E-02 0.45622660E+03</pdfrwt>
<pdfrwt beam="2">  1       21 0.14319128E+00 0.45622660E+03</pdfrwt>
<totfact> 0.37764526E+04</totfact>
</mgrwt>
</event>
<event>
 7    0  0.4766352E-002  0.4663145E+03  0.7546771E-02  0.1022966E+00
         21   -1    0    0  502  501  0.00000000000E+00  0.00000000000E+00  0.55341631680E+02  0.55341631680E+02  0.00000000000E+00 0. -1.
         21   -1    0    0  501  502 -0.00000000000E+00 -0.00000000000E+00 -0.98230405680E+03  0.98230405680E+03  0.00000000000E+00 0. -1.
      99926    2    1    2    0    0  0.00000000000E+00  0.00000000000E+00 -0.92696242512E+03  0.10376456885E+04  0.46631452609E+03 0.  0.
      99925    2    3    3    0    0  0.44910018249E+02  0.32685490974E+02 -0.82295996917E+03  0.86574667742E+03  0.26299990029E+03 0.  0.
         25    1    3    3    0    0 -0.44910018249E+02 -0.32685490974E+02 -0.10400245595E+03  0.17189901106E+03  0.12509000000E+03 0.  0.
         25    1    4    4    0    0  0.24990657716E+02 -0.23605232369E+02 -0.42328960111E+03  0.44272263831E+03  0.12509000000E+03 0.  0.
         25    1    4    4    0    0  0.19919360533E+02  0.56290723344E+02 -0.39967036806E+03  0.42302403911E+03  0.12509000000E+03 0.  0.
<mgrwt>
<rscale>  2 0.46631453E+03</rscale>
<asrwt>0</asrwt>
<pdfrwt beam="1">  1       21 0.81384753E-02 0.46631453E+03</pdfrwt>
<pdfrwt beam="2">  1       21 0.14445648E+00 0.46631453E+03</pdfrwt>
<totfact> 0.34577458E+04</totfact>
</mgrwt>
</event>
<event>
 7    0  0.4766352E-002  0.4546174E+03  0.7546771E-02  0.1026354E+00
         21   -1    0    0  502  501  0.00000000000E+00  0.00000000000E+00  0.23154545830E+02  0.23154545830E+02  0.00000000000E+00 0. -1.
         21   -1    0    0  501  502 -0.00000000000E+00 -0.00000000000E+00 -0.22314947065E+04  0.22314947065E+04  0.00000000000E+00 0. -1.
      99926    2    1    2    0    0  0.00000000000E+00  0.00000000000E+00 -0.22083401607E+04  0.22546492523E+04  0.45461740596E+03 0.  0.
      99925    2    3    3    0    0  0.73009857882E+02 -0.50687231526E+02 -0.17348813437E+04  0.17569441245E+04  0.26294437655E+03 0.  0.
         25    1    4    4    0    0  0.28337288586E+02 -0.14293388887E+02 -0.10837603888E+04  0.10914171482E+04  0.12509000000E+03 0.  0.
         25    1    3    3    0    0 -0.73009857882E+02  0.50687231526E+02 -0.47345881697E+03  0.49770512781E+03  0.12509000000E+03 0.  0.
         25    1    4    4    0    0  0.44672569296E+02 -0.36393842639E+02 -0.65112095487E+03  0.66552697631E+03  0.12509000000E+03 0.  0.
<mgrwt>
<rscale>  2 0.45461741E+03</rscale>
<asrwt>0</asrwt>
<pdfrwt beam="1">  1       21 0.34050794E-02 0.45461741E+03</pdfrwt>
<pdfrwt beam="2">  1       21 0.32816107E+00 0.45461741E+03</pdfrwt>
<totfact> 0.10009555E+04</totfact>
</mgrwt>
</event>
<event>
 7    0  0.4766352E-002  0.4700186E+03  0.7546771E-02  0.1021915E+00
         21   -1    0    0  502  501  0.00000000000E+00  0.00000000000E+00  0.14713153090E+03  0.14713153090E+03  0.00000000000E+00 0.  1.
         21   -1    0    0  501  502 -0.00000000000E+00 -0.00000000000E+00 -0.37537421419E+03  0.37537421419E+03  0.00000000000E+00 0.  1.
      99926    2    1    2    0    0  0.14210854715E-13  0.00000000000E+00 -0.22824268329E+03  0.52250574509E+03  0.47001864982E+03 0.  0.
      99925    2    3    3    0    0  0.97421221536E+02 -0.74623501675E+02 -0.10619899815E+03  0.30896012797E+03  0.26290411191E+03 0.  0.
         25    1    3    3    0    0 -0.97421221536E+02  0.74623501675E+02 -0.12204368515E+03  0.21354561712E+03  0.12509000000E+03 0.  0.
         25    1    4    4    0    0  0.87054588838E+02 -0.23541602762E+02 -0.64720942328E+02  0.16723940018E+03  0.12509000000E+03 0.  0.
         25    1    4    4    0    0  0.10366632699E+02 -0.51081898913E+02 -0.41478055818E+02  0.14172072779E+03  0.12509000000E+03 0.  0.
<mgrwt>
<rscale>  2 0.47001865E+03</rscale>
<asrwt>0</asrwt>
<pdfrwt beam="1">  1       21 0.21636990E-01 0.47001865E+03</pdfrwt>
<pdfrwt beam="2">  1       21 0.55202089E-01 0.47001865E+03</pdfrwt>
<totfact> 0.56657398E+04</totfact>
</mgrwt>
</event>
<event>
 7    0  0.4766352E-002  0.4545826E+03  0.7546771E-02  0.1026364E+00
         21   -1    0    0  502  501  0.00000000000E+00  0.00000000000E+00  0.61094025606E+03  0.61094025606E+03  0.00000000000E+00 0. -1.
         21   -1    0    0  501  502 -0.00000000000E+00 -0.00000000000E+00 -0.84560370632E+02  0.84560370632E+02  0.00000000000E+00 0. -1.
      99926    2    1    2    0    0  0.00000000000E+00  0.71054273576E-14  0.52637988543E+03  0.69550062669E+03  0.45458259749E+03 0.  0.
      99925    2    3    3    0    0  0.89049162873E+02 -0.58367880295E+02  0.38836040223E+03  0.48094655728E+03  0.26296240431E+03 0.  0.
         25    1    4    4    0    0  0.50938314832E+02 -0.43381619840E+02  0.26484932993E+03  0.30044858548E+03  0.12509000000E+03 0.  0.
         25    1    4    4    0    0  0.38110848041E+02 -0.14986260455E+02  0.12351107230E+03  0.18049797180E+03  0.12509000000E+03 0.  0.
         25    1    3    3    0    0 -0.89049162873E+02  0.58367880295E+02  0.13801948320E+03  0.21455406941E+03  0.12509000000E+03 0.  0.
<mgrwt>
<rscale>  2 0.45458260E+03</rscale>
<asrwt>0</asrwt>
<pdfrwt beam="1">  1       21 0.89844153E-01 0.45458260E+03</pdfrwt>
<pdfrwt beam="2">  1       21 0.12435349E-01 0.45458260E+03</pdfrwt>
<totfact> 0.53322916E+04</totfact>
</mgrwt>
</event>
<event>
 7    0  0.4766352E-002  0.4529287E+03  0.7546771E-02  0.1026852E+00
         21   -1    0    0  502  501  0.00000000000E+00  0.00000000000E+00  0.15004504137E+03  0.15004504137E+03  0.00000000000E+00 0. -1.
         21   -1    0    0  501  502 -0.00000000000E+00 -0.00000000000E+00 -0.34180464232E+03  0.34180464232E+03  0.00000000000E+00 0. -1.
      99926    2    1    2    0    0  0.00000000000E+00 -0.71054273576E-14 -0.19175960095E+03  0.49184968369E+03  0.45292865530E+03 0.  0.
      99925    2    3    3    0    0 -0.65822046164E+02  0.54675015872E+02 -0.44545064067E+02  0.28056426750E+03  0.26345805424E+03 0.  0.
         25    1    4    4    0    0 -0.23871379919E+02  0.23852489439E+02  0.18939879746E+02  0.13093895973E+03  0.12509000000E+03 0.  0.
         25    1    3    3    0    0  0.65822046164E+02 -0.54675015872E+02 -0.14721453689E+03  0.21128541619E+03  0.12509000000E+03 0.  0.
         25    1    4    4    0    0 -0.41950666245E+02  0.30822526433E+02 -0.63484943813E+02  0.14962530777E+03  0.12509000000E+03 0.  0.
<mgrwt>
<rscale>  2 0.45292866E+03</rscale>
<asrwt>0</asrwt>
<pdfrwt beam="1">  1       21 0.22065447E-01 0.45292866E+03</pdfrwt>
<pdfrwt beam="2">  1       21 0.50265388E-01 0.45292866E+03</pdfrwt>
<totfact> 0.66941123E+04</totfact>
</mgrwt>
</event>
<event>
 7    0  0.4766352E-002  0.4572956E+03  0.7546771E-02  0.1025568E+00
         21   -1    0    0  502  501  0.00000000000E+00  0.00000000000E+00  0.97129627511E+03  0.97129627511E+03  0.00000000000E+00 0. -1.
         21   -1    0    0  501  502 -0.00000000000E+00 -0.00000000000E+00 -0.53824798429E+02  0.53824798429E+02  0.00000000000E+00 0. -1.
      99926    2    1    2    0    0  0.00000000000E+00 -0.71054273576E-14  0.91747147668E+03  0.10251210735E+04  0.45729564276E+03 0.  0.
      99925    2    3    3    0    0 -0.81225348363E+02  0.54701059318E+02  0.44004724529E+03  0.52195989864E+03  0.26307944540E+03 0.  0.
         25    1    4    4    0    0 -0.20818969743E+02  0.24373179434E+02  0.27703090211E+03  0.30564867119E+03  0.12509000000E+03 0.  0.
         25    1    4    4    0    0 -0.60406378620E+02  0.30327879884E+02  0.16301634318E+03  0.21631122745E+03  0.12509000000E+03 0.  0.
         25    1    3    3    0    0  0.81225348363E+02 -0.54701059318E+02  0.47742423139E+03  0.50316117490E+03  0.12509000000E+03 0.  0.
<mgrwt>
<rscale>  2 0.45729564E+03</rscale>
<asrwt>0</asrwt>
<pdfrwt beam="1">  1       21 0.14283768E+00 0.45729564E+03</pdfrwt>
<pdfrwt beam="2">  1       21 0.79154121E-02 0.45729564E+03</pdfrwt>
<totfact> 0.37526612E+04</totfact>
</mgrwt>
</event>
<event>
 7    0  0.4766352E-002  0.4500063E+03  0.7546771E-02  0.1027720E+00
         21   -1    0    0  502  501  0.00000000000E+00  0.00000000000E+00  0.19679372748E+03  0.19679372748E+03  0.00000000000E+00 0. -1.
         21   -1    0    0  501  502 -0.00000000000E+00 -0.00000000000E+00 -0.25725623794E+03  0.25725623794E+03  0.00000000000E+00 0. -1.
      99926    2    1    2    0    0  0.00000000000E+00  0.71054273576E-14 -0.60462510451E+02  0.45404996542E+03  0.45000628432E+03 0.  0.
      99925    2    3    3    0    0 -0.75958111546E+02 -0.55154170938E+02  0.16555369073E+02  0.27972016548E+03  0.26297846575E+03 0.  0.
         25    1    4    4    0    0 -0.51232210015E+02  0.61181906825E+01  0.26573656113E+02  0.13789792928E+03  0.12509000000E+03 0.  0.
         25    1    4    4    0    0 -0.24725901531E+02 -0.61272361621E+02 -0.10018287040E+02  0.14182223620E+03  0.12509000000E+03 0.  0.
         25    1    3    3    0    0  0.75958111546E+02  0.55154170938E+02 -0.77017879525E+02  0.17432979994E+03  0.12509000000E+03 0.  0.
<mgrwt>
<rscale>  2 0.45000628E+03</rscale>
<asrwt>0</asrwt>
<pdfrwt beam="1">  1       21 0.28940254E-01 0.45000628E+03</pdfrwt>
<pdfrwt beam="2">  1       21 0.37831800E-01 0.45000628E+03</pdfrwt>
<totfact> 0.71418443E+04</totfact>
</mgrwt>
</event>
<event>
 7    0  0.4766352E-002  0.4526988E+03  0.7546771E-02  0.1026920E+00
         21   -1    0    0  502  501  0.00000000000E+00  0.00000000000E+00  0.25887620002E+03  0.25887620002E+03  0.00000000000E+00 0.  1.
         21   -1    0    0  501  502 -0.00000000000E+00 -0.00000000000E+00 -0.19790949152E+03  0.19790949152E+03  0.00000000000E+00 0.  1.
      99926    2    1    2    0    0  0.00000000000E+00  0.00000000000E+00  0.60966708507E+02  0.45678569154E+03  0.45269882754E+03 0.  0.
      99925    2    3    3    0    0  0.26150955174E+02  0.96359487733E+02  0.87354085952E+02  0.29457340742E+03  0.26300899736E+03 0.  0.
         25    1    3    3    0    0 -0.26150955174E+02 -0.96359487733E+02 -0.26387377445E+02  0.16221228413E+03  0.12509000000E+03 0.  0.
         25    1    4    4    0    0  0.30737271616E+02  0.26891083801E+02  0.73556518660E+02  0.15075138405E+03  0.12509000000E+03 0.  0.
         25    1    4    4    0    0 -0.45863164428E+01  0.69468403932E+02  0.13797567292E+02  0.14382202337E+03  0.12509000000E+03 0.  0.
<mgrwt>
<rscale>  2 0.45269883E+03</rscale>
<asrwt>0</asrwt>
<pdfrwt beam="1">  1       21 0.38070029E-01 0.45269883E+03</pdfrwt>
<pdfrwt beam="2">  1       21 0.29104337E-01 0.45269883E+03</pdfrwt>
<totfact> 0.69685526E+04</totfact>
</mgrwt>
</event>
<event>
 7    0  0.4766352E-002  0.4594321E+03  0.7546771E-02  0.1024946E+00
         21   -1    0    0  502  501  0.00000000000E+00  0.00000000000E+00  0.42608224821E+03  0.42608224821E+03  0.00000000000E+00 0. -1.
         21   -1    0    0  501  502 -0.00000000000E+00 -0.00000000000E+00 -0.12384805052E+03  0.12384805052E+03  0.00000000000E+00 0. -1.
      99926    2    1    2    0    0  0.17763568394E-14 -0.19428902931E-15  0.30223419769E+03  0.54993029873E+03  0.45943206594E+03 0.  0.
      99925    2    3    3    0    0 -0.13292664552E+02 -0.42126107745E-01  0.32944746744E+03  0.42122611521E+03  0.26214329979E+03 0.  0.
         25    1    4    4    0    0 -0.40850119493E+02 -0.12808345815E+02  0.18970107087E+03  0.23122887012E+03  0.12509000000E+03 0.  0.
         25    1    4    4    0    0  0.27557454941E+02  0.12766219708E+02  0.13974639657E+03  0.18999724509E+03  0.12509000000E+03 0.  0.
         25    1    3    3    0    0  0.13292664552E+02  0.42126107745E-01 -0.27213269756E+02  0.12870418352E+03  0.12509000000E+03 0.  0.
<mgrwt>
<rscale>  2 0.45943207E+03</rscale>
<asrwt>0</asrwt>
<pdfrwt beam="1">  1       21 0.62659154E-01 0.45943207E+03</pdfrwt>
<pdfrwt beam="2">  1       21 0.18212949E-01 0.45943207E+03</pdfrwt>
<totfact> 0.59748229E+04</totfact>
</mgrwt>
</event>
<event>
 7    0  0.4766352E-002  0.4535257E+03  0.7546771E-02  0.1026676E+00
         21   -1    0    0  502  501  0.00000000000E+00  0.00000000000E+00  0.20675768774E+03  0.20675768774E+03  0.00000000000E+00 0.  1.
         21   -1    0    0  501  502 -0.00000000000E+00 -0.00000000000E+00 -0.24870368208E+03  0.24870368208E+03  0.00000000000E+00 0.  1.
      99926    2    1    2    0    0 -0.35527136788E-14 -0.14210854715E-13 -0.41945994342E+02  0.45546136981E+03  0.45352573571E+03 0.  0.
      99925    2    3    3    0    0  0.28608873721E+02  0.10529667713E+03 -0.50719716741E+02  0.28923759241E+03  0.26302098267E+03 0.  0.
         25    1    3    3    0    0 -0.28608873721E+02 -0.10529667713E+03  0.87737223998E+01  0.16622377741E+03  0.12509000000E+03 0.  0.
         25    1    4    4    0    0  0.45787616586E+02  0.41762843634E+02 -0.16341460865E+01  0.13960952501E+03  0.12509000000E+03 0.  0.
         25    1    4    4    0    0 -0.17178742865E+02  0.63533833498E+02 -0.49085570655E+02  0.14962806739E+03  0.12509000000E+03 0.  0.
<mgrwt>
<rscale>  2 0.45352574E+03</rscale>
<asrwt>0</asrwt>
<pdfrwt beam="1">  1       21 0.30405543E-01 0.45352574E+03</pdfrwt>
<pdfrwt beam="2">  1       21 0.36574070E-01 0.45352574E+03</pdfrwt>
<totfact> 0.69323866E+04</totfact>
</mgrwt>
</event>
<event>
 7    0  0.4766352E-002  0.4544759E+03  0.7546771E-02  0.1026396E+00
         21   -1    0    0  502  501  0.00000000000E+00  0.00000000000E+00  0.10835015789E+04  0.10835015789E+04  0.00000000000E+00 0.  1.
         21   -1    0    0  501  502 -0.00000000000E+00 -0.00000000000E+00 -0.47657607581E+02  0.47657607581E+02  0.00000000000E+00 0.  1.
      99926    2    1    2    0    0  0.55511151231E-15  0.71054273576E-14  0.10358439714E+04  0.11311591865E+04  0.45447593143E+03 0.  0.
      99925    2    3    3    0    0 -0.71416634202E+00 -0.62523152262E+02  0.41684455252E+03  0.49655896337E+03  0.26249146374E+03 0.  0.
         25    1    4    4    0    0 -0.81872321000E+01  0.84457412192E+01  0.20329775865E+03  0.23898922170E+03  0.12509000000E+03 0.  0.
         25    1    4    4    0    0  0.74730657580E+01 -0.70968893481E+02  0.21354679387E+03  0.25756974167E+03  0.12509000000E+03 0.  0.
         25    1    3    3    0    0  0.71416634202E+00  0.62523152262E+02  0.61899941884E+03  0.63460022315E+03  0.12509000000E+03 0.  0.
<mgrwt>
<rscale>  2 0.45447593E+03</rscale>
<asrwt>0</asrwt>
<pdfrwt beam="1">  1       21 0.15933845E+00 0.45447593E+03</pdfrwt>
<pdfrwt beam="2">  1       21 0.70084724E-02 0.45447593E+03</pdfrwt>
<totfact> 0.34558654E+04</totfact>
</mgrwt>
</event>
<event>
 7    0  0.4766352E-002  0.4528046E+03  0.7546771E-02  0.1026889E+00
         21   -1    0    0  502  501  0.00000000000E+00  0.00000000000E+00  0.93528108969E+03  0.93528108969E+03  0.00000000000E+00 0.  1.
         21   -1    0    0  501  502 -0.00000000000E+00 -0.00000000000E+00 -0.54804912498E+02  0.54804912498E+02  0.00000000000E+00 0.  1.
      99926    2    1    2    0    0  0.00000000000E+00  0.26645352591E-14  0.88047617719E+03  0.99008600218E+03  0.45280458602E+03 0.  0.
      99925    2    3    3    0    0 -0.98730268660E+02 -0.58733833857E+01  0.44464074008E+03  0.52599312471E+03  0.26302322506E+03 0.  0.
         25    1    3    3    0    0  0.98730268660E+02  0.58733833857E+01  0.43583543711E+03  0.46409287748E+03  0.12509000000E+03 0.  0.
         25    1    4    4    0    0 -0.59193369287E+02 -0.39066395357E+02  0.25936738359E+03  0.29656194291E+03  0.12509000000E+03 0.  0.
         25    1    4    4    0    0 -0.39536899373E+02  0.33193011971E+02  0.18527335649E+03  0.22943118179E+03  0.12509000000E+03 0.  0.
<mgrwt>
<rscale>  2 0.45280459E+03</rscale>
<asrwt>0</asrwt>
<pdfrwt beam="1">  1       21 0.13754133E+00 0.45280459E+03</pdfrwt>
<pdfrwt beam="2">  1       21 0.80595465E-02 0.45280459E+03</pdfrwt>
<totfact> 0.40240200E+04</totfact>
</mgrwt>
</event>
<event>
 7    0  0.4766352E-002  0.4556892E+03  0.7546771E-02  0.1026039E+00
         21   -1    0    0  502  501  0.00000000000E+00  0.00000000000E+00  0.12734270446E+03  0.12734270446E+03  0.00000000000E+00 0. -1.
         21   -1    0    0  501  502 -0.00000000000E+00 -0.00000000000E+00 -0.40766497625E+03  0.40766497625E+03  0.00000000000E+00 0. -1.
      99926    2    1    2    0    0  0.00000000000E+00  0.00000000000E+00 -0.28032227179E+03  0.53500768071E+03  0.45568919491E+03 0.  0.
      99925    2    3    3    0    0 -0.62286200548E+02  0.95216838111E+02 -0.18014947585E+03  0.33846782677E+03  0.26298444645E+03 0.  0.
         25    1    4    4    0    0 -0.25608195123E+02  0.72297026422E+02 -0.13277996807E+03  0.19789054476E+03  0.12509000000E+03 0.  0.
         25    1    3    3    0    0  0.62286200548E+02 -0.95216838111E+02 -0.10017279593E+03  0.19653985393E+03  0.12509000000E+03 0.  0.
         25    1    4    4    0    0 -0.36678005424E+02  0.22919811689E+02 -0.47369507789E+02  0.14057728201E+03  0.12509000000E+03 0.  0.
<mgrwt>
<rscale>  2 0.45568919E+03</rscale>
<asrwt>0</asrwt>
<pdfrwt beam="1">  1       21 0.18726868E-01 0.45568919E+03</pdfrwt>
<pdfrwt beam="2">  1       21 0.59950731E-01 0.45568919E+03</pdfrwt>
<totfact> 0.62526441E+04</totfact>
</mgrwt>
</event>
<event>
 7    0  0.4766352E-002  0.4609145E+03  0.7546771E-02  0.1024516E+00
         21   -1    0    0  502  501  0.00000000000E+00  0.00000000000E+00  0.10716393325E+03  0.10716393325E+03  0.00000000000E+00 0.  1.
         21   -1    0    0  501  502 -0.00000000000E+00 -0.00000000000E+00 -0.49560085984E+03  0.49560085984E+03  0.00000000000E+00 0.  1.
      99926    2    1    2    0    0  0.00000000000E+00  0.00000000000E+00 -0.38843692659E+03  0.60276479309E+03  0.46091447130E+03 0.  0.
      99925    2    3    3    0    0 -0.26593287230E+02  0.76836993382E+02 -0.35617962855E+03  0.45012414367E+03  0.26293856781E+03 0.  0.
         25    1    3    3    0    0  0.26593287230E+02 -0.76836993382E+02 -0.32257298033E+02  0.15264064942E+03  0.12509000000E+03 0.  0.
         25    1    4    4    0    0  0.98364875920E+01  0.69366072531E+02 -0.20861096047E+03  0.25312931366E+03  0.12509000000E+03 0.  0.
         25    1    4    4    0    0 -0.36429774822E+02  0.74709208509E+01 -0.14756866808E+03  0.19699483001E+03  0.12509000000E+03 0.  0.
<mgrwt>
<rscale>  2 0.46091447E+03</rscale>
<asrwt>0</asrwt>
<pdfrwt beam="1">  1       21 0.15759402E-01 0.46091447E+03</pdfrwt>
<pdfrwt beam="2">  1       21 0.72882479E-01 0.46091447E+03</pdfrwt>
<totfact> 0.55852347E+04</totfact>
</mgrwt>
</event>
<event>
 7    0  0.4766352E-002  0.4558280E+03  0.7546771E-02  0.1025998E+00
         21   -1    0    0  502  501  0.00000000000E+00  0.00000000000E+00  0.33054318608E+03  0.33054318608E+03  0.00000000000E+00 0.  1.
         21   -1    0    0  501  502 -0.00000000000E+00 -0.00000000000E+00 -0.15714982133E+03  0.15714982133E+03  0.00000000000E+00 0.  1.
      99926    2    1    2    0    0  0.00000000000E+00 -0.35527136788E-14  0.17339336475E+03  0.48769300740E+03  0.45582804930E+03 0.  0.
      99925    2    3    3    0    0 -0.89158031541E+02  0.17658023435E+02  0.18234986694E+03  0.33281018908E+03  0.26315430379E+03 0.  0.
         25    1    4    4    0    0 -0.36413742797E+01 -0.25854307713E+01  0.90586799719E+02  0.15451025999E+03  0.12509000000E+03 0.  0.
         25    1    3    3    0    0  0.89158031541E+02 -0.17658023435E+02 -0.89565021942E+01  0.15488281832E+03  0.12509000000E+03 0.  0.
         25    1    4    4    0    0 -0.85516657261E+02  0.20243454206E+02  0.91763067224E+02  0.17829992909E+03  0.12509000000E+03 0.  0.
<mgrwt>
<rscale>  2 0.45582805E+03</rscale>
<asrwt>0</asrwt>
<pdfrwt beam="1">  1       21 0.48609292E-01 0.45582805E+03</pdfrwt>
<pdfrwt beam="2">  1       21 0.23110268E-01 0.45582805E+03</pdfrwt>
<totfact> 0.65711210E+04</totfact>
</mgrwt>
</event>
<event>
 7    0  0.4766352E-002  0.4384232E+03  0.7546771E-02  0.1031232E+00
         21   -1    0    0  502  501  0.00000000000E+00  0.00000000000E+00  0.10754096935E+03  0.10754096935E+03  0.00000000000E+00 0. -1.
         21   -1    0    0  501  502 -0.00000000000E+00 -0.00000000000E+00 -0.44684115939E+03  0.44684115939E+03  0.00000000000E+00 0. -1.
      99926    2    1    2    0    0 -0.71054273576E-14  0.88817841970E-15 -0.33930019004E+03  0.55438212873E+03  0.43842322668E+03 0.  0.
      99925    2    3    3    0    0  0.32847182946E+02  0.20871642017E+01 -0.10243763406E+03  0.28450313324E+03  0.26337287307E+03 0.  0.
         25    1    4    4    0    0 -0.71075660452E+01 -0.87816434712E+01 -0.84839608778E+02  0.15156814334E+03  0.12509000000E+03 0.  0.
         25    1    4    4    0    0  0.39954748991E+02  0.10868807673E+02 -0.17598025284E+02  0.13293498991E+03  0.12509000000E+03 0.  0.
         25    1    3    3    0    0 -0.32847182946E+02 -0.20871642017E+01 -0.23686255598E+03  0.26987899549E+03  0.12509000000E+03 0.  0.
<mgrwt>
<rscale>  2 0.43842323E+03</rscale>
<asrwt>0</asrwt>
<pdfrwt beam="1">  1       21 0.15814848E-01 0.43842323E+03</pdfrwt>
<pdfrwt beam="2">  1       21 0.65711936E-01 0.43842323E+03</pdfrwt>
<totfact> 0.70360638E+04</totfact>
</mgrwt>
</event>
<event>
 7    0  0.4766352E-002  0.4488665E+03  0.7546771E-02  0.1028061E+00
         21   -1    0    0  502  501  0.00000000000E+00  0.00000000000E+00  0.20565979363E+04  0.20565979363E+04  0.00000000000E+00 0.  1.
         21   -1    0    0  501  502 -0.00000000000E+00 -0.00000000000E+00 -0.24492037226E+02  0.24492037226E+02  0.00000000000E+00 0.  1.
      99926    2    1    2    0    0 -0.71054273576E-14  0.00000000000E+00  0.20321058991E+04  0.20810899736E+04  0.44886645326E+03 0.  0.
      99925    2    3    3    0    0  0.45699195222E+02 -0.18378811070E+02  0.84402877384E+03  0.88543075756E+03  0.26301493914E+03 0.  0.
         25    1    3    3    0    0 -0.45699195222E+02  0.18378811070E+02  0.11880771253E+04  0.11956592160E+04  0.12509000000E+03 0.  0.
         25    1    4    4    0    0  0.40324143476E+02 -0.11997614596E+02  0.55332368478E+03  0.56884495914E+03  0.12509000000E+03 0.  0.
         25    1    4    4    0    0  0.53750517457E+01 -0.63811964737E+01  0.29070508906E+03  0.31658579841E+03  0.12509000000E+03 0.  0.
<mgrwt>
<rscale>  2 0.44886645E+03</rscale>
<asrwt>0</asrwt>
<pdfrwt beam="1">  1       21 0.30244076E+00 0.44886645E+03</pdfrwt>
<pdfrwt beam="2">  1       21 0.36017716E-02 0.44886645E+03</pdfrwt>
<totfact> 0.13040868E+04</totfact>
</mgrwt>
</event>
<event>
 7    0  0.4766352E-002  0.4559035E+03  0.7546771E-02  0.1025976E+00
         21   -1    0    0  502  501  0.00000000000E+00  0.00000000000E+00  0.70349955778E+03  0.70349955778E+03  0.00000000000E+00 0.  1.
         21   -1    0    0  501  502 -0.00000000000E+00 -0.00000000000E+00 -0.73862177550E+02  0.73862177550E+02  0.00000000000E+00 0.  1.
      99926    2    1    2    0    0  0.00000000000E+00 -0.71054273576E-14  0.62963738023E+03  0.77736173533E+03  0.45590353911E+03 0.  0.
      99925    2    3    3    0    0  0.53574676269E+02  0.62260013736E+02  0.26100986109E+03  0.37951715360E+03  0.26298396727E+03 0.  0.
         25    1    3    3    0    0 -0.53574676269E+02 -0.62260013736E+02  0.36862751914E+03  0.39784458173E+03  0.12509000000E+03 0.  0.
         25    1    4    4    0    0  0.31668379113E+02  0.69097609037E+02  0.11697873413E+03  0.18737368585E+03  0.12509000000E+03 0.  0.
         25    1    4    4    0    0  0.21906297155E+02 -0.68375953008E+01  0.14403112696E+03  0.19214346775E+03  0.12509000000E+03 0.  0.
<mgrwt>
<rscale>  2 0.45590354E+03</rscale>
<asrwt>0</asrwt>
<pdfrwt beam="1">  1       21 0.10345581E+00 0.45590354E+03</pdfrwt>
<pdfrwt beam="2">  1       21 0.10862085E-01 0.45590354E+03</pdfrwt>
<totfact> 0.48534187E+04</totfact>
</mgrwt>
</event>
<event>
 7    0  0.4766352E-002  0.4513174E+03  0.7546771E-02  0.1027330E+00
         21   -1    0    0  502  501  0.00000000000E+00  0.00000000000E+00  0.36111628891E+03  0.36111628891E+03  0.00000000000E+00 0. -1.
         21   -1    0    0  501  502 -0.00000000000E+00 -0.00000000000E+00 -0.14101230345E+03  0.14101230345E+03  0.00000000000E+00 0. -1.
      99926    2    1    2    0    0  0.14210854715E-13 -0.71054273576E-14  0.22010398546E+03  0.50212859236E+03  0.45131735935E+03 0.  0.
      99925    2    3    3    0    0  0.88787009441E+02 -0.63086403877E+02  0.12349052433E+03  0.31017886880E+03  0.26286497229E+03 0.  0.
         25    1    4    4    0    0  0.51847807317E+02 -0.36953505523E+01  0.91114418954E+02  0.16325194082E+03  0.12509000000E+03 0.  0.
         25    1    3    3    0    0 -0.88787009441E+02  0.63086403877E+02  0.96613461136E+02  0.19194972355E+03  0.12509000000E+03 0.  0.
         25    1    4    4    0    0  0.36939202124E+02 -0.59391053324E+02  0.32376105372E+02  0.14692692799E+03  0.12509000000E+03 0.  0.
<mgrwt>
<rscale>  2 0.45131736E+03</rscale>
<asrwt>0</asrwt>
<pdfrwt beam="1">  1       21 0.53105336E-01 0.45131736E+03</pdfrwt>
<pdfrwt beam="2">  1       21 0.20737104E-01 0.45131736E+03</pdfrwt>
<totfact> 0.67060261E+04</totfact>
</mgrwt>
</event>
<event>
 7    0  0.4766352E-002  0.4564046E+03  0.7546771E-02  0.1025829E+00
         21   -1    0    0  502  501  0.00000000000E+00  0.00000000000E+00  0.80315979792E+02  0.80315979792E+02  0.00000000000E+00 0.  1.
         21   -1    0    0  501  502 -0.00000000000E+00 -0.00000000000E+00 -0.64839254049E+03  0.64839254049E+03  0.00000000000E+00 0.  1.
      99926    2    1    2    0    0  0.00000000000E+00  0.00000000000E+00 -0.56807656070E+03  0.72870852028E+03  0.45640456693E+03 0.  0.
      99925    2    3    3    0    0 -0.61945389014E+02  0.95825271958E+02 -0.36850683174E+03  0.46699245508E+03  0.26318235902E+03 0.  0.
         25    1    3    3    0    0  0.61945389014E+02 -0.95825271958E+02 -0.19956972896E+03  0.26171606520E+03  0.12509000000E+03 0.  0.
         25    1    4    4    0    0 -0.39850885264E+02  0.26393681423E+02 -0.12216291025E+03  0.18126225260E+03  0.12509000000E+03 0.  0.
         25    1    4    4    0    0 -0.22094503749E+02  0.69431590535E+02 -0.24634392148E+03  0.28573020248E+03  0.12509000000E+03 0.  0.
<mgrwt>
<rscale>  2 0.45640457E+03</rscale>
<asrwt>0</asrwt>
<pdfrwt beam="1">  1       21 0.11811174E-01 0.45640457E+03</pdfrwt>
<pdfrwt beam="2">  1       21 0.95351840E-01 0.45640457E+03</pdfrwt>
<totfact> 0.50808353E+04</totfact>
</mgrwt>
</event>
<event>
 7    0  0.4766352E-002  0.4603052E+03  0.7546771E-02  0.1024693E+00
         21   -1    0    0  502  501  0.00000000000E+00  0.00000000000E+00  0.10915227299E+03  0.10915227299E+03  0.00000000000E+00 0. -1.
         21   -1    0    0  501  502 -0.00000000000E+00 -0.00000000000E+00 -0.48528742005E+03  0.48528742005E+03  0.00000000000E+00 0. -1.
      99926    2    1    2    0    0  0.00000000000E+00  0.14210854715E-13 -0.37613514706E+03  0.59443969305E+03  0.46030522462E+03 0.  0.
      99925    2    3    3    0    0 -0.43560697357E+01  0.84687340278E+02 -0.12964348416E+03  0.30530898051E+03  0.26308785539E+03 0.  0.
         25    1    4    4    0    0 -0.21752311093E+01  0.13613290841E+02 -0.93982292432E+02  0.15706760554E+03  0.12509000000E+03 0.  0.
         25    1    3    3    0    0  0.43560697357E+01 -0.84687340278E+02 -0.24649166291E+03  0.28913071253E+03  0.12509000000E+03 0.  0.
         25    1    4    4    0    0 -0.21808386265E+01  0.71074049437E+02 -0.35661191724E+02  0.14824137498E+03  0.12509000000E+03 0.  0.
<mgrwt>
<rscale>  2 0.46030522E+03</rscale>
<asrwt>0</asrwt>
<pdfrwt beam="1">  1       21 0.16051805E-01 0.46030522E+03</pdfrwt>
<pdfrwt beam="2">  1       21 0.71365795E-01 0.46030522E+03</pdfrwt>
<totfact> 0.56610789E+04</totfact>
</mgrwt>
</event>
<event>
 7    0  0.4766352E-002  0.4535143E+03  0.7546771E-02  0.1026679E+00
         21   -1    0    0  502  501  0.00000000000E+00  0.00000000000E+00  0.24714135931E+03  0.24714135931E+03  0.00000000000E+00 0. -1.
         21   -1    0    0  501  502 -0.00000000000E+00 -0.00000000000E+00 -0.20805419493E+03  0.20805419493E+03  0.00000000000E+00 0. -1.
      99926    2    1    2    0    0 -0.17763568394E-14  0.00000000000E+00  0.39087164380E+02  0.45519555424E+03  0.45351426238E+03 0.  0.
      99925    2    3    3    0    0 -0.12036231694E+02 -0.44913253385E+02 -0.77434999558E+02  0.27803180515E+03  0.26295139155E+03 0.  0.
         25    1    3    3    0    0  0.12036231694E+02  0.44913253385E+02  0.11652216394E+03  0.17716374909E+03  0.12509000000E+03 0.  0.
         25    1    4    4    0    0  0.16955906621E+02 -0.49323339842E+02 -0.18881345580E+02  0.13683679305E+03  0.12509000000E+03 0.  0.
         25    1    4    4    0    0 -0.28992138315E+02  0.44100864576E+01 -0.58553653978E+02  0.14119501210E+03  0.12509000000E+03 0.  0.
<mgrwt>
<rscale>  2 0.45351426E+03</rscale>
<asrwt>0</asrwt>
<pdfrwt beam="1">  1       21 0.36344318E-01 0.45351426E+03</pdfrwt>
<pdfrwt beam="2">  1       21 0.30596205E-01 0.45351426E+03</pdfrwt>
<totfact> 0.69349943E+04</totfact>
</mgrwt>
</event>
<event>
 7    0  0.4766352E-002  0.4536319E+03  0.7546771E-02  0.1026644E+00
         21   -1    0    0  502  501  0.00000000000E+00  0.00000000000E+00  0.61362020170E+03  0.61362020170E+03  0.00000000000E+00 0.  1.
         21   -1    0    0  501  502 -0.00000000000E+00 -0.00000000000E+00 -0.83839285332E+02  0.83839285332E+02  0.00000000000E+00 0.  1.
      99926    2    1    2    0    0 -0.71054273576E-14  0.00000000000E+00  0.52978091637E+03  0.69745948703E+03  0.45363191764E+03 0.  0.
      99925    2    3    3    0    0 -0.43863899133E+02  0.77320941026E+02  0.22963857449E+03  0.36036083225E+03  0.26310356318E+03 0.  0.
         25    1    4    4    0    0 -0.47292868742E+02  0.49863415228E+02  0.80917929499E+02  0.16406765381E+03  0.12509000000E+03 0.  0.
         25    1    4    4    0    0  0.34289696096E+01  0.27457525798E+02  0.14872064499E+03  0.19629317844E+03  0.12509000000E+03 0.  0.
         25    1    3    3    0    0  0.43863899133E+02 -0.77320941026E+02  0.30014234188E+03  0.33709865478E+03  0.12509000000E+03 0.  0.
<mgrwt>
<rscale>  2 0.45363192E+03</rscale>
<asrwt>0</asrwt>
<pdfrwt beam="1">  1       21 0.90238263E-01 0.45363192E+03</pdfrwt>
<pdfrwt beam="2">  1       21 0.12329307E-01 0.45363192E+03</pdfrwt>
<totfact> 0.53616088E+04</totfact>
</mgrwt>
</event>
<event>
 7    0  0.4766352E-002  0.4497186E+03  0.7546771E-02  0.1027806E+00
         21   -1    0    0  502  501  0.00000000000E+00  0.00000000000E+00  0.13465972338E+04  0.13465972338E+04  0.00000000000E+00 0. -1.
         21   -1    0    0  501  502 -0.00000000000E+00 -0.00000000000E+00 -0.37547755523E+02  0.37547755523E+02  0.00000000000E+00 0. -1.
      99926    2    1    2    0    0  0.00000000000E+00  0.00000000000E+00  0.13090494783E+04  0.13841449893E+04  0.44971859523E+03 0.  0.
      99925    2    3    3    0    0  0.52459304585E+02 -0.39297523634E+02  0.10924852363E+04  0.11256032074E+04  0.26298729048E+03 0.  0.
         25    1    4    4    0    0 -0.13030364896E+02 -0.74712244764E+01  0.53512825973E+03  0.54975937652E+03  0.12509000000E+03 0.  0.
         25    1    4    4    0    0  0.65489669481E+02 -0.31826299158E+02  0.55735697659E+03  0.57584383090E+03  0.12509000000E+03 0.  0.
         25    1    3    3    0    0 -0.52459304585E+02  0.39297523634E+02  0.21656424197E+03  0.25854178192E+03  0.12509000000E+03 0.  0.
<mgrwt>
<rscale>  2 0.44971860E+03</rscale>
<asrwt>0</asrwt>
<pdfrwt beam="1">  1       21 0.19802897E+00 0.44971860E+03</pdfrwt>
<pdfrwt beam="2">  1       21 0.55217296E-02 0.44971860E+03</pdfrwt>
<totfact> 0.27884717E+04</totfact>
</mgrwt>
</event>
<event>
 7    0  0.4766352E-002  0.4481390E+03  0.7546771E-02  0.1028278E+00
         21   -1    0    0  502  501  0.00000000000E+00  0.00000000000E+00  0.13695171455E+03  0.13695171455E+03  0.00000000000E+00 0.  1.
         21   -1    0    0  501  502 -0.00000000000E+00 -0.00000000000E+00 -0.36660472710E+03  0.36660472710E+03  0.00000000000E+00 0.  1.
      99926    2    1    2    0    0 -0.14210854715E-13 -0.71054273576E-14 -0.22965301255E+03  0.50355644166E+03  0.44813902281E+03 0.  0.
      99925    2    3    3    0    0  0.10084632892E+03  0.32432452198E+02 -0.13032875478E+03  0.31189355455E+03  0.26281202225E+03 0.  0.
         25    1    3    3    0    0 -0.10084632892E+03 -0.32432452198E+02 -0.99324257772E+02  0.19166288711E+03  0.12509000000E+03 0.  0.
         25    1    4    4    0    0  0.10522885759E+02  0.24461168929E+02 -0.46242094903E+02  0.13599602697E+03  0.12509000000E+03 0.  0.
         25    1    4    4    0    0  0.90323443159E+02  0.79712832683E+01 -0.84086659876E+02  0.17589752758E+03  0.12509000000E+03 0.  0.
<mgrwt>
<rscale>  2 0.44813902E+03</rscale>
<asrwt>0</asrwt>
<pdfrwt beam="1">  1       21 0.20139958E-01 0.44813902E+03</pdfrwt>
<pdfrwt beam="2">  1       21 0.53912459E-01 0.44813902E+03</pdfrwt>
<totfact> 0.68686267E+04</totfact>
</mgrwt>
</event>
<event>
 7    0  0.4766352E-002  0.4580411E+03  0.7546771E-02  0.1025351E+00
         21   -1    0    0  502  501  0.00000000000E+00  0.00000000000E+00  0.34717670721E+02  0.34717670721E+02  0.00000000000E+00 0. -1.
         21   -1    0    0  501  502 -0.00000000000E+00 -0.00000000000E+00 -0.15107698664E+04  0.15107698664E+04  0.00000000000E+00 0. -1.
      99926    2    1    2    0    0  0.00000000000E+00  0.00000000000E+00 -0.14760521957E+04  0.15454875371E+04  0.45804109316E+03 0.  0.
      99925    2    3    3    0    0 -0.95186887651E+02  0.62086095476E+02 -0.10039102003E+04  0.10440089247E+04  0.26306599499E+03 0.  0.
         25    1    4    4    0    0 -0.36069703571E+02  0.56256116984E+02 -0.39914196235E+03  0.42358893803E+03  0.12509000000E+03 0.  0.
         25    1    3    3    0    0  0.95186887651E+02 -0.62086095476E+02 -0.47214199535E+03  0.50147861241E+03  0.12509000000E+03 0.  0.
         25    1    4    4    0    0 -0.59117184081E+02  0.58299784916E+01 -0.60476823796E+03  0.62041998666E+03  0.12509000000E+03 0.  0.
<mgrwt>
<rscale>  2 0.45804109E+03</rscale>
<asrwt>0</asrwt>
<pdfrwt beam="1">  1       21 0.51055404E-02 0.45804109E+03</pdfrwt>
<pdfrwt beam="2">  1       21 0.22217201E+00 0.45804109E+03</pdfrwt>
<totfact> 0.22158043E+04</totfact>
</mgrwt>
</event>
<event>
 7    0  0.4766352E-002  0.4547646E+03  0.7546771E-02  0.1026311E+00
         21   -1    0    0  502  501  0.00000000000E+00  0.00000000000E+00  0.19997166374E+03  0.19997166374E+03  0.00000000000E+00 0. -1.
         21   -1    0    0  501  502 -0.00000000000E+00 -0.00000000000E+00 -0.25855018304E+03  0.25855018304E+03  0.00000000000E+00 0. -1.
      99926    2    1    2    0    0  0.00000000000E+00  0.35527136788E-14 -0.58578519293E+02  0.45852184678E+03  0.45476459960E+03 0.  0.
      99925    2    3    3    0    0  0.56376843696E+02  0.89871821129E+01 -0.13516281096E+03  0.30113131409E+03  0.26296761191E+03 0.  0.
         25    1    4    4    0    0  0.19612771637E+02  0.35603709416E+02 -0.94604707496E+02  0.16201803516E+03  0.12509000000E+03 0.  0.
         25    1    4    4    0    0  0.36764072059E+02 -0.26616527303E+02 -0.40558103468E+02  0.13911327894E+03  0.12509000000E+03 0.  0.
         25    1    3    3    0    0 -0.56376843696E+02 -0.89871821129E+01  0.76584291671E+02  0.15739053268E+03  0.12509000000E+03 0.  0.
<mgrwt>
<rscale>  2 0.45476460E+03</rscale>
<asrwt>0</asrwt>
<pdfrwt beam="1">  1       21 0.29407598E-01 0.45476460E+03</pdfrwt>
<pdfrwt beam="2">  1       21 0.38022086E-01 0.45476460E+03</pdfrwt>
<totfact> 0.68416756E+04</totfact>
</mgrwt>
</event>
<event>
 7    0  0.4766352E-002  0.4532766E+03  0.7546771E-02  0.1026749E+00
         21   -1    0    0  502  501  0.00000000000E+00  0.00000000000E+00  0.11764217887E+03  0.11764217887E+03  0.00000000000E+00 0.  1.
         21   -1    0    0  501  502 -0.00000000000E+00 -0.00000000000E+00 -0.43661990976E+03  0.43661990976E+03  0.00000000000E+00 0.  1.
      99926    2    1    2    0    0  0.00000000000E+00 -0.14210854715E-13 -0.31897773090E+03  0.55426208863E+03  0.45327659336E+03 0.  0.
      99925    2    3    3    0    0  0.41500237599E+02 -0.97571139217E+02 -0.15988009374E+03  0.32578459919E+03  0.26330887522E+03 0.  0.
         25    1    4    4    0    0  0.24694063233E+02 -0.60760661612E+01 -0.79665348954E+02  0.15046857234E+03  0.12509000000E+03 0.  0.
         25    1    4    4    0    0  0.16806174365E+02 -0.91495073056E+02 -0.80214744782E+02  0.17531602685E+03  0.12509000000E+03 0.  0.
         25    1    3    3    0    0 -0.41500237599E+02  0.97571139217E+02 -0.15909763716E+03  0.22847748944E+03  0.12509000000E+03 0.  0.
<mgrwt>
<rscale>  2 0.45327659E+03</rscale>
<asrwt>0</asrwt>
<pdfrwt beam="1">  1       21 0.17300320E-01 0.45327659E+03</pdfrwt>
<pdfrwt beam="2">  1       21 0.64208810E-01 0.45327659E+03</pdfrwt>
<totfact> 0.62432601E+04</totfact>
</mgrwt>
</event>
<event>
 7    0  0.4766352E-002  0.4534852E+03  0.7546771E-02  0.1026688E+00
         21   -1    0    0  502  501  0.00000000000E+00  0.00000000000E+00  0.24044158989E+02  0.24044158989E+02  0.00000000000E+00 0.  1.
         21   -1    0    0  501  502 -0.00000000000E+00 -0.00000000000E+00 -0.21382414695E+04  0.21382414695E+04  0.00000000000E+00 0.  1.
      99926    2    1    2    0    0  0.00000000000E+00  0.17763568394E-14 -0.21141973105E+04  0.21622856285E+04  0.45348524938E+03 0.  0.
      99925    2    3    3    0    0 -0.62503044825E+02  0.84629618428E+01 -0.17724566891E+04  0.17929451179E+04  0.26281405736E+03 0.  0.
         25    1    3    3    0    0  0.62503044825E+02 -0.84629618428E+01 -0.34174062139E+03  0.36934051056E+03  0.12509000000E+03 0.  0.
         25    1    4    4    0    0  0.36894307843E+01  0.18192491114E+02 -0.94367333315E+03  0.95210894673E+03  0.12509000000E+03 0.  0.
         25    1    4    4    0    0 -0.66192475610E+02 -0.97295292710E+01 -0.82878335598E+03  0.84083617121E+03  0.12509000000E+03 0.  0.
<mgrwt>
<rscale>  2 0.45348525E+03</rscale>
<asrwt>0</asrwt>
<pdfrwt beam="1">  1       21 0.35359055E-02 0.45348525E+03</pdfrwt>
<pdfrwt beam="2">  1       21 0.31444729E+00 0.45348525E+03</pdfrwt>
<totfact> 0.11369739E+04</totfact>
</mgrwt>
</event>
<event>
 7    0  0.4766352E-002  0.4513313E+03  0.7546771E-02  0.1027326E+00
         21   -1    0    0  502  501  0.00000000000E+00  0.00000000000E+00  0.28268330404E+02  0.28268330404E+02  0.00000000000E+00 0.  1.
         21   -1    0    0  501  502 -0.00000000000E+00 -0.00000000000E+00 -0.18014856153E+04  0.18014856153E+04  0.00000000000E+00 0.  1.
      99926    2    1    2    0    0  0.00000000000E+00  0.35527136788E-14 -0.17732172849E+04  0.18297539457E+04  0.45133132217E+03 0.  0.
      99925    2    3    3    0    0 -0.38724217020E+02  0.23469801934E+02 -0.15245646732E+04  0.15477503536E+04  0.26302721826E+03 0.  0.
         25    1    4    4    0    0 -0.19355698821E+01  0.20950055734E+02 -0.54640387039E+03  0.56093435351E+03  0.12509000000E+03 0.  0.
         25    1    3    3    0    0  0.38724217020E+02 -0.23469801934E+02 -0.24865261169E+03  0.28200359215E+03  0.12509000000E+03 0.  0.
         25    1    4    4    0    0 -0.36788647138E+02  0.25197461992E+01 -0.97816080286E+03  0.98681600009E+03  0.12509000000E+03 0.  0.
<mgrwt>
<rscale>  2 0.45133132E+03</rscale>
<asrwt>0</asrwt>
<pdfrwt beam="1">  1       21 0.41571061E-02 0.45133132E+03</pdfrwt>
<pdfrwt beam="2">  1       21 0.26492444E+00 0.45133132E+03</pdfrwt>
<totfact> 0.17178606E+04</totfact>
</mgrwt>
</event>
<event>
 7    0  0.4766352E-002  0.4555620E+03  0.7546771E-02  0.1026076E+00
         21   -1    0    0  502  501  0.00000000000E+00  0.00000000000E+00  0.10282504956E+03  0.10282504956E+03  0.00000000000E+00 0.  1.
         21   -1    0    0  501  502 -0.00000000000E+00 -0.00000000000E+00 -0.50458699284E+03  0.50458699284E+03  0.00000000000E+00 0.  1.
      99926    2    1    2    0    0  0.00000000000E+00  0.00000000000E+00 -0.40176194329E+03  0.60741204240E+03  0.45556199378E+03 0.  0.
      99925    2    3    3    0    0  0.10026045563E+02 -0.93257208934E+02 -0.33828664959E+03  0.43866948814E+03  0.26305062997E+03 0.  0.
         25    1    3    3    0    0 -0.10026045563E+02  0.93257208934E+02 -0.63475293699E+02  0.16874255426E+03  0.12509000000E+03 0.  0.
         25    1    4    4    0    0  0.11404074076E+02 -0.40849193588E+02 -0.10464621405E+03  0.16851423601E+03  0.12509000000E+03 0.  0.
         25    1    4    4    0    0 -0.13780285129E+01 -0.52408015346E+02 -0.23364043554E+03  0.27015525213E+03  0.12509000000E+03 0.  0.
<mgrwt>
<rscale>  2 0.45556199E+03</rscale>
<asrwt>0</asrwt>
<pdfrwt beam="1">  1       21 0.15121331E-01 0.45556199E+03</pdfrwt>
<pdfrwt beam="2">  1       21 0.74203970E-01 0.45556199E+03</pdfrwt>
<totfact> 0.57966571E+04</totfact>
</mgrwt>
</event>
<event>
 7    0  0.4766352E-002  0.4582521E+03  0.7546771E-02  0.1025289E+00
         21   -1    0    0  502  501  0.00000000000E+00  0.00000000000E+00  0.90593932552E+02  0.90593932552E+02  0.00000000000E+00 0. -1.
         21   -1    0    0  501  502 -0.00000000000E+00 -0.00000000000E+00 -0.57949518539E+03  0.57949518539E+03  0.00000000000E+00 0. -1.
      99926    2    1    2    0    0  0.00000000000E+00  0.14210854715E-13 -0.48890125284E+03  0.67008911795E+03  0.45825210415E+03 0.  0.
      99925    2    3    3    0    0 -0.20959513478E+02  0.96446063392E+02 -0.39646715693E+03  0.48588077249E+03  0.26296915066E+03 0.  0.
         25    1    4    4    0    0 -0.37003790139E+02  0.79664087469E+02 -0.19797315102E+03  0.25011302233E+03  0.12509000000E+03 0.  0.
         25    1    4    4    0    0  0.16044276661E+02  0.16781975924E+02 -0.19849400591E+03  0.23576775016E+03  0.12509000000E+03 0.  0.
         25    1    3    3    0    0  0.20959513478E+02 -0.96446063392E+02 -0.92434095910E+02  0.18420834546E+03  0.12509000000E+03 0.  0.
<mgrwt>
<rscale>  2 0.45825210E+03</rscale>
<asrwt>0</asrwt>
<pdfrwt beam="1">  1       21 0.13322637E-01 0.45825210E+03</pdfrwt>
<pdfrwt beam="2">  1       21 0.85219881E-01 0.45825210E+03</pdfrwt>
<totfact> 0.53180716E+04</totfact>
</mgrwt>
</event>
<event>
 7    0  0.4766352E-002  0.4567498E+03  0.7546771E-02  0.1025728E+00
         21   -1    0    0  502  501  0.00000000000E+00  0.00000000000E+00  0.11395464606E+04  0.11395464606E+04  0.00000000000E+00 0.  1.
         21   -1    0    0  501  502 -0.00000000000E+00 -0.00000000000E+00 -0.45768282987E+02  0.45768282987E+02  0.00000000000E+00 0.  1.
      99926    2    1    2    0    0 -0.35527136788E-14  0.00000000000E+00  0.10937781776E+04  0.11853147436E+04  0.45674975593E+03 0.  0.
      99925    2    3    3    0    0 -0.29628521630E+02  0.49745285970E+02  0.42990349327E+03  0.50728115491E+03  0.26299185125E+03 0.  0.
         25    1    4    4    0    0 -0.32960702278E+02  0.22189749971E+01  0.15797865777E+03  0.20419621973E+03  0.12509000000E+03 0.  0.
         25    1    3    3    0    0  0.29628521630E+02 -0.49745285970E+02  0.66387468437E+03  0.67803358871E+03  0.12509000000E+03 0.  0.
         25    1    4    4    0    0  0.33321806481E+01  0.47526310972E+02  0.27192483551E+03  0.30308493517E+03  0.12509000000E+03 0.  0.
<mgrwt>
<rscale>  2 0.45674976E+03</rscale>
<asrwt>0</asrwt>
<pdfrwt beam="1">  1       21 0.16758034E+00 0.45674976E+03</pdfrwt>
<pdfrwt beam="2">  1       21 0.67306305E-02 0.45674976E+03</pdfrwt>
<totfact> 0.32183901E+04</totfact>
</mgrwt>
</event>
<event>
 7    0  0.4766352E-002  0.4444813E+03  0.7546771E-02  0.1029381E+00
         21   -1    0    0  502  501  0.00000000000E+00  0.00000000000E+00  0.20914313623E+02  0.20914313623E+02  0.00000000000E+00 0. -1.
         21   -1    0    0  501  502 -0.00000000000E+00 -0.00000000000E+00 -0.23615838177E+04  0.23615838177E+04  0.00000000000E+00 0. -1.
      99926    2    1    2    0    0  0.00000000000E+00 -0.35527136788E-14 -0.23406695041E+04  0.23824981314E+04  0.44448129144E+03 0.  0.
      99925    2    3    3    0    0 -0.18511825702E+02  0.26776421138E+02 -0.20111141641E+04  0.20285011051E+04  0.26301499507E+03 0.  0.
         25    1    4    4    0    0  0.12378422301E+01 -0.40881685040E+01 -0.12558428873E+04  0.12620646224E+04  0.12509000000E+03 0.  0.
         25    1    3    3    0    0  0.18511825702E+02 -0.26776421138E+02 -0.32955534000E+03  0.35399702631E+03  0.12509000000E+03 0.  0.
         25    1    4    4    0    0 -0.19749667932E+02  0.30864589642E+02 -0.75527127686E+03  0.76643648271E+03  0.12509000000E+03 0.  0.
<mgrwt>
<rscale>  2 0.44448129E+03</rscale>
<asrwt>0</asrwt>
<pdfrwt beam="1">  1       21 0.30756344E-02 0.44448129E+03</pdfrwt>
<pdfrwt beam="2">  1       21 0.34729174E+00 0.44448129E+03</pdfrwt>
<totfact> 0.91340892E+03</totfact>
</mgrwt>
</event>
<event>
 7    0  0.4766352E-002  0.4610561E+03  0.7546771E-02  0.1024475E+00
         21   -1    0    0  502  501  0.00000000000E+00  0.00000000000E+00  0.20991405425E+03  0.20991405425E+03  0.00000000000E+00 0.  1.
         21   -1    0    0  501  502 -0.00000000000E+00 -0.00000000000E+00 -0.25316636529E+03  0.25316636529E+03  0.00000000000E+00 0.  1.
      99926    2    1    2    0    0  0.00000000000E+00  0.00000000000E+00 -0.43252311046E+02  0.46308041954E+03  0.46105608395E+03 0.  0.
      99925    2    3    3    0    0  0.40768549429E+02  0.10211317987E+03  0.15198180505E+02  0.28657788645E+03  0.26420962167E+03 0.  0.
         25    1    4    4    0    0  0.37888305047E+02  0.11642665548E+02  0.15839683422E+02  0.13217215664E+03  0.12509000000E+03 0.  0.
         25    1    3    3    0    0 -0.40768549429E+02 -0.10211317987E+03 -0.58450491550E+02  0.17650253310E+03  0.12509000000E+03 0.  0.
         25    1    4    4    0    0  0.28802443823E+01  0.90470514327E+02 -0.64150291712E+00  0.15440572980E+03  0.12509000000E+03 0.  0.
<mgrwt>
<rscale>  2 0.46105608E+03</rscale>
<asrwt>0</asrwt>
<pdfrwt beam="1">  1       21 0.30869714E-01 0.46105608E+03</pdfrwt>
<pdfrwt beam="2">  1       21 0.37230348E-01 0.46105608E+03</pdfrwt>
<totfact> 0.64771123E+04</totfact>
</mgrwt>
</event>
<event>
 7    0  0.4766352E-002  0.4531952E+03  0.7546771E-02  0.1026773E+00
         21   -1    0    0  502  501  0.00000000000E+00  0.00000000000E+00  0.48120308641E+02  0.48120308641E+02  0.00000000000E+00 0. -1.
         21   -1    0    0  501  502 -0.00000000000E+00 -0.00000000000E+00 -0.10670439303E+04  0.10670439303E+04  0.00000000000E+00 0. -1.
      99926    2    1    2    0    0 -0.14210854715E-13 -0.17763568394E-14 -0.10189236217E+04  0.11151642390E+04  0.45319524826E+03 0.  0.
      99925    2    3    3    0    0 -0.11023764709E+03 -0.11283372885E+02 -0.61291845424E+03  0.67611144325E+03  0.26301710743E+03 0.  0.
         25    1    4    4    0    0 -0.20890339709E+02  0.19687486813E+02 -0.26168389689E+03  0.29146178724E+03  0.12509000000E+03 0.  0.
         25    1    3    3    0    0  0.11023764709E+03  0.11283372885E+02 -0.40600516744E+03  0.43905279572E+03  0.12509000000E+03 0.  0.
         25    1    4    4    0    0 -0.89347307382E+02 -0.30970859698E+02 -0.35123455735E+03  0.38464965601E+03  0.12509000000E+03 0.  0.
<mgrwt>
<rscale>  2 0.45319525E+03</rscale>
<asrwt>0</asrwt>
<pdfrwt beam="1">  1       21 0.70765162E-02 0.45319525E+03</pdfrwt>
<pdfrwt beam="2">  1       21 0.15691822E+00 0.45319525E+03</pdfrwt>
<totfact> 0.35463310E+04</totfact>
</mgrwt>
</event>
<event>
 7    0  0.4766352E-002  0.4579856E+03  0.7546771E-02  0.1025367E+00
         21   -1    0    0  502  501  0.00000000000E+00  0.00000000000E+00  0.75650948522E+02  0.75650948522E+02  0.00000000000E+00 0. -1.
         21   -1    0    0  501  502 -0.00000000000E+00 -0.00000000000E+00 -0.69315314423E+03  0.69315314423E+03  0.00000000000E+00 0. -1.
      99926    2    1    2    0    0  0.35527136788E-14  0.00000000000E+00 -0.61750219571E+03  0.76880409275E+03  0.45798555799E+03 0.  0.
      99925    2    3    3    0    0  0.31655385106E+02 -0.97809392871E+02 -0.29739862963E+03  0.41008060334E+03  0.26296656744E+03 0.  0.
         25    1    3    3    0    0 -0.31655385106E+02  0.97809392871E+02 -0.32010356608E+03  0.35872348941E+03  0.12509000000E+03 0.  0.
         25    1    4    4    0    0 -0.24435162600E+02 -0.47516476332E+02 -0.15288098578E+03  0.20463381101E+03  0.12509000000E+03 0.  0.
         25    1    4    4    0    0  0.56090547705E+02 -0.50292916539E+02 -0.14451764385E+03  0.20544679234E+03  0.12509000000E+03 0.  0.
<mgrwt>
<rscale>  2 0.45798556E+03</rscale>
<asrwt>0</asrwt>
<pdfrwt beam="1">  1       21 0.11125140E-01 0.45798556E+03</pdfrwt>
<pdfrwt beam="2">  1       21 0.10193428E+00 0.45798556E+03</pdfrwt>
<totfact> 0.48171675E+04</totfact>
</mgrwt>
</event>
<event>
 7    0  0.4766352E-002  0.4539332E+03  0.7546771E-02  0.1026556E+00
         21   -1    0    0  502  501  0.00000000000E+00  0.00000000000E+00  0.11692357147E+04  0.11692357147E+04  0.00000000000E+00 0. -1.
         21   -1    0    0  501  502 -0.00000000000E+00 -0.00000000000E+00 -0.44057703992E+02  0.44057703992E+02  0.00000000000E+00 0. -1.
      99926    2    1    2    0    0  0.00000000000E+00 -0.35527136788E-14  0.11251780107E+04  0.12132934187E+04  0.45393321542E+03 0.  0.
      99925    2    3    3    0    0  0.75365517017E+02 -0.29305808563E+02  0.91646976059E+03  0.95688469548E+03  0.26300704705E+03 0.  0.
         25    1    3    3    0    0 -0.75365517017E+02  0.29305808563E+02  0.20870825010E+03  0.25640872320E+03  0.12509000000E+03 0.  0.
         25    1    4    4    0    0  0.18359510600E+02 -0.31758979945E+02  0.55618913162E+03  0.57126137859E+03  0.12509000000E+03 0.  0.
         25    1    4    4    0    0  0.57006006417E+02  0.24531713821E+01  0.36028062897E+03  0.38562331689E+03  0.12509000000E+03 0.  0.
<mgrwt>
<rscale>  2 0.45393322E+03</rscale>
<asrwt>0</asrwt>
<pdfrwt beam="1">  1       21 0.17194641E+00 0.45393322E+03</pdfrwt>
<pdfrwt beam="2">  1       21 0.64790749E-02 0.45393322E+03</pdfrwt>
<totfact> 0.32002529E+04</totfact>
</mgrwt>
</event>
<event>
 7    0  0.4766352E-002  0.4546941E+03  0.7546771E-02  0.1026331E+00
         21   -1    0    0  502  501  0.00000000000E+00  0.00000000000E+00  0.17449334791E+03  0.17449334791E+03  0.00000000000E+00 0.  1.
         21   -1    0    0  501  502 -0.00000000000E+00 -0.00000000000E+00 -0.29621004176E+03  0.29621004176E+03  0.00000000000E+00 0.  1.
      99926    2    1    2    0    0  0.00000000000E+00  0.00000000000E+00 -0.12171669385E+03  0.47070338967E+03  0.45469410320E+03 0.  0.
      99925    2    3    3    0    0 -0.88683276553E+02 -0.55690749221E+02 -0.12053982621E+03  0.30756211284E+03  0.26286578412E+03 0.  0.
         25    1    4    4    0    0 -0.45098471022E+01 -0.28119019449E+02 -0.39797824776E+02  0.13432197487E+03  0.12509000000E+03 0.  0.
         25    1    3    3    0    0  0.88683276553E+02  0.55690749221E+02 -0.11768676383E+01  0.16314127683E+03  0.12509000000E+03 0.  0.
         25    1    4    4    0    0 -0.84173429451E+02 -0.27571729772E+02 -0.80742001432E+02  0.17324013797E+03  0.12509000000E+03 0.  0.
<mgrwt>
<rscale>  2 0.45469410E+03</rscale>
<asrwt>0</asrwt>
<pdfrwt beam="1">  1       21 0.25660787E-01 0.45469410E+03</pdfrwt>
<pdfrwt beam="2">  1       21 0.43560299E-01 0.45469410E+03</pdfrwt>
<totfact> 0.67547207E+04</totfact>
</mgrwt>
</event>
<event>
 7    0  0.4766352E-002  0.4451819E+03  0.7546771E-02  0.1029169E+00
         21   -1    0    0  502  501  0.00000000000E+00  0.00000000000E+00  0.25072569083E+02  0.25072569083E+02  0.00000000000E+00 0. -1.
         21   -1    0    0  501  502 -0.00000000000E+00 -0.00000000000E+00 -0.19761326185E+04  0.19761326185E+04  0.00000000000E+00 0. -1.
      99926    2    1    2    0    0  0.00000000000E+00  0.71054273576E-14 -0.19510600494E+04  0.20012051875E+04  0.44518185765E+03 0.  0.
      99925    2    3    3    0    0 -0.64510978421E+02  0.63215021654E+02 -0.10096120609E+04  0.10471980448E+04  0.26296278485E+03 0.  0.
         25    1    4    4    0    0 -0.36873753704E+02  0.30327983085E+02 -0.65911517824E+03  0.67257697445E+03  0.12509000000E+03 0.  0.
         25    1    3    3    0    0  0.64510978421E+02 -0.63215021654E+02 -0.94144798852E+03  0.95400714279E+03  0.12509000000E+03 0.  0.
         25    1    4    4    0    0 -0.27637224716E+02  0.32887038569E+02 -0.35049688261E+03  0.37462107031E+03  0.12509000000E+03 0.  0.
<mgrwt>
<rscale>  2 0.44518186E+03</rscale>
<asrwt>0</asrwt>
<pdfrwt beam="1">  1       21 0.36871419E-02 0.44518186E+03</pdfrwt>
<pdfrwt beam="2">  1       21 0.29060779E+00 0.44518186E+03</pdfrwt>
<totfact> 0.14785097E+04</totfact>
</mgrwt>
</event>
<event>
 7    0  0.4766352E-002  0.4539721E+03  0.7546771E-02  0.1026544E+00
         21   -1    0    0  502  501  0.00000000000E+00  0.00000000000E+00  0.25441563275E+02  0.25441563275E+02  0.00000000000E+00 0.  1.
         21   -1    0    0  501  502 -0.00000000000E+00 -0.00000000000E+00 -0.20251379618E+04  0.20251379618E+04  0.00000000000E+00 0.  1.
      99926    2    1    2    0    0  0.00000000000E+00  0.26645352591E-14 -0.19996963986E+04  0.20505795251E+04  0.45397213834E+03 0.  0.
      99925    2    3    3    0    0 -0.20652897581E+02 -0.52115962837E+01 -0.17573261021E+04  0.17770021656E+04  0.26284589522E+03 0.  0.
         25    1    3    3    0    0  0.20652897581E+02  0.52115962837E+01 -0.24237029650E+03  0.27357735952E+03  0.12509000000E+03 0.  0.
         25    1    4    4    0    0  0.12969858335E+02 -0.33720461445E+02 -0.79830639653E+03  0.80885468262E+03  0.12509000000E+03 0.  0.
         25    1    4    4    0    0 -0.33622755916E+02  0.28508865162E+02 -0.95901970553E+03  0.96814748298E+03  0.12509000000E+03 0.  0.
<mgrwt>
<rscale>  2 0.45397214E+03</rscale>
<asrwt>0</asrwt>
<pdfrwt beam="1">  1       21 0.37414085E-02 0.45397214E+03</pdfrwt>
<pdfrwt beam="2">  1       21 0.29781424E+00 0.45397214E+03</pdfrwt>
<totfact> 0.13004949E+04</totfact>
</mgrwt>
</event>
<event>
 7    0  0.4766352E-002  0.4590977E+03  0.7546771E-02  0.1025043E+00
         21   -1    0    0  502  501  0.00000000000E+00  0.00000000000E+00  0.12915364321E+04  0.12915364321E+04  0.00000000000E+00 0.  1.
         21   -1    0    0  501  502 -0.00000000000E+00 -0.00000000000E+00 -0.40798444052E+02  0.40798444052E+02  0.00000000000E+00 0.  1.
      99926    2    1    2    0    0  0.00000000000E+00  0.71054273576E-14  0.12507379881E+04  0.13323348762E+04  0.45909771015E+03 0.  0.
      99925    2    3    3    0    0 -0.94806736329E+02 -0.55997583808E+02  0.66378114766E+03  0.72217925074E+03  0.26232310528E+03 0.  0.
         25    1    4    4    0    0 -0.33673891390E+02 -0.62504722859E+02  0.30285419102E+03  0.33527442560E+03  0.12509000000E+03 0.  0.
         25    1    4    4    0    0 -0.61132844939E+02  0.65071390506E+01  0.36092695664E+03  0.38690482514E+03  0.12509000000E+03 0.  0.
         25    1    3    3    0    0  0.94806736329E+02  0.55997583808E+02  0.58695684040E+03  0.61015562543E+03  0.12509000000E+03 0.  0.
<mgrwt>
<rscale>  2 0.45909771E+03</rscale>
<asrwt>0</asrwt>
<pdfrwt beam="1">  1       21 0.18993180E+00 0.45909771E+03</pdfrwt>
<pdfrwt beam="2">  1       21 0.59997720E-02 0.45909771E+03</pdfrwt>
<totfact> 0.27309414E+04</totfact>
</mgrwt>
</event>
<event>
 7    0  0.4766352E-002  0.4509365E+03  0.7546771E-02  0.1027443E+00
         21   -1    0    0  502  501  0.00000000000E+00  0.00000000000E+00  0.19629002194E+03  0.19629002194E+03  0.00000000000E+00 0. -1.
         21   -1    0    0  501  502 -0.00000000000E+00 -0.00000000000E+00 -0.25898379415E+03  0.25898379415E+03  0.00000000000E+00 0. -1.
      99926    2    1    2    0    0  0.00000000000E+00  0.00000000000E+00 -0.62693772211E+02  0.45527381609E+03  0.45093651276E+03 0.  0.
      99925    2    3    3    0    0  0.71133881422E+01 -0.10875336884E+03 -0.47493643895E+02  0.28867115247E+03  0.26305416274E+03 0.  0.
         25    1    4    4    0    0 -0.21097258240E+02 -0.28653543922E+02 -0.44478572523E+02  0.13744806800E+03  0.12509000000E+03 0.  0.
         25    1    4    4    0    0  0.28210646382E+02 -0.80099824913E+02 -0.30150713718E+01  0.15122308447E+03  0.12509000000E+03 0.  0.
         25    1    3    3    0    0 -0.71133881422E+01  0.10875336884E+03 -0.15200128316E+02  0.16660266362E+03  0.12509000000E+03 0.  0.
<mgrwt>
<rscale>  2 0.45093651E+03</rscale>
<asrwt>0</asrwt>
<pdfrwt beam="1">  1       21 0.28866180E-01 0.45093651E+03</pdfrwt>
<pdfrwt beam="2">  1       21 0.38085852E-01 0.45093651E+03</pdfrwt>
<totfact> 0.70792784E+04</totfact>
</mgrwt>
</event>
<event>
 7    0  0.4766352E-002  0.4580232E+03  0.7546771E-02  0.1025356E+00
         21   -1    0    0  502  501  0.00000000000E+00  0.00000000000E+00  0.25431002198E+03  0.25431002198E+03  0.00000000000E+00 0.  1.
         21   -1    0    0  501  502 -0.00000000000E+00 -0.00000000000E+00 -0.20622986421E+03  0.20622986421E+03  0.00000000000E+00 0.  1.
      99926    2    1    2    0    0  0.00000000000E+00  0.35527136788E-14  0.48080157773E+02  0.46053988618E+03  0.45802323652E+03 0.  0.
      99925    2    3    3    0    0  0.11336101557E+03  0.20805262952E+02  0.42998101162E+02  0.29037257376E+03  0.26302816593E+03 0.  0.
         25    1    4    4    0    0  0.69473780391E+02 -0.26818079862E+02  0.32209462574E+02  0.14909987642E+03  0.12509000000E+03 0.  0.
         25    1    4    4    0    0  0.43887235176E+02  0.47623342814E+02  0.10788638588E+02  0.14127269734E+03  0.12509000000E+03 0.  0.
         25    1    3    3    0    0 -0.11336101557E+03 -0.20805262952E+02  0.50820566110E+01  0.17016731242E+03  0.12509000000E+03 0.  0.
<mgrwt>
<rscale>  2 0.45802324E+03</rscale>
<asrwt>0</asrwt>
<pdfrwt beam="1">  1       21 0.37398533E-01 0.45802324E+03</pdfrwt>
<pdfrwt beam="2">  1       21 0.30327921E-01 0.45802324E+03</pdfrwt>
<totfact> 0.66522676E+04</totfact>
</mgrwt>
</event>
<event>
 7    0  0.4766352E-002  0.5209149E+03  0.7546771E-02  0.1008460E+00
         21   -1    0    0  502  501  0.00000000000E+00  0.00000000000E+00  0.63151159671E+02  0.63151159671E+02  0.00000000000E+00 0.  1.
         21   -1    0    0  501  502 -0.00000000000E+00 -0.00000000000E+00 -0.10742175351E+04  0.10742175351E+04  0.00000000000E+00 0.  1.
      99926    2    1    2    0    0  0.00000000000E+00  0.00000000000E+00 -0.10110663754E+04  0.11373686947E+04  0.52091489930E+03 0.  0.
      99925    2    3    3    0    0  0.43972516886E+02  0.89068609391E+02 -0.31064683026E+03  0.41896640721E+03  0.26299163066E+03 0.  0.
         25    1    4    4    0    0 -0.16904254148E+02  0.56208330754E+02 -0.15381574454E+03  0.20676537820E+03  0.12509000000E+03 0.  0.
         25    1    4    4    0    0  0.60876771034E+02  0.32860278636E+02 -0.15683108572E+03  0.21220102901E+03  0.12509000000E+03 0.  0.
         25    1    3    3    0    0 -0.43972516886E+02 -0.89068609391E+02 -0.70041954513E+03  0.71840228753E+03  0.12509000000E+03 0.  0.
<mgrwt>
<rscale>  2 0.52091490E+03</rscale>
<asrwt>0</asrwt>
<pdfrwt beam="1">  1       21 0.92869364E-02 0.52091490E+03</pdfrwt>
<pdfrwt beam="2">  1       21 0.15797315E+00 0.52091490E+03</pdfrwt>
<totfact> 0.21099810E+04</totfact>
</mgrwt>
</event>
<event>
 7    0  0.4766352E-002  0.4692046E+03  0.7546771E-02  0.1022145E+00
         21   -1    0    0  502  501  0.00000000000E+00  0.00000000000E+00  0.36958323533E+03  0.36958323533E+03  0.00000000000E+00 0. -1.
         21   -1    0    0  501  502 -0.00000000000E+00 -0.00000000000E+00 -0.14891973965E+03  0.14891973965E+03  0.00000000000E+00 0. -1.
      99926    2    1    2    0    0  0.00000000000E+00 -0.71054273576E-14  0.22066349568E+03  0.51850297498E+03  0.46920460008E+03 0.  0.
      99925    2    3    3    0    0 -0.10856237429E+03  0.49951842471E+02  0.93060068763E+02  0.30353526034E+03  0.26304467718E+03 0.  0.
         25    1    4    4    0    0 -0.81900741027E+02  0.24738612468E+02  0.82992136604E+02  0.17278580140E+03  0.12509000000E+03 0.  0.
         25    1    4    4    0    0 -0.26661633259E+02  0.25213230003E+02  0.10067932159E+02  0.13074945894E+03  0.12509000000E+03 0.  0.
         25    1    3    3    0    0  0.10856237429E+03 -0.49951842471E+02  0.12760342692E+03  0.21496771464E+03  0.12509000000E+03 0.  0.
<mgrwt>
<rscale>  2 0.46920460E+03</rscale>
<asrwt>0</asrwt>
<pdfrwt beam="1">  1       21 0.54350476E-01 0.46920460E+03</pdfrwt>
<pdfrwt beam="2">  1       21 0.21899962E-01 0.46920460E+03</pdfrwt>
<totfact> 0.57257362E+04</totfact>
</mgrwt>
</event>
<event>
 7    0  0.4766352E-002  0.4425664E+03  0.7546771E-02  0.1029962E+00
         21   -1    0    0  502  501  0.00000000000E+00  0.00000000000E+00  0.19751771332E+03  0.19751771332E+03  0.00000000000E+00 0.  1.
         21   -1    0    0  501  502 -0.00000000000E+00 -0.00000000000E+00 -0.24790819967E+03  0.24790819967E+03  0.00000000000E+00 0.  1.
      99926    2    1    2    0    0  0.00000000000E+00  0.00000000000E+00 -0.50390486343E+02  0.44542591299E+03  0.44256642761E+03 0.  0.
      99925    2    3    3    0    0 -0.94565533644E+02  0.25475319308E+02 -0.57671177746E+02  0.28639085832E+03  0.26287283416E+03 0.  0.
         25    1    4    4    0    0 -0.52716393234E+02  0.15969258048E+02  0.11469160953E+02  0.13716080005E+03  0.12509000000E+03 0.  0.
         25    1    3    3    0    0  0.94565533644E+02 -0.25475319308E+02  0.72806914022E+01  0.15903505467E+03  0.12509000000E+03 0.  0.
         25    1    4    4    0    0 -0.41849140410E+02  0.95060612594E+01 -0.69140338699E+02  0.14923005826E+03  0.12509000000E+03 0.  0.
<mgrwt>
<rscale>  2 0.44256643E+03</rscale>
<asrwt>0</asrwt>
<pdfrwt beam="1">  1       21 0.29046723E-01 0.44256643E+03</pdfrwt>
<pdfrwt beam="2">  1       21 0.36457088E-01 0.44256643E+03</pdfrwt>
<totfact> 0.76571507E+04</totfact>
</mgrwt>
</event>
<event>
 7    0  0.4766352E-002  0.4625120E+03  0.7546771E-02  0.1024055E+00
         21   -1    0    0  502  501  0.00000000000E+00  0.00000000000E+00  0.10499430616E+03  0.10499430616E+03  0.00000000000E+00 0. -1.
         21   -1    0    0  501  502 -0.00000000000E+00 -0.00000000000E+00 -0.50935469216E+03  0.50935469216E+03  0.00000000000E+00 0. -1.
      99926    2    1    2    0    0  0.71054273576E-14  0.17763568394E-14 -0.40436038601E+03  0.61434899832E+03  0.46251202143E+03 0.  0.
      99925    2    3    3    0    0  0.44769069830E+02  0.15738979945E+02 -0.39936205792E+03  0.48046667504E+03  0.26288055732E+03 0.  0.
         25    1    4    4    0    0  0.41361786191E+02  0.27271627931E+02 -0.26043704451E+03  0.29313734204E+03  0.12509000000E+03 0.  0.
         25    1    4    4    0    0  0.34072836385E+01 -0.11532647986E+02 -0.13892501341E+03  0.18732933300E+03  0.12509000000E+03 0.  0.
         25    1    3    3    0    0 -0.44769069830E+02 -0.15738979945E+02 -0.49983280904E+01  0.13388232328E+03  0.12509000000E+03 0.  0.
<mgrwt>
<rscale>  2 0.46251202E+03</rscale>
<asrwt>0</asrwt>
<pdfrwt beam="1">  1       21 0.15440339E-01 0.46251202E+03</pdfrwt>
<pdfrwt beam="2">  1       21 0.74905103E-01 0.46251202E+03</pdfrwt>
<totfact> 0.54497502E+04</totfact>
</mgrwt>
</event>
<event>
 6    0  0.4766352E-002  0.4621902E+03  0.7546771E-02  0.1024148E+00
         21   -1    0    0  502  501  0.00000000000E+00  0.00000000000E+00  0.12798863996E+03  0.12798863996E+03  0.00000000000E+00 0.  1.
         21   -1    0    0  501  502 -0.00000000000E+00 -0.00000000000E+00 -0.41726318559E+03  0.41726318559E+03  0.00000000000E+00 0.  1.
      99926    2    1    2    0    0 -0.14210854715E-13  0.35527136788E-14 -0.28927454562E+03  0.54525182555E+03  0.46219021032E+03 0.  0.
         25    1    3    3    0    0  0.47282340970E+02 -0.87925816364E+01 -0.19531944754E+02  0.13543239725E+03  0.12509000000E+03 0.  0.
         25    1    3    3    0    0 -0.10539679101E+03 -0.26589547454E+02 -0.15563876167E+03  0.22734647528E+03  0.12509000000E+03 0.  0.
         25    1    3    3    0    0  0.58114450037E+02  0.35382129091E+02 -0.11410383920E+03  0.18247295302E+03  0.12509000000E+03 0.  0.
<mgrwt>
<rscale>  2 0.46219021E+03</rscale>
<asrwt>0</asrwt>
<pdfrwt beam="1">  1       21 0.18821859E-01 0.46219021E+03</pdfrwt>
<pdfrwt beam="2">  1       21 0.61362232E-01 0.46219021E+03</pdfrwt>
<totfact> 0.58765362E+04</totfact>
</mgrwt>
</event>
<event>
 7    0  0.4766352E-002  0.4533861E+03  0.7546771E-02  0.1026717E+00
         21   -1    0    0  502  501  0.00000000000E+00  0.00000000000E+00  0.25352672461E+03  0.25352672461E+03  0.00000000000E+00 0. -1.
         21   -1    0    0  501  502 -0.00000000000E+00 -0.00000000000E+00 -0.20269951207E+03  0.20269951207E+03  0.00000000000E+00 0. -1.
      99926    2    1    2    0    0  0.00000000000E+00  0.00000000000E+00  0.50827212537E+02  0.45622623667E+03  0.45338611966E+03 0.  0.
      99925    2    3    3    0    0  0.28042389185E+02 -0.10735004352E+03  0.44751425483E+02  0.28890967825E+03  0.26297472249E+03 0.  0.
         25    1    3    3    0    0 -0.28042389185E+02  0.10735004352E+03  0.60757870540E+01  0.16731655842E+03  0.12509000000E+03 0.  0.
         25    1    4    4    0    0 -0.39746529787E+01 -0.44643613703E+02 -0.14402370836E+02  0.13365547687E+03  0.12509000000E+03 0.  0.
         25    1    4    4    0    0  0.32017042163E+02 -0.62706429813E+02  0.59153796319E+02  0.15525420139E+03  0.12509000000E+03 0.  0.
<mgrwt>
<rscale>  2 0.45338612E+03</rscale>
<asrwt>0</asrwt>
<pdfrwt beam="1">  1       21 0.37283342E-01 0.45338612E+03</pdfrwt>
<pdfrwt beam="2">  1       21 0.29808751E-01 0.45338612E+03</pdfrwt>
<totfact> 0.69344595E+04</totfact>
</mgrwt>
</event>
<event>
 7    0  0.4766352E-002  0.4533009E+03  0.7546771E-02  0.1026742E+00
         21   -1    0    0  502  501  0.00000000000E+00  0.00000000000E+00  0.70394985284E+03  0.70394985284E+03  0.00000000000E+00 0. -1.
         21   -1    0    0  501  502 -0.00000000000E+00 -0.00000000000E+00 -0.72974561327E+02  0.72974561327E+02  0.00000000000E+00 0. -1.
      99926    2    1    2    0    0  0.00000000000E+00  0.14210854715E-13  0.63097529151E+03  0.77692441416E+03  0.45330092304E+03 0.  0.
      99925    2    3    3    0    0  0.17306542526E+02  0.10882932651E+03  0.42753541423E+03  0.51390610588E+03  0.26300117209E+03 0.  0.
         25    1    4    4    0    0  0.33021745483E+02  0.90187557558E+02  0.23750948509E+03  0.28510085027E+03  0.12509000000E+03 0.  0.
         25    1    4    4    0    0 -0.15715202957E+02  0.18641768953E+02  0.19002592913E+03  0.22880525561E+03  0.12509000000E+03 0.  0.
         25    1    3    3    0    0 -0.17306542526E+02 -0.10882932651E+03  0.20343987728E+03  0.26301830828E+03  0.12509000000E+03 0.  0.
<mgrwt>
<rscale>  2 0.45330092E+03</rscale>
<asrwt>0</asrwt>
<pdfrwt beam="1">  1       21 0.10352203E+00 0.45330092E+03</pdfrwt>
<pdfrwt beam="2">  1       21 0.10731553E-01 0.45330092E+03</pdfrwt>
<totfact> 0.49558893E+04</totfact>
</mgrwt>
</event>
<event>
 7    0  0.4766352E-002  0.4632315E+03  0.7546771E-02  0.1023848E+00
         21   -1    0    0  502  501  0.00000000000E+00  0.00000000000E+00  0.62091156553E+03  0.62091156553E+03  0.00000000000E+00 0.  1.
         21   -1    0    0  501  502 -0.00000000000E+00 -0.00000000000E+00 -0.86398526216E+02  0.86398526216E+02  0.00000000000E+00 0.  1.
      99926    2    1    2    0    0 -0.71054273576E-14  0.00000000000E+00  0.53451303931E+03  0.70731009175E+03  0.46323145045E+03 0.  0.
      99925    2    3    3    0    0  0.57542699042E+02  0.10528850425E+03  0.31579482037E+03  0.42823662697E+03  0.26317942316E+03 0.  0.
         25    1    4    4    0    0 -0.57432974169E+00  0.77971310984E+02  0.14188340477E+03  0.20459292227E+03  0.12509000000E+03 0.  0.
         25    1    4    4    0    0  0.58117028784E+02  0.27317193264E+02  0.17391141559E+03  0.22364370471E+03  0.12509000000E+03 0.  0.
         25    1    3    3    0    0 -0.57542699042E+02 -0.10528850425E+03  0.21871821895E+03  0.27907346477E+03  0.12509000000E+03 0.  0.
<mgrwt>
<rscale>  2 0.46323145E+03</rscale>
<asrwt>0</asrwt>
<pdfrwt beam="1">  1       21 0.91310522E-01 0.46323145E+03</pdfrwt>
<pdfrwt beam="2">  1       21 0.12705666E-01 0.46323145E+03</pdfrwt>
<totfact> 0.49240287E+04</totfact>
</mgrwt>
</event>
<event>
 7    0  0.4766352E-002  0.4495803E+03  0.7546771E-02  0.1027847E+00
         21   -1    0    0  502  501  0.00000000000E+00  0.00000000000E+00  0.48135347074E+03  0.48135347074E+03  0.00000000000E+00 0. -1.
         21   -1    0    0  501  502 -0.00000000000E+00 -0.00000000000E+00 -0.10497608377E+03  0.10497608377E+03  0.00000000000E+00 0. -1.
      99926    2    1    2    0    0  0.00000000000E+00  0.00000000000E+00  0.37637738697E+03  0.58632955451E+03  0.44958025877E+03 0.  0.
      99925    2    3    3    0    0  0.33906423082E+02  0.97656331916E+02  0.27848260745E+03  0.39681095214E+03  0.26309687264E+03 0.  0.
         25    1    3    3    0    0 -0.33906423082E+02 -0.97656331916E+02  0.97894779515E+02  0.18951860237E+03  0.12509000000E+03 0.  0.
         25    1    4    4    0    0  0.17378508131E+02  0.88739944558E+02  0.13042041989E+03  0.20207371014E+03  0.12509000000E+03 0.  0.
         25    1    4    4    0    0  0.16527914952E+02  0.89163873584E+01  0.14806218756E+03  0.19473724200E+03  0.12509000000E+03 0.  0.
<mgrwt>
<rscale>  2 0.44958026E+03</rscale>
<asrwt>0</asrwt>
<pdfrwt beam="1">  1       21 0.70787274E-01 0.44958026E+03</pdfrwt>
<pdfrwt beam="2">  1       21 0.15437660E-01 0.44958026E+03</pdfrwt>
<totfact> 0.62147535E+04</totfact>
</mgrwt>
</event>
<event>
 7    0  0.4766352E-002  0.4581703E+03  0.7546771E-02  0.1025313E+00
         21   -1    0    0  502  501  0.00000000000E+00  0.00000000000E+00  0.21453012489E+03  0.21453012489E+03  0.00000000000E+00 0.  1.
         21   -1    0    0  501  502 -0.00000000000E+00 -0.00000000000E+00 -0.24462772010E+03  0.24462772010E+03  0.00000000000E+00 0.  1.
      99926    2    1    2    0    0  0.00000000000E+00  0.00000000000E+00 -0.30097595212E+02  0.45915784498E+03  0.45817034100E+03 0.  0.
      99925    2    3    3    0    0  0.10236968834E+03  0.44170646079E+02 -0.51313662805E+02  0.29025482935E+03  0.26302884804E+03 0.  0.
         25    1    4    4    0    0  0.17277270506E+02 -0.56455629925E+01 -0.22811753982E+02  0.12844555530E+03  0.12509000000E+03 0.  0.
         25    1    3    3    0    0 -0.10236968834E+03 -0.44170646079E+02  0.21216067593E+02  0.16890301564E+03  0.12509000000E+03 0.  0.
         25    1    4    4    0    0  0.85092417838E+02  0.49816209072E+02 -0.28501908823E+02  0.16180927404E+03  0.12509000000E+03 0.  0.
<mgrwt>
<rscale>  2 0.45817034E+03</rscale>
<asrwt>0</asrwt>
<pdfrwt beam="1">  1       21 0.31548548E-01 0.45817034E+03</pdfrwt>
<pdfrwt beam="2">  1       21 0.35974664E-01 0.45817034E+03</pdfrwt>
<totfact> 0.66543060E+04</totfact>
</mgrwt>
</event>
<event>
 7    0  0.4766352E-002  0.4596951E+03  0.7546771E-02  0.1024870E+00
         21   -1    0    0  502  501  0.00000000000E+00  0.00000000000E+00  0.16770047674E+03  0.16770047674E+03  0.00000000000E+00 0.  1.
         21   -1    0    0  501  502 -0.00000000000E+00 -0.00000000000E+00 -0.31502534539E+03  0.31502534539E+03  0.00000000000E+00 0.  1.
      99926    2    1    2    0    0  0.00000000000E+00  0.00000000000E+00 -0.14732486864E+03  0.48272582213E+03  0.45969511900E+03 0.  0.
      99925    2    3    3    0    0 -0.35508710627E+02 -0.85738704978E+01 -0.20967788756E+03  0.33826203133E+03  0.26291064170E+03 0.  0.
         25    1    4    4    0    0 -0.42178115759E+02 -0.98191394861E+01 -0.66906230002E+02  0.14832181452E+03  0.12509000000E+03 0.  0.
         25    1    3    3    0    0  0.35508710627E+02  0.85738704978E+01  0.62353018914E+02  0.14446379080E+03  0.12509000000E+03 0.  0.
         25    1    4    4    0    0  0.66694051316E+01  0.12452689883E+01 -0.14277165756E+03  0.18994021681E+03  0.12509000000E+03 0.  0.
<mgrwt>
<rscale>  2 0.45969512E+03</rscale>
<asrwt>0</asrwt>
<pdfrwt beam="1">  1       21 0.24661835E-01 0.45969512E+03</pdfrwt>
<pdfrwt beam="2">  1       21 0.46327256E-01 0.45969512E+03</pdfrwt>
<totfact> 0.64080601E+04</totfact>
</mgrwt>
</event>
<event>
 7    0  0.4766352E-002  0.4523105E+03  0.7546771E-02  0.1027035E+00
         21   -1    0    0  502  501  0.00000000000E+00  0.00000000000E+00  0.22388753185E+03  0.22388753185E+03  0.00000000000E+00 0. -1.
         21   -1    0    0  501  502 -0.00000000000E+00 -0.00000000000E+00 -0.22844596057E+03  0.22844596057E+03  0.00000000000E+00 0. -1.
      99926    2    1    2    0    0  0.00000000000E+00  0.00000000000E+00 -0.45584287228E+01  0.45233349243E+03  0.45231052287E+03 0.  0.
      99925    2    3    3    0    0  0.33666997958E+02  0.90907720307E+02 -0.56214976949E+02  0.28585950816E+03  0.26297880981E+03 0.  0.
         25    1    4    4    0    0  0.74798693006E+01  0.66849708656E+02 -0.63566718648E+02  0.15560548773E+03  0.12509000000E+03 0.  0.
         25    1    3    3    0    0 -0.33666997958E+02 -0.90907720307E+02  0.51656548226E+02  0.16647398427E+03  0.12509000000E+03 0.  0.
         25    1    4    4    0    0  0.26187128657E+02  0.24058011652E+02  0.73517416989E+01  0.13025402043E+03  0.12509000000E+03 0.  0.
<mgrwt>
<rscale>  2 0.45231052E+03</rscale>
<asrwt>0</asrwt>
<pdfrwt beam="1">  1       21 0.32924637E-01 0.45231052E+03</pdfrwt>
<pdfrwt beam="2">  1       21 0.33594994E-01 0.45231052E+03</pdfrwt>
<totfact> 0.70236748E+04</totfact>
</mgrwt>
</event>
<event>
 7    0  0.4766352E-002  0.4219633E+03  0.7546771E-02  0.1036429E+00
         21   -1    0    0  502  501  0.00000000000E+00  0.00000000000E+00  0.24429226167E+03  0.24429226167E+03  0.00000000000E+00 0. -1.
         21   -1    0    0  501  502 -0.00000000000E+00 -0.00000000000E+00 -0.18221315043E+03  0.18221315043E+03  0.00000000000E+00 0. -1.
      99926    2    1    2    0    0  0.00000000000E+00  0.23314683517E-14  0.62079111245E+02  0.42650541210E+03  0.42196332838E+03 0.  0.
      99925    2    3    3    0    0  0.59061357481E+02 -0.28116060241E+00 -0.11109831459E+02  0.27000476535E+03  0.26323149880E+03 0.  0.
         25    1    4    4    0    0 -0.56644682615E+00 -0.25841710076E+02  0.70495783510E+01  0.12792700847E+03  0.12509000000E+03 0.  0.
         25    1    3    3    0    0 -0.59061357481E+02  0.28116060241E+00  0.73188942704E+02  0.15650064675E+03  0.12509000000E+03 0.  0.
         25    1    4    4    0    0  0.59627804307E+02  0.25560549474E+02 -0.18159409810E+02  0.14207775688E+03  0.12509000000E+03 0.  0.
<mgrwt>
<rscale>  2 0.42196333E+03</rscale>
<asrwt>0</asrwt>
<pdfrwt beam="1">  1       21 0.35925333E-01 0.42196333E+03</pdfrwt>
<pdfrwt beam="2">  1       21 0.26796051E-01 0.42196333E+03</pdfrwt>
<totfact> 0.92845979E+04</totfact>
</mgrwt>
</event>
<event>
 7    0  0.4766352E-002  0.4719368E+03  0.7546771E-02  0.1021375E+00
         21   -1    0    0  502  501  0.00000000000E+00  0.00000000000E+00  0.14527857300E+03  0.14527857300E+03  0.00000000000E+00 0.  1.
         21   -1    0    0  501  502 -0.00000000000E+00 -0.00000000000E+00 -0.38327115824E+03  0.38327115824E+03  0.00000000000E+00 0.  1.
      99926    2    1    2    0    0  0.00000000000E+00  0.35527136788E-14 -0.23799258523E+03  0.52854973124E+03  0.47193680485E+03 0.  0.
      99925    2    3    3    0    0  0.76346116997E+02  0.28096362602E+02 -0.25880232556E+03  0.37788889172E+03  0.26306507864E+03 0.  0.
         25    1    4    4    0    0  0.45712246054E+02 -0.25459708971E+02 -0.11896762360E+03  0.18038461627E+03  0.12509000000E+03 0.  0.
         25    1    4    4    0    0  0.30633870943E+02  0.53556071573E+02 -0.13983470196E+03  0.19750427545E+03  0.12509000000E+03 0.  0.
         25    1    3    3    0    0 -0.76346116997E+02 -0.28096362602E+02  0.20809740329E+02  0.15066083952E+03  0.12509000000E+03 0.  0.
<mgrwt>
<rscale>  2 0.47193680E+03</rscale>
<asrwt>0</asrwt>
<pdfrwt beam="1">  1       21 0.21364496E-01 0.47193680E+03</pdfrwt>
<pdfrwt beam="2">  1       21 0.56363405E-01 0.47193680E+03</pdfrwt>
<totfact> 0.55470964E+04</totfact>
</mgrwt>
</event>
<event>
 7    0  0.4766352E-002  0.4486599E+03  0.7546771E-02  0.1028122E+00
         21   -1    0    0  502  501  0.00000000000E+00  0.00000000000E+00  0.14287295312E+03  0.14287295312E+03  0.00000000000E+00 0.  1.
         21   -1    0    0  501  502 -0.00000000000E+00 -0.00000000000E+00 -0.35222857248E+03  0.35222857248E+03  0.00000000000E+00 0.  1.
      99926    2    1    2    0    0  0.00000000000E+00  0.00000000000E+00 -0.20935561936E+03  0.49510152560E+03  0.44865994393E+03 0.  0.
      99925    2    3    3    0    0 -0.89620930111E+02 -0.63614300301E+01 -0.19691966104E+03  0.34058764251E+03  0.26296427594E+03 0.  0.
         25    1    3    3    0    0  0.89620930111E+02  0.63614300301E+01 -0.12435958321E+02  0.15451388308E+03  0.12509000000E+03 0.  0.
         25    1    4    4    0    0 -0.25638498405E+02 -0.22337130851E+02 -0.56841989912E+02  0.14154433910E+03  0.12509000000E+03 0.  0.
         25    1    4    4    0    0 -0.63982431706E+02  0.15975700821E+02 -0.14007767113E+03  0.19904330341E+03  0.12509000000E+03 0.  0.
<mgrwt>
<rscale>  2 0.44865994E+03</rscale>
<asrwt>0</asrwt>
<pdfrwt beam="1">  1       21 0.21010729E-01 0.44865994E+03</pdfrwt>
<pdfrwt beam="2">  1       21 0.51798317E-01 0.44865994E+03</pdfrwt>
<totfact> 0.69025255E+04</totfact>
</mgrwt>
</event>
<event>
 7    0  0.4766352E-002  0.4234407E+03  0.7546771E-02  0.1035952E+00
         21   -1    0    0  502  501  0.00000000000E+00  0.00000000000E+00  0.18207608164E+03  0.18207608164E+03  0.00000000000E+00 0.  1.
         21   -1    0    0  501  502 -0.00000000000E+00 -0.00000000000E+00 -0.24619107225E+03  0.24619107225E+03  0.00000000000E+00 0.  1.
      99926    2    1    2    0    0  0.00000000000E+00  0.00000000000E+00 -0.64114990609E+02  0.42826715389E+03  0.42344069606E+03 0.  0.
      99925    2    3    3    0    0 -0.49385592246E+02  0.42956630914E+02  0.50165459787E+01  0.27107018727E+03  0.26300127725E+03 0.  0.
         25    1    4    4    0    0 -0.14155000317E+02  0.59983720796E+02 -0.57039428826E+01  0.13956523155E+03  0.12509000000E+03 0.  0.
         25    1    3    3    0    0  0.49385592246E+02 -0.42956630914E+02 -0.69131536587E+02  0.15719696661E+03  0.12509000000E+03 0.  0.
         25    1    4    4    0    0 -0.35230591929E+02 -0.17027089881E+02  0.10720488861E+02  0.13150495572E+03  0.12509000000E+03 0.  0.
<mgrwt>
<rscale>  2 0.42344070E+03</rscale>
<asrwt>0</asrwt>
<pdfrwt beam="1">  1       21 0.26775894E-01 0.42344070E+03</pdfrwt>
<pdfrwt beam="2">  1       21 0.36204569E-01 0.42344070E+03</pdfrwt>
<totfact> 0.91506866E+04</totfact>
</mgrwt>
</event>
<event>
 7    0  0.4766352E-002  0.4561969E+03  0.7546771E-02  0.1025890E+00
         21   -1    0    0  502  501  0.00000000000E+00  0.00000000000E+00  0.91687982540E+02  0.91687982540E+02  0.00000000000E+00 0. -1.
         21   -1    0    0  501  502 -0.00000000000E+00 -0.00000000000E+00 -0.56745610202E+03  0.56745610202E+03  0.00000000000E+00 0. -1.
      99926    2    1    2    0    0  0.00000000000E+00 -0.17763568394E-14 -0.47576811948E+03  0.65914408456E+03  0.45619691000E+03 0.  0.
      99925    2    3    3    0    0 -0.21683319931E+02  0.90975152403E+01 -0.13675107038E+03  0.29702117887E+03  0.26261720107E+03 0.  0.
         25    1    3    3    0    0  0.21683319931E+02 -0.90975152403E+01 -0.33901704910E+03  0.36212290569E+03  0.12509000000E+03 0.  0.
         25    1    4    4    0    0 -0.36784664563E+02  0.32346649317E+02 -0.84150230540E+02  0.15851872656E+03  0.12509000000E+03 0.  0.
         25    1    4    4    0    0  0.15101344633E+02 -0.23249134077E+02 -0.52600839843E+02  0.13850245231E+03  0.12509000000E+03 0.  0.
<mgrwt>
<rscale>  2 0.45619691E+03</rscale>
<asrwt>0</asrwt>
<pdfrwt beam="1">  1       21 0.13483526E-01 0.45619691E+03</pdfrwt>
<pdfrwt beam="2">  1       21 0.83449429E-01 0.45619691E+03</pdfrwt>
<totfact> 0.54659682E+04</totfact>
</mgrwt>
</event>
<event>
 7    0  0.4766352E-002  0.4490913E+03  0.7546771E-02  0.1027993E+00
         21   -1    0    0  502  501  0.00000000000E+00  0.00000000000E+00  0.92457172639E+02  0.92457172639E+02  0.00000000000E+00 0.  1.
         21   -1    0    0  501  502 -0.00000000000E+00 -0.00000000000E+00 -0.54534166743E+03  0.54534166743E+03  0.00000000000E+00 0.  1.
      99926    2    1    2    0    0 -0.14210854715E-13  0.00000000000E+00 -0.45288449479E+03  0.63779884007E+03  0.44909129893E+03 0.  0.
      99925    2    3    3    0    0 -0.10056560151E+03 -0.37405929531E+02 -0.29612384901E+03  0.41034763225E+03  0.26302699780E+03 0.  0.
         25    1    4    4    0    0 -0.50254390467E+02 -0.66239986416E+01 -0.20243205995E+03  0.24330151687E+03  0.12509000000E+03 0.  0.
         25    1    4    4    0    0 -0.50311211039E+02 -0.30781930890E+02 -0.93691789061E+02  0.16704611538E+03  0.12509000000E+03 0.  0.
         25    1    3    3    0    0  0.10056560151E+03  0.37405929531E+02 -0.15676064578E+03  0.22745120781E+03  0.12509000000E+03 0.  0.
<mgrwt>
<rscale>  2 0.44909130E+03</rscale>
<asrwt>0</asrwt>
<pdfrwt beam="1">  1       21 0.13596643E-01 0.44909130E+03</pdfrwt>
<pdfrwt beam="2">  1       21 0.80197306E-01 0.44909130E+03</pdfrwt>
<totfact> 0.59118777E+04</totfact>
</mgrwt>
</event>
<event>
 7    0  0.4766352E-002  0.4594673E+03  0.7546771E-02  0.1024936E+00
         21   -1    0    0  502  501  0.00000000000E+00  0.00000000000E+00  0.30746165943E+03  0.30746165943E+03  0.00000000000E+00 0.  1.
         21   -1    0    0  501  502 -0.00000000000E+00 -0.00000000000E+00 -0.17165567840E+03  0.17165567840E+03  0.00000000000E+00 0.  1.
      99926    2    1    2    0    0  0.00000000000E+00  0.00000000000E+00  0.13580598103E+03  0.47911733783E+03  0.45946725555E+03 0.  0.
      99925    2    3    3    0    0  0.10474704797E+03 -0.12849963152E+02  0.13873216444E+03  0.31543124721E+03  0.26289388098E+03 0.  0.
         25    1    4    4    0    0  0.51733375847E+02  0.36757008070E+01  0.25488391253E+02  0.13779339295E+03  0.12509000000E+03 0.  0.
         25    1    3    3    0    0 -0.10474704797E+03  0.12849963152E+02 -0.29261834077E+01  0.16368609061E+03  0.12509000000E+03 0.  0.
         25    1    4    4    0    0  0.53013672120E+02 -0.16525663959E+02  0.11324377318E+03  0.17763785426E+03  0.12509000000E+03 0.  0.
<mgrwt>
<rscale>  2 0.45946726E+03</rscale>
<asrwt>0</asrwt>
<pdfrwt beam="1">  1       21 0.45214950E-01 0.45946726E+03</pdfrwt>
<pdfrwt beam="2">  1       21 0.25243482E-01 0.45946726E+03</pdfrwt>
<totfact> 0.64448956E+04</totfact>
</mgrwt>
</event>
<event>
 7    0  0.4766352E-002  0.4556877E+03  0.7546771E-02  0.1026039E+00
         21   -1    0    0  502  501  0.00000000000E+00  0.00000000000E+00  0.31714272614E+02  0.31714272614E+02  0.00000000000E+00 0.  1.
         21   -1    0    0  501  502 -0.00000000000E+00 -0.00000000000E+00 -0.16368917543E+04  0.16368917543E+04  0.00000000000E+00 0.  1.
      99926    2    1    2    0    0  0.00000000000E+00 -0.35527136788E-14 -0.16051774817E+04  0.16686060269E+04  0.45568774983E+03 0.  0.
      99925    2    3    3    0    0 -0.10760152207E+03 -0.27065310478E+02 -0.11026595317E+04  0.11390001199E+04  0.26296884170E+03 0.  0.
         25    1    4    4    0    0 -0.49583897428E+02  0.23390782715E+02 -0.46423926912E+03  0.48391249074E+03  0.12509000000E+03 0.  0.
         25    1    3    3    0    0  0.10760152207E+03  0.27065310478E+02 -0.50251794999E+03  0.52960590702E+03  0.12509000000E+03 0.  0.
         25    1    4    4    0    0 -0.58017624646E+02 -0.50456093194E+02 -0.63842026259E+03  0.65508762917E+03  0.12509000000E+03 0.  0.
<mgrwt>
<rscale>  2 0.45568775E+03</rscale>
<asrwt>0</asrwt>
<pdfrwt beam="1">  1       21 0.46638619E-02 0.45568775E+03</pdfrwt>
<pdfrwt beam="2">  1       21 0.24071947E+00 0.45568775E+03</pdfrwt>
<totfact> 0.19816919E+04</totfact>
</mgrwt>
</event>
<event>
 7    0  0.4766352E-002  0.4552301E+03  0.7546771E-02  0.1026174E+00
         21   -1    0    0  502  501  0.00000000000E+00  0.00000000000E+00  0.16196416832E+04  0.16196416832E+04  0.00000000000E+00 0.  1.
         21   -1    0    0  501  502 -0.00000000000E+00 -0.00000000000E+00 -0.31987699171E+02  0.31987699171E+02  0.00000000000E+00 0.  1.
      99926    2    1    2    0    0 -0.14210854715E-13  0.00000000000E+00  0.15876539840E+04  0.16516293823E+04  0.45523009974E+03 0.  0.
      99925    2    3    3    0    0  0.65195747939E+02 -0.39580221530E+02  0.70529655097E+03  0.75719144307E+03  0.26472358634E+03 0.  0.
         25    1    4    4    0    0  0.31025480509E+02 -0.57919147040E+02  0.42349844923E+03  0.44644781625E+03  0.12509000000E+03 0.  0.
         25    1    4    4    0    0  0.34170267430E+02  0.18338925510E+02  0.28179810174E+03  0.31074362682E+03  0.12509000000E+03 0.  0.
         25    1    3    3    0    0 -0.65195747939E+02  0.39580221530E+02  0.88235743301E+03  0.89443793926E+03  0.12509000000E+03 0.  0.
<mgrwt>
<rscale>  2 0.45523010E+03</rscale>
<asrwt>0</asrwt>
<pdfrwt beam="1">  1       21 0.23818255E+00 0.45523010E+03</pdfrwt>
<pdfrwt beam="2">  1       21 0.47040745E-02 0.45523010E+03</pdfrwt>
<totfact> 0.20251634E+04</totfact>
</mgrwt>
</event>
<event>
 7    0  0.4766352E-002  0.4567655E+03  0.7546771E-02  0.1025724E+00
         21   -1    0    0  502  501  0.00000000000E+00  0.00000000000E+00  0.27256559189E+03  0.27256559189E+03  0.00000000000E+00 0. -1.
         21   -1    0    0  501  502 -0.00000000000E+00 -0.00000000000E+00 -0.19136190269E+03  0.19136190269E+03  0.00000000000E+00 0. -1.
      99926    2    1    2    0    0  0.71054273576E-14  0.71054273576E-14  0.81203689202E+02  0.46392749458E+03  0.45676545522E+03 0.  0.
      99925    2    3    3    0    0 -0.51287987759E+02 -0.50379450771E+02 -0.39663899887E+02  0.27571211545E+03  0.26320220155E+03 0.  0.
         25    1    3    3    0    0  0.51287987759E+02  0.50379450771E+02  0.12086758909E+03  0.18821537913E+03  0.12509000000E+03 0.  0.
         25    1    4    4    0    0 -0.36603894404E+02 -0.17585774257E+02 -0.58983729996E+02  0.14413775718E+03  0.12509000000E+03 0.  0.
         25    1    4    4    0    0 -0.14684093354E+02 -0.32793676513E+02  0.19319830109E+02  0.13157435826E+03  0.12509000000E+03 0.  0.
<mgrwt>
<rscale>  2 0.45676546E+03</rscale>
<asrwt>0</asrwt>
<pdfrwt beam="1">  1       21 0.40083175E-01 0.45676546E+03</pdfrwt>
<pdfrwt beam="2">  1       21 0.28141456E-01 0.45676546E+03</pdfrwt>
<totfact> 0.66945336E+04</totfact>
</mgrwt>
</event>
<event>
 7    0  0.4766352E-002  0.4550591E+03  0.7546771E-02  0.1026224E+00
         21   -1    0    0  502  501  0.00000000000E+00  0.00000000000E+00  0.37240086579E+03  0.37240086579E+03  0.00000000000E+00 0. -1.
         21   -1    0    0  501  502 -0.00000000000E+00 -0.00000000000E+00 -0.13901603857E+03  0.13901603857E+03  0.00000000000E+00 0. -1.
      99926    2    1    2    0    0  0.88817841970E-15  0.00000000000E+00  0.23338482722E+03  0.51141690437E+03  0.45505908682E+03 0.  0.
      99925    2    3    3    0    0  0.32922306754E+01 -0.50231134881E+02  0.26082824988E+03  0.37381365135E+03  0.26300430473E+03 0.  0.
         25    1    3    3    0    0 -0.32922306754E+01  0.50231134881E+02 -0.27443422655E+02  0.13760325302E+03  0.12509000000E+03 0.  0.
         25    1    4    4    0    0  0.88680906299E+01  0.15377688449E+02  0.12747289503E+03  0.17947691607E+03  0.12509000000E+03 0.  0.
         25    1    4    4    0    0 -0.55758599545E+01 -0.65608823330E+02  0.13335535484E+03  0.19433673528E+03  0.12509000000E+03 0.  0.
<mgrwt>
<rscale>  2 0.45505909E+03</rscale>
<asrwt>0</asrwt>
<pdfrwt beam="1">  1       21 0.54764833E-01 0.45505909E+03</pdfrwt>
<pdfrwt beam="2">  1       21 0.20443535E-01 0.45505909E+03</pdfrwt>
<totfact> 0.64445578E+04</totfact>
</mgrwt>
</event>
<event>
 7    0  0.4766352E-002  0.4561657E+03  0.7546771E-02  0.1025899E+00
         21   -1    0    0  502  501  0.00000000000E+00  0.00000000000E+00  0.43080574396E+03  0.43080574396E+03  0.00000000000E+00 0. -1.
         21   -1    0    0  501  502 -0.00000000000E+00 -0.00000000000E+00 -0.12075463229E+03  0.12075463229E+03  0.00000000000E+00 0. -1.
      99926    2    1    2    0    0  0.14210854715E-13  0.00000000000E+00  0.31005111167E+03  0.55156037626E+03  0.45616571201E+03 0.  0.
      99925    2    3    3    0    0 -0.97043337278E+02 -0.46774898998E+02  0.14832377213E+03  0.32045749670E+03  0.26284551608E+03 0.  0.
         25    1    4    4    0    0 -0.61851682929E+02 -0.51216637547E+02  0.10994522451E+03  0.18488979186E+03  0.12509000000E+03 0.  0.
         25    1    4    4    0    0 -0.35191654348E+02  0.44417385486E+01  0.38378547624E+02  0.13556770484E+03  0.12509000000E+03 0.  0.
         25    1    3    3    0    0  0.97043337278E+02  0.46774898998E+02  0.16172733954E+03  0.23110287956E+03  0.12509000000E+03 0.  0.
<mgrwt>
<rscale>  2 0.45616571E+03</rscale>
<asrwt>0</asrwt>
<pdfrwt beam="1">  1       21 0.63353785E-01 0.45616571E+03</pdfrwt>
<pdfrwt beam="2">  1       21 0.17758034E-01 0.45616571E+03</pdfrwt>
<totfact> 0.61197162E+04</totfact>
</mgrwt>
</event>
<event>
 7    0  0.4766352E-002  0.4532325E+03  0.7546771E-02  0.1026762E+00
         21   -1    0    0  502  501  0.00000000000E+00  0.00000000000E+00  0.32726496055E+03  0.32726496055E+03  0.00000000000E+00 0. -1.
         21   -1    0    0  501  502 -0.00000000000E+00 -0.00000000000E+00 -0.15692152551E+03  0.15692152551E+03  0.00000000000E+00 0. -1.
      99926    2    1    2    0    0  0.00000000000E+00 -0.35527136788E-14  0.17034343504E+03  0.48418648606E+03  0.45323246510E+03 0.  0.
      99925    2    3    3    0    0  0.16253596847E+02 -0.29625345962E+02  0.22126277423E+03  0.34496677576E+03  0.26249384866E+03 0.  0.
         25    1    4    4    0    0 -0.20542821423E+02  0.11432353664E+02  0.94367134237E+02  0.15844674293E+03  0.12509000000E+03 0.  0.
         25    1    3    3    0    0 -0.16253596847E+02  0.29625345962E+02 -0.50919339187E+02  0.13921971030E+03  0.12509000000E+03 0.  0.
         25    1    4    4    0    0  0.36796418269E+02 -0.41057699626E+02  0.12689563999E+03  0.18652003282E+03  0.12509000000E+03 0.  0.
<mgrwt>
<rscale>  2 0.45323247E+03</rscale>
<asrwt>0</asrwt>
<pdfrwt beam="1">  1       21 0.48127200E-01 0.45323247E+03</pdfrwt>
<pdfrwt beam="2">  1       21 0.23076695E-01 0.45323247E+03</pdfrwt>
<totfact> 0.67336473E+04</totfact>
</mgrwt>
</event>
<event>
 7    0  0.4766352E-002  0.4535707E+03  0.7546771E-02  0.1026663E+00
         21   -1    0    0  502  501  0.00000000000E+00  0.00000000000E+00  0.83552023429E+03  0.83552023429E+03  0.00000000000E+00 0.  1.
         21   -1    0    0  501  502 -0.00000000000E+00 -0.00000000000E+00 -0.61556369669E+02  0.61556369669E+02  0.00000000000E+00 0.  1.
      99926    2    1    2    0    0  0.00000000000E+00 -0.71054273576E-14  0.77396386462E+03  0.89707660396E+03  0.45357068868E+03 0.  0.
      99925    2    3    3    0    0 -0.85266638436E+02 -0.45938093672E+02  0.59817039327E+03  0.66057806115E+03  0.26301111652E+03 0.  0.
         25    1    3    3    0    0  0.85266638436E+02  0.45938093672E+02  0.17579347136E+03  0.23649854281E+03  0.12509000000E+03 0.  0.
         25    1    4    4    0    0 -0.59108453577E+02 -0.60150953562E+02  0.34813198819E+03  0.37941446440E+03  0.12509000000E+03 0.  0.
         25    1    4    4    0    0 -0.26158184859E+02  0.14212859890E+02  0.25003840508E+03  0.28116359675E+03  0.12509000000E+03 0.  0.
<mgrwt>
<rscale>  2 0.45357069E+03</rscale>
<asrwt>0</asrwt>
<pdfrwt beam="1">  1       21 0.12287062E+00 0.45357069E+03</pdfrwt>
<pdfrwt beam="2">  1       21 0.90524078E-02 0.45357069E+03</pdfrwt>
<totfact> 0.43848991E+04</totfact>
</mgrwt>
</event>
<event>
 7    0  0.4766352E-002  0.4554840E+03  0.7546771E-02  0.1026099E+00
         21   -1    0    0  502  501  0.00000000000E+00  0.00000000000E+00  0.17390987998E+03  0.17390987998E+03  0.00000000000E+00 0. -1.
         21   -1    0    0  501  502 -0.00000000000E+00 -0.00000000000E+00 -0.29823738209E+03  0.29823738209E+03  0.00000000000E+00 0. -1.
      99926    2    1    2    0    0  0.00000000000E+00  0.14210854715E-13 -0.12432750210E+03  0.47214726207E+03  0.45548403847E+03 0.  0.
      99925    2    3    3    0    0 -0.29746611301E+02  0.10915278386E+03 -0.89322314471E+02  0.29989145703E+03  0.26297760176E+03 0.  0.
         25    1    4    4    0    0 -0.80590262188E+01  0.14742257451E+02 -0.22768560830E+02  0.12825052640E+03  0.12509000000E+03 0.  0.
         25    1    3    3    0    0  0.29746611301E+02 -0.10915278386E+03 -0.35005187633E+02  0.17225580504E+03  0.12509000000E+03 0.  0.
         25    1    4    4    0    0 -0.21687585082E+02  0.94410526414E+02 -0.66553753641E+02  0.17164093063E+03  0.12509000000E+03 0.  0.
<mgrwt>
<rscale>  2 0.45548404E+03</rscale>
<asrwt>0</asrwt>
<pdfrwt beam="1">  1       21 0.25574983E-01 0.45548404E+03</pdfrwt>
<pdfrwt beam="2">  1       21 0.43858438E-01 0.45548404E+03</pdfrwt>
<totfact> 0.67018633E+04</totfact>
</mgrwt>
</event>
<event>
 7    0  0.4766352E-002  0.4565068E+03  0.7546771E-02  0.1025799E+00
         21   -1    0    0  502  501  0.00000000000E+00  0.00000000000E+00  0.59638708518E+03  0.59638708518E+03  0.00000000000E+00 0.  1.
         21   -1    0    0  501  502 -0.00000000000E+00 -0.00000000000E+00 -0.87358724256E+02  0.87358724256E+02  0.00000000000E+00 0.  1.
      99926    2    1    2    0    0  0.00000000000E+00  0.00000000000E+00  0.50902836093E+03  0.68374580944E+03  0.45650680137E+03 0.  0.
      99925    2    3    3    0    0  0.29581009318E+02  0.69778420678E+02  0.44852552339E+03  0.52546705042E+03  0.26305210862E+03 0.  0.
         25    1    3    3    0    0 -0.29581009318E+02 -0.69778420678E+02  0.60502837537E+02  0.15827875901E+03  0.12509000000E+03 0.  0.
         25    1    4    4    0    0  0.21133702605E+02  0.16300850481E+02  0.14888826445E+03  0.19628442246E+03  0.12509000000E+03 0.  0.
         25    1    4    4    0    0  0.84473067131E+01  0.53477570197E+02  0.29963725894E+03  0.32918262796E+03  0.12509000000E+03 0.  0.
<mgrwt>
<rscale>  2 0.45650680E+03</rscale>
<asrwt>0</asrwt>
<pdfrwt beam="1">  1       21 0.87703981E-01 0.45650680E+03</pdfrwt>
<pdfrwt beam="2">  1       21 0.12846872E-01 0.45650680E+03</pdfrwt>
<totfact> 0.53161146E+04</totfact>
</mgrwt>
</event>
<event>
 7    0  0.4766352E-002  0.4470515E+03  0.7546771E-02  0.1028605E+00
         21   -1    0    0  502  501  0.00000000000E+00  0.00000000000E+00  0.41696699752E+03  0.41696699752E+03  0.00000000000E+00 0. -1.
         21   -1    0    0  501  502 -0.00000000000E+00 -0.00000000000E+00 -0.11982664471E+03  0.11982664471E+03  0.00000000000E+00 0. -1.
      99926    2    1    2    0    0  0.71054273576E-14  0.00000000000E+00  0.29714035280E+03  0.53679364223E+03  0.44705147922E+03 0.  0.
      99925    2    3    3    0    0 -0.55896310096E+02 -0.88777966089E+02  0.20261548437E+03  0.34814480551E+03  0.26295597797E+03 0.  0.
         25    1    4    4    0    0 -0.64392266037E+01 -0.19336463722E+02  0.60223663058E+02  0.14032020582E+03  0.12509000000E+03 0.  0.
         25    1    4    4    0    0 -0.49457083492E+02 -0.69441502367E+02  0.14239182132E+03  0.20782459969E+03  0.12509000000E+03 0.  0.
         25    1    3    3    0    0  0.55896310096E+02  0.88777966089E+02  0.94524868429E+02  0.18864883672E+03  0.12509000000E+03 0.  0.
<mgrwt>
<rscale>  2 0.44705148E+03</rscale>
<asrwt>0</asrwt>
<pdfrwt beam="1">  1       21 0.61318676E-01 0.44705148E+03</pdfrwt>
<pdfrwt beam="2">  1       21 0.17621565E-01 0.44705148E+03</pdfrwt>
<totfact> 0.66855252E+04</totfact>
</mgrwt>
</event>
<event>
 7    0  0.4766352E-002  0.4527478E+03  0.7546771E-02  0.1026906E+00
         21   -1    0    0  502  501  0.00000000000E+00  0.00000000000E+00  0.78257193633E+03  0.78257193633E+03  0.00000000000E+00 0. -1.
         21   -1    0    0  501  502 -0.00000000000E+00 -0.00000000000E+00 -0.65482989951E+02  0.65482989951E+02  0.00000000000E+00 0. -1.
      99926    2    1    2    0    0 -0.71054273576E-14  0.00000000000E+00  0.71708894638E+03  0.84805492628E+03  0.45274783376E+03 0.  0.
      99925    2    3    3    0    0 -0.45968677040E+02  0.30046029947E+02  0.27432872929E+03  0.38469761154E+03  0.26404567300E+03 0.  0.
         25    1    3    3    0    0  0.45968677040E+02 -0.30046029947E+02  0.44276021709E+03  0.46335731474E+03  0.12509000000E+03 0.  0.
         25    1    4    4    0    0 -0.49779002756E+02  0.96972844941E+01  0.18747123056E+03  0.23100856441E+03  0.12509000000E+03 0.  0.
         25    1    4    4    0    0  0.38103257168E+01  0.20348745453E+02  0.86857498728E+02  0.15368904713E+03  0.12509000000E+03 0.  0.
<mgrwt>
<rscale>  2 0.45274783E+03</rscale>
<asrwt>0</asrwt>
<pdfrwt beam="1">  1       21 0.11508410E+00 0.45274783E+03</pdfrwt>
<pdfrwt beam="2">  1       21 0.96298519E-02 0.45274783E+03</pdfrwt>
<totfact> 0.46339814E+04</totfact>
</mgrwt>
</event>
<event>
 6    0  0.4766352E-002  0.4625714E+03  0.7546771E-02  0.1024038E+00
         21   -1    0    0  502  501  0.00000000000E+00  0.00000000000E+00  0.49169776456E+03  0.49169776456E+03  0.00000000000E+00 0. -1.
         21   -1    0    0  501  502 -0.00000000000E+00 -0.00000000000E+00 -0.10879260939E+03  0.10879260939E+03  0.00000000000E+00 0. -1.
      99926    2    1    2    0    0  0.00000000000E+00  0.00000000000E+00  0.38290515517E+03  0.60049037396E+03  0.46257143379E+03 0.  0.
         25    1    3    3    0    0  0.15053099583E+02  0.47432320932E+02  0.27993321822E+03  0.31062281893E+03  0.12509000000E+03 0.  0.
         25    1    3    3    0    0 -0.10093102723E+02 -0.69603947854E+02  0.47582588088E+02  0.15118925580E+03  0.12509000000E+03 0.  0.
         25    1    3    3    0    0 -0.49599968605E+01  0.22171626921E+02  0.55389348859E+02  0.13867829923E+03  0.12509000000E+03 0.  0.
<mgrwt>
<rscale>  2 0.46257143E+03</rscale>
<asrwt>0</asrwt>
<pdfrwt beam="1">  1       21 0.72308494E-01 0.46257143E+03</pdfrwt>
<pdfrwt beam="2">  1       21 0.15998913E-01 0.46257143E+03</pdfrwt>
<totfact> 0.55266787E+04</totfact>
</mgrwt>
</event>
<event>
 7    0  0.4766352E-002  0.4577345E+03  0.7546771E-02  0.1025440E+00
         21   -1    0    0  502  501  0.00000000000E+00  0.00000000000E+00  0.86817584613E+02  0.86817584613E+02  0.00000000000E+00 0. -1.
         21   -1    0    0  501  502 -0.00000000000E+00 -0.00000000000E+00 -0.60333654026E+03  0.60333654026E+03  0.00000000000E+00 0. -1.
      99926    2    1    2    0    0 -0.71054273576E-14  0.00000000000E+00 -0.51651895564E+03  0.69015412487E+03  0.45773451316E+03 0.  0.
      99925    2    3    3    0    0 -0.49067371763E+02  0.97259609255E+02 -0.26726500816E+03  0.39075125748E+03  0.26341777099E+03 0.  0.
         25    1    4    4    0    0 -0.50974451003E+02  0.84404851443E+02 -0.14762466561E+03  0.21717072454E+03  0.12509000000E+03 0.  0.
         25    1    3    3    0    0  0.49067371763E+02 -0.97259609255E+02 -0.24925394748E+03  0.29940286738E+03  0.12509000000E+03 0.  0.
         25    1    4    4    0    0  0.19070792405E+01  0.12854757812E+02 -0.11964034256E+03  0.17358053294E+03  0.12509000000E+03 0.  0.
<mgrwt>
<rscale>  2 0.45773451E+03</rscale>
<asrwt>0</asrwt>
<pdfrwt beam="1">  1       21 0.12767292E-01 0.45773451E+03</pdfrwt>
<pdfrwt beam="2">  1       21 0.88725958E-01 0.45773451E+03</pdfrwt>
<totfact> 0.52305825E+04</totfact>
</mgrwt>
</event>
<event>
 7    0  0.4766352E-002  0.4535058E+03  0.7546771E-02  0.1026682E+00
         21   -1    0    0  502  501  0.00000000000E+00  0.00000000000E+00  0.14996817328E+03  0.14996817328E+03  0.00000000000E+00 0. -1.
         21   -1    0    0  501  502 -0.00000000000E+00 -0.00000000000E+00 -0.34285200269E+03  0.34285200269E+03  0.00000000000E+00 0. -1.
      99926    2    1    2    0    0  0.00000000000E+00  0.00000000000E+00 -0.19288382941E+03  0.49282017596E+03  0.45350584802E+03 0.  0.
      99925    2    3    3    0    0 -0.97425211973E+02  0.35302908470E+02 -0.16689099327E+03  0.32831758357E+03  0.26306247313E+03 0.  0.
         25    1    3    3    0    0  0.97425211973E+02 -0.35302908470E+02 -0.25992836138E+02  0.16450259240E+03  0.12509000000E+03 0.  0.
         25    1    4    4    0    0 -0.30791448627E+02  0.13202536808E+02 -0.36691560134E+02  0.13459643001E+03  0.12509000000E+03 0.  0.
         25    1    4    4    0    0 -0.66633763347E+02  0.22100371662E+02 -0.13019943314E+03  0.19372115356E+03  0.12509000000E+03 0.  0.
<mgrwt>
<rscale>  2 0.45350585E+03</rscale>
<asrwt>0</asrwt>
<pdfrwt beam="1">  1       21 0.22054144E-01 0.45350585E+03</pdfrwt>
<pdfrwt beam="2">  1       21 0.50419411E-01 0.45350585E+03</pdfrwt>
<totfact> 0.66564115E+04</totfact>
</mgrwt>
</event>
<event>
 7    0  0.4766352E-002  0.4505737E+03  0.7546771E-02  0.1027551E+00
         21   -1    0    0  502  501  0.00000000000E+00  0.00000000000E+00  0.18967669471E+03  0.18967669471E+03  0.00000000000E+00 0.  1.
         21   -1    0    0  501  502 -0.00000000000E+00 -0.00000000000E+00 -0.26758247527E+03  0.26758247527E+03  0.00000000000E+00 0.  1.
      99926    2    1    2    0    0 -0.17763568394E-14  0.00000000000E+00 -0.77905780567E+02  0.45725916998E+03  0.45057367642E+03 0.  0.
      99925    2    3    3    0    0 -0.92220298580E+01  0.93077534054E+02  0.74543631688E+01  0.27926384583E+03  0.26302900007E+03 0.  0.
         25    1    3    3    0    0  0.92220298580E+01 -0.93077534054E+02 -0.85360143736E+02  0.17799532415E+03  0.12509000000E+03 0.  0.
         25    1    4    4    0    0 -0.43581591544E+02  0.47330901084E+02 -0.77084648560E+01  0.14087759882E+03  0.12509000000E+03 0.  0.
         25    1    4    4    0    0  0.34359561686E+02  0.45746632970E+02  0.15162828025E+02  0.13838624701E+03  0.12509000000E+03 0.  0.
<mgrwt>
<rscale>  2 0.45057368E+03</rscale>
<asrwt>0</asrwt>
<pdfrwt beam="1">  1       21 0.27893632E-01 0.45057368E+03</pdfrwt>
<pdfrwt beam="2">  1       21 0.39350364E-01 0.45057368E+03</pdfrwt>
<totfact> 0.70848559E+04</totfact>
</mgrwt>
</event>
<event>
 7    0  0.4766352E-002  0.4488866E+03  0.7546771E-02  0.1028055E+00
         21   -1    0    0  502  501  0.00000000000E+00  0.00000000000E+00  0.12760186754E+04  0.12760186754E+04  0.00000000000E+00 0. -1.
         21   -1    0    0  501  502 -0.00000000000E+00 -0.00000000000E+00 -0.39478093468E+02  0.39478093468E+02  0.00000000000E+00 0. -1.
      99926    2    1    2    0    0  0.00000000000E+00  0.00000000000E+00  0.12365405819E+04  0.13154967689E+04  0.44888655375E+03 0.  0.
      99925    2    3    3    0    0 -0.57103842465E+01  0.10364410050E+03  0.70526661743E+03  0.75991217449E+03  0.26323146319E+03 0.  0.
         25    1    4    4    0    0 -0.86062967621E+01  0.74623313407E+02  0.28094328901E+03  0.31657439408E+03  0.12509000000E+03 0.  0.
         25    1    4    4    0    0  0.28959125156E+01  0.29020787094E+02  0.42432332842E+03  0.44333778041E+03  0.12509000000E+03 0.  0.
         25    1    3    3    0    0  0.57103842465E+01 -0.10364410050E+03  0.53127396451E+03  0.55558459439E+03  0.12509000000E+03 0.  0.
<mgrwt>
<rscale>  2 0.44888655E+03</rscale>
<asrwt>0</asrwt>
<pdfrwt beam="1">  1       21 0.18764978E+00 0.44888655E+03</pdfrwt>
<pdfrwt beam="2">  1       21 0.58056028E-02 0.44888655E+03</pdfrwt>
<totfact> 0.30072363E+04</totfact>
</mgrwt>
</event>
<event>
 7    0  0.4766352E-002  0.4550375E+03  0.7546771E-02  0.1026230E+00
         21   -1    0    0  502  501  0.00000000000E+00  0.00000000000E+00  0.32446197945E+02  0.32446197945E+02  0.00000000000E+00 0. -1.
         21   -1    0    0  501  502 -0.00000000000E+00 -0.00000000000E+00 -0.15954032790E+04  0.15954032790E+04  0.00000000000E+00 0. -1.
      99926    2    1    2    0    0  0.00000000000E+00 -0.14210854715E-13 -0.15629570811E+04  0.16278494770E+04  0.45503745161E+03 0.  0.
      99925    2    3    3    0    0 -0.30895429637E+02 -0.89812501493E+02 -0.12038354387E+04  0.12358843317E+04  0.26300095974E+03 0.  0.
         25    1    3    3    0    0  0.30895429637E+02  0.89812501493E+02 -0.35912164238E+03  0.39196514529E+03  0.12509000000E+03 0.  0.
         25    1    4    4    0    0 -0.99878550382E+01 -0.49374748916E+01 -0.60627765140E+03  0.61914799086E+03  0.12509000000E+03 0.  0.
         25    1    4    4    0    0 -0.20907574599E+02 -0.84875026602E+02 -0.59755778731E+03  0.61673634082E+03  0.12509000000E+03 0.  0.
<mgrwt>
<rscale>  2 0.45503745E+03</rscale>
<asrwt>0</asrwt>
<pdfrwt beam="1">  1       21 0.47714989E-02 0.45503745E+03</pdfrwt>
<pdfrwt beam="2">  1       21 0.23461817E+00 0.45503745E+03</pdfrwt>
<totfact> 0.20801642E+04</totfact>
</mgrwt>
</event>
<event>
 7    0  0.4766352E-002  0.4572811E+03  0.7546771E-02  0.1025573E+00
         21   -1    0    0  502  501  0.00000000000E+00  0.00000000000E+00  0.14551236264E+03  0.14551236264E+03  0.00000000000E+00 0. -1.
         21   -1    0    0  501  502 -0.00000000000E+00 -0.00000000000E+00 -0.35925813194E+03  0.35925813194E+03  0.00000000000E+00 0. -1.
      99926    2    1    2    0    0  0.00000000000E+00  0.00000000000E+00 -0.21374576929E+03  0.50477049458E+03  0.45728109332E+03 0.  0.
      99925    2    3    3    0    0 -0.10438704026E+03 -0.97842211981E+01 -0.18729723878E+03  0.33942413682E+03  0.26293745234E+03 0.  0.
         25    1    4    4    0    0 -0.89513775825E+02 -0.19836001500E+02 -0.12105430418E+03  0.19674307022E+03  0.12509000000E+03 0.  0.
         25    1    3    3    0    0  0.10438704026E+03  0.97842211981E+01 -0.26448530513E+02  0.16534635776E+03  0.12509000000E+03 0.  0.
         25    1    4    4    0    0 -0.14873264435E+02  0.10051780302E+02 -0.66242934595E+02  0.14268106660E+03  0.12509000000E+03 0.  0.
<mgrwt>
<rscale>  2 0.45728109E+03</rscale>
<asrwt>0</asrwt>
<pdfrwt beam="1">  1       21 0.21398877E-01 0.45728109E+03</pdfrwt>
<pdfrwt beam="2">  1       21 0.52832077E-01 0.45728109E+03</pdfrwt>
<totfact> 0.63774243E+04</totfact>
</mgrwt>
</event>
<event>
 7    0  0.4766352E-002  0.4502791E+03  0.7546771E-02  0.1027639E+00
         21   -1    0    0  502  501  0.00000000000E+00  0.00000000000E+00  0.98664076633E+03  0.98664076633E+03  0.00000000000E+00 0. -1.
         21   -1    0    0  501  502 -0.00000000000E+00 -0.00000000000E+00 -0.51374140403E+02  0.51374140403E+02  0.00000000000E+00 0. -1.
      99926    2    1    2    0    0  0.00000000000E+00 -0.35527136788E-14  0.93526662592E+03  0.10380149067E+04  0.45027911902E+03 0.  0.
      99925    2    3    3    0    0  0.96145511572E+02 -0.27239213304E+02  0.49224408273E+03  0.56694971378E+03  0.26294829687E+03 0.  0.
         25    1    4    4    0    0  0.28220119802E+02  0.22847188980E+02  0.21895987005E+03  0.25477304017E+03  0.12509000000E+03 0.  0.
         25    1    4    4    0    0  0.67925391770E+02 -0.50086402284E+02  0.27328421268E+03  0.31217667361E+03  0.12509000000E+03 0.  0.
         25    1    3    3    0    0 -0.96145511572E+02  0.27239213304E+02  0.44302254319E+03  0.47106519295E+03  0.12509000000E+03 0.  0.
<mgrwt>
<rscale>  2 0.45027912E+03</rscale>
<asrwt>0</asrwt>
<pdfrwt beam="1">  1       21 0.14509422E+00 0.45027912E+03</pdfrwt>
<pdfrwt beam="2">  1       21 0.75550212E-02 0.45027912E+03</pdfrwt>
<totfact> 0.39142992E+04</totfact>
</mgrwt>
</event>
<event>
 7    0  0.4766352E-002  0.4278178E+03  0.7546771E-02  0.1034552E+00
         21   -1    0    0  502  501  0.00000000000E+00  0.00000000000E+00  0.48983122495E+03  0.48983122495E+03  0.00000000000E+00 0. -1.
         21   -1    0    0  501  502 -0.00000000000E+00 -0.00000000000E+00 -0.93413838632E+02  0.93413838632E+02  0.00000000000E+00 0. -1.
      99926    2    1    2    0    0  0.00000000000E+00  0.22204460493E-15  0.39641738632E+03  0.58324506358E+03  0.42781778834E+03 0.  0.
      99925    2    3    3    0    0  0.10174570878E+02 -0.17203813052E+01  0.14077748576E+03  0.29845435365E+03  0.26296429247E+03 0.  0.
         25    1    4    4    0    0 -0.74131263675E+01  0.97377992788E+01  0.28089373094E+02  0.12878781060E+03  0.12509000000E+03 0.  0.
         25    1    3    3    0    0 -0.10174570878E+02  0.17203813052E+01  0.25563990056E+03  0.28479070993E+03  0.12509000000E+03 0.  0.
         25    1    4    4    0    0  0.17587697246E+02 -0.11458180584E+02  0.11268811266E+03  0.16966654305E+03  0.12509000000E+03 0.  0.
<mgrwt>
<rscale>  2 0.42781779E+03</rscale>
<asrwt>0</asrwt>
<pdfrwt beam="1">  1       21 0.72034003E-01 0.42781779E+03</pdfrwt>
<pdfrwt beam="2">  1       21 0.13737329E-01 0.42781779E+03</pdfrwt>
<totfact> 0.74479902E+04</totfact>
</mgrwt>
</event>
<event>
 7    0  0.4766352E-002  0.4645797E+03  0.7546771E-02  0.1023461E+00
         21   -1    0    0  502  501  0.00000000000E+00  0.00000000000E+00  0.50038868931E+03  0.50038868931E+03  0.00000000000E+00 0. -1.
         21   -1    0    0  501  502 -0.00000000000E+00 -0.00000000000E+00 -0.10783332234E+03  0.10783332234E+03  0.00000000000E+00 0. -1.
      99926    2    1    2    0    0  0.00000000000E+00  0.71054273576E-14  0.39255536696E+03  0.60822201165E+03  0.46457970180E+03 0.  0.
      99925    2    3    3    0    0 -0.10709701459E+01  0.57894471772E+02  0.38539968132E+03  0.47019437393E+03  0.26305307083E+03 0.  0.
         25    1    4    4    0    0  0.11625838125E-02  0.20798335120E+02  0.12062434597E+03  0.17501517559E+03  0.12509000000E+03 0.  0.
         25    1    3    3    0    0  0.10709701459E+01 -0.57894471772E+02  0.71556856453E+01  0.13802763772E+03  0.12509000000E+03 0.  0.
         25    1    4    4    0    0 -0.10721327297E+01  0.37096136651E+02  0.26477533535E+03  0.29517919834E+03  0.12509000000E+03 0.  0.
<mgrwt>
<rscale>  2 0.46457970E+03</rscale>
<asrwt>0</asrwt>
<pdfrwt beam="1">  1       21 0.73586571E-01 0.46457970E+03</pdfrwt>
<pdfrwt beam="2">  1       21 0.15857842E-01 0.46457970E+03</pdfrwt>
<totfact> 0.53973029E+04</totfact>
</mgrwt>
</event>
<event>
 6    0  0.4766352E-002  0.4479268E+03  0.7546771E-02  0.1028342E+00
         21   -1    0    0  502  501  0.00000000000E+00  0.00000000000E+00  0.65375333550E+03  0.65375333550E+03  0.00000000000E+00 0.  1.
         21   -1    0    0  501  502 -0.00000000000E+00 -0.00000000000E+00 -0.76725579725E+02  0.76725579725E+02  0.00000000000E+00 0.  1.
      99926    2    1    2    0    0  0.00000000000E+00  0.00000000000E+00  0.57702775578E+03  0.73047891523E+03  0.44792679609E+03 0.  0.
         25    1    3    3    0    0 -0.67946280637E+02 -0.29713844629E+02  0.29746571945E+03  0.33110870113E+03  0.12509000000E+03 0.  0.
         25    1    3    3    0    0 -0.19782278144E+02  0.19342851425E+02  0.16068911719E+03  0.20550908718E+03  0.12509000000E+03 0.  0.
         25    1    3    3    0    0  0.87728558781E+02  0.10370993204E+02  0.11887291913E+03  0.19386112691E+03  0.12509000000E+03 0.  0.
<mgrwt>
<rscale>  2 0.44792680E+03</rscale>
<asrwt>0</asrwt>
<pdfrwt beam="1">  1       21 0.96140193E-01 0.44792680E+03</pdfrwt>
<pdfrwt beam="2">  1       21 0.11283174E-01 0.44792680E+03</pdfrwt>
<totfact> 0.54233274E+04</totfact>
</mgrwt>
</event>
<event>
 6    0  0.4766352E-002  0.4530324E+03  0.7546771E-02  0.1026822E+00
         21   -1    0    0  502  501  0.00000000000E+00  0.00000000000E+00  0.48553099506E+03  0.48553099506E+03  0.00000000000E+00 0. -1.
         21   -1    0    0  501  502 -0.00000000000E+00 -0.00000000000E+00 -0.10567728643E+03  0.10567728643E+03  0.00000000000E+00 0. -1.
      99926    2    1    2    0    0  0.71054273576E-14  0.00000000000E+00  0.37985370863E+03  0.59120828149E+03  0.45303244049E+03 0.  0.
         25    1    3    3    0    0  0.87765758118E+01  0.48481803924E+01  0.24095691158E+03  0.27167678309E+03  0.12509000000E+03 0.  0.
         25    1    3    3    0    0  0.49090368965E+02  0.29383247200E+02  0.10626017506E+03  0.17381591540E+03  0.12509000000E+03 0.  0.
         25    1    3    3    0    0 -0.57866944777E+02 -0.34231427592E+02  0.32636621996E+02  0.14571558300E+03  0.12509000000E+03 0.  0.
<mgrwt>
<rscale>  2 0.45303244E+03</rscale>
<asrwt>0</asrwt>
<pdfrwt beam="1">  1       21 0.71401616E-01 0.45303244E+03</pdfrwt>
<pdfrwt beam="2">  1       21 0.15540778E-01 0.45303244E+03</pdfrwt>
<totfact> 0.60152638E+04</totfact>
</mgrwt>
</event>
<event>
 7    0  0.4766352E-002  0.4231911E+03  0.7546771E-02  0.1036033E+00
         21   -1    0    0  502  501  0.00000000000E+00  0.00000000000E+00  0.12203894029E+03  0.12203894029E+03  0.00000000000E+00 0. -1.
         21   -1    0    0  501  502 -0.00000000000E+00 -0.00000000000E+00 -0.36687202403E+03  0.36687202403E+03  0.00000000000E+00 0. -1.
      99926    2    1    2    0    0  0.17763568394E-14  0.00000000000E+00 -0.24483308373E+03  0.48891096432E+03  0.42319108231E+03 0.  0.
      99925    2    3    3    0    0 -0.14525156622E+02 -0.54148471174E+02 -0.22426170308E+03  0.35029737586E+03  0.26319556030E+03 0.  0.
         25    1    4    4    0    0  0.98446741135E+01 -0.60053663092E+02 -0.14027960793E+03  0.19755818525E+03  0.12509000000E+03 0.  0.
         25    1    3    3    0    0  0.14525156622E+02  0.54148471174E+02 -0.20571380657E+02  0.13861358847E+03  0.12509000000E+03 0.  0.
         25    1    4    4    0    0 -0.24369830735E+02  0.59051919173E+01 -0.83982095151E+02  0.15273919061E+03  0.12509000000E+03 0.  0.
<mgrwt>
<rscale>  2 0.42319108E+03</rscale>
<asrwt>0</asrwt>
<pdfrwt beam="1">  1       21 0.17946903E-01 0.42319108E+03</pdfrwt>
<pdfrwt beam="2">  1       21 0.53951769E-01 0.42319108E+03</pdfrwt>
<totfact> 0.85737710E+04</totfact>
</mgrwt>
</event>
<event>
 7    0  0.4766352E-002  0.4591692E+03  0.7546771E-02  0.1025022E+00
         21   -1    0    0  502  501  0.00000000000E+00  0.00000000000E+00  0.16096968966E+03  0.16096968966E+03  0.00000000000E+00 0.  1.
         21   -1    0    0  501  502 -0.00000000000E+00 -0.00000000000E+00 -0.32744724366E+03  0.32744724366E+03  0.00000000000E+00 0.  1.
      99926    2    1    2    0    0 -0.35527136788E-14  0.00000000000E+00 -0.16647755400E+03  0.48841693332E+03  0.45916916792E+03 0.  0.
      99925    2    3    3    0    0 -0.23478073629E+02 -0.68030246014E+02 -0.20192794687E+03  0.33981150687E+03  0.26366196192E+03 0.  0.
         25    1    4    4    0    0 -0.32419828013E+02 -0.65886432975E+02 -0.83814812680E+02  0.16752461975E+03  0.12509000000E+03 0.  0.
         25    1    3    3    0    0  0.23478073629E+02  0.68030246014E+02  0.35450392871E+02  0.14860542644E+03  0.12509000000E+03 0.  0.
         25    1    4    4    0    0  0.89417543836E+01 -0.21438130389E+01 -0.11811313419E+03  0.17228688712E+03  0.12509000000E+03 0.  0.
<mgrwt>
<rscale>  2 0.45916917E+03</rscale>
<asrwt>0</asrwt>
<pdfrwt beam="1">  1       21 0.23672013E-01 0.45916917E+03</pdfrwt>
<pdfrwt beam="2">  1       21 0.48154007E-01 0.45916917E+03</pdfrwt>
<totfact> 0.63949457E+04</totfact>
</mgrwt>
</event>
<event>
 7    0  0.4766352E-002  0.4727418E+03  0.7546771E-02  0.1021149E+00
         21   -1    0    0  502  501  0.00000000000E+00  0.00000000000E+00  0.19449308456E+03  0.19449308456E+03  0.00000000000E+00 0. -1.
         21   -1    0    0  501  502 -0.00000000000E+00 -0.00000000000E+00 -0.28726570205E+03  0.28726570205E+03  0.00000000000E+00 0. -1.
      99926    2    1    2    0    0  0.00000000000E+00  0.14210854715E-13 -0.92772617489E+02  0.48175878661E+03  0.47274175817E+03 0.  0.
      99925    2    3    3    0    0 -0.41205973113E+02 -0.12133339956E+03 -0.73687751384E+02  0.30167140148E+03  0.26297532907E+03 0.  0.
         25    1    4    4    0    0 -0.26788891705E+02 -0.10422111663E+03 -0.49917002089E+02  0.17239170823E+03  0.12509000000E+03 0.  0.
         25    1    3    3    0    0  0.41205973113E+02  0.12133339956E+03 -0.19084866105E+02  0.18008738513E+03  0.12509000000E+03 0.  0.
         25    1    4    4    0    0 -0.14417081408E+02 -0.17112282930E+02 -0.23770749295E+02  0.12927969324E+03  0.12509000000E+03 0.  0.
<mgrwt>
<rscale>  2 0.47274176E+03</rscale>
<asrwt>0</asrwt>
<pdfrwt beam="1">  1       21 0.28601925E-01 0.47274176E+03</pdfrwt>
<pdfrwt beam="2">  1       21 0.42244956E-01 0.47274176E+03</pdfrwt>
<totfact> 0.57967129E+04</totfact>
</mgrwt>
</event>
<event>
 7    0  0.4766352E-002  0.4582798E+03  0.7546771E-02  0.1025281E+00
         21   -1    0    0  502  501  0.00000000000E+00  0.00000000000E+00  0.10771334642E+03  0.10771334642E+03  0.00000000000E+00 0. -1.
         21   -1    0    0  501  502 -0.00000000000E+00 -0.00000000000E+00 -0.48745210634E+03  0.48745210634E+03  0.00000000000E+00 0. -1.
      99926    2    1    2    0    0  0.00000000000E+00  0.00000000000E+00 -0.37973875992E+03  0.59516545277E+03  0.45827981669E+03 0.  0.
      99925    2    3    3    0    0  0.85914374572E+02 -0.24073929064E+02 -0.14135763217E+03  0.31155673643E+03  0.26291592957E+03 0.  0.
         25    1    3    3    0    0 -0.85914374572E+02  0.24073929064E+02 -0.23838112775E+03  0.28360871634E+03  0.12509000000E+03 0.  0.
         25    1    4    4    0    0  0.23361811545E+02 -0.21145966458E+02 -0.29209756991E+02  0.13226354048E+03  0.12509000000E+03 0.  0.
         25    1    4    4    0    0  0.62552563027E+02 -0.29279626060E+01 -0.11214787518E+03  0.17929319595E+03  0.12509000000E+03 0.  0.
<mgrwt>
<rscale>  2 0.45827982E+03</rscale>
<asrwt>0</asrwt>
<pdfrwt beam="1">  1       21 0.15840198E-01 0.45827982E+03</pdfrwt>
<pdfrwt beam="2">  1       21 0.71684134E-01 0.45827982E+03</pdfrwt>
<totfact> 0.57472672E+04</totfact>
</mgrwt>
</event>
<event>
 7    0  0.4766352E-002  0.4554040E+03  0.7546771E-02  0.1026123E+00
         21   -1    0    0  502  501  0.00000000000E+00  0.00000000000E+00  0.10265657102E+04  0.10265657102E+04  0.00000000000E+00 0.  1.
         21   -1    0    0  501  502 -0.00000000000E+00 -0.00000000000E+00 -0.50506471122E+02  0.50506471122E+02  0.00000000000E+00 0.  1.
      99926    2    1    2    0    0  0.35527136788E-14  0.00000000000E+00  0.97605923911E+03  0.10770721814E+04  0.45540404653E+03 0.  0.
      99925    2    3    3    0    0  0.11349504759E+02  0.78365526822E+02  0.80640305021E+03  0.85190402734E+03  0.26302970431E+03 0.  0.
         25    1    4    4    0    0 -0.28956871260E+02  0.52298858712E+02  0.35784954441E+03  0.38376747589E+03  0.12509000000E+03 0.  0.
         25    1    3    3    0    0 -0.11349504759E+02 -0.78365526822E+02  0.16965618890E+03  0.22516815402E+03  0.12509000000E+03 0.  0.
         25    1    4    4    0    0  0.40306376020E+02  0.26066668110E+02  0.44855350581E+03  0.46813655145E+03  0.12509000000E+03 0.  0.
<mgrwt>
<rscale>  2 0.45540405E+03</rscale>
<asrwt>0</asrwt>
<pdfrwt beam="1">  1       21 0.15096553E+00 0.45540405E+03</pdfrwt>
<pdfrwt beam="2">  1       21 0.74274229E-02 0.45540405E+03</pdfrwt>
<totfact> 0.36185227E+04</totfact>
</mgrwt>
</event>
<event>
 7    0  0.4766352E-002  0.4594278E+03  0.7546771E-02  0.1024947E+00
         21   -1    0    0  502  501  0.00000000000E+00  0.00000000000E+00  0.29174134886E+03  0.29174134886E+03  0.00000000000E+00 0. -1.
         21   -1    0    0  501  502 -0.00000000000E+00 -0.00000000000E+00 -0.18087414968E+03  0.18087414968E+03  0.00000000000E+00 0. -1.
      99926    2    1    2    0    0  0.00000000000E+00  0.44408920985E-15  0.11086719917E+03  0.47261549854E+03  0.45942776756E+03 0.  0.
      99925    2    3    3    0    0  0.52716721124E+02 -0.26290046460E+01 -0.38345176914E+02  0.27087852714E+03  0.26290465862E+03 0.  0.
         25    1    3    3    0    0 -0.52716721124E+02  0.26290046460E+01  0.14921237609E+03  0.20173697140E+03  0.12509000000E+03 0.  0.
         25    1    4    4    0    0  0.27461273052E+02 -0.34777615807E+02  0.35960864724E+01  0.13275557998E+03  0.12509000000E+03 0.  0.
         25    1    4    4    0    0  0.25255448073E+02  0.32148611161E+02 -0.41941263386E+02  0.13812294716E+03  0.12509000000E+03 0.  0.
<mgrwt>
<rscale>  2 0.45942777E+03</rscale>
<asrwt>0</asrwt>
<pdfrwt beam="1">  1       21 0.42903140E-01 0.45942777E+03</pdfrwt>
<pdfrwt beam="2">  1       21 0.26599139E-01 0.45942777E+03</pdfrwt>
<totfact> 0.64930905E+04</totfact>
</mgrwt>
</event>
<event>
 7    0  0.4766352E-002  0.4465236E+03  0.7546771E-02  0.1028764E+00
         21   -1    0    0  502  501  0.00000000000E+00  0.00000000000E+00  0.18168725747E+03  0.18168725747E+03  0.00000000000E+00 0. -1.
         21   -1    0    0  501  502 -0.00000000000E+00 -0.00000000000E+00 -0.27434958795E+03  0.27434958795E+03  0.00000000000E+00 0. -1.
      99926    2    1    2    0    0  0.14210854715E-13 -0.71054273576E-14 -0.92662330481E+02  0.45603684542E+03  0.44652356813E+03 0.  0.
      99925    2    3    3    0    0  0.94964314782E+02 -0.44215439001E+02 -0.50821983997E+02  0.28759887814E+03  0.26297721294E+03 0.  0.
         25    1    3    3    0    0 -0.94964314782E+02  0.44215439001E+02 -0.41840346485E+02  0.16843796728E+03  0.12509000000E+03 0.  0.
         25    1    4    4    0    0  0.19791164415E+02 -0.41042455147E+01  0.35900384132E+01  0.12676328923E+03  0.12509000000E+03 0.  0.
         25    1    4    4    0    0  0.75173150367E+02 -0.40111193486E+02 -0.54412022410E+02  0.16083558892E+03  0.12509000000E+03 0.  0.
<mgrwt>
<rscale>  2 0.44652357E+03</rscale>
<asrwt>0</asrwt>
<pdfrwt beam="1">  1       21 0.26718714E-01 0.44652357E+03</pdfrwt>
<pdfrwt beam="2">  1       21 0.40345528E-01 0.44652357E+03</pdfrwt>
<totfact> 0.73294360E+04</totfact>
</mgrwt>
</event>
<event>
 7    0  0.4766352E-002  0.4547153E+03  0.7546771E-02  0.1026325E+00
         21   -1    0    0  502  501  0.00000000000E+00  0.00000000000E+00  0.15115817828E+04  0.15115817828E+04  0.00000000000E+00 0.  1.
         21   -1    0    0  501  502 -0.00000000000E+00 -0.00000000000E+00 -0.34196954487E+02  0.34196954487E+02  0.00000000000E+00 0.  1.
      99926    2    1    2    0    0 -0.71054273576E-14  0.14210854715E-13  0.14773848283E+04  0.15457787373E+04  0.45471526664E+03 0.  0.
      99925    2    3    3    0    0 -0.62570873023E+02  0.93799284274E+02  0.95035140357E+03  0.99249295329E+03  0.26298488962E+03 0.  0.
         25    1    4    4    0    0 -0.35333025057E+02  0.58169791379E+02  0.35514077798E+03  0.38262857653E+03  0.12509000000E+03 0.  0.
         25    1    3    3    0    0  0.62570873023E+02 -0.93799284274E+02  0.52703342471E+03  0.55328578397E+03  0.12509000000E+03 0.  0.
         25    1    4    4    0    0 -0.27237847965E+02  0.35629492895E+02  0.59521062559E+03  0.60986437676E+03  0.12509000000E+03 0.  0.
<mgrwt>
<rscale>  2 0.45471527E+03</rscale>
<asrwt>0</asrwt>
<pdfrwt beam="1">  1       21 0.22229139E+00 0.45471527E+03</pdfrwt>
<pdfrwt beam="2">  1       21 0.50289649E-02 0.45471527E+03</pdfrwt>
<totfact> 0.22729381E+04</totfact>
</mgrwt>
</event>
<event>
 7    0  0.4766352E-002  0.4648192E+03  0.7546771E-02  0.1023393E+00
         21   -1    0    0  502  501  0.00000000000E+00  0.00000000000E+00  0.12845767279E+03  0.12845767279E+03  0.00000000000E+00 0. -1.
         21   -1    0    0  501  502 -0.00000000000E+00 -0.00000000000E+00 -0.42048258067E+03  0.42048258067E+03  0.00000000000E+00 0. -1.
      99926    2    1    2    0    0 -0.71054273576E-14  0.00000000000E+00 -0.29202490788E+03  0.54894025346E+03  0.46481916381E+03 0.  0.
      99925    2    3    3    0    0 -0.35092766462E+02  0.11605840951E+03 -0.19977306361E+03  0.35181347307E+03  0.26298742596E+03 0.  0.
         25    1    4    4    0    0  0.19615365180E+02  0.70377221644E+02 -0.11292478148E+03  0.18367697256E+03  0.12509000000E+03 0.  0.
         25    1    3    3    0    0  0.35092766462E+02 -0.11605840951E+03 -0.92251844268E+02  0.19712678039E+03  0.12509000000E+03 0.  0.
         25    1    4    4    0    0 -0.54708131642E+02  0.45681187870E+02 -0.86848282125E+02  0.16813650050E+03  0.12509000000E+03 0.  0.
<mgrwt>
<rscale>  2 0.46481916E+03</rscale>
<asrwt>0</asrwt>
<pdfrwt beam="1">  1       21 0.18890834E-01 0.46481916E+03</pdfrwt>
<pdfrwt beam="2">  1       21 0.61835675E-01 0.46481916E+03</pdfrwt>
<totfact> 0.57348684E+04</totfact>
</mgrwt>
</event>
<event>
 7    0  0.4766352E-002  0.4556540E+03  0.7546771E-02  0.1026049E+00
         21   -1    0    0  502  501  0.00000000000E+00  0.00000000000E+00  0.32896186338E+03  0.32896186338E+03  0.00000000000E+00 0.  1.
         21   -1    0    0  501  502 -0.00000000000E+00 -0.00000000000E+00 -0.15778469282E+03  0.15778469282E+03  0.00000000000E+00 0.  1.
      99926    2    1    2    0    0  0.00000000000E+00  0.00000000000E+00  0.17117717056E+03  0.48674655621E+03  0.45565402035E+03 0.  0.
      99925    2    3    3    0    0  0.52644080832E+02  0.77706765915E+02  0.17548374551E+03  0.33029913564E+03  0.26361569253E+03 0.  0.
         25    1    4    4    0    0  0.53579178467E+02  0.55370081848E+02  0.12731201964E+03  0.19440275917E+03  0.12509000000E+03 0.  0.
         25    1    3    3    0    0 -0.52644080832E+02 -0.77706765915E+02 -0.43065749460E+01  0.15644742057E+03  0.12509000000E+03 0.  0.
         25    1    4    4    0    0 -0.93509763504E+00  0.22336684067E+02  0.48171725871E+02  0.13589637646E+03  0.12509000000E+03 0.  0.
<mgrwt>
<rscale>  2 0.45565402E+03</rscale>
<asrwt>0</asrwt>
<pdfrwt beam="1">  1       21 0.48376745E-01 0.45565402E+03</pdfrwt>
<pdfrwt beam="2">  1       21 0.23203631E-01 0.45565402E+03</pdfrwt>
<totfact> 0.65869531E+04</totfact>
</mgrwt>
</event>
<event>
 7    0  0.4766352E-002  0.4590032E+03  0.7546771E-02  0.1025071E+00
         21   -1    0    0  502  501  0.00000000000E+00  0.00000000000E+00  0.92362671889E+02  0.92362671889E+02  0.00000000000E+00 0.  1.
         21   -1    0    0  501  502 -0.00000000000E+00 -0.00000000000E+00 -0.57026259290E+03  0.57026259290E+03  0.00000000000E+00 0.  1.
      99926    2    1    2    0    0  0.00000000000E+00  0.00000000000E+00 -0.47789992101E+03  0.66262526479E+03  0.45900316669E+03 0.  0.
      99925    2    3    3    0    0  0.87421423306E+01  0.92838009847E+02 -0.40126561858E+03  0.48879878368E+03  0.26308712083E+03 0.  0.
         25    1    3    3    0    0 -0.87421423306E+01 -0.92838009847E+02 -0.76634302428E+02  0.17382648111E+03  0.12509000000E+03 0.  0.
         25    1    4    4    0    0 -0.10825460837E+02  0.17719002235E+02 -0.23262428496E+03  0.26493908677E+03  0.12509000000E+03 0.  0.
         25    1    4    4    0    0  0.19567603168E+02  0.75119007612E+02 -0.16864133362E+03  0.22385969692E+03  0.12509000000E+03 0.  0.
<mgrwt>
<rscale>  2 0.45900317E+03</rscale>
<asrwt>0</asrwt>
<pdfrwt beam="1">  1       21 0.13582746E-01 0.45900317E+03</pdfrwt>
<pdfrwt beam="2">  1       21 0.83862145E-01 0.45900317E+03</pdfrwt>
<totfact> 0.53277486E+04</totfact>
</mgrwt>
</event>
<event>
 7    0  0.4766352E-002  0.4553015E+03  0.7546771E-02  0.1026153E+00
         21   -1    0    0  502  501  0.00000000000E+00  0.00000000000E+00  0.16329475967E+03  0.16329475967E+03  0.00000000000E+00 0.  1.
         21   -1    0    0  501  502 -0.00000000000E+00 -0.00000000000E+00 -0.31737009651E+03  0.31737009651E+03  0.00000000000E+00 0.  1.
      99926    2    1    2    0    0  0.00000000000E+00  0.00000000000E+00 -0.15407533684E+03  0.48066485618E+03  0.45530154243E+03 0.  0.
      99925    2    3    3    0    0  0.57055413977E+02  0.97569614014E+02 -0.10778737608E+03  0.30583570170E+03  0.26294905999E+03 0.  0.
         25    1    4    4    0    0  0.30572835608E+02  0.15206339996E+02 -0.22953695293E+02  0.13168261571E+03  0.12509000000E+03 0.  0.
         25    1    3    3    0    0 -0.57055413977E+02 -0.97569614014E+02 -0.46287960760E+02  0.17482915447E+03  0.12509000000E+03 0.  0.
         25    1    4    4    0    0  0.26482578369E+02  0.82363274019E+02 -0.84833680792E+02  0.17415308599E+03  0.12509000000E+03 0.  0.
<mgrwt>
<rscale>  2 0.45530154E+03</rscale>
<asrwt>0</asrwt>
<pdfrwt beam="1">  1       21 0.24013936E-01 0.45530154E+03</pdfrwt>
<pdfrwt beam="2">  1       21 0.46672072E-01 0.45530154E+03</pdfrwt>
<totfact> 0.66492440E+04</totfact>
</mgrwt>
</event>
<event>
 7    0  0.4766352E-002  0.4587313E+03  0.7546771E-02  0.1025150E+00
         21   -1    0    0  502  501  0.00000000000E+00  0.00000000000E+00  0.32226016274E+03  0.32226016274E+03  0.00000000000E+00 0. -1.
         21   -1    0    0  501  502 -0.00000000000E+00 -0.00000000000E+00 -0.16324887830E+03  0.16324887830E+03  0.00000000000E+00 0. -1.
      99926    2    1    2    0    0 -0.14210854715E-13  0.71054273576E-14  0.15901128444E+03  0.48550904103E+03  0.45873133787E+03 0.  0.
      99925    2    3    3    0    0 -0.11125807742E+03  0.31641604857E+02  0.11569455705E+03  0.30971541794E+03  0.26298071912E+03 0.  0.
         25    1    4    4    0    0 -0.41975512466E+02  0.32198831201E+02  0.93783871014E+02  0.16505038909E+03  0.12509000000E+03 0.  0.
         25    1    3    3    0    0  0.11125807742E+03 -0.31641604857E+02  0.43316727391E+02  0.17579362310E+03  0.12509000000E+03 0.  0.
         25    1    4    4    0    0 -0.69282564955E+02 -0.55722634308E+00  0.21910686038E+02  0.14466502884E+03  0.12509000000E+03 0.  0.
<mgrwt>
<rscale>  2 0.45873134E+03</rscale>
<asrwt>0</asrwt>
<pdfrwt beam="1">  1       21 0.47391200E-01 0.45873134E+03</pdfrwt>
<pdfrwt beam="2">  1       21 0.24007188E-01 0.45873134E+03</pdfrwt>
<totfact> 0.64373262E+04</totfact>
</mgrwt>
</event>
<event>
 7    0  0.4766352E-002  0.4670158E+03  0.7546771E-02  0.1022766E+00
         21   -1    0    0  502  501  0.00000000000E+00  0.00000000000E+00  0.90382950870E+02  0.90382950870E+02  0.00000000000E+00 0. -1.
         21   -1    0    0  501  502 -0.00000000000E+00 -0.00000000000E+00 -0.60327689672E+03  0.60327689672E+03  0.00000000000E+00 0. -1.
      99926    2    1    2    0    0 -0.14210854715E-13 -0.88817841970E-15 -0.51289394585E+03  0.69365984759E+03  0.46701582893E+03 0.  0.
      99925    2    3    3    0    0  0.84089347421E+02  0.11717487526E+01 -0.45491845518E+03  0.53216354124E+03  0.26301110702E+03 0.  0.
         25    1    4    4    0    0  0.21678881592E+02 -0.98318928355E+01 -0.15147535692E+03  0.19788615888E+03  0.12509000000E+03 0.  0.
         25    1    3    3    0    0 -0.84089347421E+02 -0.11717487526E+01 -0.57975490662E+02  0.16149630634E+03  0.12509000000E+03 0.  0.
         25    1    4    4    0    0  0.62410465829E+02  0.11003641588E+02 -0.30344309827E+03  0.33427738236E+03  0.12509000000E+03 0.  0.
<mgrwt>
<rscale>  2 0.46701583E+03</rscale>
<asrwt>0</asrwt>
<pdfrwt beam="1">  1       21 0.13291611E-01 0.46701583E+03</pdfrwt>
<pdfrwt beam="2">  1       21 0.88717188E-01 0.46701583E+03</pdfrwt>
<totfact> 0.48494493E+04</totfact>
</mgrwt>
</event>
<event>
 7    0  0.4766352E-002  0.4541022E+03  0.7546771E-02  0.1026506E+00
         21   -1    0    0  502  501  0.00000000000E+00  0.00000000000E+00  0.88874697721E+02  0.88874697721E+02  0.00000000000E+00 0.  1.
         21   -1    0    0  501  502 -0.00000000000E+00 -0.00000000000E+00 -0.58005496350E+03  0.58005496350E+03  0.00000000000E+00 0.  1.
      99926    2    1    2    0    0 -0.35527136788E-14 -0.28421709430E-13 -0.49118026577E+03  0.66892966122E+03  0.45410223317E+03 0.  0.
      99925    2    3    3    0    0 -0.30633182473E+02 -0.92677243524E+02 -0.22781405827E+03  0.36146140157E+03  0.26311145232E+03 0.  0.
         25    1    3    3    0    0  0.30633182473E+02  0.92677243524E+02 -0.26336620750E+03  0.30746825965E+03  0.12509000000E+03 0.  0.
         25    1    4    4    0    0 -0.33537141722E+01 -0.58108184425E+01 -0.11417268552E+03  0.16949313623E+03  0.12509000000E+03 0.  0.
         25    1    4    4    0    0 -0.27279468301E+02 -0.86866425081E+02 -0.11364137275E+03  0.19196826534E+03  0.12509000000E+03 0.  0.
<mgrwt>
<rscale>  2 0.45410223E+03</rscale>
<asrwt>0</asrwt>
<pdfrwt beam="1">  1       21 0.13069809E-01 0.45410223E+03</pdfrwt>
<pdfrwt beam="2">  1       21 0.85302197E-01 0.45410223E+03</pdfrwt>
<totfact> 0.55010865E+04</totfact>
</mgrwt>
</event>
<event>
 7    0  0.4766352E-002  0.4203356E+03  0.7546771E-02  0.1036957E+00
         21   -1    0    0  502  501  0.00000000000E+00  0.00000000000E+00  0.18758317385E+04  0.18758317385E+04  0.00000000000E+00 0. -1.
         21   -1    0    0  501  502 -0.00000000000E+00 -0.00000000000E+00 -0.23547161248E+02  0.23547161248E+02  0.00000000000E+00 0. -1.
      99926    2    1    2    0    0  0.00000000000E+00 -0.71054273576E-14  0.18522845772E+04  0.18993788997E+04  0.42033563932E+03 0.  0.
      99925    2    3    3    0    0 -0.53633446701E+02 -0.53045284731E+02  0.11581266417E+04  0.11900178518E+04  0.26304908366E+03 0.  0.
         25    1    3    3    0    0  0.53633446701E+02  0.53045284731E+02  0.69415793551E+03  0.70936104796E+03  0.12509000000E+03 0.  0.
         25    1    4    4    0    0  0.46785413621E+01 -0.19271386449E+02  0.65905589229E+03  0.67111508130E+03  0.12509000000E+03 0.  0.
         25    1    4    4    0    0 -0.58311988064E+02 -0.33773898283E+02  0.49907074945E+03  0.51890277048E+03  0.12509000000E+03 0.  0.
<mgrwt>
<rscale>  2 0.42033564E+03</rscale>
<asrwt>0</asrwt>
<pdfrwt beam="1">  1       21 0.27585751E+00 0.42033564E+03</pdfrwt>
<pdfrwt beam="2">  1       21 0.34628191E-02 0.42033564E+03</pdfrwt>
<totfact> 0.20379077E+04</totfact>
</mgrwt>
</event>
<event>
 7    0  0.4766352E-002  0.4268260E+03  0.7546771E-02  0.1034867E+00
         21   -1    0    0  502  501  0.00000000000E+00  0.00000000000E+00  0.38010604041E+03  0.38010604041E+03  0.00000000000E+00 0. -1.
         21   -1    0    0  501  502 -0.00000000000E+00 -0.00000000000E+00 -0.11982209800E+03  0.11982209800E+03  0.00000000000E+00 0. -1.
      99926    2    1    2    0    0 -0.71054273576E-14 -0.35527136788E-14  0.26028394241E+03  0.49992813841E+03  0.42682597496E+03 0.  0.
      99925    2    3    3    0    0  0.56876247516E+02  0.24289088169E+02  0.10154615861E+03  0.28857521215E+03  0.26294327031E+03 0.  0.
         25    1    3    3    0    0 -0.56876247516E+02 -0.24289088169E+02  0.15873778380E+03  0.21135292626E+03  0.12509000000E+03 0.  0.
         25    1    4    4    0    0  0.55709709560E+02 -0.11323465065E+02  0.72295317031E+02  0.15526079210E+03  0.12509000000E+03 0.  0.
         25    1    4    4    0    0  0.11665379561E+01  0.35612553234E+02  0.29250841581E+02  0.13331442004E+03  0.12509000000E+03 0.  0.
<mgrwt>
<rscale>  2 0.42682597E+03</rscale>
<asrwt>0</asrwt>
<pdfrwt beam="1">  1       21 0.55897947E-01 0.42682597E+03</pdfrwt>
<pdfrwt beam="2">  1       21 0.17620897E-01 0.42682597E+03</pdfrwt>
<totfact> 0.82156264E+04</totfact>
</mgrwt>
</event>
<event>
 7    0  0.4766352E-002  0.4531801E+03  0.7546771E-02  0.1026778E+00
         21   -1    0    0  502  501  0.00000000000E+00  0.00000000000E+00  0.79062837720E+02  0.79062837720E+02  0.00000000000E+00 0.  1.
         21   -1    0    0  501  502 -0.00000000000E+00 -0.00000000000E+00 -0.64939554116E+03  0.64939554116E+03  0.00000000000E+00 0.  1.
      99926    2    1    2    0    0  0.00000000000E+00  0.35527136788E-14 -0.57033270344E+03  0.72845837888E+03  0.45318011557E+03 0.  0.
      99925    2    3    3    0    0  0.10219465343E+02  0.29167161754E+02 -0.53158898011E+03  0.59390822097E+03  0.26303036015E+03 0.  0.
         25    1    3    3    0    0 -0.10219465343E+02 -0.29167161754E+02 -0.38743723329E+02  0.13455015791E+03  0.12509000000E+03 0.  0.
         25    1    4    4    0    0 -0.65718596504E+01  0.44320188505E+02 -0.32801669137E+03  0.35390666335E+03  0.12509000000E+03 0.  0.
         25    1    4    4    0    0  0.16791324993E+02 -0.15153026751E+02 -0.20357228874E+03  0.24000155762E+03  0.12509000000E+03 0.  0.
<mgrwt>
<rscale>  2 0.45318012E+03</rscale>
<asrwt>0</asrwt>
<pdfrwt beam="1">  1       21 0.11626888E-01 0.45318012E+03</pdfrwt>
<pdfrwt beam="2">  1       21 0.95499344E-01 0.45318012E+03</pdfrwt>
<totfact> 0.52126983E+04</totfact>
</mgrwt>
</event>
<event>
 7    0  0.4766352E-002  0.4526331E+03  0.7546771E-02  0.1026940E+00
         21   -1    0    0  502  501  0.00000000000E+00  0.00000000000E+00  0.13880446846E+03  0.13880446846E+03  0.00000000000E+00 0.  1.
         21   -1    0    0  501  502 -0.00000000000E+00 -0.00000000000E+00 -0.36900244863E+03  0.36900244863E+03  0.00000000000E+00 0.  1.
      99926    2    1    2    0    0 -0.71054273576E-14  0.71054273576E-14 -0.23019798017E+03  0.50780691709E+03  0.45263313508E+03 0.  0.
      99925    2    3    3    0    0  0.50610915495E+02 -0.37791315560E+02 -0.24754855933E+03  0.36660422945E+03  0.26292341761E+03 0.  0.
         25    1    4    4    0    0  0.11275226777E+02  0.10518579304E+02 -0.15131095245E+03  0.19692710245E+03  0.12509000000E+03 0.  0.
         25    1    4    4    0    0  0.39335688718E+02 -0.48309894864E+02 -0.96237606884E+02  0.16967712700E+03  0.12509000000E+03 0.  0.
         25    1    3    3    0    0 -0.50610915495E+02  0.37791315560E+02  0.17350579160E+02  0.14120268764E+03  0.12509000000E+03 0.  0.
<mgrwt>
<rscale>  2 0.45263314E+03</rscale>
<asrwt>0</asrwt>
<pdfrwt beam="1">  1       21 0.20412422E-01 0.45263314E+03</pdfrwt>
<pdfrwt beam="2">  1       21 0.54265064E-01 0.45263314E+03</pdfrwt>
<totfact> 0.65955880E+04</totfact>
</mgrwt>
</event>
<event>
 7    0  0.4766352E-002  0.4544878E+03  0.7546771E-02  0.1026392E+00
         21   -1    0    0  502  501  0.00000000000E+00  0.00000000000E+00  0.31695747353E+03  0.31695747353E+03  0.00000000000E+00 0.  1.
         21   -1    0    0  501  502 -0.00000000000E+00 -0.00000000000E+00 -0.16292338110E+03  0.16292338110E+03  0.00000000000E+00 0.  1.
      99926    2    1    2    0    0  0.35527136788E-14  0.00000000000E+00  0.15403409244E+03  0.47988085463E+03  0.45448776992E+03 0.  0.
      99925    2    3    3    0    0  0.14510785196E+02 -0.11187243794E+03  0.98724583100E+02  0.30258828519E+03  0.26284429187E+03 0.  0.
         25    1    4    4    0    0  0.30703548576E+02 -0.88494828892E+02  0.69435183392E+02  0.17100524971E+03  0.12509000000E+03 0.  0.
         25    1    4    4    0    0 -0.16192763380E+02 -0.23377609044E+02  0.29289399708E+02  0.13158303548E+03  0.12509000000E+03 0.  0.
         25    1    3    3    0    0 -0.14510785196E+02  0.11187243794E+03  0.55309509338E+02  0.17729256944E+03  0.12509000000E+03 0.  0.
<mgrwt>
<rscale>  2 0.45448777E+03</rscale>
<asrwt>0</asrwt>
<pdfrwt beam="1">  1       21 0.46611393E-01 0.45448777E+03</pdfrwt>
<pdfrwt beam="2">  1       21 0.23959321E-01 0.45448777E+03</pdfrwt>
<totfact> 0.66980689E+04</totfact>
</mgrwt>
</event>
<event>
 7    0  0.4766352E-002  0.4537998E+03  0.7546771E-02  0.1026595E+00
         21   -1    0    0  502  501  0.00000000000E+00  0.00000000000E+00  0.20955643180E+03  0.20955643180E+03  0.00000000000E+00 0.  1.
         21   -1    0    0  501  502 -0.00000000000E+00 -0.00000000000E+00 -0.24567880795E+03  0.24567880795E+03  0.00000000000E+00 0.  1.
      99926    2    1    2    0    0  0.35527136788E-14  0.00000000000E+00 -0.36122376145E+02  0.45523523975E+03  0.45379984294E+03 0.  0.
      99925    2    3    3    0    0 -0.24019388187E+02 -0.84890990172E+02 -0.91969811040E+02  0.29229397639E+03  0.26304735556E+03 0.  0.
         25    1    4    4    0    0 -0.29087345962E+02 -0.59466716008E+02 -0.13033862824E+02  0.14212583751E+03  0.12509000000E+03 0.  0.
         25    1    4    4    0    0  0.50679577749E+01 -0.25424274164E+02 -0.78935948216E+02  0.15016813888E+03  0.12509000000E+03 0.  0.
         25    1    3    3    0    0  0.24019388187E+02  0.84890990172E+02  0.55847434895E+02  0.16294126336E+03  0.12509000000E+03 0.  0.
<mgrwt>
<rscale>  2 0.45379984E+03</rscale>
<asrwt>0</asrwt>
<pdfrwt beam="1">  1       21 0.30817123E-01 0.45379984E+03</pdfrwt>
<pdfrwt beam="2">  1       21 0.36129236E-01 0.45379984E+03</pdfrwt>
<totfact> 0.69188756E+04</totfact>
</mgrwt>
</event>
<event>
 7    0  0.4766352E-002  0.4940846E+03  0.7546771E-02  0.1015335E+00
         21   -1    0    0  502  501  0.00000000000E+00  0.00000000000E+00  0.35432650977E+02  0.35432650977E+02  0.00000000000E+00 0. -1.
         21   -1    0    0  501  502 -0.00000000000E+00 -0.00000000000E+00 -0.17224200278E+04  0.17224200278E+04  0.00000000000E+00 0. -1.
      99926    2    1    2    0    0 -0.71054273576E-14  0.14210854715E-13 -0.16869873768E+04  0.17578526788E+04  0.49408463923E+03 0.  0.
      99925    2    3    3    0    0 -0.41179635534E+02  0.95209803926E+02 -0.13985229471E+04  0.14267637111E+04  0.26273101236E+03 0.  0.
         25    1    4    4    0    0 -0.31053731364E+01  0.80468308344E+02 -0.65452328238E+03  0.67121757074E+03  0.12509000000E+03 0.  0.
         25    1    3    3    0    0  0.41179635534E+02 -0.95209803926E+02 -0.28846442978E+03  0.33108896764E+03  0.12509000000E+03 0.  0.
         25    1    4    4    0    0 -0.38074262398E+02  0.14741495582E+02 -0.74399966467E+03  0.75554614041E+03  0.12509000000E+03 0.  0.
<mgrwt>
<rscale>  2 0.49408464E+03</rscale>
<asrwt>0</asrwt>
<pdfrwt beam="1">  1       21 0.52106850E-02 0.49408464E+03</pdfrwt>
<pdfrwt beam="2">  1       21 0.25329701E+00 0.49408464E+03</pdfrwt>
<totfact> 0.13499140E+04</totfact>
</mgrwt>
</event>
<event>
 7    0  0.4766352E-002  0.4487582E+03  0.7546771E-02  0.1028093E+00
         21   -1    0    0  502  501  0.00000000000E+00  0.00000000000E+00  0.36928883601E+03  0.36928883601E+03  0.00000000000E+00 0. -1.
         21   -1    0    0  501  502 -0.00000000000E+00 -0.00000000000E+00 -0.13633226569E+03  0.13633226569E+03  0.00000000000E+00 0. -1.
      99926    2    1    2    0    0 -0.35527136788E-14  0.71054273576E-14  0.23295657032E+03  0.50562110169E+03  0.44875821421E+03 0.  0.
      99925    2    3    3    0    0  0.22741470387E+02 -0.52452442743E+02  0.45270898400E+02  0.27293708254E+03  0.26301475920E+03 0.  0.
         25    1    4    4    0    0  0.44459579663E+02 -0.20334828223E+02  0.46032323341E+02  0.14197409044E+03  0.12509000000E+03 0.  0.
         25    1    3    3    0    0 -0.22741470387E+02  0.52452442743E+02  0.18768567192E+03  0.23268401915E+03  0.12509000000E+03 0.  0.
         25    1    4    4    0    0 -0.21718109276E+02 -0.32117614520E+02 -0.76142494131E+00  0.13096299210E+03  0.12509000000E+03 0.  0.
<mgrwt>
<rscale>  2 0.44875821E+03</rscale>
<asrwt>0</asrwt>
<pdfrwt beam="1">  1       21 0.54307182E-01 0.44875821E+03</pdfrwt>
<pdfrwt beam="2">  1       21 0.20048863E-01 0.44875821E+03</pdfrwt>
<totfact> 0.68193588E+04</totfact>
</mgrwt>
</event>
<event>
 7    0  0.4766352E-002  0.4562693E+03  0.7546771E-02  0.1025869E+00
         21   -1    0    0  502  501  0.00000000000E+00  0.00000000000E+00  0.13189496205E+03  0.13189496205E+03  0.00000000000E+00 0. -1.
         21   -1    0    0  501  502 -0.00000000000E+00 -0.00000000000E+00 -0.39459751924E+03  0.39459751924E+03  0.00000000000E+00 0. -1.
      99926    2    1    2    0    0  0.71054273576E-14  0.00000000000E+00 -0.26270255720E+03  0.52649248129E+03  0.45626932759E+03 0.  0.
      99925    2    3    3    0    0  0.57407916004E+02 -0.82027825691E+02 -0.22919582799E+03  0.36280240215E+03  0.26281290384E+03 0.  0.
         25    1    4    4    0    0  0.66027550009E+02 -0.51589984472E+02 -0.14287654202E+03  0.20756295001E+03  0.12509000000E+03 0.  0.
         25    1    3    3    0    0 -0.57407916004E+02  0.82027825691E+02 -0.33506729201E+02  0.16369007914E+03  0.12509000000E+03 0.  0.
         25    1    4    4    0    0 -0.86196340049E+01 -0.30437841219E+02 -0.86319285972E+02  0.15523945214E+03  0.12509000000E+03 0.  0.
<mgrwt>
<rscale>  2 0.45626933E+03</rscale>
<asrwt>0</asrwt>
<pdfrwt beam="1">  1       21 0.19396318E-01 0.45626933E+03</pdfrwt>
<pdfrwt beam="2">  1       21 0.58029046E-01 0.45626933E+03</pdfrwt>
<totfact> 0.62810209E+04</totfact>
</mgrwt>
</event>
<event>
 7    0  0.4766352E-002  0.4531202E+03  0.7546771E-02  0.1026796E+00
         21   -1    0    0  502  501  0.00000000000E+00  0.00000000000E+00  0.19270337419E+03  0.19270337419E+03  0.00000000000E+00 0. -1.
         21   -1    0    0  501  502 -0.00000000000E+00 -0.00000000000E+00 -0.26636523688E+03  0.26636523688E+03  0.00000000000E+00 0. -1.
      99926    2    1    2    0    0  0.00000000000E+00  0.00000000000E+00 -0.73661862696E+02  0.45906861107E+03  0.45312020442E+03 0.  0.
      99925    2    3    3    0    0  0.24923898981E+02 -0.92287720700E+02 -0.10439895956E+03  0.29866131275E+03  0.26298519510E+03 0.  0.
         25    1    4    4    0    0  0.52237530165E+01 -0.60706423505E+02 -0.93624344532E+02  0.16770683778E+03  0.12509000000E+03 0.  0.
         25    1    3    3    0    0 -0.24923898981E+02  0.92287720700E+02  0.30737096861E+02  0.16040729832E+03  0.12509000000E+03 0.  0.
         25    1    4    4    0    0  0.19700145965E+02 -0.31581297196E+02 -0.10774615024E+02  0.13095447496E+03  0.12509000000E+03 0.  0.
<mgrwt>
<rscale>  2 0.45312020E+03</rscale>
<asrwt>0</asrwt>
<pdfrwt beam="1">  1       21 0.28338731E-01 0.45312020E+03</pdfrwt>
<pdfrwt beam="2">  1       21 0.39171358E-01 0.45312020E+03</pdfrwt>
<totfact> 0.69281192E+04</totfact>
</mgrwt>
</event>
<event>
 7    0  0.4766352E-002  0.4566127E+03  0.7546771E-02  0.1025768E+00
         21   -1    0    0  502  501  0.00000000000E+00  0.00000000000E+00  0.17069453274E+04  0.17069453274E+04  0.00000000000E+00 0.  1.
         21   -1    0    0  501  502 -0.00000000000E+00 -0.00000000000E+00 -0.30536294091E+02  0.30536294091E+02  0.00000000000E+00 0.  1.
      99926    2    1    2    0    0  0.14210854715E-13  0.35527136788E-14  0.16764090333E+04  0.17374816214E+04  0.45661267838E+03 0.  0.
      99925    2    3    3    0    0  0.10948185531E+03  0.25219032160E+02  0.96240091978E+03  0.10039440488E+04  0.26280381761E+03 0.  0.
         25    1    3    3    0    0 -0.10948185531E+03 -0.25219032160E+02  0.71400811348E+03  0.73353757262E+03  0.12509000000E+03 0.  0.
         25    1    4    4    0    0  0.18453804067E+02  0.25420082375E+02  0.49915859649E+03  0.51555168123E+03  0.12509000000E+03 0.  0.
         25    1    4    4    0    0  0.91028051247E+02 -0.20105021482E+00  0.46324232330E+03  0.48839236760E+03  0.12509000000E+03 0.  0.
<mgrwt>
<rscale>  2 0.45661268E+03</rscale>
<asrwt>0</asrwt>
<pdfrwt beam="1">  1       21 0.25102131E+00 0.45661268E+03</pdfrwt>
<pdfrwt beam="2">  1       21 0.44906326E-02 0.45661268E+03</pdfrwt>
<totfact> 0.18262554E+04</totfact>
</mgrwt>
</event>
<event>
 7    0  0.4766352E-002  0.4548625E+03  0.7546771E-02  0.1026282E+00
         21   -1    0    0  502  501  0.00000000000E+00  0.00000000000E+00  0.18053964696E+03  0.18053964696E+03  0.00000000000E+00 0.  1.
         21   -1    0    0  501  502 -0.00000000000E+00 -0.00000000000E+00 -0.28650204898E+03  0.28650204898E+03  0.00000000000E+00 0.  1.
      99926    2    1    2    0    0  0.00000000000E+00  0.00000000000E+00 -0.10596240202E+03  0.46704169595E+03  0.45486252331E+03 0.  0.
      99925    2    3    3    0    0 -0.47149006632E+02 -0.59485911381E+02 -0.15261512986E+03  0.31346569654E+03  0.26307368277E+03 0.  0.
         25    1    3    3    0    0  0.47149006632E+02  0.59485911381E+02  0.46652727839E+02  0.15357599941E+03  0.12509000000E+03 0.  0.
         25    1    4    4    0    0 -0.16684405322E+02 -0.45675999817E+02 -0.11976878730E+03  0.17987978445E+03  0.12509000000E+03 0.  0.
         25    1    4    4    0    0 -0.30464601310E+02 -0.13809911564E+02 -0.32846342558E+02  0.13358591209E+03  0.12509000000E+03 0.  0.
<mgrwt>
<rscale>  2 0.45486252E+03</rscale>
<asrwt>0</asrwt>
<pdfrwt beam="1">  1       21 0.26549948E-01 0.45486252E+03</pdfrwt>
<pdfrwt beam="2">  1       21 0.42132654E-01 0.45486252E+03</pdfrwt>
<totfact> 0.67730430E+04</totfact>
</mgrwt>
</event>
<event>
 7    0  0.4766352E-002  0.4523552E+03  0.7546771E-02  0.1027022E+00
         21   -1    0    0  502  501  0.00000000000E+00  0.00000000000E+00  0.37319733322E+03  0.37319733322E+03  0.00000000000E+00 0.  1.
         21   -1    0    0  501  502 -0.00000000000E+00 -0.00000000000E+00 -0.13707578267E+03  0.13707578267E+03  0.00000000000E+00 0.  1.
      99926    2    1    2    0    0 -0.14210854715E-13  0.00000000000E+00  0.23612155055E+03  0.51027311589E+03  0.45235524333E+03 0.  0.
      99925    2    3    3    0    0  0.91745647388E+02  0.40046824521E+02  0.95363079769E+02  0.29700927187E+03  0.26286760665E+03 0.  0.
         25    1    3    3    0    0 -0.91745647388E+02 -0.40046824521E+02  0.14075847078E+03  0.21326384402E+03  0.12509000000E+03 0.  0.
         25    1    4    4    0    0  0.48897888616E+02 -0.11150798511E+01  0.83197217668E+02  0.15799218981E+03  0.12509000000E+03 0.  0.
         25    1    4    4    0    0  0.42847758772E+02  0.41161904372E+02  0.12165862101E+02  0.13901708206E+03  0.12509000000E+03 0.  0.
<mgrwt>
<rscale>  2 0.45235524E+03</rscale>
<asrwt>0</asrwt>
<pdfrwt beam="1">  1       21 0.54881961E-01 0.45235524E+03</pdfrwt>
<pdfrwt beam="2">  1       21 0.20158203E-01 0.45235524E+03</pdfrwt>
<totfact> 0.65927695E+04</totfact>
</mgrwt>
</event>
<event>
 7    0  0.4766352E-002  0.4706949E+03  0.7546771E-02  0.1021724E+00
         21   -1    0    0  502  501  0.00000000000E+00  0.00000000000E+00  0.11589483137E+03  0.11589483137E+03  0.00000000000E+00 0. -1.
         21   -1    0    0  501  502 -0.00000000000E+00 -0.00000000000E+00 -0.47791964262E+03  0.47791964262E+03  0.00000000000E+00 0. -1.
      99926    2    1    2    0    0 -0.14210854715E-13  0.00000000000E+00 -0.36202481125E+03  0.59381447400E+03  0.47069487523E+03 0.  0.
      99925    2    3    3    0    0 -0.98842851781E+02  0.80981071386E+02 -0.22503978940E+03  0.36855851385E+03  0.26242070811E+03 0.  0.
         25    1    3    3    0    0  0.98842851781E+02 -0.80981071386E+02 -0.13698502185E+03  0.22525596015E+03  0.12509000000E+03 0.  0.
         25    1    4    4    0    0 -0.56039834145E+02  0.25390658834E+02 -0.15655685436E+03  0.20962515430E+03  0.12509000000E+03 0.  0.
         25    1    4    4    0    0 -0.42803017636E+02  0.55590412552E+02 -0.68482935041E+02  0.15893335955E+03  0.12509000000E+03 0.  0.
<mgrwt>
<rscale>  2 0.47069488E+03</rscale>
<asrwt>0</asrwt>
<pdfrwt beam="1">  1       21 0.17043358E-01 0.47069488E+03</pdfrwt>
<pdfrwt beam="2">  1       21 0.70282299E-01 0.47069488E+03</pdfrwt>
<totfact> 0.52269104E+04</totfact>
</mgrwt>
</event>
<event>
 7    0  0.4766352E-002  0.4837980E+03  0.7546771E-02  0.1018097E+00
         21   -1    0    0  502  501  0.00000000000E+00  0.00000000000E+00  0.11140597963E+03  0.11140597963E+03  0.00000000000E+00 0.  1.
         21   -1    0    0  501  502 -0.00000000000E+00 -0.00000000000E+00 -0.52524228974E+03  0.52524228974E+03  0.00000000000E+00 0.  1.
      99926    2    1    2    0    0  0.14210854715E-13  0.00000000000E+00 -0.41383631011E+03  0.63664826938E+03  0.48379802329E+03 0.  0.
      99925    2    3    3    0    0 -0.76876748976E+02 -0.17922714843E+02 -0.40359971164E+03  0.48837974848E+03  0.26342132270E+03 0.  0.
         25    1    3    3    0    0  0.76876748976E+02  0.17922714843E+02 -0.10236598471E+02  0.14826852090E+03  0.12509000000E+03 0.  0.
         25    1    4    4    0    0 -0.15641814202E+02  0.90606639469E+01 -0.13706982008E+03  0.18644679043E+03  0.12509000000E+03 0.  0.
         25    1    4    4    0    0 -0.61234934774E+02 -0.26983378790E+02 -0.26652989155E+03  0.30193295805E+03  0.12509000000E+03 0.  0.
<mgrwt>
<rscale>  2 0.48379802E+03</rscale>
<asrwt>0</asrwt>
<pdfrwt beam="1">  1       21 0.16383232E-01 0.48379802E+03</pdfrwt>
<pdfrwt beam="2">  1       21 0.77241514E-01 0.48379802E+03</pdfrwt>
<totfact> 0.45273292E+04</totfact>
</mgrwt>
</event>
<event>
 7    0  0.4766352E-002  0.4449798E+03  0.7546771E-02  0.1029230E+00
         21   -1    0    0  502  501  0.00000000000E+00  0.00000000000E+00  0.29990850436E+04  0.29990850436E+04  0.00000000000E+00 0.  1.
         21   -1    0    0  501  502 -0.00000000000E+00 -0.00000000000E+00 -0.16505618943E+02  0.16505618943E+02  0.00000000000E+00 0.  1.
      99926    2    1    2    0    0  0.00000000000E+00 -0.17763568394E-14  0.29825794246E+04  0.30155906625E+04  0.44497979688E+03 0.  0.
      99925    2    3    3    0    0 -0.70409029214E+02  0.90897535686E+01  0.24071825551E+04  0.24224893890E+04  0.26246320027E+03 0.  0.
         25    1    4    4    0    0 -0.38011787888E+02 -0.22029322039E+02  0.94085225062E+03  0.95014770044E+03  0.12509000000E+03 0.  0.
         25    1    4    4    0    0 -0.32397241326E+02  0.31119075607E+02  0.14663303045E+04  0.14723416886E+04  0.12509000000E+03 0.  0.
         25    1    3    3    0    0  0.70409029214E+02 -0.90897535686E+01  0.57539686954E+03  0.59310127347E+03  0.12509000000E+03 0.  0.
<mgrwt>
<rscale>  2 0.44497980E+03</rscale>
<asrwt>0</asrwt>
<pdfrwt beam="1">  1       21 0.44104154E+00 0.44497980E+03</pdfrwt>
<pdfrwt beam="2">  1       21 0.24272990E-02 0.44497980E+03</pdfrwt>
<totfact> 0.34203867E+03</totfact>
</mgrwt>
</event>
<event>
 7    0  0.4766352E-002  0.4536975E+03  0.7546771E-02  0.1026625E+00
         21   -1    0    0  502  501  0.00000000000E+00  0.00000000000E+00  0.24733188168E+03  0.24733188168E+03  0.00000000000E+00 0.  1.
         21   -1    0    0  501  502 -0.00000000000E+00 -0.00000000000E+00 -0.20806193996E+03  0.20806193996E+03  0.00000000000E+00 0.  1.
      99926    2    1    2    0    0  0.00000000000E+00  0.71054273576E-14  0.39269941722E+02  0.45539382164E+03  0.45369748122E+03 0.  0.
      99925    2    3    3    0    0 -0.71693557292E+01 -0.53228738993E+02  0.12332805108E+03  0.29540015874E+03  0.26299571724E+03 0.  0.
         25    1    3    3    0    0  0.71693557292E+01  0.53228738993E+02 -0.84058109361E+02  0.15999366289E+03  0.12509000000E+03 0.  0.
         25    1    4    4    0    0  0.85425451502E+01 -0.65444924636E+02  0.72328497345E+02  0.15885506875E+03  0.12509000000E+03 0.  0.
         25    1    4    4    0    0 -0.15711900879E+02  0.12216185643E+02  0.50999553738E+02  0.13654509000E+03  0.12509000000E+03 0.  0.
<mgrwt>
<rscale>  2 0.45369748E+03</rscale>
<asrwt>0</asrwt>
<pdfrwt beam="1">  1       21 0.36372336E-01 0.45369748E+03</pdfrwt>
<pdfrwt beam="2">  1       21 0.30597344E-01 0.45369748E+03</pdfrwt>
<totfact> 0.69233684E+04</totfact>
</mgrwt>
</event>
<event>
 7    0  0.4766352E-002  0.4612772E+03  0.7546771E-02  0.1024411E+00
         21   -1    0    0  502  501  0.00000000000E+00  0.00000000000E+00  0.49448113334E+03  0.49448113334E+03  0.00000000000E+00 0. -1.
         21   -1    0    0  501  502 -0.00000000000E+00 -0.00000000000E+00 -0.10757571101E+03  0.10757571101E+03  0.00000000000E+00 0. -1.
      99926    2    1    2    0    0  0.00000000000E+00  0.71054273576E-14  0.38690542233E+03  0.60205684435E+03  0.46127718132E+03 0.  0.
      99925    2    3    3    0    0  0.87315880930E+02  0.62238433854E+02  0.17496010496E+03  0.33360571032E+03  0.26302860285E+03 0.  0.
         25    1    4    4    0    0  0.85714938067E+02  0.34153923497E+02  0.87120547457E+02  0.17818821226E+03  0.12509000000E+03 0.  0.
         25    1    3    3    0    0 -0.87315880930E+02 -0.62238433854E+02  0.21194531737E+03  0.26845113404E+03  0.12509000000E+03 0.  0.
         25    1    4    4    0    0  0.16009428629E+01  0.28084510357E+02  0.87839557505E+02  0.15541749806E+03  0.12509000000E+03 0.  0.
<mgrwt>
<rscale>  2 0.46127718E+03</rscale>
<asrwt>0</asrwt>
<pdfrwt beam="1">  1       21 0.72717813E-01 0.46127718E+03</pdfrwt>
<pdfrwt beam="2">  1       21 0.15819958E-01 0.46127718E+03</pdfrwt>
<totfact> 0.55735697E+04</totfact>
</mgrwt>
</event>
<event>
 7    0  0.4766352E-002  0.4562505E+03  0.7546771E-02  0.1025874E+00
         21   -1    0    0  502  501  0.00000000000E+00  0.00000000000E+00  0.32376420538E+02  0.32376420538E+02  0.00000000000E+00 0. -1.
         21   -1    0    0  501  502 -0.00000000000E+00 -0.00000000000E+00 -0.16073776553E+04  0.16073776553E+04  0.00000000000E+00 0. -1.
      99926    2    1    2    0    0  0.35527136788E-14 -0.88817841970E-15 -0.15750012347E+04  0.16397540758E+04  0.45625052298E+03 0.  0.
      99925    2    3    3    0    0 -0.30684454402E+02 -0.58070045758E+01 -0.13855660573E+04  0.14106068489E+04  0.26276058689E+03 0.  0.
         25    1    4    4    0    0 -0.17424859737E+02  0.65530000420E+01 -0.48515785661E+03  0.50137034363E+03  0.12509000000E+03 0.  0.
         25    1    4    4    0    0 -0.13259594665E+02 -0.12360004618E+02 -0.90040820067E+03  0.90923650526E+03  0.12509000000E+03 0.  0.
         25    1    3    3    0    0  0.30684454402E+02  0.58070045758E+01 -0.18943517744E+03  0.22914722690E+03  0.12509000000E+03 0.  0.
<mgrwt>
<rscale>  2 0.45625052E+03</rscale>
<asrwt>0</asrwt>
<pdfrwt beam="1">  1       21 0.47612373E-02 0.45625052E+03</pdfrwt>
<pdfrwt beam="2">  1       21 0.23637912E+00 0.45625052E+03</pdfrwt>
<totfact> 0.20347857E+04</totfact>
</mgrwt>
</event>
<event>
 7    0  0.4766352E-002  0.4491419E+03  0.7546771E-02  0.1027978E+00
         21   -1    0    0  502  501  0.00000000000E+00  0.00000000000E+00  0.22372011037E+03  0.22372011037E+03  0.00000000000E+00 0. -1.
         21   -1    0    0  501  502 -0.00000000000E+00 -0.00000000000E+00 -0.22542499525E+03  0.22542499525E+03  0.00000000000E+00 0. -1.
      99926    2    1    2    0    0  0.00000000000E+00  0.00000000000E+00 -0.17048848879E+01  0.44914510562E+03  0.44914186987E+03 0.  0.
      99925    2    3    3    0    0  0.71646517412E+02  0.58637451173E+02 -0.55891002630E+02  0.28435670314E+03  0.26298927033E+03 0.  0.
         25    1    3    3    0    0 -0.71646517412E+02 -0.58637451173E+02  0.54186117742E+02  0.16478840248E+03  0.12509000000E+03 0.  0.
         25    1    4    4    0    0  0.71397519287E+02  0.15544453645E+02 -0.44565919146E+02  0.15156802119E+03  0.12509000000E+03 0.  0.
         25    1    4    4    0    0  0.24899812509E+00  0.43092997528E+02 -0.11325083483E+02  0.13278868194E+03  0.12509000000E+03 0.  0.
<mgrwt>
<rscale>  2 0.44914187E+03</rscale>
<asrwt>0</asrwt>
<pdfrwt beam="1">  1       21 0.32900016E-01 0.44914187E+03</pdfrwt>
<pdfrwt beam="2">  1       21 0.33150734E-01 0.44914187E+03</pdfrwt>
<totfact> 0.72297540E+04</totfact>
</mgrwt>
</event>
<event>
 7    0  0.4766352E-002  0.4571912E+03  0.7546771E-02  0.1025599E+00
         21   -1    0    0  502  501  0.00000000000E+00  0.00000000000E+00  0.46876115429E+03  0.46876115429E+03  0.00000000000E+00 0.  1.
         21   -1    0    0  501  502 -0.00000000000E+00 -0.00000000000E+00 -0.11147670936E+03  0.11147670936E+03  0.00000000000E+00 0.  1.
      99926    2    1    2    0    0  0.00000000000E+00  0.00000000000E+00  0.35728444493E+03  0.58023786366E+03  0.45719121146E+03 0.  0.
      99925    2    3    3    0    0  0.98405336988E+02 -0.51342201667E+02  0.18598074262E+03  0.34083840972E+03  0.26317741715E+03 0.  0.
         25    1    4    4    0    0  0.90973597881E+02 -0.16873434250E+02  0.97565199048E+02  0.18365016869E+03  0.12509000000E+03 0.  0.
         25    1    3    3    0    0 -0.98405336988E+02  0.51342201667E+02  0.17130370231E+03  0.23939945393E+03  0.12509000000E+03 0.  0.
         25    1    4    4    0    0  0.74317391068E+01 -0.34468767417E+02  0.88415543573E+02  0.15718824103E+03  0.12509000000E+03 0.  0.
<mgrwt>
<rscale>  2 0.45719121E+03</rscale>
<asrwt>0</asrwt>
<pdfrwt beam="1">  1       21 0.68935463E-01 0.45719121E+03</pdfrwt>
<pdfrwt beam="2">  1       21 0.16393634E-01 0.45719121E+03</pdfrwt>
<totfact> 0.58884755E+04</totfact>
</mgrwt>
</event>
<event>
 7    0  0.4766352E-002  0.4612956E+03  0.7546771E-02  0.1024406E+00
         21   -1    0    0  502  501  0.00000000000E+00  0.00000000000E+00  0.48119359526E+03  0.48119359526E+03  0.00000000000E+00 0.  1.
         21   -1    0    0  501  502 -0.00000000000E+00 -0.00000000000E+00 -0.11055509279E+03  0.11055509279E+03  0.00000000000E+00 0.  1.
      99926    2    1    2    0    0  0.00000000000E+00 -0.35527136788E-14  0.37063850247E+03  0.59174868805E+03  0.46129557801E+03 0.  0.
      99925    2    3    3    0    0 -0.63271003221E+02  0.18466157260E+02  0.35896699743E+03  0.44987567813E+03  0.26303346121E+03 0.  0.
         25    1    4    4    0    0 -0.25549838575E+02  0.48384762408E+02  0.19604673127E+03  0.23890522896E+03  0.12509000000E+03 0.  0.
         25    1    4    4    0    0 -0.37721164646E+02 -0.29918605148E+02  0.16292026616E+03  0.21097044917E+03  0.12509000000E+03 0.  0.
         25    1    3    3    0    0  0.63271003221E+02 -0.18466157260E+02  0.11671505040E+02  0.14187300992E+03  0.12509000000E+03 0.  0.
<mgrwt>
<rscale>  2 0.46129558E+03</rscale>
<asrwt>0</asrwt>
<pdfrwt beam="1">  1       21 0.70763763E-01 0.46129558E+03</pdfrwt>
<pdfrwt beam="2">  1       21 0.16258102E-01 0.46129558E+03</pdfrwt>
<totfact> 0.56333362E+04</totfact>
</mgrwt>
</event>
<event>
 7    0  0.4766352E-002  0.4512778E+03  0.7546771E-02  0.1027342E+00
         21   -1    0    0  502  501  0.00000000000E+00  0.00000000000E+00  0.11352458626E+03  0.11352458626E+03  0.00000000000E+00 0.  1.
         21   -1    0    0  501  502 -0.00000000000E+00 -0.00000000000E+00 -0.44847473484E+03  0.44847473484E+03  0.00000000000E+00 0.  1.
      99926    2    1    2    0    0  0.00000000000E+00  0.17763568394E-14 -0.33495014857E+03  0.56199932110E+03  0.45127778018E+03 0.  0.
      99925    2    3    3    0    0  0.29073997745E+02  0.10348246564E+02 -0.34252907299E+03  0.43293603528E+03  0.26297349913E+03 0.  0.
         25    1    4    4    0    0 -0.13714677356E+02  0.90487678697E+01 -0.21474620500E+03  0.24906507831E+03  0.12509000000E+03 0.  0.
         25    1    3    3    0    0 -0.29073997745E+02 -0.10348246564E+02  0.75789244172E+01  0.12906328582E+03  0.12509000000E+03 0.  0.
         25    1    4    4    0    0  0.42788675101E+02  0.12994786942E+01 -0.12778286799E+03  0.18387095696E+03  0.12509000000E+03 0.  0.
<mgrwt>
<rscale>  2 0.45127778E+03</rscale>
<asrwt>0</asrwt>
<pdfrwt beam="1">  1       21 0.16694792E-01 0.45127778E+03</pdfrwt>
<pdfrwt beam="2">  1       21 0.65952168E-01 0.45127778E+03</pdfrwt>
<totfact> 0.62912299E+04</totfact>
</mgrwt>
</event>
<event>
 7    0  0.4766352E-002  0.4622823E+03  0.7546771E-02  0.1024121E+00
         21   -1    0    0  502  501  0.00000000000E+00  0.00000000000E+00  0.34217376237E+03  0.34217376237E+03  0.00000000000E+00 0. -1.
         21   -1    0    0  501  502 -0.00000000000E+00 -0.00000000000E+00 -0.15613772368E+03  0.15613772368E+03  0.00000000000E+00 0. -1.
      99926    2    1    2    0    0  0.71054273576E-14 -0.35527136788E-14  0.18603603869E+03  0.49831148605E+03  0.46228230492E+03 0.  0.
      99925    2    3    3    0    0 -0.61004726251E+02  0.16858687016E+02  0.22605968462E+03  0.35251988038E+03  0.26298572794E+03 0.  0.
         25    1    4    4    0    0 -0.37879896582E+02 -0.30039937351E+02  0.12602848641E+03  0.18403252943E+03  0.12509000000E+03 0.  0.
         25    1    3    3    0    0  0.61004726251E+02 -0.16858687016E+02 -0.40023645929E+02  0.14579160568E+03  0.12509000000E+03 0.  0.
         25    1    4    4    0    0 -0.23124829670E+02  0.46898624367E+02  0.10003119821E+03  0.16848735095E+03  0.12509000000E+03 0.  0.
<mgrwt>
<rscale>  2 0.46228230E+03</rscale>
<asrwt>0</asrwt>
<pdfrwt beam="1">  1       21 0.50319671E-01 0.46228230E+03</pdfrwt>
<pdfrwt beam="2">  1       21 0.22961430E-01 0.46228230E+03</pdfrwt>
<totfact> 0.61742129E+04</totfact>
</mgrwt>
</event>
<event>
 7    0  0.4766352E-002  0.4554155E+03  0.7546771E-02  0.1026119E+00
         21   -1    0    0  502  501  0.00000000000E+00  0.00000000000E+00  0.35135245925E+03  0.35135245925E+03  0.00000000000E+00 0. -1.
         21   -1    0    0  501  502 -0.00000000000E+00 -0.00000000000E+00 -0.14757494206E+03  0.14757494206E+03  0.00000000000E+00 0. -1.
      99926    2    1    2    0    0  0.00000000000E+00  0.35527136788E-14  0.20377751719E+03  0.49892740131E+03  0.45541549739E+03 0.  0.
      99925    2    3    3    0    0  0.17166522458E+02 -0.17314731248E+02  0.24973124551E+03  0.36345141577E+03  0.26293867580E+03 0.  0.
         25    1    4    4    0    0  0.31317238342E+02  0.15994663204E+02  0.93586792159E+02  0.16013305229E+03  0.12509000000E+03 0.  0.
         25    1    4    4    0    0 -0.14150715884E+02 -0.33309394452E+02  0.15614445335E+03  0.20331836349E+03  0.12509000000E+03 0.  0.
         25    1    3    3    0    0 -0.17166522458E+02  0.17314731248E+02 -0.45953728315E+02  0.13547598554E+03  0.12509000000E+03 0.  0.
<mgrwt>
<rscale>  2 0.45541550E+03</rscale>
<asrwt>0</asrwt>
<pdfrwt beam="1">  1       21 0.51669479E-01 0.45541550E+03</pdfrwt>
<pdfrwt beam="2">  1       21 0.21702197E-01 0.45541550E+03</pdfrwt>
<totfact> 0.65130992E+04</totfact>
</mgrwt>
</event>
<event>
 7    0  0.4766352E-002  0.4499538E+03  0.7546771E-02  0.1027736E+00
         21   -1    0    0  502  501  0.00000000000E+00  0.00000000000E+00  0.22463962401E+02  0.22463962401E+02  0.00000000000E+00 0. -1.
         21   -1    0    0  501  502 -0.00000000000E+00 -0.00000000000E+00 -0.22531470729E+04  0.22531470729E+04  0.00000000000E+00 0. -1.
      99926    2    1    2    0    0  0.00000000000E+00  0.00000000000E+00 -0.22306831105E+04  0.22756110353E+04  0.44995382487E+03 0.  0.
      99925    2    3    3    0    0  0.33591442310E+02 -0.74354738003E+02 -0.10492842025E+04  0.10848096665E+04  0.26297844554E+03 0.  0.
         25    1    3    3    0    0 -0.33591442310E+02  0.74354738003E+02 -0.11813989080E+04  0.11908013688E+04  0.12509000000E+03 0.  0.
         25    1    4    4    0    0  0.50181483746E+01 -0.25652205991E+02 -0.36036290070E+03  0.38235081507E+03  0.12509000000E+03 0.  0.
         25    1    4    4    0    0  0.28573293936E+02 -0.48702532012E+02 -0.68892130184E+03  0.70245885145E+03  0.12509000000E+03 0.  0.
<mgrwt>
<rscale>  2 0.44995382E+03</rscale>
<asrwt>0</asrwt>
<pdfrwt beam="1">  1       21 0.33035245E-02 0.44995382E+03</pdfrwt>
<pdfrwt beam="2">  1       21 0.33134510E+00 0.44995382E+03</pdfrwt>
<totfact> 0.10099351E+04</totfact>
</mgrwt>
</event>
<event>
 7    0  0.4766352E-002  0.4560804E+03  0.7546771E-02  0.1025924E+00
         21   -1    0    0  502  501  0.00000000000E+00  0.00000000000E+00  0.12067952213E+03  0.12067952213E+03  0.00000000000E+00 0. -1.
         21   -1    0    0  501  502 -0.00000000000E+00 -0.00000000000E+00 -0.43091260391E+03  0.43091260391E+03  0.00000000000E+00 0. -1.
      99926    2    1    2    0    0 -0.14210854715E-13 -0.71054273576E-14 -0.31023308178E+03  0.55159212604E+03  0.45608037503E+03 0.  0.
      99925    2    3    3    0    0 -0.97852394909E+02 -0.39458640796E+02 -0.24785321167E+03  0.37646122695E+03  0.26298244302E+03 0.  0.
         25    1    4    4    0    0 -0.47348229697E+02 -0.52449712082E+02 -0.95290344851E+02  0.17239659241E+03  0.12509000000E+03 0.  0.
         25    1    4    4    0    0 -0.50504165211E+02  0.12991071287E+02 -0.15256286682E+03  0.20406463454E+03  0.12509000000E+03 0.  0.
         25    1    3    3    0    0  0.97852394909E+02  0.39458640796E+02 -0.62379870104E+02  0.17513089909E+03  0.12509000000E+03 0.  0.
<mgrwt>
<rscale>  2 0.45608038E+03</rscale>
<asrwt>0</asrwt>
<pdfrwt beam="1">  1       21 0.17746989E-01 0.45608038E+03</pdfrwt>
<pdfrwt beam="2">  1       21 0.63369500E-01 0.45608038E+03</pdfrwt>
<totfact> 0.61236327E+04</totfact>
</mgrwt>
</event>
<event>
 7    0  0.4766352E-002  0.4196103E+03  0.7546771E-02  0.1037193E+00
         21   -1    0    0  502  501  0.00000000000E+00  0.00000000000E+00  0.62602859952E+02  0.62602859952E+02  0.00000000000E+00 0. -1.
         21   -1    0    0  501  502 -0.00000000000E+00 -0.00000000000E+00 -0.70313395225E+03  0.70313395225E+03  0.00000000000E+00 0. -1.
      99926    2    1    2    0    0  0.00000000000E+00 -0.22204460493E-15 -0.64053109230E+03  0.76573681220E+03  0.41961027795E+03 0.  0.
      99925    2    3    3    0    0  0.62997215912E+02  0.17353907202E+01 -0.34286203991E+03  0.43675955821E+03  0.26312140256E+03 0.  0.
         25    1    3    3    0    0 -0.62997215912E+02 -0.17353907202E+01 -0.29766905239E+03  0.32897725399E+03  0.12509000000E+03 0.  0.
         25    1    4    4    0    0  0.72787704576E+02  0.36372364933E+01 -0.19397415732E+03  0.24204289131E+03  0.12509000000E+03 0.  0.
         25    1    4    4    0    0 -0.97904886643E+01 -0.19018457731E+01 -0.14888788259E+03  0.19471666690E+03  0.12509000000E+03 0.  0.
<mgrwt>
<rscale>  2 0.41961028E+03</rscale>
<asrwt>0</asrwt>
<pdfrwt beam="1">  1       21 0.92063023E-02 0.41961028E+03</pdfrwt>
<pdfrwt beam="2">  1       21 0.10340206E+00 0.41961028E+03</pdfrwt>
<totfact> 0.65975555E+04</totfact>
</mgrwt>
</event>
<event>
 7    0  0.4766352E-002  0.4501533E+03  0.7546771E-02  0.1027676E+00
         21   -1    0    0  502  501  0.00000000000E+00  0.00000000000E+00  0.47352019668E+03  0.47352019668E+03  0.00000000000E+00 0. -1.
         21   -1    0    0  501  502 -0.00000000000E+00 -0.00000000000E+00 -0.10698485423E+03  0.10698485423E+03  0.00000000000E+00 0. -1.
      99926    2    1    2    0    0  0.00000000000E+00  0.00000000000E+00  0.36653534245E+03  0.58050505091E+03  0.45015325932E+03 0.  0.
      99925    2    3    3    0    0  0.69330272665E+02  0.77612970216E+02  0.19125653600E+03  0.34133852327E+03  0.26287347728E+03 0.  0.
         25    1    3    3    0    0 -0.69330272665E+02 -0.77612970216E+02  0.17527880645E+03  0.23916652764E+03  0.12509000000E+03 0.  0.
         25    1    4    4    0    0  0.96797679908E+01  0.63480078127E+02  0.72056212665E+02  0.15799691171E+03  0.12509000000E+03 0.  0.
         25    1    4    4    0    0  0.59650504674E+02  0.14132892089E+02  0.11920032333E+03  0.18334161156E+03  0.12509000000E+03 0.  0.
<mgrwt>
<rscale>  2 0.45015326E+03</rscale>
<asrwt>0</asrwt>
<pdfrwt beam="1">  1       21 0.69635322E-01 0.45015326E+03</pdfrwt>
<pdfrwt beam="2">  1       21 0.15733067E-01 0.45015326E+03</pdfrwt>
<totfact> 0.62245488E+04</totfact>
</mgrwt>
</event>
<event>
 7    0  0.4766352E-002  0.4538759E+03  0.7546771E-02  0.1026572E+00
         21   -1    0    0  502  501  0.00000000000E+00  0.00000000000E+00  0.65907816157E+03  0.65907816157E+03  0.00000000000E+00 0.  1.
         21   -1    0    0  501  502 -0.00000000000E+00 -0.00000000000E+00 -0.78140692619E+02  0.78140692619E+02  0.00000000000E+00 0.  1.
      99926    2    1    2    0    0 -0.14210854715E-13  0.00000000000E+00  0.58093746896E+03  0.73721885419E+03  0.45387585984E+03 0.  0.
      99925    2    3    3    0    0  0.88853484395E+02  0.65487491367E+02  0.33349188020E+03  0.43878899525E+03  0.26293610436E+03 0.  0.
         25    1    3    3    0    0 -0.88853484395E+02 -0.65487491367E+02  0.24744558876E+03  0.29842985894E+03  0.12509000000E+03 0.  0.
         25    1    4    4    0    0  0.85440253681E+02  0.25478994924E+02  0.18741934466E+03  0.24232774291E+03  0.12509000000E+03 0.  0.
         25    1    4    4    0    0  0.34132307147E+01  0.40008496443E+02  0.14607253554E+03  0.19646125234E+03  0.12509000000E+03 0.  0.
<mgrwt>
<rscale>  2 0.45387586E+03</rscale>
<asrwt>0</asrwt>
<pdfrwt beam="1">  1       21 0.96923256E-01 0.45387586E+03</pdfrwt>
<pdfrwt beam="2">  1       21 0.11491279E-01 0.45387586E+03</pdfrwt>
<totfact> 0.51380978E+04</totfact>
</mgrwt>
</event>
<event>
 7    0  0.4766352E-002  0.4598020E+03  0.7546771E-02  0.1024839E+00
         21   -1    0    0  502  501  0.00000000000E+00  0.00000000000E+00  0.83403689672E+02  0.83403689672E+02  0.00000000000E+00 0. -1.
         21   -1    0    0  501  502 -0.00000000000E+00 -0.00000000000E+00 -0.63371866296E+03  0.63371866296E+03  0.00000000000E+00 0. -1.
      99926    2    1    2    0    0  0.00000000000E+00  0.00000000000E+00 -0.55031497329E+03  0.71712235263E+03  0.45980202133E+03 0.  0.
      99925    2    3    3    0    0  0.29764395033E+01 -0.11597935968E+03 -0.31453658760E+03  0.42609138122E+03  0.26298389522E+03 0.  0.
         25    1    4    4    0    0  0.28649401883E+02 -0.25860252583E+02 -0.13481681031E+03  0.18791652757E+03  0.12509000000E+03 0.  0.
         25    1    3    3    0    0 -0.29764395033E+01  0.11597935968E+03 -0.23577838568E+03  0.29103097141E+03  0.12509000000E+03 0.  0.
         25    1    4    4    0    0 -0.25672962379E+02 -0.90119107099E+02 -0.17971977729E+03  0.23817485365E+03  0.12509000000E+03 0.  0.
<mgrwt>
<rscale>  2 0.45980202E+03</rscale>
<asrwt>0</asrwt>
<pdfrwt beam="1">  1       21 0.12265248E-01 0.45980202E+03</pdfrwt>
<pdfrwt beam="2">  1       21 0.93193925E-01 0.45980202E+03</pdfrwt>
<totfact> 0.50065067E+04</totfact>
</mgrwt>
</event>
<event>
 6    0  0.4766352E-002  0.4402969E+03  0.7546771E-02  0.1030656E+00
         21   -1    0    0  502  501  0.00000000000E+00  0.00000000000E+00  0.10177481689E+04  0.10177481689E+04  0.00000000000E+00 0.  1.
         21   -1    0    0  501  502 -0.00000000000E+00 -0.00000000000E+00 -0.47620164599E+02  0.47620164599E+02  0.00000000000E+00 0.  1.
      99926    2    1    2    0    0  0.14210854715E-13 -0.35527136788E-14  0.97012800432E+03  0.10653683335E+04  0.44029687859E+03 0.  0.
         25    1    3    3    0    0 -0.92517789877E+02  0.21285008348E+02  0.33164048294E+03  0.36694074596E+03  0.12509000000E+03 0.  0.
         25    1    3    3    0    0  0.31629978332E+01 -0.46797179307E+01  0.33888598575E+03  0.36127984133E+03  0.12509000000E+03 0.  0.
         25    1    3    3    0    0  0.89354792044E+02 -0.16605290418E+02  0.29960153563E+03  0.33714774622E+03  0.12509000000E+03 0.  0.
<mgrwt>
<rscale>  2 0.44029688E+03</rscale>
<asrwt>0</asrwt>
<pdfrwt beam="1">  1       21 0.14966883E+00 0.44029688E+03</pdfrwt>
<pdfrwt beam="2">  1       21 0.70029660E-02 0.44029688E+03</pdfrwt>
<totfact> 0.41252466E+04</totfact>
</mgrwt>
</event>
<event>
 7    0  0.4766352E-002  0.4548838E+03  0.7546771E-02  0.1026276E+00
         21   -1    0    0  502  501  0.00000000000E+00  0.00000000000E+00  0.17975432544E+03  0.17975432544E+03  0.00000000000E+00 0.  1.
         21   -1    0    0  501  502 -0.00000000000E+00 -0.00000000000E+00 -0.28778063688E+03  0.28778063688E+03  0.00000000000E+00 0.  1.
      99926    2    1    2    0    0  0.00000000000E+00 -0.17763568394E-14 -0.10802631144E+03  0.46753496232E+03  0.45488378409E+03 0.  0.
      99925    2    3    3    0    0 -0.10299773385E+03 -0.12528491667E+02 -0.22774448255E+02  0.28401143642E+03  0.26339765421E+03 0.  0.
         25    1    3    3    0    0  0.10299773385E+03  0.12528491667E+02 -0.85251863182E+02  0.18352352590E+03  0.12509000000E+03 0.  0.
         25    1    4    4    0    0 -0.58964062878E+02  0.17983903056E+02 -0.44121616238E+02  0.14626826929E+03  0.12509000000E+03 0.  0.
         25    1    4    4    0    0 -0.44033670976E+02 -0.30512394723E+02  0.21347167982E+02  0.13774316713E+03  0.12509000000E+03 0.  0.
<mgrwt>
<rscale>  2 0.45488378E+03</rscale>
<asrwt>0</asrwt>
<pdfrwt beam="1">  1       21 0.26434460E-01 0.45488378E+03</pdfrwt>
<pdfrwt beam="2">  1       21 0.42320681E-01 0.45488378E+03</pdfrwt>
<totfact> 0.67682027E+04</totfact>
</mgrwt>
</event>
<event>
 7    0  0.4766352E-002  0.4536054E+03  0.7546771E-02  0.1026652E+00
         21   -1    0    0  502  501  0.00000000000E+00  0.00000000000E+00  0.55008803693E+03  0.55008803693E+03  0.00000000000E+00 0. -1.
         21   -1    0    0  501  502 -0.00000000000E+00 -0.00000000000E+00 -0.93511312383E+02  0.93511312383E+02  0.00000000000E+00 0. -1.
      99926    2    1    2    0    0  0.00000000000E+00 -0.14210854715E-13  0.45657672455E+03  0.64359934932E+03  0.45360535385E+03 0.  0.
      99925    2    3    3    0    0 -0.65476172793E+02  0.88880288579E+02  0.31269452461E+03  0.42328949829E+03  0.26307660241E+03 0.  0.
         25    1    3    3    0    0  0.65476172793E+02 -0.88880288579E+02  0.14388219994E+03  0.22030985103E+03  0.12509000000E+03 0.  0.
         25    1    4    4    0    0 -0.71115208071E+01  0.22723374544E+02  0.18135754540E+03  0.22159646399E+03  0.12509000000E+03 0.  0.
         25    1    4    4    0    0 -0.58364651986E+02  0.66156914035E+02  0.13133697921E+03  0.20169303430E+03  0.12509000000E+03 0.  0.
<mgrwt>
<rscale>  2 0.45360535E+03</rscale>
<asrwt>0</asrwt>
<pdfrwt beam="1">  1       21 0.80895298E-01 0.45360535E+03</pdfrwt>
<pdfrwt beam="2">  1       21 0.13751664E-01 0.45360535E+03</pdfrwt>
<totfact> 0.56693050E+04</totfact>
</mgrwt>
</event>
<event>
 7    0  0.4766352E-002  0.4598096E+03  0.7546771E-02  0.1024836E+00
         21   -1    0    0  502  501  0.00000000000E+00  0.00000000000E+00  0.10839367011E+04  0.10839367011E+04  0.00000000000E+00 0.  1.
         21   -1    0    0  501  502 -0.00000000000E+00 -0.00000000000E+00 -0.48763195098E+02  0.48763195098E+02  0.00000000000E+00 0.  1.
      99926    2    1    2    0    0  0.00000000000E+00  0.00000000000E+00  0.10351735060E+04  0.11326998962E+04  0.45980959899E+03 0.  0.
      99925    2    3    3    0    0 -0.48963260516E+02 -0.19050382591E+02  0.38914378501E+03  0.47257700881E+03  0.26293692377E+03 0.  0.
         25    1    3    3    0    0  0.48963260516E+02  0.19050382591E+02  0.64602972099E+03  0.66012288739E+03  0.12509000000E+03 0.  0.
         25    1    4    4    0    0 -0.33885855705E+02  0.10062568408E+02  0.25518637744E+03  0.28638628080E+03  0.12509000000E+03 0.  0.
         25    1    4    4    0    0 -0.15077404811E+02 -0.29112950999E+02  0.13395740757E+03  0.18619072801E+03  0.12509000000E+03 0.  0.
<mgrwt>
<rscale>  2 0.45980960E+03</rscale>
<asrwt>0</asrwt>
<pdfrwt beam="1">  1       21 0.15940244E+00 0.45980960E+03</pdfrwt>
<pdfrwt beam="2">  1       21 0.71710588E-02 0.45980960E+03</pdfrwt>
<totfact> 0.33106534E+04</totfact>
</mgrwt>
</event>
<event>
 7    0  0.4766352E-002  0.4555970E+03  0.7546771E-02  0.1026066E+00
         21   -1    0    0  502  501  0.00000000000E+00  0.00000000000E+00  0.28223734217E+03  0.28223734217E+03  0.00000000000E+00 0. -1.
         21   -1    0    0  501  502 -0.00000000000E+00 -0.00000000000E+00 -0.18385998651E+03  0.18385998651E+03  0.00000000000E+00 0. -1.
      99926    2    1    2    0    0 -0.44408920985E-15  0.17763568394E-14  0.98377355665E+02  0.46609732868E+03  0.45559698824E+03 0.  0.
      99925    2    3    3    0    0 -0.35445726907E+01  0.39421896870E+01 -0.54198562203E+02  0.26872705820E+03  0.26315136862E+03 0.  0.
         25    1    3    3    0    0  0.35445726907E+01 -0.39421896870E+01  0.15257591787E+03  0.19737027048E+03  0.12509000000E+03 0.  0.
         25    1    4    4    0    0  0.73489224324E+00 -0.15623163349E+02  0.10459845411E+02  0.12649719272E+03  0.12509000000E+03 0.  0.
         25    1    4    4    0    0 -0.42794649339E+01  0.19565353036E+02 -0.64658407613E+02  0.14222986548E+03  0.12509000000E+03 0.  0.
<mgrwt>
<rscale>  2 0.45559699E+03</rscale>
<asrwt>0</asrwt>
<pdfrwt beam="1">  1       21 0.41505491E-01 0.45559699E+03</pdfrwt>
<pdfrwt beam="2">  1       21 0.27038233E-01 0.45559699E+03</pdfrwt>
<totfact> 0.67407873E+04</totfact>
</mgrwt>
</event>
<event>
 7    0  0.4766352E-002  0.4461746E+03  0.7546771E-02  0.1028869E+00
         21   -1    0    0  502  501  0.00000000000E+00  0.00000000000E+00  0.25638330758E+03  0.25638330758E+03  0.00000000000E+00 0. -1.
         21   -1    0    0  501  502 -0.00000000000E+00 -0.00000000000E+00 -0.19411540972E+03  0.19411540972E+03  0.00000000000E+00 0. -1.
      99926    2    1    2    0    0  0.00000000000E+00 -0.14210854715E-13  0.62267897865E+02  0.45049871730E+03  0.44617463306E+03 0.  0.
      99925    2    3    3    0    0 -0.45594903277E+01 -0.10145818541E+03  0.14767307481E+02  0.28251548443E+03  0.26321545022E+03 0.  0.
         25    1    4    4    0    0 -0.21327934209E+02 -0.85464628734E+02  0.24431907307E+02  0.15493066106E+03  0.12509000000E+03 0.  0.
         25    1    3    3    0    0  0.45594903277E+01  0.10145818541E+03  0.47500590383E+02  0.16798323287E+03  0.12509000000E+03 0.  0.
         25    1    4    4    0    0  0.16768443881E+02 -0.15993556672E+02 -0.96645998259E+01  0.12758482337E+03  0.12509000000E+03 0.  0.
<mgrwt>
<rscale>  2 0.44617463E+03</rscale>
<asrwt>0</asrwt>
<pdfrwt beam="1">  1       21 0.37703428E-01 0.44617463E+03</pdfrwt>
<pdfrwt beam="2">  1       21 0.28546384E-01 0.44617463E+03</pdfrwt>
<totfact> 0.73947610E+04</totfact>
</mgrwt>
</event>
<event>
 7    0  0.4766352E-002  0.4452678E+03  0.7546771E-02  0.1029143E+00
         21   -1    0    0  502  501  0.00000000000E+00  0.00000000000E+00  0.23436252854E+02  0.23436252854E+02  0.00000000000E+00 0.  1.
         21   -1    0    0  501  502 -0.00000000000E+00 -0.00000000000E+00 -0.21149218221E+04  0.21149218221E+04  0.00000000000E+00 0.  1.
      99926    2    1    2    0    0  0.00000000000E+00 -0.71054273576E-14 -0.20914855692E+04  0.21383580749E+04  0.44526775130E+03 0.  0.
      99925    2    3    3    0    0 -0.45472934764E+02 -0.50094416783E+02 -0.94961408148E+03  0.98766470092E+03  0.26293995378E+03 0.  0.
         25    1    4    4    0    0 -0.55024767909E+02 -0.22585512370E+01 -0.44721095896E+03  0.46763017017E+03  0.12509000000E+03 0.  0.
         25    1    4    4    0    0  0.95518331451E+01 -0.47835865546E+02 -0.50240312252E+03  0.52003453074E+03  0.12509000000E+03 0.  0.
         25    1    3    3    0    0  0.45472934764E+02  0.50094416783E+02 -0.11418714877E+04  0.11506933740E+04  0.12509000000E+03 0.  0.
<mgrwt>
<rscale>  2 0.44526775E+03</rscale>
<asrwt>0</asrwt>
<pdfrwt beam="1">  1       21 0.34465078E-02 0.44526775E+03</pdfrwt>
<pdfrwt beam="2">  1       21 0.31101791E+00 0.44526775E+03</pdfrwt>
<totfact> 0.12497722E+04</totfact>
</mgrwt>
</event>
<event>
 7    0  0.4766352E-002  0.4494603E+03  0.7546771E-02  0.1027883E+00
         21   -1    0    0  502  501  0.00000000000E+00  0.00000000000E+00  0.14124272892E+03  0.14124272892E+03  0.00000000000E+00 0.  1.
         21   -1    0    0  501  502 -0.00000000000E+00 -0.00000000000E+00 -0.35756626989E+03  0.35756626989E+03  0.00000000000E+00 0.  1.
      99926    2    1    2    0    0  0.00000000000E+00  0.00000000000E+00 -0.21632354097E+03  0.49880899880E+03  0.44946027957E+03 0.  0.
      99925    2    3    3    0    0 -0.73885783783E+02 -0.23939074066E+02 -0.21987512905E+03  0.35152590341E+03  0.26304600373E+03 0.  0.
         25    1    3    3    0    0  0.73885783783E+02  0.23939074066E+02  0.35515880834E+01  0.14728309540E+03  0.12509000000E+03 0.  0.
         25    1    4    4    0    0 -0.69089568314E+02 -0.37821013874E+02 -0.10810049786E+03  0.18313116414E+03  0.12509000000E+03 0.  0.
         25    1    4    4    0    0 -0.47962154689E+01  0.13881939808E+02 -0.11177463119E+03  0.16839473927E+03  0.12509000000E+03 0.  0.
<mgrwt>
<rscale>  2 0.44946028E+03</rscale>
<asrwt>0</asrwt>
<pdfrwt beam="1">  1       21 0.20770990E-01 0.44946028E+03</pdfrwt>
<pdfrwt beam="2">  1       21 0.52583275E-01 0.44946028E+03</pdfrwt>
<totfact> 0.68309115E+04</totfact>
</mgrwt>
</event>
<event>
 7    0  0.4766352E-002  0.4532394E+03  0.7546771E-02  0.1026760E+00
         21   -1    0    0  502  501  0.00000000000E+00  0.00000000000E+00  0.34303916419E+03  0.34303916419E+03  0.00000000000E+00 0.  1.
         21   -1    0    0  501  502 -0.00000000000E+00 -0.00000000000E+00 -0.14971030679E+03  0.14971030679E+03  0.00000000000E+00 0.  1.
      99926    2    1    2    0    0  0.00000000000E+00  0.00000000000E+00  0.19332885740E+03  0.49274947098E+03  0.45323944450E+03 0.  0.
      99925    2    3    3    0    0 -0.35525443525E+02 -0.10567839848E+03  0.12604435124E+03  0.31218177202E+03  0.26294543019E+03 0.  0.
         25    1    3    3    0    0  0.35525443525E+02  0.10567839848E+03  0.67284506156E+02  0.18056769897E+03  0.12509000000E+03 0.  0.
         25    1    4    4    0    0  0.26606841583E+01 -0.59462305043E+02  0.25489169158E+02  0.14085471524E+03  0.12509000000E+03 0.  0.
         25    1    4    4    0    0 -0.38186127684E+02 -0.46216093433E+02  0.10055518208E+03  0.17132705678E+03  0.12509000000E+03 0.  0.
<mgrwt>
<rscale>  2 0.45323944E+03</rscale>
<asrwt>0</asrwt>
<pdfrwt beam="1">  1       21 0.50446936E-01 0.45323944E+03</pdfrwt>
<pdfrwt beam="2">  1       21 0.22016222E-01 0.45323944E+03</pdfrwt>
<totfact> 0.66710596E+04</totfact>
</mgrwt>
</event>
<event>
 7    0  0.4766352E-002  0.4583106E+03  0.7546771E-02  0.1025272E+00
         21   -1    0    0  502  501  0.00000000000E+00  0.00000000000E+00  0.11890747091E+03  0.11890747091E+03  0.00000000000E+00 0.  1.
         21   -1    0    0  501  502 -0.00000000000E+00 -0.00000000000E+00 -0.44162196917E+03  0.44162196917E+03  0.00000000000E+00 0.  1.
      99926    2    1    2    0    0  0.00000000000E+00 -0.35527136788E-14 -0.32271449826E+03  0.56052944007E+03  0.45831059970E+03 0.  0.
      99925    2    3    3    0    0 -0.18094923797E+02 -0.17574907510E+02 -0.63668435908E+02  0.27175846826E+03  0.26298800676E+03 0.  0.
         25    1    3    3    0    0  0.18094923797E+02  0.17574907510E+02 -0.25904606235E+03  0.28877097181E+03  0.12509000000E+03 0.  0.
         25    1    4    4    0    0 -0.20673260263E+02 -0.44621526902E+02 -0.16864327579E+02  0.13546356705E+03  0.12509000000E+03 0.  0.
         25    1    4    4    0    0  0.25783364660E+01  0.27046619392E+02 -0.46804108329E+02  0.13629490121E+03  0.12509000000E+03 0.  0.
<mgrwt>
<rscale>  2 0.45831060E+03</rscale>
<asrwt>0</asrwt>
<pdfrwt beam="1">  1       21 0.17486393E-01 0.45831060E+03</pdfrwt>
<pdfrwt beam="2">  1       21 0.64944408E-01 0.45831060E+03</pdfrwt>
<totfact> 0.59599931E+04</totfact>
</mgrwt>
</event>
<event>
 7    0  0.4766352E-002  0.4685790E+03  0.7546771E-02  0.1022322E+00
         21   -1    0    0  502  501  0.00000000000E+00  0.00000000000E+00  0.74768301438E+03  0.74768301438E+03  0.00000000000E+00 0. -1.
         21   -1    0    0  501  502 -0.00000000000E+00 -0.00000000000E+00 -0.73415560155E+02  0.73415560155E+02  0.00000000000E+00 0. -1.
      99926    2    1    2    0    0 -0.35527136788E-14  0.00000000000E+00  0.67426745423E+03  0.82109857454E+03  0.46857898937E+03 0.  0.
      99925    2    3    3    0    0 -0.27406554532E+02 -0.94226813020E+02  0.55605440079E+03  0.62297829384E+03  0.26320267177E+03 0.  0.
         25    1    4    4    0    0  0.23206265962E+02 -0.62839344407E+02  0.26351765927E+03  0.29929313195E+03  0.12509000000E+03 0.  0.
         25    1    4    4    0    0 -0.50612820494E+02 -0.31387468613E+02  0.29253674153E+03  0.32368516189E+03  0.12509000000E+03 0.  0.
         25    1    3    3    0    0  0.27406554532E+02  0.94226813020E+02  0.11821305344E+03  0.19812028070E+03  0.12509000000E+03 0.  0.
<mgrwt>
<rscale>  2 0.46857899E+03</rscale>
<asrwt>0</asrwt>
<pdfrwt beam="1">  1       21 0.10995338E+00 0.46857899E+03</pdfrwt>
<pdfrwt beam="2">  1       21 0.10796406E-01 0.46857899E+03</pdfrwt>
<totfact> 0.42093660E+04</totfact>
</mgrwt>
</event>
<event>
 7    0  0.4766352E-002  0.4548756E+03  0.7546771E-02  0.1026278E+00
         21   -1    0    0  502  501  0.00000000000E+00  0.00000000000E+00  0.24847152584E+03  0.24847152584E+03  0.00000000000E+00 0.  1.
         21   -1    0    0  501  502 -0.00000000000E+00 -0.00000000000E+00 -0.20818467653E+03  0.20818467653E+03  0.00000000000E+00 0.  1.
      99926    2    1    2    0    0  0.17763568394E-14  0.00000000000E+00  0.40286849310E+02  0.45665620237E+03  0.45487564997E+03 0.  0.
      99925    2    3    3    0    0  0.13010867348E+02 -0.67861961200E+02  0.11484419917E+03  0.29547048662E+03  0.26332316634E+03 0.  0.
         25    1    4    4    0    0  0.27455874268E+02 -0.60538113447E+02  0.34086465898E+02  0.14569860490E+03  0.12509000000E+03 0.  0.
         25    1    3    3    0    0 -0.13010867348E+02  0.67861961200E+02 -0.74557349855E+02  0.16118571576E+03  0.12509000000E+03 0.  0.
         25    1    4    4    0    0 -0.14445006920E+02 -0.73238477523E+01  0.80757733267E+02  0.14977188172E+03  0.12509000000E+03 0.  0.
<mgrwt>
<rscale>  2 0.45487565E+03</rscale>
<asrwt>0</asrwt>
<pdfrwt beam="1">  1       21 0.36539930E-01 0.45487565E+03</pdfrwt>
<pdfrwt beam="2">  1       21 0.30615394E-01 0.45487565E+03</pdfrwt>
<totfact> 0.68492581E+04</totfact>
</mgrwt>
</event>
<event>
 7    0  0.4766352E-002  0.4547774E+03  0.7546771E-02  0.1026307E+00
         21   -1    0    0  502  501  0.00000000000E+00  0.00000000000E+00  0.14371773510E+04  0.14371773510E+04  0.00000000000E+00 0. -1.
         21   -1    0    0  501  502 -0.00000000000E+00 -0.00000000000E+00 -0.35977202078E+02  0.35977202078E+02  0.00000000000E+00 0. -1.
      99926    2    1    2    0    0  0.00000000000E+00  0.00000000000E+00  0.14012001489E+04  0.14731545531E+04  0.45477739600E+03 0.  0.
      99925    2    3    3    0    0 -0.87270660187E+02 -0.28695386756E+02  0.66916306734E+03  0.72484620069E+03  0.26302701497E+03 0.  0.
         25    1    4    4    0    0 -0.14058685373E+02 -0.17348409171E+02  0.38868690649E+03  0.40892986356E+03  0.12509000000E+03 0.  0.
         25    1    3    3    0    0  0.87270660187E+02  0.28695386756E+02  0.73203708157E+03  0.74830835239E+03  0.12509000000E+03 0.  0.
         25    1    4    4    0    0 -0.73211974815E+02 -0.11346977585E+02  0.28047616085E+03  0.31591633712E+03  0.12509000000E+03 0.  0.
<mgrwt>
<rscale>  2 0.45477740E+03</rscale>
<asrwt>0</asrwt>
<pdfrwt beam="1">  1       21 0.21134957E+00 0.45477740E+03</pdfrwt>
<pdfrwt beam="2">  1       21 0.52907660E-02 0.45477740E+03</pdfrwt>
<totfact> 0.24487109E+04</totfact>
</mgrwt>
</event>
<event>
 7    0  0.4766352E-002  0.4590457E+03  0.7546771E-02  0.1025058E+00
         21   -1    0    0  502  501  0.00000000000E+00  0.00000000000E+00  0.18315836708E+03  0.18315836708E+03  0.00000000000E+00 0.  1.
         21   -1    0    0  501  502 -0.00000000000E+00 -0.00000000000E+00 -0.28762402093E+03  0.28762402093E+03  0.00000000000E+00 0.  1.
      99926    2    1    2    0    0 -0.14210854715E-13  0.00000000000E+00 -0.10446565385E+03  0.47078238801E+03  0.45904573195E+03 0.  0.
      99925    2    3    3    0    0 -0.68123283020E+02  0.95048527918E+02 -0.67242531102E+02  0.29554519642E+03  0.26296463790E+03 0.  0.
         25    1    3    3    0    0  0.68123283020E+02 -0.95048527918E+02 -0.37223122745E+02  0.17523719159E+03  0.12509000000E+03 0.  0.
         25    1    4    4    0    0 -0.71677144084E+02  0.67630767772E+02 -0.45373289872E+02  0.16558314307E+03  0.12509000000E+03 0.  0.
         25    1    4    4    0    0  0.35538610632E+01  0.27417760146E+02 -0.21869241230E+02  0.12996205335E+03  0.12509000000E+03 0.  0.
<mgrwt>
<rscale>  2 0.45904573E+03</rscale>
<asrwt>0</asrwt>
<pdfrwt beam="1">  1       21 0.26935054E-01 0.45904573E+03</pdfrwt>
<pdfrwt beam="2">  1       21 0.42297650E-01 0.45904573E+03</pdfrwt>
<totfact> 0.65258223E+04</totfact>
</mgrwt>
</event>
<event>
 7    0  0.4766352E-002  0.4527185E+03  0.7546771E-02  0.1026914E+00
         21   -1    0    0  502  501  0.00000000000E+00  0.00000000000E+00  0.26555339901E+03  0.26555339901E+03  0.00000000000E+00 0. -1.
         21   -1    0    0  501  502 -0.00000000000E+00 -0.00000000000E+00 -0.19294993460E+03  0.19294993460E+03  0.00000000000E+00 0. -1.
      99926    2    1    2    0    0 -0.35527136788E-14 -0.14210854715E-13  0.72603464401E+02  0.45850333361E+03  0.45271850403E+03 0.  0.
      99925    2    3    3    0    0 -0.17976966542E+02  0.86974804006E+02 -0.21627457222E+02  0.27846233120E+03  0.26303181392E+03 0.  0.
         25    1    4    4    0    0 -0.46772034390E+02  0.28624736479E+02 -0.12953492511E+02  0.13719438694E+03  0.12509000000E+03 0.  0.
         25    1    3    3    0    0  0.17976966542E+02 -0.86974804006E+02  0.94230921623E+02  0.18004100241E+03  0.12509000000E+03 0.  0.
         25    1    4    4    0    0  0.28795067848E+02  0.58350067527E+02 -0.86739647108E+01  0.14126794426E+03  0.12509000000E+03 0.  0.
<mgrwt>
<rscale>  2 0.45271850E+03</rscale>
<asrwt>0</asrwt>
<pdfrwt beam="1">  1       21 0.39051971E-01 0.45271850E+03</pdfrwt>
<pdfrwt beam="2">  1       21 0.28374990E-01 0.45271850E+03</pdfrwt>
<totfact> 0.69546472E+04</totfact>
</mgrwt>
</event>
<event>
 7    0  0.4766352E-002  0.4526313E+03  0.7546771E-02  0.1026940E+00
         21   -1    0    0  502  501  0.00000000000E+00  0.00000000000E+00  0.40894826535E+03  0.40894826535E+03  0.00000000000E+00 0.  1.
         21   -1    0    0  501  502 -0.00000000000E+00 -0.00000000000E+00 -0.12524512986E+03  0.12524512986E+03  0.00000000000E+00 0.  1.
      99926    2    1    2    0    0 -0.14210854715E-13  0.14210854715E-13  0.28370313549E+03  0.53419339522E+03  0.45263132283E+03 0.  0.
      99925    2    3    3    0    0  0.87638342678E+02 -0.67767099706E+02  0.17642094436E+03  0.33562392238E+03  0.26314674377E+03 0.  0.
         25    1    4    4    0    0  0.53823193655E+02 -0.23342272458E+02  0.13337255490E+03  0.19203526853E+03  0.12509000000E+03 0.  0.
         25    1    3    3    0    0 -0.87638342678E+02  0.67767099706E+02  0.10728219113E+03  0.19856947284E+03  0.12509000000E+03 0.  0.
         25    1    4    4    0    0  0.33815149024E+02 -0.44424827248E+02  0.43048389464E+02  0.14358865385E+03  0.12509000000E+03 0.  0.
<mgrwt>
<rscale>  2 0.45263132E+03</rscale>
<asrwt>0</asrwt>
<pdfrwt beam="1">  1       21 0.60139450E-01 0.45263132E+03</pdfrwt>
<pdfrwt beam="2">  1       21 0.18418402E-01 0.45263132E+03</pdfrwt>
<totfact> 0.64116914E+04</totfact>
</mgrwt>
</event>
<event>
 7    0  0.4766352E-002  0.4469670E+03  0.7546771E-02  0.1028630E+00
         21   -1    0    0  502  501  0.00000000000E+00  0.00000000000E+00  0.16939218353E+03  0.16939218353E+03  0.00000000000E+00 0. -1.
         21   -1    0    0  501  502 -0.00000000000E+00 -0.00000000000E+00 -0.29484754775E+03  0.29484754775E+03  0.00000000000E+00 0. -1.
      99926    2    1    2    0    0  0.00000000000E+00  0.00000000000E+00 -0.12545536423E+03  0.46423973128E+03  0.44696697829E+03 0.  0.
      99925    2    3    3    0    0  0.86166269068E+02  0.26078092945E+02 -0.13637734553E+03  0.30973571634E+03  0.26312115222E+03 0.  0.
         25    1    3    3    0    0 -0.86166269068E+02 -0.26078092945E+02  0.10921981297E+02  0.15450401494E+03  0.12509000000E+03 0.  0.
         25    1    4    4    0    0  0.85624904164E+02  0.13443333638E+02 -0.80291052701E+02  0.17206541976E+03  0.12509000000E+03 0.  0.
         25    1    4    4    0    0  0.54136490375E+00  0.12634759307E+02 -0.56086292825E+02  0.13767029658E+03  0.12509000000E+03 0.  0.
<mgrwt>
<rscale>  2 0.44696698E+03</rscale>
<asrwt>0</asrwt>
<pdfrwt beam="1">  1       21 0.24910615E-01 0.44696698E+03</pdfrwt>
<pdfrwt beam="2">  1       21 0.43359933E-01 0.44696698E+03</pdfrwt>
<totfact> 0.72369648E+04</totfact>
</mgrwt>
</event>
<event>
 7    0  0.4766352E-002  0.4513726E+03  0.7546771E-02  0.1027314E+00
         21   -1    0    0  502  501  0.00000000000E+00  0.00000000000E+00  0.13849232452E+03  0.13849232452E+03  0.00000000000E+00 0. -1.
         21   -1    0    0  501  502 -0.00000000000E+00 -0.00000000000E+00 -0.36777709236E+03  0.36777709236E+03  0.00000000000E+00 0. -1.
      99926    2    1    2    0    0  0.71054273576E-14 -0.71054273576E-14 -0.22928476784E+03  0.50626941688E+03  0.45137259299E+03 0.  0.
      99925    2    3    3    0    0  0.42533951112E+02 -0.63042650216E+02 -0.23342738554E+03  0.35981743798E+03  0.26305271641E+03 0.  0.
         25    1    4    4    0    0  0.10699028374E+02 -0.59467465748E+02 -0.84053557564E+02  0.16236796892E+03  0.12509000000E+03 0.  0.
         25    1    3    3    0    0 -0.42533951112E+02  0.63042650216E+02  0.41426176961E+01  0.14645197890E+03  0.12509000000E+03 0.  0.
         25    1    4    4    0    0  0.31834922737E+02 -0.35751844673E+01 -0.14937382797E+03  0.19744946906E+03  0.12509000000E+03 0.  0.
<mgrwt>
<rscale>  2 0.45137259E+03</rscale>
<asrwt>0</asrwt>
<pdfrwt beam="1">  1       21 0.20366519E-01 0.45137259E+03</pdfrwt>
<pdfrwt beam="2">  1       21 0.54084866E-01 0.45137259E+03</pdfrwt>
<totfact> 0.66733032E+04</totfact>
</mgrwt>
</event>
<event>
 7    0  0.4766352E-002  0.4559658E+03  0.7546771E-02  0.1025958E+00
         21   -1    0    0  502  501  0.00000000000E+00  0.00000000000E+00  0.55821862057E+03  0.55821862057E+03  0.00000000000E+00 0.  1.
         21   -1    0    0  501  502 -0.00000000000E+00 -0.00000000000E+00 -0.93110837750E+02  0.93110837750E+02  0.00000000000E+00 0.  1.
      99926    2    1    2    0    0  0.00000000000E+00  0.00000000000E+00  0.46510778282E+03  0.65132945832E+03  0.45596580314E+03 0.  0.
      99925    2    3    3    0    0  0.17794302165E+02  0.79530622192E+02  0.40620630399E+03  0.49083444480E+03  0.26319789845E+03 0.  0.
         25    1    4    4    0    0  0.48190136592E+02  0.31226527720E+02  0.19012816823E+03  0.23472028833E+03  0.12509000000E+03 0.  0.
         25    1    4    4    0    0 -0.30395834428E+02  0.48304094472E+02  0.21607813576E+03  0.25611415648E+03  0.12509000000E+03 0.  0.
         25    1    3    3    0    0 -0.17794302165E+02 -0.79530622192E+02  0.58901478832E+02  0.16049501352E+03  0.12509000000E+03 0.  0.
<mgrwt>
<rscale>  2 0.45596580E+03</rscale>
<asrwt>0</asrwt>
<pdfrwt beam="1">  1       21 0.82090972E-01 0.45596580E+03</pdfrwt>
<pdfrwt beam="2">  1       21 0.13692770E-01 0.45596580E+03</pdfrwt>
<totfact> 0.55203175E+04</totfact>
</mgrwt>
</event>
<event>
 7    0  0.4766352E-002  0.4472497E+03  0.7546771E-02  0.1028545E+00
         21   -1    0    0  502  501  0.00000000000E+00  0.00000000000E+00  0.43003440164E+03  0.43003440164E+03  0.00000000000E+00 0. -1.
         21   -1    0    0  501  502 -0.00000000000E+00 -0.00000000000E+00 -0.11628855255E+03  0.11628855255E+03  0.00000000000E+00 0. -1.
      99926    2    1    2    0    0 -0.88817841970E-15  0.00000000000E+00  0.31374584910E+03  0.54632295419E+03  0.44724972046E+03 0.  0.
      99925    2    3    3    0    0 -0.48183598483E+01 -0.79215424677E+02  0.11338124329E+03  0.29714072478E+03  0.26294296700E+03 0.  0.
         25    1    4    4    0    0 -0.20415813230E+02 -0.40270871755E+02  0.17701255798E+02  0.13416180939E+03  0.12509000000E+03 0.  0.
         25    1    4    4    0    0  0.15597453382E+02 -0.38944552922E+02  0.95679987491E+02  0.16297891539E+03  0.12509000000E+03 0.  0.
         25    1    3    3    0    0  0.48183598483E+01  0.79215424677E+02  0.20036460581E+03  0.24918222942E+03  0.12509000000E+03 0.  0.
<mgrwt>
<rscale>  2 0.44724972E+03</rscale>
<asrwt>0</asrwt>
<pdfrwt beam="1">  1       21 0.63240353E-01 0.44724972E+03</pdfrwt>
<pdfrwt beam="2">  1       21 0.17101258E-01 0.44724972E+03</pdfrwt>
<totfact> 0.66069565E+04</totfact>
</mgrwt>
</event>
<event>
 6    0  0.4766352E-002  0.4396578E+03  0.7546771E-02  0.1030852E+00
         21   -1    0    0  502  501  0.00000000000E+00  0.00000000000E+00  0.30853508606E+03  0.30853508606E+03  0.00000000000E+00 0. -1.
         21   -1    0    0  501  502 -0.00000000000E+00 -0.00000000000E+00 -0.15662639150E+03  0.15662639150E+03  0.00000000000E+00 0. -1.
      99926    2    1    2    0    0  0.00000000000E+00  0.00000000000E+00  0.15190869455E+03  0.46516147756E+03  0.43965776318E+03 0.  0.
         25    1    3    3    0    0  0.12926442647E+02 -0.30985372016E+02 -0.14977612460E+02  0.13038030209E+03  0.12509000000E+03 0.  0.
         25    1    3    3    0    0  0.31416144810E+02 -0.45721672512E+02  0.82892075889E+02  0.15998765526E+03  0.12509000000E+03 0.  0.
         25    1    3    3    0    0 -0.44342587457E+02  0.76707044527E+02  0.83994231123E+02  0.17479352020E+03  0.12509000000E+03 0.  0.
<mgrwt>
<rscale>  2 0.43965776E+03</rscale>
<asrwt>0</asrwt>
<pdfrwt beam="1">  1       21 0.45372807E-01 0.43965776E+03</pdfrwt>
<pdfrwt beam="2">  1       21 0.23033293E-01 0.43965776E+03</pdfrwt>
<totfact> 0.76720707E+04</totfact>
</mgrwt>
</event>
<event>
 7    0  0.4766352E-002  0.4623976E+03  0.7546771E-02  0.1024088E+00
         21   -1    0    0  502  501  0.00000000000E+00  0.00000000000E+00  0.34979320347E+02  0.34979320347E+02  0.00000000000E+00 0.  1.
         21   -1    0    0  501  502 -0.00000000000E+00 -0.00000000000E+00 -0.15281284082E+04  0.15281284082E+04  0.00000000000E+00 0.  1.
      99926    2    1    2    0    0  0.00000000000E+00  0.00000000000E+00 -0.14931490878E+04  0.15631077285E+04  0.46239763460E+03 0.  0.
      99925    2    3    3    0    0 -0.24566843970E+02  0.10948454171E+03 -0.78999174205E+03  0.84014980740E+03  0.26301017407E+03 0.  0.
         25    1    3    3    0    0  0.24566843970E+02 -0.10948454171E+03 -0.70315734577E+03  0.72295792112E+03  0.12509000000E+03 0.  0.
         25    1    4    4    0    0  0.21330583935E+02  0.76564479430E+02 -0.38554285192E+03  0.41304710638E+03  0.12509000000E+03 0.  0.
         25    1    4    4    0    0 -0.45897427904E+02  0.32920062281E+02 -0.40444889014E+03  0.42710270102E+03  0.12509000000E+03 0.  0.
<mgrwt>
<rscale>  2 0.46239763E+03</rscale>
<asrwt>0</asrwt>
<pdfrwt beam="1">  1       21 0.51440177E-02 0.46239763E+03</pdfrwt>
<pdfrwt beam="2">  1       21 0.22472477E+00 0.46239763E+03</pdfrwt>
<totfact> 0.21039089E+04</totfact>
</mgrwt>
</event>
<event>
 7    0  0.4766352E-002  0.4490007E+03  0.7546771E-02  0.1028020E+00
         21   -1    0    0  502  501  0.00000000000E+00  0.00000000000E+00  0.54299939987E+03  0.54299939987E+03  0.00000000000E+00 0.  1.
         21   -1    0    0  501  502 -0.00000000000E+00 -0.00000000000E+00 -0.92818550860E+02  0.92818550860E+02  0.00000000000E+00 0.  1.
      99926    2    1    2    0    0  0.00000000000E+00  0.00000000000E+00  0.45018084901E+03  0.63581795073E+03  0.44900074572E+03 0.  0.
      99925    2    3    3    0    0  0.59114140827E+02 -0.12038059309E+02  0.41081453494E+03  0.49146902867E+03  0.26293312363E+03 0.  0.
         25    1    4    4    0    0  0.15443480323E+02  0.31977492552E+02  0.19083995708E+03  0.23092955296E+03  0.12509000000E+03 0.  0.
         25    1    3    3    0    0 -0.59114140827E+02  0.12038059309E+02  0.39366314072E+02  0.14434892206E+03  0.12509000000E+03 0.  0.
         25    1    4    4    0    0  0.43670660504E+02 -0.44015551861E+02  0.21997457786E+03  0.26053947571E+03  0.12509000000E+03 0.  0.
<mgrwt>
<rscale>  2 0.44900075E+03</rscale>
<asrwt>0</asrwt>
<pdfrwt beam="1">  1       21 0.79852851E-01 0.44900075E+03</pdfrwt>
<pdfrwt beam="2">  1       21 0.13649787E-01 0.44900075E+03</pdfrwt>
<totfact> 0.59283461E+04</totfact>
</mgrwt>
</event>
<event>
 7    0  0.4766352E-002  0.4622126E+03  0.7546771E-02  0.1024141E+00
         21   -1    0    0  502  501  0.00000000000E+00  0.00000000000E+00  0.11801053690E+04  0.11801053690E+04  0.00000000000E+00 0. -1.
         21   -1    0    0  501  502 -0.00000000000E+00 -0.00000000000E+00 -0.45258769538E+02  0.45258769538E+02  0.00000000000E+00 0. -1.
      99926    2    1    2    0    0  0.14210854715E-13  0.00000000000E+00  0.11348465994E+04  0.12253641385E+04  0.46221257847E+03 0.  0.
      99925    2    3    3    0    0  0.10359000389E+03  0.55500920165E+02  0.77126380741E+03  0.82330544155E+03  0.26300712617E+03 0.  0.
         25    1    4    4    0    0  0.42963926545E+02  0.27589376868E+01  0.45493053746E+03  0.47377506555E+03  0.12509000000E+03 0.  0.
         25    1    3    3    0    0 -0.10359000389E+03 -0.55500920165E+02  0.36358279201E+03  0.40205869695E+03  0.12509000000E+03 0.  0.
         25    1    4    4    0    0  0.60626077345E+02  0.52741982478E+02  0.31633326996E+03  0.34953037601E+03  0.12509000000E+03 0.  0.
<mgrwt>
<rscale>  2 0.46221258E+03</rscale>
<asrwt>0</asrwt>
<pdfrwt beam="1">  1       21 0.17354489E+00 0.46221258E+03</pdfrwt>
<pdfrwt beam="2">  1       21 0.66557022E-02 0.46221258E+03</pdfrwt>
<totfact> 0.29660579E+04</totfact>
</mgrwt>
</event>
<event>
 7    0  0.4766352E-002  0.4256241E+03  0.7546771E-02  0.1035251E+00
         21   -1    0    0  502  501  0.00000000000E+00  0.00000000000E+00  0.58578739690E+03  0.58578739690E+03  0.00000000000E+00 0.  1.
         21   -1    0    0  501  502 -0.00000000000E+00 -0.00000000000E+00 -0.77312972969E+02  0.77312972969E+02  0.00000000000E+00 0.  1.
      99926    2    1    2    0    0  0.00000000000E+00  0.14210854715E-13  0.50847442393E+03  0.66310036987E+03  0.42562408382E+03 0.  0.
      99925    2    3    3    0    0  0.18924034846E+02  0.80587354212E+02  0.32587164333E+03  0.42678760183E+03  0.26287428249E+03 0.  0.
         25    1    3    3    0    0 -0.18924034846E+02 -0.80587354212E+02  0.18260278061E+03  0.23631276804E+03  0.12509000000E+03 0.  0.
         25    1    4    4    0    0 -0.83075428326E+01  0.74086175863E+01  0.12121638685E+03  0.17454175267E+03  0.12509000000E+03 0.  0.
         25    1    4    4    0    0  0.27231577679E+02  0.73178736626E+02  0.20465525647E+03  0.25224584916E+03  0.12509000000E+03 0.  0.
<mgrwt>
<rscale>  2 0.42562408E+03</rscale>
<asrwt>0</asrwt>
<pdfrwt beam="1">  1       21 0.86145203E-01 0.42562408E+03</pdfrwt>
<pdfrwt beam="2">  1       21 0.11369555E-01 0.42562408E+03</pdfrwt>
<totfact> 0.69746540E+04</totfact>
</mgrwt>
</event>
<event>
 7    0  0.4766352E-002  0.4516081E+03  0.7546771E-02  0.1027244E+00
         21   -1    0    0  502  501  0.00000000000E+00  0.00000000000E+00  0.12359660001E+04  0.12359660001E+04  0.00000000000E+00 0. -1.
         21   -1    0    0  501  502 -0.00000000000E+00 -0.00000000000E+00 -0.41253138759E+02  0.41253138759E+02  0.00000000000E+00 0. -1.
      99926    2    1    2    0    0  0.00000000000E+00  0.17763568394E-14  0.11947128613E+04  0.12772191389E+04  0.45160813502E+03 0.  0.
      99925    2    3    3    0    0 -0.97275291800E+02  0.15389625471E+02  0.61599044588E+03  0.67699712558E+03  0.26302386899E+03 0.  0.
         25    1    3    3    0    0  0.97275291800E+02 -0.15389625471E+02  0.57872241546E+03  0.60022201328E+03  0.12509000000E+03 0.  0.
         25    1    4    4    0    0 -0.38988507055E+02 -0.31520112160E+02  0.31249779136E+03  0.34031749714E+03  0.12509000000E+03 0.  0.
         25    1    4    4    0    0 -0.58286784745E+02  0.46909737631E+02  0.30349265452E+03  0.33667962844E+03  0.12509000000E+03 0.  0.
<mgrwt>
<rscale>  2 0.45160814E+03</rscale>
<asrwt>0</asrwt>
<pdfrwt beam="1">  1       21 0.18175968E+00 0.45160814E+03</pdfrwt>
<pdfrwt beam="2">  1       21 0.60666388E-02 0.45160814E+03</pdfrwt>
<totfact> 0.30582666E+04</totfact>
</mgrwt>
</event>
<event>
 6    0  0.4766352E-002  0.4554861E+03  0.7546771E-02  0.1026099E+00
         21   -1    0    0  502  501  0.00000000000E+00  0.00000000000E+00  0.21859072682E+03  0.21859072682E+03  0.00000000000E+00 0.  1.
         21   -1    0    0  501  502 -0.00000000000E+00 -0.00000000000E+00 -0.23727853316E+03  0.23727853316E+03  0.00000000000E+00 0.  1.
      99926    2    1    2    0    0 -0.35527136788E-14  0.14210854715E-13 -0.18687806343E+02  0.45586925999E+03  0.45548605697E+03 0.  0.
         25    1    3    3    0    0 -0.18319910780E+02 -0.87122501233E+02  0.26611602122E+02  0.15582565520E+03  0.12509000000E+03 0.  0.
         25    1    3    3    0    0  0.25159272164E+02  0.10905190347E+03 -0.10444339494E+02  0.16817223003E+03  0.12509000000E+03 0.  0.
         25    1    3    3    0    0 -0.68393613840E+01 -0.21929402233E+02 -0.34855068972E+02  0.13187137475E+03  0.12509000000E+03 0.  0.
<mgrwt>
<rscale>  2 0.45548606E+03</rscale>
<asrwt>0</asrwt>
<pdfrwt beam="1">  1       21 0.32145695E-01 0.45548606E+03</pdfrwt>
<pdfrwt beam="2">  1       21 0.34893902E-01 0.45548606E+03</pdfrwt>
<totfact> 0.68217234E+04</totfact>
</mgrwt>
</event>
<event>
 7    0  0.4766352E-002  0.4553523E+03  0.7546771E-02  0.1026138E+00
         21   -1    0    0  502  501  0.00000000000E+00  0.00000000000E+00  0.36117813752E+03  0.36117813752E+03  0.00000000000E+00 0. -1.
         21   -1    0    0  501  502 -0.00000000000E+00 -0.00000000000E+00 -0.14352036654E+03  0.14352036654E+03  0.00000000000E+00 0. -1.
      99926    2    1    2    0    0  0.14210854715E-13  0.00000000000E+00  0.21765777097E+03  0.50469850406E+03  0.45535225347E+03 0.  0.
      99925    2    3    3    0    0  0.95411595089E+02  0.60922000652E+02  0.12806324361E+03  0.31367612298E+03  0.26301645029E+03 0.  0.
         25    1    4    4    0    0  0.42315277724E+02  0.43918222537E+02  0.10604791156E+03  0.17496588423E+03  0.12509000000E+03 0.  0.
         25    1    4    4    0    0  0.53096317365E+02  0.17003778115E+02  0.22015332052E+02  0.13871023875E+03  0.12509000000E+03 0.  0.
         25    1    3    3    0    0 -0.95411595089E+02 -0.60922000652E+02  0.89594527365E+02  0.19102238108E+03  0.12509000000E+03 0.  0.
<mgrwt>
<rscale>  2 0.45535225E+03</rscale>
<asrwt>0</asrwt>
<pdfrwt beam="1">  1       21 0.53114432E-01 0.45535225E+03</pdfrwt>
<pdfrwt beam="2">  1       21 0.21105936E-01 0.45535225E+03</pdfrwt>
<totfact> 0.64760565E+04</totfact>
</mgrwt>
</event>
<event>
 7    0  0.4766352E-002  0.4676567E+03  0.7546771E-02  0.1022584E+00
         21   -1    0    0  502  501  0.00000000000E+00  0.00000000000E+00  0.14263772217E+04  0.14263772217E+04  0.00000000000E+00 0. -1.
         21   -1    0    0  501  502 -0.00000000000E+00 -0.00000000000E+00 -0.38331862895E+02  0.38331862895E+02  0.00000000000E+00 0. -1.
      99926    2    1    2    0    0  0.14210854715E-13  0.00000000000E+00  0.13880453588E+04  0.14647090846E+04  0.46765669503E+03 0.  0.
      99925    2    3    3    0    0  0.10633307046E+03  0.65236222957E+02  0.87512320062E+03  0.92221564213E+03  0.26282805725E+03 0.  0.
         25    1    3    3    0    0 -0.10633307046E+03 -0.65236222957E+02  0.51292215823E+03  0.54249344250E+03  0.12509000000E+03 0.  0.
         25    1    4    4    0    0  0.52626970256E+02  0.63165386217E+02  0.37175315428E+03  0.40075850563E+03  0.12509000000E+03 0.  0.
         25    1    4    4    0    0  0.53706100200E+02  0.20708367400E+01  0.50337004634E+03  0.52145713651E+03  0.12509000000E+03 0.  0.
<mgrwt>
<rscale>  2 0.46765670E+03</rscale>
<asrwt>0</asrwt>
<pdfrwt beam="1">  1       21 0.20976132E+00 0.46765670E+03</pdfrwt>
<pdfrwt beam="2">  1       21 0.56370396E-02 0.46765670E+03</pdfrwt>
<totfact> 0.22374977E+04</totfact>
</mgrwt>
</event>
<event>
 7    0  0.4766352E-002  0.4522088E+03  0.7546771E-02  0.1027065E+00
         21   -1    0    0  502  501  0.00000000000E+00  0.00000000000E+00  0.25880347648E+03  0.25880347648E+03  0.00000000000E+00 0.  1.
         21   -1    0    0  501  502 -0.00000000000E+00 -0.00000000000E+00 -0.19753676774E+03  0.19753676774E+03  0.00000000000E+00 0.  1.
      99926    2    1    2    0    0  0.00000000000E+00  0.31086244690E-14  0.61266708744E+02  0.45634024422E+03  0.45220881117E+03 0.  0.
      99925    2    3    3    0    0 -0.10900352102E+03  0.35201149945E+01  0.56852131658E+02  0.29032471665E+03  0.26298691493E+03 0.  0.
         25    1    4    4    0    0 -0.44854743408E+02  0.35362202250E+02  0.65863846835E+01  0.13767106420E+03  0.12509000000E+03 0.  0.
         25    1    4    4    0    0 -0.64148777608E+02 -0.31842087256E+02  0.50265746974E+02  0.15265365246E+03  0.12509000000E+03 0.  0.
         25    1    3    3    0    0  0.10900352102E+03 -0.35201149945E+01  0.44145770860E+01  0.16601552757E+03  0.12509000000E+03 0.  0.
<mgrwt>
<rscale>  2 0.45220881E+03</rscale>
<asrwt>0</asrwt>
<pdfrwt beam="1">  1       21 0.38059335E-01 0.45220881E+03</pdfrwt>
<pdfrwt beam="2">  1       21 0.29049525E-01 0.45220881E+03</pdfrwt>
<totfact> 0.69993169E+04</totfact>
</mgrwt>
</event>
<event>
 7    0  0.4766352E-002  0.4633746E+03  0.7546771E-02  0.1023807E+00
         21   -1    0    0  502  501  0.00000000000E+00  0.00000000000E+00  0.33328376173E+02  0.33328376173E+02  0.00000000000E+00 0. -1.
         21   -1    0    0  501  502 -0.00000000000E+00 -0.00000000000E+00 -0.16106099120E+04  0.16106099120E+04  0.00000000000E+00 0. -1.
      99926    2    1    2    0    0  0.00000000000E+00  0.00000000000E+00 -0.15772815359E+04  0.16439382882E+04  0.46337463468E+03 0.  0.
      99925    2    3    3    0    0 -0.71378317210E+02  0.43685943055E+02 -0.67620742779E+03  0.73038184106E+03  0.26305479004E+03 0.  0.
         25    1    4    4    0    0 -0.34345378292E+02 -0.17596269688E+02 -0.29086967031E+03  0.31897007215E+03  0.12509000000E+03 0.  0.
         25    1    3    3    0    0  0.71378317210E+02 -0.43685943055E+02 -0.90107410806E+03  0.91355644714E+03  0.12509000000E+03 0.  0.
         25    1    4    4    0    0 -0.37032938918E+02  0.61282212743E+02 -0.38533775748E+03  0.41141176892E+03  0.12509000000E+03 0.  0.
<mgrwt>
<rscale>  2 0.46337463E+03</rscale>
<asrwt>0</asrwt>
<pdfrwt beam="1">  1       21 0.49012311E-02 0.46337463E+03</pdfrwt>
<pdfrwt beam="2">  1       21 0.23685443E+00 0.46337463E+03</pdfrwt>
<totfact> 0.19177232E+04</totfact>
</mgrwt>
</event>
<event>
 7    0  0.4766352E-002  0.4541992E+03  0.7546771E-02  0.1026477E+00
         21   -1    0    0  502  501  0.00000000000E+00  0.00000000000E+00  0.17990436150E+03  0.17990436150E+03  0.00000000000E+00 0.  1.
         21   -1    0    0  501  502 -0.00000000000E+00 -0.00000000000E+00 -0.28667575347E+03  0.28667575347E+03  0.00000000000E+00 0.  1.
      99926    2    1    2    0    0  0.17763568394E-14  0.00000000000E+00 -0.10677139196E+03  0.46658011497E+03  0.45419915626E+03 0.  0.
      99925    2    3    3    0    0  0.11162779411E+02 -0.93175039786E+02 -0.36515814072E+01  0.27926380732E+03  0.26299951397E+03 0.  0.
         25    1    3    3    0    0 -0.11162779411E+02  0.93175039786E+02 -0.10311981056E+03  0.18731630765E+03  0.12509000000E+03 0.  0.
         25    1    4    4    0    0 -0.90467707212E+01 -0.10811277129E+02  0.15876991268E+02  0.12687913432E+03  0.12509000000E+03 0.  0.
         25    1    4    4    0    0  0.20209550133E+02 -0.82363762657E+02 -0.19528572675E+02  0.15238467300E+03  0.12509000000E+03 0.  0.
<mgrwt>
<rscale>  2 0.45419916E+03</rscale>
<asrwt>0</asrwt>
<pdfrwt beam="1">  1       21 0.26456524E-01 0.45419916E+03</pdfrwt>
<pdfrwt beam="2">  1       21 0.42158199E-01 0.45419916E+03</pdfrwt>
<totfact> 0.68122847E+04</totfact>
</mgrwt>
</event>
<event>
 7    0  0.4766352E-002  0.4556793E+03  0.7546771E-02  0.1026042E+00
         21   -1    0    0  502  501  0.00000000000E+00  0.00000000000E+00  0.40521547163E+03  0.40521547163E+03  0.00000000000E+00 0.  1.
         21   -1    0    0  501  502 -0.00000000000E+00 -0.00000000000E+00 -0.12810694373E+03  0.12810694373E+03  0.00000000000E+00 0.  1.
      99926    2    1    2    0    0  0.00000000000E+00  0.71054273576E-14  0.27710852789E+03  0.53332241536E+03  0.45567934175E+03 0.  0.
      99925    2    3    3    0    0  0.51822842102E+02 -0.49413729364E+02  0.70796234528E+02  0.28164882893E+03  0.26303351954E+03 0.  0.
         25    1    3    3    0    0 -0.51822842102E+02  0.49413729364E+02  0.20631229337E+03  0.25167358643E+03  0.12509000000E+03 0.  0.
         25    1    4    4    0    0  0.94911389080E+01  0.13036360249E+02  0.40419451727E+02  0.13244345429E+03  0.12509000000E+03 0.  0.
         25    1    4    4    0    0  0.42331703194E+02 -0.62450089613E+02  0.30376782802E+02  0.14920537464E+03  0.12509000000E+03 0.  0.
<mgrwt>
<rscale>  2 0.45567934E+03</rscale>
<asrwt>0</asrwt>
<pdfrwt beam="1">  1       21 0.59590510E-01 0.45567934E+03</pdfrwt>
<pdfrwt beam="2">  1       21 0.18839257E-01 0.45567934E+03</pdfrwt>
<totfact> 0.62644173E+04</totfact>
</mgrwt>
</event>
<event>
 7    0  0.4766352E-002  0.4610397E+03  0.7546771E-02  0.1024480E+00
         21   -1    0    0  502  501  0.00000000000E+00  0.00000000000E+00  0.23222914610E+04  0.23222914610E+04  0.00000000000E+00 0. -1.
         21   -1    0    0  501  502 -0.00000000000E+00 -0.00000000000E+00 -0.22882312703E+02  0.22882312703E+02  0.00000000000E+00 0. -1.
      99926    2    1    2    0    0  0.14210854715E-13  0.35527136788E-14  0.22994091483E+04  0.23451737737E+04  0.46103969199E+03 0.  0.
      99925    2    3    3    0    0  0.10588451047E+03  0.12633404184E+02  0.17045739712E+04  0.17280453199E+04  0.26305336329E+03 0.  0.
         25    1    4    4    0    0  0.33391639728E+02 -0.21641870304E+02  0.94518010196E+03  0.95425169918E+03  0.12509000000E+03 0.  0.
         25    1    3    3    0    0 -0.10588451047E+03 -0.12633404184E+02  0.59483517712E+03  0.61712845380E+03  0.12509000000E+03 0.  0.
         25    1    4    4    0    0  0.72492870743E+02  0.34275274487E+02  0.75939386921E+03  0.77379362071E+03  0.12509000000E+03 0.  0.
<mgrwt>
<rscale>  2 0.46103969E+03</rscale>
<asrwt>0</asrwt>
<pdfrwt beam="1">  1       21 0.34151329E+00 0.46103969E+03</pdfrwt>
<pdfrwt beam="2">  1       21 0.33650476E-02 0.46103969E+03</pdfrwt>
<totfact> 0.84452516E+03</totfact>
</mgrwt>
</event>
<event>
 6    0  0.4766352E-002  0.4544978E+03  0.7546771E-02  0.1026389E+00
         21   -1    0    0  502  501  0.00000000000E+00  0.00000000000E+00  0.48216980694E+03  0.48216980694E+03  0.00000000000E+00 0. -1.
         21   -1    0    0  501  502 -0.00000000000E+00 -0.00000000000E+00 -0.10710346638E+03  0.10710346638E+03  0.00000000000E+00 0. -1.
      99926    2    1    2    0    0 -0.71054273576E-14  0.00000000000E+00  0.37506634056E+03  0.58927327332E+03  0.45449777869E+03 0.  0.
         25    1    3    3    0    0  0.27049746511E+02  0.80968211502E+02  0.20055277471E+03  0.25130949764E+03  0.12509000000E+03 0.  0.
         25    1    3    3    0    0  0.23577982744E+02  0.38867835420E+01  0.10040047186E+03  0.16216902049E+03  0.12509000000E+03 0.  0.
         25    1    3    3    0    0 -0.50627729255E+02 -0.84854995044E+02  0.74113093993E+02  0.17579475520E+03  0.12509000000E+03 0.  0.
<mgrwt>
<rscale>  2 0.45449778E+03</rscale>
<asrwt>0</asrwt>
<pdfrwt beam="1">  1       21 0.70907324E-01 0.45449778E+03</pdfrwt>
<pdfrwt beam="2">  1       21 0.15750510E-01 0.45449778E+03</pdfrwt>
<totfact> 0.59579572E+04</totfact>
</mgrwt>
</event>
<event>
 7    0  0.4766352E-002  0.4568307E+03  0.7546771E-02  0.1025704E+00
         21   -1    0    0  502  501  0.00000000000E+00  0.00000000000E+00  0.91963989693E+03  0.91963989693E+03  0.00000000000E+00 0. -1.
         21   -1    0    0  501  502 -0.00000000000E+00 -0.00000000000E+00 -0.56732604657E+02  0.56732604657E+02  0.00000000000E+00 0. -1.
      99926    2    1    2    0    0  0.00000000000E+00  0.00000000000E+00  0.86290729227E+03  0.97637250158E+03  0.45683067629E+03 0.  0.
      99925    2    3    3    0    0  0.71201539483E+02 -0.34209350478E+02  0.72037007069E+03  0.77093563410E+03  0.26299957091E+03 0.  0.
         25    1    4    4    0    0  0.15174133424E+02 -0.29002560325E+02  0.25704984796E+03  0.28773865793E+03  0.12509000000E+03 0.  0.
         25    1    3    3    0    0 -0.71201539483E+02  0.34209350478E+02  0.14253722158E+03  0.20543686748E+03  0.12509000000E+03 0.  0.
         25    1    4    4    0    0  0.56027406059E+02 -0.52067901529E+01  0.46332022273E+03  0.48319697617E+03  0.12509000000E+03 0.  0.
<mgrwt>
<rscale>  2 0.45683068E+03</rscale>
<asrwt>0</asrwt>
<pdfrwt beam="1">  1       21 0.13524115E+00 0.45683068E+03</pdfrwt>
<pdfrwt beam="2">  1       21 0.83430307E-02 0.45683068E+03</pdfrwt>
<totfact> 0.39522259E+04</totfact>
</mgrwt>
</event>
<event>
 7    0  0.4766352E-002  0.4636300E+03  0.7546771E-02  0.1023734E+00
         21   -1    0    0  502  501  0.00000000000E+00  0.00000000000E+00  0.12955575318E+03  0.12955575318E+03  0.00000000000E+00 0.  1.
         21   -1    0    0  501  502 -0.00000000000E+00 -0.00000000000E+00 -0.41478808484E+03  0.41478808484E+03  0.00000000000E+00 0.  1.
      99926    2    1    2    0    0  0.14210854715E-13  0.00000000000E+00 -0.28523233166E+03  0.54434383801E+03  0.46362995045E+03 0.  0.
      99925    2    3    3    0    0  0.97852307619E+02  0.70667724643E+02 -0.18838783947E+03  0.34535799635E+03  0.26308395271E+03 0.  0.
         25    1    4    4    0    0  0.69205686684E+02  0.67947306425E+02 -0.12771491652E+03  0.20338355765E+03  0.12509000000E+03 0.  0.
         25    1    4    4    0    0  0.28646620935E+02  0.27204182177E+01 -0.60672922948E+02  0.14197443870E+03  0.12509000000E+03 0.  0.
         25    1    3    3    0    0 -0.97852307619E+02 -0.70667724643E+02 -0.96844492188E+02  0.19898584166E+03  0.12509000000E+03 0.  0.
<mgrwt>
<rscale>  2 0.46362995E+03</rscale>
<asrwt>0</asrwt>
<pdfrwt beam="1">  1       21 0.19052317E-01 0.46362995E+03</pdfrwt>
<pdfrwt beam="2">  1       21 0.60998247E-01 0.46362995E+03</pdfrwt>
<totfact> 0.58165153E+04</totfact>
</mgrwt>
</event>
<event>
 7    0  0.4766352E-002  0.4546588E+03  0.7546771E-02  0.1026342E+00
         21   -1    0    0  502  501  0.00000000000E+00  0.00000000000E+00  0.27023835478E+02  0.27023835478E+02  0.00000000000E+00 0. -1.
         21   -1    0    0  501  502 -0.00000000000E+00 -0.00000000000E+00 -0.19123357099E+04  0.19123357099E+04  0.00000000000E+00 0. -1.
      99926    2    1    2    0    0 -0.35527136788E-14 -0.14210854715E-13 -0.18853118744E+04  0.19393595453E+04  0.45465875380E+03 0.  0.
      99925    2    3    3    0    0  0.31235994666E+02  0.10764441485E+03 -0.12435930824E+04  0.12760243936E+04  0.26296671107E+03 0.  0.
         25    1    4    4    0    0 -0.24482376074E+02  0.59878965467E+02 -0.61370112296E+03  0.62965185116E+03  0.12509000000E+03 0.  0.
         25    1    3    3    0    0 -0.31235994666E+02 -0.10764441485E+03 -0.64171879200E+03  0.66333515173E+03  0.12509000000E+03 0.  0.
         25    1    4    4    0    0  0.55718370740E+02  0.47765449384E+02 -0.62989195941E+03  0.64637254244E+03  0.12509000000E+03 0.  0.
<mgrwt>
<rscale>  2 0.45465875E+03</rscale>
<asrwt>0</asrwt>
<pdfrwt beam="1">  1       21 0.39740937E-02 0.45465875E+03</pdfrwt>
<pdfrwt beam="2">  1       21 0.28122583E+00 0.45465875E+03</pdfrwt>
<totfact> 0.14764372E+04</totfact>
</mgrwt>
</event>
<event>
 7    0  0.4766352E-002  0.4652768E+03  0.7546771E-02  0.1023262E+00
         21   -1    0    0  502  501  0.00000000000E+00  0.00000000000E+00  0.22812477903E+04  0.22812477903E+04  0.00000000000E+00 0.  1.
         21   -1    0    0  501  502 -0.00000000000E+00 -0.00000000000E+00 -0.23724135181E+02  0.23724135181E+02  0.00000000000E+00 0.  1.
      99926    2    1    2    0    0  0.14210854715E-13 -0.14210854715E-13  0.22575236551E+04  0.23049719254E+04  0.46527682494E+03 0.  0.
      99925    2    3    3    0    0 -0.72964951277E+02  0.73941600950E+02  0.10860579138E+04  0.11222755419E+04  0.26303869569E+03 0.  0.
         25    1    3    3    0    0  0.72964951277E+02 -0.73941600950E+02  0.11714657413E+04  0.11826963835E+04  0.12509000000E+03 0.  0.
         25    1    4    4    0    0 -0.15386254675E+02  0.31170587191E+02  0.37772005629E+03  0.39940992897E+03  0.12509000000E+03 0.  0.
         25    1    4    4    0    0 -0.57578696602E+02  0.42771013758E+02  0.70833785750E+03  0.72286561295E+03  0.12509000000E+03 0.  0.
<mgrwt>
<rscale>  2 0.46527682E+03</rscale>
<asrwt>0</asrwt>
<pdfrwt beam="1">  1       21 0.33547747E+00 0.46527682E+03</pdfrwt>
<pdfrwt beam="2">  1       21 0.34888450E-02 0.46527682E+03</pdfrwt>
<totfact> 0.86292161E+03</totfact>
</mgrwt>
</event>
<event>
 7    0  0.4766352E-002  0.4579982E+03  0.7546771E-02  0.1025363E+00
         21   -1    0    0  502  501  0.00000000000E+00  0.00000000000E+00  0.60938343895E+02  0.60938343895E+02  0.00000000000E+00 0. -1.
         21   -1    0    0  501  502 -0.00000000000E+00 -0.00000000000E+00 -0.86055168228E+03  0.86055168228E+03  0.00000000000E+00 0. -1.
      99926    2    1    2    0    0  0.00000000000E+00  0.00000000000E+00 -0.79961333838E+03  0.92149002617E+03  0.45799822862E+03 0.  0.
      99925    2    3    3    0    0 -0.86835518401E+02 -0.43719392269E+02 -0.62905314857E+03  0.68870239986E+03  0.26296642243E+03 0.  0.
         25    1    4    4    0    0 -0.23976845549E+02 -0.48159702694E+02 -0.36909033096E+03  0.39340745620E+03  0.12509000000E+03 0.  0.
         25    1    3    3    0    0  0.86835518401E+02  0.43719392269E+02 -0.17056018981E+03  0.23278762631E+03  0.12509000000E+03 0.  0.
         25    1    4    4    0    0 -0.62858672852E+02  0.44403104251E+01 -0.25996281761E+03  0.29529494366E+03  0.12509000000E+03 0.  0.
<mgrwt>
<rscale>  2 0.45799823E+03</rscale>
<asrwt>0</asrwt>
<pdfrwt beam="1">  1       21 0.89615211E-02 0.45799823E+03</pdfrwt>
<pdfrwt beam="2">  1       21 0.12655172E+00 0.45799823E+03</pdfrwt>
<totfact> 0.41339037E+04</totfact>
</mgrwt>
</event>
<event>
 7    0  0.4766352E-002  0.4590790E+03  0.7546771E-02  0.1025049E+00
         21   -1    0    0  502  501  0.00000000000E+00  0.00000000000E+00  0.83018447236E+03  0.83018447236E+03  0.00000000000E+00 0.  1.
         21   -1    0    0  501  502 -0.00000000000E+00 -0.00000000000E+00 -0.63465873960E+02  0.63465873960E+02  0.00000000000E+00 0.  1.
      99926    2    1    2    0    0  0.00000000000E+00  0.71054273576E-14  0.76671859841E+03  0.89365034632E+03  0.45907900447E+03 0.  0.
      99925    2    3    3    0    0  0.10428080643E+03  0.45814932235E+02  0.42908985842E+03  0.51600743460E+03  0.26300583903E+03 0.  0.
         25    1    4    4    0    0  0.84138634390E+02  0.37751437423E+02  0.19151161922E+03  0.24663472834E+03  0.12509000000E+03 0.  0.
         25    1    4    4    0    0  0.20142172045E+02  0.80634948127E+01  0.23757823919E+03  0.26937270627E+03  0.12509000000E+03 0.  0.
         25    1    3    3    0    0 -0.10428080643E+03 -0.45814932235E+02  0.33762873999E+03  0.37764291172E+03  0.12509000000E+03 0.  0.
<mgrwt>
<rscale>  2 0.45907900E+03</rscale>
<asrwt>0</asrwt>
<pdfrwt beam="1">  1       21 0.12208595E+00 0.45907900E+03</pdfrwt>
<pdfrwt beam="2">  1       21 0.93332172E-02 0.45907900E+03</pdfrwt>
<totfact> 0.42146991E+04</totfact>
</mgrwt>
</event>
<event>
 7    0  0.4766352E-002  0.4494832E+03  0.7546771E-02  0.1027876E+00
         21   -1    0    0  502  501  0.00000000000E+00  0.00000000000E+00  0.51831661218E+03  0.51831661218E+03  0.00000000000E+00 0.  1.
         21   -1    0    0  501  502 -0.00000000000E+00 -0.00000000000E+00 -0.97447763909E+02  0.97447763909E+02  0.00000000000E+00 0.  1.
      99926    2    1    2    0    0 -0.71054273576E-14  0.00000000000E+00  0.42086884827E+03  0.61576437609E+03  0.44948323597E+03 0.  0.
      99925    2    3    3    0    0 -0.62227708393E+02  0.35616280169E+02  0.15566557978E+03  0.31390167746E+03  0.26298608952E+03 0.  0.
         25    1    3    3    0    0  0.62227708393E+02 -0.35616280169E+02  0.26520326849E+03  0.30186269863E+03  0.12509000000E+03 0.  0.
         25    1    4    4    0    0  0.82749800656E+01  0.41811804092E+01  0.66306008362E+02  0.14188006347E+03  0.12509000000E+03 0.  0.
         25    1    4    4    0    0 -0.70502688458E+02  0.31435099760E+02  0.89359571418E+02  0.17202161399E+03  0.12509000000E+03 0.  0.
<mgrwt>
<rscale>  2 0.44948324E+03</rscale>
<asrwt>0</asrwt>
<pdfrwt beam="1">  1       21 0.76223030E-01 0.44948324E+03</pdfrwt>
<pdfrwt beam="2">  1       21 0.14330554E-01 0.44948324E+03</pdfrwt>
<totfact> 0.60302887E+04</totfact>
</mgrwt>
</event>
<event>
 7    0  0.4766352E-002  0.4590359E+03  0.7546771E-02  0.1025061E+00
         21   -1    0    0  502  501  0.00000000000E+00  0.00000000000E+00  0.35957433751E+04  0.35957433751E+04  0.00000000000E+00 0.  1.
         21   -1    0    0  501  502 -0.00000000000E+00 -0.00000000000E+00 -0.14650236133E+02  0.14650236133E+02  0.00000000000E+00 0.  1.
      99926    2    1    2    0    0 -0.14210854715E-13  0.00000000000E+00  0.35810931390E+04  0.36103936112E+04  0.45903590063E+03 0.  0.
      99925    2    3    3    0    0  0.67145654116E+02  0.92653072090E+02  0.24341933173E+04  0.24510317869E+04  0.26299540655E+03 0.  0.
         25    1    3    3    0    0 -0.67145654116E+02 -0.92653072090E+02  0.11468998217E+04  0.11593618243E+04  0.12509000000E+03 0.  0.
         25    1    4    4    0    0 -0.60903903433E+01  0.49365581119E+02  0.12443147473E+04  0.12515753081E+04  0.12509000000E+03 0.  0.
         25    1    4    4    0    0  0.73236044459E+02  0.43287490971E+02  0.11898785700E+04  0.11994564788E+04  0.12509000000E+03 0.  0.
<mgrwt>
<rscale>  2 0.45903590E+03</rscale>
<asrwt>0</asrwt>
<pdfrwt beam="1">  1       21 0.52878518E+00 0.45903590E+03</pdfrwt>
<pdfrwt beam="2">  1       21 0.21544490E-02 0.45903590E+03</pdfrwt>
<totfact> 0.10005856E+03</totfact>
</mgrwt>
</event>
<event>
 7    0  0.4766352E-002  0.4525052E+03  0.7546771E-02  0.1026978E+00
         21   -1    0    0  502  501  0.00000000000E+00  0.00000000000E+00  0.75945893634E+03  0.75945893634E+03  0.00000000000E+00 0. -1.
         21   -1    0    0  501  502 -0.00000000000E+00 -0.00000000000E+00 -0.67403565024E+02  0.67403565024E+02  0.00000000000E+00 0. -1.
      99926    2    1    2    0    0  0.00000000000E+00  0.00000000000E+00  0.69205537131E+03  0.82686250136E+03  0.45250520350E+03 0.  0.
      99925    2    3    3    0    0 -0.87331332509E+02 -0.53585087879E+02  0.51370767270E+03  0.58612710101E+03  0.26296631394E+03 0.  0.
         25    1    4    4    0    0 -0.53745564532E+02 -0.23815342767E+02  0.18009802513E+03  0.22702106293E+03  0.12509000000E+03 0.  0.
         25    1    4    4    0    0 -0.33585767978E+02 -0.29769745112E+02  0.33360964757E+03  0.35910603808E+03  0.12509000000E+03 0.  0.
         25    1    3    3    0    0  0.87331332509E+02  0.53585087879E+02  0.17834769861E+03  0.24073540035E+03  0.12509000000E+03 0.  0.
<mgrwt>
<rscale>  2 0.45250520E+03</rscale>
<asrwt>0</asrwt>
<pdfrwt beam="1">  1       21 0.11168513E+00 0.45250520E+03</pdfrwt>
<pdfrwt beam="2">  1       21 0.99122894E-02 0.45250520E+03</pdfrwt>
<totfact> 0.47414126E+04</totfact>
</mgrwt>
</event>
<event>
 7    0  0.4766352E-002  0.4605079E+03  0.7546771E-02  0.1024634E+00
         21   -1    0    0  502  501  0.00000000000E+00  0.00000000000E+00  0.18419432277E+03  0.18419432277E+03  0.00000000000E+00 0.  1.
         21   -1    0    0  501  502 -0.00000000000E+00 -0.00000000000E+00 -0.28783128745E+03  0.28783128745E+03  0.00000000000E+00 0.  1.
      99926    2    1    2    0    0  0.00000000000E+00  0.26645352591E-14 -0.10363696469E+03  0.47202561022E+03  0.46050793289E+03 0.  0.
      99925    2    3    3    0    0  0.95963242773E+02  0.41119562929E+01 -0.13568353426E+03  0.31108977558E+03  0.26294671486E+03 0.  0.
         25    1    4    4    0    0  0.56725968341E+02  0.37228973697E+02 -0.89929569094E+02  0.16834092629E+03  0.12509000000E+03 0.  0.
         25    1    3    3    0    0 -0.95963242773E+02 -0.41119562929E+01  0.32046569571E+02  0.16093583463E+03  0.12509000000E+03 0.  0.
         25    1    4    4    0    0  0.39237274432E+02 -0.33117017404E+02 -0.45753965163E+02  0.14274884929E+03  0.12509000000E+03 0.  0.
<mgrwt>
<rscale>  2 0.46050793E+03</rscale>
<asrwt>0</asrwt>
<pdfrwt beam="1">  1       21 0.27087401E-01 0.46050793E+03</pdfrwt>
<pdfrwt beam="2">  1       21 0.42328130E-01 0.46050793E+03</pdfrwt>
<totfact> 0.64424449E+04</totfact>
</mgrwt>
</event>
<event>
 7    0  0.4766352E-002  0.4545835E+03  0.7546771E-02  0.1026364E+00
         21   -1    0    0  502  501  0.00000000000E+00  0.00000000000E+00  0.24214413366E+03  0.24214413366E+03  0.00000000000E+00 0.  1.
         21   -1    0    0  501  502 -0.00000000000E+00 -0.00000000000E+00 -0.21335032355E+03  0.21335032355E+03  0.00000000000E+00 0.  1.
      99926    2    1    2    0    0  0.00000000000E+00  0.14210854715E-13  0.28793810110E+02  0.45549445721E+03  0.45458345444E+03 0.  0.
      99925    2    3    3    0    0 -0.39031212245E+02 -0.10430696766E+03  0.96175679877E-01  0.28556964633E+03  0.26295747683E+03 0.  0.
         25    1    4    4    0    0 -0.42004077921E+02 -0.23450689201E+02  0.19136976925E+02  0.13538097862E+03  0.12509000000E+03 0.  0.
         25    1    3    3    0    0  0.39031212245E+02  0.10430696766E+03  0.28697634430E+02  0.16992481088E+03  0.12509000000E+03 0.  0.
         25    1    4    4    0    0  0.29728656753E+01 -0.80856278460E+02 -0.19040801245E+02  0.15018866771E+03  0.12509000000E+03 0.  0.
<mgrwt>
<rscale>  2 0.45458345E+03</rscale>
<asrwt>0</asrwt>
<pdfrwt beam="1">  1       21 0.35609431E-01 0.45458345E+03</pdfrwt>
<pdfrwt beam="2">  1       21 0.31375048E-01 0.45458345E+03</pdfrwt>
<totfact> 0.68737788E+04</totfact>
</mgrwt>
</event>
<event>
 7    0  0.4766352E-002  0.4516212E+03  0.7546771E-02  0.1027240E+00
         21   -1    0    0  502  501  0.00000000000E+00  0.00000000000E+00  0.43613587358E+03  0.43613587358E+03  0.00000000000E+00 0. -1.
         21   -1    0    0  501  502 -0.00000000000E+00 -0.00000000000E+00 -0.11691406191E+03  0.11691406191E+03  0.00000000000E+00 0. -1.
      99926    2    1    2    0    0  0.00000000000E+00  0.00000000000E+00  0.31922181167E+03  0.55304993549E+03  0.45162115329E+03 0.  0.
      99925    2    3    3    0    0  0.52665473453E+02  0.32264358781E+02  0.89823719478E+02  0.28456225655E+03  0.26285497205E+03 0.  0.
         25    1    3    3    0    0 -0.52665473453E+02 -0.32264358781E+02  0.22939809219E+03  0.26848767894E+03  0.12509000000E+03 0.  0.
         25    1    4    4    0    0 -0.93211682729E+01  0.34424457518E+01  0.24931763373E+02  0.12793684198E+03  0.12509000000E+03 0.  0.
         25    1    4    4    0    0  0.61986641726E+02  0.28821913029E+02  0.64891956105E+02  0.15662541457E+03  0.12509000000E+03 0.  0.
<mgrwt>
<rscale>  2 0.45162115E+03</rscale>
<asrwt>0</asrwt>
<pdfrwt beam="1">  1       21 0.64137628E-01 0.45162115E+03</pdfrwt>
<pdfrwt beam="2">  1       21 0.17193244E-01 0.45162115E+03</pdfrwt>
<totfact> 0.63341692E+04</totfact>
</mgrwt>
</event>
<event>
 7    0  0.4766352E-002  0.4555145E+03  0.7546771E-02  0.1026090E+00
         21   -1    0    0  502  501  0.00000000000E+00  0.00000000000E+00  0.45043229721E+02  0.45043229721E+02  0.00000000000E+00 0. -1.
         21   -1    0    0  501  502 -0.00000000000E+00 -0.00000000000E+00 -0.11516350205E+04  0.11516350205E+04  0.00000000000E+00 0. -1.
      99926    2    1    2    0    0  0.71054273576E-14 -0.18735013541E-15 -0.11065917908E+04  0.11966782502E+04  0.45551448181E+03 0.  0.
      99925    2    3    3    0    0  0.60325229540E+02  0.31290619023E-01 -0.94738543202E+03  0.98541228735E+03  0.26430869257E+03 0.  0.
         25    1    4    4    0    0  0.59048210885E+02 -0.31331218572E+02 -0.47271833497E+03  0.49353669447E+03  0.12509000000E+03 0.  0.
         25    1    4    4    0    0  0.12770186554E+01  0.31362509191E+02 -0.47466709704E+03  0.49187559288E+03  0.12509000000E+03 0.  0.
         25    1    3    3    0    0 -0.60325229540E+02 -0.31290619023E-01 -0.15920635877E+03  0.21126596288E+03  0.12509000000E+03 0.  0.
<mgrwt>
<rscale>  2 0.45551448E+03</rscale>
<asrwt>0</asrwt>
<pdfrwt beam="1">  1       21 0.66240046E-02 0.45551448E+03</pdfrwt>
<pdfrwt beam="2">  1       21 0.16935808E+00 0.45551448E+03</pdfrwt>
<totfact> 0.32132425E+04</totfact>
</mgrwt>
</event>
<event>
 7    0  0.4766352E-002  0.4572856E+03  0.7546771E-02  0.1025571E+00
         21   -1    0    0  502  501  0.00000000000E+00  0.00000000000E+00  0.68851858858E+02  0.68851858858E+02  0.00000000000E+00 0. -1.
         21   -1    0    0  501  502 -0.00000000000E+00 -0.00000000000E+00 -0.75927555474E+03  0.75927555474E+03  0.00000000000E+00 0. -1.
      99926    2    1    2    0    0  0.00000000000E+00  0.00000000000E+00 -0.69042369588E+03  0.82812741360E+03  0.45728561460E+03 0.  0.
      99925    2    3    3    0    0  0.78832981252E+02  0.77939687941E+02 -0.49155672157E+03  0.56834901676E+03  0.26287518036E+03 0.  0.
         25    1    3    3    0    0 -0.78832981252E+02 -0.77939687941E+02 -0.19886697432E+03  0.25977839684E+03  0.12509000000E+03 0.  0.
         25    1    4    4    0    0  0.73498129543E+02  0.20910629791E+02 -0.22824655697E+03  0.27126228701E+03  0.12509000000E+03 0.  0.
         25    1    4    4    0    0  0.53348517083E+01  0.57029058150E+02 -0.26331016460E+03  0.29708672975E+03  0.12509000000E+03 0.  0.
<mgrwt>
<rscale>  2 0.45728561E+03</rscale>
<asrwt>0</asrwt>
<pdfrwt beam="1">  1       21 0.10125274E-01 0.45728561E+03</pdfrwt>
<pdfrwt beam="2">  1       21 0.11165816E+00 0.45728561E+03</pdfrwt>
<totfact> 0.45610752E+04</totfact>
</mgrwt>
</event>
<event>
 7    0  0.4766352E-002  0.4327574E+03  0.7546771E-02  0.1032992E+00
         21   -1    0    0  502  501  0.00000000000E+00  0.00000000000E+00  0.39530578200E+03  0.39530578200E+03  0.00000000000E+00 0.  1.
         21   -1    0    0  501  502 -0.00000000000E+00 -0.00000000000E+00 -0.11843932909E+03  0.11843932909E+03  0.00000000000E+00 0.  1.
      99926    2    1    2    0    0  0.00000000000E+00  0.00000000000E+00  0.27686645291E+03  0.51374511109E+03  0.43275744525E+03 0.  0.
      99925    2    3    3    0    0  0.34314900738E+02  0.81249937665E+02  0.15016751509E+03  0.31505139269E+03  0.26254148751E+03 0.  0.
         25    1    3    3    0    0 -0.34314900738E+02 -0.81249937665E+02  0.12669893783E+03  0.19869371839E+03  0.12509000000E+03 0.  0.
         25    1    4    4    0    0  0.14287541447E+02  0.73531994177E+02  0.52733412610E+02  0.15504647340E+03  0.12509000000E+03 0.  0.
         25    1    4    4    0    0  0.20027359290E+02  0.77179434873E+01  0.97434102477E+02  0.16000491929E+03  0.12509000000E+03 0.  0.
<mgrwt>
<rscale>  2 0.43275745E+03</rscale>
<asrwt>0</asrwt>
<pdfrwt beam="1">  1       21 0.58133203E-01 0.43275745E+03</pdfrwt>
<pdfrwt beam="2">  1       21 0.17417549E-01 0.43275745E+03</pdfrwt>
<totfact> 0.77024493E+04</totfact>
</mgrwt>
</event>
<event>
 7    0  0.4766352E-002  0.4512575E+03  0.7546771E-02  0.1027348E+00
         21   -1    0    0  502  501  0.00000000000E+00  0.00000000000E+00  0.91142111985E+02  0.91142111985E+02  0.00000000000E+00 0.  1.
         21   -1    0    0  501  502 -0.00000000000E+00 -0.00000000000E+00 -0.55855997409E+03  0.55855997409E+03  0.00000000000E+00 0.  1.
      99926    2    1    2    0    0  0.00000000000E+00 -0.71054273576E-14 -0.46741786210E+03  0.64970208607E+03  0.45125751277E+03 0.  0.
      99925    2    3    3    0    0 -0.73534717639E+02  0.55335129622E+02 -0.21221876499E+03  0.35096571645E+03  0.26395226584E+03 0.  0.
         25    1    3    3    0    0  0.73534717639E+02 -0.55335129622E+02 -0.25519909711E+03  0.29873636962E+03  0.12509000000E+03 0.  0.
         25    1    4    4    0    0  0.13906513950E+01  0.48782138048E+01 -0.91867999920E+02  0.15528350972E+03  0.12509000000E+03 0.  0.
         25    1    4    4    0    0 -0.74925369034E+02  0.50456915817E+02 -0.12035076507E+03  0.19568220673E+03  0.12509000000E+03 0.  0.
<mgrwt>
<rscale>  2 0.45125751E+03</rscale>
<asrwt>0</asrwt>
<pdfrwt beam="1">  1       21 0.13403252E-01 0.45125751E+03</pdfrwt>
<pdfrwt beam="2">  1       21 0.82141171E-01 0.45125751E+03</pdfrwt>
<totfact> 0.57394475E+04</totfact>
</mgrwt>
</event>
<event>
 7    0  0.4766352E-002  0.5246870E+03  0.7546771E-02  0.1007529E+00
         21   -1    0    0  502  501  0.00000000000E+00  0.00000000000E+00  0.24087578628E+03  0.24087578628E+03  0.00000000000E+00 0. -1.
         21   -1    0    0  501  502 -0.00000000000E+00 -0.00000000000E+00 -0.28572451805E+03  0.28572451805E+03  0.00000000000E+00 0. -1.
      99926    2    1    2    0    0  0.00000000000E+00  0.00000000000E+00 -0.44848731771E+02  0.52660030433E+03  0.52468702269E+03 0.  0.
      99925    2    3    3    0    0  0.16179809839E+03 -0.51999239085E+02 -0.14890387144E+02  0.31346289320E+03  0.26297284323E+03 0.  0.
         25    1    4    4    0    0  0.81823343101E+02 -0.16821957813E+02 -0.46901172403E+02  0.15756035610E+03  0.12509000000E+03 0.  0.
         25    1    3    3    0    0 -0.16179809839E+03  0.51999239085E+02 -0.29958344627E+02  0.21313741113E+03  0.12509000000E+03 0.  0.
         25    1    4    4    0    0  0.79974755293E+02 -0.35177281272E+02  0.32010785259E+02  0.15590253710E+03  0.12509000000E+03 0.  0.
<mgrwt>
<rscale>  2 0.52468702E+03</rscale>
<asrwt>0</asrwt>
<pdfrwt beam="1">  1       21 0.35422910E-01 0.52468702E+03</pdfrwt>
<pdfrwt beam="2">  1       21 0.42018311E-01 0.52468702E+03</pdfrwt>
<totfact> 0.37785750E+04</totfact>
</mgrwt>
</event>
<event>
 7    0  0.4766352E-002  0.4565646E+03  0.7546771E-02  0.1025782E+00
         21   -1    0    0  502  501  0.00000000000E+00  0.00000000000E+00  0.89054634758E+02  0.89054634758E+02  0.00000000000E+00 0. -1.
         21   -1    0    0  501  502 -0.00000000000E+00 -0.00000000000E+00 -0.58517790286E+03  0.58517790286E+03  0.00000000000E+00 0. -1.
      99926    2    1    2    0    0 -0.35527136788E-14  0.00000000000E+00 -0.49612326810E+03  0.67423253762E+03  0.45656458210E+03 0.  0.
      99925    2    3    3    0    0 -0.58246035574E+01 -0.11391587318E+03 -0.32907210935E+03  0.43639992860E+03  0.26295568518E+03 0.  0.
         25    1    3    3    0    0  0.58246035574E+01  0.11391587318E+03 -0.16705115876E+03  0.23783260902E+03  0.12509000000E+03 0.  0.
         25    1    4    4    0    0 -0.37921897201E+02 -0.79053281001E+02 -0.18136124578E+03  0.23712212274E+03  0.12509000000E+03 0.  0.
         25    1    4    4    0    0  0.32097293644E+02 -0.34862592179E+02 -0.14771086357E+03  0.19927780586E+03  0.12509000000E+03 0.  0.
<mgrwt>
<rscale>  2 0.45656458E+03</rscale>
<asrwt>0</asrwt>
<pdfrwt beam="1">  1       21 0.13096270E-01 0.45656458E+03</pdfrwt>
<pdfrwt beam="2">  1       21 0.86055573E-01 0.45656458E+03</pdfrwt>
<totfact> 0.53659958E+04</totfact>
</mgrwt>
</event>
<event>
 7    0  0.4766352E-002  0.4550779E+03  0.7546771E-02  0.1026218E+00
         21   -1    0    0  502  501  0.00000000000E+00  0.00000000000E+00  0.13050414171E+03  0.13050414171E+03  0.00000000000E+00 0. -1.
         21   -1    0    0  501  502 -0.00000000000E+00 -0.00000000000E+00 -0.39672291294E+03  0.39672291294E+03  0.00000000000E+00 0. -1.
      99926    2    1    2    0    0  0.00000000000E+00  0.00000000000E+00 -0.26621877123E+03  0.52722705465E+03  0.45507794168E+03 0.  0.
      99925    2    3    3    0    0 -0.10202126558E+03 -0.39903695600E+02 -0.13344258604E+03  0.31444155936E+03  0.26280397053E+03 0.  0.
         25    1    4    4    0    0 -0.82299502204E+02 -0.55558631866E+01 -0.45912838403E+02  0.15671494029E+03  0.12509000000E+03 0.  0.
         25    1    4    4    0    0 -0.19721763378E+02 -0.34347832414E+02 -0.87529747639E+02  0.15772661907E+03  0.12509000000E+03 0.  0.
         25    1    3    3    0    0  0.10202126558E+03  0.39903695600E+02 -0.13277618519E+03  0.21278549529E+03  0.12509000000E+03 0.  0.
<mgrwt>
<rscale>  2 0.45507794E+03</rscale>
<asrwt>0</asrwt>
<pdfrwt beam="1">  1       21 0.19191785E-01 0.45507794E+03</pdfrwt>
<pdfrwt beam="2">  1       21 0.58341606E-01 0.45507794E+03</pdfrwt>
<totfact> 0.63355488E+04</totfact>
</mgrwt>
</event>
<event>
 7    0  0.4766352E-002  0.4568184E+03  0.7546771E-02  0.1025708E+00
         21   -1    0    0  502  501  0.00000000000E+00  0.00000000000E+00  0.73659645455E+02  0.73659645455E+02  0.00000000000E+00 0. -1.
         21   -1    0    0  501  502 -0.00000000000E+00 -0.00000000000E+00 -0.70826780348E+03  0.70826780348E+03  0.00000000000E+00 0. -1.
      99926    2    1    2    0    0  0.00000000000E+00  0.00000000000E+00 -0.63460815802E+03  0.78192744893E+03  0.45681836781E+03 0.  0.
      99925    2    3    3    0    0  0.79210353021E+02 -0.82012194178E+02 -0.41998450338E+03  0.50859413364E+03  0.26321232811E+03 0.  0.
         25    1    4    4    0    0  0.19434379100E+02 -0.20226726809E+02 -0.24826114336E+03  0.27940636888E+03  0.12509000000E+03 0.  0.
         25    1    3    3    0    0 -0.79210353021E+02  0.82012194178E+02 -0.21462365464E+03  0.27333331530E+03  0.12509000000E+03 0.  0.
         25    1    4    4    0    0  0.59775973921E+02 -0.61785467369E+02 -0.17172336002E+03  0.22918776475E+03  0.12509000000E+03 0.  0.
<mgrwt>
<rscale>  2 0.45681837E+03</rscale>
<asrwt>0</asrwt>
<pdfrwt beam="1">  1       21 0.10832300E-01 0.45681837E+03</pdfrwt>
<pdfrwt beam="2">  1       21 0.10415704E+00 0.45681837E+03</pdfrwt>
<totfact> 0.47963195E+04</totfact>
</mgrwt>
</event>
<event>
 7    0  0.4766352E-002  0.4676537E+03  0.7546771E-02  0.1022585E+00
         21   -1    0    0  502  501  0.00000000000E+00  0.00000000000E+00  0.57561355741E+02  0.57561355741E+02  0.00000000000E+00 0. -1.
         21   -1    0    0  501  502 -0.00000000000E+00 -0.00000000000E+00 -0.94985610983E+03  0.94985610983E+03  0.00000000000E+00 0. -1.
      99926    2    1    2    0    0 -0.71054273576E-14  0.00000000000E+00 -0.89229475409E+03  0.10074174656E+04  0.46765374131E+03 0.  0.
      99925    2    3    3    0    0 -0.28526275653E+02 -0.40650173793E+02 -0.31041952309E+03  0.41018009435E+03  0.26347911578E+03 0.  0.
         25    1    4    4    0    0 -0.47814862560E+02 -0.44968955677E+02 -0.15555268171E+03  0.21012523158E+03  0.12509000000E+03 0.  0.
         25    1    3    3    0    0  0.28526275653E+02  0.40650173793E+02 -0.58187523100E+03  0.59723737122E+03  0.12509000000E+03 0.  0.
         25    1    4    4    0    0  0.19288586907E+02  0.43187818839E+01 -0.15486684138E+03  0.20005486277E+03  0.12509000000E+03 0.  0.
<mgrwt>
<rscale>  2 0.46765374E+03</rscale>
<asrwt>0</asrwt>
<pdfrwt beam="1">  1       21 0.84649057E-02 0.46765374E+03</pdfrwt>
<pdfrwt beam="2">  1       21 0.13968471E+00 0.46765374E+03</pdfrwt>
<totfact> 0.35263867E+04</totfact>
</mgrwt>
</event>
<event>
 7    0  0.4766352E-002  0.4502336E+03  0.7546771E-02  0.1027652E+00
         21   -1    0    0  502  501  0.00000000000E+00  0.00000000000E+00  0.74965780030E+02  0.74965780030E+02  0.00000000000E+00 0. -1.
         21   -1    0    0  501  502 -0.00000000000E+00 -0.00000000000E+00 -0.67600930726E+03  0.67600930726E+03  0.00000000000E+00 0. -1.
      99926    2    1    2    0    0  0.00000000000E+00  0.00000000000E+00 -0.60104352723E+03  0.75097508729E+03  0.45023356173E+03 0.  0.
      99925    2    3    3    0    0 -0.37521430307E+02 -0.95991658563E+02 -0.43702960671E+03  0.52038816123E+03  0.26303365747E+03 0.  0.
         25    1    4    4    0    0 -0.59017412604E+02 -0.46831134284E+02 -0.21292620870E+03  0.25818847492E+03  0.12509000000E+03 0.  0.
         25    1    4    4    0    0  0.21495982297E+02 -0.49160524278E+02 -0.22410339801E+03  0.26219968631E+03  0.12509000000E+03 0.  0.
         25    1    3    3    0    0  0.37521430307E+02  0.95991658563E+02 -0.16401392052E+03  0.23058692606E+03  0.12509000000E+03 0.  0.
<mgrwt>
<rscale>  2 0.45023356E+03</rscale>
<asrwt>0</asrwt>
<pdfrwt beam="1">  1       21 0.11024379E-01 0.45023356E+03</pdfrwt>
<pdfrwt beam="2">  1       21 0.99413134E-01 0.45023356E+03</pdfrwt>
<totfact> 0.52147375E+04</totfact>
</mgrwt>
</event>
<event>
 7    0  0.4766352E-002  0.4447662E+03  0.7546771E-02  0.1029294E+00
         21   -1    0    0  502  501  0.00000000000E+00  0.00000000000E+00  0.41866431892E+03  0.41866431892E+03  0.00000000000E+00 0. -1.
         21   -1    0    0  501  502 -0.00000000000E+00 -0.00000000000E+00 -0.11812384885E+03  0.11812384885E+03  0.00000000000E+00 0. -1.
      99926    2    1    2    0    0  0.00000000000E+00  0.00000000000E+00  0.30054047006E+03  0.53678816777E+03  0.44476618904E+03 0.  0.
      99925    2    3    3    0    0 -0.85518801496E+02 -0.20830423061E+02  0.25609259728E+03  0.37750699051E+03  0.26302231382E+03 0.  0.
         25    1    4    4    0    0 -0.28121974402E+02 -0.25164459057E+02  0.17258777968E+03  0.21646742304E+03  0.12509000000E+03 0.  0.
         25    1    4    4    0    0 -0.57396827094E+02  0.43340359958E+01  0.83504817606E+02  0.16103956747E+03  0.12509000000E+03 0.  0.
         25    1    3    3    0    0  0.85518801496E+02  0.20830423061E+02  0.44447872782E+02  0.15928117726E+03  0.12509000000E+03 0.  0.
<mgrwt>
<rscale>  2 0.44476619E+03</rscale>
<asrwt>0</asrwt>
<pdfrwt beam="1">  1       21 0.61568282E-01 0.44476619E+03</pdfrwt>
<pdfrwt beam="2">  1       21 0.17371154E-01 0.44476619E+03</pdfrwt>
<totfact> 0.68098377E+04</totfact>
</mgrwt>
</event>
<event>
 7    0  0.4766352E-002  0.4553459E+03  0.7546771E-02  0.1026140E+00
         21   -1    0    0  502  501  0.00000000000E+00  0.00000000000E+00  0.66067584835E+02  0.66067584835E+02  0.00000000000E+00 0.  1.
         21   -1    0    0  501  502 -0.00000000000E+00 -0.00000000000E+00 -0.78457510573E+03  0.78457510573E+03  0.00000000000E+00 0.  1.
      99926    2    1    2    0    0  0.00000000000E+00  0.00000000000E+00 -0.71850752090E+03  0.85064269057E+03  0.45534594478E+03 0.  0.
      99925    2    3    3    0    0 -0.21277652198E+02  0.78081912314E+02 -0.60059302575E+03  0.66064042800E+03  0.26302902695E+03 0.  0.
         25    1    4    4    0    0 -0.10429214205E+02  0.17367605644E+02 -0.37057995188E+03  0.39164704910E+03  0.12509000000E+03 0.  0.
         25    1    4    4    0    0 -0.10848437993E+02  0.60714306670E+02 -0.23001307387E+03  0.26899337890E+03  0.12509000000E+03 0.  0.
         25    1    3    3    0    0  0.21277652198E+02 -0.78081912314E+02 -0.11791449514E+03  0.19000226256E+03  0.12509000000E+03 0.  0.
<mgrwt>
<rscale>  2 0.45534594E+03</rscale>
<asrwt>0</asrwt>
<pdfrwt beam="1">  1       21 0.97158216E-02 0.45534594E+03</pdfrwt>
<pdfrwt beam="2">  1       21 0.11537869E+00 0.45534594E+03</pdfrwt>
<totfact> 0.45287616E+04</totfact>
</mgrwt>
</event>
<event>
 7    0  0.4766352E-002  0.4577183E+03  0.7546771E-02  0.1025445E+00
         21   -1    0    0  502  501  0.00000000000E+00  0.00000000000E+00  0.10162289782E+03  0.10162289782E+03  0.00000000000E+00 0. -1.
         21   -1    0    0  501  502 -0.00000000000E+00 -0.00000000000E+00 -0.51540073917E+03  0.51540073917E+03  0.00000000000E+00 0. -1.
      99926    2    1    2    0    0  0.00000000000E+00  0.35527136788E-14 -0.41377784135E+03  0.61702363700E+03  0.45771832673E+03 0.  0.
      99925    2    3    3    0    0 -0.46216467316E+02 -0.31924996537E+02 -0.12334639376E+03  0.29584907215E+03  0.26297751498E+03 0.  0.
         25    1    4    4    0    0  0.25830619524E+01 -0.47291090622E+02 -0.60403347653E+02  0.14676236564E+03  0.12509000000E+03 0.  0.
         25    1    4    4    0    0 -0.48799529268E+02  0.15366094085E+02 -0.62943046105E+02  0.14908670651E+03  0.12509000000E+03 0.  0.
         25    1    3    3    0    0  0.46216467316E+02  0.31924996537E+02 -0.29043144759E+03  0.32117456485E+03  0.12509000000E+03 0.  0.
<mgrwt>
<rscale>  2 0.45771833E+03</rscale>
<asrwt>0</asrwt>
<pdfrwt beam="1">  1       21 0.14944543E-01 0.45771833E+03</pdfrwt>
<pdfrwt beam="2">  1       21 0.75794229E-01 0.45771833E+03</pdfrwt>
<totfact> 0.56421440E+04</totfact>
</mgrwt>
</event>
<event>
 7    0  0.4766352E-002  0.4526575E+03  0.7546771E-02  0.1026932E+00
         21   -1    0    0  502  501  0.00000000000E+00  0.00000000000E+00  0.85046962655E+02  0.85046962655E+02  0.00000000000E+00 0. -1.
         21   -1    0    0  501  502 -0.00000000000E+00 -0.00000000000E+00 -0.60231082532E+03  0.60231082532E+03  0.00000000000E+00 0. -1.
      99926    2    1    2    0    0 -0.35527136788E-14  0.00000000000E+00 -0.51726386266E+03  0.68735778797E+03  0.45265751410E+03 0.  0.
      99925    2    3    3    0    0 -0.30158583028E+02  0.10256515133E+03 -0.37142910669E+03  0.46748410936E+03  0.26296893506E+03 0.  0.
         25    1    4    4    0    0 -0.22033690808E+02  0.14993578237E+02 -0.20361463924E+03  0.24045107680E+03  0.12509000000E+03 0.  0.
         25    1    3    3    0    0  0.30158583028E+02 -0.10256515133E+03 -0.14583475597E+03  0.21987367862E+03  0.12509000000E+03 0.  0.
         25    1    4    4    0    0 -0.81248922195E+01  0.87571573098E+02 -0.16781446745E+03  0.22703303256E+03  0.12509000000E+03 0.  0.
<mgrwt>
<rscale>  2 0.45265751E+03</rscale>
<asrwt>0</asrwt>
<pdfrwt beam="1">  1       21 0.12506906E-01 0.45265751E+03</pdfrwt>
<pdfrwt beam="2">  1       21 0.88575123E-01 0.45265751E+03</pdfrwt>
<totfact> 0.54594747E+04</totfact>
</mgrwt>
</event>
<event>
 7    0  0.4766352E-002  0.4795135E+03  0.7546771E-02  0.1019269E+00
         21   -1    0    0  502  501  0.00000000000E+00  0.00000000000E+00  0.62893647620E+03  0.62893647620E+03  0.00000000000E+00 0.  1.
         21   -1    0    0  501  502 -0.00000000000E+00 -0.00000000000E+00 -0.91397609199E+02  0.91397609199E+02  0.00000000000E+00 0.  1.
      99926    2    1    2    0    0  0.00000000000E+00  0.00000000000E+00  0.53753886700E+03  0.72033408540E+03  0.47951346285E+03 0.  0.
      99925    2    3    3    0    0 -0.55072522601E+02 -0.55966969279E+02  0.49606596560E+03  0.56693006313E+03  0.26298853562E+03 0.  0.
         25    1    4    4    0    0 -0.49378360020E+02 -0.50433300067E+02  0.20794459981E+03  0.25272555249E+03  0.12509000000E+03 0.  0.
         25    1    3    3    0    0  0.55072522601E+02  0.55966969279E+02  0.41472901403E+02  0.15340402226E+03  0.12509000000E+03 0.  0.
         25    1    4    4    0    0 -0.56941625813E+01 -0.55336692120E+01  0.28812136579E+03  0.31420451064E+03  0.12509000000E+03 0.  0.
<mgrwt>
<rscale>  2 0.47951346E+03</rscale>
<asrwt>0</asrwt>
<pdfrwt beam="1">  1       21 0.92490656E-01 0.47951346E+03</pdfrwt>
<pdfrwt beam="2">  1       21 0.13440825E-01 0.47951346E+03</pdfrwt>
<totfact> 0.42916292E+04</totfact>
</mgrwt>
</event>
<event>
 7    0  0.4766352E-002  0.4556919E+03  0.7546771E-02  0.1026038E+00
         21   -1    0    0  502  501  0.00000000000E+00  0.00000000000E+00  0.40565865837E+03  0.40565865837E+03  0.00000000000E+00 0. -1.
         21   -1    0    0  501  502 -0.00000000000E+00 -0.00000000000E+00 -0.12797406515E+03  0.12797406515E+03  0.00000000000E+00 0. -1.
      99926    2    1    2    0    0  0.71054273576E-14  0.14210854715E-13  0.27768459322E+03  0.53363272351E+03  0.45569194671E+03 0.  0.
      99925    2    3    3    0    0  0.38941810924E+02  0.10688515133E+03  0.17842059630E+03  0.33756704728E+03  0.26301464220E+03 0.  0.
         25    1    4    4    0    0 -0.30005899793E+01  0.21069492652E+02  0.58634240963E+02  0.13977986040E+03  0.12509000000E+03 0.  0.
         25    1    4    4    0    0  0.41942400903E+02  0.85815658678E+02  0.11978635533E+03  0.19778718688E+03  0.12509000000E+03 0.  0.
         25    1    3    3    0    0 -0.38941810924E+02 -0.10688515133E+03  0.99263996923E+02  0.19606567624E+03  0.12509000000E+03 0.  0.
<mgrwt>
<rscale>  2 0.45569195E+03</rscale>
<asrwt>0</asrwt>
<pdfrwt beam="1">  1       21 0.59655685E-01 0.45569195E+03</pdfrwt>
<pdfrwt beam="2">  1       21 0.18819716E-01 0.45569195E+03</pdfrwt>
<totfact> 0.62617136E+04</totfact>
</mgrwt>
</event>
<event>
 7    0  0.4766352E-002  0.4521511E+03  0.7546771E-02  0.1027083E+00
         21   -1    0    0  502  501  0.00000000000E+00  0.00000000000E+00  0.29198339190E+02  0.29198339190E+02  0.00000000000E+00 0.  1.
         21   -1    0    0  501  502 -0.00000000000E+00 -0.00000000000E+00 -0.17504473042E+04  0.17504473042E+04  0.00000000000E+00 0.  1.
      99926    2    1    2    0    0  0.00000000000E+00  0.00000000000E+00 -0.17212489650E+04  0.17796456434E+04  0.45215109918E+03 0.  0.
      99925    2    3    3    0    0 -0.98375708492E+02 -0.35044412581E+02 -0.95663104417E+03  0.99785669242E+03  0.26394911078E+03 0.  0.
         25    1    3    3    0    0  0.98375708492E+02  0.35044412581E+02 -0.76461792081E+03  0.78178895093E+03  0.12509000000E+03 0.  0.
         25    1    4    4    0    0 -0.64595469901E+02 -0.57962343640E+02 -0.50634323973E+03  0.52873735685E+03  0.12509000000E+03 0.  0.
         25    1    4    4    0    0 -0.33780238591E+02  0.22917931059E+02 -0.45028780443E+03  0.46911933557E+03  0.12509000000E+03 0.  0.
<mgrwt>
<rscale>  2 0.45215110E+03</rscale>
<asrwt>0</asrwt>
<pdfrwt beam="1">  1       21 0.42938727E-02 0.45215110E+03</pdfrwt>
<pdfrwt beam="2">  1       21 0.25741876E+00 0.45215110E+03</pdfrwt>
<totfact> 0.18049765E+04</totfact>
</mgrwt>
</event>
<event>
 7    0  0.4766352E-002  0.4577891E+03  0.7546771E-02  0.1025424E+00
         21   -1    0    0  502  501  0.00000000000E+00  0.00000000000E+00  0.10514876639E+03  0.10514876639E+03  0.00000000000E+00 0. -1.
         21   -1    0    0  501  502 -0.00000000000E+00 -0.00000000000E+00 -0.49827222971E+03  0.49827222971E+03  0.00000000000E+00 0. -1.
      99926    2    1    2    0    0  0.00000000000E+00  0.00000000000E+00 -0.39312346332E+03  0.60342099611E+03  0.45778907931E+03 0.  0.
      99925    2    3    3    0    0 -0.96893246505E+02 -0.50883609751E+02 -0.29625037598E+03  0.41104286297E+03  0.26308650093E+03 0.  0.
         25    1    4    4    0    0 -0.67321608532E+02  0.52235329197E+01 -0.17648969695E+03  0.22661775196E+03  0.12509000000E+03 0.  0.
         25    1    3    3    0    0  0.96893246505E+02  0.50883609751E+02 -0.96873087343E+02  0.19237813314E+03  0.12509000000E+03 0.  0.
         25    1    4    4    0    0 -0.29571637972E+02 -0.56107142671E+02 -0.11976067902E+03  0.18442511101E+03  0.12509000000E+03 0.  0.
<mgrwt>
<rscale>  2 0.45778908E+03</rscale>
<asrwt>0</asrwt>
<pdfrwt beam="1">  1       21 0.15463054E-01 0.45778908E+03</pdfrwt>
<pdfrwt beam="2">  1       21 0.73275327E-01 0.45778908E+03</pdfrwt>
<totfact> 0.57197368E+04</totfact>
</mgrwt>
</event>
<event>
 7    0  0.4766352E-002  0.4561439E+03  0.7546771E-02  0.1025906E+00
         21   -1    0    0  502  501  0.00000000000E+00  0.00000000000E+00  0.20683985011E+03  0.20683985011E+03  0.00000000000E+00 0. -1.
         21   -1    0    0  501  502 -0.00000000000E+00 -0.00000000000E+00 -0.25148348365E+03  0.25148348365E+03  0.00000000000E+00 0. -1.
      99926    2    1    2    0    0  0.11102230246E-14  0.00000000000E+00 -0.44643633544E+02  0.45832333375E+03  0.45614386354E+03 0.  0.
      99925    2    3    3    0    0  0.12143721774E+01  0.94052297681E+01  0.86334909847E+02  0.27695955574E+03  0.26298848988E+03 0.  0.
         25    1    4    4    0    0  0.29614810853E+02  0.30158433795E+02  0.30412287655E+02  0.13549532646E+03  0.12509000000E+03 0.  0.
         25    1    3    3    0    0 -0.12143721774E+01 -0.94052297681E+01 -0.13097854339E+03  0.18136377801E+03  0.12509000000E+03 0.  0.
         25    1    4    4    0    0 -0.28400438676E+02 -0.20753204027E+02  0.55922622192E+02  0.14146422929E+03  0.12509000000E+03 0.  0.
<mgrwt>
<rscale>  2 0.45614386E+03</rscale>
<asrwt>0</asrwt>
<pdfrwt beam="1">  1       21 0.30417625E-01 0.45614386E+03</pdfrwt>
<pdfrwt beam="2">  1       21 0.36982865E-01 0.45614386E+03</pdfrwt>
<totfact> 0.67683192E+04</totfact>
</mgrwt>
</event>
<event>
 7    0  0.4766352E-002  0.4589821E+03  0.7546771E-02  0.1025077E+00
         21   -1    0    0  502  501  0.00000000000E+00  0.00000000000E+00  0.43734196906E+03  0.43734196906E+03  0.00000000000E+00 0.  1.
         21   -1    0    0  501  502 -0.00000000000E+00 -0.00000000000E+00 -0.12042324995E+03  0.12042324995E+03  0.00000000000E+00 0.  1.
      99926    2    1    2    0    0 -0.35527136788E-14  0.00000000000E+00  0.31691871911E+03  0.55776521901E+03  0.45898209662E+03 0.  0.
      99925    2    3    3    0    0  0.29061716653E+02 -0.11208957025E+03  0.17862288204E+03  0.33826145644E+03  0.26288024610E+03 0.  0.
         25    1    4    4    0    0  0.44203293456E+02 -0.77530550875E+02  0.12042517099E+03  0.19522972975E+03  0.12509000000E+03 0.  0.
         25    1    4    4    0    0 -0.15141576803E+02 -0.34559019375E+02  0.58197711057E+02  0.14303172669E+03  0.12509000000E+03 0.  0.
         25    1    3    3    0    0 -0.29061716653E+02  0.11208957025E+03  0.13829583706E+03  0.21950376257E+03  0.12509000000E+03 0.  0.
<mgrwt>
<rscale>  2 0.45898210E+03</rscale>
<asrwt>0</asrwt>
<pdfrwt beam="1">  1       21 0.64314995E-01 0.45898210E+03</pdfrwt>
<pdfrwt beam="2">  1       21 0.17709302E-01 0.45898210E+03</pdfrwt>
<totfact> 0.59461003E+04</totfact>
</mgrwt>
</event>
<event>
 7    0  0.4766352E-002  0.4504949E+03  0.7546771E-02  0.1027575E+00
         21   -1    0    0  502  501  0.00000000000E+00  0.00000000000E+00  0.60569548596E+03  0.60569548596E+03  0.00000000000E+00 0. -1.
         21   -1    0    0  501  502 -0.00000000000E+00 -0.00000000000E+00 -0.83765559286E+02  0.83765559286E+02  0.00000000000E+00 0. -1.
      99926    2    1    2    0    0  0.00000000000E+00  0.00000000000E+00  0.52192992667E+03  0.68946104524E+03  0.45049493288E+03 0.  0.
      99925    2    3    3    0    0  0.86117170370E+02 -0.66498323490E+02  0.33644887253E+03  0.44068620004E+03  0.26299864833E+03 0.  0.
         25    1    4    4    0    0  0.65201742235E+02 -0.17873545797E+01  0.14757675103E+03  0.20415892675E+03  0.12509000000E+03 0.  0.
         25    1    4    4    0    0  0.20915428135E+02 -0.64710968910E+02  0.18887212150E+03  0.23652727329E+03  0.12509000000E+03 0.  0.
         25    1    3    3    0    0 -0.86117170370E+02  0.66498323490E+02  0.18548105414E+03  0.24877484520E+03  0.12509000000E+03 0.  0.
<mgrwt>
<rscale>  2 0.45049493E+03</rscale>
<asrwt>0</asrwt>
<pdfrwt beam="1">  1       21 0.89072864E-01 0.45049493E+03</pdfrwt>
<pdfrwt beam="2">  1       21 0.12318465E-01 0.45049493E+03</pdfrwt>
<totfact> 0.55418362E+04</totfact>
</mgrwt>
</event>
<event>
 7    0  0.4766352E-002  0.4518985E+03  0.7546771E-02  0.1027157E+00
         21   -1    0    0  502  501  0.00000000000E+00  0.00000000000E+00  0.50667359343E+02  0.50667359343E+02  0.00000000000E+00 0. -1.
         21   -1    0    0  501  502 -0.00000000000E+00 -0.00000000000E+00 -0.10076125587E+04  0.10076125587E+04  0.00000000000E+00 0. -1.
      99926    2    1    2    0    0  0.00000000000E+00 -0.88817841970E-15 -0.95694519938E+03  0.10582799181E+04  0.45189851777E+03 0.  0.
      99925    2    3    3    0    0  0.10779148203E+02 -0.47621709386E+01 -0.34741649134E+03  0.43593626515E+03  0.26306527803E+03 0.  0.
         25    1    4    4    0    0  0.12990432263E+02  0.34342506615E+02 -0.19926342643E+03  0.23812093630E+03  0.12509000000E+03 0.  0.
         25    1    4    4    0    0 -0.22112840601E+01 -0.39104677553E+02 -0.14815306491E+03  0.19781532885E+03  0.12509000000E+03 0.  0.
         25    1    3    3    0    0 -0.10779148203E+02  0.47621709386E+01 -0.60952870804E+03  0.62234365292E+03  0.12509000000E+03 0.  0.
<mgrwt>
<rscale>  2 0.45189852E+03</rscale>
<asrwt>0</asrwt>
<pdfrwt beam="1">  1       21 0.74510819E-02 0.45189852E+03</pdfrwt>
<pdfrwt beam="2">  1       21 0.14817833E+00 0.45189852E+03</pdfrwt>
<totfact> 0.37883756E+04</totfact>
</mgrwt>
</event>
<event>
 7    0  0.4766352E-002  0.4511135E+03  0.7546771E-02  0.1027391E+00
         21   -1    0    0  502  501  0.00000000000E+00  0.00000000000E+00  0.69394494310E+03  0.69394494310E+03  0.00000000000E+00 0.  1.
         21   -1    0    0  501  502 -0.00000000000E+00 -0.00000000000E+00 -0.73313954816E+02  0.73313954816E+02  0.00000000000E+00 0.  1.
      99926    2    1    2    0    0  0.71054273576E-14  0.71054273576E-14  0.62063098828E+03  0.76725889791E+03  0.45111350325E+03 0.  0.
      99925    2    3    3    0    0 -0.36776630580E+02 -0.60478502772E+02  0.24988268013E+03  0.36962591896E+03  0.26300531607E+03 0.  0.
         25    1    3    3    0    0  0.36776630580E+02  0.60478502772E+02  0.37074830815E+03  0.39763297895E+03  0.12509000000E+03 0.  0.
         25    1    4    4    0    0  0.17863987897E+02 -0.37022623981E+02  0.14520760634E+03  0.19601671813E+03  0.12509000000E+03 0.  0.
         25    1    4    4    0    0 -0.54640618477E+02 -0.23455878791E+02  0.10467507379E+03  0.17360920082E+03  0.12509000000E+03 0.  0.
<mgrwt>
<rscale>  2 0.45111350E+03</rscale>
<asrwt>0</asrwt>
<pdfrwt beam="1">  1       21 0.10205072E+00 0.45111350E+03</pdfrwt>
<pdfrwt beam="2">  1       21 0.10781464E-01 0.45111350E+03</pdfrwt>
<totfact> 0.50925193E+04</totfact>
</mgrwt>
</event>
<event>
 7    0  0.4766352E-002  0.4634158E+03  0.7546771E-02  0.1023795E+00
         21   -1    0    0  502  501  0.00000000000E+00  0.00000000000E+00  0.34098536515E+03  0.34098536515E+03  0.00000000000E+00 0. -1.
         21   -1    0    0  501  502 -0.00000000000E+00 -0.00000000000E+00 -0.15745116385E+03  0.15745116385E+03  0.00000000000E+00 0. -1.
      99926    2    1    2    0    0  0.35527136788E-14  0.14210854715E-13  0.18353420130E+03  0.49843652899E+03  0.46341576407E+03 0.  0.
      99925    2    3    3    0    0 -0.21712635632E+02 -0.11365600731E+03  0.77027360012E+02  0.29748792392E+03  0.26301468427E+03 0.  0.
         25    1    4    4    0    0  0.19815098913E+01 -0.45112221499E+02 -0.13929185104E+01  0.13299807229E+03  0.12509000000E+03 0.  0.
         25    1    4    4    0    0 -0.23694145524E+02 -0.68543785809E+02  0.78420278523E+02  0.16448985163E+03  0.12509000000E+03 0.  0.
         25    1    3    3    0    0  0.21712635632E+02  0.11365600731E+03  0.10650684128E+03  0.20094860508E+03  0.12509000000E+03 0.  0.
<mgrwt>
<rscale>  2 0.46341576E+03</rscale>
<asrwt>0</asrwt>
<pdfrwt beam="1">  1       21 0.50144906E-01 0.46341576E+03</pdfrwt>
<pdfrwt beam="2">  1       21 0.23154583E-01 0.46341576E+03</pdfrwt>
<totfact> 0.61189314E+04</totfact>
</mgrwt>
</event>
<event>
 7    0  0.4766352E-002  0.4533560E+03  0.7546771E-02  0.1026726E+00
         21   -1    0    0  502  501  0.00000000000E+00  0.00000000000E+00  0.13820437572E+04  0.13820437572E+04  0.00000000000E+00 0.  1.
         21   -1    0    0  501  502 -0.00000000000E+00 -0.00000000000E+00 -0.37178933709E+02  0.37178933709E+02  0.00000000000E+00 0.  1.
      99926    2    1    2    0    0  0.35527136788E-14  0.00000000000E+00  0.13448648235E+04  0.14192226909E+04  0.45335598919E+03 0.  0.
      99925    2    3    3    0    0  0.27793327417E+02 -0.38432275563E+02  0.53105846091E+03  0.59449375802E+03  0.26296431426E+03 0.  0.
         25    1    3    3    0    0 -0.27793327417E+02  0.38432275563E+02  0.81380636261E+03  0.82472893291E+03  0.12509000000E+03 0.  0.
         25    1    4    4    0    0  0.41296816529E+02 -0.36026922289E+02  0.33203787236E+03  0.35902649340E+03  0.12509000000E+03 0.  0.
         25    1    4    4    0    0 -0.13503489111E+02 -0.24053532745E+01  0.19902058855E+03  0.23546726462E+03  0.12509000000E+03 0.  0.
<mgrwt>
<rscale>  2 0.45335599E+03</rscale>
<asrwt>0</asrwt>
<pdfrwt beam="1">  1       21 0.20324169E+00 0.45335599E+03</pdfrwt>
<pdfrwt beam="2">  1       21 0.54674912E-02 0.45335599E+03</pdfrwt>
<totfact> 0.26156800E+04</totfact>
</mgrwt>
</event>
<event>
 7    0  0.4766352E-002  0.4538030E+03  0.7546771E-02  0.1026594E+00
         21   -1    0    0  502  501  0.00000000000E+00  0.00000000000E+00  0.91093779707E+02  0.91093779707E+02  0.00000000000E+00 0.  1.
         21   -1    0    0  501  502 -0.00000000000E+00 -0.00000000000E+00 -0.56517902625E+03  0.56517902625E+03  0.00000000000E+00 0.  1.
      99926    2    1    2    0    0  0.00000000000E+00  0.71054273576E-14 -0.47408524654E+03  0.65627280596E+03  0.45380301327E+03 0.  0.
      99925    2    3    3    0    0  0.73839789308E+02  0.48574915497E+02 -0.39829525016E+03  0.48538258227E+03  0.26295495426E+03 0.  0.
         25    1    4    4    0    0  0.52492834520E+02  0.50870561838E+02 -0.16332247389E+03  0.21832327021E+03  0.12509000000E+03 0.  0.
         25    1    3    3    0    0 -0.73839789308E+02 -0.48574915497E+02 -0.75789996389E+02  0.17089022369E+03  0.12509000000E+03 0.  0.
         25    1    4    4    0    0  0.21346954788E+02 -0.22956463411E+01 -0.23497277626E+03  0.26705931206E+03  0.12509000000E+03 0.  0.
<mgrwt>
<rscale>  2 0.45380301E+03</rscale>
<asrwt>0</asrwt>
<pdfrwt beam="1">  1       21 0.13396144E-01 0.45380301E+03</pdfrwt>
<pdfrwt beam="2">  1       21 0.83114564E-01 0.45380301E+03</pdfrwt>
<totfact> 0.55867068E+04</totfact>
</mgrwt>
</event>
<event>
 7    0  0.4766352E-002  0.4533909E+03  0.7546771E-02  0.1026716E+00
         21   -1    0    0  502  501  0.00000000000E+00  0.00000000000E+00  0.22328200427E+03  0.22328200427E+03  0.00000000000E+00 0.  1.
         21   -1    0    0  501  502 -0.00000000000E+00 -0.00000000000E+00 -0.23016106363E+03  0.23016106363E+03  0.00000000000E+00 0.  1.
      99926    2    1    2    0    0  0.00000000000E+00  0.35527136788E-14 -0.68790593602E+01  0.45344306790E+03  0.45339088474E+03 0.  0.
      99925    2    3    3    0    0 -0.10856017180E+03  0.20868985440E+02  0.12596820884E+02  0.28537271517E+03  0.26278904317E+03 0.  0.
         25    1    4    4    0    0 -0.40941437977E+02  0.48439354037E+02  0.61773973342E+01  0.14038604169E+03  0.12509000000E+03 0.  0.
         25    1    3    3    0    0  0.10856017180E+03 -0.20868985440E+02 -0.19475880244E+02  0.16807035273E+03  0.12509000000E+03 0.  0.
         25    1    4    4    0    0 -0.67618733821E+02 -0.27570368598E+02  0.64194235498E+01  0.14498667348E+03  0.12509000000E+03 0.  0.
<mgrwt>
<rscale>  2 0.45339088E+03</rscale>
<asrwt>0</asrwt>
<pdfrwt beam="1">  1       21 0.32835589E-01 0.45339088E+03</pdfrwt>
<pdfrwt beam="2">  1       21 0.33847215E-01 0.45339088E+03</pdfrwt>
<totfact> 0.69548662E+04</totfact>
</mgrwt>
</event>
<event>
 7    0  0.4766352E-002  0.4561735E+03  0.7546771E-02  0.1025897E+00
         21   -1    0    0  502  501  0.00000000000E+00  0.00000000000E+00  0.11634654990E+04  0.11634654990E+04  0.00000000000E+00 0. -1.
         21   -1    0    0  501  502 -0.00000000000E+00 -0.00000000000E+00 -0.44714321671E+02  0.44714321671E+02  0.00000000000E+00 0. -1.
      99926    2    1    2    0    0  0.00000000000E+00 -0.71054273576E-14  0.11187511773E+04  0.12081798207E+04  0.45617352214E+03 0.  0.
      99925    2    3    3    0    0  0.57481762709E+02 -0.63569996826E+02  0.50242854285E+03  0.57347800453E+03  0.26286362143E+03 0.  0.
         25    1    4    4    0    0  0.44685578450E+02 -0.18757496017E+01  0.19879438652E+03  0.23909628933E+03  0.12509000000E+03 0.  0.
         25    1    3    3    0    0 -0.57481762709E+02  0.63569996826E+02  0.61632263446E+03  0.63470181612E+03  0.12509000000E+03 0.  0.
         25    1    4    4    0    0  0.12796184259E+02 -0.61694247224E+02  0.30363415633E+03  0.33438171520E+03  0.12509000000E+03 0.  0.
<mgrwt>
<rscale>  2 0.45617352E+03</rscale>
<asrwt>0</asrwt>
<pdfrwt beam="1">  1       21 0.17109785E+00 0.45617352E+03</pdfrwt>
<pdfrwt beam="2">  1       21 0.65756363E-02 0.45617352E+03</pdfrwt>
<totfact> 0.31607855E+04</totfact>
</mgrwt>
</event>
<event>
 7    0  0.4766352E-002  0.4396755E+03  0.7546771E-02  0.1030846E+00
         21   -1    0    0  502  501  0.00000000000E+00  0.00000000000E+00  0.24487150447E+04  0.24487150447E+04  0.00000000000E+00 0. -1.
         21   -1    0    0  501  502 -0.00000000000E+00 -0.00000000000E+00 -0.19736329605E+02  0.19736329605E+02  0.00000000000E+00 0. -1.
      99926    2    1    2    0    0 -0.14210854715E-13  0.00000000000E+00  0.24289787151E+04  0.24684513743E+04  0.43967554961E+03 0.  0.
      99925    2    3    3    0    0 -0.91109125747E+02  0.35331107260E+02  0.15008899155E+04  0.15268859289E+04  0.26298467923E+03 0.  0.
         25    1    4    4    0    0 -0.44266361847E+02 -0.85656300958E+01  0.56130764919E+03  0.57684197658E+03  0.12509000000E+03 0.  0.
         25    1    4    4    0    0 -0.46842763900E+02  0.43896737355E+02  0.93958226627E+03  0.95004395228E+03  0.12509000000E+03 0.  0.
         25    1    3    3    0    0  0.91109125747E+02 -0.35331107260E+02  0.92808879965E+03  0.94156544546E+03  0.12509000000E+03 0.  0.
<mgrwt>
<rscale>  2 0.43967555E+03</rscale>
<asrwt>0</asrwt>
<pdfrwt beam="1">  1       21 0.36010495E+00 0.43967555E+03</pdfrwt>
<pdfrwt beam="2">  1       21 0.29024031E-02 0.43967555E+03</pdfrwt>
<totfact> 0.84192262E+03</totfact>
</mgrwt>
</event>
<event>
 7    0  0.4766352E-002  0.4435757E+03  0.7546771E-02  0.1029655E+00
         21   -1    0    0  502  501  0.00000000000E+00  0.00000000000E+00  0.16571413823E+04  0.16571413823E+04  0.00000000000E+00 0.  1.
         21   -1    0    0  501  502 -0.00000000000E+00 -0.00000000000E+00 -0.29683563022E+02  0.29683563022E+02  0.00000000000E+00 0.  1.
      99926    2    1    2    0    0  0.00000000000E+00  0.14210854715E-13  0.16274578193E+04  0.16868249453E+04  0.44357574621E+03 0.  0.
      99925    2    3    3    0    0  0.60347452691E+02 -0.78260760399E+02  0.11340164624E+04  0.11682707606E+04  0.26286245742E+03 0.  0.
         25    1    4    4    0    0  0.67505298914E+02 -0.34095715949E+02  0.52776590727E+03  0.54763477264E+03  0.12509000000E+03 0.  0.
         25    1    3    3    0    0 -0.60347452691E+02  0.78260760399E+02  0.49344135685E+03  0.51855418465E+03  0.12509000000E+03 0.  0.
         25    1    4    4    0    0 -0.71578462228E+01 -0.44165044450E+02  0.60625055513E+03  0.62063598801E+03  0.12509000000E+03 0.  0.
<mgrwt>
<rscale>  2 0.44357575E+03</rscale>
<asrwt>0</asrwt>
<pdfrwt beam="1">  1       21 0.24369720E+00 0.44357575E+03</pdfrwt>
<pdfrwt beam="2">  1       21 0.43652310E-02 0.44357575E+03</pdfrwt>
<totfact> 0.21370807E+04</totfact>
</mgrwt>
</event>
<event>
 7    0  0.4766352E-002  0.4519134E+03  0.7546771E-02  0.1027153E+00
         21   -1    0    0  502  501  0.00000000000E+00  0.00000000000E+00  0.24196465298E+03  0.24196465298E+03  0.00000000000E+00 0.  1.
         21   -1    0    0  501  502 -0.00000000000E+00 -0.00000000000E+00 -0.21100778106E+03  0.21100778106E+03  0.00000000000E+00 0.  1.
      99926    2    1    2    0    0  0.00000000000E+00 -0.35527136788E-14  0.30956871924E+02  0.45297243404E+03  0.45191337453E+03 0.  0.
      99925    2    3    3    0    0  0.65336581430E+02  0.16491405491E+02  0.10697567175E+03  0.29182901545E+03  0.26302004597E+03 0.  0.
         25    1    3    3    0    0 -0.65336581430E+02 -0.16491405491E+02 -0.76018799828E+02  0.16114341859E+03  0.12509000000E+03 0.  0.
         25    1    4    4    0    0  0.52166014918E+02  0.42555751731E+02  0.68689544548E+02  0.15779114914E+03  0.12509000000E+03 0.  0.
         25    1    4    4    0    0  0.13170566512E+02 -0.26064346239E+02  0.38286127203E+02  0.13403786630E+03  0.12509000000E+03 0.  0.
<mgrwt>
<rscale>  2 0.45191337E+03</rscale>
<asrwt>0</asrwt>
<pdfrwt beam="1">  1       21 0.35583037E-01 0.45191337E+03</pdfrwt>
<pdfrwt beam="2">  1       21 0.31030556E-01 0.45191337E+03</pdfrwt>
<totfact> 0.70412799E+04</totfact>
</mgrwt>
</event>
<event>
 7    0  0.4766352E-002  0.4163248E+03  0.7546771E-02  0.1038269E+00
         21   -1    0    0  502  501  0.00000000000E+00  0.00000000000E+00  0.11297951214E+03  0.11297951214E+03  0.00000000000E+00 0.  1.
         21   -1    0    0  501  502 -0.00000000000E+00 -0.00000000000E+00 -0.38353492783E+03  0.38353492783E+03  0.00000000000E+00 0.  1.
      99926    2    1    2    0    0 -0.14210854715E-13  0.00000000000E+00 -0.27055541570E+03  0.49651443997E+03  0.41632482046E+03 0.  0.
      99925    2    3    3    0    0  0.68758782591E+02  0.16931567869E+02 -0.18164276882E+03  0.32749546160E+03  0.26314394109E+03 0.  0.
         25    1    4    4    0    0  0.60286141351E+00 -0.13386268709E+02 -0.98603327494E+02  0.15984267242E+03  0.12509000000E+03 0.  0.
         25    1    3    3    0    0 -0.68758782591E+02 -0.16931567869E+02 -0.88912646876E+02  0.16901897837E+03  0.12509000000E+03 0.  0.
         25    1    4    4    0    0  0.68155921177E+02  0.30317836578E+02 -0.83039441328E+02  0.16765278919E+03  0.12509000000E+03 0.  0.
<mgrwt>
<rscale>  2 0.41632482E+03</rscale>
<asrwt>0</asrwt>
<pdfrwt beam="1">  1       21 0.16614634E-01 0.41632482E+03</pdfrwt>
<pdfrwt beam="2">  1       21 0.56402194E-01 0.41632482E+03</pdfrwt>
<totfact> 0.90151747E+04</totfact>
</mgrwt>
</event>
<event>
 7    0  0.4766352E-002  0.4307101E+03  0.7546771E-02  0.1033636E+00
         21   -1    0    0  502  501  0.00000000000E+00  0.00000000000E+00  0.81068640786E+03  0.81068640786E+03  0.00000000000E+00 0.  1.
         21   -1    0    0  501  502 -0.00000000000E+00 -0.00000000000E+00 -0.57208064011E+02  0.57208064011E+02  0.00000000000E+00 0.  1.
      99926    2    1    2    0    0  0.71054273576E-14  0.71054273576E-14  0.75347834385E+03  0.86789447187E+03  0.43071011093E+03 0.  0.
      99925    2    3    3    0    0 -0.63008545970E+02  0.59393418271E+02  0.52206421493E+03  0.59095104414E+03  0.26301033642E+03 0.  0.
         25    1    3    3    0    0  0.63008545970E+02 -0.59393418271E+02  0.23141412892E+03  0.27694342773E+03  0.12509000000E+03 0.  0.
         25    1    4    4    0    0 -0.40891500915E+02  0.69466733483E+02  0.30140124651E+03  0.33613681948E+03  0.12509000000E+03 0.  0.
         25    1    4    4    0    0 -0.22117045055E+02 -0.10073315213E+02  0.22066296842E+03  0.25481422467E+03  0.12509000000E+03 0.  0.
<mgrwt>
<rscale>  2 0.43071011E+03</rscale>
<asrwt>0</asrwt>
<pdfrwt beam="1">  1       21 0.11921858E+00 0.43071011E+03</pdfrwt>
<pdfrwt beam="2">  1       21 0.84129511E-02 0.43071011E+03</pdfrwt>
<totfact> 0.54259069E+04</totfact>
</mgrwt>
</event>
<event>
 7    0  0.4766352E-002  0.4620917E+03  0.7546771E-02  0.1024176E+00
         21   -1    0    0  502  501  0.00000000000E+00  0.00000000000E+00  0.38041117031E+03  0.38041117031E+03  0.00000000000E+00 0. -1.
         21   -1    0    0  501  502 -0.00000000000E+00 -0.00000000000E+00 -0.14032758969E+03  0.14032758969E+03  0.00000000000E+00 0. -1.
      99926    2    1    2    0    0 -0.14210854715E-13 -0.71054273576E-14  0.24008358063E+03  0.52073876000E+03  0.46209169056E+03 0.  0.
      99925    2    3    3    0    0  0.10419298848E+03  0.57329490424E+02  0.13533360435E+03  0.31884048128E+03  0.26306124517E+03 0.  0.
         25    1    4    4    0    0  0.94500276973E+02  0.41234678340E+02  0.71944311759E+02  0.17735301841E+03  0.12509000000E+03 0.  0.
         25    1    4    4    0    0  0.96927115115E+01  0.16094812085E+02  0.63389292592E+02  0.14148746286E+03  0.12509000000E+03 0.  0.
         25    1    3    3    0    0 -0.10419298848E+03 -0.57329490424E+02  0.10474997628E+03  0.20189827872E+03  0.12509000000E+03 0.  0.
<mgrwt>
<rscale>  2 0.46209169E+03</rscale>
<asrwt>0</asrwt>
<pdfrwt beam="1">  1       21 0.55942819E-01 0.46209169E+03</pdfrwt>
<pdfrwt beam="2">  1       21 0.20636410E-01 0.46209169E+03</pdfrwt>
<totfact> 0.60367854E+04</totfact>
</mgrwt>
</event>
<event>
 7    0  0.4766352E-002  0.4543315E+03  0.7546771E-02  0.1026438E+00
         21   -1    0    0  502  501  0.00000000000E+00  0.00000000000E+00  0.11360164299E+03  0.11360164299E+03  0.00000000000E+00 0. -1.
         21   -1    0    0  501  502 -0.00000000000E+00 -0.00000000000E+00 -0.45425648836E+03  0.45425648836E+03  0.00000000000E+00 0. -1.
      99926    2    1    2    0    0  0.00000000000E+00  0.00000000000E+00 -0.34065484537E+03  0.56785813135E+03  0.45433152397E+03 0.  0.
      99925    2    3    3    0    0 -0.32446643525E+02 -0.45349742404E+02 -0.33646298256E+03  0.43083819256E+03  0.26325809717E+03 0.  0.
         25    1    4    4    0    0 -0.19304907874E+02 -0.14375236873E+02 -0.23101633289E+03  0.26380936500E+03  0.12509000000E+03 0.  0.
         25    1    4    4    0    0 -0.13141735651E+02 -0.30974505532E+02 -0.10544664967E+03  0.16702882756E+03  0.12509000000E+03 0.  0.
         25    1    3    3    0    0  0.32446643525E+02  0.45349742404E+02 -0.41918628094E+01  0.13701993879E+03  0.12509000000E+03 0.  0.
<mgrwt>
<rscale>  2 0.45433152E+03</rscale>
<asrwt>0</asrwt>
<pdfrwt beam="1">  1       21 0.16706124E-01 0.45433152E+03</pdfrwt>
<pdfrwt beam="2">  1       21 0.66802423E-01 0.45433152E+03</pdfrwt>
<totfact> 0.61023590E+04</totfact>
</mgrwt>
</event>
<event>
 7    0  0.4766352E-002  0.4565333E+03  0.7546771E-02  0.1025791E+00
         21   -1    0    0  502  501  0.00000000000E+00  0.00000000000E+00  0.31250334512E+03  0.31250334512E+03  0.00000000000E+00 0.  1.
         21   -1    0    0  501  502 -0.00000000000E+00 -0.00000000000E+00 -0.16673631333E+03  0.16673631333E+03  0.00000000000E+00 0.  1.
      99926    2    1    2    0    0  0.00000000000E+00  0.00000000000E+00  0.14576703179E+03  0.47923965845E+03  0.45653326568E+03 0.  0.
      99925    2    3    3    0    0  0.94471450756E+02 -0.42138440312E+02  0.14348773225E+03  0.31690295136E+03  0.26294152984E+03 0.  0.
         25    1    3    3    0    0 -0.94471450756E+02  0.42138440312E+02  0.22792995354E+01  0.16233670708E+03  0.12509000000E+03 0.  0.
         25    1    4    4    0    0  0.70364378436E+02 -0.12167508005E+02  0.38414303634E+02  0.14907166340E+03  0.12509000000E+03 0.  0.
         25    1    4    4    0    0  0.24107072320E+02 -0.29970932307E+02  0.10507342862E+03  0.16783128797E+03  0.12509000000E+03 0.  0.
<mgrwt>
<rscale>  2 0.45653327E+03</rscale>
<asrwt>0</asrwt>
<pdfrwt beam="1">  1       21 0.45956375E-01 0.45653327E+03</pdfrwt>
<pdfrwt beam="2">  1       21 0.24520046E-01 0.45653327E+03</pdfrwt>
<totfact> 0.65949252E+04</totfact>
</mgrwt>
</event>
<event>
 7    0  0.4766352E-002  0.4507099E+03  0.7546771E-02  0.1027511E+00
         21   -1    0    0  502  501  0.00000000000E+00  0.00000000000E+00  0.17497369366E+04  0.17497369366E+04  0.00000000000E+00 0. -1.
         21   -1    0    0  501  502 -0.00000000000E+00 -0.00000000000E+00 -0.29024284143E+02  0.29024284143E+02  0.00000000000E+00 0. -1.
      99926    2    1    2    0    0  0.00000000000E+00  0.00000000000E+00  0.17207126524E+04  0.17787612207E+04  0.45070993787E+03 0.  0.
      99925    2    3    3    0    0 -0.10710606738E+03 -0.12271251863E+02  0.10206698086E+04  0.10595048098E+04  0.26298534292E+03 0.  0.
         25    1    4    4    0    0 -0.28865611767E+02 -0.39098440176E+02  0.47092138301E+03  0.48966965256E+03  0.12509000000E+03 0.  0.
         25    1    4    4    0    0 -0.78240455609E+02  0.26827188313E+02  0.54974842557E+03  0.56983515726E+03  0.12509000000E+03 0.  0.
         25    1    3    3    0    0  0.10710606738E+03  0.12271251863E+02  0.70004284385E+03  0.71925641090E+03  0.12509000000E+03 0.  0.
<mgrwt>
<rscale>  2 0.45070994E+03</rscale>
<asrwt>0</asrwt>
<pdfrwt beam="1">  1       21 0.25731418E+00 0.45070994E+03</pdfrwt>
<pdfrwt beam="2">  1       21 0.42682783E-02 0.45070994E+03</pdfrwt>
<totfact> 0.18272181E+04</totfact>
</mgrwt>
</event>
<event>
 7    0  0.4766352E-002  0.4536352E+03  0.7546771E-02  0.1026644E+00
         21   -1    0    0  502  501  0.00000000000E+00  0.00000000000E+00  0.51546004185E+03  0.51546004185E+03  0.00000000000E+00 0. -1.
         21   -1    0    0  501  502 -0.00000000000E+00 -0.00000000000E+00 -0.99806426441E+02  0.99806426441E+02  0.00000000000E+00 0. -1.
      99926    2    1    2    0    0  0.00000000000E+00  0.71054273576E-14  0.41565361541E+03  0.61526646829E+03  0.45363520476E+03 0.  0.
      99925    2    3    3    0    0 -0.90190015311E+02  0.60160093610E+02  0.29925397368E+03  0.41290574972E+03  0.26302992542E+03 0.  0.
         25    1    4    4    0    0 -0.53032757778E+02 -0.15876222592E+01  0.10967029386E+03  0.17461407560E+03  0.12509000000E+03 0.  0.
         25    1    3    3    0    0  0.90190015311E+02 -0.60160093610E+02  0.11639964173E+03  0.20236071857E+03  0.12509000000E+03 0.  0.
         25    1    4    4    0    0 -0.37157257533E+02  0.61747715869E+02  0.18958367982E+03  0.23829167412E+03  0.12509000000E+03 0.  0.
<mgrwt>
<rscale>  2 0.45363520E+03</rscale>
<asrwt>0</asrwt>
<pdfrwt beam="1">  1       21 0.75802946E-01 0.45363520E+03</pdfrwt>
<pdfrwt beam="2">  1       21 0.14677416E-01 0.45363520E+03</pdfrwt>
<totfact> 0.58374945E+04</totfact>
</mgrwt>
</event>
<event>
 7    0  0.4766352E-002  0.4554751E+03  0.7546771E-02  0.1026102E+00
         21   -1    0    0  502  501  0.00000000000E+00  0.00000000000E+00  0.12658795784E+04  0.12658795784E+04  0.00000000000E+00 0. -1.
         21   -1    0    0  501  502 -0.00000000000E+00 -0.00000000000E+00 -0.40971023959E+02  0.40971023959E+02  0.00000000000E+00 0. -1.
      99926    2    1    2    0    0  0.00000000000E+00  0.00000000000E+00  0.12249085545E+04  0.13068506024E+04  0.45547505985E+03 0.  0.
      99925    2    3    3    0    0  0.54208471500E+02 -0.84662014147E+02  0.61901348334E+03  0.68006311022E+03  0.26306259008E+03 0.  0.
         25    1    3    3    0    0 -0.54208471500E+02  0.84662014147E+02  0.60589507111E+03  0.62678749215E+03  0.12509000000E+03 0.  0.
         25    1    4    4    0    0 -0.65497059833E+01 -0.56991753286E+02  0.34745509399E+03  0.37371581319E+03  0.12509000000E+03 0.  0.
         25    1    4    4    0    0  0.60758177484E+02 -0.27670260861E+02  0.27155838935E+03  0.30634729702E+03  0.12509000000E+03 0.  0.
<mgrwt>
<rscale>  2 0.45547506E+03</rscale>
<asrwt>0</asrwt>
<pdfrwt beam="1">  1       21 0.18615874E+00 0.45547506E+03</pdfrwt>
<pdfrwt beam="2">  1       21 0.60251514E-02 0.45547506E+03</pdfrwt>
<totfact> 0.28809794E+04</totfact>
</mgrwt>
</event>
<event>
 7    0  0.4766352E-002  0.4475402E+03  0.7546771E-02  0.1028458E+00
         21   -1    0    0  502  501  0.00000000000E+00  0.00000000000E+00  0.60043229968E+02  0.60043229968E+02  0.00000000000E+00 0.  1.
         21   -1    0    0  501  502 -0.00000000000E+00 -0.00000000000E+00 -0.83395010803E+03  0.83395010803E+03  0.00000000000E+00 0.  1.
      99926    2    1    2    0    0  0.00000000000E+00  0.00000000000E+00 -0.77390687806E+03  0.89399333800E+03  0.44754020208E+03 0.  0.
      99925    2    3    3    0    0  0.51129531268E+02  0.78228391750E+02 -0.59035303475E+03  0.65300904030E+03  0.26300226392E+03 0.  0.
         25    1    4    4    0    0  0.11599166707E+02  0.17545366775E+00 -0.24156380455E+03  0.27227770974E+03  0.12509000000E+03 0.  0.
         25    1    3    3    0    0 -0.51129531268E+02 -0.78228391750E+02 -0.18355384331E+03  0.24098429770E+03  0.12509000000E+03 0.  0.
         25    1    4    4    0    0  0.39530364561E+02  0.78052938083E+02 -0.34878923020E+03  0.38073133055E+03  0.12509000000E+03 0.  0.
<mgrwt>
<rscale>  2 0.44754020E+03</rscale>
<asrwt>0</asrwt>
<pdfrwt beam="1">  1       21 0.88298867E-02 0.44754020E+03</pdfrwt>
<pdfrwt beam="2">  1       21 0.12263972E+00 0.44754020E+03</pdfrwt>
<totfact> 0.46130088E+04</totfact>
</mgrwt>
</event>
<event>
 7    0  0.4766352E-002  0.4577811E+03  0.7546771E-02  0.1025427E+00
         21   -1    0    0  502  501  0.00000000000E+00  0.00000000000E+00  0.29143079390E+03  0.29143079390E+03  0.00000000000E+00 0.  1.
         21   -1    0    0  501  502 -0.00000000000E+00 -0.00000000000E+00 -0.17977125733E+03  0.17977125733E+03  0.00000000000E+00 0.  1.
      99926    2    1    2    0    0  0.00000000000E+00  0.00000000000E+00  0.11165953657E+03  0.47120205123E+03  0.45778108411E+03 0.  0.
      99925    2    3    3    0    0  0.47292791618E+02  0.66327558626E+02 -0.14121942571E+02  0.27599846067E+03  0.26332445358E+03 0.  0.
         25    1    4    4    0    0  0.61799024180E+01  0.39176269168E+02 -0.43753122419E+02  0.13832864881E+03  0.12509000000E+03 0.  0.
         25    1    3    3    0    0 -0.47292791618E+02 -0.66327558626E+02  0.12578147914E+03  0.19520359056E+03  0.12509000000E+03 0.  0.
         25    1    4    4    0    0  0.41112889200E+02  0.27151289459E+02  0.29631179849E+02  0.13766981186E+03  0.12509000000E+03 0.  0.
<mgrwt>
<rscale>  2 0.45778108E+03</rscale>
<asrwt>0</asrwt>
<pdfrwt beam="1">  1       21 0.42857470E-01 0.45778108E+03</pdfrwt>
<pdfrwt beam="2">  1       21 0.26436949E-01 0.45778108E+03</pdfrwt>
<totfact> 0.65880981E+04</totfact>
</mgrwt>
</event>
<event>
 7    0  0.4766352E-002  0.4548758E+03  0.7546771E-02  0.1026278E+00
         21   -1    0    0  502  501  0.00000000000E+00  0.00000000000E+00  0.10588898053E+04  0.10588898053E+04  0.00000000000E+00 0. -1.
         21   -1    0    0  501  502 -0.00000000000E+00 -0.00000000000E+00 -0.48851158579E+02  0.48851158579E+02  0.00000000000E+00 0. -1.
      99926    2    1    2    0    0  0.14210854715E-13  0.00000000000E+00  0.10100386467E+04  0.11077409639E+04  0.45487577995E+03 0.  0.
      99925    2    3    3    0    0 -0.74432728512E+02 -0.64938486834E+02  0.76975757820E+03  0.81940134098E+03  0.26293457409E+03 0.  0.
         25    1    4    4    0    0 -0.72417126434E+02 -0.57324170122E+02  0.41874005787E+03  0.44667778638E+03  0.12509000000E+03 0.  0.
         25    1    3    3    0    0  0.74432728512E+02  0.64938486834E+02  0.24028106851E+03  0.28833962289E+03  0.12509000000E+03 0.  0.
         25    1    4    4    0    0 -0.20156020776E+01 -0.76143167124E+01  0.35101752033E+03  0.37272355459E+03  0.12509000000E+03 0.  0.
<mgrwt>
<rscale>  2 0.45487578E+03</rscale>
<asrwt>0</asrwt>
<pdfrwt beam="1">  1       21 0.15571907E+00 0.45487578E+03</pdfrwt>
<pdfrwt beam="2">  1       21 0.71839946E-02 0.45487578E+03</pdfrwt>
<totfact> 0.35259060E+04</totfact>
</mgrwt>
</event>
<event>
 7    0  0.4766352E-002  0.4699350E+03  0.7546771E-02  0.1021939E+00
         21   -1    0    0  502  501  0.00000000000E+00  0.00000000000E+00  0.52170801294E+03  0.52170801294E+03  0.00000000000E+00 0.  1.
         21   -1    0    0  501  502 -0.00000000000E+00 -0.00000000000E+00 -0.10582493447E+03  0.10582493447E+03  0.00000000000E+00 0.  1.
      99926    2    1    2    0    0  0.88817841970E-15  0.00000000000E+00  0.41588307847E+03  0.62753294741E+03  0.46993495840E+03 0.  0.
      99925    2    3    3    0    0  0.48428460902E+01  0.25950222404E+02  0.92986990220E+02  0.28024882870E+03  0.26305124678E+03 0.  0.
         25    1    4    4    0    0  0.10241603663E+02  0.26069527094E+02  0.86954517776E+02  0.15489708503E+03  0.12509000000E+03 0.  0.
         25    1    4    4    0    0 -0.53987575729E+01 -0.11930469068E+00  0.60324724444E+01  0.12535174367E+03  0.12509000000E+03 0.  0.
         25    1    3    3    0    0 -0.48428460902E+01 -0.25950222404E+02  0.32289608825E+03  0.34728411871E+03  0.12509000000E+03 0.  0.
<mgrwt>
<rscale>  2 0.46993496E+03</rscale>
<asrwt>0</asrwt>
<pdfrwt beam="1">  1       21 0.76721765E-01 0.46993496E+03</pdfrwt>
<pdfrwt beam="2">  1       21 0.15562491E-01 0.46993496E+03</pdfrwt>
<totfact> 0.50759206E+04</totfact>
</mgrwt>
</event>
<event>
 7    0  0.4766352E-002  0.4572411E+03  0.7546771E-02  0.1025584E+00
         21   -1    0    0  502  501  0.00000000000E+00  0.00000000000E+00  0.14103268495E+03  0.14103268495E+03  0.00000000000E+00 0.  1.
         21   -1    0    0  501  502 -0.00000000000E+00 -0.00000000000E+00 -0.37060461305E+03  0.37060461305E+03  0.00000000000E+00 0.  1.
      99926    2    1    2    0    0  0.00000000000E+00  0.00000000000E+00 -0.22957192810E+03  0.51163729800E+03  0.45724113390E+03 0.  0.
      99925    2    3    3    0    0 -0.43516015248E+02  0.98315733065E+02 -0.97822610883E+02  0.30053301657E+03  0.26304220934E+03 0.  0.
         25    1    3    3    0    0  0.43516015248E+02 -0.98315733065E+02 -0.13174931722E+03  0.21110428143E+03  0.12509000000E+03 0.  0.
         25    1    4    4    0    0 -0.41810615794E+01  0.30645931294E+02 -0.80558456698E+02  0.15196653390E+03  0.12509000000E+03 0.  0.
         25    1    4    4    0    0 -0.39334953668E+02  0.67669801772E+02 -0.17264154185E+02  0.14856648267E+03  0.12509000000E+03 0.  0.
<mgrwt>
<rscale>  2 0.45724113E+03</rscale>
<asrwt>0</asrwt>
<pdfrwt beam="1">  1       21 0.20740101E-01 0.45724113E+03</pdfrwt>
<pdfrwt beam="2">  1       21 0.54500678E-01 0.45724113E+03</pdfrwt>
<totfact> 0.63326742E+04</totfact>
</mgrwt>
</event>
<event>
 7    0  0.4766352E-002  0.4555484E+03  0.7546771E-02  0.1026080E+00
         21   -1    0    0  502  501  0.00000000000E+00  0.00000000000E+00  0.59112862456E+02  0.59112862456E+02  0.00000000000E+00 0. -1.
         21   -1    0    0  501  502 -0.00000000000E+00 -0.00000000000E+00 -0.87766173242E+03  0.87766173242E+03  0.00000000000E+00 0. -1.
      99926    2    1    2    0    0  0.00000000000E+00  0.00000000000E+00 -0.81854886997E+03  0.93677459488E+03  0.45554844867E+03 0.  0.
      99925    2    3    3    0    0  0.16091331172E+02 -0.22024082080E+02 -0.28788659316E+03  0.39088637257E+03  0.26300090230E+03 0.  0.
         25    1    4    4    0    0  0.76705513552E+01 -0.29043361528E+02 -0.91807278339E+02  0.15804568537E+03  0.12509000000E+03 0.  0.
         25    1    3    3    0    0 -0.16091331172E+02  0.22024082080E+02 -0.53066227681E+03  0.54588822231E+03  0.12509000000E+03 0.  0.
         25    1    4    4    0    0  0.84207798164E+01  0.70192794478E+01 -0.19607931482E+03  0.23284068721E+03  0.12509000000E+03 0.  0.
<mgrwt>
<rscale>  2 0.45554845E+03</rscale>
<asrwt>0</asrwt>
<pdfrwt beam="1">  1       21 0.86930685E-02 0.45554845E+03</pdfrwt>
<pdfrwt beam="2">  1       21 0.12906789E+00 0.45554845E+03</pdfrwt>
<totfact> 0.41502727E+04</totfact>
</mgrwt>
</event>
<event>
 7    0  0.4766352E-002  0.4515815E+03  0.7546771E-02  0.1027251E+00
         21   -1    0    0  502  501  0.00000000000E+00  0.00000000000E+00  0.16792095357E+03  0.16792095357E+03  0.00000000000E+00 0.  1.
         21   -1    0    0  501  502 -0.00000000000E+00 -0.00000000000E+00 -0.30360394333E+03  0.30360394333E+03  0.00000000000E+00 0.  1.
      99926    2    1    2    0    0  0.00000000000E+00 -0.71054273576E-14 -0.13568298977E+03  0.47152489690E+03  0.45158150392E+03 0.  0.
      99925    2    3    3    0    0  0.98744794095E+02  0.36196398550E+02 -0.52307303622E+02  0.28805902332E+03  0.26302325615E+03 0.  0.
         25    1    3    3    0    0 -0.98744794095E+02 -0.36196398550E+02 -0.83375686145E+02  0.18346587358E+03  0.12509000000E+03 0.  0.
         25    1    4    4    0    0  0.84889624894E+02  0.27709382523E+02 -0.64068970700E+01  0.15382657353E+03  0.12509000000E+03 0.  0.
         25    1    4    4    0    0  0.13855169201E+02  0.84870160270E+01 -0.45900406552E+02  0.13423244979E+03  0.12509000000E+03 0.  0.
<mgrwt>
<rscale>  2 0.45158150E+03</rscale>
<asrwt>0</asrwt>
<pdfrwt beam="1">  1       21 0.24694258E-01 0.45158150E+03</pdfrwt>
<pdfrwt beam="2">  1       21 0.44647639E-01 0.45158150E+03</pdfrwt>
<totfact> 0.69180072E+04</totfact>
</mgrwt>
</event>
<event>
 7    0  0.4766352E-002  0.4741445E+03  0.7546771E-02  0.1020757E+00
         21   -1    0    0  502  501  0.00000000000E+00  0.00000000000E+00  0.59822675067E+03  0.59822675067E+03  0.00000000000E+00 0.  1.
         21   -1    0    0  501  502 -0.00000000000E+00 -0.00000000000E+00 -0.93949728253E+02  0.93949728253E+02  0.00000000000E+00 0.  1.
      99926    2    1    2    0    0  0.00000000000E+00  0.71054273576E-14  0.50427702241E+03  0.69217647892E+03  0.47414445334E+03 0.  0.
      99925    2    3    3    0    0  0.45794667277E+02 -0.57693207141E+02  0.46909307693E+03  0.54280755370E+03  0.26299442547E+03 0.  0.
         25    1    3    3    0    0 -0.45794667277E+02  0.57693207141E+02  0.35183945482E+02  0.14936892522E+03  0.12509000000E+03 0.  0.
         25    1    4    4    0    0 -0.24048032242E+00 -0.37821377190E+02  0.29498743333E+03  0.32263851029E+03  0.12509000000E+03 0.  0.
         25    1    4    4    0    0  0.46035147599E+02 -0.19871829951E+02  0.17410564360E+03  0.22016904341E+03  0.12509000000E+03 0.  0.
<mgrwt>
<rscale>  2 0.47414445E+03</rscale>
<asrwt>0</asrwt>
<pdfrwt beam="1">  1       21 0.87974520E-01 0.47414445E+03</pdfrwt>
<pdfrwt beam="2">  1       21 0.13816137E-01 0.47414445E+03</pdfrwt>
<totfact> 0.45991818E+04</totfact>
</mgrwt>
</event>
<event>
 7    0  0.4766352E-002  0.4476697E+03  0.7546771E-02  0.1028419E+00
         21   -1    0    0  502  501  0.00000000000E+00  0.00000000000E+00  0.57710695917E+03  0.57710695917E+03  0.00000000000E+00 0. -1.
         21   -1    0    0  501  502 -0.00000000000E+00 -0.00000000000E+00 -0.86815852069E+02  0.86815852069E+02  0.00000000000E+00 0. -1.
      99926    2    1    2    0    0 -0.71054273576E-14  0.00000000000E+00  0.49029110710E+03  0.66392281124E+03  0.44766966569E+03 0.  0.
      99925    2    3    3    0    0 -0.55351750371E+02  0.89659048510E+02  0.33012839406E+03  0.43500762171E+03  0.26295306260E+03 0.  0.
         25    1    3    3    0    0  0.55351750371E+02 -0.89659048510E+02  0.16016271304E+03  0.22891518953E+03  0.12509000000E+03 0.  0.
         25    1    4    4    0    0 -0.12977414352E+02  0.45453864832E+02  0.10389205614E+03  0.16933852054E+03  0.12509000000E+03 0.  0.
         25    1    4    4    0    0 -0.42374336018E+02  0.44205183678E+02  0.22623633792E+03  0.26566910117E+03  0.12509000000E+03 0.  0.
<mgrwt>
<rscale>  2 0.44766967E+03</rscale>
<asrwt>0</asrwt>
<pdfrwt beam="1">  1       21 0.84868669E-01 0.44766967E+03</pdfrwt>
<pdfrwt beam="2">  1       21 0.12767037E-01 0.44766967E+03</pdfrwt>
<totfact> 0.58195897E+04</totfact>
</mgrwt>
</event>
<event>
 7    0  0.4766352E-002  0.4629198E+03  0.7546771E-02  0.1023938E+00
         21   -1    0    0  502  501  0.00000000000E+00  0.00000000000E+00  0.37910928421E+03  0.37910928421E+03  0.00000000000E+00 0. -1.
         21   -1    0    0  501  502 -0.00000000000E+00 -0.00000000000E+00 -0.14131461492E+03  0.14131461492E+03  0.00000000000E+00 0. -1.
      99926    2    1    2    0    0  0.00000000000E+00  0.00000000000E+00  0.23779466929E+03  0.52042389913E+03  0.46291978792E+03 0.  0.
      99925    2    3    3    0    0 -0.26213104930E+02  0.39257533909E+02  0.27297757389E+03  0.38217186220E+03  0.26326848572E+03 0.  0.
         25    1    4    4    0    0 -0.47576275605E+02  0.34857387515E+02  0.16661336036E+03  0.21653189006E+03  0.12509000000E+03 0.  0.
         25    1    4    4    0    0  0.21363170675E+02  0.44001463939E+01  0.10636421354E+03  0.16563997214E+03  0.12509000000E+03 0.  0.
         25    1    3    3    0    0  0.26213104930E+02 -0.39257533909E+02 -0.35182904609E+02  0.13825203693E+03  0.12509000000E+03 0.  0.
<mgrwt>
<rscale>  2 0.46291979E+03</rscale>
<asrwt>0</asrwt>
<pdfrwt beam="1">  1       21 0.55751365E-01 0.46291979E+03</pdfrwt>
<pdfrwt beam="2">  1       21 0.20781561E-01 0.46291979E+03</pdfrwt>
<totfact> 0.59998359E+04</totfact>
</mgrwt>
</event>
<event>
 7    0  0.4766352E-002  0.4558593E+03  0.7546771E-02  0.1025989E+00
         21   -1    0    0  502  501  0.00000000000E+00  0.00000000000E+00  0.33111960244E+03  0.33111960244E+03  0.00000000000E+00 0. -1.
         21   -1    0    0  501  502 -0.00000000000E+00 -0.00000000000E+00 -0.15689776510E+03  0.15689776510E+03  0.00000000000E+00 0. -1.
      99926    2    1    2    0    0  0.00000000000E+00  0.00000000000E+00  0.17422183734E+03  0.48801736754E+03  0.45585930111E+03 0.  0.
      99925    2    3    3    0    0 -0.26983948830E+02  0.10474571149E+03  0.71027139971E+02  0.29309058325E+03  0.26297801772E+03 0.  0.
         25    1    4    4    0    0 -0.47708004550E+02  0.55770065700E+02  0.14059652984E+02  0.14571045216E+03  0.12509000000E+03 0.  0.
         25    1    4    4    0    0  0.20724055720E+02  0.48975645785E+02  0.56967486987E+02  0.14738013109E+03  0.12509000000E+03 0.  0.
         25    1    3    3    0    0  0.26983948830E+02 -0.10474571149E+03  0.10319469737E+03  0.19492678429E+03  0.12509000000E+03 0.  0.
<mgrwt>
<rscale>  2 0.45585930E+03</rscale>
<asrwt>0</asrwt>
<pdfrwt beam="1">  1       21 0.48694059E-01 0.45585930E+03</pdfrwt>
<pdfrwt beam="2">  1       21 0.23073201E-01 0.45585930E+03</pdfrwt>
<totfact> 0.65671831E+04</totfact>
</mgrwt>
</event>
<event>
 7    0  0.4766352E-002  0.4967850E+03  0.7546771E-02  0.1014621E+00
         21   -1    0    0  502  501  0.00000000000E+00  0.00000000000E+00  0.58410240997E+03  0.58410240997E+03  0.00000000000E+00 0. -1.
         21   -1    0    0  501  502 -0.00000000000E+00 -0.00000000000E+00 -0.10563016310E+03  0.10563016310E+03  0.00000000000E+00 0. -1.
      99926    2    1    2    0    0  0.00000000000E+00  0.00000000000E+00  0.47847224688E+03  0.68973257307E+03  0.49678499506E+03 0.  0.
      99925    2    3    3    0    0  0.73323634741E+02 -0.12953860720E+03  0.29743997248E+03  0.42406963128E+03  0.26307396066E+03 0.  0.
         25    1    3    3    0    0 -0.73323634741E+02  0.12953860720E+03  0.18103227440E+03  0.26566294180E+03  0.12509000000E+03 0.  0.
         25    1    4    4    0    0  0.36956046029E+02 -0.10859670238E+03  0.15403629091E+03  0.22920226902E+03  0.12509000000E+03 0.  0.
         25    1    4    4    0    0  0.36367588712E+02 -0.20941904827E+02  0.14340368157E+03  0.19486736226E+03  0.12509000000E+03 0.  0.
<mgrwt>
<rscale>  2 0.49678500E+03</rscale>
<asrwt>0</asrwt>
<pdfrwt beam="1">  1       21 0.85897412E-01 0.49678500E+03</pdfrwt>
<pdfrwt beam="2">  1       21 0.15533848E-01 0.49678500E+03</pdfrwt>
<totfact> 0.38960910E+04</totfact>
</mgrwt>
</event>
<event>
 7    0  0.4766352E-002  0.4711833E+03  0.7546771E-02  0.1021587E+00
         21   -1    0    0  502  501  0.00000000000E+00  0.00000000000E+00  0.12241531487E+04  0.12241531487E+04  0.00000000000E+00 0. -1.
         21   -1    0    0  501  502 -0.00000000000E+00 -0.00000000000E+00 -0.45340270934E+02  0.45340270934E+02  0.00000000000E+00 0. -1.
      99926    2    1    2    0    0  0.00000000000E+00  0.00000000000E+00  0.11788128778E+04  0.12694934197E+04  0.47118334193E+03 0.  0.
      99925    2    3    3    0    0 -0.17573618952E+02  0.43347255934E+02  0.10516278433E+04  0.10850717350E+04  0.26319523663E+03 0.  0.
         25    1    4    4    0    0 -0.30429160538E+02  0.57067914516E+02  0.55706635622E+03  0.57458951784E+03  0.12509000000E+03 0.  0.
         25    1    4    4    0    0  0.12855541586E+02 -0.13720658583E+02  0.49456148707E+03  0.51048221714E+03  0.12509000000E+03 0.  0.
         25    1    3    3    0    0  0.17573618952E+02 -0.43347255934E+02  0.12718503450E+03  0.18442168468E+03  0.12509000000E+03 0.  0.
<mgrwt>
<rscale>  2 0.47118334E+03</rscale>
<asrwt>0</asrwt>
<pdfrwt beam="1">  1       21 0.18002250E+00 0.47118334E+03</pdfrwt>
<pdfrwt beam="2">  1       21 0.66676877E-02 0.47118334E+03</pdfrwt>
<totfact> 0.26513396E+04</totfact>
</mgrwt>
</event>
<event>
 7    0  0.4766352E-002  0.4590985E+03  0.7546771E-02  0.1025043E+00
         21   -1    0    0  502  501  0.00000000000E+00  0.00000000000E+00  0.11260260243E+03  0.11260260243E+03  0.00000000000E+00 0.  1.
         21   -1    0    0  501  502 -0.00000000000E+00 -0.00000000000E+00 -0.46795420292E+03  0.46795420292E+03  0.00000000000E+00 0.  1.
      99926    2    1    2    0    0 -0.88817841970E-15  0.00000000000E+00 -0.35535160050E+03  0.58055680535E+03  0.45909851259E+03 0.  0.
      99925    2    3    3    0    0 -0.77008359083E+01  0.11237612248E+03 -0.26252930217E+03  0.38832990051E+03  0.26304140616E+03 0.  0.
         25    1    4    4    0    0  0.24983599792E+01  0.99427836309E+02 -0.15316725534E+03  0.22135910337E+03  0.12509000000E+03 0.  0.
         25    1    4    4    0    0 -0.10199195887E+02  0.12948286169E+02 -0.10936204682E+03  0.16697079714E+03  0.12509000000E+03 0.  0.
         25    1    3    3    0    0  0.77008359083E+01 -0.11237612248E+03 -0.92822298328E+02  0.19222690484E+03  0.12509000000E+03 0.  0.
<mgrwt>
<rscale>  2 0.45909851E+03</rscale>
<asrwt>0</asrwt>
<pdfrwt beam="1">  1       21 0.16559206E-01 0.45909851E+03</pdfrwt>
<pdfrwt beam="2">  1       21 0.68816796E-01 0.45909851E+03</pdfrwt>
<totfact> 0.57989381E+04</totfact>
</mgrwt>
</event>
<event>
 7    0  0.4766352E-002  0.4517184E+03  0.7546771E-02  0.1027211E+00
         21   -1    0    0  502  501  0.00000000000E+00  0.00000000000E+00  0.10432927902E+03  0.10432927902E+03  0.00000000000E+00 0.  1.
         21   -1    0    0  501  502 -0.00000000000E+00 -0.00000000000E+00 -0.48895547246E+03  0.48895547246E+03  0.00000000000E+00 0.  1.
      99926    2    1    2    0    0  0.00000000000E+00 -0.71054273576E-14 -0.38462619344E+03  0.59328475148E+03  0.45171837206E+03 0.  0.
      99925    2    3    3    0    0  0.73402041459E+02 -0.35818717176E+02 -0.33963653772E+03  0.43726418421E+03  0.26301359061E+03 0.  0.
         25    1    3    3    0    0 -0.73402041459E+02  0.35818717176E+02 -0.44989655716E+02  0.15602056727E+03  0.12509000000E+03 0.  0.
         25    1    4    4    0    0  0.49098183746E+02  0.63920823143E+01 -0.12230276926E+03  0.18181574693E+03  0.12509000000E+03 0.  0.
         25    1    4    4    0    0  0.24303857713E+02 -0.42210799491E+02 -0.21733376846E+03  0.25544843728E+03  0.12509000000E+03 0.  0.
<mgrwt>
<rscale>  2 0.45171837E+03</rscale>
<asrwt>0</asrwt>
<pdfrwt beam="1">  1       21 0.15342541E-01 0.45171837E+03</pdfrwt>
<pdfrwt beam="2">  1       21 0.71905215E-01 0.45171837E+03</pdfrwt>
<totfact> 0.60651191E+04</totfact>
</mgrwt>
</event>
<event>
 7    0  0.4766352E-002  0.4572039E+03  0.7546771E-02  0.1025595E+00
         21   -1    0    0  502  501  0.00000000000E+00  0.00000000000E+00  0.94764100033E+02  0.94764100033E+02  0.00000000000E+00 0.  1.
         21   -1    0    0  501  502 -0.00000000000E+00 -0.00000000000E+00 -0.55146262371E+03  0.55146262371E+03  0.00000000000E+00 0.  1.
      99926    2    1    2    0    0  0.35527136788E-14  0.00000000000E+00 -0.45669852368E+03  0.64622672374E+03  0.45720393366E+03 0.  0.
      99925    2    3    3    0    0  0.28088326012E+02 -0.23174603855E+02 -0.13248257106E+03  0.29681363247E+03  0.26309824109E+03 0.  0.
         25    1    3    3    0    0 -0.28088326012E+02  0.23174603855E+02 -0.32421595262E+03  0.34941309127E+03  0.12509000000E+03 0.  0.
         25    1    4    4    0    0  0.39683280129E+02  0.64703558061E+01 -0.37763498085E+02  0.13671217251E+03  0.12509000000E+03 0.  0.
         25    1    4    4    0    0 -0.11594954117E+02 -0.29644959661E+02 -0.94719072972E+02  0.16010145995E+03  0.12509000000E+03 0.  0.
<mgrwt>
<rscale>  2 0.45720393E+03</rscale>
<asrwt>0</asrwt>
<pdfrwt beam="1">  1       21 0.13935897E-01 0.45720393E+03</pdfrwt>
<pdfrwt beam="2">  1       21 0.81097443E-01 0.45720393E+03</pdfrwt>
<totfact> 0.54957471E+04</totfact>
</mgrwt>
</event>
<event>
 7    0  0.4766352E-002  0.4483150E+03  0.7546771E-02  0.1028226E+00
         21   -1    0    0  502  501  0.00000000000E+00  0.00000000000E+00  0.11069316573E+03  0.11069316573E+03  0.00000000000E+00 0. -1.
         21   -1    0    0  501  502 -0.00000000000E+00 -0.00000000000E+00 -0.45392661864E+03  0.45392661864E+03  0.00000000000E+00 0. -1.
      99926    2    1    2    0    0  0.00000000000E+00  0.26645352591E-14 -0.34323345291E+03  0.56461978437E+03  0.44831495370E+03 0.  0.
      99925    2    3    3    0    0  0.80508623966E+02 -0.45302600168E+01 -0.12919368147E+03  0.30392322964E+03  0.26301361257E+03 0.  0.
         25    1    4    4    0    0  0.22424388803E+02  0.24260076240E+02 -0.90259402048E+02  0.15775193270E+03  0.12509000000E+03 0.  0.
         25    1    4    4    0    0  0.58084235163E+02 -0.28790336256E+02 -0.38934279420E+02  0.14617129694E+03  0.12509000000E+03 0.  0.
         25    1    3    3    0    0 -0.80508623966E+02  0.45302600168E+01 -0.21403977144E+03  0.26069655473E+03  0.12509000000E+03 0.  0.
<mgrwt>
<rscale>  2 0.44831495E+03</rscale>
<asrwt>0</asrwt>
<pdfrwt beam="1">  1       21 0.16278407E-01 0.44831495E+03</pdfrwt>
<pdfrwt beam="2">  1       21 0.66753914E-01 0.44831495E+03</pdfrwt>
<totfact> 0.64240301E+04</totfact>
</mgrwt>
</event>
<event>
 7    0  0.4766352E-002  0.4630568E+03  0.7546771E-02  0.1023898E+00
         21   -1    0    0  502  501  0.00000000000E+00  0.00000000000E+00  0.22312495230E+03  0.22312495230E+03  0.00000000000E+00 0.  1.
         21   -1    0    0  501  502 -0.00000000000E+00 -0.00000000000E+00 -0.24024834277E+03  0.24024834277E+03  0.00000000000E+00 0.  1.
      99926    2    1    2    0    0  0.00000000000E+00 -0.71054273576E-14 -0.17123390471E+02  0.46337329507E+03  0.46305680006E+03 0.  0.
      99925    2    3    3    0    0 -0.32943505363E+02  0.62062856480E+02  0.87239518869E+02  0.28595796978E+03  0.26310483487E+03 0.  0.
         25    1    4    4    0    0  0.47050145940E+01  0.56884815282E+02  0.69374538286E+02  0.15400764278E+03  0.12509000000E+03 0.  0.
         25    1    4    4    0    0 -0.37648519957E+02  0.51780411973E+01  0.17864980583E+02  0.13195032701E+03  0.12509000000E+03 0.  0.
         25    1    3    3    0    0  0.32943505363E+02 -0.62062856480E+02 -0.10436290934E+03  0.17741532529E+03  0.12509000000E+03 0.  0.
<mgrwt>
<rscale>  2 0.46305680E+03</rscale>
<asrwt>0</asrwt>
<pdfrwt beam="1">  1       21 0.32812493E-01 0.46305680E+03</pdfrwt>
<pdfrwt beam="2">  1       21 0.35330639E-01 0.46305680E+03</pdfrwt>
<totfact> 0.63739616E+04</totfact>
</mgrwt>
</event>
<event>
 6    0  0.4766352E-002  0.4639991E+03  0.7546771E-02  0.1023628E+00
         21   -1    0    0  502  501  0.00000000000E+00  0.00000000000E+00  0.31505948372E+03  0.31505948372E+03  0.00000000000E+00 0. -1.
         21   -1    0    0  501  502 -0.00000000000E+00 -0.00000000000E+00 -0.17083689332E+03  0.17083689332E+03  0.00000000000E+00 0. -1.
      99926    2    1    2    0    0  0.00000000000E+00 -0.14210854715E-13  0.14422259040E+03  0.48589637704E+03  0.46399906643E+03 0.  0.
         25    1    3    3    0    0 -0.41655152944E+02  0.44870616902E+00  0.71936456679E+00  0.13184604161E+03  0.12509000000E+03 0.  0.
         25    1    3    3    0    0 -0.32441535708E+02 -0.84426559669E+02  0.52316459937E+02  0.16298716912E+03  0.12509000000E+03 0.  0.
         25    1    3    3    0    0  0.74096688652E+02  0.83977853500E+02  0.91186765891E+02  0.19106316631E+03  0.12509000000E+03 0.  0.
<mgrwt>
<rscale>  2 0.46399907E+03</rscale>
<asrwt>0</asrwt>
<pdfrwt beam="1">  1       21 0.46332277E-01 0.46399907E+03</pdfrwt>
<pdfrwt beam="2">  1       21 0.25123072E-01 0.46399907E+03</pdfrwt>
<totfact> 0.61743671E+04</totfact>
</mgrwt>
</event>
<event>
 7    0  0.4766352E-002  0.4260067E+03  0.7546771E-02  0.1035129E+00
         21   -1    0    0  502  501  0.00000000000E+00  0.00000000000E+00  0.22082751513E+02  0.22082751513E+02  0.00000000000E+00 0.  1.
         21   -1    0    0  501  502 -0.00000000000E+00 -0.00000000000E+00 -0.20545637863E+04  0.20545637863E+04  0.00000000000E+00 0.  1.
      99926    2    1    2    0    0 -0.17763568394E-14 -0.71054273576E-14 -0.20324810348E+04  0.20766465378E+04  0.42600667394E+03 0.  0.
      99925    2    3    3    0    0  0.13936379886E+02  0.57005429419E+02 -0.16014764343E+04  0.16240359818E+04  0.26329120555E+03 0.  0.
         25    1    4    4    0    0 -0.71634533675E+01  0.12829405333E+02 -0.98993976838E+03  0.99791991754E+03  0.12509000000E+03 0.  0.
         25    1    4    4    0    0  0.21099833253E+02  0.44176024086E+02 -0.61153666589E+03  0.62611606424E+03  0.12509000000E+03 0.  0.
         25    1    3    3    0    0 -0.13936379886E+02 -0.57005429419E+02 -0.43100460051E+03  0.45261055603E+03  0.12509000000E+03 0.  0.
<mgrwt>
<rscale>  2 0.42600667E+03</rscale>
<asrwt>0</asrwt>
<pdfrwt beam="1">  1       21 0.32474626E-02 0.42600667E+03</pdfrwt>
<pdfrwt beam="2">  1       21 0.30214181E+00 0.42600667E+03</pdfrwt>
<totfact> 0.15758955E+04</totfact>
</mgrwt>
</event>
<event>
 7    0  0.4766352E-002  0.4533890E+03  0.7546771E-02  0.1026716E+00
         21   -1    0    0  502  501  0.00000000000E+00  0.00000000000E+00  0.43193745522E+03  0.43193745522E+03  0.00000000000E+00 0. -1.
         21   -1    0    0  501  502 -0.00000000000E+00 -0.00000000000E+00 -0.11897647282E+03  0.11897647282E+03  0.00000000000E+00 0. -1.
      99926    2    1    2    0    0  0.00000000000E+00  0.14210854715E-13  0.31296098240E+03  0.55091392804E+03  0.45338899370E+03 0.  0.
      99925    2    3    3    0    0  0.32117821335E+02  0.10019370275E+03  0.15223637847E+03  0.32167553918E+03  0.26311386330E+03 0.  0.
         25    1    4    4    0    0  0.10143177769E+02  0.92854798066E+02  0.81286984439E+02  0.17601130509E+03  0.12509000000E+03 0.  0.
         25    1    4    4    0    0  0.21974643567E+02  0.73389046831E+01  0.70949394029E+02  0.14566423410E+03  0.12509000000E+03 0.  0.
         25    1    3    3    0    0 -0.32117821335E+02 -0.10019370275E+03  0.16072460393E+03  0.22923838886E+03  0.12509000000E+03 0.  0.
<mgrwt>
<rscale>  2 0.45338899E+03</rscale>
<asrwt>0</asrwt>
<pdfrwt beam="1">  1       21 0.63520213E-01 0.45338899E+03</pdfrwt>
<pdfrwt beam="2">  1       21 0.17496540E-01 0.45338899E+03</pdfrwt>
<totfact> 0.62600241E+04</totfact>
</mgrwt>
</event>
<event>
 7    0  0.4766352E-002  0.4769165E+03  0.7546771E-02  0.1019986E+00
         21   -1    0    0  502  501  0.00000000000E+00  0.00000000000E+00  0.13115270487E+03  0.13115270487E+03  0.00000000000E+00 0.  1.
         21   -1    0    0  501  502 -0.00000000000E+00 -0.00000000000E+00 -0.43355827662E+03  0.43355827662E+03  0.00000000000E+00 0.  1.
      99926    2    1    2    0    0  0.00000000000E+00  0.00000000000E+00 -0.30240557175E+03  0.56471098149E+03  0.47691651554E+03 0.  0.
      99925    2    3    3    0    0 -0.82809719764E+02 -0.83001582758E+02 -0.26024735441E+03  0.38815635590E+03  0.26303984246E+03 0.  0.
         25    1    3    3    0    0  0.82809719764E+02  0.83001582758E+02 -0.42158217343E+02  0.17655462559E+03  0.12509000000E+03 0.  0.
         25    1    4    4    0    0 -0.31868474224E+02 -0.19774086357E+02 -0.75922407114E+02  0.15105738692E+03  0.12509000000E+03 0.  0.
         25    1    4    4    0    0 -0.50941245540E+02 -0.63227496401E+02 -0.18432494729E+03  0.23709896898E+03  0.12509000000E+03 0.  0.
<mgrwt>
<rscale>  2 0.47691652E+03</rscale>
<asrwt>0</asrwt>
<pdfrwt beam="1">  1       21 0.19287162E-01 0.47691652E+03</pdfrwt>
<pdfrwt beam="2">  1       21 0.63758570E-01 0.47691652E+03</pdfrwt>
<totfact> 0.51396005E+04</totfact>
</mgrwt>
</event>
<event>
 7    0  0.4766352E-002  0.4491515E+03  0.7546771E-02  0.1027975E+00
         21   -1    0    0  502  501  0.00000000000E+00  0.00000000000E+00  0.50400031453E+03  0.50400031453E+03  0.00000000000E+00 0. -1.
         21   -1    0    0  501  502 -0.00000000000E+00 -0.00000000000E+00 -0.10006794545E+03  0.10006794545E+03  0.00000000000E+00 0. -1.
      99926    2    1    2    0    0  0.00000000000E+00  0.00000000000E+00  0.40393236908E+03  0.60406825998E+03  0.44915153781E+03 0.  0.
      99925    2    3    3    0    0  0.75333493174E+02 -0.27270980371E+02  0.15888948799E+03  0.31751571115E+03  0.26296675811E+03 0.  0.
         25    1    3    3    0    0 -0.75333493174E+02  0.27270980371E+02  0.24504288109E+03  0.28655254883E+03  0.12509000000E+03 0.  0.
         25    1    4    4    0    0  0.55152760758E+02 -0.47879820564E+02  0.10165634484E+03  0.17696277796E+03  0.12509000000E+03 0.  0.
         25    1    4    4    0    0  0.20180732416E+02  0.20608840193E+02  0.57233143154E+02  0.14055293320E+03  0.12509000000E+03 0.  0.
<mgrwt>
<rscale>  2 0.44915154E+03</rscale>
<asrwt>0</asrwt>
<pdfrwt beam="1">  1       21 0.74117692E-01 0.44915154E+03</pdfrwt>
<pdfrwt beam="2">  1       21 0.14715875E-01 0.44915154E+03</pdfrwt>
<totfact> 0.61207918E+04</totfact>
</mgrwt>
</event>
<event>
 7    0  0.4766352E-002  0.4486168E+03  0.7546771E-02  0.1028135E+00
         21   -1    0    0  502  501  0.00000000000E+00  0.00000000000E+00  0.25587241326E+03  0.25587241326E+03  0.00000000000E+00 0.  1.
         21   -1    0    0  501  502 -0.00000000000E+00 -0.00000000000E+00 -0.19663807383E+03  0.19663807383E+03  0.00000000000E+00 0.  1.
      99926    2    1    2    0    0 -0.14210854715E-13  0.00000000000E+00  0.59234339430E+02  0.45251048709E+03  0.44861680080E+03 0.  0.
      99925    2    3    3    0    0  0.86724160811E+02 -0.34543922149E+02 -0.15107439289E+02  0.27962737401E+03  0.26315180210E+03 0.  0.
         25    1    4    4    0    0  0.54143495113E+02  0.40720096525E+01 -0.40707100937E+02  0.14231189512E+03  0.12509000000E+03 0.  0.
         25    1    3    3    0    0 -0.86724160811E+02  0.34543922149E+02  0.74341778719E+02  0.17288311308E+03  0.12509000000E+03 0.  0.
         25    1    4    4    0    0  0.32580665698E+02 -0.38615931802E+02  0.25599661648E+02  0.13731547889E+03  0.12509000000E+03 0.  0.
<mgrwt>
<rscale>  2 0.44861680E+03</rscale>
<asrwt>0</asrwt>
<pdfrwt beam="1">  1       21 0.37628296E-01 0.44861680E+03</pdfrwt>
<pdfrwt beam="2">  1       21 0.28917364E-01 0.44861680E+03</pdfrwt>
<totfact> 0.72342918E+04</totfact>
</mgrwt>
</event>
<event>
 7    0  0.4766352E-002  0.4572014E+03  0.7546771E-02  0.1025596E+00
         21   -1    0    0  502  501  0.00000000000E+00  0.00000000000E+00  0.78212947071E+03  0.78212947071E+03  0.00000000000E+00 0. -1.
         21   -1    0    0  501  502 -0.00000000000E+00 -0.00000000000E+00 -0.66815373867E+02  0.66815373867E+02  0.00000000000E+00 0. -1.
      99926    2    1    2    0    0  0.00000000000E+00  0.35527136788E-14  0.71531409685E+03  0.84894484458E+03  0.45720136919E+03 0.  0.
      99925    2    3    3    0    0 -0.70001664809E+02 -0.33994847676E+01  0.61874980683E+03  0.67607506764E+03  0.26327625047E+03 0.  0.
         25    1    3    3    0    0  0.70001664809E+02  0.33994847676E+01  0.96564290015E+02  0.17286977694E+03  0.12509000000E+03 0.  0.
         25    1    4    4    0    0 -0.27371499099E+02 -0.41004689796E+02  0.28381887518E+03  0.31405611848E+03  0.12509000000E+03 0.  0.
         25    1    4    4    0    0 -0.42630165710E+02  0.37605205029E+02  0.33493093165E+03  0.36201894916E+03  0.12509000000E+03 0.  0.
<mgrwt>
<rscale>  2 0.45720137E+03</rscale>
<asrwt>0</asrwt>
<pdfrwt beam="1">  1       21 0.11501903E+00 0.45720137E+03</pdfrwt>
<pdfrwt beam="2">  1       21 0.98257907E-02 0.45720137E+03</pdfrwt>
<totfact> 0.44709510E+04</totfact>
</mgrwt>
</event>
<event>
 7    0  0.4766352E-002  0.4444800E+03  0.7546771E-02  0.1029381E+00
         21   -1    0    0  502  501  0.00000000000E+00  0.00000000000E+00  0.25033471105E+03  0.25033471105E+03  0.00000000000E+00 0.  1.
         21   -1    0    0  501  502 -0.00000000000E+00 -0.00000000000E+00 -0.19729830503E+03  0.19729830503E+03  0.00000000000E+00 0.  1.
      99926    2    1    2    0    0  0.00000000000E+00 -0.14210854715E-13  0.53036406021E+02  0.44763301608E+03  0.44447998461E+03 0.  0.
      99925    2    3    3    0    0 -0.60634597639E+02 -0.78157976362E+02  0.61479983809E+02  0.28793321707E+03  0.26332589197E+03 0.  0.
         25    1    3    3    0    0  0.60634597639E+02  0.78157976362E+02 -0.84435777878E+01  0.15969979902E+03  0.12509000000E+03 0.  0.
         25    1    4    4    0    0 -0.12942737600E+02 -0.76555418205E+02  0.37388864892E+02  0.15190023644E+03  0.12509000000E+03 0.  0.
         25    1    4    4    0    0 -0.47691860039E+02 -0.16025581564E+01  0.24091118917E+02  0.13603298062E+03  0.12509000000E+03 0.  0.
<mgrwt>
<rscale>  2 0.44447998E+03</rscale>
<asrwt>0</asrwt>
<pdfrwt beam="1">  1       21 0.36813928E-01 0.44447998E+03</pdfrwt>
<pdfrwt beam="2">  1       21 0.29014456E-01 0.44447998E+03</pdfrwt>
<totfact> 0.75205522E+04</totfact>
</mgrwt>
</event>
<event>
 7    0  0.4766352E-002  0.4596829E+03  0.7546771E-02  0.1024873E+00
         21   -1    0    0  502  501  0.00000000000E+00  0.00000000000E+00  0.22542578865E+03  0.22542578865E+03  0.00000000000E+00 0.  1.
         21   -1    0    0  501  502 -0.00000000000E+00 -0.00000000000E+00 -0.23434363800E+03  0.23434363800E+03  0.00000000000E+00 0.  1.
      99926    2    1    2    0    0  0.00000000000E+00  0.14210854715E-13 -0.89178493508E+01  0.45976942665E+03  0.45968293164E+03 0.  0.
      99925    2    3    3    0    0  0.32784067170E+02  0.11166099215E+03  0.12419492945E+02  0.28758997809E+03  0.26269902829E+03 0.  0.
         25    1    4    4    0    0  0.41040522916E+01  0.75747446171E+02  0.39645904021E+02  0.15157118675E+03  0.12509000000E+03 0.  0.
         25    1    4    4    0    0  0.28680014879E+02  0.35913545983E+02 -0.27226411076E+02  0.13601879134E+03  0.12509000000E+03 0.  0.
         25    1    3    3    0    0 -0.32784067170E+02 -0.11166099215E+03 -0.21337342296E+02  0.17217944856E+03  0.12509000000E+03 0.  0.
<mgrwt>
<rscale>  2 0.45968293E+03</rscale>
<asrwt>0</asrwt>
<pdfrwt beam="1">  1       21 0.33150851E-01 0.45968293E+03</pdfrwt>
<pdfrwt beam="2">  1       21 0.34462300E-01 0.45968293E+03</pdfrwt>
<totfact> 0.65708085E+04</totfact>
</mgrwt>
</event>
<event>
 7    0  0.4766352E-002  0.4447596E+03  0.7546771E-02  0.1029296E+00
         21   -1    0    0  502  501  0.00000000000E+00  0.00000000000E+00  0.27765901522E+02  0.27765901522E+02  0.00000000000E+00 0. -1.
         21   -1    0    0  501  502 -0.00000000000E+00 -0.00000000000E+00 -0.17810617966E+04  0.17810617966E+04  0.00000000000E+00 0. -1.
      99926    2    1    2    0    0  0.00000000000E+00  0.17763568394E-14 -0.17532958951E+04  0.18088276981E+04  0.44475964947E+03 0.  0.
      99925    2    3    3    0    0 -0.99657703049E+02  0.65626745250E+01 -0.10400448278E+04  0.10778356876E+04  0.26469189449E+03 0.  0.
         25    1    3    3    0    0  0.99657703049E+02 -0.65626745250E+01 -0.71325106722E+03  0.73099201053E+03  0.12509000000E+03 0.  0.
         25    1    4    4    0    0 -0.17471977423E+02  0.29080825677E+02 -0.41748701466E+03  0.43714285986E+03  0.12509000000E+03 0.  0.
         25    1    4    4    0    0 -0.82185725626E+02 -0.22518151152E+02 -0.62255781318E+03  0.64069282771E+03  0.12509000000E+03 0.  0.
<mgrwt>
<rscale>  2 0.44475965E+03</rscale>
<asrwt>0</asrwt>
<pdfrwt beam="1">  1       21 0.40832200E-02 0.44475965E+03</pdfrwt>
<pdfrwt beam="2">  1       21 0.26192091E+00 0.44475965E+03</pdfrwt>
<totfact> 0.18519132E+04</totfact>
</mgrwt>
</event>
<event>
 7    0  0.4766352E-002  0.4652340E+03  0.7546771E-02  0.1023274E+00
         21   -1    0    0  502  501  0.00000000000E+00  0.00000000000E+00  0.53675197061E+03  0.53675197061E+03  0.00000000000E+00 0.  1.
         21   -1    0    0  501  502 -0.00000000000E+00 -0.00000000000E+00 -0.10081129957E+03  0.10081129957E+03  0.00000000000E+00 0.  1.
      99926    2    1    2    0    0  0.00000000000E+00  0.14210854715E-13  0.43594067104E+03  0.63756327018E+03  0.46523397857E+03 0.  0.
      99925    2    3    3    0    0 -0.69519710848E+02  0.74805117953E+02  0.36473620283E+03  0.46107989912E+03  0.26293227236E+03 0.  0.
         25    1    4    4    0    0 -0.49242839870E+02 -0.34973435379E+00  0.16339975789E+03  0.21159387650E+03  0.12509000000E+03 0.  0.
         25    1    4    4    0    0 -0.20276870978E+02  0.75154852307E+02  0.20133644494E+03  0.24948602262E+03  0.12509000000E+03 0.  0.
         25    1    3    3    0    0  0.69519710848E+02 -0.74805117953E+02  0.71204468210E+02  0.17648337106E+03  0.12509000000E+03 0.  0.
<mgrwt>
<rscale>  2 0.46523398E+03</rscale>
<asrwt>0</asrwt>
<pdfrwt beam="1">  1       21 0.78934112E-01 0.46523398E+03</pdfrwt>
<pdfrwt beam="2">  1       21 0.14825191E-01 0.46523398E+03</pdfrwt>
<totfact> 0.52087160E+04</totfact>
</mgrwt>
</event>
<event>
 7    0  0.4766352E-002  0.4573547E+03  0.7546771E-02  0.1025551E+00
         21   -1    0    0  502  501  0.00000000000E+00  0.00000000000E+00  0.17034616874E+03  0.17034616874E+03  0.00000000000E+00 0.  1.
         21   -1    0    0  501  502 -0.00000000000E+00 -0.00000000000E+00 -0.30698278107E+03  0.30698278107E+03  0.00000000000E+00 0.  1.
      99926    2    1    2    0    0  0.00000000000E+00  0.00000000000E+00 -0.13663661232E+03  0.47732894981E+03  0.45735474470E+03 0.  0.
      99925    2    3    3    0    0 -0.10601937868E+03  0.10441681717E+02 -0.13185232990E+03  0.31295275070E+03  0.26306890714E+03 0.  0.
         25    1    3    3    0    0  0.10601937868E+03 -0.10441681717E+02 -0.47842824279E+01  0.16437619910E+03  0.12509000000E+03 0.  0.
         25    1    4    4    0    0 -0.31329947414E+02  0.46128246983E+01 -0.23179198052E+02  0.13110159068E+03  0.12509000000E+03 0.  0.
         25    1    4    4    0    0 -0.74689431266E+02  0.58288570191E+01 -0.10867313185E+03  0.18185116002E+03  0.12509000000E+03 0.  0.
<mgrwt>
<rscale>  2 0.45735474E+03</rscale>
<asrwt>0</asrwt>
<pdfrwt beam="1">  1       21 0.25050907E-01 0.45735474E+03</pdfrwt>
<pdfrwt beam="2">  1       21 0.45144527E-01 0.45735474E+03</pdfrwt>
<totfact> 0.65659423E+04</totfact>
</mgrwt>
</event>
<event>
 7    0  0.4766352E-002  0.4566755E+03  0.7546771E-02  0.1025750E+00
         21   -1    0    0  502  501  0.00000000000E+00  0.00000000000E+00  0.26950583786E+04  0.26950583786E+04  0.00000000000E+00 0. -1.
         21   -1    0    0  501  502 -0.00000000000E+00 -0.00000000000E+00 -0.19345821837E+02  0.19345821837E+02  0.00000000000E+00 0. -1.
      99926    2    1    2    0    0  0.00000000000E+00  0.00000000000E+00  0.26757125567E+04  0.27144042004E+04  0.45667546127E+03 0.  0.
      99925    2    3    3    0    0 -0.68895503433E+02 -0.86184821999E+02  0.14969996168E+04  0.15239479363E+04  0.26312553249E+03 0.  0.
         25    1    4    4    0    0 -0.29449710249E+02 -0.85143705939E+02  0.80711861712E+03  0.82170840710E+03  0.12509000000E+03 0.  0.
         25    1    3    3    0    0  0.68895503433E+02  0.86184821999E+02  0.11787129400E+04  0.11904562641E+04  0.12509000000E+03 0.  0.
         25    1    4    4    0    0 -0.39445793184E+02 -0.10411160599E+01  0.68988099966E+03  0.70223952916E+03  0.12509000000E+03 0.  0.
<mgrwt>
<rscale>  2 0.45667546E+03</rscale>
<asrwt>0</asrwt>
<pdfrwt beam="1">  1       21 0.39633186E+00 0.45667546E+03</pdfrwt>
<pdfrwt beam="2">  1       21 0.28449756E-02 0.45667546E+03</pdfrwt>
<totfact> 0.51107352E+03</totfact>
</mgrwt>
</event>
<event>
 7    0  0.4766352E-002  0.4516551E+03  0.7546771E-02  0.1027230E+00
         21   -1    0    0  502  501  0.00000000000E+00  0.00000000000E+00  0.96094701649E+03  0.96094701649E+03  0.00000000000E+00 0. -1.
         21   -1    0    0  501  502 -0.00000000000E+00 -0.00000000000E+00 -0.53070654436E+02  0.53070654436E+02  0.00000000000E+00 0. -1.
      99926    2    1    2    0    0  0.00000000000E+00  0.00000000000E+00  0.90787636205E+03  0.10140176709E+04  0.45165512083E+03 0.  0.
      99925    2    3    3    0    0 -0.10607761083E+03  0.28491510013E+02  0.58664974889E+03  0.65221901038E+03  0.26299711781E+03 0.  0.
         25    1    4    4    0    0 -0.38923992068E+02 -0.24842317679E+02  0.27695284564E+03  0.30738022824E+03  0.12509000000E+03 0.  0.
         25    1    3    3    0    0  0.10607761083E+03 -0.28491510013E+02  0.32122661316E+03  0.36179866054E+03  0.12509000000E+03 0.  0.
         25    1    4    4    0    0 -0.67153618761E+02  0.53333827692E+02  0.30969690325E+03  0.34483878215E+03  0.12509000000E+03 0.  0.
<mgrwt>
<rscale>  2 0.45165512E+03</rscale>
<asrwt>0</asrwt>
<pdfrwt beam="1">  1       21 0.14131573E+00 0.45165512E+03</pdfrwt>
<pdfrwt beam="2">  1       21 0.78045086E-02 0.45165512E+03</pdfrwt>
<totfact> 0.39651481E+04</totfact>
</mgrwt>
</event>
<event>
 7    0  0.4766352E-002  0.4381023E+03  0.7546771E-02  0.1031331E+00
         21   -1    0    0  502  501  0.00000000000E+00  0.00000000000E+00  0.31666801920E+03  0.31666801920E+03  0.00000000000E+00 0. -1.
         21   -1    0    0  501  502 -0.00000000000E+00 -0.00000000000E+00 -0.15152588228E+03  0.15152588228E+03  0.00000000000E+00 0. -1.
      99926    2    1    2    0    0 -0.35527136788E-14  0.00000000000E+00  0.16514213692E+03  0.46819390147E+03  0.43810227572E+03 0.  0.
      99925    2    3    3    0    0  0.26155932926E+02 -0.92109325750E+02  0.10809816687E+03  0.30065350833E+03  0.26370259322E+03 0.  0.
         25    1    4    4    0    0  0.24994014854E+02 -0.10353327587E+02  0.72267362604E+02  0.14697609319E+03  0.12509000000E+03 0.  0.
         25    1    3    3    0    0 -0.26155932926E+02  0.92109325750E+02  0.57043970053E+02  0.16754039315E+03  0.12509000000E+03 0.  0.
         25    1    4    4    0    0  0.11619180716E+01 -0.81755998163E+02  0.35830804268E+02  0.15367741514E+03  0.12509000000E+03 0.  0.
<mgrwt>
<rscale>  2 0.43810228E+03</rscale>
<asrwt>0</asrwt>
<pdfrwt beam="1">  1       21 0.46568827E-01 0.43810228E+03</pdfrwt>
<pdfrwt beam="2">  1       21 0.22283218E-01 0.43810228E+03</pdfrwt>
<totfact> 0.77447001E+04</totfact>
</mgrwt>
</event>
<event>
 7    0  0.4766352E-002  0.4559983E+03  0.7546771E-02  0.1025948E+00
         21   -1    0    0  502  501  0.00000000000E+00  0.00000000000E+00  0.78499705386E+03  0.78499705386E+03  0.00000000000E+00 0. -1.
         21   -1    0    0  501  502 -0.00000000000E+00 -0.00000000000E+00 -0.66221408250E+02  0.66221408250E+02  0.00000000000E+00 0. -1.
      99926    2    1    2    0    0  0.71054273576E-14  0.00000000000E+00  0.71877564561E+03  0.85121846211E+03  0.45599829113E+03 0.  0.
      99925    2    3    3    0    0 -0.63723040329E+02 -0.34876450942E+02  0.61611574757E+03  0.67383876917E+03  0.26302676621E+03 0.  0.
         25    1    4    4    0    0 -0.70788028789E+02 -0.12539431201E+02  0.29398010229E+03  0.32747517615E+03  0.12509000000E+03 0.  0.
         25    1    4    4    0    0  0.70649884606E+01 -0.22337019741E+02  0.32213564528E+03  0.34636359302E+03  0.12509000000E+03 0.  0.
         25    1    3    3    0    0  0.63723040329E+02  0.34876450942E+02  0.10265989804E+03  0.17737969293E+03  0.12509000000E+03 0.  0.
<mgrwt>
<rscale>  2 0.45599829E+03</rscale>
<asrwt>0</asrwt>
<pdfrwt beam="1">  1       21 0.11544074E+00 0.45599829E+03</pdfrwt>
<pdfrwt beam="2">  1       21 0.97384428E-02 0.45599829E+03</pdfrwt>
<totfact> 0.45031241E+04</totfact>
</mgrwt>
</event>
<event>
 7    0  0.4766352E-002  0.4531177E+03  0.7546771E-02  0.1026796E+00
         21   -1    0    0  502  501  0.00000000000E+00  0.00000000000E+00  0.82060996227E+02  0.82060996227E+02  0.00000000000E+00 0. -1.
         21   -1    0    0  501  502 -0.00000000000E+00 -0.00000000000E+00 -0.62549712496E+03  0.62549712496E+03  0.00000000000E+00 0. -1.
      99926    2    1    2    0    0  0.71054273576E-14  0.00000000000E+00 -0.54343612874E+03  0.70755812119E+03  0.45311772074E+03 0.  0.
      99925    2    3    3    0    0 -0.36933972445E+02  0.34114948630E+02 -0.18704325854E+03  0.32651831478E+03  0.26287084525E+03 0.  0.
         25    1    4    4    0    0 -0.32735331648E+02 -0.48169632421E+01 -0.55418057994E+02  0.14076034358E+03  0.12509000000E+03 0.  0.
         25    1    4    4    0    0 -0.41986407968E+01  0.38931911872E+02 -0.13162520055E+03  0.18575797120E+03  0.12509000000E+03 0.  0.
         25    1    3    3    0    0  0.36933972445E+02 -0.34114948630E+02 -0.35639287020E+03  0.38103980641E+03  0.12509000000E+03 0.  0.
<mgrwt>
<rscale>  2 0.45311772E+03</rscale>
<asrwt>0</asrwt>
<pdfrwt beam="1">  1       21 0.12067794E-01 0.45311772E+03</pdfrwt>
<pdfrwt beam="2">  1       21 0.91984870E-01 0.45311772E+03</pdfrwt>
<totfact> 0.53279218E+04</totfact>
</mgrwt>
</event>
<event>
 7    0  0.4766352E-002  0.4527589E+03  0.7546771E-02  0.1026902E+00
         21   -1    0    0  502  501  0.00000000000E+00  0.00000000000E+00  0.10675778613E+03  0.10675778613E+03  0.00000000000E+00 0.  1.
         21   -1    0    0  501  502 -0.00000000000E+00 -0.00000000000E+00 -0.48003668707E+03  0.48003668707E+03  0.00000000000E+00 0.  1.
      99926    2    1    2    0    0  0.35527136788E-14  0.00000000000E+00 -0.37327890094E+03  0.58679447320E+03  0.45275889377E+03 0.  0.
      99925    2    3    3    0    0 -0.28680578874E+02 -0.10003461461E+03 -0.18472269479E+03  0.33773534226E+03  0.26289387159E+03 0.  0.
         25    1    3    3    0    0  0.28680578874E+02  0.10003461461E+03 -0.18855620615E+03  0.24905913094E+03  0.12509000000E+03 0.  0.
         25    1    4    4    0    0  0.14268113881E+02 -0.79416834483E+02 -0.94795418546E+02  0.17647745508E+03  0.12509000000E+03 0.  0.
         25    1    4    4    0    0 -0.42948692756E+02 -0.20617780124E+02 -0.89927276243E+02  0.16125788718E+03  0.12509000000E+03 0.  0.
<mgrwt>
<rscale>  2 0.45275889E+03</rscale>
<asrwt>0</asrwt>
<pdfrwt beam="1">  1       21 0.15699675E-01 0.45275889E+03</pdfrwt>
<pdfrwt beam="2">  1       21 0.70593629E-01 0.45275889E+03</pdfrwt>
<totfact> 0.60564283E+04</totfact>
</mgrwt>
</event>
<event>
 7    0  0.4766352E-002  0.4577980E+03  0.7546771E-02  0.1025422E+00
         21   -1    0    0  502  501  0.00000000000E+00  0.00000000000E+00  0.56360638258E+02  0.56360638258E+02  0.00000000000E+00 0.  1.
         21   -1    0    0  501  502 -0.00000000000E+00 -0.00000000000E+00 -0.92963389680E+03  0.92963389680E+03  0.00000000000E+00 0.  1.
      99926    2    1    2    0    0  0.00000000000E+00  0.00000000000E+00 -0.87327325854E+03  0.98599453505E+03  0.45779803306E+03 0.  0.
      99925    2    3    3    0    0 -0.50367319826E+02 -0.88749026222E+02 -0.42972823212E+03  0.51398504880E+03  0.26287072933E+03 0.  0.
         25    1    3    3    0    0  0.50367319826E+02  0.88749026222E+02 -0.44354502641E+03  0.47200948626E+03  0.12509000000E+03 0.  0.
         25    1    4    4    0    0 -0.26386864783E+02 -0.41632543553E+01 -0.21925664929E+03  0.25383968499E+03  0.12509000000E+03 0.  0.
         25    1    4    4    0    0 -0.23980455043E+02 -0.84585771867E+02 -0.21047158284E+03  0.26014536380E+03  0.12509000000E+03 0.  0.
<mgrwt>
<rscale>  2 0.45779803E+03</rscale>
<asrwt>0</asrwt>
<pdfrwt beam="1">  1       21 0.82883298E-02 0.45779803E+03</pdfrwt>
<pdfrwt beam="2">  1       21 0.13671086E+00 0.45779803E+03</pdfrwt>
<totfact> 0.38859444E+04</totfact>
</mgrwt>
</event>
<event>
 7    0  0.4766352E-002  0.4579257E+03  0.7546771E-02  0.1025385E+00
         21   -1    0    0  502  501  0.00000000000E+00  0.00000000000E+00  0.22004587685E+03  0.22004587685E+03  0.00000000000E+00 0. -1.
         21   -1    0    0  501  502 -0.00000000000E+00 -0.00000000000E+00 -0.23824121305E+03  0.23824121305E+03  0.00000000000E+00 0. -1.
      99926    2    1    2    0    0  0.00000000000E+00  0.00000000000E+00 -0.18195336201E+02  0.45828708991E+03  0.45792574345E+03 0.  0.
      99925    2    3    3    0    0 -0.81161908464E+02 -0.79982036536E+02  0.96113259963E+01  0.28680793632E+03  0.26302477677E+03 0.  0.
         25    1    4    4    0    0 -0.76352536885E+02 -0.23843670709E+02  0.16802293056E+02  0.14942575305E+03  0.12509000000E+03 0.  0.
         25    1    3    3    0    0  0.81161908464E+02  0.79982036536E+02 -0.27806662197E+02  0.17147915359E+03  0.12509000000E+03 0.  0.
         25    1    4    4    0    0 -0.48093715788E+01 -0.56138365827E+02 -0.71909670601E+01  0.13738218327E+03  0.12509000000E+03 0.  0.
<mgrwt>
<rscale>  2 0.45792574E+03</rscale>
<asrwt>0</asrwt>
<pdfrwt beam="1">  1       21 0.32359688E-01 0.45792574E+03</pdfrwt>
<pdfrwt beam="2">  1       21 0.35035473E-01 0.45792574E+03</pdfrwt>
<totfact> 0.66734155E+04</totfact>
</mgrwt>
</event>
<event>
 7    0  0.4766352E-002  0.4775662E+03  0.7546771E-02  0.1019806E+00
         21   -1    0    0  502  501  0.00000000000E+00  0.00000000000E+00  0.68772802214E+02  0.68772802214E+02  0.00000000000E+00 0.  1.
         21   -1    0    0  501  502 -0.00000000000E+00 -0.00000000000E+00 -0.82906849533E+03  0.82906849533E+03  0.00000000000E+00 0.  1.
      99926    2    1    2    0    0  0.00000000000E+00  0.00000000000E+00 -0.76029569312E+03  0.89784129754E+03  0.47756617824E+03 0.  0.
      99925    2    3    3    0    0 -0.91434875073E+02  0.46058148755E+02 -0.62964154579E+03  0.68999591328E+03  0.26299086431E+03 0.  0.
         25    1    3    3    0    0  0.91434875073E+02 -0.46058148755E+02 -0.13065414733E+03  0.20784538427E+03  0.12509000000E+03 0.  0.
         25    1    4    4    0    0 -0.39299982782E+02  0.48115520591E+02 -0.39574059681E+03  0.41966381788E+03  0.12509000000E+03 0.  0.
         25    1    4    4    0    0 -0.52134892291E+02 -0.20573718360E+01 -0.23390094897E+03  0.27033209540E+03  0.12509000000E+03 0.  0.
<mgrwt>
<rscale>  2 0.47756618E+03</rscale>
<asrwt>0</asrwt>
<pdfrwt beam="1">  1       21 0.10113648E-01 0.47756618E+03</pdfrwt>
<pdfrwt beam="2">  1       21 0.12192183E+00 0.47756618E+03</pdfrwt>
<totfact> 0.36447557E+04</totfact>
</mgrwt>
</event>
<event>
 7    0  0.4766352E-002  0.4551270E+03  0.7546771E-02  0.1026204E+00
         21   -1    0    0  502  501  0.00000000000E+00  0.00000000000E+00  0.22154662243E+03  0.22154662243E+03  0.00000000000E+00 0. -1.
         21   -1    0    0  501  502 -0.00000000000E+00 -0.00000000000E+00 -0.23374378012E+03  0.23374378012E+03  0.00000000000E+00 0. -1.
      99926    2    1    2    0    0  0.71054273576E-14  0.00000000000E+00 -0.12197157694E+02  0.45529040255E+03  0.45512699327E+03 0.  0.
      99925    2    3    3    0    0  0.49843117039E+02 -0.92492875307E+02  0.34193652068E+02  0.28547025172E+03  0.26322004193E+03 0.  0.
         25    1    3    3    0    0 -0.49843117039E+02  0.92492875307E+02 -0.46390809762E+02  0.16982015083E+03  0.12509000000E+03 0.  0.
         25    1    4    4    0    0  0.68411448537E+01 -0.95590074112E+01  0.30558530691E+02  0.12930393568E+03  0.12509000000E+03 0.  0.
         25    1    4    4    0    0  0.43001972185E+02 -0.82933867896E+02  0.36351213769E+01  0.15616631603E+03  0.12509000000E+03 0.  0.
<mgrwt>
<rscale>  2 0.45512699E+03</rscale>
<asrwt>0</asrwt>
<pdfrwt beam="1">  1       21 0.32580386E-01 0.45512699E+03</pdfrwt>
<pdfrwt beam="2">  1       21 0.34374085E-01 0.45512699E+03</pdfrwt>
<totfact> 0.68455141E+04</totfact>
</mgrwt>
</event>
<event>
 7    0  0.4766352E-002  0.4501912E+03  0.7546771E-02  0.1027665E+00
         21   -1    0    0  502  501  0.00000000000E+00  0.00000000000E+00  0.72554738412E+03  0.72554738412E+03  0.00000000000E+00 0.  1.
         21   -1    0    0  501  502 -0.00000000000E+00 -0.00000000000E+00 -0.69834203139E+02  0.69834203139E+02  0.00000000000E+00 0.  1.
      99926    2    1    2    0    0  0.00000000000E+00  0.00000000000E+00  0.65571318099E+03  0.79538158726E+03  0.45019117455E+03 0.  0.
      99925    2    3    3    0    0  0.93957337300E+02 -0.52718168750E+02  0.39057394783E+03  0.48304601835E+03  0.26301760507E+03 0.  0.
         25    1    4    4    0    0  0.30574459712E+02  0.95402856436E+01  0.20474667013E+03  0.24206305308E+03  0.12509000000E+03 0.  0.
         25    1    3    3    0    0 -0.93957337300E+02  0.52718168750E+02  0.26513923316E+03  0.31233556891E+03  0.12509000000E+03 0.  0.
         25    1    4    4    0    0  0.63382877588E+02 -0.62258454394E+02  0.18582727770E+03  0.24098296528E+03  0.12509000000E+03 0.  0.
<mgrwt>
<rscale>  2 0.45019117E+03</rscale>
<asrwt>0</asrwt>
<pdfrwt beam="1">  1       21 0.10669814E+00 0.45019117E+03</pdfrwt>
<pdfrwt beam="2">  1       21 0.10269736E-01 0.45019117E+03</pdfrwt>
<totfact> 0.49843673E+04</totfact>
</mgrwt>
</event>
<event>
 7    0  0.4766352E-002  0.4541172E+03  0.7546771E-02  0.1026501E+00
         21   -1    0    0  502  501  0.00000000000E+00  0.00000000000E+00  0.32092444892E+03  0.32092444892E+03  0.00000000000E+00 0. -1.
         21   -1    0    0  501  502 -0.00000000000E+00 -0.00000000000E+00 -0.16064718322E+03  0.16064718322E+03  0.00000000000E+00 0. -1.
      99926    2    1    2    0    0  0.00000000000E+00  0.00000000000E+00  0.16027726570E+03  0.48157163213E+03  0.45411720401E+03 0.  0.
      99925    2    3    3    0    0  0.71006953475E+02 -0.86598112434E+02  0.10158481603E+03  0.30371345193E+03  0.26340304765E+03 0.  0.
         25    1    3    3    0    0 -0.71006953475E+02  0.86598112434E+02  0.58692449668E+02  0.17785818021E+03  0.12509000000E+03 0.  0.
         25    1    4    4    0    0  0.48154428015E+02 -0.43310149579E+02  0.10163592772E+02  0.14122827165E+03  0.12509000000E+03 0.  0.
         25    1    4    4    0    0  0.22852525460E+02 -0.43287962855E+02  0.91421223262E+02  0.16248518028E+03  0.12509000000E+03 0.  0.
<mgrwt>
<rscale>  2 0.45411720E+03</rscale>
<asrwt>0</asrwt>
<pdfrwt beam="1">  1       21 0.47194772E-01 0.45411720E+03</pdfrwt>
<pdfrwt beam="2">  1       21 0.23624586E-01 0.45411720E+03</pdfrwt>
<totfact> 0.67054532E+04</totfact>
</mgrwt>
</event>
<event>
 7    0  0.4766352E-002  0.4517508E+03  0.7546771E-02  0.1027201E+00
         21   -1    0    0  502  501  0.00000000000E+00  0.00000000000E+00  0.52205555018E+03  0.52205555018E+03  0.00000000000E+00 0.  1.
         21   -1    0    0  501  502 -0.00000000000E+00 -0.00000000000E+00 -0.97728471675E+02  0.97728471675E+02  0.00000000000E+00 0.  1.
      99926    2    1    2    0    0  0.00000000000E+00  0.00000000000E+00  0.42432707850E+03  0.61978402186E+03  0.45175077664E+03 0.  0.
      99925    2    3    3    0    0  0.14228098321E+02 -0.28093104165E+02  0.12322508227E+03  0.29221482074E+03  0.26308443374E+03 0.  0.
         25    1    4    4    0    0  0.15944289514E+02 -0.54034641259E+02  0.62675900345E+02  0.15083016743E+03  0.12509000000E+03 0.  0.
         25    1    4    4    0    0 -0.17161911926E+01  0.25941537093E+02  0.60549181929E+02  0.14138465331E+03  0.12509000000E+03 0.  0.
         25    1    3    3    0    0 -0.14228098321E+02  0.28093104165E+02  0.30110199623E+03  0.32756920111E+03  0.12509000000E+03 0.  0.
<mgrwt>
<rscale>  2 0.45175078E+03</rscale>
<asrwt>0</asrwt>
<pdfrwt beam="1">  1       21 0.76772874E-01 0.45175078E+03</pdfrwt>
<pdfrwt beam="2">  1       21 0.14371834E-01 0.45175078E+03</pdfrwt>
<totfact> 0.58975383E+04</totfact>
</mgrwt>
</event>
<event>
 7    0  0.4766352E-002  0.4532959E+03  0.7546771E-02  0.1026744E+00
         21   -1    0    0  502  501  0.00000000000E+00  0.00000000000E+00  0.15481209660E+03  0.15481209660E+03  0.00000000000E+00 0.  1.
         21   -1    0    0  501  502 -0.00000000000E+00 -0.00000000000E+00 -0.33181704253E+03  0.33181704253E+03  0.00000000000E+00 0.  1.
      99926    2    1    2    0    0  0.00000000000E+00  0.00000000000E+00 -0.17700494593E+03  0.48662913913E+03  0.45329589471E+03 0.  0.
      99925    2    3    3    0    0  0.67159658560E+02  0.54544191828E+02 -0.35877305920E+02  0.27914418190E+03  0.26296160292E+03 0.  0.
         25    1    4    4    0    0  0.43840780922E+02  0.59407133587E+02  0.51934222109E+01  0.14534683116E+03  0.12509000000E+03 0.  0.
         25    1    3    3    0    0 -0.67159658560E+02 -0.54544191828E+02 -0.14112764001E+03  0.20748495723E+03  0.12509000000E+03 0.  0.
         25    1    4    4    0    0  0.23318877639E+02 -0.48629417585E+01 -0.41070728131E+02  0.13379735074E+03  0.12509000000E+03 0.  0.
<mgrwt>
<rscale>  2 0.45329589E+03</rscale>
<asrwt>0</asrwt>
<pdfrwt beam="1">  1       21 0.22766485E-01 0.45329589E+03</pdfrwt>
<pdfrwt beam="2">  1       21 0.48796623E-01 0.45329589E+03</pdfrwt>
<totfact> 0.67124107E+04</totfact>
</mgrwt>
</event>
<event>
 7    0  0.4766352E-002  0.4594864E+03  0.7546771E-02  0.1024930E+00
         21   -1    0    0  502  501  0.00000000000E+00  0.00000000000E+00  0.16029524687E+03  0.16029524687E+03  0.00000000000E+00 0.  1.
         21   -1    0    0  501  502 -0.00000000000E+00 -0.00000000000E+00 -0.32927950064E+03  0.32927950064E+03  0.00000000000E+00 0.  1.
      99926    2    1    2    0    0  0.00000000000E+00  0.00000000000E+00 -0.16898425377E+03  0.48957474751E+03  0.45948640391E+03 0.  0.
      99925    2    3    3    0    0 -0.68649866059E+02  0.90499777752E+02 -0.13725366477E+03  0.31765222932E+03  0.26298546807E+03 0.  0.
         25    1    4    4    0    0 -0.44599009320E+02  0.32832287836E+02 -0.10919675132E+03  0.17503847965E+03  0.12509000000E+03 0.  0.
         25    1    4    4    0    0 -0.24050856739E+02  0.57667489916E+02 -0.28056913449E+02  0.14261374967E+03  0.12509000000E+03 0.  0.
         25    1    3    3    0    0  0.68649866059E+02 -0.90499777752E+02 -0.31730589001E+02  0.17192251819E+03  0.12509000000E+03 0.  0.
<mgrwt>
<rscale>  2 0.45948640E+03</rscale>
<asrwt>0</asrwt>
<pdfrwt beam="1">  1       21 0.23572831E-01 0.45948640E+03</pdfrwt>
<pdfrwt beam="2">  1       21 0.48423455E-01 0.45948640E+03</pdfrwt>
<totfact> 0.63709984E+04</totfact>
</mgrwt>
</event>
<event>
 7    0  0.4766352E-002  0.4457067E+03  0.7546771E-02  0.1029010E+00
         21   -1    0    0  502  501  0.00000000000E+00  0.00000000000E+00  0.12483354280E+03  0.12483354280E+03  0.00000000000E+00 0. -1.
         21   -1    0    0  501  502 -0.00000000000E+00 -0.00000000000E+00 -0.39783875663E+03  0.39783875663E+03  0.00000000000E+00 0. -1.
      99926    2    1    2    0    0  0.00000000000E+00  0.00000000000E+00 -0.27300521382E+03  0.52267229943E+03  0.44570672624E+03 0.  0.
      99925    2    3    3    0    0  0.73769020274E+02  0.67827881941E+02 -0.13891340359E+03  0.31369715356E+03  0.26280502380E+03 0.  0.
         25    1    4    4    0    0 -0.37629425213E+01  0.30274796215E+02 -0.74148369065E+02  0.14858065741E+03  0.12509000000E+03 0.  0.
         25    1    4    4    0    0  0.77531962796E+02  0.37553085725E+02 -0.64765034528E+02  0.16511649615E+03  0.12509000000E+03 0.  0.
         25    1    3    3    0    0 -0.73769020274E+02 -0.67827881941E+02 -0.13409181023E+03  0.20897514587E+03  0.12509000000E+03 0.  0.
<mgrwt>
<rscale>  2 0.44570673E+03</rscale>
<asrwt>0</asrwt>
<pdfrwt beam="1">  1       21 0.18357874E-01 0.44570673E+03</pdfrwt>
<pdfrwt beam="2">  1       21 0.58505699E-01 0.44570673E+03</pdfrwt>
<totfact> 0.68620544E+04</totfact>
</mgrwt>
</event>
<event>
 7    0  0.4766352E-002  0.4542994E+03  0.7546771E-02  0.1026448E+00
         21   -1    0    0  502  501  0.00000000000E+00  0.00000000000E+00  0.20365209167E+03  0.20365209167E+03  0.00000000000E+00 0. -1.
         21   -1    0    0  501  502 -0.00000000000E+00 -0.00000000000E+00 -0.25335853442E+03  0.25335853442E+03  0.00000000000E+00 0. -1.
      99926    2    1    2    0    0  0.00000000000E+00  0.00000000000E+00 -0.49706442751E+02  0.45701062610E+03  0.45429944080E+03 0.  0.
      99925    2    3    3    0    0 -0.82466260028E+01  0.91876204942E+02  0.33418885325E+02  0.28075350669E+03  0.26305221106E+03 0.  0.
         25    1    3    3    0    0  0.82466260028E+01 -0.91876204942E+02 -0.83125328077E+02  0.17625711941E+03  0.12509000000E+03 0.  0.
         25    1    4    4    0    0 -0.29992532424E+02  0.45652568507E+02  0.48363402038E+02  0.14481103469E+03  0.12509000000E+03 0.  0.
         25    1    4    4    0    0  0.21745906421E+02  0.46223636436E+02 -0.14944516712E+02  0.13594247199E+03  0.12509000000E+03 0.  0.
<mgrwt>
<rscale>  2 0.45429944E+03</rscale>
<asrwt>0</asrwt>
<pdfrwt beam="1">  1       21 0.29948837E-01 0.45429944E+03</pdfrwt>
<pdfrwt beam="2">  1       21 0.37258608E-01 0.45429944E+03</pdfrwt>
<totfact> 0.68782345E+04</totfact>
</mgrwt>
</event>
<event>
 7    0  0.4766352E-002  0.4485711E+03  0.7546771E-02  0.1028149E+00
         21   -1    0    0  502  501  0.00000000000E+00  0.00000000000E+00  0.23273011874E+03  0.23273011874E+03  0.00000000000E+00 0. -1.
         21   -1    0    0  501  502 -0.00000000000E+00 -0.00000000000E+00 -0.21614743789E+03  0.21614743789E+03  0.00000000000E+00 0. -1.
      99926    2    1    2    0    0 -0.14210854715E-13 -0.35527136788E-14  0.16582680846E+02  0.44887755663E+03  0.44857114881E+03 0.  0.
      99925    2    3    3    0    0  0.10445330047E+03  0.22396257187E+02  0.22585385254E+02  0.28427006933E+03  0.26246388013E+03 0.  0.
         25    1    3    3    0    0 -0.10445330047E+03 -0.22396257187E+02 -0.60027044079E+01  0.16460748730E+03  0.12509000000E+03 0.  0.
         25    1    4    4    0    0  0.29841131771E+02  0.31441630682E+02 -0.15923437120E+02  0.13334216601E+03  0.12509000000E+03 0.  0.
         25    1    4    4    0    0  0.74612168704E+02 -0.90453734952E+01  0.38508822373E+02  0.15092790332E+03  0.12509000000E+03 0.  0.
<mgrwt>
<rscale>  2 0.44857115E+03</rscale>
<asrwt>0</asrwt>
<pdfrwt beam="1">  1       21 0.34225018E-01 0.44857115E+03</pdfrwt>
<pdfrwt beam="2">  1       21 0.31786388E-01 0.44857115E+03</pdfrwt>
<totfact> 0.72652495E+04</totfact>
</mgrwt>
</event>
<event>
 7    0  0.4766352E-002  0.4507177E+03  0.7546771E-02  0.1027508E+00
         21   -1    0    0  502  501  0.00000000000E+00  0.00000000000E+00  0.12890473070E+03  0.12890473070E+03  0.00000000000E+00 0. -1.
         21   -1    0    0  501  502 -0.00000000000E+00 -0.00000000000E+00 -0.39398554874E+03  0.39398554874E+03  0.00000000000E+00 0. -1.
      99926    2    1    2    0    0  0.00000000000E+00 -0.71054273576E-14 -0.26508081804E+03  0.52289027945E+03  0.45071765469E+03 0.  0.
      99925    2    3    3    0    0 -0.40898996050E+02  0.31792452998E+02 -0.56037660439E+02  0.27383197747E+03  0.26298335413E+03 0.  0.
         25    1    4    4    0    0 -0.25452329995E+02  0.42240806011E+02  0.24673439448E+01  0.13448309441E+03  0.12509000000E+03 0.  0.
         25    1    4    4    0    0 -0.15446666055E+02 -0.10448353013E+02 -0.58505004384E+02  0.13934888306E+03  0.12509000000E+03 0.  0.
         25    1    3    3    0    0  0.40898996050E+02 -0.31792452998E+02 -0.20904315760E+03  0.24905830198E+03  0.12509000000E+03 0.  0.
<mgrwt>
<rscale>  2 0.45071765E+03</rscale>
<asrwt>0</asrwt>
<pdfrwt beam="1">  1       21 0.18956578E-01 0.45071765E+03</pdfrwt>
<pdfrwt beam="2">  1       21 0.57939051E-01 0.45071765E+03</pdfrwt>
<totfact> 0.65899182E+04</totfact>
</mgrwt>
</event>
<event>
 7    0  0.4766352E-002  0.4458098E+03  0.7546771E-02  0.1028979E+00
         21   -1    0    0  502  501  0.00000000000E+00  0.00000000000E+00  0.10538046483E+03  0.10538046483E+03  0.00000000000E+00 0.  1.
         21   -1    0    0  501  502 -0.00000000000E+00 -0.00000000000E+00 -0.47149712407E+03  0.47149712407E+03  0.00000000000E+00 0.  1.
      99926    2    1    2    0    0  0.71054273576E-14  0.00000000000E+00 -0.36611665924E+03  0.57687758891E+03  0.44580976258E+03 0.  0.
      99925    2    3    3    0    0 -0.57968642826E+02  0.81573865869E+02 -0.27070500026E+03  0.39042236127E+03  0.26293300263E+03 0.  0.
         25    1    3    3    0    0  0.57968642826E+02 -0.81573865869E+02 -0.95411658986E+02  0.18645522764E+03  0.12509000000E+03 0.  0.
         25    1    4    4    0    0  0.60072294727E+01  0.54215242717E+02 -0.15375889056E+03  0.20558376365E+03  0.12509000000E+03 0.  0.
         25    1    4    4    0    0 -0.63975872299E+02  0.27358623152E+02 -0.11694610970E+03  0.18483859762E+03  0.12509000000E+03 0.  0.
<mgrwt>
<rscale>  2 0.44580976E+03</rscale>
<asrwt>0</asrwt>
<pdfrwt beam="1">  1       21 0.15497127E-01 0.44580976E+03</pdfrwt>
<pdfrwt beam="2">  1       21 0.69337812E-01 0.44580976E+03</pdfrwt>
<totfact> 0.64698971E+04</totfact>
</mgrwt>
</event>
<event>
 7    0  0.4766352E-002  0.4516082E+03  0.7546771E-02  0.1027244E+00
         21   -1    0    0  502  501  0.00000000000E+00  0.00000000000E+00  0.39944850598E+02  0.39944850598E+02  0.00000000000E+00 0.  1.
         21   -1    0    0  501  502 -0.00000000000E+00 -0.00000000000E+00 -0.12764470686E+04  0.12764470686E+04  0.00000000000E+00 0.  1.
      99926    2    1    2    0    0  0.00000000000E+00  0.00000000000E+00 -0.12365022180E+04  0.13163919192E+04  0.45160818173E+03 0.  0.
      99925    2    3    3    0    0 -0.75354934625E+02 -0.80200141197E+02 -0.75360956779E+03  0.80556587391E+03  0.26248536667E+03 0.  0.
         25    1    3    3    0    0  0.75354934625E+02  0.80200141197E+02 -0.48289265022E+03  0.51082604530E+03  0.12509000000E+03 0.  0.
         25    1    4    4    0    0 -0.19556189646E+02 -0.12927728608E+02 -0.27081284346E+03  0.29922679526E+03  0.12509000000E+03 0.  0.
         25    1    4    4    0    0 -0.55798744979E+02 -0.67272412589E+02 -0.48279672433E+03  0.50633907865E+03  0.12509000000E+03 0.  0.
<mgrwt>
<rscale>  2 0.45160818E+03</rscale>
<asrwt>0</asrwt>
<pdfrwt beam="1">  1       21 0.58742434E-02 0.45160818E+03</pdfrwt>
<pdfrwt beam="2">  1       21 0.18771278E+00 0.45160818E+03</pdfrwt>
<totfact> 0.29410435E+04</totfact>
</mgrwt>
</event>
<event>
 7    0  0.4766352E-002  0.4434584E+03  0.7546771E-02  0.1029691E+00
         21   -1    0    0  502  501  0.00000000000E+00  0.00000000000E+00  0.17949680702E+03  0.17949680702E+03  0.00000000000E+00 0.  1.
         21   -1    0    0  501  502 -0.00000000000E+00 -0.00000000000E+00 -0.27389816897E+03  0.27389816897E+03  0.00000000000E+00 0.  1.
      99926    2    1    2    0    0  0.35527136788E-14  0.14210854715E-13 -0.94401361953E+02  0.45339497599E+03  0.44345843900E+03 0.  0.
      99925    2    3    3    0    0 -0.26792071248E+02 -0.97824359231E+02 -0.49050136818E+02  0.28608788690E+03  0.26296947117E+03 0.  0.
         25    1    3    3    0    0  0.26792071248E+02  0.97824359231E+02 -0.45351225136E+02  0.16730708910E+03  0.12509000000E+03 0.  0.
         25    1    4    4    0    0  0.33354727801E+01 -0.33580813864E+02  0.11449066434E+02  0.13006685074E+03  0.12509000000E+03 0.  0.
         25    1    4    4    0    0 -0.30127544028E+02 -0.64243545367E+02 -0.60499203252E+02  0.15602103616E+03  0.12509000000E+03 0.  0.
<mgrwt>
<rscale>  2 0.44345844E+03</rscale>
<asrwt>0</asrwt>
<pdfrwt beam="1">  1       21 0.26396589E-01 0.44345844E+03</pdfrwt>
<pdfrwt beam="2">  1       21 0.40279142E-01 0.44345844E+03</pdfrwt>
<totfact> 0.75357186E+04</totfact>
</mgrwt>
</event>
<event>
 7    0  0.4766352E-002  0.4563160E+03  0.7546771E-02  0.1025855E+00
         21   -1    0    0  502  501  0.00000000000E+00  0.00000000000E+00  0.15999586955E+03  0.15999586955E+03  0.00000000000E+00 0.  1.
         21   -1    0    0  501  502 -0.00000000000E+00 -0.00000000000E+00 -0.32535881790E+03  0.32535881790E+03  0.00000000000E+00 0.  1.
      99926    2    1    2    0    0  0.00000000000E+00  0.00000000000E+00 -0.16536294834E+03  0.48535468745E+03  0.45631597380E+03 0.  0.
      99925    2    3    3    0    0 -0.97499133719E+02 -0.31713265470E+02 -0.15643291966E+03  0.32336991719E+03  0.26378975095E+03 0.  0.
         25    1    4    4    0    0 -0.39804436908E+02 -0.33472960039E+00 -0.11907611788E+03  0.17723186844E+03  0.12509000000E+03 0.  0.
         25    1    4    4    0    0 -0.57694696811E+02 -0.31378535869E+02 -0.37356801787E+02  0.14613804875E+03  0.12509000000E+03 0.  0.
         25    1    3    3    0    0  0.97499133719E+02  0.31713265470E+02 -0.89300286811E+01  0.16198477026E+03  0.12509000000E+03 0.  0.
<mgrwt>
<rscale>  2 0.45631597E+03</rscale>
<asrwt>0</asrwt>
<pdfrwt beam="1">  1       21 0.23528805E-01 0.45631597E+03</pdfrwt>
<pdfrwt beam="2">  1       21 0.47846885E-01 0.45631597E+03</pdfrwt>
<totfact> 0.65624107E+04</totfact>
</mgrwt>
</event>
<event>
 7    0  0.4766352E-002  0.4540786E+03  0.7546771E-02  0.1026513E+00
         21   -1    0    0  502  501  0.00000000000E+00  0.00000000000E+00  0.22076718660E+03  0.22076718660E+03  0.00000000000E+00 0.  1.
         21   -1    0    0  501  502 -0.00000000000E+00 -0.00000000000E+00 -0.23348958643E+03  0.23348958643E+03  0.00000000000E+00 0.  1.
      99926    2    1    2    0    0  0.35527136788E-14  0.00000000000E+00 -0.12722399823E+02  0.45425677303E+03  0.45407857953E+03 0.  0.
      99925    2    3    3    0    0 -0.31400584097E+02 -0.63035888563E+02  0.78821039523E+02  0.28400040952E+03  0.26359809636E+03 0.  0.
         25    1    4    4    0    0 -0.46036339721E+02 -0.60554967706E+02  0.50690241498E+02  0.15492984661E+03  0.12509000000E+03 0.  0.
         25    1    4    4    0    0  0.14635755625E+02 -0.24809208577E+01  0.28130798024E+02  0.12907056290E+03  0.12509000000E+03 0.  0.
         25    1    3    3    0    0  0.31400584097E+02  0.63035888563E+02 -0.91543439346E+02  0.17025636351E+03  0.12509000000E+03 0.  0.
<mgrwt>
<rscale>  2 0.45407858E+03</rscale>
<asrwt>0</asrwt>
<pdfrwt beam="1">  1       21 0.32465763E-01 0.45407858E+03</pdfrwt>
<pdfrwt beam="2">  1       21 0.34336704E-01 0.45407858E+03</pdfrwt>
<totfact> 0.69106959E+04</totfact>
</mgrwt>
</event>
<event>
 7    0  0.4766352E-002  0.4450953E+03  0.7546771E-02  0.1029195E+00
         21   -1    0    0  502  501  0.00000000000E+00  0.00000000000E+00  0.83024404679E+02  0.83024404679E+02  0.00000000000E+00 0.  1.
         21   -1    0    0  501  502 -0.00000000000E+00 -0.00000000000E+00 -0.59654101141E+03  0.59654101141E+03  0.00000000000E+00 0.  1.
      99926    2    1    2    0    0  0.00000000000E+00  0.00000000000E+00 -0.51351660673E+03  0.67956541609E+03  0.44509532614E+03 0.  0.
      99925    2    3    3    0    0  0.26145924984E+02  0.81587260418E+02 -0.41336235774E+03  0.49785555905E+03  0.26391594954E+03 0.  0.
         25    1    4    4    0    0  0.39604871061E+02  0.12580857699E+02 -0.16701767406E+03  0.21276568177E+03  0.12509000000E+03 0.  0.
         25    1    4    4    0    0 -0.13458946076E+02  0.69006402719E+02 -0.24634468368E+03  0.28508987727E+03  0.12509000000E+03 0.  0.
         25    1    3    3    0    0 -0.26145924984E+02 -0.81587260418E+02 -0.10015424899E+03  0.18170985704E+03  0.12509000000E+03 0.  0.
<mgrwt>
<rscale>  2 0.44509533E+03</rscale>
<asrwt>0</asrwt>
<pdfrwt beam="1">  1       21 0.12209471E-01 0.44509533E+03</pdfrwt>
<pdfrwt beam="2">  1       21 0.87726624E-01 0.44509533E+03</pdfrwt>
<totfact> 0.58454133E+04</totfact>
</mgrwt>
</event>
<event>
 7    0  0.4766352E-002  0.4492475E+03  0.7546771E-02  0.1027947E+00
         21   -1    0    0  502  501  0.00000000000E+00  0.00000000000E+00  0.56387875625E+02  0.56387875625E+02  0.00000000000E+00 0. -1.
         21   -1    0    0  501  502 -0.00000000000E+00 -0.00000000000E+00 -0.89479937544E+03  0.89479937544E+03  0.00000000000E+00 0. -1.
      99926    2    1    2    0    0 -0.71054273576E-14  0.00000000000E+00 -0.83841149982E+03  0.95118725107E+03  0.44924753040E+03 0.  0.
      99925    2    3    3    0    0 -0.60262082082E+02 -0.24397208180E+02 -0.71214402649E+03  0.76193153722E+03  0.26299013411E+03 0.  0.
         25    1    4    4    0    0  0.58059064025E+01 -0.17395204347E+02 -0.39123069033E+03  0.41115114355E+03  0.12509000000E+03 0.  0.
         25    1    3    3    0    0  0.60262082082E+02  0.24397208180E+02 -0.12626747333E+03  0.18925571385E+03  0.12509000000E+03 0.  0.
         25    1    4    4    0    0 -0.66067988484E+02 -0.70020038331E+01 -0.32091333616E+03  0.35078039367E+03  0.12509000000E+03 0.  0.
<mgrwt>
<rscale>  2 0.44924753E+03</rscale>
<asrwt>0</asrwt>
<pdfrwt beam="1">  1       21 0.82923346E-02 0.44924753E+03</pdfrwt>
<pdfrwt beam="2">  1       21 0.13158814E+00 0.44924753E+03</pdfrwt>
<totfact> 0.42994411E+04</totfact>
</mgrwt>
</event>
<event>
 7    0  0.4766352E-002  0.4350267E+03  0.7546771E-02  0.1032284E+00
         21   -1    0    0  502  501  0.00000000000E+00  0.00000000000E+00  0.19618503555E+03  0.19618503555E+03  0.00000000000E+00 0.  1.
         21   -1    0    0  501  502 -0.00000000000E+00 -0.00000000000E+00 -0.24116038062E+03  0.24116038062E+03  0.00000000000E+00 0.  1.
      99926    2    1    2    0    0  0.00000000000E+00  0.00000000000E+00 -0.44975345069E+02  0.43734541616E+03  0.43502670191E+03 0.  0.
      99925    2    3    3    0    0  0.40152406389E+02 -0.80486872947E+02 -0.34482358164E+01  0.27777611662E+03  0.26278761039E+03 0.  0.
         25    1    3    3    0    0 -0.40152406389E+02  0.80486872947E+02 -0.41527109252E+02  0.15956929955E+03  0.12509000000E+03 0.  0.
         25    1    4    4    0    0  0.43278319023E+02 -0.53337420384E+02  0.29143255432E+02  0.14565277460E+03  0.12509000000E+03 0.  0.
         25    1    4    4    0    0 -0.31259126341E+01 -0.27149452563E+02 -0.32591491249E+02  0.13212334202E+03  0.12509000000E+03 0.  0.
<mgrwt>
<rscale>  2 0.43502670E+03</rscale>
<asrwt>0</asrwt>
<pdfrwt beam="1">  1       21 0.28850741E-01 0.43502670E+03</pdfrwt>
<pdfrwt beam="2">  1       21 0.35464762E-01 0.43502670E+03</pdfrwt>
<totfact> 0.82197282E+04</totfact>
</mgrwt>
</event>
<event>
 7    0  0.4766352E-002  0.4550239E+03  0.7546771E-02  0.1026234E+00
         21   -1    0    0  502  501  0.00000000000E+00  0.00000000000E+00  0.21179209276E+03  0.21179209276E+03  0.00000000000E+00 0. -1.
         21   -1    0    0  501  502 -0.00000000000E+00 -0.00000000000E+00 -0.24439857305E+03  0.24439857305E+03  0.00000000000E+00 0. -1.
      99926    2    1    2    0    0  0.71054273576E-14  0.14210854715E-13 -0.32606480289E+02  0.45619066581E+03  0.45502389060E+03 0.  0.
      99925    2    3    3    0    0 -0.35112953925E+02 -0.10590974950E+03 -0.10906181270E+01  0.28563113885E+03  0.26293376249E+03 0.  0.
         25    1    3    3    0    0  0.35112953925E+02  0.10590974950E+03 -0.31515862162E+02  0.17055952697E+03  0.12509000000E+03 0.  0.
         25    1    4    4    0    0 -0.47992345152E+02 -0.70723113928E+02 -0.22960961226E+02  0.15323099516E+03  0.12509000000E+03 0.  0.
         25    1    4    4    0    0  0.12879391227E+02 -0.35186635569E+02  0.21870343099E+02  0.13240014369E+03  0.12509000000E+03 0.  0.
<mgrwt>
<rscale>  2 0.45502389E+03</rscale>
<asrwt>0</asrwt>
<pdfrwt beam="1">  1       21 0.31145896E-01 0.45502389E+03</pdfrwt>
<pdfrwt beam="2">  1       21 0.35940967E-01 0.45502389E+03</pdfrwt>
<totfact> 0.68445642E+04</totfact>
</mgrwt>
</event>
<event>
 7    0  0.4766352E-002  0.4551853E+03  0.7546771E-02  0.1026187E+00
         21   -1    0    0  502  501  0.00000000000E+00  0.00000000000E+00  0.15181557548E+03  0.15181557548E+03  0.00000000000E+00 0.  1.
         21   -1    0    0  501  502 -0.00000000000E+00 -0.00000000000E+00 -0.34119294746E+03  0.34119294746E+03  0.00000000000E+00 0.  1.
      99926    2    1    2    0    0  0.00000000000E+00  0.00000000000E+00 -0.18937737199E+03  0.49300852294E+03  0.45518525313E+03 0.  0.
      99925    2    3    3    0    0  0.13313613504E+02 -0.39567119810E+02 -0.50530010023E+01  0.26636829899E+03  0.26302799967E+03 0.  0.
         25    1    4    4    0    0  0.17765665584E+02 -0.31367228039E+02 -0.39939733488E+02  0.13616979210E+03  0.12509000000E+03 0.  0.
         25    1    3    3    0    0 -0.13313613504E+02  0.39567119810E+02 -0.18432437098E+03  0.22664022395E+03  0.12509000000E+03 0.  0.
         25    1    4    4    0    0 -0.44520520800E+01 -0.81998917709E+01  0.34886732485E+02  0.13019850689E+03  0.12509000000E+03 0.  0.
<mgrwt>
<rscale>  2 0.45518525E+03</rscale>
<asrwt>0</asrwt>
<pdfrwt beam="1">  1       21 0.22325820E-01 0.45518525E+03</pdfrwt>
<pdfrwt beam="2">  1       21 0.50175432E-01 0.45518525E+03</pdfrwt>
<totfact> 0.65668044E+04</totfact>
</mgrwt>
</event>
<event>
 7    0  0.4766352E-002  0.4487675E+03  0.7546771E-02  0.1028090E+00
         21   -1    0    0  502  501  0.00000000000E+00  0.00000000000E+00  0.15853372749E+03  0.15853372749E+03  0.00000000000E+00 0. -1.
         21   -1    0    0  501  502 -0.00000000000E+00 -0.00000000000E+00 -0.31758579009E+03  0.31758579009E+03  0.00000000000E+00 0. -1.
      99926    2    1    2    0    0  0.00000000000E+00  0.00000000000E+00 -0.15905206259E+03  0.47611951758E+03  0.44876746362E+03 0.  0.
      99925    2    3    3    0    0  0.75631654611E+02  0.75370274626E+02 -0.91367574667E+02  0.29827260734E+03  0.26309254857E+03 0.  0.
         25    1    4    4    0    0  0.11925134039E+01  0.15210471570E+02 -0.32645519837E+02  0.13017687429E+03  0.12509000000E+03 0.  0.
         25    1    3    3    0    0 -0.75631654611E+02 -0.75370274626E+02 -0.67684487928E+02  0.17784691024E+03  0.12509000000E+03 0.  0.
         25    1    4    4    0    0  0.74439141207E+02  0.60159803056E+02 -0.58722054829E+02  0.16809573305E+03  0.12509000000E+03 0.  0.
<mgrwt>
<rscale>  2 0.44876746E+03</rscale>
<asrwt>0</asrwt>
<pdfrwt beam="1">  1       21 0.23313784E-01 0.44876746E+03</pdfrwt>
<pdfrwt beam="2">  1       21 0.46703792E-01 0.44876746E+03</pdfrwt>
<totfact> 0.70402535E+04</totfact>
</mgrwt>
</event>
<event>
 7    0  0.4766352E-002  0.4582605E+03  0.7546771E-02  0.1025287E+00
         21   -1    0    0  502  501  0.00000000000E+00  0.00000000000E+00  0.52765220068E+03  0.52765220068E+03  0.00000000000E+00 0. -1.
         21   -1    0    0  501  502 -0.00000000000E+00 -0.00000000000E+00 -0.99498619846E+02  0.99498619846E+02  0.00000000000E+00 0. -1.
      99926    2    1    2    0    0  0.00000000000E+00 -0.35527136788E-14  0.42815358083E+03  0.62715082052E+03  0.45826047495E+03 0.  0.
      99925    2    3    3    0    0 -0.10547233294E+03 -0.28829769950E+02  0.32222275674E+03  0.43011169688E+03  0.26308363344E+03 0.  0.
         25    1    3    3    0    0  0.10547233294E+03  0.28829769950E+02  0.10593082409E+03  0.19703912364E+03  0.12509000000E+03 0.  0.
         25    1    4    4    0    0 -0.54706143905E+02  0.22140367927E+02  0.13056162346E+03  0.19020200759E+03  0.12509000000E+03 0.  0.
         25    1    4    4    0    0 -0.50766189036E+02 -0.50970137877E+02  0.19166113328E+03  0.23990968929E+03  0.12509000000E+03 0.  0.
<mgrwt>
<rscale>  2 0.45826047E+03</rscale>
<asrwt>0</asrwt>
<pdfrwt beam="1">  1       21 0.77595911E-01 0.45826047E+03</pdfrwt>
<pdfrwt beam="2">  1       21 0.14632150E-01 0.45826047E+03</pdfrwt>
<totfact> 0.55592524E+04</totfact>
</mgrwt>
</event>
<event>
 7    0  0.4766352E-002  0.4140393E+03  0.7546771E-02  0.1039024E+00
         21   -1    0    0  502  501  0.00000000000E+00  0.00000000000E+00  0.36261317010E+03  0.36261317010E+03  0.00000000000E+00 0. -1.
         21   -1    0    0  501  502 -0.00000000000E+00 -0.00000000000E+00 -0.11818965831E+03  0.11818965831E+03  0.00000000000E+00 0. -1.
      99926    2    1    2    0    0  0.44408920985E-15 -0.71054273576E-14  0.24442351179E+03  0.48080282841E+03  0.41403925742E+03 0.  0.
      99925    2    3    3    0    0  0.16266380674E+01 -0.54960452292E+02  0.20648705668E+03  0.33899316726E+03  0.26316566190E+03 0.  0.
         25    1    4    4    0    0 -0.17860437187E+02 -0.63793634570E+02  0.11800356295E+03  0.18428502923E+03  0.12509000000E+03 0.  0.
         25    1    4    4    0    0  0.19487075254E+02  0.88331822784E+01  0.88483493731E+02  0.15470813803E+03  0.12509000000E+03 0.  0.
         25    1    3    3    0    0 -0.16266380674E+01  0.54960452292E+02  0.37936455108E+02  0.14180966114E+03  0.12509000000E+03 0.  0.
<mgrwt>
<rscale>  2 0.41403926E+03</rscale>
<asrwt>0</asrwt>
<pdfrwt beam="1">  1       21 0.53325466E-01 0.41403926E+03</pdfrwt>
<pdfrwt beam="2">  1       21 0.17380832E-01 0.41403926E+03</pdfrwt>
<totfact> 0.93542462E+04</totfact>
</mgrwt>
</event>
<event>
 7    0  0.4766352E-002  0.4507176E+03  0.7546771E-02  0.1027508E+00
         21   -1    0    0  502  501  0.00000000000E+00  0.00000000000E+00  0.14322471511E+03  0.14322471511E+03  0.00000000000E+00 0. -1.
         21   -1    0    0  501  502 -0.00000000000E+00 -0.00000000000E+00 -0.35459382330E+03  0.35459382330E+03  0.00000000000E+00 0. -1.
      99926    2    1    2    0    0  0.00000000000E+00 -0.17763568394E-14 -0.21136910819E+03  0.49781853842E+03  0.45071764697E+03 0.  0.
      99925    2    3    3    0    0  0.10402499265E+03 -0.13131905179E+02 -0.16693471372E+03  0.32865716711E+03  0.26297279102E+03 0.  0.
         25    1    4    4    0    0  0.15605622148E+02 -0.20349225389E+02 -0.56255579766E+02  0.13953431396E+03  0.12509000000E+03 0.  0.
         25    1    4    4    0    0  0.88419370506E+02  0.72173202092E+01 -0.11067913396E+03  0.18912285315E+03  0.12509000000E+03 0.  0.
         25    1    3    3    0    0 -0.10402499265E+03  0.13131905179E+02 -0.44434394466E+02  0.16916137131E+03  0.12509000000E+03 0.  0.
<mgrwt>
<rscale>  2 0.45071765E+03</rscale>
<asrwt>0</asrwt>
<pdfrwt beam="1">  1       21 0.21062458E-01 0.45071765E+03</pdfrwt>
<pdfrwt beam="2">  1       21 0.52146150E-01 0.45071765E+03</pdfrwt>
<totfact> 0.67696311E+04</totfact>
</mgrwt>
</event>
<event>
 7    0  0.4766352E-002  0.4429621E+03  0.7546771E-02  0.1029842E+00
         21   -1    0    0  502  501  0.00000000000E+00  0.00000000000E+00  0.12065068406E+03  0.12065068406E+03  0.00000000000E+00 0. -1.
         21   -1    0    0  501  502 -0.00000000000E+00 -0.00000000000E+00 -0.40657754224E+03  0.40657754224E+03  0.00000000000E+00 0. -1.
      99926    2    1    2    0    0  0.00000000000E+00  0.00000000000E+00 -0.28592685819E+03  0.52722822630E+03  0.44296211393E+03 0.  0.
      99925    2    3    3    0    0 -0.19715920151E+02 -0.81089603759E+02 -0.25048451991E+03  0.37273580323E+03  0.26310690403E+03 0.  0.
         25    1    3    3    0    0  0.19715920151E+02  0.81089603759E+02 -0.35442338273E+02  0.15449242307E+03  0.12509000000E+03 0.  0.
         25    1    4    4    0    0 -0.84922466606E+01 -0.10218881714E+02 -0.78438093166E+02  0.14824502135E+03  0.12509000000E+03 0.  0.
         25    1    4    4    0    0 -0.11223673490E+02 -0.70870722044E+02 -0.17204642675E+03  0.22449078187E+03  0.12509000000E+03 0.  0.
<mgrwt>
<rscale>  2 0.44296211E+03</rscale>
<asrwt>0</asrwt>
<pdfrwt beam="1">  1       21 0.17742747E-01 0.44296211E+03</pdfrwt>
<pdfrwt beam="2">  1       21 0.59790816E-01 0.44296211E+03</pdfrwt>
<totfact> 0.69815939E+04</totfact>
</mgrwt>
</event>
<event>
 7    0  0.4766352E-002  0.4559537E+03  0.7546771E-02  0.1025961E+00
         21   -1    0    0  502  501  0.00000000000E+00  0.00000000000E+00  0.45151532048E+03  0.45151532048E+03  0.00000000000E+00 0. -1.
         21   -1    0    0  501  502 -0.00000000000E+00 -0.00000000000E+00 -0.11510892695E+03  0.11510892695E+03  0.00000000000E+00 0. -1.
      99926    2    1    2    0    0  0.00000000000E+00  0.00000000000E+00  0.33640639353E+03  0.56662424743E+03  0.45595369959E+03 0.  0.
      99925    2    3    3    0    0 -0.52497743699E+02 -0.73630242888E+02  0.12509955497E+03  0.30494598336E+03  0.26299187888E+03 0.  0.
         25    1    4    4    0    0 -0.23052079705E+01 -0.44392530492E+02  0.96426529868E+02  0.16407801349E+03  0.12509000000E+03 0.  0.
         25    1    4    4    0    0 -0.50192535728E+02 -0.29237712396E+02  0.28673025099E+02  0.14086796988E+03  0.12509000000E+03 0.  0.
         25    1    3    3    0    0  0.52497743699E+02  0.73630242888E+02  0.21130683856E+03  0.26167826407E+03  0.12509000000E+03 0.  0.
<mgrwt>
<rscale>  2 0.45595370E+03</rscale>
<asrwt>0</asrwt>
<pdfrwt beam="1">  1       21 0.66399311E-01 0.45595370E+03</pdfrwt>
<pdfrwt beam="2">  1       21 0.16927784E-01 0.45595370E+03</pdfrwt>
<totfact> 0.60324870E+04</totfact>
</mgrwt>
</event>
<event>
 7    0  0.4766352E-002  0.4678286E+03  0.7546771E-02  0.1022535E+00
         21   -1    0    0  502  501  0.00000000000E+00  0.00000000000E+00  0.61444486810E+03  0.61444486810E+03  0.00000000000E+00 0. -1.
         21   -1    0    0  501  502 -0.00000000000E+00 -0.00000000000E+00 -0.89049318321E+02  0.89049318321E+02  0.00000000000E+00 0. -1.
      99926    2    1    2    0    0  0.00000000000E+00  0.00000000000E+00  0.52539554978E+03  0.70349418642E+03  0.46782858677E+03 0.  0.
      99925    2    3    3    0    0  0.55467769554E+02  0.10011516075E+03  0.25181669628E+03  0.38163611824E+03  0.26293489565E+03 0.  0.
         25    1    4    4    0    0  0.32236087820E+01  0.13432025416E+02  0.11198239211E+03  0.16845882346E+03  0.12509000000E+03 0.  0.
         25    1    3    3    0    0 -0.55467769554E+02 -0.10011516075E+03  0.27357885350E+03  0.32185806818E+03  0.12509000000E+03 0.  0.
         25    1    4    4    0    0  0.52244160772E+02  0.86683135332E+02  0.13983430418E+03  0.21317729478E+03  0.12509000000E+03 0.  0.
<mgrwt>
<rscale>  2 0.46782859E+03</rscale>
<asrwt>0</asrwt>
<pdfrwt beam="1">  1       21 0.90359537E-01 0.46782859E+03</pdfrwt>
<pdfrwt beam="2">  1       21 0.13095488E-01 0.46782859E+03</pdfrwt>
<totfact> 0.47710615E+04</totfact>
</mgrwt>
</event>
<event>
 7    0  0.4766352E-002  0.4489558E+03  0.7546771E-02  0.1028034E+00
         21   -1    0    0  502  501  0.00000000000E+00  0.00000000000E+00  0.39525962607E+03  0.39525962607E+03  0.00000000000E+00 0. -1.
         21   -1    0    0  501  502 -0.00000000000E+00 -0.00000000000E+00 -0.12748666336E+03  0.12748666336E+03  0.00000000000E+00 0. -1.
      99926    2    1    2    0    0  0.00000000000E+00  0.00000000000E+00  0.26777296270E+03  0.52274628943E+03  0.44895581471E+03 0.  0.
      99925    2    3    3    0    0  0.76881899488E+02 -0.72442536074E+02  0.19217739610E+03  0.34241064323E+03  0.26297176564E+03 0.  0.
         25    1    4    4    0    0  0.19501610259E+02 -0.59112300568E+02  0.12985607870E+03  0.19074770289E+03  0.12509000000E+03 0.  0.
         25    1    4    4    0    0  0.57380289230E+02 -0.13330235505E+02  0.62321317398E+02  0.15166294034E+03  0.12509000000E+03 0.  0.
         25    1    3    3    0    0 -0.76881899488E+02  0.72442536074E+02  0.75595566602E+02  0.18033564620E+03  0.12509000000E+03 0.  0.
<mgrwt>
<rscale>  2 0.44895581E+03</rscale>
<asrwt>0</asrwt>
<pdfrwt beam="1">  1       21 0.58126415E-01 0.44895581E+03</pdfrwt>
<pdfrwt beam="2">  1       21 0.18748039E-01 0.44895581E+03</pdfrwt>
<totfact> 0.66845982E+04</totfact>
</mgrwt>
</event>
<event>
 7    0  0.4766352E-002  0.4467116E+03  0.7546771E-02  0.1028707E+00
         21   -1    0    0  502  501  0.00000000000E+00  0.00000000000E+00  0.48604745013E+03  0.48604745013E+03  0.00000000000E+00 0. -1.
         21   -1    0    0  501  502 -0.00000000000E+00 -0.00000000000E+00 -0.10263980873E+03  0.10263980873E+03  0.00000000000E+00 0. -1.
      99926    2    1    2    0    0  0.00000000000E+00  0.71054273576E-14  0.38340764140E+03  0.58868725887E+03  0.44671161756E+03 0.  0.
      99925    2    3    3    0    0  0.57760022983E+02 -0.59949029001E+02  0.15817564376E+03  0.31793448013E+03  0.26293096631E+03 0.  0.
         25    1    3    3    0    0 -0.57760022983E+02  0.59949029001E+02  0.22523199764E+03  0.27075277873E+03  0.12509000000E+03 0.  0.
         25    1    4    4    0    0  0.57083432974E+02 -0.53718590089E+02  0.10846110376E+03  0.18318167040E+03  0.12509000000E+03 0.  0.
         25    1    4    4    0    0  0.67659000917E+00 -0.62304389119E+01  0.49714540006E+02  0.13475280973E+03  0.12509000000E+03 0.  0.
<mgrwt>
<rscale>  2 0.44671162E+03</rscale>
<asrwt>0</asrwt>
<pdfrwt beam="1">  1       21 0.71477565E-01 0.44671162E+03</pdfrwt>
<pdfrwt beam="2">  1       21 0.15094090E-01 0.44671162E+03</pdfrwt>
<totfact> 0.63434488E+04</totfact>
</mgrwt>
</event>
<event>
 7    0  0.4766352E-002  0.4576666E+03  0.7546771E-02  0.1025460E+00
         21   -1    0    0  502  501  0.00000000000E+00  0.00000000000E+00  0.31238872316E+02  0.31238872316E+02  0.00000000000E+00 0. -1.
         21   -1    0    0  501  502 -0.00000000000E+00 -0.00000000000E+00 -0.16762664813E+04  0.16762664813E+04  0.00000000000E+00 0. -1.
      99926    2    1    2    0    0  0.00000000000E+00  0.00000000000E+00 -0.16450276090E+04  0.17075053536E+04  0.45766657984E+03 0.  0.
      99925    2    3    3    0    0  0.28314998788E+02  0.10826350542E+03 -0.11423674268E+04  0.11775643261E+04  0.26292903718E+03 0.  0.
         25    1    3    3    0    0 -0.28314998788E+02 -0.10826350542E+03 -0.50266018223E+03  0.52994102753E+03  0.12509000000E+03 0.  0.
         25    1    4    4    0    0 -0.22765800825E+02  0.69022588032E+02 -0.54875129589E+03  0.56750144686E+03  0.12509000000E+03 0.  0.
         25    1    4    4    0    0  0.51080799613E+02  0.39240917386E+02 -0.59361613087E+03  0.61006287923E+03  0.12509000000E+03 0.  0.
<mgrwt>
<rscale>  2 0.45766658E+03</rscale>
<asrwt>0</asrwt>
<pdfrwt beam="1">  1       21 0.45939512E-02 0.45766658E+03</pdfrwt>
<pdfrwt beam="2">  1       21 0.24650981E+00 0.45766658E+03</pdfrwt>
<totfact> 0.18715572E+04</totfact>
</mgrwt>
</event>
<event>
 7    0  0.4766352E-002  0.4571687E+03  0.7546771E-02  0.1025606E+00
         21   -1    0    0  502  501  0.00000000000E+00  0.00000000000E+00  0.37895282155E+03  0.37895282155E+03  0.00000000000E+00 0. -1.
         21   -1    0    0  501  502 -0.00000000000E+00 -0.00000000000E+00 -0.13788206611E+03  0.13788206611E+03  0.00000000000E+00 0. -1.
      99926    2    1    2    0    0  0.00000000000E+00  0.00000000000E+00  0.24107075544E+03  0.51683488766E+03  0.45716866906E+03 0.  0.
      99925    2    3    3    0    0  0.41287257491E+02 -0.55988109065E+02  0.25520913240E+03  0.37300614299E+03  0.26298778577E+03 0.  0.
         25    1    4    4    0    0  0.27881052234E+02 -0.45427808835E+02  0.18160662921E+03  0.22686893741E+03  0.12509000000E+03 0.  0.
         25    1    3    3    0    0 -0.41287257491E+02  0.55988109065E+02 -0.14138376956E+02  0.14382874466E+03  0.12509000000E+03 0.  0.
         25    1    4    4    0    0  0.13406205256E+02 -0.10560300230E+02  0.73602503189E+02  0.14613720558E+03  0.12509000000E+03 0.  0.
<mgrwt>
<rscale>  2 0.45716867E+03</rscale>
<asrwt>0</asrwt>
<pdfrwt beam="1">  1       21 0.55728356E-01 0.45716867E+03</pdfrwt>
<pdfrwt beam="2">  1       21 0.20276774E-01 0.45716867E+03</pdfrwt>
<totfact> 0.63012097E+04</totfact>
</mgrwt>
</event>
<event>
 7    0  0.4766352E-002  0.4583825E+03  0.7546771E-02  0.1025251E+00
         21   -1    0    0  502  501  0.00000000000E+00  0.00000000000E+00  0.76939217118E+02  0.76939217118E+02  0.00000000000E+00 0. -1.
         21   -1    0    0  501  502 -0.00000000000E+00 -0.00000000000E+00 -0.68272901031E+03  0.68272901031E+03  0.00000000000E+00 0. -1.
      99926    2    1    2    0    0  0.00000000000E+00 -0.53290705182E-14 -0.60578979319E+03  0.75966822743E+03  0.45838252828E+03 0.  0.
      99925    2    3    3    0    0  0.11353499747E+03  0.51113813211E+01 -0.34422641315E+03  0.44825334058E+03  0.26367197797E+03 0.  0.
         25    1    3    3    0    0 -0.11353499747E+03 -0.51113813211E+01 -0.26156338005E+03  0.31141488685E+03  0.12509000000E+03 0.  0.
         25    1    4    4    0    0  0.45900073515E+02  0.41844305481E+02 -0.18214821275E+03  0.22952830361E+03  0.12509000000E+03 0.  0.
         25    1    4    4    0    0  0.67634923951E+02 -0.36732924160E+02 -0.16207820039E+03  0.21872503697E+03  0.12509000000E+03 0.  0.
<mgrwt>
<rscale>  2 0.45838253E+03</rscale>
<asrwt>0</asrwt>
<pdfrwt beam="1">  1       21 0.11314591E-01 0.45838253E+03</pdfrwt>
<pdfrwt beam="2">  1       21 0.10040132E+00 0.45838253E+03</pdfrwt>
<totfact> 0.48476707E+04</totfact>
</mgrwt>
</event>
<event>
 7    0  0.4766352E-002  0.4616360E+03  0.7546771E-02  0.1024308E+00
         21   -1    0    0  502  501  0.00000000000E+00  0.00000000000E+00  0.87431659814E+03  0.87431659814E+03  0.00000000000E+00 0. -1.
         21   -1    0    0  501  502 -0.00000000000E+00 -0.00000000000E+00 -0.60935532578E+02  0.60935532578E+02  0.00000000000E+00 0. -1.
      99926    2    1    2    0    0  0.00000000000E+00  0.00000000000E+00  0.81338106556E+03  0.93525213072E+03  0.46163599318E+03 0.  0.
      99925    2    3    3    0    0  0.40513426615E+02  0.93865473868E+02  0.38430689131E+03  0.47677179305E+03  0.26299713119E+03 0.  0.
         25    1    4    4    0    0  0.14803083210E+02  0.51302807229E+01  0.15675953188E+03  0.20116289416E+03  0.12509000000E+03 0.  0.
         25    1    3    3    0    0 -0.40513426615E+02 -0.93865473868E+02  0.42907417425E+03  0.45848033767E+03  0.12509000000E+03 0.  0.
         25    1    4    4    0    0  0.25710343406E+02  0.88735193145E+02  0.22754735943E+03  0.27560889889E+03  0.12509000000E+03 0.  0.
<mgrwt>
<rscale>  2 0.46163599E+03</rscale>
<asrwt>0</asrwt>
<pdfrwt beam="1">  1       21 0.12857596E+00 0.46163599E+03</pdfrwt>
<pdfrwt beam="2">  1       21 0.89611083E-02 0.46163599E+03</pdfrwt>
<totfact> 0.39645538E+04</totfact>
</mgrwt>
</event>
<event>
 7    0  0.4766352E-002  0.4564932E+03  0.7546771E-02  0.1025803E+00
         21   -1    0    0  502  501  0.00000000000E+00  0.00000000000E+00  0.26007470614E+04  0.26007470614E+04  0.00000000000E+00 0.  1.
         21   -1    0    0  501  502 -0.00000000000E+00 -0.00000000000E+00 -0.20031362891E+02  0.20031362891E+02  0.00000000000E+00 0.  1.
      99926    2    1    2    0    0  0.88817841970E-15 -0.14210854715E-13  0.25807156985E+04  0.26207784243E+04  0.45649319020E+03 0.  0.
      99925    2    3    3    0    0 -0.54855806594E+01 -0.90379890198E+02  0.12193488599E+04  0.12506814227E+04  0.26304707379E+03 0.  0.
         25    1    4    4    0    0  0.19531763431E+02 -0.44621280472E+02  0.45416215453E+03  0.47358559856E+03  0.12509000000E+03 0.  0.
         25    1    4    4    0    0 -0.25017344090E+02 -0.45758609726E+02  0.76518670532E+03  0.77709582419E+03  0.12509000000E+03 0.  0.
         25    1    3    3    0    0  0.54855806594E+01  0.90379890198E+02  0.13613668387E+04  0.13700970016E+04  0.12509000000E+03 0.  0.
<mgrwt>
<rscale>  2 0.45649319E+03</rscale>
<asrwt>0</asrwt>
<pdfrwt beam="1">  1       21 0.38246257E+00 0.45649319E+03</pdfrwt>
<pdfrwt beam="2">  1       21 0.29457905E-02 0.45649319E+03</pdfrwt>
<totfact> 0.59045106E+03</totfact>
</mgrwt>
</event>
<event>
 7    0  0.4766352E-002  0.4564669E+03  0.7546771E-02  0.1025811E+00
         21   -1    0    0  502  501  0.00000000000E+00  0.00000000000E+00  0.37828133566E+03  0.37828133566E+03  0.00000000000E+00 0.  1.
         21   -1    0    0  501  502 -0.00000000000E+00 -0.00000000000E+00 -0.13770307629E+03  0.13770307629E+03  0.00000000000E+00 0.  1.
      99926    2    1    2    0    0  0.00000000000E+00  0.00000000000E+00  0.24057825937E+03  0.51598441195E+03  0.45646688214E+03 0.  0.
      99925    2    3    3    0    0 -0.70363936207E+02 -0.39736254490E+02  0.24266986105E+03  0.36704839771E+03  0.26325996915E+03 0.  0.
         25    1    3    3    0    0  0.70363936207E+02  0.39736254490E+02 -0.20916016803E+01  0.14893601424E+03  0.12509000000E+03 0.  0.
         25    1    4    4    0    0 -0.74652426839E+02 -0.73470446746E+01  0.12099843777E+03  0.18951278041E+03  0.12509000000E+03 0.  0.
         25    1    4    4    0    0  0.42884906321E+01 -0.32389209816E+02  0.12167142328E+03  0.17753561730E+03  0.12509000000E+03 0.  0.
<mgrwt>
<rscale>  2 0.45646688E+03</rscale>
<asrwt>0</asrwt>
<pdfrwt beam="1">  1       21 0.55629608E-01 0.45646688E+03</pdfrwt>
<pdfrwt beam="2">  1       21 0.20250453E-01 0.45646688E+03</pdfrwt>
<totfact> 0.63420262E+04</totfact>
</mgrwt>
</event>
<event>
 7    0  0.4766352E-002  0.4541798E+03  0.7546771E-02  0.1026483E+00
         21   -1    0    0  502  501  0.00000000000E+00  0.00000000000E+00  0.18628407119E+03  0.18628407119E+03  0.00000000000E+00 0.  1.
         21   -1    0    0  501  502 -0.00000000000E+00 -0.00000000000E+00 -0.27683430236E+03  0.27683430236E+03  0.00000000000E+00 0.  1.
      99926    2    1    2    0    0  0.35527136788E-14  0.00000000000E+00 -0.90550231175E+02  0.46311837355E+03  0.45417979210E+03 0.  0.
      99925    2    3    3    0    0  0.22010429525E+02  0.84596668066E+02 -0.12898329585E+03  0.30574727132E+03  0.26306586258E+03 0.  0.
         25    1    4    4    0    0 -0.30298341486E+01  0.76615281504E+02 -0.47735361263E+02  0.15428951380E+03  0.12509000000E+03 0.  0.
         25    1    4    4    0    0  0.25040263673E+02  0.79813865618E+01 -0.81247934589E+02  0.15145775751E+03  0.12509000000E+03 0.  0.
         25    1    3    3    0    0 -0.22010429525E+02 -0.84596668066E+02  0.38433064676E+02  0.15737110223E+03  0.12509000000E+03 0.  0.
<mgrwt>
<rscale>  2 0.45417979E+03</rscale>
<asrwt>0</asrwt>
<pdfrwt beam="1">  1       21 0.27394717E-01 0.45417979E+03</pdfrwt>
<pdfrwt beam="2">  1       21 0.40710926E-01 0.45417979E+03</pdfrwt>
<totfact> 0.68394985E+04</totfact>
</mgrwt>
</event>
<event>
 7    0  0.4766352E-002  0.4534595E+03  0.7546771E-02  0.1026695E+00
         21   -1    0    0  502  501  0.00000000000E+00  0.00000000000E+00  0.12079939288E+03  0.12079939288E+03  0.00000000000E+00 0.  1.
         21   -1    0    0  501  502 -0.00000000000E+00 -0.00000000000E+00 -0.42555155159E+03  0.42555155159E+03  0.00000000000E+00 0.  1.
      99926    2    1    2    0    0  0.00000000000E+00  0.00000000000E+00 -0.30475215871E+03  0.54635094447E+03  0.45345945385E+03 0.  0.
      99925    2    3    3    0    0  0.17915471463E+02 -0.97568585272E+02 -0.12948537604E+03  0.30927174640E+03  0.26275836345E+03 0.  0.
         25    1    4    4    0    0  0.65396889529E+01 -0.63596364737E+01 -0.51940752224E+02  0.13575184105E+03  0.12509000000E+03 0.  0.
         25    1    4    4    0    0  0.11375782510E+02 -0.91208948798E+02 -0.77544623819E+02  0.17351990535E+03  0.12509000000E+03 0.  0.
         25    1    3    3    0    0 -0.17915471463E+02  0.97568585272E+02 -0.17526678267E+03  0.23707919807E+03  0.12509000000E+03 0.  0.
<mgrwt>
<rscale>  2 0.45345945E+03</rscale>
<asrwt>0</asrwt>
<pdfrwt beam="1">  1       21 0.17764617E-01 0.45345945E+03</pdfrwt>
<pdfrwt beam="2">  1       21 0.62581110E-01 0.45345945E+03</pdfrwt>
<totfact> 0.62871177E+04</totfact>
</mgrwt>
</event>
<event>
 7    0  0.4766352E-002  0.4535780E+03  0.7546771E-02  0.1026660E+00
         21   -1    0    0  502  501  0.00000000000E+00  0.00000000000E+00  0.62962440695E+03  0.62962440695E+03  0.00000000000E+00 0.  1.
         21   -1    0    0  501  502 -0.00000000000E+00 -0.00000000000E+00 -0.81688765105E+02  0.81688765105E+02  0.00000000000E+00 0.  1.
      99926    2    1    2    0    0  0.00000000000E+00  0.17763568394E-14  0.54793564185E+03  0.71131317206E+03  0.45357795486E+03 0.  0.
      99925    2    3    3    0    0 -0.30212221533E+02 -0.11629877947E+02  0.51286534679E+03  0.57742715305E+03  0.26333100984E+03 0.  0.
         25    1    4    4    0    0 -0.69845734436E+01 -0.42108423898E+02  0.21967597206E+03  0.25637266709E+03  0.12509000000E+03 0.  0.
         25    1    4    4    0    0 -0.23227648090E+02  0.30478545952E+02  0.29318937473E+03  0.32105448596E+03  0.12509000000E+03 0.  0.
         25    1    3    3    0    0  0.30212221533E+02  0.11629877947E+02  0.35070295056E+02  0.13388601901E+03  0.12509000000E+03 0.  0.
<mgrwt>
<rscale>  2 0.45357795E+03</rscale>
<asrwt>0</asrwt>
<pdfrwt beam="1">  1       21 0.92591822E-01 0.45357795E+03</pdfrwt>
<pdfrwt beam="2">  1       21 0.12013054E-01 0.45357795E+03</pdfrwt>
<totfact> 0.52882196E+04</totfact>
</mgrwt>
</event>
<event>
 7    0  0.4766352E-002  0.4685400E+03  0.7546771E-02  0.1022333E+00
         21   -1    0    0  502  501  0.00000000000E+00  0.00000000000E+00  0.93682213307E+02  0.93682213307E+02  0.00000000000E+00 0.  1.
         21   -1    0    0  501  502 -0.00000000000E+00 -0.00000000000E+00 -0.58583609590E+03  0.58583609590E+03  0.00000000000E+00 0.  1.
      99926    2    1    2    0    0  0.00000000000E+00  0.00000000000E+00 -0.49215388260E+03  0.67951830921E+03  0.46853995390E+03 0.  0.
      99925    2    3    3    0    0  0.18511513889E+02  0.30242236017E+02 -0.48057957934E+03  0.54898577847E+03  0.26300453209E+03 0.  0.
         25    1    4    4    0    0  0.14259657229E+01  0.48334578400E+02 -0.29201101090E+03  0.32133503300E+03  0.12509000000E+03 0.  0.
         25    1    3    3    0    0 -0.18511513889E+02 -0.30242236017E+02 -0.11574303258E+02  0.13053253074E+03  0.12509000000E+03 0.  0.
         25    1    4    4    0    0  0.17085548166E+02 -0.18092342384E+02 -0.18856856844E+03  0.22765074547E+03  0.12509000000E+03 0.  0.
<mgrwt>
<rscale>  2 0.46853995E+03</rscale>
<asrwt>0</asrwt>
<pdfrwt beam="1">  1       21 0.13776796E-01 0.46853995E+03</pdfrwt>
<pdfrwt beam="2">  1       21 0.86152367E-01 0.46853995E+03</pdfrwt>
<totfact> 0.48628871E+04</totfact>
</mgrwt>
</event>
<event>
 7    0  0.4766352E-002  0.4551478E+03  0.7546771E-02  0.1026198E+00
         21   -1    0    0  502  501  0.00000000000E+00  0.00000000000E+00  0.52696641175E+03  0.52696641175E+03  0.00000000000E+00 0. -1.
         21   -1    0    0  501  502 -0.00000000000E+00 -0.00000000000E+00 -0.98279286425E+02  0.98279286425E+02  0.00000000000E+00 0. -1.
      99926    2    1    2    0    0  0.00000000000E+00  0.35527136788E-14  0.42868712533E+03  0.62524569817E+03  0.45514781299E+03 0.  0.
      99925    2    3    3    0    0 -0.99990407080E+02  0.19318879787E+02  0.20169673258E+03  0.34677945763E+03  0.26306485831E+03 0.  0.
         25    1    3    3    0    0  0.99990407080E+02 -0.19318879787E+02  0.22699039274E+03  0.27846624054E+03  0.12509000000E+03 0.  0.
         25    1    4    4    0    0 -0.37563434087E+02  0.47834155348E+02  0.10777914068E+03  0.17596297697E+03  0.12509000000E+03 0.  0.
         25    1    4    4    0    0 -0.62426972993E+02 -0.28515275561E+02  0.93917591906E+02  0.17081648067E+03  0.12509000000E+03 0.  0.
<mgrwt>
<rscale>  2 0.45514781E+03</rscale>
<asrwt>0</asrwt>
<pdfrwt beam="1">  1       21 0.77495059E-01 0.45514781E+03</pdfrwt>
<pdfrwt beam="2">  1       21 0.14452837E-01 0.45514781E+03</pdfrwt>
<totfact> 0.57083980E+04</totfact>
</mgrwt>
</event>
<event>
 7    0  0.4766352E-002  0.4453760E+03  0.7546771E-02  0.1029110E+00
         21   -1    0    0  502  501  0.00000000000E+00  0.00000000000E+00  0.25618402308E+03  0.25618402308E+03  0.00000000000E+00 0. -1.
         21   -1    0    0  501  502 -0.00000000000E+00 -0.00000000000E+00 -0.19357155114E+03  0.19357155114E+03  0.00000000000E+00 0. -1.
      99926    2    1    2    0    0  0.00000000000E+00  0.00000000000E+00  0.62612471944E+02  0.44975557422E+03  0.44537597027E+03 0.  0.
      99925    2    3    3    0    0  0.85762284658E+02 -0.56963357831E+02  0.54213132318E+02  0.28752718394E+03  0.26293121569E+03 0.  0.
         25    1    4    4    0    0  0.34088595918E+02 -0.36152351730E+01  0.57817175006E+02  0.14200505668E+03  0.12509000000E+03 0.  0.
         25    1    3    3    0    0 -0.85762284658E+02  0.56963357831E+02  0.83993396257E+01  0.16222839028E+03  0.12509000000E+03 0.  0.
         25    1    4    4    0    0  0.51673688741E+02 -0.53348122658E+02 -0.36040426877E+01  0.14552212726E+03  0.12509000000E+03 0.  0.
<mgrwt>
<rscale>  2 0.44537597E+03</rscale>
<asrwt>0</asrwt>
<pdfrwt beam="1">  1       21 0.37674121E-01 0.44537597E+03</pdfrwt>
<pdfrwt beam="2">  1       21 0.28466405E-01 0.44537597E+03</pdfrwt>
<totfact> 0.74488552E+04</totfact>
</mgrwt>
</event>
<event>
 7    0  0.4766352E-002  0.4616169E+03  0.7546771E-02  0.1024313E+00
         21   -1    0    0  502  501  0.00000000000E+00  0.00000000000E+00  0.31993993674E+02  0.31993993674E+02  0.00000000000E+00 0.  1.
         21   -1    0    0  501  502 -0.00000000000E+00 -0.00000000000E+00 -0.16650797612E+04  0.16650797612E+04  0.00000000000E+00 0.  1.
      99926    2    1    2    0    0 -0.22204460493E-14  0.00000000000E+00 -0.16330857675E+04  0.16970737548E+04  0.46161694659E+03 0.  0.
      99925    2    3    3    0    0 -0.13417903558E+01 -0.88455457460E+02 -0.72540115802E+03  0.77654943320E+03  0.26267092300E+03 0.  0.
         25    1    4    4    0    0  0.24830024039E+02 -0.39544183713E+02 -0.27293799269E+03  0.30384688333E+03  0.12509000000E+03 0.  0.
         25    1    3    3    0    0  0.13417903558E+01  0.88455457460E+02 -0.90768460947E+03  0.92052432164E+03  0.12509000000E+03 0.  0.
         25    1    4    4    0    0 -0.26171814394E+02 -0.48911273747E+02 -0.45246316533E+03  0.47270254986E+03  0.12509000000E+03 0.  0.
<mgrwt>
<rscale>  2 0.46161695E+03</rscale>
<asrwt>0</asrwt>
<pdfrwt beam="1">  1       21 0.47049983E-02 0.46161695E+03</pdfrwt>
<pdfrwt beam="2">  1       21 0.24486471E+00 0.46161695E+03</pdfrwt>
<totfact> 0.18361009E+04</totfact>
</mgrwt>
</event>
<event>
 7    0  0.4766352E-002  0.4585450E+03  0.7546771E-02  0.1025204E+00
         21   -1    0    0  502  501  0.00000000000E+00  0.00000000000E+00  0.94352221569E+02  0.94352221569E+02  0.00000000000E+00 0.  1.
         21   -1    0    0  501  502 -0.00000000000E+00 -0.00000000000E+00 -0.55712396396E+03  0.55712396396E+03  0.00000000000E+00 0.  1.
      99926    2    1    2    0    0  0.14210854715E-13  0.00000000000E+00 -0.46277174239E+03  0.65147618553E+03  0.45854501933E+03 0.  0.
      99925    2    3    3    0    0 -0.92618134025E+02  0.16104904682E+02 -0.38790011578E+03  0.47800931469E+03  0.26303786497E+03 0.  0.
         25    1    4    4    0    0 -0.67216380120E+02  0.46382209307E+01 -0.26371614592E+03  0.29955511775E+03  0.12509000000E+03 0.  0.
         25    1    4    4    0    0 -0.25401753906E+02  0.11466683751E+02 -0.12418396985E+03  0.17845419694E+03  0.12509000000E+03 0.  0.
         25    1    3    3    0    0  0.92618134025E+02 -0.16104904682E+02 -0.74871626612E+02  0.17346687083E+03  0.12509000000E+03 0.  0.
<mgrwt>
<rscale>  2 0.45854502E+03</rscale>
<asrwt>0</asrwt>
<pdfrwt beam="1">  1       21 0.13875327E-01 0.45854502E+03</pdfrwt>
<pdfrwt beam="2">  1       21 0.81929995E-01 0.45854502E+03</pdfrwt>
<totfact> 0.54087959E+04</totfact>
</mgrwt>
</event>
<event>
 7    0  0.4766352E-002  0.4551224E+03  0.7546771E-02  0.1026205E+00
         21   -1    0    0  502  501  0.00000000000E+00  0.00000000000E+00  0.14285376870E+03  0.14285376870E+03  0.00000000000E+00 0. -1.
         21   -1    0    0  501  502 -0.00000000000E+00 -0.00000000000E+00 -0.36249718132E+03  0.36249718132E+03  0.00000000000E+00 0. -1.
      99926    2    1    2    0    0  0.35527136788E-14 -0.14210854715E-13 -0.21964341262E+03  0.50535095002E+03  0.45512235056E+03 0.  0.
      99925    2    3    3    0    0  0.21411137055E+02  0.11111123120E+03 -0.13051566592E+03  0.31457515014E+03  0.26290500860E+03 0.  0.
         25    1    4    4    0    0 -0.18859166169E+02  0.31858858029E+02 -0.40184856079E+02  0.13650269500E+03  0.12509000000E+03 0.  0.
         25    1    4    4    0    0  0.40270303224E+02  0.79252373167E+02 -0.90330809838E+02  0.17807245514E+03  0.12509000000E+03 0.  0.
         25    1    3    3    0    0 -0.21411137055E+02 -0.11111123120E+03 -0.89127746703E+02  0.19077579988E+03  0.12509000000E+03 0.  0.
<mgrwt>
<rscale>  2 0.45512235E+03</rscale>
<asrwt>0</asrwt>
<pdfrwt beam="1">  1       21 0.21007907E-01 0.45512235E+03</pdfrwt>
<pdfrwt beam="2">  1       21 0.53308408E-01 0.45512235E+03</pdfrwt>
<totfact> 0.64833369E+04</totfact>
</mgrwt>
</event>
<event>
 7    0  0.4766352E-002  0.4729615E+03  0.7546771E-02  0.1021088E+00
         21   -1    0    0  502  501  0.00000000000E+00  0.00000000000E+00  0.10917110069E+03  0.10917110069E+03  0.00000000000E+00 0. -1.
         21   -1    0    0  501  502 -0.00000000000E+00 -0.00000000000E+00 -0.51225235386E+03  0.51225235386E+03  0.00000000000E+00 0. -1.
      99926    2    1    2    0    0  0.00000000000E+00  0.00000000000E+00 -0.40308125316E+03  0.62142345455E+03  0.47296153460E+03 0.  0.
      99925    2    3    3    0    0  0.67482748875E+02  0.13622664537E+02 -0.10593918381E+03  0.29175632567E+03  0.26298126267E+03 0.  0.
         25    1    4    4    0    0  0.11221078168E+02 -0.25354884843E+02 -0.36916754321E+02  0.13333843268E+03  0.12509000000E+03 0.  0.
         25    1    3    3    0    0 -0.67482748875E+02 -0.13622664537E+02 -0.29714206935E+03  0.32966712888E+03  0.12509000000E+03 0.  0.
         25    1    4    4    0    0  0.56261670707E+02  0.38977549379E+02 -0.69022429490E+02  0.15841789299E+03  0.12509000000E+03 0.  0.
<mgrwt>
<rscale>  2 0.47296153E+03</rscale>
<asrwt>0</asrwt>
<pdfrwt beam="1">  1       21 0.16054574E-01 0.47296153E+03</pdfrwt>
<pdfrwt beam="2">  1       21 0.75331228E-01 0.47296153E+03</pdfrwt>
<totfact> 0.49912931E+04</totfact>
</mgrwt>
</event>
<event>
 7    0  0.4766352E-002  0.4513190E+03  0.7546771E-02  0.1027329E+00
         21   -1    0    0  502  501  0.00000000000E+00  0.00000000000E+00  0.31082519920E+02  0.31082519920E+02  0.00000000000E+00 0.  1.
         21   -1    0    0  501  502 -0.00000000000E+00 -0.00000000000E+00 -0.16382908176E+04  0.16382908176E+04  0.00000000000E+00 0.  1.
      99926    2    1    2    0    0  0.71054273576E-14  0.00000000000E+00 -0.16072082977E+04  0.16693733375E+04  0.45131898685E+03 0.  0.
      99925    2    3    3    0    0 -0.45026841809E+02  0.10007968117E+03 -0.10033736373E+04  0.10430290518E+04  0.26288322089E+03 0.  0.
         25    1    3    3    0    0  0.45026841809E+02 -0.10007968117E+03 -0.60383466039E+03  0.62634428572E+03  0.12509000000E+03 0.  0.
         25    1    4    4    0    0 -0.63331070009E+02  0.54800379119E+02 -0.52086181513E+03  0.54217934721E+03  0.12509000000E+03 0.  0.
         25    1    4    4    0    0  0.18304228200E+02  0.45279302046E+02 -0.48251182215E+03  0.50084970458E+03  0.12509000000E+03 0.  0.
<mgrwt>
<rscale>  2 0.45131899E+03</rscale>
<asrwt>0</asrwt>
<pdfrwt beam="1">  1       21 0.45709585E-02 0.45131899E+03</pdfrwt>
<pdfrwt beam="2">  1       21 0.24092514E+00 0.45131899E+03</pdfrwt>
<totfact> 0.20485865E+04</totfact>
</mgrwt>
</event>
<event>
 6    0  0.4766352E-002  0.4331723E+03  0.7546771E-02  0.1032863E+00
         21   -1    0    0  502  501  0.00000000000E+00  0.00000000000E+00  0.46736171169E+03  0.46736171169E+03  0.00000000000E+00 0.  1.
         21   -1    0    0  501  502 -0.00000000000E+00 -0.00000000000E+00 -0.10037101155E+03  0.10037101155E+03  0.00000000000E+00 0.  1.
      99926    2    1    2    0    0  0.00000000000E+00  0.00000000000E+00  0.36699070014E+03  0.56773272324E+03  0.43317233412E+03 0.  0.
         25    1    3    3    0    0  0.33129357129E+02  0.20576842639E+02  0.23499491974E+03  0.26905590713E+03  0.12509000000E+03 0.  0.
         25    1    3    3    0    0  0.71414522309E+01 -0.46869119090E+02  0.70716695014E+02  0.15131448615E+03  0.12509000000E+03 0.  0.
         25    1    3    3    0    0 -0.40270809360E+02  0.26292276451E+02  0.61279085386E+02  0.14736232997E+03  0.12509000000E+03 0.  0.
<mgrwt>
<rscale>  2 0.43317233E+03</rscale>
<asrwt>0</asrwt>
<pdfrwt beam="1">  1       21 0.68729662E-01 0.43317233E+03</pdfrwt>
<pdfrwt beam="2">  1       21 0.14760443E-01 0.43317233E+03</pdfrwt>
<totfact> 0.72424624E+04</totfact>
</mgrwt>
</event>
<event>
 7    0  0.4766352E-002  0.4464305E+03  0.7546771E-02  0.1028792E+00
         21   -1    0    0  502  501  0.00000000000E+00  0.00000000000E+00  0.13285287242E+03  0.13285287242E+03  0.00000000000E+00 0.  1.
         21   -1    0    0  501  502 -0.00000000000E+00 -0.00000000000E+00 -0.37503933460E+03  0.37503933460E+03  0.00000000000E+00 0.  1.
      99926    2    1    2    0    0  0.00000000000E+00 -0.35527136788E-14 -0.24218646218E+03  0.50789220702E+03  0.44643052257E+03 0.  0.
      99925    2    3    3    0    0 -0.28667958155E+02  0.23366596952E+02 -0.26536117661E+03  0.37540664114E+03  0.26295578047E+03 0.  0.
         25    1    4    4    0    0  0.36693807588E+01  0.25044025761E+00 -0.80907217259E+02  0.14902017642E+03  0.12509000000E+03 0.  0.
         25    1    4    4    0    0 -0.32337338914E+02  0.23116156694E+02 -0.18445395935E+03  0.22638646472E+03  0.12509000000E+03 0.  0.
         25    1    3    3    0    0  0.28667958155E+02 -0.23366596952E+02  0.23174714423E+02  0.13248556588E+03  0.12509000000E+03 0.  0.
<mgrwt>
<rscale>  2 0.44643052E+03</rscale>
<asrwt>0</asrwt>
<pdfrwt beam="1">  1       21 0.19537187E-01 0.44643052E+03</pdfrwt>
<pdfrwt beam="2">  1       21 0.55152843E-01 0.44643052E+03</pdfrwt>
<totfact> 0.69314788E+04</totfact>
</mgrwt>
</event>
<event>
 7    0  0.4766352E-002  0.4588070E+03  0.7546771E-02  0.1025128E+00
         21   -1    0    0  502  501  0.00000000000E+00  0.00000000000E+00  0.18500149987E+03  0.18500149987E+03  0.00000000000E+00 0.  1.
         21   -1    0    0  501  502 -0.00000000000E+00 -0.00000000000E+00 -0.28446233558E+03  0.28446233558E+03  0.00000000000E+00 0.  1.
      99926    2    1    2    0    0  0.14210854715E-13  0.00000000000E+00 -0.99460835711E+02  0.46946383546E+03  0.45880696917E+03 0.  0.
      99925    2    3    3    0    0 -0.11068162412E+03 -0.35920996199E+02 -0.58038376741E+02  0.29366830624E+03  0.26330947767E+03 0.  0.
         25    1    4    4    0    0 -0.80355030414E+02 -0.38551085150E+02 -0.29074032487E+01  0.15361991464E+03  0.12509000000E+03 0.  0.
         25    1    4    4    0    0 -0.30326593704E+02  0.26300889511E+01 -0.55130973492E+02  0.14004839161E+03  0.12509000000E+03 0.  0.
         25    1    3    3    0    0  0.11068162412E+03  0.35920996199E+02 -0.41422458970E+02  0.17579552922E+03  0.12509000000E+03 0.  0.
<mgrwt>
<rscale>  2 0.45880697E+03</rscale>
<asrwt>0</asrwt>
<pdfrwt beam="1">  1       21 0.27206103E-01 0.45880697E+03</pdfrwt>
<pdfrwt beam="2">  1       21 0.41832696E-01 0.45880697E+03</pdfrwt>
<totfact> 0.65476309E+04</totfact>
</mgrwt>
</event>
<event>
 7    0  0.4766352E-002  0.4574852E+03  0.7546771E-02  0.1025513E+00
         21   -1    0    0  502  501  0.00000000000E+00  0.00000000000E+00  0.23166206943E+03  0.23166206943E+03  0.00000000000E+00 0. -1.
         21   -1    0    0  501  502 -0.00000000000E+00 -0.00000000000E+00 -0.22585995422E+03  0.22585995422E+03  0.00000000000E+00 0. -1.
      99926    2    1    2    0    0  0.00000000000E+00  0.00000000000E+00  0.58021152114E+01  0.45752202364E+03  0.45748523209E+03 0.  0.
      99925    2    3    3    0    0  0.39801718797E+02 -0.99699497749E+02  0.48672649088E+02  0.28720010067E+03  0.26189827106E+03 0.  0.
         25    1    4    4    0    0  0.28680993581E+01 -0.40776772063E+02  0.57918566819E+02  0.14378122136E+03  0.12509000000E+03 0.  0.
         25    1    4    4    0    0  0.36933619439E+02 -0.58922725687E+02 -0.92459177311E+01  0.14341887931E+03  0.12509000000E+03 0.  0.
         25    1    3    3    0    0 -0.39801718797E+02  0.99699497749E+02 -0.42870533877E+02  0.17032192297E+03  0.12509000000E+03 0.  0.
<mgrwt>
<rscale>  2 0.45748523E+03</rscale>
<asrwt>0</asrwt>
<pdfrwt beam="1">  1       21 0.34067952E-01 0.45748523E+03</pdfrwt>
<pdfrwt beam="2">  1       21 0.33214699E-01 0.45748523E+03</pdfrwt>
<totfact> 0.67022505E+04</totfact>
</mgrwt>
</event>
<event>
 7    0  0.4766352E-002  0.4790938E+03  0.7546771E-02  0.1019385E+00
         21   -1    0    0  502  501  0.00000000000E+00  0.00000000000E+00  0.81286202787E+03  0.81286202787E+03  0.00000000000E+00 0. -1.
         21   -1    0    0  501  502 -0.00000000000E+00 -0.00000000000E+00 -0.70593431594E+02  0.70593431594E+02  0.00000000000E+00 0. -1.
      99926    2    1    2    0    0  0.14210854715E-13  0.14210854715E-13  0.74226859628E+03  0.88345545947E+03  0.47909381111E+03 0.  0.
      99925    2    3    3    0    0 -0.81361724529E+02 -0.10520928241E+03  0.49499445730E+03  0.57607827874E+03  0.26297898614E+03 0.  0.
         25    1    3    3    0    0  0.81361724529E+02  0.10520928241E+03  0.24727413897E+03  0.30737718072E+03  0.12509000000E+03 0.  0.
         25    1    4    4    0    0 -0.55533091240E+01 -0.39812997709E+02  0.26490761936E+03  0.29570165526E+03  0.12509000000E+03 0.  0.
         25    1    4    4    0    0 -0.75808415405E+02 -0.65396284706E+02  0.23008683794E+03  0.28037662348E+03  0.12509000000E+03 0.  0.
<mgrwt>
<rscale>  2 0.47909381E+03</rscale>
<asrwt>0</asrwt>
<pdfrwt beam="1">  1       21 0.11953853E+00 0.47909381E+03</pdfrwt>
<pdfrwt beam="2">  1       21 0.10381387E-01 0.47909381E+03</pdfrwt>
<totfact> 0.36555180E+04</totfact>
</mgrwt>
</event>
<event>
 7    0  0.4766352E-002  0.4516514E+03  0.7546771E-02  0.1027231E+00
         21   -1    0    0  502  501  0.00000000000E+00  0.00000000000E+00  0.77462175190E+03  0.77462175190E+03  0.00000000000E+00 0. -1.
         21   -1    0    0  501  502 -0.00000000000E+00 -0.00000000000E+00 -0.65835038823E+02  0.65835038823E+02  0.00000000000E+00 0. -1.
      99926    2    1    2    0    0  0.00000000000E+00 -0.14210854715E-13  0.70878671308E+03  0.84045679072E+03  0.45165142803E+03 0.  0.
      99925    2    3    3    0    0 -0.65826012707E+02 -0.65049691951E+02  0.33713073057E+03  0.43754215485E+03  0.26309975561E+03 0.  0.
         25    1    4    4    0    0 -0.34072527814E+02 -0.74318429136E+02  0.17565817320E+03  0.23062408368E+03  0.12509000000E+03 0.  0.
         25    1    3    3    0    0  0.65826012707E+02  0.65049691951E+02  0.37165598250E+03  0.40291463587E+03  0.12509000000E+03 0.  0.
         25    1    4    4    0    0 -0.31753484892E+02  0.92687371846E+01  0.16147255737E+03  0.20691807117E+03  0.12509000000E+03 0.  0.
<mgrwt>
<rscale>  2 0.45165143E+03</rscale>
<asrwt>0</asrwt>
<pdfrwt beam="1">  1       21 0.11391496E+00 0.45165143E+03</pdfrwt>
<pdfrwt beam="2">  1       21 0.96816238E-02 0.45165143E+03</pdfrwt>
<totfact> 0.47094401E+04</totfact>
</mgrwt>
</event>
<event>
 7    0  0.4766352E-002  0.4507271E+03  0.7546771E-02  0.1027505E+00
         21   -1    0    0  502  501  0.00000000000E+00  0.00000000000E+00  0.32254168999E+03  0.32254168999E+03  0.00000000000E+00 0.  1.
         21   -1    0    0  501  502 -0.00000000000E+00 -0.00000000000E+00 -0.15746410422E+03  0.15746410422E+03  0.00000000000E+00 0.  1.
      99926    2    1    2    0    0 -0.14210854715E-13  0.00000000000E+00  0.16507758577E+03  0.48000579421E+03  0.45072713825E+03 0.  0.
      99925    2    3    3    0    0  0.10506146371E+03 -0.23790198374E+02  0.12207498064E+03  0.30941676513E+03  0.26312078776E+03 0.  0.
         25    1    4    4    0    0  0.14641426252E+02  0.78205508833E+01  0.64128220261E+02  0.14154670294E+03  0.12509000000E+03 0.  0.
         25    1    3    3    0    0 -0.10506146371E+03  0.23790198374E+02  0.43002605129E+02  0.17058902908E+03  0.12509000000E+03 0.  0.
         25    1    4    4    0    0  0.90420037454E+02 -0.31610749257E+02  0.57946760380E+02  0.16787006219E+03  0.12509000000E+03 0.  0.
<mgrwt>
<rscale>  2 0.45072714E+03</rscale>
<asrwt>0</asrwt>
<pdfrwt beam="1">  1       21 0.47432602E-01 0.45072714E+03</pdfrwt>
<pdfrwt beam="2">  1       21 0.23156486E-01 0.45072714E+03</pdfrwt>
<totfact> 0.69010841E+04</totfact>
</mgrwt>
</event>
<event>
 7    0  0.4766352E-002  0.4563624E+03  0.7546771E-02  0.1025842E+00
         21   -1    0    0  502  501  0.00000000000E+00  0.00000000000E+00  0.16060650341E+03  0.16060650341E+03  0.00000000000E+00 0. -1.
         21   -1    0    0  501  502 -0.00000000000E+00 -0.00000000000E+00 -0.32418774139E+03  0.32418774139E+03  0.00000000000E+00 0. -1.
      99926    2    1    2    0    0  0.71054273576E-14  0.00000000000E+00 -0.16358123798E+03  0.48479424480E+03  0.45636239807E+03 0.  0.
      99925    2    3    3    0    0  0.63351397642E+02  0.64880933894E+02 -0.17776034699E+03  0.32964434825E+03  0.26238086860E+03 0.  0.
         25    1    4    4    0    0  0.61222157850E+02  0.61232237629E+02 -0.10528827306E+03  0.18501531850E+03  0.12509000000E+03 0.  0.
         25    1    4    4    0    0  0.21292397923E+01  0.36486962651E+01 -0.72472073931E+02  0.14462902975E+03  0.12509000000E+03 0.  0.
         25    1    3    3    0    0 -0.63351397642E+02 -0.64880933894E+02  0.14179109009E+02  0.15514989655E+03  0.12509000000E+03 0.  0.
<mgrwt>
<rscale>  2 0.45636240E+03</rscale>
<asrwt>0</asrwt>
<pdfrwt beam="1">  1       21 0.23618604E-01 0.45636240E+03</pdfrwt>
<pdfrwt beam="2">  1       21 0.47674667E-01 0.45636240E+03</pdfrwt>
<totfact> 0.65639964E+04</totfact>
</mgrwt>
</event>
<event>
 7    0  0.4766352E-002  0.4458787E+03  0.7546771E-02  0.1028958E+00
         21   -1    0    0  502  501  0.00000000000E+00  0.00000000000E+00  0.35668776234E+03  0.35668776234E+03  0.00000000000E+00 0. -1.
         21   -1    0    0  501  502 -0.00000000000E+00 -0.00000000000E+00 -0.13934301034E+03  0.13934301034E+03  0.00000000000E+00 0. -1.
      99926    2    1    2    0    0  0.88817841970E-15  0.00000000000E+00  0.21734475200E+03  0.49603077268E+03  0.44587866760E+03 0.  0.
      99925    2    3    3    0    0  0.24938123828E+01 -0.67167080344E+02  0.22640804715E+03  0.35373781009E+03  0.26334805618E+03 0.  0.
         25    1    3    3    0    0 -0.24938123828E+01  0.67167080344E+02 -0.90632951475E+01  0.14229296258E+03  0.12509000000E+03 0.  0.
         25    1    4    4    0    0 -0.19347682061E+02 -0.54869877872E+02  0.79729421041E+02  0.15934028046E+03  0.12509000000E+03 0.  0.
         25    1    4    4    0    0  0.21841494444E+02 -0.12297202472E+02  0.14667862611E+03  0.19439752963E+03  0.12509000000E+03 0.  0.
<mgrwt>
<rscale>  2 0.44587867E+03</rscale>
<asrwt>0</asrwt>
<pdfrwt beam="1">  1       21 0.52454082E-01 0.44587867E+03</pdfrwt>
<pdfrwt beam="2">  1       21 0.20491619E-01 0.44587867E+03</pdfrwt>
<totfact> 0.70519657E+04</totfact>
</mgrwt>
</event>
<event>
 7    0  0.4766352E-002  0.4366642E+03  0.7546771E-02  0.1031775E+00
         21   -1    0    0  502  501  0.00000000000E+00  0.00000000000E+00  0.27908821921E+03  0.27908821921E+03  0.00000000000E+00 0.  1.
         21   -1    0    0  501  502 -0.00000000000E+00 -0.00000000000E+00 -0.17080226785E+03  0.17080226785E+03  0.00000000000E+00 0.  1.
      99926    2    1    2    0    0  0.14210854715E-13  0.17763568394E-14  0.10828595136E+03  0.44989048705E+03  0.43666417655E+03 0.  0.
      99925    2    3    3    0    0  0.94349755466E+02 -0.90139583315E+01  0.68266115135E+02  0.28792683930E+03  0.26317004866E+03 0.  0.
         25    1    3    3    0    0 -0.94349755466E+02  0.90139583315E+01  0.40019836228E+02  0.16196364775E+03  0.12509000000E+03 0.  0.
         25    1    4    4    0    0  0.50549670104E+02  0.29814740032E+02  0.56639773426E+02  0.14933104133E+03  0.12509000000E+03 0.  0.
         25    1    4    4    0    0  0.43800085362E+02 -0.38828698363E+02  0.11626341709E+02  0.13859579797E+03  0.12509000000E+03 0.  0.
<mgrwt>
<rscale>  2 0.43666418E+03</rscale>
<asrwt>0</asrwt>
<pdfrwt beam="1">  1       21 0.41042386E-01 0.43666418E+03</pdfrwt>
<pdfrwt beam="2">  1       21 0.25117980E-01 0.43666418E+03</pdfrwt>
<totfact> 0.79974683E+04</totfact>
</mgrwt>
</event>
<event>
 7    0  0.4766352E-002  0.3956459E+03  0.7546771E-02  0.1045298E+00
         21   -1    0    0  502  501  0.00000000000E+00  0.00000000000E+00  0.33654186201E+04  0.33654186201E+04  0.00000000000E+00 0.  1.
         21   -1    0    0  501  502 -0.00000000000E+00 -0.00000000000E+00 -0.11628249758E+02  0.11628249758E+02  0.00000000000E+00 0.  1.
      99926    2    1    2    0    0  0.00000000000E+00  0.35527136788E-14  0.33537903704E+04  0.33770468699E+04  0.39564594402E+03 0.  0.
      99925    2    3    3    0    0  0.30000615772E+02 -0.18744638288E+02  0.22996520670E+04  0.23149233041E+04  0.26309480398E+03 0.  0.
         25    1    4    4    0    0  0.13778175642E+02  0.16812777806E+02  0.86045843854E+03  0.86977510897E+03  0.12509000000E+03 0.  0.
         25    1    4    4    0    0  0.16222440130E+02 -0.35557416094E+02  0.14391936285E+04  0.14451481951E+04  0.12509000000E+03 0.  0.
         25    1    3    3    0    0 -0.30000615772E+02  0.18744638288E+02  0.10541383033E+04  0.10621235658E+04  0.12509000000E+03 0.  0.
<mgrwt>
<rscale>  2 0.39564594E+03</rscale>
<asrwt>0</asrwt>
<pdfrwt beam="1">  1       21 0.49491383E+00 0.39564594E+03</pdfrwt>
<pdfrwt beam="2">  1       21 0.17100391E-02 0.39564594E+03</pdfrwt>
<totfact> 0.26756560E+03</totfact>
</mgrwt>
</event>
<event>
 7    0  0.4766352E-002  0.4433436E+03  0.7546771E-02  0.1029726E+00
         21   -1    0    0  502  501  0.00000000000E+00  0.00000000000E+00  0.64957092183E+03  0.64957092183E+03  0.00000000000E+00 0.  1.
         21   -1    0    0  501  502 -0.00000000000E+00 -0.00000000000E+00 -0.75647450859E+02  0.75647450859E+02  0.00000000000E+00 0.  1.
      99926    2    1    2    0    0  0.00000000000E+00  0.00000000000E+00  0.57392347097E+03  0.72521837269E+03  0.44334358860E+03 0.  0.
      99925    2    3    3    0    0  0.47306255898E+02  0.51556702948E+02  0.48612145908E+03  0.55713304657E+03  0.26303456642E+03 0.  0.
         25    1    4    4    0    0 -0.52531118737E+01  0.24828801007E+02  0.29308799609E+03  0.31967506330E+03  0.12509000000E+03 0.  0.
         25    1    3    3    0    0 -0.47306255898E+02 -0.51556702948E+02  0.87802011891E+02  0.16808532612E+03  0.12509000000E+03 0.  0.
         25    1    4    4    0    0  0.52559367772E+02  0.26727901942E+02  0.19303346299E+03  0.23745798326E+03  0.12509000000E+03 0.  0.
<mgrwt>
<rscale>  2 0.44334359E+03</rscale>
<asrwt>0</asrwt>
<pdfrwt beam="1">  1       21 0.95525133E-01 0.44334359E+03</pdfrwt>
<pdfrwt beam="2">  1       21 0.11124625E-01 0.44334359E+03</pdfrwt>
<totfact> 0.56564820E+04</totfact>
</mgrwt>
</event>
<event>
 7    0  0.4766352E-002  0.4714929E+03  0.7546771E-02  0.1021500E+00
         21   -1    0    0  502  501  0.00000000000E+00  0.00000000000E+00  0.83869177794E+02  0.83869177794E+02  0.00000000000E+00 0. -1.
         21   -1    0    0  501  502 -0.00000000000E+00 -0.00000000000E+00 -0.66265567727E+03  0.66265567727E+03  0.00000000000E+00 0. -1.
      99926    2    1    2    0    0  0.00000000000E+00  0.00000000000E+00 -0.57878649948E+03  0.74652485507E+03  0.47149289205E+03 0.  0.
      99925    2    3    3    0    0 -0.56532930424E+02 -0.10426397828E+03 -0.28215641783E+03  0.40344488942E+03  0.26284707586E+03 0.  0.
         25    1    4    4    0    0 -0.29716708414E+02 -0.45326632130E+02 -0.83320108577E+02  0.15977276030E+03  0.12509000000E+03 0.  0.
         25    1    3    3    0    0  0.56532930424E+02  0.10426397828E+03 -0.29663008165E+03  0.34307996565E+03  0.12509000000E+03 0.  0.
         25    1    4    4    0    0 -0.26816222009E+02 -0.58937346153E+02 -0.19883630925E+03  0.24367212912E+03  0.12509000000E+03 0.  0.
<mgrwt>
<rscale>  2 0.47149289E+03</rscale>
<asrwt>0</asrwt>
<pdfrwt beam="1">  1       21 0.12333703E-01 0.47149289E+03</pdfrwt>
<pdfrwt beam="2">  1       21 0.97449365E-01 0.47149289E+03</pdfrwt>
<totfact> 0.44405663E+04</totfact>
</mgrwt>
</event>
<event>
 7    0  0.4766352E-002  0.4612872E+03  0.7546771E-02  0.1024409E+00
         21   -1    0    0  502  501  0.00000000000E+00  0.00000000000E+00  0.31369284646E+03  0.31369284646E+03  0.00000000000E+00 0. -1.
         21   -1    0    0  501  502 -0.00000000000E+00 -0.00000000000E+00 -0.16958139102E+03  0.16958139102E+03  0.00000000000E+00 0. -1.
      99926    2    1    2    0    0  0.17763568394E-14  0.00000000000E+00  0.14411145544E+03  0.48327423748E+03  0.46128719581E+03 0.  0.
      99925    2    3    3    0    0 -0.11543138840E+02 -0.95497624041E+02  0.16405563593E+03  0.32421978552E+03  0.26258556204E+03 0.  0.
         25    1    4    4    0    0  0.34016634429E+02 -0.47499114372E+02  0.77328423559E+02  0.15824187333E+03  0.12509000000E+03 0.  0.
         25    1    3    3    0    0  0.11543138840E+02  0.95497624041E+02 -0.19944180488E+02  0.15905445196E+03  0.12509000000E+03 0.  0.
         25    1    4    4    0    0 -0.45559773270E+02 -0.47998509669E+02  0.86727212366E+02  0.16597791219E+03  0.12509000000E+03 0.  0.
<mgrwt>
<rscale>  2 0.46128720E+03</rscale>
<asrwt>0</asrwt>
<pdfrwt beam="1">  1       21 0.46131301E-01 0.46128720E+03</pdfrwt>
<pdfrwt beam="2">  1       21 0.24938440E-01 0.46128720E+03</pdfrwt>
<totfact> 0.63246861E+04</totfact>
</mgrwt>
</event>
<event>
 7    0  0.4766352E-002  0.4560759E+03  0.7546771E-02  0.1025925E+00
         21   -1    0    0  502  501  0.00000000000E+00  0.00000000000E+00  0.67556323710E+03  0.67556323710E+03  0.00000000000E+00 0. -1.
         21   -1    0    0  501  502 -0.00000000000E+00 -0.00000000000E+00 -0.76974736367E+02  0.76974736367E+02  0.00000000000E+00 0. -1.
      99926    2    1    2    0    0  0.00000000000E+00  0.71054273576E-14  0.59858850073E+03  0.75253797346E+03  0.45607587998E+03 0.  0.
      99925    2    3    3    0    0  0.96342135411E+02  0.51191098721E+02  0.32112352967E+03  0.42921668757E+03  0.26306711680E+03 0.  0.
         25    1    4    4    0    0  0.33830749589E+02  0.61033802799E+02  0.14126302545E+03  0.20117752151E+03  0.12509000000E+03 0.  0.
         25    1    3    3    0    0 -0.96342135411E+02 -0.51191098721E+02  0.27746497106E+03  0.32332128589E+03  0.12509000000E+03 0.  0.
         25    1    4    4    0    0  0.62511385821E+02 -0.98427040776E+01  0.17986050422E+03  0.22803916606E+03  0.12509000000E+03 0.  0.
<mgrwt>
<rscale>  2 0.45607588E+03</rscale>
<asrwt>0</asrwt>
<pdfrwt beam="1">  1       21 0.99347532E-01 0.45607588E+03</pdfrwt>
<pdfrwt beam="2">  1       21 0.11319815E-01 0.45607588E+03</pdfrwt>
<totfact> 0.49719857E+04</totfact>
</mgrwt>
</event>
<event>
 7    0  0.4766352E-002  0.4464470E+03  0.7546771E-02  0.1028787E+00
         21   -1    0    0  502  501  0.00000000000E+00  0.00000000000E+00  0.41126474536E+03  0.41126474536E+03  0.00000000000E+00 0. -1.
         21   -1    0    0  501  502 -0.00000000000E+00 -0.00000000000E+00 -0.12115974591E+03  0.12115974591E+03  0.00000000000E+00 0. -1.
      99926    2    1    2    0    0  0.00000000000E+00 -0.35527136788E-14  0.29010499945E+03  0.53242449127E+03  0.44644700491E+03 0.  0.
      99925    2    3    3    0    0 -0.95045517579E+02 -0.21427677137E+02  0.13731814999E+03  0.31223338058E+03  0.26294602844E+03 0.  0.
         25    1    4    4    0    0 -0.30488031116E+02 -0.17953249530E+00  0.10527040360E+03  0.16630970581E+03  0.12509000000E+03 0.  0.
         25    1    3    3    0    0  0.95045517579E+02  0.21427677137E+02  0.15278684946E+03  0.22019111069E+03  0.12509000000E+03 0.  0.
         25    1    4    4    0    0 -0.64557486464E+02 -0.21248144642E+02  0.32047746397E+02  0.14592367477E+03  0.12509000000E+03 0.  0.
<mgrwt>
<rscale>  2 0.44644700E+03</rscale>
<asrwt>0</asrwt>
<pdfrwt beam="1">  1       21 0.60480109E-01 0.44644700E+03</pdfrwt>
<pdfrwt beam="2">  1       21 0.17817610E-01 0.44644700E+03</pdfrwt>
<totfact> 0.67497914E+04</totfact>
</mgrwt>
</event>
<event>
 7    0  0.4766352E-002  0.4431656E+03  0.7546771E-02  0.1029780E+00
         21   -1    0    0  502  501  0.00000000000E+00  0.00000000000E+00  0.42565454129E+03  0.42565454129E+03  0.00000000000E+00 0. -1.
         21   -1    0    0  501  502 -0.00000000000E+00 -0.00000000000E+00 -0.11534927391E+03  0.11534927391E+03  0.00000000000E+00 0. -1.
      99926    2    1    2    0    0 -0.23089169465E-14  0.00000000000E+00  0.31030526738E+03  0.54100381520E+03  0.44316562265E+03 0.  0.
      99925    2    3    3    0    0  0.59838641515E-02  0.78927019341E+02  0.11899523553E+03  0.29918464557E+03  0.26291084353E+03 0.  0.
         25    1    3    3    0    0 -0.59838641515E-02 -0.78927019341E+02  0.19131003185E+03  0.24181916964E+03  0.12509000000E+03 0.  0.
         25    1    4    4    0    0  0.17333617377E+02  0.10742300175E+02  0.29761026847E+02  0.13018862517E+03  0.12509000000E+03 0.  0.
         25    1    4    4    0    0 -0.17327633512E+02  0.68184719166E+02  0.89234208684E+02  0.16899602040E+03  0.12509000000E+03 0.  0.
<mgrwt>
<rscale>  2 0.44316562E+03</rscale>
<asrwt>0</asrwt>
<pdfrwt beam="1">  1       21 0.62596255E-01 0.44316562E+03</pdfrwt>
<pdfrwt beam="2">  1       21 0.16963129E-01 0.44316562E+03</pdfrwt>
<totfact> 0.68673963E+04</totfact>
</mgrwt>
</event>
<event>
 7    0  0.4766352E-002  0.4377543E+03  0.7546771E-02  0.1031438E+00
         21   -1    0    0  502  501  0.00000000000E+00  0.00000000000E+00  0.59068945347E+03  0.59068945347E+03  0.00000000000E+00 0. -1.
         21   -1    0    0  501  502 -0.00000000000E+00 -0.00000000000E+00 -0.81103870675E+02  0.81103870675E+02  0.00000000000E+00 0. -1.
      99926    2    1    2    0    0  0.00000000000E+00  0.00000000000E+00  0.50958558280E+03  0.67179332415E+03  0.43775427374E+03 0.  0.
      99925    2    3    3    0    0 -0.29505942148E+02  0.76168953208E+02  0.24820604899E+03  0.37073007690E+03  0.26298714247E+03 0.  0.
         25    1    4    4    0    0 -0.34040975150E+02  0.55266054859E+02  0.87204682352E+02  0.16572655048E+03  0.12509000000E+03 0.  0.
         25    1    4    4    0    0  0.45350330015E+01  0.20902898349E+02  0.16100136664E+03  0.20500352642E+03  0.12509000000E+03 0.  0.
         25    1    3    3    0    0  0.29505942148E+02 -0.76168953208E+02  0.26137953380E+03  0.30106324725E+03  0.12509000000E+03 0.  0.
<mgrwt>
<rscale>  2 0.43775427E+03</rscale>
<asrwt>0</asrwt>
<pdfrwt beam="1">  1       21 0.86866094E-01 0.43775427E+03</pdfrwt>
<pdfrwt beam="2">  1       21 0.11927040E-01 0.43775427E+03</pdfrwt>
<totfact> 0.62532434E+04</totfact>
</mgrwt>
</event>
<event>
 7    0  0.4766352E-002  0.4850050E+03  0.7546771E-02  0.1017769E+00
         21   -1    0    0  502  501  0.00000000000E+00  0.00000000000E+00  0.15173559052E+03  0.15173559052E+03  0.00000000000E+00 0. -1.
         21   -1    0    0  501  502 -0.00000000000E+00 -0.00000000000E+00 -0.38756545210E+03  0.38756545210E+03  0.00000000000E+00 0. -1.
      99926    2    1    2    0    0  0.00000000000E+00  0.00000000000E+00 -0.23582986158E+03  0.53930104261E+03  0.48500504219E+03 0.  0.
      99925    2    3    3    0    0  0.97427512360E+02  0.65608949023E+02 -0.61150437264E+02  0.29443972731E+03  0.26298046065E+03 0.  0.
         25    1    4    4    0    0  0.21229537288E+02  0.54467153464E+01 -0.73634898634E+01  0.12720884028E+03  0.12509000000E+03 0.  0.
         25    1    3    3    0    0 -0.97427512360E+02 -0.65608949023E+02 -0.17467942431E+03  0.24486131531E+03  0.12509000000E+03 0.  0.
         25    1    4    4    0    0  0.76197975072E+02  0.60162233677E+02 -0.53786947401E+02  0.16723088703E+03  0.12509000000E+03 0.  0.
<mgrwt>
<rscale>  2 0.48500504E+03</rscale>
<asrwt>0</asrwt>
<pdfrwt beam="1">  1       21 0.22314058E-01 0.48500504E+03</pdfrwt>
<pdfrwt beam="2">  1       21 0.56994917E-01 0.48500504E+03</pdfrwt>
<totfact> 0.49671169E+04</totfact>
</mgrwt>
</event>
<event>
 7    0  0.4766352E-002  0.4526445E+03  0.7546771E-02  0.1026936E+00
         21   -1    0    0  502  501  0.00000000000E+00  0.00000000000E+00  0.15617617336E+03  0.15617617336E+03  0.00000000000E+00 0. -1.
         21   -1    0    0  501  502 -0.00000000000E+00 -0.00000000000E+00 -0.32797428944E+03  0.32797428944E+03  0.00000000000E+00 0. -1.
      99926    2    1    2    0    0  0.35527136788E-14  0.00000000000E+00 -0.17179811608E+03  0.48415046280E+03  0.45264453818E+03 0.  0.
      99925    2    3    3    0    0  0.26625304381E+02  0.65248851008E+02 -0.16516807988E+02  0.27266497362E+03  0.26288222363E+03 0.  0.
         25    1    4    4    0    0 -0.14950061891E+02  0.38367642656E+01  0.21025965187E+01  0.12605615464E+03  0.12509000000E+03 0.  0.
         25    1    4    4    0    0  0.41575366272E+02  0.61412086742E+02 -0.18619404507E+02  0.14660881898E+03  0.12509000000E+03 0.  0.
         25    1    3    3    0    0 -0.26625304381E+02 -0.65248851008E+02 -0.15528130809E+03  0.21148548918E+03  0.12509000000E+03 0.  0.
<mgrwt>
<rscale>  2 0.45264454E+03</rscale>
<asrwt>0</asrwt>
<pdfrwt beam="1">  1       21 0.22967085E-01 0.45264454E+03</pdfrwt>
<pdfrwt beam="2">  1       21 0.48231512E-01 0.45264454E+03</pdfrwt>
<totfact> 0.67655442E+04</totfact>
</mgrwt>
</event>
<event>
 7    0  0.4766352E-002  0.4454610E+03  0.7546771E-02  0.1029084E+00
         21   -1    0    0  502  501  0.00000000000E+00  0.00000000000E+00  0.12483955838E+03  0.12483955838E+03  0.00000000000E+00 0.  1.
         21   -1    0    0  501  502 -0.00000000000E+00 -0.00000000000E+00 -0.39738101185E+03  0.39738101185E+03  0.00000000000E+00 0.  1.
      99926    2    1    2    0    0 -0.17763568394E-14  0.00000000000E+00 -0.27254145347E+03  0.52222057023E+03  0.44546097485E+03 0.  0.
      99925    2    3    3    0    0  0.90912167162E+01  0.69458511866E+02 -0.82927713504E+02  0.28450642766E+03  0.26298244547E+03 0.  0.
         25    1    4    4    0    0  0.28285725011E+02  0.45769121294E+02 -0.10005468374E+02  0.13653758530E+03  0.12509000000E+03 0.  0.
         25    1    3    3    0    0 -0.90912167162E+01 -0.69458511866E+02 -0.18961373997E+03  0.23771414257E+03  0.12509000000E+03 0.  0.
         25    1    4    4    0    0 -0.19194508295E+02  0.23689390573E+02 -0.72922245130E+02  0.14796884236E+03  0.12509000000E+03 0.  0.
<mgrwt>
<rscale>  2 0.44546097E+03</rscale>
<asrwt>0</asrwt>
<pdfrwt beam="1">  1       21 0.18358759E-01 0.44546097E+03</pdfrwt>
<pdfrwt beam="2">  1       21 0.58438383E-01 0.44546097E+03</pdfrwt>
<totfact> 0.68790344E+04</totfact>
</mgrwt>
</event>
<event>
 7    0  0.4766352E-002  0.4555162E+03  0.7546771E-02  0.1026090E+00
         21   -1    0    0  502  501  0.00000000000E+00  0.00000000000E+00  0.83585634634E+03  0.83585634634E+03  0.00000000000E+00 0.  1.
         21   -1    0    0  501  502 -0.00000000000E+00 -0.00000000000E+00 -0.62060604239E+02  0.62060604239E+02  0.00000000000E+00 0.  1.
      99926    2    1    2    0    0  0.00000000000E+00  0.00000000000E+00  0.77379574210E+03  0.89791695058E+03  0.45551619032E+03 0.  0.
      99925    2    3    3    0    0 -0.52034485283E+02  0.67331985808E+02  0.33630591065E+03  0.43500654381E+03  0.26246493794E+03 0.  0.
         25    1    4    4    0    0  0.72457841184E+01  0.34145306477E+02  0.19610332196E+03  0.23520719446E+03  0.12509000000E+03 0.  0.
         25    1    4    4    0    0 -0.59280269401E+02  0.33186679331E+02  0.14020258869E+03  0.19979934935E+03  0.12509000000E+03 0.  0.
         25    1    3    3    0    0  0.52034485283E+02 -0.67331985808E+02  0.43748983145E+03  0.46291040677E+03  0.12509000000E+03 0.  0.
<mgrwt>
<rscale>  2 0.45551619E+03</rscale>
<asrwt>0</asrwt>
<pdfrwt beam="1">  1       21 0.12292004E+00 0.45551619E+03</pdfrwt>
<pdfrwt beam="2">  1       21 0.91265600E-02 0.45551619E+03</pdfrwt>
<totfact> 0.43149214E+04</totfact>
</mgrwt>
</event>
<event>
 7    0  0.4766352E-002  0.4582306E+03  0.7546771E-02  0.1025296E+00
         21   -1    0    0  502  501  0.00000000000E+00  0.00000000000E+00  0.10013561670E+04  0.10013561670E+04  0.00000000000E+00 0. -1.
         21   -1    0    0  501  502 -0.00000000000E+00 -0.00000000000E+00 -0.52422724233E+02  0.52422724233E+02  0.00000000000E+00 0. -1.
      99926    2    1    2    0    0 -0.71054273576E-14  0.00000000000E+00  0.94893344276E+03  0.10537788912E+04  0.45823058912E+03 0.  0.
      99925    2    3    3    0    0  0.60681829497E+02 -0.68162658680E+02  0.76099138654E+03  0.81026676203E+03  0.26286099520E+03 0.  0.
         25    1    4    4    0    0  0.93272787894E+01 -0.10699872828E+02  0.27284244615E+03  0.30048626247E+03  0.12509000000E+03 0.  0.
         25    1    4    4    0    0  0.51354550708E+02 -0.57462785852E+02  0.48814894038E+03  0.50978049956E+03  0.12509000000E+03 0.  0.
         25    1    3    3    0    0 -0.60681829497E+02  0.68162658680E+02  0.18794205623E+03  0.24351212920E+03  0.12509000000E+03 0.  0.
<mgrwt>
<rscale>  2 0.45823059E+03</rscale>
<asrwt>0</asrwt>
<pdfrwt beam="1">  1       21 0.14725825E+00 0.45823059E+03</pdfrwt>
<pdfrwt beam="2">  1       21 0.77092247E-02 0.45823059E+03</pdfrwt>
<totfact> 0.36217177E+04</totfact>
</mgrwt>
</event>
<event>
 7    0  0.4766352E-002  0.4692104E+03  0.7546771E-02  0.1022143E+00
         21   -1    0    0  502  501  0.00000000000E+00  0.00000000000E+00  0.71510579704E+02  0.71510579704E+02  0.00000000000E+00 0. -1.
         21   -1    0    0  501  502 -0.00000000000E+00 -0.00000000000E+00 -0.76967079606E+03  0.76967079606E+03  0.00000000000E+00 0. -1.
      99926    2    1    2    0    0 -0.88817841970E-15  0.00000000000E+00 -0.69816021635E+03  0.84118137576E+03  0.46921042106E+03 0.  0.
      99925    2    3    3    0    0 -0.23303335919E+01 -0.68426938876E+02 -0.24426554633E+03  0.36541299094E+03  0.26300821357E+03 0.  0.
         25    1    4    4    0    0  0.79136310294E+01 -0.33402190755E+01 -0.80224810844E+02  0.14885332040E+03  0.12509000000E+03 0.  0.
         25    1    4    4    0    0 -0.10243964621E+02 -0.65086719801E+02 -0.16404073548E+03  0.21655967054E+03  0.12509000000E+03 0.  0.
         25    1    3    3    0    0  0.23303335919E+01  0.68426938876E+02 -0.45389467003E+03  0.47576838482E+03  0.12509000000E+03 0.  0.
<mgrwt>
<rscale>  2 0.46921042E+03</rscale>
<asrwt>0</asrwt>
<pdfrwt beam="1">  1       21 0.10516262E-01 0.46921042E+03</pdfrwt>
<pdfrwt beam="2">  1       21 0.11318688E+00 0.46921042E+03</pdfrwt>
<totfact> 0.41063369E+04</totfact>
</mgrwt>
</event>
<event>
 7    0  0.4766352E-002  0.4523515E+03  0.7546771E-02  0.1027023E+00
         21   -1    0    0  502  501  0.00000000000E+00  0.00000000000E+00  0.88115044919E+02  0.88115044919E+02  0.00000000000E+00 0. -1.
         21   -1    0    0  501  502 -0.00000000000E+00 -0.00000000000E+00 -0.58055315961E+03  0.58055315961E+03  0.00000000000E+00 0. -1.
      99926    2    1    2    0    0 -0.35527136788E-14  0.00000000000E+00 -0.49243811469E+03  0.66866820453E+03  0.45235149049E+03 0.  0.
      99925    2    3    3    0    0 -0.31553254170E+02 -0.86757091451E+01 -0.15480207441E+03  0.30712086382E+03  0.26322740544E+03 0.  0.
         25    1    4    4    0    0 -0.50065406777E+02 -0.22019849813E+01 -0.53581519523E+02  0.14501683015E+03  0.12509000000E+03 0.  0.
         25    1    4    4    0    0  0.18512152607E+02 -0.64737241638E+01 -0.10122055489E+03  0.16210403366E+03  0.12509000000E+03 0.  0.
         25    1    3    3    0    0  0.31553254170E+02  0.86757091451E+01 -0.33763604029E+03  0.36154734071E+03  0.12509000000E+03 0.  0.
<mgrwt>
<rscale>  2 0.45235149E+03</rscale>
<asrwt>0</asrwt>
<pdfrwt beam="1">  1       21 0.12958095E-01 0.45235149E+03</pdfrwt>
<pdfrwt beam="2">  1       21 0.85375462E-01 0.45235149E+03</pdfrwt>
<totfact> 0.55793094E+04</totfact>
</mgrwt>
</event>
<event>
 7    0  0.4766352E-002  0.4512995E+03  0.7546771E-02  0.1027335E+00
         21   -1    0    0  502  501  0.00000000000E+00  0.00000000000E+00  0.97392435438E+02  0.97392435438E+02  0.00000000000E+00 0. -1.
         21   -1    0    0  501  502 -0.00000000000E+00 -0.00000000000E+00 -0.52281071701E+03  0.52281071701E+03  0.00000000000E+00 0. -1.
      99926    2    1    2    0    0 -0.71054273576E-14  0.00000000000E+00 -0.42541828157E+03  0.62020315245E+03  0.45129949702E+03 0.  0.
      99925    2    3    3    0    0  0.44145186609E+02  0.43733385277E+02 -0.14451457299E+03  0.30649021347E+03  0.26304064830E+03 0.  0.
         25    1    4    4    0    0  0.12182326002E+02 -0.16394857640E+02 -0.81937439092E+02  0.15092532077E+03  0.12509000000E+03 0.  0.
         25    1    3    3    0    0 -0.44145186609E+02 -0.43733385277E+02 -0.28090370858E+03  0.31371293898E+03  0.12509000000E+03 0.  0.
         25    1    4    4    0    0  0.31962860607E+02  0.60128242917E+02 -0.62577133901E+02  0.15556489270E+03  0.12509000000E+03 0.  0.
<mgrwt>
<rscale>  2 0.45129950E+03</rscale>
<asrwt>0</asrwt>
<pdfrwt beam="1">  1       21 0.14322417E-01 0.45129950E+03</pdfrwt>
<pdfrwt beam="2">  1       21 0.76883930E-01 0.45129950E+03</pdfrwt>
<totfact> 0.59161485E+04</totfact>
</mgrwt>
</event>
<event>
 7    0  0.4766352E-002  0.4564278E+03  0.7546771E-02  0.1025822E+00
         21   -1    0    0  502  501  0.00000000000E+00  0.00000000000E+00  0.15961572735E+04  0.15961572735E+04  0.00000000000E+00 0.  1.
         21   -1    0    0  501  502 -0.00000000000E+00 -0.00000000000E+00 -0.32629354760E+02  0.32629354760E+02  0.00000000000E+00 0.  1.
      99926    2    1    2    0    0  0.71054273576E-14  0.00000000000E+00  0.15635279187E+04  0.16287866282E+04  0.45642779025E+03 0.  0.
      99925    2    3    3    0    0 -0.51005820937E+02 -0.10239957074E+03  0.96471541912E+03  0.10064433278E+04  0.26299252133E+03 0.  0.
         25    1    4    4    0    0 -0.33464167186E+02 -0.81341987688E+02  0.62381943429E+03  0.64228853652E+03  0.12509000000E+03 0.  0.
         25    1    3    3    0    0  0.51005820937E+02  0.10239957074E+03  0.59881249958E+03  0.62234330045E+03  0.12509000000E+03 0.  0.
         25    1    4    4    0    0 -0.17541653751E+02 -0.21057583053E+02  0.34089598483E+03  0.36415479126E+03  0.12509000000E+03 0.  0.
<mgrwt>
<rscale>  2 0.45642779E+03</rscale>
<asrwt>0</asrwt>
<pdfrwt beam="1">  1       21 0.23472896E+00 0.45642779E+03</pdfrwt>
<pdfrwt beam="2">  1       21 0.47984356E-02 0.45642779E+03</pdfrwt>
<totfact> 0.20558164E+04</totfact>
</mgrwt>
</event>
<event>
 7    0  0.4766352E-002  0.4477915E+03  0.7546771E-02  0.1028383E+00
         21   -1    0    0  502  501  0.00000000000E+00  0.00000000000E+00  0.23552684646E+03  0.23552684646E+03  0.00000000000E+00 0.  1.
         21   -1    0    0  501  502 -0.00000000000E+00 -0.00000000000E+00 -0.21283902608E+03  0.21283902608E+03  0.00000000000E+00 0.  1.
      99926    2    1    2    0    0 -0.71054273576E-14  0.71054273576E-14  0.22687820384E+02  0.44836587254E+03  0.44779148994E+03 0.  0.
      99925    2    3    3    0    0  0.52791241147E+02 -0.56604030294E+02  0.87906239056E+02  0.28745632769E+03  0.26251228939E+03 0.  0.
         25    1    3    3    0    0 -0.52791241147E+02  0.56604030294E+02 -0.65218418672E+02  0.16090954484E+03  0.12509000000E+03 0.  0.
         25    1    4    4    0    0  0.74922357706E+00 -0.45206311511E+02  0.16930953038E+02  0.13408332188E+03  0.12509000000E+03 0.  0.
         25    1    4    4    0    0  0.52042017570E+02 -0.11397718783E+02  0.70975286019E+02  0.15337300581E+03  0.12509000000E+03 0.  0.
<mgrwt>
<rscale>  2 0.44779149E+03</rscale>
<asrwt>0</asrwt>
<pdfrwt beam="1">  1       21 0.34636301E-01 0.44779149E+03</pdfrwt>
<pdfrwt beam="2">  1       21 0.31299857E-01 0.44779149E+03</pdfrwt>
<totfact> 0.73152321E+04</totfact>
</mgrwt>
</event>
<event>
 7    0  0.4766352E-002  0.4587272E+03  0.7546771E-02  0.1025151E+00
         21   -1    0    0  502  501  0.00000000000E+00  0.00000000000E+00  0.51968255373E+03  0.51968255373E+03  0.00000000000E+00 0.  1.
         21   -1    0    0  501  502 -0.00000000000E+00 -0.00000000000E+00 -0.10123038000E+03  0.10123038000E+03  0.00000000000E+00 0.  1.
      99926    2    1    2    0    0  0.14210854715E-13  0.00000000000E+00  0.41845217373E+03  0.62091293373E+03  0.45872720605E+03 0.  0.
      99925    2    3    3    0    0 -0.11206573312E+03  0.25279682787E+02  0.23634170931E+03  0.37189582537E+03  0.26315643725E+03 0.  0.
         25    1    4    4    0    0 -0.26544365863E+02  0.37304132714E+02  0.89022573240E+02  0.16021463205E+03  0.12509000000E+03 0.  0.
         25    1    4    4    0    0 -0.85521367258E+02 -0.12024449927E+02  0.14731913607E+03  0.21168119332E+03  0.12509000000E+03 0.  0.
         25    1    3    3    0    0  0.11206573312E+03 -0.25279682787E+02  0.18211046442E+03  0.24901710835E+03  0.12509000000E+03 0.  0.
<mgrwt>
<rscale>  2 0.45872721E+03</rscale>
<asrwt>0</asrwt>
<pdfrwt beam="1">  1       21 0.76423904E-01 0.45872721E+03</pdfrwt>
<pdfrwt beam="2">  1       21 0.14886821E-01 0.45872721E+03</pdfrwt>
<totfact> 0.55750103E+04</totfact>
</mgrwt>
</event>
<event>
 7    0  0.4766352E-002  0.4542105E+03  0.7546771E-02  0.1026474E+00
         21   -1    0    0  502  501  0.00000000000E+00  0.00000000000E+00  0.13943953738E+03  0.13943953738E+03  0.00000000000E+00 0.  1.
         21   -1    0    0  501  502 -0.00000000000E+00 -0.00000000000E+00 -0.36988647977E+03  0.36988647977E+03  0.00000000000E+00 0.  1.
      99926    2    1    2    0    0  0.00000000000E+00  0.00000000000E+00 -0.23044694239E+03  0.50932601715E+03  0.45421052221E+03 0.  0.
      99925    2    3    3    0    0 -0.94614758538E+02 -0.17588554302E+02 -0.79979047987E+02  0.29126775631E+03  0.26301891182E+03 0.  0.
         25    1    4    4    0    0 -0.48558875589E+02  0.12985014345E+02 -0.41133544782E+01  0.13487402560E+03  0.12509000000E+03 0.  0.
         25    1    3    3    0    0  0.94614758538E+02  0.17588554302E+02 -0.15046789440E+03  0.21805826084E+03  0.12509000000E+03 0.  0.
         25    1    4    4    0    0 -0.46055882949E+02 -0.30573568647E+02 -0.75865693509E+02  0.15639373071E+03  0.12509000000E+03 0.  0.
<mgrwt>
<rscale>  2 0.45421052E+03</rscale>
<asrwt>0</asrwt>
<pdfrwt beam="1">  1       21 0.20505815E-01 0.45421052E+03</pdfrwt>
<pdfrwt beam="2">  1       21 0.54395069E-01 0.45421052E+03</pdfrwt>
<totfact> 0.65026797E+04</totfact>
</mgrwt>
</event>
<event>
 7    0  0.4766352E-002  0.4714986E+03  0.7546771E-02  0.1021498E+00
         21   -1    0    0  502  501  0.00000000000E+00  0.00000000000E+00  0.77564962504E+02  0.77564962504E+02  0.00000000000E+00 0.  1.
         21   -1    0    0  501  502 -0.00000000000E+00 -0.00000000000E+00 -0.71653149783E+03  0.71653149783E+03  0.00000000000E+00 0.  1.
      99926    2    1    2    0    0  0.00000000000E+00  0.00000000000E+00 -0.63896653533E+03  0.79409646034E+03  0.47149862677E+03 0.  0.
      99925    2    3    3    0    0  0.40882450425E+02 -0.54163917142E+02 -0.21352565441E+03  0.34548465050E+03  0.26298542538E+03 0.  0.
         25    1    4    4    0    0  0.58451067472E+02 -0.12735475582E+02 -0.10985283815E+03  0.17690074555E+03  0.12509000000E+03 0.  0.
         25    1    3    3    0    0 -0.40882450425E+02  0.54163917142E+02 -0.42544088092E+03  0.44861180984E+03  0.12509000000E+03 0.  0.
         25    1    4    4    0    0 -0.17568617047E+02 -0.41428441560E+02 -0.10367281626E+03  0.16858390495E+03  0.12509000000E+03 0.  0.
<mgrwt>
<rscale>  2 0.47149863E+03</rscale>
<asrwt>0</asrwt>
<pdfrwt beam="1">  1       21 0.11406612E-01 0.47149863E+03</pdfrwt>
<pdfrwt beam="2">  1       21 0.10537228E+00 0.47149863E+03</pdfrwt>
<totfact> 0.42302474E+04</totfact>
</mgrwt>
</event>
<event>
 7    0  0.4766352E-002  0.4645716E+03  0.7546771E-02  0.1023464E+00
         21   -1    0    0  502  501  0.00000000000E+00  0.00000000000E+00  0.22871209343E+03  0.22871209343E+03  0.00000000000E+00 0. -1.
         21   -1    0    0  501  502 -0.00000000000E+00 -0.00000000000E+00 -0.23591532796E+03  0.23591532796E+03  0.00000000000E+00 0. -1.
      99926    2    1    2    0    0  0.00000000000E+00  0.71054273576E-14 -0.72032345207E+01  0.46462742139E+03  0.46457158127E+03 0.  0.
      99925    2    3    3    0    0 -0.18609344319E+02 -0.55930440014E+02  0.10229053731E+03  0.28824455378E+03  0.26295826084E+03 0.  0.
         25    1    3    3    0    0  0.18609344319E+02  0.55930440014E+02 -0.10949377183E+03  0.17638286761E+03  0.12509000000E+03 0.  0.
         25    1    4    4    0    0  0.40085445040E+01  0.91904655439E+01  0.61226922735E+02  0.13963086068E+03  0.12509000000E+03 0.  0.
         25    1    4    4    0    0 -0.22617888823E+02 -0.65120905558E+02  0.41063614577E+02  0.14861369310E+03  0.12509000000E+03 0.  0.
<mgrwt>
<rscale>  2 0.46457158E+03</rscale>
<asrwt>0</asrwt>
<pdfrwt beam="1">  1       21 0.33634131E-01 0.46457158E+03</pdfrwt>
<pdfrwt beam="2">  1       21 0.34693431E-01 0.46457158E+03</pdfrwt>
<totfact> 0.62903166E+04</totfact>
</mgrwt>
</event>
<event>
 7    0  0.4766352E-002  0.4551599E+03  0.7546771E-02  0.1026194E+00
         21   -1    0    0  502  501  0.00000000000E+00  0.00000000000E+00  0.44836604015E+03  0.44836604015E+03  0.00000000000E+00 0.  1.
         21   -1    0    0  501  502 -0.00000000000E+00 -0.00000000000E+00 -0.11551417110E+03  0.11551417110E+03  0.00000000000E+00 0.  1.
      99926    2    1    2    0    0  0.00000000000E+00  0.71054273576E-14  0.33285186905E+03  0.56388021125E+03  0.45515989049E+03 0.  0.
      99925    2    3    3    0    0  0.95581298915E+02  0.55587988741E+02  0.17896519235E+03  0.33682421252E+03  0.26305170760E+03 0.  0.
         25    1    4    4    0    0  0.23806931644E+02  0.56377984181E+01  0.49670781866E+02  0.13679637947E+03  0.12509000000E+03 0.  0.
         25    1    4    4    0    0  0.71774367271E+02  0.49950190323E+02  0.12929441049E+03  0.20002783305E+03  0.12509000000E+03 0.  0.
         25    1    3    3    0    0 -0.95581298915E+02 -0.55587988741E+02  0.15388667670E+03  0.22705599873E+03  0.12509000000E+03 0.  0.
<mgrwt>
<rscale>  2 0.45515989E+03</rscale>
<asrwt>0</asrwt>
<pdfrwt beam="1">  1       21 0.65936182E-01 0.45515989E+03</pdfrwt>
<pdfrwt beam="2">  1       21 0.16987378E-01 0.45515989E+03</pdfrwt>
<totfact> 0.60881482E+04</totfact>
</mgrwt>
</event>
<event>
 7    0  0.4766352E-002  0.4539999E+03  0.7546771E-02  0.1026536E+00
         21   -1    0    0  502  501  0.00000000000E+00  0.00000000000E+00  0.10938973120E+03  0.10938973120E+03  0.00000000000E+00 0.  1.
         21   -1    0    0  501  502 -0.00000000000E+00 -0.00000000000E+00 -0.47105858245E+03  0.47105858245E+03  0.00000000000E+00 0.  1.
      99926    2    1    2    0    0 -0.14210854715E-13  0.00000000000E+00 -0.36166885125E+03  0.58044831364E+03  0.45399987538E+03 0.  0.
      99925    2    3    3    0    0  0.71690977788E+02  0.65982355538E+02 -0.29908222016E+03  0.40998464588E+03  0.26295240614E+03 0.  0.
         25    1    3    3    0    0 -0.71690977788E+02 -0.65982355538E+02 -0.62586631083E+02  0.17046366777E+03  0.12509000000E+03 0.  0.
         25    1    4    4    0    0  0.18966238813E+02  0.65297561034E+02 -0.17922697617E+03  0.22889584264E+03  0.12509000000E+03 0.  0.
         25    1    4    4    0    0  0.52724738975E+02  0.68479450438E+00 -0.11985524399E+03  0.18108880323E+03  0.12509000000E+03 0.  0.
<mgrwt>
<rscale>  2 0.45399988E+03</rscale>
<asrwt>0</asrwt>
<pdfrwt beam="1">  1       21 0.16086725E-01 0.45399988E+03</pdfrwt>
<pdfrwt beam="2">  1       21 0.69273322E-01 0.45399988E+03</pdfrwt>
<totfact> 0.60374094E+04</totfact>
</mgrwt>
</event>
<event>
 7    0  0.4766352E-002  0.4326577E+03  0.7546771E-02  0.1033024E+00
         21   -1    0    0  502  501  0.00000000000E+00  0.00000000000E+00  0.27743882776E+03  0.27743882776E+03  0.00000000000E+00 0.  1.
         21   -1    0    0  501  502 -0.00000000000E+00 -0.00000000000E+00 -0.16867926040E+03  0.16867926040E+03  0.00000000000E+00 0.  1.
      99926    2    1    2    0    0 -0.14210854715E-13  0.00000000000E+00  0.10875956735E+03  0.44611808816E+03  0.43265772279E+03 0.  0.
      99925    2    3    3    0    0  0.61221514893E+02  0.64681994212E+02  0.51307417147E+02  0.28216659557E+03  0.26278071150E+03 0.  0.
         25    1    3    3    0    0 -0.61221514893E+02 -0.64681994212E+02  0.57452150205E+02  0.16395149260E+03  0.12509000000E+03 0.  0.
         25    1    4    4    0    0 -0.67924809570E+01  0.14175442840E+02  0.30003067476E+02  0.12959464933E+03  0.12509000000E+03 0.  0.
         25    1    4    4    0    0  0.68013995850E+02  0.50506551371E+02  0.21304349672E+02  0.15257194623E+03  0.12509000000E+03 0.  0.
<mgrwt>
<rscale>  2 0.43265772E+03</rscale>
<asrwt>0</asrwt>
<pdfrwt beam="1">  1       21 0.40799828E-01 0.43265772E+03</pdfrwt>
<pdfrwt beam="2">  1       21 0.24805774E-01 0.43265772E+03</pdfrwt>
<totfact> 0.83019165E+04</totfact>
</mgrwt>
</event>
<event>
 7    0  0.4766352E-002  0.4101966E+03  0.7546771E-02  0.1040305E+00
         21   -1    0    0  502  501  0.00000000000E+00  0.00000000000E+00  0.79247778800E+03  0.79247778800E+03  0.00000000000E+00 0. -1.
         21   -1    0    0  501  502 -0.00000000000E+00 -0.00000000000E+00 -0.53080744317E+02  0.53080744317E+02  0.00000000000E+00 0. -1.
      99926    2    1    2    0    0  0.00000000000E+00  0.00000000000E+00  0.73939704368E+03  0.84555853231E+03  0.41019659112E+03 0.  0.
      99925    2    3    3    0    0  0.27726735914E+02  0.50038446499E+02  0.53970223597E+03  0.60307524972E+03  0.26296128099E+03 0.  0.
         25    1    3    3    0    0 -0.27726735914E+02 -0.50038446499E+02  0.19969480771E+03  0.24248328259E+03  0.12509000000E+03 0.  0.
         25    1    4    4    0    0 -0.36558348481E+01 -0.19956970626E+01  0.31327143226E+03  0.33734825671E+03  0.12509000000E+03 0.  0.
         25    1    4    4    0    0  0.31382570762E+02  0.52034143562E+02  0.22643080371E+03  0.26572699301E+03  0.12509000000E+03 0.  0.
<mgrwt>
<rscale>  2 0.41019659E+03</rscale>
<asrwt>0</asrwt>
<pdfrwt beam="1">  1       21 0.11654084E+00 0.41019659E+03</pdfrwt>
<pdfrwt beam="2">  1       21 0.78059923E-02 0.41019659E+03</pdfrwt>
<totfact> 0.65925018E+04</totfact>
</mgrwt>
</event>
<event>
 7    0  0.4766352E-002  0.4708447E+03  0.7546771E-02  0.1021682E+00
         21   -1    0    0  502  501  0.00000000000E+00  0.00000000000E+00  0.32905596802E+03  0.32905596802E+03  0.00000000000E+00 0. -1.
         21   -1    0    0  501  502 -0.00000000000E+00 -0.00000000000E+00 -0.16843239467E+03  0.16843239467E+03  0.00000000000E+00 0. -1.
      99926    2    1    2    0    0  0.00000000000E+00  0.00000000000E+00  0.16062357335E+03  0.49748836270E+03  0.47084470763E+03 0.  0.
      99925    2    3    3    0    0 -0.67767261801E+02  0.91995603788E+02  0.15917427906E+03  0.32806226836E+03  0.26312127987E+03 0.  0.
         25    1    4    4    0    0 -0.25843072185E+01  0.28245797333E+02  0.45818944708E+02  0.13620347831E+03  0.12509000000E+03 0.  0.
         25    1    3    3    0    0  0.67767261801E+02 -0.91995603788E+02  0.14492942919E+01  0.16942609434E+03  0.12509000000E+03 0.  0.
         25    1    4    4    0    0 -0.65182954583E+02  0.63749806455E+02  0.11335533435E+03  0.19185879004E+03  0.12509000000E+03 0.  0.
<mgrwt>
<rscale>  2 0.47084471E+03</rscale>
<asrwt>0</asrwt>
<pdfrwt beam="1">  1       21 0.48390584E-01 0.47084471E+03</pdfrwt>
<pdfrwt beam="2">  1       21 0.24769470E-01 0.47084471E+03</pdfrwt>
<totfact> 0.57824648E+04</totfact>
</mgrwt>
</event>
<event>
 7    0  0.4766352E-002  0.4567818E+03  0.7546771E-02  0.1025719E+00
         21   -1    0    0  502  501  0.00000000000E+00  0.00000000000E+00  0.12729739185E+03  0.12729739185E+03  0.00000000000E+00 0.  1.
         21   -1    0    0  501  502 -0.00000000000E+00 -0.00000000000E+00 -0.40976797517E+03  0.40976797517E+03  0.00000000000E+00 0.  1.
      99926    2    1    2    0    0  0.00000000000E+00  0.00000000000E+00 -0.28247058332E+03  0.53706536701E+03  0.45678176190E+03 0.  0.
      99925    2    3    3    0    0 -0.78817547250E+02 -0.35422305415E+02 -0.88069571752E+02  0.29027353798E+03  0.26274613586E+03 0.  0.
         25    1    4    4    0    0 -0.47536392435E+02 -0.97842968786E+01 -0.84879778327E+02  0.15876878138E+03  0.12509000000E+03 0.  0.
         25    1    3    3    0    0  0.78817547250E+02  0.35422305415E+02 -0.19440101157E+03  0.24679182903E+03  0.12509000000E+03 0.  0.
         25    1    4    4    0    0 -0.31281154816E+02 -0.25638008537E+02 -0.31897934249E+01  0.13150475661E+03  0.12509000000E+03 0.  0.
<mgrwt>
<rscale>  2 0.45678176E+03</rscale>
<asrwt>0</asrwt>
<pdfrwt beam="1">  1       21 0.18720204E-01 0.45678176E+03</pdfrwt>
<pdfrwt beam="2">  1       21 0.60259998E-01 0.45678176E+03</pdfrwt>
<totfact> 0.61852557E+04</totfact>
</mgrwt>
</event>
<event>
 7    0  0.4766352E-002  0.4337748E+03  0.7546771E-02  0.1032674E+00
         21   -1    0    0  502  501  0.00000000000E+00  0.00000000000E+00  0.78603680869E+03  0.78603680869E+03  0.00000000000E+00 0.  1.
         21   -1    0    0  501  502 -0.00000000000E+00 -0.00000000000E+00 -0.59844700998E+02  0.59844700998E+02  0.00000000000E+00 0.  1.
      99926    2    1    2    0    0 -0.71054273576E-14 -0.17763568394E-14  0.72619210769E+03  0.84588150968E+03  0.43377477008E+03 0.  0.
      99925    2    3    3    0    0  0.54101685736E+02  0.10329453040E+02  0.60962604148E+03  0.66624619608E+03  0.26307108042E+03 0.  0.
         25    1    4    4    0    0 -0.18656113135E+01 -0.75013898607E+01  0.22505086084E+03  0.25759493283E+03  0.12509000000E+03 0.  0.
         25    1    3    3    0    0 -0.54101685736E+02 -0.10329453040E+02  0.11656606621E+03  0.17963531360E+03  0.12509000000E+03 0.  0.
         25    1    4    4    0    0  0.55967297049E+02  0.17830842900E+02  0.38457518063E+03  0.40865126325E+03  0.12509000000E+03 0.  0.
<mgrwt>
<rscale>  2 0.43377477E+03</rscale>
<asrwt>0</asrwt>
<pdfrwt beam="1">  1       21 0.11559364E+00 0.43377477E+03</pdfrwt>
<pdfrwt beam="2">  1       21 0.88006918E-02 0.43377477E+03</pdfrwt>
<totfact> 0.54081555E+04</totfact>
</mgrwt>
</event>
<event>
 6    0  0.4766352E-002  0.4596663E+03  0.7546771E-02  0.1024878E+00
         21   -1    0    0  502  501  0.00000000000E+00  0.00000000000E+00  0.29799692579E+02  0.29799692579E+02  0.00000000000E+00 0. -1.
         21   -1    0    0  501  502 -0.00000000000E+00 -0.00000000000E+00 -0.17726112470E+04  0.17726112470E+04  0.00000000000E+00 0. -1.
      99926    2    1    2    0    0  0.00000000000E+00  0.35527136788E-14 -0.17428115544E+04  0.18024109395E+04  0.45966627121E+03 0.  0.
         25    1    3    3    0    0 -0.58214125833E+00  0.39751288456E+02 -0.66710595291E+03  0.67989584815E+03  0.12509000000E+03 0.  0.
         25    1    3    3    0    0 -0.13993883817E+02 -0.23699581901E+02 -0.19893856700E+03  0.23660422758E+03  0.12509000000E+03 0.  0.
         25    1    3    3    0    0  0.14576025075E+02 -0.16051706555E+02 -0.87676703447E+03  0.88591086382E+03  0.12509000000E+03 0.  0.
<mgrwt>
<rscale>  2 0.45966627E+03</rscale>
<asrwt>0</asrwt>
<pdfrwt beam="1">  1       21 0.43823080E-02 0.45966627E+03</pdfrwt>
<pdfrwt beam="2">  1       21 0.26067811E+00 0.45966627E+03</pdfrwt>
<totfact> 0.16603491E+04</totfact>
</mgrwt>
</event>
<event>
 7    0  0.4766352E-002  0.4490195E+03  0.7546771E-02  0.1028015E+00
         21   -1    0    0  502  501  0.00000000000E+00  0.00000000000E+00  0.47536121281E+03  0.47536121281E+03  0.00000000000E+00 0. -1.
         21   -1    0    0  501  502 -0.00000000000E+00 -0.00000000000E+00 -0.10603435851E+03  0.10603435851E+03  0.00000000000E+00 0. -1.
      99926    2    1    2    0    0  0.00000000000E+00 -0.17763568394E-14  0.36932685430E+03  0.58139557132E+03  0.44901947066E+03 0.  0.
      99925    2    3    3    0    0  0.30683069167E+02 -0.91078432910E+01  0.10196020986E+03  0.28448340551E+03  0.26364847823E+03 0.  0.
         25    1    4    4    0    0  0.21063627950E+02  0.97709638728E+01  0.92423277439E+02  0.15725367554E+03  0.12509000000E+03 0.  0.
         25    1    3    3    0    0 -0.30683069167E+02  0.91078432910E+01  0.26736664444E+03  0.29691216580E+03  0.12509000000E+03 0.  0.
         25    1    4    4    0    0  0.96194412171E+01 -0.18878807164E+02  0.95369324231E+01  0.12722972997E+03  0.12509000000E+03 0.  0.
<mgrwt>
<rscale>  2 0.44901947E+03</rscale>
<asrwt>0</asrwt>
<pdfrwt beam="1">  1       21 0.69906060E-01 0.44901947E+03</pdfrwt>
<pdfrwt beam="2">  1       21 0.15593288E-01 0.44901947E+03</pdfrwt>
<totfact> 0.62752879E+04</totfact>
</mgrwt>
</event>
<event>
 7    0  0.4766352E-002  0.4478854E+03  0.7546771E-02  0.1028355E+00
         21   -1    0    0  502  501  0.00000000000E+00  0.00000000000E+00  0.20676745222E+03  0.20676745222E+03  0.00000000000E+00 0. -1.
         21   -1    0    0  501  502 -0.00000000000E+00 -0.00000000000E+00 -0.24254467007E+03  0.24254467007E+03  0.00000000000E+00 0. -1.
      99926    2    1    2    0    0 -0.71054273576E-14  0.00000000000E+00 -0.35777217846E+02  0.44931212229E+03  0.44788544732E+03 0.  0.
      99925    2    3    3    0    0  0.41451675678E+02 -0.50432599286E+02  0.61600415438E+02  0.27787233679E+03  0.26297668316E+03 0.  0.
         25    1    4    4    0    0 -0.12999802870E+02 -0.45908421557E+02  0.21457093020E+02  0.13558942800E+03  0.12509000000E+03 0.  0.
         25    1    4    4    0    0  0.54451478549E+02 -0.45241777293E+01  0.40143322418E+02  0.14228290879E+03  0.12509000000E+03 0.  0.
         25    1    3    3    0    0 -0.41451675678E+02  0.50432599286E+02 -0.97377633284E+02  0.17143978550E+03  0.12509000000E+03 0.  0.
<mgrwt>
<rscale>  2 0.44788545E+03</rscale>
<asrwt>0</asrwt>
<pdfrwt beam="1">  1       21 0.30406978E-01 0.44788545E+03</pdfrwt>
<pdfrwt beam="2">  1       21 0.35668334E-01 0.44788545E+03</pdfrwt>
<totfact> 0.73022445E+04</totfact>
</mgrwt>
</event>
<event>
 7    0  0.4766352E-002  0.4540721E+03  0.7546771E-02  0.1026515E+00
         21   -1    0    0  502  501  0.00000000000E+00  0.00000000000E+00  0.41349232625E+02  0.41349232625E+02  0.00000000000E+00 0.  1.
         21   -1    0    0  501  502 -0.00000000000E+00 -0.00000000000E+00 -0.12465855948E+04  0.12465855948E+04  0.00000000000E+00 0.  1.
      99926    2    1    2    0    0  0.71054273576E-14  0.14210854715E-13 -0.12052363622E+04  0.12879348274E+04  0.45407205483E+03 0.  0.
      99925    2    3    3    0    0  0.40264646881E+02  0.96377548835E+02 -0.87660474986E+03  0.92111590967E+03  0.26288544628E+03 0.  0.
         25    1    4    4    0    0  0.22455091482E+02  0.65161374609E+02 -0.57793020535E+03  0.59531593816E+03  0.12509000000E+03 0.  0.
         25    1    3    3    0    0 -0.40264646881E+02 -0.96377548835E+02 -0.32863161230E+03  0.36681891774E+03  0.12509000000E+03 0.  0.
         25    1    4    4    0    0  0.17809555399E+02  0.31216174226E+02 -0.29867454451E+03  0.32579997151E+03  0.12509000000E+03 0.  0.
<mgrwt>
<rscale>  2 0.45407205E+03</rscale>
<asrwt>0</asrwt>
<pdfrwt beam="1">  1       21 0.60807685E-02 0.45407205E+03</pdfrwt>
<pdfrwt beam="2">  1       21 0.18332144E+00 0.45407205E+03</pdfrwt>
<totfact> 0.29680804E+04</totfact>
</mgrwt>
</event>
<event>
 7    0  0.4766352E-002  0.4408660E+03  0.7546771E-02  0.1030481E+00
         21   -1    0    0  502  501  0.00000000000E+00  0.00000000000E+00  0.32083502962E+03  0.32083502962E+03  0.00000000000E+00 0.  1.
         21   -1    0    0  501  502 -0.00000000000E+00 -0.00000000000E+00 -0.15145076609E+03  0.15145076609E+03  0.00000000000E+00 0.  1.
      99926    2    1    2    0    0  0.00000000000E+00  0.00000000000E+00  0.16938426353E+03  0.47228579571E+03  0.44086601604E+03 0.  0.
      99925    2    3    3    0    0 -0.66678736544E+02  0.66284476313E+02  0.74051794759E+02  0.28904968189E+03  0.26310903555E+03 0.  0.
         25    1    4    4    0    0  0.56084208217E+01  0.16591428716E+02  0.40307559858E+02  0.13258558509E+03  0.12509000000E+03 0.  0.
         25    1    4    4    0    0 -0.72287157366E+02  0.49693047597E+02  0.33744234901E+02  0.15646409680E+03  0.12509000000E+03 0.  0.
         25    1    3    3    0    0  0.66678736544E+02 -0.66284476313E+02  0.95332468771E+02  0.18323611382E+03  0.12509000000E+03 0.  0.
<mgrwt>
<rscale>  2 0.44086602E+03</rscale>
<asrwt>0</asrwt>
<pdfrwt beam="1">  1       21 0.47181622E-01 0.44086602E+03</pdfrwt>
<pdfrwt beam="2">  1       21 0.22272171E-01 0.44086602E+03</pdfrwt>
<totfact> 0.75373679E+04</totfact>
</mgrwt>
</event>
<event>
 7    0  0.4766352E-002  0.4548848E+03  0.7546771E-02  0.1026275E+00
         21   -1    0    0  502  501  0.00000000000E+00  0.00000000000E+00  0.12561250250E+03  0.12561250250E+03  0.00000000000E+00 0. -1.
         21   -1    0    0  501  502 -0.00000000000E+00 -0.00000000000E+00 -0.41182238484E+03  0.41182238484E+03  0.00000000000E+00 0. -1.
      99926    2    1    2    0    0  0.00000000000E+00  0.00000000000E+00 -0.28620988234E+03  0.53743488735E+03  0.45488477814E+03 0.  0.
      99925    2    3    3    0    0 -0.41398403361E+02 -0.10438889073E+03 -0.19709898463E+03  0.34717420171E+03  0.26281371403E+03 0.  0.
         25    1    3    3    0    0  0.41398403361E+02  0.10438889073E+03 -0.89110897716E+02  0.19026068564E+03  0.12509000000E+03 0.  0.
         25    1    4    4    0    0 -0.15115363227E+02 -0.27610783611E+02 -0.51869077076E+02  0.13902783474E+03  0.12509000000E+03 0.  0.
         25    1    4    4    0    0 -0.26283040134E+02 -0.76778107120E+02 -0.14522990755E+03  0.20814636696E+03  0.12509000000E+03 0.  0.
<mgrwt>
<rscale>  2 0.45488478E+03</rscale>
<asrwt>0</asrwt>
<pdfrwt beam="1">  1       21 0.18472427E-01 0.45488478E+03</pdfrwt>
<pdfrwt beam="2">  1       21 0.60562114E-01 0.45488478E+03</pdfrwt>
<totfact> 0.62761754E+04</totfact>
</mgrwt>
</event>
<event>
 7    0  0.4766352E-002  0.4511137E+03  0.7546771E-02  0.1027390E+00
         21   -1    0    0  502  501  0.00000000000E+00  0.00000000000E+00  0.11546703146E+03  0.11546703146E+03  0.00000000000E+00 0.  1.
         21   -1    0    0  501  502 -0.00000000000E+00 -0.00000000000E+00 -0.44060962527E+03  0.44060962527E+03  0.00000000000E+00 0.  1.
      99926    2    1    2    0    0  0.00000000000E+00  0.88817841970E-15 -0.32514259381E+03  0.55607665673E+03  0.45111366844E+03 0.  0.
      99925    2    3    3    0    0 -0.24079087301E+02  0.73889471461E+01 -0.33672869749E+03  0.42795115231E+03  0.26290982116E+03 0.  0.
         25    1    4    4    0    0 -0.10755414373E+02 -0.34561679991E+02 -0.14577923127E+03  0.19547194436E+03  0.12509000000E+03 0.  0.
         25    1    3    3    0    0  0.24079087301E+02 -0.73889471461E+01  0.11586103681E+02  0.12812550442E+03  0.12509000000E+03 0.  0.
         25    1    4    4    0    0 -0.13323672928E+02  0.41950627137E+02 -0.19094946622E+03  0.23247920795E+03  0.12509000000E+03 0.  0.
<mgrwt>
<rscale>  2 0.45111367E+03</rscale>
<asrwt>0</asrwt>
<pdfrwt beam="1">  1       21 0.16980446E-01 0.45111367E+03</pdfrwt>
<pdfrwt beam="2">  1       21 0.64795533E-01 0.45111367E+03</pdfrwt>
<totfact> 0.63393294E+04</totfact>
</mgrwt>
</event>
<event>
 7    0  0.4766352E-002  0.4523153E+03  0.7546771E-02  0.1027034E+00
         21   -1    0    0  502  501  0.00000000000E+00  0.00000000000E+00  0.10772610579E+03  0.10772610579E+03  0.00000000000E+00 0.  1.
         21   -1    0    0  501  502 -0.00000000000E+00 -0.00000000000E+00 -0.47479003117E+03  0.47479003117E+03  0.00000000000E+00 0.  1.
      99926    2    1    2    0    0  0.00000000000E+00  0.00000000000E+00 -0.36706392539E+03  0.58251613696E+03  0.45231529324E+03 0.  0.
      99925    2    3    3    0    0  0.53369058368E+02  0.70646135504E+02 -0.31699619986E+03  0.42129139291E+03  0.26298424699E+03 0.  0.
         25    1    4    4    0    0  0.24768123819E+02  0.62593880044E+02 -0.21251991934E+03  0.25562409509E+03  0.12509000000E+03 0.  0.
         25    1    4    4    0    0  0.28600934550E+02  0.80522554594E+01 -0.10447628052E+03  0.16566729782E+03  0.12509000000E+03 0.  0.
         25    1    3    3    0    0 -0.53369058368E+02 -0.70646135504E+02 -0.50067725525E+02  0.16122474404E+03  0.12509000000E+03 0.  0.
<mgrwt>
<rscale>  2 0.45231529E+03</rscale>
<asrwt>0</asrwt>
<pdfrwt beam="1">  1       21 0.15842074E-01 0.45231529E+03</pdfrwt>
<pdfrwt beam="2">  1       21 0.69822065E-01 0.45231529E+03</pdfrwt>
<totfact> 0.61052996E+04</totfact>
</mgrwt>
</event>
<event>
 7    0  0.4766352E-002  0.4579556E+03  0.7546771E-02  0.1025376E+00
         21   -1    0    0  502  501  0.00000000000E+00  0.00000000000E+00  0.53846851449E+02  0.53846851449E+02  0.00000000000E+00 0.  1.
         21   -1    0    0  501  502 -0.00000000000E+00 -0.00000000000E+00 -0.97370300340E+03  0.97370300340E+03  0.00000000000E+00 0.  1.
      99926    2    1    2    0    0  0.00000000000E+00 -0.35527136788E-14 -0.91985615195E+03  0.10275498548E+04  0.45795563532E+03 0.  0.
      99925    2    3    3    0    0  0.63498612739E+02  0.27900722942E+02 -0.78563406330E+03  0.83140296769E+03  0.26305795769E+03 0.  0.
         25    1    4    4    0    0  0.25964603315E+02 -0.11437062994E+02 -0.28524045180E+03  0.31275324216E+03  0.12509000000E+03 0.  0.
         25    1    3    3    0    0 -0.63498612739E+02 -0.27900722942E+02 -0.13422208865E+03  0.19614688716E+03  0.12509000000E+03 0.  0.
         25    1    4    4    0    0  0.37534009424E+02  0.39337785936E+02 -0.50039361150E+03  0.51864972553E+03  0.12509000000E+03 0.  0.
<mgrwt>
<rscale>  2 0.45795564E+03</rscale>
<asrwt>0</asrwt>
<pdfrwt beam="1">  1       21 0.79186550E-02 0.45795564E+03</pdfrwt>
<pdfrwt beam="2">  1       21 0.14319161E+00 0.45795564E+03</pdfrwt>
<totfact> 0.37245206E+04</totfact>
</mgrwt>
</event>
<event>
 7    0  0.4766352E-002  0.4620357E+03  0.7546771E-02  0.1024192E+00
         21   -1    0    0  502  501  0.00000000000E+00  0.00000000000E+00  0.13463320069E+03  0.13463320069E+03  0.00000000000E+00 0.  1.
         21   -1    0    0  501  502 -0.00000000000E+00 -0.00000000000E+00 -0.39640486824E+03  0.39640486824E+03  0.00000000000E+00 0.  1.
      99926    2    1    2    0    0 -0.14210854715E-13  0.00000000000E+00 -0.26177166755E+03  0.53103806893E+03  0.46203573966E+03 0.  0.
      99925    2    3    3    0    0  0.98458133762E+02  0.98490662389E+01 -0.86258390859E+02  0.29388110276E+03  0.26293456288E+03 0.  0.
         25    1    4    4    0    0  0.48594144378E+02 -0.32245209907E+02 -0.59413411785E+02  0.15026179165E+03  0.12509000000E+03 0.  0.
         25    1    3    3    0    0 -0.98458133762E+02 -0.98490662389E+01 -0.17551327669E+03  0.23715696617E+03  0.12509000000E+03 0.  0.
         25    1    4    4    0    0  0.49863989384E+02  0.42094276146E+02 -0.26844979074E+02  0.14361931111E+03  0.12509000000E+03 0.  0.
<mgrwt>
<rscale>  2 0.46203574E+03</rscale>
<asrwt>0</asrwt>
<pdfrwt beam="1">  1       21 0.19799000E-01 0.46203574E+03</pdfrwt>
<pdfrwt beam="2">  1       21 0.58294834E-01 0.46203574E+03</pdfrwt>
<totfact> 0.59734706E+04</totfact>
</mgrwt>
</event>
<event>
 7    0  0.4766352E-002  0.4544474E+03  0.7546771E-02  0.1026404E+00
         21   -1    0    0  502  501  0.00000000000E+00  0.00000000000E+00  0.47356229753E+03  0.47356229753E+03  0.00000000000E+00 0. -1.
         21   -1    0    0  501  502 -0.00000000000E+00 -0.00000000000E+00 -0.10902602521E+03  0.10902602521E+03  0.00000000000E+00 0. -1.
      99926    2    1    2    0    0  0.00000000000E+00  0.00000000000E+00  0.36453627232E+03  0.58258832274E+03  0.45444742265E+03 0.  0.
      99925    2    3    3    0    0 -0.20276776570E+02 -0.10910605242E+03  0.25482061271E+03  0.38258754173E+03  0.26291520321E+03 0.  0.
         25    1    3    3    0    0  0.20276776570E+02  0.10910605242E+03  0.10971565961E+03  0.20000078101E+03  0.12509000000E+03 0.  0.
         25    1    4    4    0    0  0.28914940719E+01 -0.36145889381E+02  0.74083353198E+02  0.14983570128E+03  0.12509000000E+03 0.  0.
         25    1    4    4    0    0 -0.23168270642E+02 -0.72960163039E+02  0.18073725951E+03  0.23275184045E+03  0.12509000000E+03 0.  0.
<mgrwt>
<rscale>  2 0.45444742E+03</rscale>
<asrwt>0</asrwt>
<pdfrwt beam="1">  1       21 0.69641513E-01 0.45444742E+03</pdfrwt>
<pdfrwt beam="2">  1       21 0.16033239E-01 0.45444742E+03</pdfrwt>
<totfact> 0.60024778E+04</totfact>
</mgrwt>
</event>
<event>
 7    0  0.4766352E-002  0.4651308E+03  0.7546771E-02  0.1023304E+00
         21   -1    0    0  502  501  0.00000000000E+00  0.00000000000E+00  0.37970999280E+03  0.37970999280E+03  0.00000000000E+00 0. -1.
         21   -1    0    0  501  502 -0.00000000000E+00 -0.00000000000E+00 -0.14244203293E+03  0.14244203293E+03  0.00000000000E+00 0. -1.
      99926    2    1    2    0    0  0.00000000000E+00  0.00000000000E+00  0.23726795987E+03  0.52215202573E+03  0.46513079150E+03 0.  0.
      99925    2    3    3    0    0 -0.46787083197E+02 -0.11052341855E+03  0.12021075082E+03  0.31297660774E+03  0.26286740989E+03 0.  0.
         25    1    3    3    0    0  0.46787083197E+02  0.11052341855E+03  0.11705720905E+03  0.20917541799E+03  0.12509000000E+03 0.  0.
         25    1    4    4    0    0  0.28111539629E+00 -0.61548218681E+02  0.24762301564E+02  0.14159428635E+03  0.12509000000E+03 0.  0.
         25    1    4    4    0    0 -0.47068198593E+02 -0.48975199866E+02  0.95448449252E+02  0.17138232139E+03  0.12509000000E+03 0.  0.
<mgrwt>
<rscale>  2 0.46513079E+03</rscale>
<asrwt>0</asrwt>
<pdfrwt beam="1">  1       21 0.55839705E-01 0.46513079E+03</pdfrwt>
<pdfrwt beam="2">  1       21 0.20947358E-01 0.46513079E+03</pdfrwt>
<totfact> 0.58864766E+04</totfact>
</mgrwt>
</event>
<event>
 6    0  0.4766352E-002  0.4466215E+03  0.7546771E-02  0.1028734E+00
         21   -1    0    0  502  501  0.00000000000E+00  0.00000000000E+00  0.94991792298E+02  0.94991792298E+02  0.00000000000E+00 0.  1.
         21   -1    0    0  501  502 -0.00000000000E+00 -0.00000000000E+00 -0.52496838751E+03  0.52496838751E+03  0.00000000000E+00 0.  1.
      99926    2    1    2    0    0  0.00000000000E+00  0.00000000000E+00 -0.42997659521E+03  0.61996017981E+03  0.44662148640E+03 0.  0.
         25    1    3    3    0    0  0.32473777192E+02 -0.42720022088E+02 -0.18051322212E+03  0.22607980439E+03  0.12509000000E+03 0.  0.
         25    1    3    3    0    0 -0.17008287753E+02 -0.67368369077E+00 -0.22551119051E+03  0.25844252910E+03  0.12509000000E+03 0.  0.
         25    1    3    3    0    0 -0.15465489439E+02  0.43393705779E+02 -0.23952182578E+02  0.13543784632E+03  0.12509000000E+03 0.  0.
<mgrwt>
<rscale>  2 0.44662149E+03</rscale>
<asrwt>0</asrwt>
<pdfrwt beam="1">  1       21 0.13969381E-01 0.44662149E+03</pdfrwt>
<pdfrwt beam="2">  1       21 0.77201235E-01 0.44662149E+03</pdfrwt>
<totfact> 0.61430523E+04</totfact>
</mgrwt>
</event>
<event>
 7    0  0.4766352E-002  0.4540150E+03  0.7546771E-02  0.1026531E+00
         21   -1    0    0  502  501  0.00000000000E+00  0.00000000000E+00  0.26113750317E+03  0.26113750317E+03  0.00000000000E+00 0. -1.
         21   -1    0    0  501  502 -0.00000000000E+00 -0.00000000000E+00 -0.19733822375E+03  0.19733822375E+03  0.00000000000E+00 0. -1.
      99926    2    1    2    0    0  0.00000000000E+00  0.00000000000E+00  0.63799279416E+02  0.45847572692E+03  0.45401502631E+03 0.  0.
      99925    2    3    3    0    0  0.86146421292E+02  0.67722822503E+02  0.66821463767E+02  0.29215005756E+03  0.26244801680E+03 0.  0.
         25    1    4    4    0    0  0.23918115941E+02  0.29086795238E+02  0.67816536787E+02  0.14718936337E+03  0.12509000000E+03 0.  0.
         25    1    4    4    0    0  0.62228305351E+02  0.38636027265E+02 -0.99507302006E+00  0.14496069419E+03  0.12509000000E+03 0.  0.
         25    1    3    3    0    0 -0.86146421292E+02 -0.67722822503E+02 -0.30221843511E+01  0.16632566936E+03  0.12509000000E+03 0.  0.
<mgrwt>
<rscale>  2 0.45401503E+03</rscale>
<asrwt>0</asrwt>
<pdfrwt beam="1">  1       21 0.38402574E-01 0.45401503E+03</pdfrwt>
<pdfrwt beam="2">  1       21 0.29020327E-01 0.45401503E+03</pdfrwt>
<totfact> 0.68830876E+04</totfact>
</mgrwt>
</event>
<event>
 7    0  0.4766352E-002  0.4524269E+03  0.7546771E-02  0.1027001E+00
         21   -1    0    0  502  501  0.00000000000E+00  0.00000000000E+00  0.40525447009E+03  0.40525447009E+03  0.00000000000E+00 0.  1.
         21   -1    0    0  501  502 -0.00000000000E+00 -0.00000000000E+00 -0.12627257700E+03  0.12627257700E+03  0.00000000000E+00 0.  1.
      99926    2    1    2    0    0  0.00000000000E+00  0.71054273576E-14  0.27898189308E+03  0.53152704709E+03  0.45242690583E+03 0.  0.
      99925    2    3    3    0    0 -0.17217556697E+02 -0.63925230054E+02  0.71575055587E+02  0.28043347163E+03  0.26293927841E+03 0.  0.
         25    1    4    4    0    0 -0.12146390874E+02 -0.62911061360E+02  0.65582638317E+02  0.15509328484E+03  0.12509000000E+03 0.  0.
         25    1    4    4    0    0 -0.50711658235E+01 -0.10141686944E+01  0.59924172694E+01  0.12534018679E+03  0.12509000000E+03 0.  0.
         25    1    3    3    0    0  0.17217556697E+02  0.63925230054E+02  0.20740683750E+03  0.25109357546E+03  0.12509000000E+03 0.  0.
<mgrwt>
<rscale>  2 0.45242691E+03</rscale>
<asrwt>0</asrwt>
<pdfrwt beam="1">  1       21 0.59596245E-01 0.45242691E+03</pdfrwt>
<pdfrwt beam="2">  1       21 0.18569497E-01 0.45242691E+03</pdfrwt>
<totfact> 0.64405771E+04</totfact>
</mgrwt>
</event>
<event>
 7    0  0.4766352E-002  0.4597048E+03  0.7546771E-02  0.1024867E+00
         21   -1    0    0  502  501  0.00000000000E+00  0.00000000000E+00  0.51133987286E+03  0.51133987286E+03  0.00000000000E+00 0.  1.
         21   -1    0    0  501  502 -0.00000000000E+00 -0.00000000000E+00 -0.10332094601E+03  0.10332094601E+03  0.00000000000E+00 0.  1.
      99926    2    1    2    0    0  0.00000000000E+00  0.00000000000E+00  0.40801892685E+03  0.61466081887E+03  0.45970477221E+03 0.  0.
      99925    2    3    3    0    0 -0.79089641672E+02  0.39250748244E+02  0.35941118145E+03  0.45401831618E+03  0.26298372843E+03 0.  0.
         25    1    4    4    0    0  0.23803112603E+01  0.22360816416E+02  0.17019115698E+03  0.21241047527E+03  0.12509000000E+03 0.  0.
         25    1    3    3    0    0  0.79089641672E+02 -0.39250748244E+02  0.48607745402E+02  0.16064250269E+03  0.12509000000E+03 0.  0.
         25    1    4    4    0    0 -0.81469952932E+02  0.16889931828E+02  0.18922002447E+03  0.24160784091E+03  0.12509000000E+03 0.  0.
<mgrwt>
<rscale>  2 0.45970477E+03</rscale>
<asrwt>0</asrwt>
<pdfrwt beam="1">  1       21 0.75197039E-01 0.45970477E+03</pdfrwt>
<pdfrwt beam="2">  1       21 0.15194257E-01 0.45970477E+03</pdfrwt>
<totfact> 0.55686558E+04</totfact>
</mgrwt>
</event>
<event>
 7    0  0.4766352E-002  0.4582617E+03  0.7546771E-02  0.1025287E+00
         21   -1    0    0  502  501  0.00000000000E+00  0.00000000000E+00  0.18045675395E+03  0.18045675395E+03  0.00000000000E+00 0.  1.
         21   -1    0    0  501  502 -0.00000000000E+00 -0.00000000000E+00 -0.29093362932E+03  0.29093362932E+03  0.00000000000E+00 0.  1.
      99926    2    1    2    0    0  0.00000000000E+00  0.00000000000E+00 -0.11047687537E+03  0.47139038327E+03  0.45826166482E+03 0.  0.
      99925    2    3    3    0    0  0.90563487933E+02 -0.57327765994E+02 -0.22669898592E+02  0.28472010880E+03  0.26279915896E+03 0.  0.
         25    1    4    4    0    0  0.74820225010E+02 -0.23558367483E+01 -0.32335549165E+01  0.14581351108E+03  0.12509000000E+03 0.  0.
         25    1    3    3    0    0 -0.90563487933E+02  0.57327765994E+02 -0.87806976774E+02  0.18667027447E+03  0.12509000000E+03 0.  0.
         25    1    4    4    0    0  0.15743262922E+02 -0.54971929246E+02 -0.19436343676E+02  0.13890659771E+03  0.12509000000E+03 0.  0.
<mgrwt>
<rscale>  2 0.45826166E+03</rscale>
<asrwt>0</asrwt>
<pdfrwt beam="1">  1       21 0.26537758E-01 0.45826166E+03</pdfrwt>
<pdfrwt beam="2">  1       21 0.42784357E-01 0.45826166E+03</pdfrwt>
<totfact> 0.65618210E+04</totfact>
</mgrwt>
</event>
<event>
 7    0  0.4766352E-002  0.4523527E+03  0.7546771E-02  0.1027023E+00
         21   -1    0    0  502  501  0.00000000000E+00  0.00000000000E+00  0.11647014479E+04  0.11647014479E+04  0.00000000000E+00 0. -1.
         21   -1    0    0  501  502 -0.00000000000E+00 -0.00000000000E+00 -0.43921772382E+02  0.43921772382E+02  0.00000000000E+00 0. -1.
      99926    2    1    2    0    0  0.00000000000E+00  0.00000000000E+00  0.11207796755E+04  0.12086232203E+04  0.45235274681E+03 0.  0.
      99925    2    3    3    0    0  0.53452662380E+02 -0.69661641644E+02  0.52696588639E+03  0.59545745502E+03  0.26299544461E+03 0.  0.
         25    1    3    3    0    0 -0.53452662380E+02  0.69661641644E+02  0.59381378910E+03  0.61316576524E+03  0.12509000000E+03 0.  0.
         25    1    4    4    0    0  0.21818224788E+02 -0.22214395555E+02  0.17310107796E+03  0.21582633202E+03  0.12509000000E+03 0.  0.
         25    1    4    4    0    0  0.31634437592E+02 -0.47447246090E+02  0.35386480843E+03  0.37963112300E+03  0.12509000000E+03 0.  0.
<mgrwt>
<rscale>  2 0.45235275E+03</rscale>
<asrwt>0</asrwt>
<pdfrwt beam="1">  1       21 0.17127960E+00 0.45235275E+03</pdfrwt>
<pdfrwt beam="2">  1       21 0.64590849E-02 0.45235275E+03</pdfrwt>
<totfact> 0.32549858E+04</totfact>
</mgrwt>
</event>
<event>
 7    0  0.4766352E-002  0.4574233E+03  0.7546771E-02  0.1025531E+00
         21   -1    0    0  502  501  0.00000000000E+00  0.00000000000E+00  0.36632963150E+03  0.36632963150E+03  0.00000000000E+00 0. -1.
         21   -1    0    0  501  502 -0.00000000000E+00 -0.00000000000E+00 -0.14279221079E+03  0.14279221079E+03  0.00000000000E+00 0. -1.
      99926    2    1    2    0    0  0.35527136788E-14  0.00000000000E+00  0.22353742072E+03  0.50912184229E+03  0.45742329612E+03 0.  0.
      99925    2    3    3    0    0  0.13437842759E+02 -0.65544442689E+02  0.24499425637E+03  0.36564866193E+03  0.26305913543E+03 0.  0.
         25    1    4    4    0    0 -0.28522333657E+02 -0.42399513840E+02  0.98990026824E+02  0.16750455457E+03  0.12509000000E+03 0.  0.
         25    1    4    4    0    0  0.41960176416E+02 -0.23144928849E+02  0.14600422955E+03  0.19814410736E+03  0.12509000000E+03 0.  0.
         25    1    3    3    0    0 -0.13437842759E+02  0.65544442689E+02 -0.21456835655E+02  0.14347318036E+03  0.12509000000E+03 0.  0.
<mgrwt>
<rscale>  2 0.45742330E+03</rscale>
<asrwt>0</asrwt>
<pdfrwt beam="1">  1       21 0.53872004E-01 0.45742330E+03</pdfrwt>
<pdfrwt beam="2">  1       21 0.20998855E-01 0.45742330E+03</pdfrwt>
<totfact> 0.63406155E+04</totfact>
</mgrwt>
</event>
<event>
 7    0  0.4766352E-002  0.4541368E+03  0.7546771E-02  0.1026496E+00
         21   -1    0    0  502  501  0.00000000000E+00  0.00000000000E+00  0.64048741633E+03  0.64048741633E+03  0.00000000000E+00 0. -1.
         21   -1    0    0  501  502 -0.00000000000E+00 -0.00000000000E+00 -0.80501270172E+02  0.80501270172E+02  0.00000000000E+00 0. -1.
      99926    2    1    2    0    0 -0.17763568394E-14  0.14210854715E-13  0.55998614616E+03  0.72098868650E+03  0.45413676594E+03 0.  0.
      99925    2    3    3    0    0  0.13136769121E+02 -0.10067604261E+03  0.27635345689E+03  0.39479357498E+03  0.26302565170E+03 0.  0.
         25    1    3    3    0    0 -0.13136769121E+02  0.10067604261E+03  0.28363268927E+03  0.32619511152E+03  0.12509000000E+03 0.  0.
         25    1    4    4    0    0  0.44964621250E+02 -0.62697029113E+02  0.13344881987E+03  0.19851657424E+03  0.12509000000E+03 0.  0.
         25    1    4    4    0    0 -0.31827852129E+02 -0.37979013501E+02  0.14290463702E+03  0.19627700074E+03  0.12509000000E+03 0.  0.
<mgrwt>
<rscale>  2 0.45413677E+03</rscale>
<asrwt>0</asrwt>
<pdfrwt beam="1">  1       21 0.94189323E-01 0.45413677E+03</pdfrwt>
<pdfrwt beam="2">  1       21 0.11838422E-01 0.45413677E+03</pdfrwt>
<totfact> 0.52131273E+04</totfact>
</mgrwt>
</event>
<event>
 7    0  0.4766352E-002  0.4618318E+03  0.7546771E-02  0.1024251E+00
         21   -1    0    0  502  501  0.00000000000E+00  0.00000000000E+00  0.99699727915E+03  0.99699727915E+03  0.00000000000E+00 0. -1.
         21   -1    0    0  501  502 -0.00000000000E+00 -0.00000000000E+00 -0.53482737652E+02  0.53482737652E+02  0.00000000000E+00 0. -1.
      99926    2    1    2    0    0 -0.35527136788E-14 -0.14210854715E-13  0.94351454149E+03  0.10504800168E+04  0.46183176123E+03 0.  0.
      99925    2    3    3    0    0 -0.17906421452E+02 -0.11540144716E+03  0.64771094262E+03  0.70874121136E+03  0.26295723142E+03 0.  0.
         25    1    3    3    0    0  0.17906421452E+02  0.11540144716E+03  0.29580359887E+03  0.34173880544E+03  0.12509000000E+03 0.  0.
         25    1    4    4    0    0 -0.33860557251E+02 -0.30880272520E+02  0.35140995089E+03  0.37581456897E+03  0.12509000000E+03 0.  0.
         25    1    4    4    0    0  0.15954135800E+02 -0.84521174638E+02  0.29630099173E+03  0.33292664239E+03  0.12509000000E+03 0.  0.
<mgrwt>
<rscale>  2 0.46183176E+03</rscale>
<asrwt>0</asrwt>
<pdfrwt beam="1">  1       21 0.14661723E+00 0.46183176E+03</pdfrwt>
<pdfrwt beam="2">  1       21 0.78651091E-02 0.46183176E+03</pdfrwt>
<totfact> 0.35337508E+04</totfact>
</mgrwt>
</event>
<event>
 7    0  0.4766352E-002  0.4375262E+03  0.7546771E-02  0.1031509E+00
         21   -1    0    0  502  501  0.00000000000E+00  0.00000000000E+00  0.67487137103E+03  0.67487137103E+03  0.00000000000E+00 0.  1.
         21   -1    0    0  501  502 -0.00000000000E+00 -0.00000000000E+00 -0.70913221967E+02  0.70913221967E+02  0.00000000000E+00 0.  1.
      99926    2    1    2    0    0  0.88817841970E-15  0.71054273576E-14  0.60395814906E+03  0.74578459300E+03  0.43752624302E+03 0.  0.
      99925    2    3    3    0    0 -0.65044797094E+01  0.49878153760E+02  0.24737292026E+03  0.36456199138E+03  0.26302460989E+03 0.  0.
         25    1    4    4    0    0 -0.19656459483E+02  0.12330479751E+01  0.80683393542E+02  0.15015064069E+03  0.12509000000E+03 0.  0.
         25    1    3    3    0    0  0.65044797094E+01 -0.49878153760E+02  0.35658522881E+03  0.38122260162E+03  0.12509000000E+03 0.  0.
         25    1    4    4    0    0  0.13151979773E+02  0.48645105785E+02  0.16668952672E+03  0.21441135069E+03  0.12509000000E+03 0.  0.
<mgrwt>
<rscale>  2 0.43752624E+03</rscale>
<asrwt>0</asrwt>
<pdfrwt beam="1">  1       21 0.99245786E-01 0.43752624E+03</pdfrwt>
<pdfrwt beam="2">  1       21 0.10428415E-01 0.43752624E+03</pdfrwt>
<totfact> 0.58059442E+04</totfact>
</mgrwt>
</event>
<event>
 7    0  0.4766352E-002  0.4497682E+03  0.7546771E-02  0.1027791E+00
         21   -1    0    0  502  501  0.00000000000E+00  0.00000000000E+00  0.17435970167E+04  0.17435970167E+04  0.00000000000E+00 0. -1.
         21   -1    0    0  501  502 -0.00000000000E+00 -0.00000000000E+00 -0.29004902372E+02  0.29004902372E+02  0.00000000000E+00 0. -1.
      99926    2    1    2    0    0  0.00000000000E+00  0.00000000000E+00  0.17145921143E+04  0.17726019191E+04  0.44976821251E+03 0.  0.
      99925    2    3    3    0    0  0.53996093697E+02 -0.74613677095E+02  0.85902438798E+03  0.90304661812E+03  0.26284504258E+03 0.  0.
         25    1    3    3    0    0 -0.53996093697E+02  0.74613677095E+02  0.85556772637E+03  0.86955530097E+03  0.12509000000E+03 0.  0.
         25    1    4    4    0    0  0.39064617596E+02 -0.27137239638E+02  0.30807260088E+03  0.33588496488E+03  0.12509000000E+03 0.  0.
         25    1    4    4    0    0  0.14931476101E+02 -0.47476437457E+02  0.55095178710E+03  0.56716165324E+03  0.12509000000E+03 0.  0.
<mgrwt>
<rscale>  2 0.44976821E+03</rscale>
<asrwt>0</asrwt>
<pdfrwt beam="1">  1       21 0.25641126E+00 0.44976821E+03</pdfrwt>
<pdfrwt beam="2">  1       21 0.42654280E-02 0.44976821E+03</pdfrwt>
<totfact> 0.18533310E+04</totfact>
</mgrwt>
</event>
<event>
 7    0  0.4766352E-002  0.4628737E+03  0.7546771E-02  0.1023951E+00
         21   -1    0    0  502  501  0.00000000000E+00  0.00000000000E+00  0.24272247179E+03  0.24272247179E+03  0.00000000000E+00 0.  1.
         21   -1    0    0  501  502 -0.00000000000E+00 -0.00000000000E+00 -0.22067595230E+03  0.22067595230E+03  0.00000000000E+00 0.  1.
      99926    2    1    2    0    0  0.00000000000E+00  0.35527136788E-14  0.22046519486E+02  0.46339842409E+03  0.46287368734E+03 0.  0.
      99925    2    3    3    0    0  0.62945880651E+02  0.24281567288E+02 -0.86049042312E+02  0.28483768658E+03  0.26301386201E+03 0.  0.
         25    1    4    4    0    0  0.79000199989E+01  0.41251043435E+02 -0.58759137286E+02  0.14444446412E+03  0.12509000000E+03 0.  0.
         25    1    4    4    0    0  0.55045860652E+02 -0.16969476146E+02 -0.27289905026E+02  0.14039322246E+03  0.12509000000E+03 0.  0.
         25    1    3    3    0    0 -0.62945880651E+02 -0.24281567288E+02  0.10809556180E+03  0.17856073751E+03  0.12509000000E+03 0.  0.
<mgrwt>
<rscale>  2 0.46287369E+03</rscale>
<asrwt>0</asrwt>
<pdfrwt beam="1">  1       21 0.35694481E-01 0.46287369E+03</pdfrwt>
<pdfrwt beam="2">  1       21 0.32452346E-01 0.46287369E+03</pdfrwt>
<totfact> 0.63829663E+04</totfact>
</mgrwt>
</event>
<event>
 7    0  0.4766352E-002  0.4545653E+03  0.7546771E-02  0.1026369E+00
         21   -1    0    0  502  501  0.00000000000E+00  0.00000000000E+00  0.13748546899E+04  0.13748546899E+04  0.00000000000E+00 0.  1.
         21   -1    0    0  501  502 -0.00000000000E+00 -0.00000000000E+00 -0.37572992806E+02  0.37572992806E+02  0.00000000000E+00 0.  1.
      99926    2    1    2    0    0 -0.35527136788E-14  0.14210854715E-13  0.13372816971E+04  0.14124276827E+04  0.45456531048E+03 0.  0.
      99925    2    3    3    0    0 -0.19802333904E+02  0.10181056138E+03  0.97845644097E+03  0.10185233855E+04  0.26316412573E+03 0.  0.
         25    1    3    3    0    0  0.19802333904E+02 -0.10181056138E+03  0.35882525613E+03  0.39390429723E+03  0.12509000000E+03 0.  0.
         25    1    4    4    0    0  0.29075067341E+02  0.61755731275E+02  0.47330358413E+03  0.49429032029E+03  0.12509000000E+03 0.  0.
         25    1    4    4    0    0 -0.48877401245E+02  0.40054830101E+02  0.50515285684E+03  0.52423306520E+03  0.12509000000E+03 0.  0.
<mgrwt>
<rscale>  2 0.45456531E+03</rscale>
<asrwt>0</asrwt>
<pdfrwt beam="1">  1       21 0.20218448E+00 0.45456531E+03</pdfrwt>
<pdfrwt beam="2">  1       21 0.55254410E-02 0.45456531E+03</pdfrwt>
<totfact> 0.26090731E+04</totfact>
</mgrwt>
</event>
<event>
 7    0  0.4766352E-002  0.4518030E+03  0.7546771E-02  0.1027186E+00
         21   -1    0    0  502  501  0.00000000000E+00  0.00000000000E+00  0.10823575836E+03  0.10823575836E+03  0.00000000000E+00 0.  1.
         21   -1    0    0  501  502 -0.00000000000E+00 -0.00000000000E+00 -0.47148463429E+03  0.47148463429E+03  0.00000000000E+00 0.  1.
      99926    2    1    2    0    0  0.00000000000E+00  0.17763568394E-14 -0.36324887593E+03  0.57972039264E+03  0.45180304092E+03 0.  0.
      99925    2    3    3    0    0  0.21287063077E+02 -0.15058231053E+02 -0.91936650054E+02  0.27982420829E+03  0.26300066644E+03 0.  0.
         25    1    3    3    0    0 -0.21287063077E+02  0.15058231053E+02 -0.27131222588E+03  0.29989618435E+03  0.12509000000E+03 0.  0.
         25    1    4    4    0    0 -0.23058529415E+02  0.32589071708E+01 -0.66083547301E+02  0.14337663540E+03  0.12509000000E+03 0.  0.
         25    1    4    4    0    0  0.44345592493E+02 -0.18317138224E+02 -0.25853102754E+02  0.13644757289E+03  0.12509000000E+03 0.  0.
<mgrwt>
<rscale>  2 0.45180304E+03</rscale>
<asrwt>0</asrwt>
<pdfrwt beam="1">  1       21 0.15917023E-01 0.45180304E+03</pdfrwt>
<pdfrwt beam="2">  1       21 0.69335976E-01 0.45180304E+03</pdfrwt>
<totfact> 0.61483491E+04</totfact>
</mgrwt>
</event>
<event>
 7    0  0.4766352E-002  0.4585732E+03  0.7546771E-02  0.1025196E+00
         21   -1    0    0  502  501  0.00000000000E+00  0.00000000000E+00  0.88515538253E+02  0.88515538253E+02  0.00000000000E+00 0. -1.
         21   -1    0    0  501  502 -0.00000000000E+00 -0.00000000000E+00 -0.59393361057E+03  0.59393361057E+03  0.00000000000E+00 0. -1.
      99926    2    1    2    0    0 -0.14210854715E-13  0.14210854715E-13 -0.50541807232E+03  0.68244914882E+03  0.45857323614E+03 0.  0.
      99925    2    3    3    0    0 -0.77133170684E+02  0.86742639707E+02 -0.33139080962E+03  0.43871403066E+03  0.26301391681E+03 0.  0.
         25    1    3    3    0    0  0.77133170684E+02 -0.86742639707E+02 -0.17402726270E+03  0.24373511816E+03  0.12509000000E+03 0.  0.
         25    1    4    4    0    0 -0.89657532406E+01  0.11283302573E+02 -0.13444907528E+03  0.18420575342E+03  0.12509000000E+03 0.  0.
         25    1    4    4    0    0 -0.68167417444E+02  0.75459337134E+02 -0.19694173434E+03  0.25450827725E+03  0.12509000000E+03 0.  0.
<mgrwt>
<rscale>  2 0.45857324E+03</rscale>
<asrwt>0</asrwt>
<pdfrwt beam="1">  1       21 0.13016991E-01 0.45857324E+03</pdfrwt>
<pdfrwt beam="2">  1       21 0.87343177E-01 0.45857324E+03</pdfrwt>
<totfact> 0.52376809E+04</totfact>
</mgrwt>
</event>
<event>
 7    0  0.4766352E-002  0.4580821E+03  0.7546771E-02  0.1025339E+00
         21   -1    0    0  502  501  0.00000000000E+00  0.00000000000E+00  0.62856186958E+02  0.62856186958E+02  0.00000000000E+00 0.  1.
         21   -1    0    0  501  502 -0.00000000000E+00 -0.00000000000E+00 -0.83460036970E+03  0.83460036970E+03  0.00000000000E+00 0.  1.
      99926    2    1    2    0    0  0.00000000000E+00  0.00000000000E+00 -0.77174418275E+03  0.89745655666E+03  0.45808207506E+03 0.  0.
      99925    2    3    3    0    0  0.89122125231E+02 -0.86946786383E+01 -0.62917399312E+03  0.68771357653E+03  0.26281495218E+03 0.  0.
         25    1    4    4    0    0  0.82503667751E+02  0.45352715872E+01 -0.30290393132E+03  0.33797296281E+03  0.12509000000E+03 0.  0.
         25    1    4    4    0    0  0.66184574799E+01 -0.13229950225E+02 -0.32627006180E+03  0.34974061373E+03  0.12509000000E+03 0.  0.
         25    1    3    3    0    0 -0.89122125231E+02  0.86946786383E+01 -0.14257018963E+03  0.20974298013E+03  0.12509000000E+03 0.  0.
<mgrwt>
<rscale>  2 0.45808208E+03</rscale>
<asrwt>0</asrwt>
<pdfrwt beam="1">  1       21 0.92435567E-02 0.45808208E+03</pdfrwt>
<pdfrwt beam="2">  1       21 0.12273535E+00 0.45808208E+03</pdfrwt>
<totfact> 0.42313446E+04</totfact>
</mgrwt>
</event>
<event>
 7    0  0.4766352E-002  0.4223511E+03  0.7546771E-02  0.1036304E+00
         21   -1    0    0  502  501  0.00000000000E+00  0.00000000000E+00  0.99129033081E+02  0.99129033081E+02  0.00000000000E+00 0.  1.
         21   -1    0    0  501  502 -0.00000000000E+00 -0.00000000000E+00 -0.44986935190E+03  0.44986935190E+03  0.00000000000E+00 0.  1.
      99926    2    1    2    0    0  0.22204460493E-15 -0.71054273576E-14 -0.35074031882E+03  0.54899838498E+03  0.42235110449E+03 0.  0.
      99925    2    3    3    0    0  0.11598526652E+01 -0.46401772300E+02 -0.14533482233E+03  0.30406289180E+03  0.26301627679E+03 0.  0.
         25    1    4    4    0    0  0.33414334092E+02 -0.47046207087E+02 -0.70096089295E+02  0.15456659781E+03  0.12509000000E+03 0.  0.
         25    1    3    3    0    0 -0.11598526652E+01  0.46401772300E+02 -0.20540549649E+03  0.24493549318E+03  0.12509000000E+03 0.  0.
         25    1    4    4    0    0 -0.32254481426E+02  0.64443478705E+00 -0.75238733032E+02  0.14949629399E+03  0.12509000000E+03 0.  0.
<mgrwt>
<rscale>  2 0.42235110E+03</rscale>
<asrwt>0</asrwt>
<pdfrwt beam="1">  1       21 0.14577799E-01 0.42235110E+03</pdfrwt>
<pdfrwt beam="2">  1       21 0.66157259E-01 0.42235110E+03</pdfrwt>
<totfact> 0.80888843E+04</totfact>
</mgrwt>
</event>
<event>
 7    0  0.4766352E-002  0.4632359E+03  0.7546771E-02  0.1023847E+00
         21   -1    0    0  502  501  0.00000000000E+00  0.00000000000E+00  0.54220140697E+03  0.54220140697E+03  0.00000000000E+00 0. -1.
         21   -1    0    0  501  502 -0.00000000000E+00 -0.00000000000E+00 -0.98942699155E+02  0.98942699155E+02  0.00000000000E+00 0. -1.
      99926    2    1    2    0    0  0.00000000000E+00  0.14210854715E-13  0.44325870782E+03  0.64114410613E+03  0.46323588243E+03 0.  0.
      99925    2    3    3    0    0 -0.34398200891E+02 -0.11513114647E+03  0.26108139769E+03  0.38959988032E+03  0.26303260903E+03 0.  0.
         25    1    4    4    0    0 -0.12480496073E+02 -0.97169031878E+02  0.16719475521E+03  0.23064946956E+03  0.12509000000E+03 0.  0.
         25    1    4    4    0    0 -0.21917704818E+02 -0.17962114594E+02  0.93886642485E+02  0.15895041076E+03  0.12509000000E+03 0.  0.
         25    1    3    3    0    0  0.34398200891E+02  0.11513114647E+03  0.18217731013E+03  0.25154422581E+03  0.12509000000E+03 0.  0.
<mgrwt>
<rscale>  2 0.46323588E+03</rscale>
<asrwt>0</asrwt>
<pdfrwt beam="1">  1       21 0.79735500E-01 0.46323588E+03</pdfrwt>
<pdfrwt beam="2">  1       21 0.14550397E-01 0.46323588E+03</pdfrwt>
<totfact> 0.52704566E+04</totfact>
</mgrwt>
</event>
<event>
 7    0  0.4766352E-002  0.4472019E+03  0.7546771E-02  0.1028560E+00
         21   -1    0    0  502  501  0.00000000000E+00  0.00000000000E+00  0.17112022217E+03  0.17112022217E+03  0.00000000000E+00 0.  1.
         21   -1    0    0  501  502 -0.00000000000E+00 -0.00000000000E+00 -0.29217700961E+03  0.29217700961E+03  0.00000000000E+00 0.  1.
      99926    2    1    2    0    0  0.71054273576E-14  0.00000000000E+00 -0.12105678743E+03  0.46329723178E+03  0.44720194453E+03 0.  0.
      99925    2    3    3    0    0 -0.49364995047E+02  0.87780533112E+02 -0.11006368338E+03  0.30232928103E+03  0.26295751566E+03 0.  0.
         25    1    4    4    0    0 -0.49951578933E+02  0.78884915674E+02 -0.64635916318E+02  0.16894762483E+03  0.12509000000E+03 0.  0.
         25    1    4    4    0    0  0.58658388633E+00  0.88956174382E+01 -0.45427767064E+02  0.13338165620E+03  0.12509000000E+03 0.  0.
         25    1    3    3    0    0  0.49364995047E+02 -0.87780533112E+02 -0.10993104052E+02  0.16096795074E+03  0.12509000000E+03 0.  0.
<mgrwt>
<rscale>  2 0.44720194E+03</rscale>
<asrwt>0</asrwt>
<pdfrwt beam="1">  1       21 0.25164739E-01 0.44720194E+03</pdfrwt>
<pdfrwt beam="2">  1       21 0.42967207E-01 0.44720194E+03</pdfrwt>
<totfact> 0.72308058E+04</totfact>
</mgrwt>
</event>
<event>
 7    0  0.4766352E-002  0.4544838E+03  0.7546771E-02  0.1026393E+00
         21   -1    0    0  502  501  0.00000000000E+00  0.00000000000E+00  0.53812963484E+03  0.53812963484E+03  0.00000000000E+00 0. -1.
         21   -1    0    0  501  502 -0.00000000000E+00 -0.00000000000E+00 -0.95959911587E+02  0.95959911587E+02  0.00000000000E+00 0. -1.
      99926    2    1    2    0    0  0.14210854715E-13 -0.14210854715E-13  0.44216972325E+03  0.63408954643E+03  0.45448376068E+03 0.  0.
      99925    2    3    3    0    0 -0.76812495976E+02  0.70102413014E+02  0.33805515038E+03  0.44095265137E+03  0.26333144173E+03 0.  0.
         25    1    4    4    0    0 -0.77355873898E+02  0.43938225074E+02  0.20915873142E+03  0.25944051703E+03  0.12509000000E+03 0.  0.
         25    1    4    4    0    0  0.54337792259E+00  0.26164187940E+02  0.12889641896E+03  0.18151213433E+03  0.12509000000E+03 0.  0.
         25    1    3    3    0    0  0.76812495976E+02 -0.70102413014E+02  0.10411457288E+03  0.19313689506E+03  0.12509000000E+03 0.  0.
<mgrwt>
<rscale>  2 0.45448376E+03</rscale>
<asrwt>0</asrwt>
<pdfrwt beam="1">  1       21 0.79136709E-01 0.45448376E+03</pdfrwt>
<pdfrwt beam="2">  1       21 0.14111752E-01 0.45448376E+03</pdfrwt>
<totfact> 0.56858857E+04</totfact>
</mgrwt>
</event>
<event>
 7    0  0.4766352E-002  0.4539101E+03  0.7546771E-02  0.1026562E+00
         21   -1    0    0  502  501  0.00000000000E+00  0.00000000000E+00  0.87372646461E+02  0.87372646461E+02  0.00000000000E+00 0.  1.
         21   -1    0    0  501  502 -0.00000000000E+00 -0.00000000000E+00 -0.58952761855E+03  0.58952761855E+03  0.00000000000E+00 0.  1.
      99926    2    1    2    0    0  0.00000000000E+00 -0.62172489379E-14 -0.50215497209E+03  0.67690026501E+03  0.45391007125E+03 0.  0.
      99925    2    3    3    0    0 -0.66453106421E+02 -0.15320898619E+01 -0.45085624158E+03  0.52624360069E+03  0.26313991344E+03 0.  0.
         25    1    4    4    0    0 -0.11731421187E+02  0.34304684323E+02 -0.21444536234E+03  0.25089591296E+03  0.12509000000E+03 0.  0.
         25    1    3    3    0    0  0.66453106421E+02  0.15320898619E+01 -0.51298730517E+02  0.15065666432E+03  0.12509000000E+03 0.  0.
         25    1    4    4    0    0 -0.54721685234E+02 -0.35836774184E+02 -0.23641087924E+03  0.27534768774E+03  0.12509000000E+03 0.  0.
<mgrwt>
<rscale>  2 0.45391007E+03</rscale>
<asrwt>0</asrwt>
<pdfrwt beam="1">  1       21 0.12848918E-01 0.45391007E+03</pdfrwt>
<pdfrwt beam="2">  1       21 0.86695241E-01 0.45391007E+03</pdfrwt>
<totfact> 0.54643232E+04</totfact>
</mgrwt>
</event>
<event>
 7    0  0.4766352E-002  0.4527896E+03  0.7546771E-02  0.1026893E+00
         21   -1    0    0  502  501  0.00000000000E+00  0.00000000000E+00  0.26086599118E+03  0.26086599118E+03  0.00000000000E+00 0.  1.
         21   -1    0    0  501  502 -0.00000000000E+00 -0.00000000000E+00 -0.19647871464E+03  0.19647871464E+03  0.00000000000E+00 0.  1.
      99926    2    1    2    0    0  0.00000000000E+00  0.00000000000E+00  0.64387276541E+02  0.45734470582E+03  0.45278964052E+03 0.  0.
      99925    2    3    3    0    0 -0.57164706873E+02 -0.94675884812E+02  0.45321885949E+02  0.28929017868E+03  0.26344526425E+03 0.  0.
         25    1    4    4    0    0 -0.16109557515E+02 -0.80741005339E+02  0.12562928992E+01  0.14975885336E+03  0.12509000000E+03 0.  0.
         25    1    3    3    0    0  0.57164706873E+02  0.94675884812E+02  0.19065390592E+02  0.16805452715E+03  0.12509000000E+03 0.  0.
         25    1    4    4    0    0 -0.41055149358E+02 -0.13934879473E+02  0.44065593050E+02  0.13953132532E+03  0.12509000000E+03 0.  0.
<mgrwt>
<rscale>  2 0.45278964E+03</rscale>
<asrwt>0</asrwt>
<pdfrwt beam="1">  1       21 0.38362646E-01 0.45278964E+03</pdfrwt>
<pdfrwt beam="2">  1       21 0.28893929E-01 0.45278964E+03</pdfrwt>
<totfact> 0.69593174E+04</totfact>
</mgrwt>
</event>
<event>
 7    0  0.4766352E-002  0.4544482E+03  0.7546771E-02  0.1026404E+00
         21   -1    0    0  502  501  0.00000000000E+00  0.00000000000E+00  0.11011147744E+03  0.11011147744E+03  0.00000000000E+00 0. -1.
         21   -1    0    0  501  502 -0.00000000000E+00 -0.00000000000E+00 -0.46889566999E+03  0.46889566999E+03  0.00000000000E+00 0. -1.
      99926    2    1    2    0    0  0.00000000000E+00  0.00000000000E+00 -0.35878419255E+03  0.57900714743E+03  0.45444821482E+03 0.  0.
      99925    2    3    3    0    0 -0.79334626168E+02 -0.74482475208E+02 -0.26289596079E+03  0.38747729829E+03  0.26302613648E+03 0.  0.
         25    1    4    4    0    0 -0.31475430277E+02 -0.45179469616E+02 -0.78219548166E+02  0.15747283258E+03  0.12509000000E+03 0.  0.
         25    1    4    4    0    0 -0.47859195891E+02 -0.29303005592E+02 -0.18467641262E+03  0.23000446571E+03  0.12509000000E+03 0.  0.
         25    1    3    3    0    0  0.79334626168E+02  0.74482475208E+02 -0.95888231764E+02  0.19152984914E+03  0.12509000000E+03 0.  0.
<mgrwt>
<rscale>  2 0.45444821E+03</rscale>
<asrwt>0</asrwt>
<pdfrwt beam="1">  1       21 0.16192864E-01 0.45444821E+03</pdfrwt>
<pdfrwt beam="2">  1       21 0.68955246E-01 0.45444821E+03</pdfrwt>
<totfact> 0.60251813E+04</totfact>
</mgrwt>
</event>
<event>
 7    0  0.4766352E-002  0.4573361E+03  0.7546771E-02  0.1025557E+00
         21   -1    0    0  502  501  0.00000000000E+00  0.00000000000E+00  0.74445618551E+03  0.74445618551E+03  0.00000000000E+00 0. -1.
         21   -1    0    0  501  502 -0.00000000000E+00 -0.00000000000E+00 -0.70237938271E+02  0.70237938271E+02  0.00000000000E+00 0. -1.
      99926    2    1    2    0    0  0.71054273576E-14  0.88817841970E-15  0.67421824724E+03  0.81469412378E+03  0.45733605851E+03 0.  0.
      99925    2    3    3    0    0 -0.49829725976E+02  0.45468479314E+01  0.23842165897E+03  0.35854738219E+03  0.26307349238E+03 0.  0.
         25    1    3    3    0    0  0.49829725976E+02 -0.45468479314E+01  0.43579658827E+03  0.45614674159E+03  0.12509000000E+03 0.  0.
         25    1    4    4    0    0  0.57056007160E+01  0.21014514205E+02  0.14101496494E+03  0.18975482109E+03  0.12509000000E+03 0.  0.
         25    1    4    4    0    0 -0.55535326692E+02 -0.16467666274E+02  0.97406694025E+02  0.16879256110E+03  0.12509000000E+03 0.  0.
<mgrwt>
<rscale>  2 0.45733606E+03</rscale>
<asrwt>0</asrwt>
<pdfrwt beam="1">  1       21 0.10947885E+00 0.45733606E+03</pdfrwt>
<pdfrwt beam="2">  1       21 0.10329109E-01 0.45733606E+03</pdfrwt>
<totfact> 0.46209372E+04</totfact>
</mgrwt>
</event>
<event>
 7    0  0.4766352E-002  0.4461507E+03  0.7546771E-02  0.1028876E+00
         21   -1    0    0  502  501  0.00000000000E+00  0.00000000000E+00  0.40241732386E+02  0.40241732386E+02  0.00000000000E+00 0.  1.
         21   -1    0    0  501  502 -0.00000000000E+00 -0.00000000000E+00 -0.12365923481E+04  0.12365923481E+04  0.00000000000E+00 0.  1.
      99926    2    1    2    0    0 -0.71054273576E-14  0.00000000000E+00 -0.11963506157E+04  0.12768340805E+04  0.44615072943E+03 0.  0.
      99925    2    3    3    0    0 -0.46630149965E+02  0.21503146351E+02 -0.49776281736E+03  0.56528002330E+03  0.26293901614E+03 0.  0.
         25    1    3    3    0    0  0.46630149965E+02 -0.21503146351E+02 -0.69858779836E+03  0.71155405720E+03  0.12509000000E+03 0.  0.
         25    1    4    4    0    0 -0.51426967254E+02  0.65433024783E+01 -0.31884260577E+03  0.34640390172E+03  0.12509000000E+03 0.  0.
         25    1    4    4    0    0  0.47968172889E+01  0.14959843873E+02 -0.17892021159E+03  0.21887612158E+03  0.12509000000E+03 0.  0.
<mgrwt>
<rscale>  2 0.44615073E+03</rscale>
<asrwt>0</asrwt>
<pdfrwt beam="1">  1       21 0.59179020E-02 0.44615073E+03</pdfrwt>
<pdfrwt beam="2">  1       21 0.18185181E+00 0.44615073E+03</pdfrwt>
<totfact> 0.31937578E+04</totfact>
</mgrwt>
</event>
<event>
 7    0  0.4766352E-002  0.4591858E+03  0.7546771E-02  0.1025018E+00
         21   -1    0    0  502  501  0.00000000000E+00  0.00000000000E+00  0.10518109392E+04  0.10518109392E+04  0.00000000000E+00 0. -1.
         21   -1    0    0  501  502 -0.00000000000E+00 -0.00000000000E+00 -0.50116323449E+02  0.50116323449E+02  0.00000000000E+00 0. -1.
      99926    2    1    2    0    0  0.00000000000E+00  0.00000000000E+00  0.10016946157E+04  0.11019272626E+04  0.45918578914E+03 0.  0.
      99925    2    3    3    0    0  0.13092088332E+02  0.71159539285E+02  0.40621135712E+03  0.48916066580E+03  0.26274589912E+03 0.  0.
         25    1    3    3    0    0 -0.13092088332E+02 -0.71159539285E+02  0.59548325862E+03  0.61276659684E+03  0.12509000000E+03 0.  0.
         25    1    4    4    0    0  0.21832931581E+02  0.74204623050E+02  0.22225912677E+03  0.26651384676E+03  0.12509000000E+03 0.  0.
         25    1    4    4    0    0 -0.87408432494E+01 -0.30450837650E+01  0.18395223035E+03  0.22264681904E+03  0.12509000000E+03 0.  0.
<mgrwt>
<rscale>  2 0.45918579E+03</rscale>
<asrwt>0</asrwt>
<pdfrwt beam="1">  1       21 0.15467807E+00 0.45918579E+03</pdfrwt>
<pdfrwt beam="2">  1       21 0.73700482E-02 0.45918579E+03</pdfrwt>
<totfact> 0.34293907E+04</totfact>
</mgrwt>
</event>
<event>
 7    0  0.6768506E-002  0.4038257E+03  0.7546771E-02  0.1042463E+00
         21   -1    0    0  502  501  0.00000000000E+00  0.00000000000E+00  0.11480366955E+03  0.11480366955E+03  0.00000000000E+00 0.  1.
         21   -1    0    0  501  502 -0.00000000000E+00 -0.00000000000E+00 -0.35511748157E+03  0.35511748157E+03  0.00000000000E+00 0.  1.
      99926    2    1    2    0    0 -0.35527136788E-14  0.00000000000E+00 -0.24031381201E+03  0.46992115112E+03  0.40382565548E+03 0.  0.
      99925    2    3    3    0    0 -0.30105439797E+02 -0.35957081026E+02 -0.13733916217E+03  0.30124828492E+03  0.26398718628E+03 0.  0.
         25    1    4    4    0    0 -0.44269000367E+02 -0.96897758885E+01 -0.10267621764E+03  0.16805817421E+03  0.12509000000E+03 0.  0.
         25    1    3    3    0    0  0.30105439797E+02  0.35957081026E+02 -0.10297464984E+03  0.16867286620E+03  0.12509000000E+03 0.  0.
         25    1    4    4    0    0  0.14163560570E+02 -0.26267305138E+02 -0.34662944533E+02  0.13319011071E+03  0.12509000000E+03 0.  0.
<mgrwt>
<rscale>  2 0.40382566E+03</rscale>
<asrwt>0</asrwt>
<pdfrwt beam="1">  1       21 0.16882892E-01 0.40382566E+03</pdfrwt>
<pdfrwt beam="2">  1       21 0.52223160E-01 0.40382566E+03</pdfrwt>
<totfact> 0.10350583E+05</totfact>
</mgrwt>
</event>
<event>
 7    0  0.4766352E-002  0.4529665E+03  0.7546771E-02  0.1026841E+00
         21   -1    0    0  502  501  0.00000000000E+00  0.00000000000E+00  0.19631671130E+03  0.19631671130E+03  0.00000000000E+00 0. -1.
         21   -1    0    0  501  502 -0.00000000000E+00 -0.00000000000E+00 -0.26128529941E+03  0.26128529941E+03  0.00000000000E+00 0. -1.
      99926    2    1    2    0    0  0.00000000000E+00  0.00000000000E+00 -0.64968588111E+02  0.45760201072E+03  0.45296653604E+03 0.  0.
      99925    2    3    3    0    0  0.28337506523E+02  0.10137621619E+03 -0.77535983381E+02  0.29363372412E+03  0.26292353211E+03 0.  0.
         25    1    3    3    0    0 -0.28337506523E+02 -0.10137621619E+03  0.12567395270E+02  0.16396828660E+03  0.12509000000E+03 0.  0.
         25    1    4    4    0    0  0.49980306640E+01  0.81767136312E+02 -0.14350351904E+02  0.15021413246E+03  0.12509000000E+03 0.  0.
         25    1    4    4    0    0  0.23339475859E+02  0.19609079879E+02 -0.63185631477E+02  0.14341959166E+03  0.12509000000E+03 0.  0.
<mgrwt>
<rscale>  2 0.45296654E+03</rscale>
<asrwt>0</asrwt>
<pdfrwt beam="1">  1       21 0.28870105E-01 0.45296654E+03</pdfrwt>
<pdfrwt beam="2">  1       21 0.38424309E-01 0.45296654E+03</pdfrwt>
<totfact> 0.69475507E+04</totfact>
</mgrwt>
</event>
<event>
 7    0  0.4766352E-002  0.4580599E+03  0.7546771E-02  0.1025345E+00
         21   -1    0    0  502  501  0.00000000000E+00  0.00000000000E+00  0.73923394595E+03  0.73923394595E+03  0.00000000000E+00 0. -1.
         21   -1    0    0  501  502 -0.00000000000E+00 -0.00000000000E+00 -0.70958198470E+02  0.70958198470E+02  0.00000000000E+00 0. -1.
      99926    2    1    2    0    0  0.71054273576E-14  0.00000000000E+00  0.66827574748E+03  0.81019214442E+03  0.45805986095E+03 0.  0.
      99925    2    3    3    0    0  0.49610821411E+02 -0.86174342585E+02  0.52695917884E+03  0.59687282604E+03  0.26207621675E+03 0.  0.
         25    1    4    4    0    0  0.43330273656E+02 -0.19500986864E+02  0.20215180699E+03  0.24242661214E+03  0.12509000000E+03 0.  0.
         25    1    3    3    0    0 -0.49610821411E+02  0.86174342585E+02  0.14131656864E+03  0.21331931838E+03  0.12509000000E+03 0.  0.
         25    1    4    4    0    0  0.62805477543E+01 -0.66673355721E+02  0.32480737184E+03  0.35444621390E+03  0.12509000000E+03 0.  0.
<mgrwt>
<rscale>  2 0.45805986E+03</rscale>
<asrwt>0</asrwt>
<pdfrwt beam="1">  1       21 0.10871087E+00 0.45805986E+03</pdfrwt>
<pdfrwt beam="2">  1       21 0.10435030E-01 0.45805986E+03</pdfrwt>
<totfact> 0.46157452E+04</totfact>
</mgrwt>
</event>
<event>
 7    0  0.4766352E-002  0.4505360E+03  0.7546771E-02  0.1027562E+00
         21   -1    0    0  502  501  0.00000000000E+00  0.00000000000E+00  0.18369611094E+03  0.18369611094E+03  0.00000000000E+00 0. -1.
         21   -1    0    0  501  502 -0.00000000000E+00 -0.00000000000E+00 -0.27624794518E+03  0.27624794518E+03  0.00000000000E+00 0. -1.
      99926    2    1    2    0    0  0.00000000000E+00  0.35527136788E-14 -0.92551834239E+02  0.45994405613E+03  0.45053600605E+03 0.  0.
      99925    2    3    3    0    0  0.10055834111E+03 -0.22487428501E+02 -0.94679146453E+02  0.29786476083E+03  0.26294792367E+03 0.  0.
         25    1    3    3    0    0 -0.10055834111E+03  0.22487428501E+02  0.21273122137E+01  0.16207929530E+03  0.12509000000E+03 0.  0.
         25    1    4    4    0    0  0.20398611258E+02 -0.39710056161E+02 -0.46847455336E+02  0.14083743846E+03  0.12509000000E+03 0.  0.
         25    1    4    4    0    0  0.80159729852E+02  0.17222627660E+02 -0.47831691116E+02  0.15702732236E+03  0.12509000000E+03 0.  0.
<mgrwt>
<rscale>  2 0.45053601E+03</rscale>
<asrwt>0</asrwt>
<pdfrwt beam="1">  1       21 0.27014134E-01 0.45053601E+03</pdfrwt>
<pdfrwt beam="2">  1       21 0.40624698E-01 0.45053601E+03</pdfrwt>
<totfact> 0.70660802E+04</totfact>
</mgrwt>
</event>
<event>
 7    0  0.4766352E-002  0.4405743E+03  0.7546771E-02  0.1030571E+00
         21   -1    0    0  502  501  0.00000000000E+00  0.00000000000E+00  0.16037143424E+03  0.16037143424E+03  0.00000000000E+00 0. -1.
         21   -1    0    0  501  502 -0.00000000000E+00 -0.00000000000E+00 -0.30258774932E+03  0.30258774932E+03  0.00000000000E+00 0. -1.
      99926    2    1    2    0    0  0.00000000000E+00  0.00000000000E+00 -0.14221631508E+03  0.46295918356E+03  0.44057431310E+03 0.  0.
      99925    2    3    3    0    0  0.65062745198E+02 -0.69762454199E+02 -0.11873627355E+03  0.30390327742E+03  0.26298087105E+03 0.  0.
         25    1    4    4    0    0  0.34635374123E+02 -0.69458834315E+02 -0.38339149554E+02  0.15212342783E+03  0.12509000000E+03 0.  0.
         25    1    4    4    0    0  0.30427371075E+02 -0.30361988448E+00 -0.80397123992E+02  0.15177984959E+03  0.12509000000E+03 0.  0.
         25    1    3    3    0    0 -0.65062745198E+02  0.69762454199E+02 -0.23480041535E+02  0.15905590614E+03  0.12509000000E+03 0.  0.
<mgrwt>
<rscale>  2 0.44057431E+03</rscale>
<asrwt>0</asrwt>
<pdfrwt beam="1">  1       21 0.23584035E-01 0.44057431E+03</pdfrwt>
<pdfrwt beam="2">  1       21 0.44498198E-01 0.44057431E+03</pdfrwt>
<totfact> 0.76332804E+04</totfact>
</mgrwt>
</event>
<event>
 7    0  0.4766352E-002  0.4616348E+03  0.7546771E-02  0.1024308E+00
         21   -1    0    0  502  501  0.00000000000E+00  0.00000000000E+00  0.14219857065E+03  0.14219857065E+03  0.00000000000E+00 0. -1.
         21   -1    0    0  501  502 -0.00000000000E+00 -0.00000000000E+00 -0.37466390668E+03  0.37466390668E+03  0.00000000000E+00 0. -1.
      99926    2    1    2    0    0  0.35527136788E-14  0.00000000000E+00 -0.23246533603E+03  0.51686247733E+03  0.46163479940E+03 0.  0.
      99925    2    3    3    0    0  0.23246160590E+02 -0.24219631716E+02 -0.19496242107E+02  0.26760293867E+03  0.26477208083E+03 0.  0.
         25    1    3    3    0    0 -0.23246160590E+02  0.24219631716E+02 -0.21296909393E+03  0.24925953866E+03  0.12509000000E+03 0.  0.
         25    1    4    4    0    0  0.95062468599E+01 -0.24076315499E+02  0.31910485786E+02  0.13166557979E+03  0.12509000000E+03 0.  0.
         25    1    4    4    0    0  0.13739913730E+02 -0.14331621704E+00 -0.51406727893E+02  0.13593735889E+03  0.12509000000E+03 0.  0.
<mgrwt>
<rscale>  2 0.46163480E+03</rscale>
<asrwt>0</asrwt>
<pdfrwt beam="1">  1       21 0.20911554E-01 0.46163480E+03</pdfrwt>
<pdfrwt beam="2">  1       21 0.55097634E-01 0.46163480E+03</pdfrwt>
<totfact> 0.60834871E+04</totfact>
</mgrwt>
</event>
<event>
 7    0  0.4766352E-002  0.4579484E+03  0.7546771E-02  0.1025378E+00
         21   -1    0    0  502  501  0.00000000000E+00  0.00000000000E+00  0.53699289481E+03  0.53699289481E+03  0.00000000000E+00 0.  1.
         21   -1    0    0  501  502 -0.00000000000E+00 -0.00000000000E+00 -0.97634800328E+02  0.97634800328E+02  0.00000000000E+00 0.  1.
      99926    2    1    2    0    0  0.00000000000E+00  0.00000000000E+00  0.43935809448E+03  0.63462769514E+03  0.45794844278E+03 0.  0.
      99925    2    3    3    0    0 -0.63897395493E+02 -0.64926041990E+02  0.37589652617E+03  0.46737594826E+03  0.26238104076E+03 0.  0.
         25    1    3    3    0    0  0.63897395493E+02  0.64926041990E+02  0.63461568308E+02  0.16725174687E+03  0.12509000000E+03 0.  0.
         25    1    4    4    0    0  0.64891236912E+01 -0.33857739650E+02  0.19747759196E+03  0.23629084343E+03  0.12509000000E+03 0.  0.
         25    1    4    4    0    0 -0.70386519184E+02 -0.31068302340E+02  0.17841893421E+03  0.23108510484E+03  0.12509000000E+03 0.  0.
<mgrwt>
<rscale>  2 0.45794844E+03</rscale>
<asrwt>0</asrwt>
<pdfrwt beam="1">  1       21 0.78969542E-01 0.45794844E+03</pdfrwt>
<pdfrwt beam="2">  1       21 0.14358059E-01 0.45794844E+03</pdfrwt>
<totfact> 0.55297709E+04</totfact>
</mgrwt>
</event>
<event>
 7    0  0.4766352E-002  0.4509706E+03  0.7546771E-02  0.1027433E+00
         21   -1    0    0  502  501  0.00000000000E+00  0.00000000000E+00  0.17799902718E+03  0.17799902718E+03  0.00000000000E+00 0. -1.
         21   -1    0    0  501  502 -0.00000000000E+00 -0.00000000000E+00 -0.28563984735E+03  0.28563984735E+03  0.00000000000E+00 0. -1.
      99926    2    1    2    0    0  0.00000000000E+00  0.00000000000E+00 -0.10764082017E+03  0.46363887452E+03  0.45097057532E+03 0.  0.
      99925    2    3    3    0    0  0.69897122025E+02 -0.80564016631E+02 -0.92561507049E+02  0.29855991697E+03  0.26304794808E+03 0.  0.
         25    1    4    4    0    0  0.30548835515E+01 -0.51502456937E+02 -0.68967165862E+02  0.15187433441E+03  0.12509000000E+03 0.  0.
         25    1    3    3    0    0 -0.69897122025E+02  0.80564016631E+02 -0.15079313121E+02  0.16507895755E+03  0.12509000000E+03 0.  0.
         25    1    4    4    0    0  0.66842238474E+02 -0.29061559694E+02 -0.23594341188E+02  0.14668558256E+03  0.12509000000E+03 0.  0.
<mgrwt>
<rscale>  2 0.45097058E+03</rscale>
<asrwt>0</asrwt>
<pdfrwt beam="1">  1       21 0.26176328E-01 0.45097058E+03</pdfrwt>
<pdfrwt beam="2">  1       21 0.42005860E-01 0.45097058E+03</pdfrwt>
<totfact> 0.70126700E+04</totfact>
</mgrwt>
</event>
<event>
 7    0  0.4766352E-002  0.4363515E+03  0.7546771E-02  0.1031872E+00
         21   -1    0    0  502  501  0.00000000000E+00  0.00000000000E+00  0.17209415939E+02  0.17209415939E+02  0.00000000000E+00 0. -1.
         21   -1    0    0  501  502 -0.00000000000E+00 -0.00000000000E+00 -0.27659663108E+04  0.27659663108E+04  0.00000000000E+00 0. -1.
      99926    2    1    2    0    0  0.35527136788E-14  0.00000000000E+00 -0.27487568949E+04  0.27831757268E+04  0.43635153130E+03 0.  0.
      99925    2    3    3    0    0 -0.17000372149E+02 -0.89876777321E+02 -0.19184029386E+04  0.19384852222E+04  0.26284648359E+03 0.  0.
         25    1    4    4    0    0 -0.37266693837E+02 -0.31557395621E+02 -0.76745520848E+03  0.77911467757E+03  0.12509000000E+03 0.  0.
         25    1    4    4    0    0  0.20266321688E+02 -0.58319381700E+02 -0.11509477301E+04  0.11593705446E+04  0.12509000000E+03 0.  0.
         25    1    3    3    0    0  0.17000372149E+02  0.89876777321E+02 -0.83035395627E+03  0.84469050459E+03  0.12509000000E+03 0.  0.
<mgrwt>
<rscale>  2 0.43635153E+03</rscale>
<asrwt>0</asrwt>
<pdfrwt beam="1">  1       21 0.25307974E-02 0.43635153E+03</pdfrwt>
<pdfrwt beam="2">  1       21 0.40675960E+00 0.43635153E+03</pdfrwt>
<totfact> 0.53867650E+03</totfact>
</mgrwt>
</event>
<event>
 7    0  0.4766352E-002  0.4542446E+03  0.7546771E-02  0.1026464E+00
         21   -1    0    0  502  501  0.00000000000E+00  0.00000000000E+00  0.19642264832E+03  0.19642264832E+03  0.00000000000E+00 0. -1.
         21   -1    0    0  501  502 -0.00000000000E+00 -0.00000000000E+00 -0.26262010706E+03  0.26262010706E+03  0.00000000000E+00 0. -1.
      99926    2    1    2    0    0  0.00000000000E+00  0.00000000000E+00 -0.66197458747E+02  0.45904275538E+03  0.45424459020E+03 0.  0.
      99925    2    3    3    0    0 -0.14934438830E+02  0.56798828556E+02  0.55187273113E+02  0.27511095928E+03  0.26304231677E+03 0.  0.
         25    1    4    4    0    0 -0.29690803053E+02  0.54261506860E+02  0.54133145025E+01  0.13965194945E+03  0.12509000000E+03 0.  0.
         25    1    4    4    0    0  0.14756364223E+02  0.25373216965E+01  0.49773958611E+02  0.13545900982E+03  0.12509000000E+03 0.  0.
         25    1    3    3    0    0  0.14934438830E+02 -0.56798828556E+02 -0.12138473186E+03  0.18393179610E+03  0.12509000000E+03 0.  0.
<mgrwt>
<rscale>  2 0.45424459E+03</rscale>
<asrwt>0</asrwt>
<pdfrwt beam="1">  1       21 0.28885684E-01 0.45424459E+03</pdfrwt>
<pdfrwt beam="2">  1       21 0.38620604E-01 0.45424459E+03</pdfrwt>
<totfact> 0.68663099E+04</totfact>
</mgrwt>
</event>
<event>
 7    0  0.4766352E-002  0.4208399E+03  0.7546771E-02  0.1036793E+00
         21   -1    0    0  502  501  0.00000000000E+00  0.00000000000E+00  0.26037840825E+04  0.26037840825E+04  0.00000000000E+00 0. -1.
         21   -1    0    0  501  502 -0.00000000000E+00 -0.00000000000E+00 -0.17004696915E+02  0.17004696915E+02  0.00000000000E+00 0. -1.
      99926    2    1    2    0    0 -0.26645352591E-14  0.00000000000E+00  0.25867793856E+04  0.26207887794E+04  0.42083991804E+03 0.  0.
      99925    2    3    3    0    0  0.59214418368E+01  0.12147363607E+02  0.21553281068E+04  0.21713665548E+04  0.26307954198E+03 0.  0.
         25    1    4    4    0    0 -0.32926061789E+02 -0.21363245410E+01  0.12110546243E+04  0.12179447855E+04  0.12509000000E+03 0.  0.
         25    1    3    3    0    0 -0.59214418368E+01 -0.12147363607E+02  0.43145127880E+03  0.44942222463E+03  0.12509000000E+03 0.  0.
         25    1    4    4    0    0  0.38847503626E+02  0.14283688148E+02  0.94427348251E+03  0.95342176929E+03  0.12509000000E+03 0.  0.
<mgrwt>
<rscale>  2 0.42083992E+03</rscale>
<asrwt>0</asrwt>
<pdfrwt beam="1">  1       21 0.38290915E+00 0.42083992E+03</pdfrwt>
<pdfrwt beam="2">  1       21 0.25006925E-02 0.42083992E+03</pdfrwt>
<totfact> 0.78633893E+03</totfact>
</mgrwt>
</event>
<event>
 7    0  0.4766352E-002  0.4524003E+03  0.7546771E-02  0.1027009E+00
         21   -1    0    0  502  501  0.00000000000E+00  0.00000000000E+00  0.11077227766E+03  0.11077227766E+03  0.00000000000E+00 0.  1.
         21   -1    0    0  501  502 -0.00000000000E+00 -0.00000000000E+00 -0.46190710135E+03  0.46190710135E+03  0.00000000000E+00 0.  1.
      99926    2    1    2    0    0  0.00000000000E+00  0.00000000000E+00 -0.35113482369E+03  0.57267937901E+03  0.45240027269E+03 0.  0.
      99925    2    3    3    0    0 -0.34511415118E+02 -0.81233596379E+02 -0.30582511201E+03  0.41302220558E+03  0.26318892115E+03 0.  0.
         25    1    3    3    0    0  0.34511415118E+02  0.81233596379E+02 -0.45309711682E+02  0.15965717343E+03  0.12509000000E+03 0.  0.
         25    1    4    4    0    0 -0.10099782061E+02  0.34855425946E+00 -0.12340271903E+03  0.17600530177E+03  0.12509000000E+03 0.  0.
         25    1    4    4    0    0 -0.24411633057E+02 -0.81582150638E+02 -0.18242239298E+03  0.23701690381E+03  0.12509000000E+03 0.  0.
<mgrwt>
<rscale>  2 0.45240027E+03</rscale>
<asrwt>0</asrwt>
<pdfrwt beam="1">  1       21 0.16290041E-01 0.45240027E+03</pdfrwt>
<pdfrwt beam="2">  1       21 0.67927516E-01 0.45240027E+03</pdfrwt>
<totfact> 0.61649816E+04</totfact>
</mgrwt>
</event>
<event>
 7    0  0.4766352E-002  0.4551312E+03  0.7546771E-02  0.1026203E+00
         21   -1    0    0  502  501  0.00000000000E+00  0.00000000000E+00  0.15266988481E+02  0.15266988481E+02  0.00000000000E+00 0. -1.
         21   -1    0    0  501  502 -0.00000000000E+00 -0.00000000000E+00 -0.33920314867E+04  0.33920314867E+04  0.00000000000E+00 0. -1.
      99926    2    1    2    0    0  0.00000000000E+00  0.00000000000E+00 -0.33767644982E+04  0.34072984752E+04  0.45513121464E+03 0.  0.
      99925    2    3    3    0    0 -0.85894340373E+02  0.70103073104E+02 -0.22978494349E+04  0.23155120947E+04  0.26304364056E+03 0.  0.
         25    1    3    3    0    0  0.85894340373E+02 -0.70103073104E+02 -0.10789150633E+04  0.10917863804E+04  0.12509000000E+03 0.  0.
         25    1    4    4    0    0 -0.73404862455E+02  0.24258190902E+02 -0.99475382957E+03  0.10055642313E+04  0.12509000000E+03 0.  0.
         25    1    4    4    0    0 -0.12489477918E+02  0.45844882201E+02 -0.13030956053E+04  0.13099478635E+04  0.12509000000E+03 0.  0.
<mgrwt>
<rscale>  2 0.45513121E+03</rscale>
<asrwt>0</asrwt>
<pdfrwt beam="1">  1       21 0.22451423E-02 0.45513121E+03</pdfrwt>
<pdfrwt beam="2">  1       21 0.49882884E+00 0.45513121E+03</pdfrwt>
<totfact> 0.15427908E+03</totfact>
</mgrwt>
</event>
<event>
 6    0  0.4766352E-002  0.4534185E+03  0.7546771E-02  0.1026707E+00
         21   -1    0    0  502  501  0.00000000000E+00  0.00000000000E+00  0.25939640187E+03  0.25939640187E+03  0.00000000000E+00 0. -1.
         21   -1    0    0  501  502 -0.00000000000E+00 -0.00000000000E+00 -0.19814110536E+03  0.19814110536E+03  0.00000000000E+00 0. -1.
      99926    2    1    2    0    0  0.00000000000E+00 -0.44408920985E-15  0.61255296515E+02  0.45753750723E+03  0.45341852540E+03 0.  0.
         25    1    3    3    0    0  0.80642718870E+02  0.20800386799E+02 -0.22519455484E+02  0.15195571122E+03  0.12509000000E+03 0.  0.
         25    1    3    3    0    0 -0.73589098007E+02 -0.36828263356E+01  0.10254848635E+03  0.17774312563E+03  0.12509000000E+03 0.  0.
         25    1    3    3    0    0 -0.70536208629E+01 -0.17117560464E+02 -0.18773734351E+02  0.12783867038E+03  0.12509000000E+03 0.  0.
<mgrwt>
<rscale>  2 0.45341853E+03</rscale>
<asrwt>0</asrwt>
<pdfrwt beam="1">  1       21 0.38146530E-01 0.45341853E+03</pdfrwt>
<pdfrwt beam="2">  1       21 0.29138398E-01 0.45341853E+03</pdfrwt>
<totfact> 0.69229406E+04</totfact>
</mgrwt>
</event>
<event>
 7    0  0.4766352E-002  0.4550040E+03  0.7546771E-02  0.1026240E+00
         21   -1    0    0  502  501  0.00000000000E+00  0.00000000000E+00  0.47422664996E+03  0.47422664996E+03  0.00000000000E+00 0. -1.
         21   -1    0    0  501  502 -0.00000000000E+00 -0.00000000000E+00 -0.10914010978E+03  0.10914010978E+03  0.00000000000E+00 0. -1.
      99926    2    1    2    0    0  0.00000000000E+00  0.14210854715E-13  0.36508654018E+03  0.58336675974E+03  0.45500395003E+03 0.  0.
      99925    2    3    3    0    0 -0.86814413215E+02  0.71534869151E+02  0.24663893091E+03  0.37762098436E+03  0.26289325921E+03 0.  0.
         25    1    4    4    0    0 -0.54795150223E+02  0.73604558148E+02  0.15476940694E+03  0.21913743836E+03  0.12509000000E+03 0.  0.
         25    1    4    4    0    0 -0.32019262992E+02 -0.20696889969E+01  0.91869523977E+02  0.15848354599E+03  0.12509000000E+03 0.  0.
         25    1    3    3    0    0  0.86814413215E+02 -0.71534869151E+02  0.11844760927E+03  0.20574577538E+03  0.12509000000E+03 0.  0.
<mgrwt>
<rscale>  2 0.45500395E+03</rscale>
<asrwt>0</asrwt>
<pdfrwt beam="1">  1       21 0.69739213E-01 0.45500395E+03</pdfrwt>
<pdfrwt beam="2">  1       21 0.16050016E-01 0.45500395E+03</pdfrwt>
<totfact> 0.59712082E+04</totfact>
</mgrwt>
</event>
<event>
 6    0  0.5414023E-002  0.4239206E+03  0.7546771E-02  0.1035798E+00
         21   -1    0    0  502  501  0.00000000000E+00  0.00000000000E+00  0.97513524317E+03  0.97513524317E+03  0.00000000000E+00 0. -1.
         21   -1    0    0  501  502 -0.00000000000E+00 -0.00000000000E+00 -0.46072750920E+02  0.46072750920E+02  0.00000000000E+00 0. -1.
      99926    2    1    2    0    0  0.00000000000E+00 -0.14210854715E-13  0.92906249225E+03  0.10212079941E+04  0.42392057356E+03 0.  0.
         25    1    3    3    0    0  0.24743812905E+02 -0.72277705376E+02  0.30560562178E+03  0.33893749739E+03  0.12509000000E+03 0.  0.
         25    1    3    3    0    0 -0.36614349093E+01  0.69148295874E+02  0.40673124594E+03  0.43112957154E+03  0.12509000000E+03 0.  0.
         25    1    3    3    0    0 -0.21082377995E+02  0.31294095016E+01  0.21672562452E+03  0.25114092516E+03  0.12509000000E+03 0.  0.
<mgrwt>
<rscale>  2 0.42392057E+03</rscale>
<asrwt>0</asrwt>
<pdfrwt beam="1">  1       21 0.14340223E+00 0.42392057E+03</pdfrwt>
<pdfrwt beam="2">  1       21 0.67754052E-02 0.42392057E+03</pdfrwt>
<totfact> 0.49263902E+04</totfact>
</mgrwt>
</event>
<event>
 7    0  0.4766352E-002  0.4542886E+03  0.7546771E-02  0.1026451E+00
         21   -1    0    0  502  501  0.00000000000E+00  0.00000000000E+00  0.19959074172E+03  0.19959074172E+03  0.00000000000E+00 0. -1.
         21   -1    0    0  501  502 -0.00000000000E+00 -0.00000000000E+00 -0.25850166689E+03  0.25850166689E+03  0.00000000000E+00 0. -1.
      99926    2    1    2    0    0  0.17763568394E-14 -0.14210854715E-13 -0.58910925177E+02  0.45809240861E+03  0.45428862821E+03 0.  0.
      99925    2    3    3    0    0  0.63858517880E+01  0.10671000030E+03 -0.18955384983E+01  0.28394860112E+03  0.26305020765E+03 0.  0.
         25    1    4    4    0    0 -0.20471291648E+02  0.83523087128E+02 -0.18282781101E+02  0.15289521919E+03  0.12509000000E+03 0.  0.
         25    1    3    3    0    0 -0.63858517880E+01 -0.10671000030E+03 -0.57015386678E+02  0.17414380749E+03  0.12509000000E+03 0.  0.
         25    1    4    4    0    0  0.26857143436E+02  0.23186913177E+02  0.16387242603E+02  0.13105338193E+03  0.12509000000E+03 0.  0.
<mgrwt>
<rscale>  2 0.45428863E+03</rscale>
<asrwt>0</asrwt>
<pdfrwt beam="1">  1       21 0.29351580E-01 0.45428863E+03</pdfrwt>
<pdfrwt beam="2">  1       21 0.38014951E-01 0.45428863E+03</pdfrwt>
<totfact> 0.68708761E+04</totfact>
</mgrwt>
</event>
<event>
 7    0  0.4766352E-002  0.4573371E+03  0.7546771E-02  0.1025556E+00
         21   -1    0    0  502  501  0.00000000000E+00  0.00000000000E+00  0.61600926082E+03  0.61600926082E+03  0.00000000000E+00 0. -1.
         21   -1    0    0  501  502 -0.00000000000E+00 -0.00000000000E+00 -0.84883953937E+02  0.84883953937E+02  0.00000000000E+00 0. -1.
      99926    2    1    2    0    0  0.00000000000E+00  0.00000000000E+00  0.53112530688E+03  0.70089321475E+03  0.45733708234E+03 0.  0.
      99925    2    3    3    0    0 -0.53194181650E+02  0.43381793025E+02  0.47554513388E+03  0.54776495264E+03  0.26304309164E+03 0.  0.
         25    1    4    4    0    0 -0.21915292281E+02  0.53431336184E+02  0.19412571416E+03  0.23804934094E+03  0.12509000000E+03 0.  0.
         25    1    3    3    0    0  0.53194181650E+02 -0.43381793025E+02  0.55580173003E+02  0.15312826212E+03  0.12509000000E+03 0.  0.
         25    1    4    4    0    0 -0.31278889369E+02 -0.10049543159E+02  0.28141941972E+03  0.30971561170E+03  0.12509000000E+03 0.  0.
<mgrwt>
<rscale>  2 0.45733708E+03</rscale>
<asrwt>0</asrwt>
<pdfrwt beam="1">  1       21 0.90589595E-01 0.45733708E+03</pdfrwt>
<pdfrwt beam="2">  1       21 0.12482935E-01 0.45733708E+03</pdfrwt>
<totfact> 0.51893453E+04</totfact>
</mgrwt>
</event>
<event>
 7    0  0.4766352E-002  0.4454014E+03  0.7546771E-02  0.1029102E+00
         21   -1    0    0  502  501  0.00000000000E+00  0.00000000000E+00  0.21141815472E+03  0.21141815472E+03  0.00000000000E+00 0. -1.
         21   -1    0    0  501  502 -0.00000000000E+00 -0.00000000000E+00 -0.23458532701E+03  0.23458532701E+03  0.00000000000E+00 0. -1.
      99926    2    1    2    0    0  0.00000000000E+00  0.00000000000E+00 -0.23167172286E+02  0.44600348173E+03  0.44540137836E+03 0.  0.
      99925    2    3    3    0    0 -0.40955311744E+02  0.52678540660E+02  0.65839746925E+02  0.27860543523E+03  0.26236186852E+03 0.  0.
         25    1    4    4    0    0 -0.36426029936E+02  0.41856837625E+02  0.68301023438E+02  0.15294243497E+03  0.12509000000E+03 0.  0.
         25    1    4    4    0    0 -0.45292818080E+01  0.10821703035E+02 -0.24612765131E+01  0.12566300025E+03  0.12509000000E+03 0.  0.
         25    1    3    3    0    0  0.40955311744E+02 -0.52678540660E+02 -0.89006919211E+02  0.16739804650E+03  0.12509000000E+03 0.  0.
<mgrwt>
<rscale>  2 0.44540138E+03</rscale>
<asrwt>0</asrwt>
<pdfrwt beam="1">  1       21 0.31090905E-01 0.44540138E+03</pdfrwt>
<pdfrwt beam="2">  1       21 0.34497842E-01 0.44540138E+03</pdfrwt>
<totfact> 0.74774675E+04</totfact>
</mgrwt>
</event>
<event>
 7    0  0.4766352E-002  0.4542350E+03  0.7546771E-02  0.1026467E+00
         21   -1    0    0  502  501  0.00000000000E+00  0.00000000000E+00  0.46814492837E+03  0.46814492837E+03  0.00000000000E+00 0.  1.
         21   -1    0    0  501  502 -0.00000000000E+00 -0.00000000000E+00 -0.11018458084E+03  0.11018458084E+03  0.00000000000E+00 0.  1.
      99926    2    1    2    0    0  0.00000000000E+00  0.35527136788E-14  0.35796034753E+03  0.57832950921E+03  0.45423497314E+03 0.  0.
      99925    2    3    3    0    0  0.60833291317E+02  0.14639625476E+02  0.34428898060E+03  0.43779687122E+03  0.26308970015E+03 0.  0.
         25    1    3    3    0    0 -0.60833291317E+02 -0.14639625476E+02  0.13671366932E+02  0.14053263799E+03  0.12509000000E+03 0.  0.
         25    1    4    4    0    0  0.29558266806E+02 -0.32800369911E+02  0.15748565368E+03  0.20590967588E+03  0.12509000000E+03 0.  0.
         25    1    4    4    0    0  0.31275024511E+02  0.47439995387E+02  0.18680332691E+03  0.23188719535E+03  0.12509000000E+03 0.  0.
<mgrwt>
<rscale>  2 0.45423497E+03</rscale>
<asrwt>0</asrwt>
<pdfrwt beam="1">  1       21 0.68844841E-01 0.45423497E+03</pdfrwt>
<pdfrwt beam="2">  1       21 0.16203615E-01 0.45423497E+03</pdfrwt>
<totfact> 0.60396843E+04</totfact>
</mgrwt>
</event>
<event>
 7    0  0.4766352E-002  0.4553358E+03  0.7546771E-02  0.1026143E+00
         21   -1    0    0  502  501  0.00000000000E+00  0.00000000000E+00  0.88511767213E+02  0.88511767213E+02  0.00000000000E+00 0.  1.
         21   -1    0    0  501  502 -0.00000000000E+00 -0.00000000000E+00 -0.58560202646E+03  0.58560202646E+03  0.00000000000E+00 0.  1.
      99926    2    1    2    0    0 -0.71054273576E-14  0.14210854715E-13 -0.49709025924E+03  0.67411379367E+03  0.45533578926E+03 0.  0.
      99925    2    3    3    0    0 -0.32464676364E+02 -0.10303945639E+03 -0.36404175549E+03  0.46193345237E+03  0.26303047330E+03 0.  0.
         25    1    4    4    0    0  0.17111018496E+02 -0.64178049719E+02 -0.15146284315E+03  0.20736467871E+03  0.12509000000E+03 0.  0.
         25    1    3    3    0    0  0.32464676364E+02  0.10303945639E+03 -0.13304850375E+03  0.21218034130E+03  0.12509000000E+03 0.  0.
         25    1    4    4    0    0 -0.49575694860E+02 -0.38861406675E+02 -0.21257891234E+03  0.25456877366E+03  0.12509000000E+03 0.  0.
<mgrwt>
<rscale>  2 0.45533579E+03</rscale>
<asrwt>0</asrwt>
<pdfrwt beam="1">  1       21 0.13016436E-01 0.45533579E+03</pdfrwt>
<pdfrwt beam="2">  1       21 0.86117944E-01 0.45533579E+03</pdfrwt>
<totfact> 0.54187852E+04</totfact>
</mgrwt>
</event>
<event>
 7    0  0.4766352E-002  0.4564615E+03  0.7546771E-02  0.1025812E+00
         21   -1    0    0  502  501  0.00000000000E+00  0.00000000000E+00  0.80995110622E+03  0.80995110622E+03  0.00000000000E+00 0.  1.
         21   -1    0    0  501  502 -0.00000000000E+00 -0.00000000000E+00 -0.64311636029E+02  0.64311636029E+02  0.00000000000E+00 0.  1.
      99926    2    1    2    0    0  0.00000000000E+00  0.14210854715E-13  0.74563947019E+03  0.87426274225E+03  0.45646152410E+03 0.  0.
      99925    2    3    3    0    0  0.25284477240E+01 -0.95769835299E+02  0.34837958740E+03  0.44689735177E+03  0.26300314010E+03 0.  0.
         25    1    4    4    0    0  0.17939727531E+02 -0.56513766234E+02  0.23566727068E+03  0.27331705063E+03  0.12509000000E+03 0.  0.
         25    1    3    3    0    0 -0.25284477240E+01  0.95769835299E+02  0.39725988279E+03  0.42736539048E+03  0.12509000000E+03 0.  0.
         25    1    4    4    0    0 -0.15411279807E+02 -0.39256069065E+02  0.11271231672E+03  0.17358030114E+03  0.12509000000E+03 0.  0.
<mgrwt>
<rscale>  2 0.45646152E+03</rscale>
<asrwt>0</asrwt>
<pdfrwt beam="1">  1       21 0.11911045E+00 0.45646152E+03</pdfrwt>
<pdfrwt beam="2">  1       21 0.94575940E-02 0.45646152E+03</pdfrwt>
<totfact> 0.43860953E+04</totfact>
</mgrwt>
</event>
<event>
 7    0  0.4766352E-002  0.4160351E+03  0.7546771E-02  0.1038365E+00
         21   -1    0    0  502  501  0.00000000000E+00  0.00000000000E+00  0.26165450502E+03  0.26165450502E+03  0.00000000000E+00 0. -1.
         21   -1    0    0  501  502 -0.00000000000E+00 -0.00000000000E+00 -0.16537571056E+03  0.16537571056E+03  0.00000000000E+00 0. -1.
      99926    2    1    2    0    0  0.44408920985E-15 -0.71054273576E-14  0.96278794455E+02  0.42703021558E+03  0.41603509318E+03 0.  0.
      99925    2    3    3    0    0 -0.12699674760E+01  0.42573991877E+02  0.12091766543E+03  0.29261020344E+03  0.26303135125E+03 0.  0.
         25    1    3    3    0    0  0.12699674760E+01 -0.42573991877E+02 -0.24638870978E+02  0.13442001214E+03  0.12509000000E+03 0.  0.
         25    1    4    4    0    0 -0.23074140368E+02  0.46189083870E+02  0.87877139884E+02  0.16135596437E+03  0.12509000000E+03 0.  0.
         25    1    4    4    0    0  0.21804172892E+02 -0.36150919931E+01  0.33040525549E+02  0.13125423907E+03  0.12509000000E+03 0.  0.
<mgrwt>
<rscale>  2 0.41603509E+03</rscale>
<asrwt>0</asrwt>
<pdfrwt beam="1">  1       21 0.38478604E-01 0.41603509E+03</pdfrwt>
<pdfrwt beam="2">  1       21 0.24319957E-01 0.41603509E+03</pdfrwt>
<totfact> 0.97623952E+04</totfact>
</mgrwt>
</event>
<event>
 7    0  0.4766352E-002  0.4405797E+03  0.7546771E-02  0.1030569E+00
         21   -1    0    0  502  501  0.00000000000E+00  0.00000000000E+00  0.74684341589E+03  0.74684341589E+03  0.00000000000E+00 0. -1.
         21   -1    0    0  501  502 -0.00000000000E+00 -0.00000000000E+00 -0.64976951889E+02  0.64976951889E+02  0.00000000000E+00 0. -1.
      99926    2    1    2    0    0  0.00000000000E+00  0.00000000000E+00  0.68186646400E+03  0.81182036778E+03  0.44057965774E+03 0.  0.
      99925    2    3    3    0    0 -0.32766248885E+02  0.77807701293E+02  0.33999094796E+03  0.43811722087E+03  0.26310680165E+03 0.  0.
         25    1    3    3    0    0  0.32766248885E+02 -0.77807701293E+02  0.34187551603E+03  0.37370314691E+03  0.12509000000E+03 0.  0.
         25    1    4    4    0    0  0.13818342585E+02  0.65625873167E+02  0.16384599180E+03  0.21677342768E+03  0.12509000000E+03 0.  0.
         25    1    4    4    0    0 -0.46584591470E+02  0.12181828126E+02  0.17614495616E+03  0.22134379318E+03  0.12509000000E+03 0.  0.
<mgrwt>
<rscale>  2 0.44057966E+03</rscale>
<asrwt>0</asrwt>
<pdfrwt beam="1">  1       21 0.10982991E+00 0.44057966E+03</pdfrwt>
<pdfrwt beam="2">  1       21 0.95554345E-02 0.44057966E+03</pdfrwt>
<totfact> 0.52939533E+04</totfact>
</mgrwt>
</event>
<event>
 7    0  0.4766352E-002  0.4626759E+03  0.7546771E-02  0.1024008E+00
         21   -1    0    0  502  501  0.00000000000E+00  0.00000000000E+00  0.49536529507E+03  0.49536529507E+03  0.00000000000E+00 0.  1.
         21   -1    0    0  501  502 -0.00000000000E+00 -0.00000000000E+00 -0.10803594153E+03  0.10803594153E+03  0.00000000000E+00 0.  1.
      99926    2    1    2    0    0  0.00000000000E+00 -0.14210854715E-13  0.38732935354E+03  0.60340123660E+03  0.46267593867E+03 0.  0.
      99925    2    3    3    0    0  0.64848559573E+02  0.91391035506E+02  0.29856890261E+03  0.41344444468E+03  0.26312594357E+03 0.  0.
         25    1    3    3    0    0 -0.64848559573E+02 -0.91391035506E+02  0.88760450923E+02  0.18995679192E+03  0.12509000000E+03 0.  0.
         25    1    4    4    0    0 -0.88827051851E+01  0.49911553107E+02  0.13910159847E+03  0.19382164064E+03  0.12509000000E+03 0.  0.
         25    1    4    4    0    0  0.73731264758E+02  0.41479482399E+02  0.15946730415E+03  0.21962280404E+03  0.12509000000E+03 0.  0.
<mgrwt>
<rscale>  2 0.46267594E+03</rscale>
<asrwt>0</asrwt>
<pdfrwt beam="1">  1       21 0.72847837E-01 0.46267594E+03</pdfrwt>
<pdfrwt beam="2">  1       21 0.15887639E-01 0.46267594E+03</pdfrwt>
<totfact> 0.55053864E+04</totfact>
</mgrwt>
</event>
<event>
 7    0  0.4766352E-002  0.4681152E+03  0.7546771E-02  0.1022454E+00
         21   -1    0    0  502  501  0.00000000000E+00  0.00000000000E+00  0.12397781249E+03  0.12397781249E+03  0.00000000000E+00 0. -1.
         21   -1    0    0  501  502 -0.00000000000E+00 -0.00000000000E+00 -0.44187708567E+03  0.44187708567E+03  0.00000000000E+00 0. -1.
      99926    2    1    2    0    0  0.00000000000E+00  0.00000000000E+00 -0.31789927318E+03  0.56585489817E+03  0.46811517588E+03 0.  0.
      99925    2    3    3    0    0 -0.40530355800E+02  0.11580063687E+03 -0.22711956235E+03  0.36852025539E+03  0.26300453568E+03 0.  0.
         25    1    4    4    0    0 -0.31455533761E+02  0.94569304967E+02 -0.99665301592E+02  0.18845021753E+03  0.12509000000E+03 0.  0.
         25    1    3    3    0    0  0.40530355800E+02 -0.11580063687E+03 -0.90779710832E+02  0.19733464277E+03  0.12509000000E+03 0.  0.
         25    1    4    4    0    0 -0.90748220388E+01  0.21231331901E+02 -0.12745426076E+03  0.18007003786E+03  0.12509000000E+03 0.  0.
<mgrwt>
<rscale>  2 0.46811518E+03</rscale>
<asrwt>0</asrwt>
<pdfrwt beam="1">  1       21 0.18232031E-01 0.46811518E+03</pdfrwt>
<pdfrwt beam="2">  1       21 0.64981925E-01 0.46811518E+03</pdfrwt>
<totfact> 0.54909602E+04</totfact>
</mgrwt>
</event>
<event>
 7    0  0.4766352E-002  0.4552253E+03  0.7546771E-02  0.1026175E+00
         21   -1    0    0  502  501  0.00000000000E+00  0.00000000000E+00  0.25996848176E+03  0.25996848176E+03  0.00000000000E+00 0. -1.
         21   -1    0    0  501  502 -0.00000000000E+00 -0.00000000000E+00 -0.19928382095E+03  0.19928382095E+03  0.00000000000E+00 0. -1.
      99926    2    1    2    0    0  0.00000000000E+00  0.00000000000E+00  0.60684660812E+02  0.45925230270E+03  0.45522527333E+03 0.  0.
      99925    2    3    3    0    0  0.10274209989E+03 -0.46189625173E+02  0.24273089350E+02  0.28702358501E+03  0.26287627303E+03 0.  0.
         25    1    3    3    0    0 -0.10274209989E+03  0.46189625173E+02  0.36411571462E+02  0.17222871770E+03  0.12509000000E+03 0.  0.
         25    1    4    4    0    0  0.67584248152E+02  0.13541992438E+02  0.16979381209E+02  0.14382914741E+03  0.12509000000E+03 0.  0.
         25    1    4    4    0    0  0.35157851736E+02 -0.59731617611E+02  0.72937081411E+01  0.14319443760E+03  0.12509000000E+03 0.  0.
<mgrwt>
<rscale>  2 0.45522527E+03</rscale>
<asrwt>0</asrwt>
<pdfrwt beam="1">  1       21 0.38230659E-01 0.45522527E+03</pdfrwt>
<pdfrwt beam="2">  1       21 0.29306444E-01 0.45522527E+03</pdfrwt>
<totfact> 0.68112641E+04</totfact>
</mgrwt>
</event>
<event>
 7    0  0.4766352E-002  0.4521796E+03  0.7546771E-02  0.1027074E+00
         21   -1    0    0  502  501  0.00000000000E+00  0.00000000000E+00  0.25720568097E+04  0.25720568097E+04  0.00000000000E+00 0.  1.
         21   -1    0    0  501  502 -0.00000000000E+00 -0.00000000000E+00 -0.19873818143E+02  0.19873818143E+02  0.00000000000E+00 0.  1.
      99926    2    1    2    0    0  0.71054273576E-14 -0.14210854715E-13  0.25521829916E+04  0.25919306279E+04  0.45217956296E+03 0.  0.
      99925    2    3    3    0    0  0.48386376737E+02 -0.96472479745E+02  0.17481073130E+04  0.17710570774E+04  0.26289886457E+03 0.  0.
         25    1    3    3    0    0 -0.48386376737E+02  0.96472479745E+02  0.80407567864E+03  0.82087355048E+03  0.12509000000E+03 0.  0.
         25    1    4    4    0    0  0.13855359060E+02 -0.60612704925E+02  0.11203549635E+04  0.11290299479E+04  0.12509000000E+03 0.  0.
         25    1    4    4    0    0  0.34531017677E+02 -0.35859774820E+02  0.62775234945E+03  0.64202712946E+03  0.12509000000E+03 0.  0.
<mgrwt>
<rscale>  2 0.45217956E+03</rscale>
<asrwt>0</asrwt>
<pdfrwt beam="1">  1       21 0.37824342E+00 0.45217956E+03</pdfrwt>
<pdfrwt beam="2">  1       21 0.29226221E-02 0.45217956E+03</pdfrwt>
<totfact> 0.63749692E+03</totfact>
</mgrwt>
</event>
<event>
 7    0  0.4766352E-002  0.4507936E+03  0.7546771E-02  0.1027486E+00
         21   -1    0    0  502  501  0.00000000000E+00  0.00000000000E+00  0.71260282843E+02  0.71260282843E+02  0.00000000000E+00 0. -1.
         21   -1    0    0  501  502 -0.00000000000E+00 -0.00000000000E+00 -0.71293185364E+03  0.71293185364E+03  0.00000000000E+00 0. -1.
      99926    2    1    2    0    0  0.35527136788E-14  0.00000000000E+00 -0.64167157080E+03  0.78419213648E+03  0.45079363588E+03 0.  0.
      99925    2    3    3    0    0 -0.15276998484E+02 -0.69406834950E+02 -0.54955378039E+03  0.61335920398E+03  0.26296284934E+03 0.  0.
         25    1    4    4    0    0 -0.66265787856E+01 -0.28337372537E+02 -0.18128985197E+03  0.22217208816E+03  0.12509000000E+03 0.  0.
         25    1    3    3    0    0  0.15276998484E+02  0.69406834950E+02 -0.92117790404E+02  0.17083293251E+03  0.12509000000E+03 0.  0.
         25    1    4    4    0    0 -0.86504196988E+01 -0.41069462414E+02 -0.36826392843E+03  0.39118711582E+03  0.12509000000E+03 0.  0.
<mgrwt>
<rscale>  2 0.45079364E+03</rscale>
<asrwt>0</asrwt>
<pdfrwt beam="1">  1       21 0.10479454E-01 0.45079364E+03</pdfrwt>
<pdfrwt beam="2">  1       21 0.10484292E+00 0.45079364E+03</pdfrwt>
<totfact> 0.50175112E+04</totfact>
</mgrwt>
</event>
<event>
 7    0  0.4766352E-002  0.4765007E+03  0.7546771E-02  0.1020101E+00
         21   -1    0    0  502  501  0.00000000000E+00  0.00000000000E+00  0.45519733497E+02  0.45519733497E+02  0.00000000000E+00 0. -1.
         21   -1    0    0  501  502 -0.00000000000E+00 -0.00000000000E+00 -0.12470025852E+04  0.12470025852E+04  0.00000000000E+00 0. -1.
      99926    2    1    2    0    0  0.00000000000E+00  0.00000000000E+00 -0.12014828517E+04  0.12925223187E+04  0.47650068352E+03 0.  0.
      99925    2    3    3    0    0 -0.19555657071E+02  0.13022977599E+03 -0.77049971366E+03  0.82482990733E+03  0.26331036628E+03 0.  0.
         25    1    3    3    0    0  0.19555657071E+02 -0.13022977599E+03 -0.43098313805E+03  0.46769241138E+03  0.12509000000E+03 0.  0.
         25    1    4    4    0    0  0.48733574777E+01  0.49985462378E+02 -0.26414123162E+03  0.29654745726E+03  0.12509000000E+03 0.  0.
         25    1    4    4    0    0 -0.24429014549E+02  0.80244313613E+02 -0.50635848204E+03  0.52828245007E+03  0.12509000000E+03 0.  0.
<mgrwt>
<rscale>  2 0.47650068E+03</rscale>
<asrwt>0</asrwt>
<pdfrwt beam="1">  1       21 0.66940783E-02 0.47650068E+03</pdfrwt>
<pdfrwt beam="2">  1       21 0.18338274E+00 0.47650068E+03</pdfrwt>
<totfact> 0.24898765E+04</totfact>
</mgrwt>
</event>
<event>
 7    0  0.4766352E-002  0.4559989E+03  0.7546771E-02  0.1025948E+00
         21   -1    0    0  502  501  0.00000000000E+00  0.00000000000E+00  0.12368027279E+03  0.12368027279E+03  0.00000000000E+00 0.  1.
         21   -1    0    0  501  502 -0.00000000000E+00 -0.00000000000E+00 -0.42030760284E+03  0.42030760284E+03  0.00000000000E+00 0.  1.
      99926    2    1    2    0    0  0.00000000000E+00  0.00000000000E+00 -0.29662733005E+03  0.54398787562E+03  0.45599894286E+03 0.  0.
      99925    2    3    3    0    0  0.10017763296E+03 -0.28559791743E+02 -0.13134464229E+03  0.31200275795E+03  0.26314081032E+03 0.  0.
         25    1    4    4    0    0  0.50291679803E+02 -0.82506836183E+01 -0.20952713543E+02  0.13668888449E+03  0.12509000000E+03 0.  0.
         25    1    3    3    0    0 -0.10017763296E+03  0.28559791743E+02 -0.16528268776E+03  0.23198511768E+03  0.12509000000E+03 0.  0.
         25    1    4    4    0    0  0.49885953157E+02 -0.20309108125E+02 -0.11039192874E+03  0.17531387346E+03  0.12509000000E+03 0.  0.
<mgrwt>
<rscale>  2 0.45599894E+03</rscale>
<asrwt>0</asrwt>
<pdfrwt beam="1">  1       21 0.18188275E-01 0.45599894E+03</pdfrwt>
<pdfrwt beam="2">  1       21 0.61809942E-01 0.45599894E+03</pdfrwt>
<totfact> 0.61775782E+04</totfact>
</mgrwt>
</event>
<event>
 7    0  0.4766352E-002  0.4659154E+03  0.7546771E-02  0.1023079E+00
         21   -1    0    0  502  501  0.00000000000E+00  0.00000000000E+00  0.30528086075E+03  0.30528086075E+03  0.00000000000E+00 0.  1.
         21   -1    0    0  501  502 -0.00000000000E+00 -0.00000000000E+00 -0.17776840140E+03  0.17776840140E+03  0.00000000000E+00 0.  1.
      99926    2    1    2    0    0 -0.28421709430E-13  0.17763568394E-14  0.12751245936E+03  0.48304926215E+03  0.46591540259E+03 0.  0.
      99925    2    3    3    0    0  0.12229388701E+03 -0.14089132075E+02  0.81680310404E+02  0.30165909588E+03  0.26300615691E+03 0.  0.
         25    1    3    3    0    0 -0.12229388701E+03  0.14089132075E+02  0.45832148955E+02  0.18139016627E+03  0.12509000000E+03 0.  0.
         25    1    4    4    0    0  0.28394571087E+02 -0.71352341282E+01  0.65655218505E+02  0.14427501187E+03  0.12509000000E+03 0.  0.
         25    1    4    4    0    0  0.93899315925E+02 -0.69538979473E+01  0.16025091899E+02  0.15738408401E+03  0.12509000000E+03 0.  0.
<mgrwt>
<rscale>  2 0.46591540E+03</rscale>
<asrwt>0</asrwt>
<pdfrwt beam="1">  1       21 0.44894244E-01 0.46591540E+03</pdfrwt>
<pdfrwt beam="2">  1       21 0.26142412E-01 0.46591540E+03</pdfrwt>
<totfact> 0.61019011E+04</totfact>
</mgrwt>
</event>
<event>
 7    0  0.4766352E-002  0.4584556E+03  0.7546771E-02  0.1025230E+00
         21   -1    0    0  502  501  0.00000000000E+00  0.00000000000E+00  0.29402733738E+02  0.29402733738E+02  0.00000000000E+00 0. -1.
         21   -1    0    0  501  502 -0.00000000000E+00 -0.00000000000E+00 -0.17870915959E+04  0.17870915959E+04  0.00000000000E+00 0. -1.
      99926    2    1    2    0    0 -0.71054273576E-14 -0.14210854715E-13 -0.17576888622E+04  0.18164943297E+04  0.45845557412E+03 0.  0.
      99925    2    3    3    0    0  0.50617128309E+02  0.10480193711E+03 -0.11173197608E+04  0.11537231521E+04  0.26292227771E+03 0.  0.
         25    1    4    4    0    0 -0.12879316522E+02  0.33348499768E+02 -0.50542825382E+03  0.52190346530E+03  0.12509000000E+03 0.  0.
         25    1    3    3    0    0 -0.50617128309E+02 -0.10480193711E+03 -0.64036910144E+03  0.66277117761E+03  0.12509000000E+03 0.  0.
         25    1    4    4    0    0  0.63496444831E+02  0.71453437338E+02 -0.61189150693E+03  0.63181968675E+03  0.12509000000E+03 0.  0.
<mgrwt>
<rscale>  2 0.45845557E+03</rscale>
<asrwt>0</asrwt>
<pdfrwt beam="1">  1       21 0.43239313E-02 0.45845557E+03</pdfrwt>
<pdfrwt beam="2">  1       21 0.26280760E+00 0.45845557E+03</pdfrwt>
<totfact> 0.16497635E+04</totfact>
</mgrwt>
</event>
<event>
 7    0  0.4766352E-002  0.4490345E+03  0.7546771E-02  0.1028010E+00
         21   -1    0    0  502  501  0.00000000000E+00  0.00000000000E+00  0.44995299910E+03  0.44995299910E+03  0.00000000000E+00 0. -1.
         21   -1    0    0  501  502 -0.00000000000E+00 -0.00000000000E+00 -0.11202946285E+03  0.11202946285E+03  0.00000000000E+00 0. -1.
      99926    2    1    2    0    0  0.00000000000E+00 -0.14210854715E-13  0.33792353626E+03  0.56198246195E+03  0.44903448775E+03 0.  0.
      99925    2    3    3    0    0 -0.69322622770E+02  0.73143967879E+02  0.16662889781E+03  0.32715267823E+03  0.26288404140E+03 0.  0.
         25    1    3    3    0    0  0.69322622770E+02 -0.73143967879E+02  0.17129463844E+03  0.23482978372E+03  0.12509000000E+03 0.  0.
         25    1    4    4    0    0 -0.66799311863E+02  0.28019073279E+02  0.11407995095E+03  0.18414385638E+03  0.12509000000E+03 0.  0.
         25    1    4    4    0    0 -0.25233109068E+01  0.45124894600E+02  0.52548946859E+02  0.14300882185E+03  0.12509000000E+03 0.  0.
<mgrwt>
<rscale>  2 0.44903449E+03</rscale>
<asrwt>0</asrwt>
<pdfrwt beam="1">  1       21 0.66169558E-01 0.44903449E+03</pdfrwt>
<pdfrwt beam="2">  1       21 0.16474921E-01 0.44903449E+03</pdfrwt>
<totfact> 0.64050635E+04</totfact>
</mgrwt>
</event>
<event>
 7    0  0.4766352E-002  0.4594754E+03  0.7546771E-02  0.1024933E+00
         21   -1    0    0  502  501  0.00000000000E+00  0.00000000000E+00  0.14717481737E+03  0.14717481737E+03  0.00000000000E+00 0. -1.
         21   -1    0    0  501  502 -0.00000000000E+00 -0.00000000000E+00 -0.35861710692E+03  0.35861710692E+03  0.00000000000E+00 0. -1.
      99926    2    1    2    0    0 -0.17763568394E-14  0.00000000000E+00 -0.21144228956E+03  0.50579192429E+03  0.45947538439E+03 0.  0.
      99925    2    3    3    0    0 -0.82944053464E+01  0.36313785112E+02 -0.25498319438E+03  0.36820265639E+03  0.26300052967E+03 0.  0.
         25    1    4    4    0    0 -0.92518442761E+01 -0.10230224173E+02 -0.16377687460E+03  0.20654449124E+03  0.12509000000E+03 0.  0.
         25    1    4    4    0    0  0.95743892966E+00  0.46544009284E+02 -0.91206319781E+02  0.16165816514E+03  0.12509000000E+03 0.  0.
         25    1    3    3    0    0  0.82944053464E+01 -0.36313785112E+02  0.43540904822E+02  0.13758926790E+03  0.12509000000E+03 0.  0.
<mgrwt>
<rscale>  2 0.45947538E+03</rscale>
<asrwt>0</asrwt>
<pdfrwt beam="1">  1       21 0.21643356E-01 0.45947538E+03</pdfrwt>
<pdfrwt beam="2">  1       21 0.52737809E-01 0.45947538E+03</pdfrwt>
<totfact> 0.62611710E+04</totfact>
</mgrwt>
</event>
<event>
 7    0  0.4766352E-002  0.4519706E+03  0.7546771E-02  0.1027136E+00
         21   -1    0    0  502  501  0.00000000000E+00  0.00000000000E+00  0.30130259016E+03  0.30130259016E+03  0.00000000000E+00 0.  1.
         21   -1    0    0  501  502 -0.00000000000E+00 -0.00000000000E+00 -0.16949524813E+03  0.16949524813E+03  0.00000000000E+00 0.  1.
      99926    2    1    2    0    0  0.00000000000E+00  0.00000000000E+00  0.13180734203E+03  0.47079783830E+03  0.45197060649E+03 0.  0.
      99925    2    3    3    0    0 -0.41089285445E+02  0.83185248937E+02  0.14532782522E+03  0.31446989267E+03  0.26298863396E+03 0.  0.
         25    1    4    4    0    0 -0.25954813983E+02  0.73595640207E+02  0.10781956956E+03  0.18265414943E+03  0.12509000000E+03 0.  0.
         25    1    3    3    0    0  0.41089285445E+02 -0.83185248937E+02 -0.13520483185E+02  0.15632794563E+03  0.12509000000E+03 0.  0.
         25    1    4    4    0    0 -0.15134471461E+02  0.95896087304E+01  0.37508255659E+02  0.13181574323E+03  0.12509000000E+03 0.  0.
<mgrwt>
<rscale>  2 0.45197061E+03</rscale>
<asrwt>0</asrwt>
<pdfrwt beam="1">  1       21 0.44309205E-01 0.45197061E+03</pdfrwt>
<pdfrwt beam="2">  1       21 0.24925772E-01 0.45197061E+03</pdfrwt>
<totfact> 0.69020570E+04</totfact>
</mgrwt>
</event>
<event>
 7    0  0.4766352E-002  0.4635656E+03  0.7546771E-02  0.1023752E+00
         21   -1    0    0  502  501  0.00000000000E+00  0.00000000000E+00  0.53097058999E+03  0.53097058999E+03  0.00000000000E+00 0. -1.
         21   -1    0    0  501  502 -0.00000000000E+00 -0.00000000000E+00 -0.10117937802E+03  0.10117937802E+03  0.00000000000E+00 0. -1.
      99926    2    1    2    0    0  0.00000000000E+00  0.00000000000E+00  0.42979121197E+03  0.63214996801E+03  0.46356563308E+03 0.  0.
      99925    2    3    3    0    0  0.41147635138E+02  0.49286227469E+02  0.40841607107E+03  0.48992948832E+03  0.26287821577E+03 0.  0.
         25    1    4    4    0    0  0.43290574866E+02  0.43972149655E+02  0.26554858621E+03  0.29995196875E+03  0.12509000000E+03 0.  0.
         25    1    3    3    0    0 -0.41147635138E+02 -0.49286227469E+02  0.21375140904E+02  0.14222047969E+03  0.12509000000E+03 0.  0.
         25    1    4    4    0    0 -0.21429397283E+01  0.53140778136E+01  0.14286748486E+03  0.18997751957E+03  0.12509000000E+03 0.  0.
<mgrwt>
<rscale>  2 0.46356563E+03</rscale>
<asrwt>0</asrwt>
<pdfrwt beam="1">  1       21 0.78083909E-01 0.46356563E+03</pdfrwt>
<pdfrwt beam="2">  1       21 0.14879320E-01 0.46356563E+03</pdfrwt>
<totfact> 0.53061782E+04</totfact>
</mgrwt>
</event>
<event>
 7    0  0.4766352E-002  0.4608017E+03  0.7546771E-02  0.1024549E+00
         21   -1    0    0  502  501  0.00000000000E+00  0.00000000000E+00  0.13303034152E+04  0.13303034152E+04  0.00000000000E+00 0.  1.
         21   -1    0    0  501  502 -0.00000000000E+00 -0.00000000000E+00 -0.39904087490E+02  0.39904087490E+02  0.00000000000E+00 0.  1.
      99926    2    1    2    0    0  0.00000000000E+00  0.00000000000E+00  0.12903993277E+04  0.13702075027E+04  0.46080166609E+03 0.  0.
      99925    2    3    3    0    0  0.59037108107E+02 -0.36339789314E+02  0.52186126201E+03  0.58847594585E+03  0.26298061077E+03 0.  0.
         25    1    3    3    0    0 -0.59037108107E+02  0.36339789314E+02  0.76853806568E+03  0.78173155682E+03  0.12509000000E+03 0.  0.
         25    1    4    4    0    0  0.58603712505E+02  0.24880922870E+01  0.31004672584E+03  0.33943639467E+03  0.12509000000E+03 0.  0.
         25    1    4    4    0    0  0.43339560216E+00 -0.38827881601E+02  0.21181453617E+03  0.24903955118E+03  0.12509000000E+03 0.  0.
<mgrwt>
<rscale>  2 0.46080167E+03</rscale>
<asrwt>0</asrwt>
<pdfrwt beam="1">  1       21 0.19563283E+00 0.46080167E+03</pdfrwt>
<pdfrwt beam="2">  1       21 0.58682490E-02 0.46080167E+03</pdfrwt>
<totfact> 0.25946978E+04</totfact>
</mgrwt>
</event>
<event>
 7    0  0.4766352E-002  0.4383855E+03  0.7546771E-02  0.1031243E+00
         21   -1    0    0  502  501  0.00000000000E+00  0.00000000000E+00  0.13431390701E+03  0.13431390701E+03  0.00000000000E+00 0.  1.
         21   -1    0    0  501  502 -0.00000000000E+00 -0.00000000000E+00 -0.35771028537E+03  0.35771028537E+03  0.00000000000E+00 0.  1.
      99926    2    1    2    0    0  0.14210854715E-13 -0.71054273576E-14 -0.22339637837E+03  0.49202419238E+03  0.43838551986E+03 0.  0.
      99925    2    3    3    0    0  0.73284516707E+02 -0.59474556329E+02 -0.16707318507E+03  0.32550796662E+03  0.26293372534E+03 0.  0.
         25    1    4    4    0    0  0.43628871809E+02 -0.59309748589E+02 -0.55881847013E+02  0.15553589187E+03  0.12509000000E+03 0.  0.
         25    1    4    4    0    0  0.29655644898E+02 -0.16480774026E+00 -0.11119133806E+03  0.16997207475E+03  0.12509000000E+03 0.  0.
         25    1    3    3    0    0 -0.73284516707E+02  0.59474556329E+02 -0.56323193299E+02  0.16651622576E+03  0.12509000000E+03 0.  0.
<mgrwt>
<rscale>  2 0.43838552E+03</rscale>
<asrwt>0</asrwt>
<pdfrwt beam="1">  1       21 0.19752045E-01 0.43838552E+03</pdfrwt>
<pdfrwt beam="2">  1       21 0.52604453E-01 0.43838552E+03</pdfrwt>
<totfact> 0.75284035E+04</totfact>
</mgrwt>
</event>
<event>
 7    0  0.4766352E-002  0.4623561E+03  0.7546771E-02  0.1024100E+00
         21   -1    0    0  502  501  0.00000000000E+00  0.00000000000E+00  0.11731493397E+03  0.11731493397E+03  0.00000000000E+00 0. -1.
         21   -1    0    0  501  502 -0.00000000000E+00 -0.00000000000E+00 -0.45555394894E+03  0.45555394894E+03  0.00000000000E+00 0. -1.
      99926    2    1    2    0    0  0.00000000000E+00  0.00000000000E+00 -0.33823901498E+03  0.57286888291E+03  0.46235605950E+03 0.  0.
      99925    2    3    3    0    0 -0.73374000651E+02 -0.52498549875E+01 -0.93855787548E+02  0.28864718265E+03  0.26286304846E+03 0.  0.
         25    1    4    4    0    0 -0.20221954228E+02  0.23667112447E+02 -0.17481340267E+02  0.13008522207E+03  0.12509000000E+03 0.  0.
         25    1    4    4    0    0 -0.53152046423E+02 -0.28916967435E+02 -0.76374447281E+02  0.15856196058E+03  0.12509000000E+03 0.  0.
         25    1    3    3    0    0  0.73374000651E+02  0.52498549875E+01 -0.24438322743E+03  0.28422170026E+03  0.12509000000E+03 0.  0.
<mgrwt>
<rscale>  2 0.46235606E+03</rscale>
<asrwt>0</asrwt>
<pdfrwt beam="1">  1       21 0.17252196E-01 0.46235606E+03</pdfrwt>
<pdfrwt beam="2">  1       21 0.66993227E-01 0.46235606E+03</pdfrwt>
<totfact> 0.56992005E+04</totfact>
</mgrwt>
</event>
<event>
 7    0  0.4766352E-002  0.4731231E+03  0.7546771E-02  0.1021042E+00
         21   -1    0    0  502  501  0.00000000000E+00  0.00000000000E+00  0.12958106285E+03  0.12958106285E+03  0.00000000000E+00 0.  1.
         21   -1    0    0  501  502 -0.00000000000E+00 -0.00000000000E+00 -0.43186369988E+03  0.43186369988E+03  0.00000000000E+00 0.  1.
      99926    2    1    2    0    0  0.00000000000E+00  0.00000000000E+00 -0.30228263704E+03  0.56144476273E+03  0.47312305899E+03 0.  0.
      99925    2    3    3    0    0 -0.10688535765E+03  0.72467411753E+02 -0.19720007479E+03  0.35320005468E+03  0.26303308476E+03 0.  0.
         25    1    3    3    0    0  0.10688535765E+03 -0.72467411753E+02 -0.10508256224E+03  0.20824470806E+03  0.12509000000E+03 0.  0.
         25    1    4    4    0    0 -0.84295584286E+02  0.41867925948E+02 -0.14174171766E+03  0.21117976082E+03  0.12509000000E+03 0.  0.
         25    1    4    4    0    0 -0.22589773361E+02  0.30599485805E+02 -0.55458357133E+02  0.14202029386E+03  0.12509000000E+03 0.  0.
<mgrwt>
<rscale>  2 0.47312306E+03</rscale>
<asrwt>0</asrwt>
<pdfrwt beam="1">  1       21 0.19056039E-01 0.47312306E+03</pdfrwt>
<pdfrwt beam="2">  1       21 0.63509368E-01 0.47312306E+03</pdfrwt>
<totfact> 0.53085608E+04</totfact>
</mgrwt>
</event>
<event>
 7    0  0.4766352E-002  0.4499213E+03  0.7546771E-02  0.1027746E+00
         21   -1    0    0  502  501  0.00000000000E+00  0.00000000000E+00  0.14659385428E+03  0.14659385428E+03  0.00000000000E+00 0. -1.
         21   -1    0    0  501  502 -0.00000000000E+00 -0.00000000000E+00 -0.34522108460E+03  0.34522108460E+03  0.00000000000E+00 0. -1.
      99926    2    1    2    0    0  0.00000000000E+00  0.00000000000E+00 -0.19862723032E+03  0.49181493888E+03  0.44992127920E+03 0.  0.
      99925    2    3    3    0    0  0.27982007730E+02  0.76952638819E+02 -0.47981777062E+02  0.27957389180E+03  0.26297263863E+03 0.  0.
         25    1    4    4    0    0  0.14862192780E+02  0.28359180272E+02  0.16391406050E+02  0.13015880367E+03  0.12509000000E+03 0.  0.
         25    1    3    3    0    0 -0.27982007730E+02 -0.76952638819E+02 -0.15064545325E+03  0.21224104708E+03  0.12509000000E+03 0.  0.
         25    1    4    4    0    0  0.13119814950E+02  0.48593458547E+02 -0.64373183113E+02  0.14941508813E+03  0.12509000000E+03 0.  0.
<mgrwt>
<rscale>  2 0.44992128E+03</rscale>
<asrwt>0</asrwt>
<pdfrwt beam="1">  1       21 0.21557920E-01 0.44992128E+03</pdfrwt>
<pdfrwt beam="2">  1       21 0.50767806E-01 0.44992128E+03</pdfrwt>
<totfact> 0.68572870E+04</totfact>
</mgrwt>
</event>
<event>
 7    0  0.4766352E-002  0.4555855E+03  0.7546771E-02  0.1026069E+00
         21   -1    0    0  502  501  0.00000000000E+00  0.00000000000E+00  0.11206863385E+04  0.11206863385E+04  0.00000000000E+00 0. -1.
         21   -1    0    0  501  502 -0.00000000000E+00 -0.00000000000E+00 -0.46301562890E+02  0.46301562890E+02  0.00000000000E+00 0. -1.
      99926    2    1    2    0    0 -0.14210854715E-13  0.00000000000E+00  0.10743847756E+04  0.11669879014E+04  0.45558546501E+03 0.  0.
      99925    2    3    3    0    0  0.99000525002E+02 -0.55911013178E+02  0.68147002067E+03  0.73925357018E+03  0.26299678060E+03 0.  0.
         25    1    3    3    0    0 -0.99000525002E+02  0.55911013178E+02  0.39291475494E+03  0.42773433121E+03  0.12509000000E+03 0.  0.
         25    1    4    4    0    0  0.64166210286E+02  0.99064149333E+01  0.33252193160E+03  0.36115617494E+03  0.12509000000E+03 0.  0.
         25    1    4    4    0    0  0.34834314715E+02 -0.65817428111E+02  0.34894808907E+03  0.37809739524E+03  0.12509000000E+03 0.  0.
<mgrwt>
<rscale>  2 0.45558547E+03</rscale>
<asrwt>0</asrwt>
<pdfrwt beam="1">  1       21 0.16480680E+00 0.45558547E+03</pdfrwt>
<pdfrwt beam="2">  1       21 0.68090541E-02 0.45558547E+03</pdfrwt>
<totfact> 0.33069093E+04</totfact>
</mgrwt>
</event>
<event>
 7    0  0.4766352E-002  0.4359516E+03  0.7546771E-02  0.1031996E+00
         21   -1    0    0  502  501  0.00000000000E+00  0.00000000000E+00  0.14374547533E+04  0.14374547533E+04  0.00000000000E+00 0. -1.
         21   -1    0    0  501  502 -0.00000000000E+00 -0.00000000000E+00 -0.33053877831E+02  0.33053877831E+02  0.00000000000E+00 0. -1.
      99926    2    1    2    0    0  0.00000000000E+00  0.00000000000E+00  0.14044008755E+04  0.14705086312E+04  0.43595162027E+03 0.  0.
      99925    2    3    3    0    0 -0.91158350775E+02 -0.17560682843E+02  0.84865856883E+03  0.89334726550E+03  0.26311546480E+03 0.  0.
         25    1    4    4    0    0 -0.35022925168E+02 -0.39119766247E+02  0.50003644677E+03  0.51811284253E+03  0.12509000000E+03 0.  0.
         25    1    4    4    0    0 -0.56135425607E+02  0.21559083404E+02  0.34862212206E+03  0.37523442296E+03  0.12509000000E+03 0.  0.
         25    1    3    3    0    0  0.91158350775E+02  0.17560682843E+02  0.55574230667E+03  0.57716136567E+03  0.12509000000E+03 0.  0.
<mgrwt>
<rscale>  2 0.43595162E+03</rscale>
<asrwt>0</asrwt>
<pdfrwt beam="1">  1       21 0.21139036E+00 0.43595162E+03</pdfrwt>
<pdfrwt beam="2">  1       21 0.48608653E-02 0.43595162E+03</pdfrwt>
<totfact> 0.28501180E+04</totfact>
</mgrwt>
</event>
<event>
 7    0  0.4766352E-002  0.4623323E+03  0.7546771E-02  0.1024107E+00
         21   -1    0    0  502  501  0.00000000000E+00  0.00000000000E+00  0.48621112364E+02  0.48621112364E+02  0.00000000000E+00 0.  1.
         21   -1    0    0  501  502 -0.00000000000E+00 -0.00000000000E+00 -0.10990654627E+04  0.10990654627E+04  0.00000000000E+00 0.  1.
      99926    2    1    2    0    0  0.00000000000E+00  0.00000000000E+00 -0.10504443504E+04  0.11476865751E+04  0.46233228466E+03 0.  0.
      99925    2    3    3    0    0 -0.10152169487E+03  0.63205303015E+02 -0.63845499379E+03  0.70082607909E+03  0.26311755771E+03 0.  0.
         25    1    3    3    0    0  0.10152169487E+03 -0.63205303015E+02 -0.41198935657E+03  0.44686049600E+03  0.12509000000E+03 0.  0.
         25    1    4    4    0    0 -0.68596587340E+02  0.30831524457E+02 -0.24265957606E+03  0.28317353805E+03  0.12509000000E+03 0.  0.
         25    1    4    4    0    0 -0.32925107532E+02  0.32373778558E+02 -0.39579541773E+03  0.41765254104E+03  0.12509000000E+03 0.  0.
<mgrwt>
<rscale>  2 0.46233228E+03</rscale>
<asrwt>0</asrwt>
<pdfrwt beam="1">  1       21 0.71501640E-02 0.46233228E+03</pdfrwt>
<pdfrwt beam="2">  1       21 0.16162726E+00 0.46233228E+03</pdfrwt>
<totfact> 0.31991980E+04</totfact>
</mgrwt>
</event>
<event>
 7    0  0.4766352E-002  0.4491223E+03  0.7546771E-02  0.1027984E+00
         21   -1    0    0  502  501  0.00000000000E+00  0.00000000000E+00  0.33983454652E+03  0.33983454652E+03  0.00000000000E+00 0. -1.
         21   -1    0    0  501  502 -0.00000000000E+00 -0.00000000000E+00 -0.14838901991E+03  0.14838901991E+03  0.00000000000E+00 0. -1.
      99926    2    1    2    0    0  0.14210854715E-13  0.00000000000E+00  0.19144552661E+03  0.48822356643E+03  0.44912232316E+03 0.  0.
      99925    2    3    3    0    0  0.10491000828E+03  0.19393621324E+02  0.10929152583E+03  0.30443289656E+03  0.26334868237E+03 0.  0.
         25    1    3    3    0    0 -0.10491000828E+03 -0.19393621324E+02  0.82154000779E+02  0.18379066987E+03  0.12509000000E+03 0.  0.
         25    1    4    4    0    0  0.32360295930E+02  0.14353916486E+02  0.13052836136E+02  0.13065645144E+03  0.12509000000E+03 0.  0.
         25    1    4    4    0    0  0.72549712355E+02  0.50397048372E+01  0.96238689690E+02  0.17377644513E+03  0.12509000000E+03 0.  0.
<mgrwt>
<rscale>  2 0.44912232E+03</rscale>
<asrwt>0</asrwt>
<pdfrwt beam="1">  1       21 0.49975669E-01 0.44912232E+03</pdfrwt>
<pdfrwt beam="2">  1       21 0.21821915E-01 0.44912232E+03</pdfrwt>
<totfact> 0.69282991E+04</totfact>
</mgrwt>
</event>
<event>
 7    0  0.4766352E-002  0.4498093E+03  0.7546771E-02  0.1027779E+00
         21   -1    0    0  502  501  0.00000000000E+00  0.00000000000E+00  0.24097384011E+03  0.24097384011E+03  0.00000000000E+00 0.  1.
         21   -1    0    0  501  502 -0.00000000000E+00 -0.00000000000E+00 -0.20990700288E+03  0.20990700288E+03  0.00000000000E+00 0.  1.
      99926    2    1    2    0    0 -0.71054273576E-14  0.00000000000E+00  0.31066837223E+02  0.45088084299E+03  0.44980927758E+03 0.  0.
      99925    2    3    3    0    0 -0.59677796322E+02  0.87739430522E+02 -0.14322492512E+01  0.28365839903E+03  0.26305966806E+03 0.  0.
         25    1    4    4    0    0 -0.52599457779E+02  0.45393243394E+02 -0.34800284408E+02  0.14726105188E+03  0.12509000000E+03 0.  0.
         25    1    3    3    0    0  0.59677796322E+02 -0.87739430522E+02  0.32499086474E+02  0.16722244396E+03  0.12509000000E+03 0.  0.
         25    1    4    4    0    0 -0.70783385426E+01  0.42346187128E+02  0.33368035156E+02  0.13639734716E+03  0.12509000000E+03 0.  0.
<mgrwt>
<rscale>  2 0.44980928E+03</rscale>
<asrwt>0</asrwt>
<pdfrwt beam="1">  1       21 0.35437329E-01 0.44980928E+03</pdfrwt>
<pdfrwt beam="2">  1       21 0.30868677E-01 0.44980928E+03</pdfrwt>
<totfact> 0.71775534E+04</totfact>
</mgrwt>
</event>
<event>
 7    0  0.4766352E-002  0.4623396E+03  0.7546771E-02  0.1024105E+00
         21   -1    0    0  502  501  0.00000000000E+00  0.00000000000E+00  0.12544618849E+03  0.12544618849E+03  0.00000000000E+00 0. -1.
         21   -1    0    0  501  502 -0.00000000000E+00 -0.00000000000E+00 -0.42599512827E+03  0.42599512827E+03  0.00000000000E+00 0. -1.
      99926    2    1    2    0    0 -0.35527136788E-14  0.00000000000E+00 -0.30054893977E+03  0.55144131676E+03  0.46233955123E+03 0.  0.
      99925    2    3    3    0    0  0.16218874907E+02 -0.11332408822E+03 -0.23064353166E+03  0.36803009830E+03  0.26295306364E+03 0.  0.
         25    1    3    3    0    0 -0.16218874907E+02  0.11332408822E+03 -0.69905408115E+02  0.18341121847E+03  0.12509000000E+03 0.  0.
         25    1    4    4    0    0  0.31485737020E+02 -0.23253838418E+02 -0.11965630696E+03  0.17747459687E+03  0.12509000000E+03 0.  0.
         25    1    4    4    0    0 -0.15266862113E+02 -0.90070249807E+02 -0.11098722470E+03  0.19055550143E+03  0.12509000000E+03 0.  0.
<mgrwt>
<rscale>  2 0.46233955E+03</rscale>
<asrwt>0</asrwt>
<pdfrwt beam="1">  1       21 0.18447969E-01 0.46233955E+03</pdfrwt>
<pdfrwt beam="2">  1       21 0.62646342E-01 0.46233955E+03</pdfrwt>
<totfact> 0.58310835E+04</totfact>
</mgrwt>
</event>
<event>
 7    0  0.4766352E-002  0.4603250E+03  0.7546771E-02  0.1024687E+00
         21   -1    0    0  502  501  0.00000000000E+00  0.00000000000E+00  0.27557655157E+03  0.27557655157E+03  0.00000000000E+00 0. -1.
         21   -1    0    0  501  502 -0.00000000000E+00 -0.00000000000E+00 -0.19223248431E+03  0.19223248431E+03  0.00000000000E+00 0. -1.
      99926    2    1    2    0    0  0.00000000000E+00 -0.71054273576E-14  0.83344067260E+02  0.46780903589E+03  0.46032495100E+03 0.  0.
      99925    2    3    3    0    0 -0.67030518022E+02 -0.54240522967E+02 -0.29821198069E+02  0.27836508625E+03  0.26298800868E+03 0.  0.
         25    1    4    4    0    0 -0.59460867571E+02 -0.15864208139E+02 -0.44844140630E+02  0.14644375344E+03  0.12509000000E+03 0.  0.
         25    1    4    4    0    0 -0.75696504506E+01 -0.38376314828E+02  0.15022942561E+02  0.13192133281E+03  0.12509000000E+03 0.  0.
         25    1    3    3    0    0  0.67030518022E+02  0.54240522967E+02  0.11316526533E+03  0.18944394964E+03  0.12509000000E+03 0.  0.
<mgrwt>
<rscale>  2 0.46032495E+03</rscale>
<asrwt>0</asrwt>
<pdfrwt beam="1">  1       21 0.40525964E-01 0.46032495E+03</pdfrwt>
<pdfrwt beam="2">  1       21 0.28269483E-01 0.46032495E+03</pdfrwt>
<totfact> 0.64814783E+04</totfact>
</mgrwt>
</event>
<event>
 7    0  0.4766352E-002  0.4527182E+03  0.7546771E-02  0.1026915E+00
         21   -1    0    0  502  501  0.00000000000E+00  0.00000000000E+00  0.18917602915E+03  0.18917602915E+03  0.00000000000E+00 0. -1.
         21   -1    0    0  501  502 -0.00000000000E+00 -0.00000000000E+00 -0.27085060280E+03  0.27085060280E+03  0.00000000000E+00 0. -1.
      99926    2    1    2    0    0  0.14210854715E-13  0.00000000000E+00 -0.81674573647E+02  0.46002663194E+03  0.45271819725E+03 0.  0.
      99925    2    3    3    0    0 -0.96315363341E+02 -0.11384295565E+02  0.34261197336E+01  0.28031606599E+03  0.26298119164E+03 0.  0.
         25    1    4    4    0    0 -0.81271117365E+02 -0.17363815296E+02 -0.21596399649E+02  0.15172478103E+03  0.12509000000E+03 0.  0.
         25    1    3    3    0    0  0.96315363341E+02  0.11384295565E+02 -0.85100693381E+02  0.17971056595E+03  0.12509000000E+03 0.  0.
         25    1    4    4    0    0 -0.15044245975E+02  0.59795197313E+01  0.25022519382E+02  0.12859128497E+03  0.12509000000E+03 0.  0.
<mgrwt>
<rscale>  2 0.45271820E+03</rscale>
<asrwt>0</asrwt>
<pdfrwt beam="1">  1       21 0.27820005E-01 0.45271820E+03</pdfrwt>
<pdfrwt beam="2">  1       21 0.39830970E-01 0.45271820E+03</pdfrwt>
<totfact> 0.69431794E+04</totfact>
</mgrwt>
</event>
<event>
 7    0  0.4766352E-002  0.4502572E+03  0.7546771E-02  0.1027645E+00
         21   -1    0    0  502  501  0.00000000000E+00  0.00000000000E+00  0.11632475897E+03  0.11632475897E+03  0.00000000000E+00 0. -1.
         21   -1    0    0  501  502 -0.00000000000E+00 -0.00000000000E+00 -0.43570162988E+03  0.43570162988E+03  0.00000000000E+00 0. -1.
      99926    2    1    2    0    0  0.35527136788E-14  0.00000000000E+00 -0.31937687091E+03  0.55202638886E+03  0.45025720241E+03 0.  0.
      99925    2    3    3    0    0  0.26908066496E+02  0.59616617594E+02 -0.97406025060E+02  0.28897363817E+03  0.26408264749E+03 0.  0.
         25    1    4    4    0    0  0.45480731059E+02  0.30004821952E+02 -0.79363812668E+02  0.15784457260E+03  0.12509000000E+03 0.  0.
         25    1    4    4    0    0 -0.18572664563E+02  0.29611795642E+02 -0.18042212392E+02  0.13112906557E+03  0.12509000000E+03 0.  0.
         25    1    3    3    0    0 -0.26908066496E+02 -0.59616617594E+02 -0.22197084585E+03  0.26305275069E+03  0.12509000000E+03 0.  0.
<mgrwt>
<rscale>  2 0.45025720E+03</rscale>
<asrwt>0</asrwt>
<pdfrwt beam="1">  1       21 0.17106582E-01 0.45025720E+03</pdfrwt>
<pdfrwt beam="2">  1       21 0.64073770E-01 0.45025720E+03</pdfrwt>
<totfact> 0.64104504E+04</totfact>
</mgrwt>
</event>
<event>
 7    0  0.4766352E-002  0.4469691E+03  0.7546771E-02  0.1028630E+00
         21   -1    0    0  502  501  0.00000000000E+00  0.00000000000E+00  0.17573068233E+03  0.17573068233E+03  0.00000000000E+00 0.  1.
         21   -1    0    0  501  502 -0.00000000000E+00 -0.00000000000E+00 -0.28421523945E+03  0.28421523945E+03  0.00000000000E+00 0.  1.
      99926    2    1    2    0    0  0.14210854715E-13  0.35527136788E-14 -0.10848455712E+03  0.45994592178E+03  0.44696907257E+03 0.  0.
      99925    2    3    3    0    0  0.10224071282E+03  0.25248421800E+02 -0.75205969575E+02  0.29307585661E+03  0.26295793144E+03 0.  0.
         25    1    4    4    0    0  0.11625832051E+02  0.19555250905E+02 -0.18729375318E+02  0.12851406697E+03  0.12509000000E+03 0.  0.
         25    1    4    4    0    0  0.90614880768E+02  0.56931708951E+01 -0.56476594257E+02  0.16456178964E+03  0.12509000000E+03 0.  0.
         25    1    3    3    0    0 -0.10224071282E+03 -0.25248421800E+02 -0.33278587545E+02  0.16687006517E+03  0.12509000000E+03 0.  0.
<mgrwt>
<rscale>  2 0.44696907E+03</rscale>
<asrwt>0</asrwt>
<pdfrwt beam="1">  1       21 0.25842748E-01 0.44696907E+03</pdfrwt>
<pdfrwt beam="2">  1       21 0.41796358E-01 0.44696907E+03</pdfrwt>
<totfact> 0.72713812E+04</totfact>
</mgrwt>
</event>
<event>
 7    0  0.4766352E-002  0.4571505E+03  0.7546771E-02  0.1025611E+00
         21   -1    0    0  502  501  0.00000000000E+00  0.00000000000E+00  0.55972156319E+03  0.55972156319E+03  0.00000000000E+00 0. -1.
         21   -1    0    0  501  502 -0.00000000000E+00 -0.00000000000E+00 -0.93343976002E+02  0.93343976002E+02  0.00000000000E+00 0. -1.
      99926    2    1    2    0    0  0.00000000000E+00 -0.35527136788E-14  0.46637758718E+03  0.65306553919E+03  0.45715046172E+03 0.  0.
      99925    2    3    3    0    0 -0.82253655151E+02  0.27745001013E+02  0.18492425872E+03  0.33306720627E+03  0.26306146347E+03 0.  0.
         25    1    4    4    0    0 -0.11451628681E+02  0.16473561204E+02  0.51936368244E+02  0.13692119071E+03  0.12509000000E+03 0.  0.
         25    1    4    4    0    0 -0.70802026470E+02  0.11271439809E+02  0.13298789047E+03  0.19614601556E+03  0.12509000000E+03 0.  0.
         25    1    3    3    0    0  0.82253655151E+02 -0.27745001013E+02  0.28145332847E+03  0.31999833292E+03  0.12509000000E+03 0.  0.
<mgrwt>
<rscale>  2 0.45715046E+03</rscale>
<asrwt>0</asrwt>
<pdfrwt beam="1">  1       21 0.82311993E-01 0.45715046E+03</pdfrwt>
<pdfrwt beam="2">  1       21 0.13727056E-01 0.45715046E+03</pdfrwt>
<totfact> 0.54593229E+04</totfact>
</mgrwt>
</event>
<event>
 7    0  0.4766352E-002  0.4602015E+03  0.7546771E-02  0.1024723E+00
         21   -1    0    0  502  501  0.00000000000E+00  0.00000000000E+00  0.11590187203E+04  0.11590187203E+04  0.00000000000E+00 0. -1.
         21   -1    0    0  501  502 -0.00000000000E+00 -0.00000000000E+00 -0.45682049710E+02  0.45682049710E+02  0.00000000000E+00 0. -1.
      99926    2    1    2    0    0  0.00000000000E+00 -0.26645352591E-14  0.11133366706E+04  0.12047007700E+04  0.46020148107E+03 0.  0.
      99925    2    3    3    0    0  0.38202678730E+02  0.12067328332E+01  0.98947710233E+03  0.10245630404E+04  0.26306574637E+03 0.  0.
         25    1    3    3    0    0 -0.38202678730E+02 -0.12067328332E+01  0.12385956824E+03  0.18013772956E+03  0.12509000000E+03 0.  0.
         25    1    4    4    0    0  0.22408720193E+02  0.41083588835E+02  0.50512422700E+03  0.52248254020E+03  0.12509000000E+03 0.  0.
         25    1    4    4    0    0  0.15793958536E+02 -0.39876856002E+02  0.48435287534E+03  0.50208050024E+03  0.12509000000E+03 0.  0.
<mgrwt>
<rscale>  2 0.46020148E+03</rscale>
<asrwt>0</asrwt>
<pdfrwt beam="1">  1       21 0.17044391E+00 0.46020148E+03</pdfrwt>
<pdfrwt beam="2">  1       21 0.67179492E-02 0.46020148E+03</pdfrwt>
<totfact> 0.30742683E+04</totfact>
</mgrwt>
</event>
<event>
 7    0  0.4766352E-002  0.4431529E+03  0.7546771E-02  0.1029784E+00
         21   -1    0    0  502  501  0.00000000000E+00  0.00000000000E+00  0.16559667065E+03  0.16559667065E+03  0.00000000000E+00 0.  1.
         21   -1    0    0  501  502 -0.00000000000E+00 -0.00000000000E+00 -0.29648009628E+03  0.29648009628E+03  0.00000000000E+00 0.  1.
      99926    2    1    2    0    0  0.00000000000E+00  0.00000000000E+00 -0.13088342563E+03  0.46207676693E+03  0.44315287141E+03 0.  0.
      99925    2    3    3    0    0 -0.49765775300E+02 -0.88633640525E+02 -0.81431302947E+02  0.29347790821E+03  0.26299367081E+03 0.  0.
         25    1    4    4    0    0  0.11668197208E+02 -0.25604411061E+02 -0.26242073022E+02  0.13087355420E+03  0.12509000000E+03 0.  0.
         25    1    3    3    0    0  0.49765775300E+02  0.88633640525E+02 -0.49452122688E+02  0.16859885872E+03  0.12509000000E+03 0.  0.
         25    1    4    4    0    0 -0.61433972509E+02 -0.63029229463E+02 -0.55189229924E+02  0.16260435401E+03  0.12509000000E+03 0.  0.
<mgrwt>
<rscale>  2 0.44315287E+03</rscale>
<asrwt>0</asrwt>
<pdfrwt beam="1">  1       21 0.24352452E-01 0.44315287E+03</pdfrwt>
<pdfrwt beam="2">  1       21 0.43600013E-01 0.44315287E+03</pdfrwt>
<totfact> 0.74818143E+04</totfact>
</mgrwt>
</event>
<event>
 7    0  0.4766352E-002  0.4327668E+03  0.7546771E-02  0.1032990E+00
         21   -1    0    0  502  501  0.00000000000E+00  0.00000000000E+00  0.63890277225E+03  0.63890277225E+03  0.00000000000E+00 0.  1.
         21   -1    0    0  501  502 -0.00000000000E+00 -0.00000000000E+00 -0.73284663397E+02  0.73284663397E+02  0.00000000000E+00 0.  1.
      99926    2    1    2    0    0  0.00000000000E+00  0.00000000000E+00  0.56561810885E+03  0.71218743565E+03  0.43276679451E+03 0.  0.
      99925    2    3    3    0    0 -0.31990975068E+02 -0.71842164723E+02  0.43824942345E+03  0.51711050406E+03  0.26297527856E+03 0.  0.
         25    1    3    3    0    0  0.31990975068E+02  0.71842164723E+02  0.12736868541E+03  0.19507693159E+03  0.12509000000E+03 0.  0.
         25    1    4    4    0    0 -0.19511686373E+02 -0.58773536043E+02  0.16550414368E+03  0.21650442055E+03  0.12509000000E+03 0.  0.
         25    1    4    4    0    0 -0.12479288695E+02 -0.13068628681E+02  0.27274527977E+03  0.30060608350E+03  0.12509000000E+03 0.  0.
<mgrwt>
<rscale>  2 0.43276679E+03</rscale>
<asrwt>0</asrwt>
<pdfrwt beam="1">  1       21 0.93956287E-01 0.43276679E+03</pdfrwt>
<pdfrwt beam="2">  1       21 0.10777157E-01 0.43276679E+03</pdfrwt>
<totfact> 0.62477974E+04</totfact>
</mgrwt>
</event>
<event>
 7    0  0.4766352E-002  0.4547705E+03  0.7546771E-02  0.1026309E+00
         21   -1    0    0  502  501  0.00000000000E+00  0.00000000000E+00  0.12132705564E+03  0.12132705564E+03  0.00000000000E+00 0. -1.
         21   -1    0    0  501  502 -0.00000000000E+00 -0.00000000000E+00 -0.42615425924E+03  0.42615425924E+03  0.00000000000E+00 0. -1.
      99926    2    1    2    0    0 -0.17763568394E-14  0.14210854715E-13 -0.30482720360E+03  0.54748131489E+03  0.45477045429E+03 0.  0.
      99925    2    3    3    0    0  0.12103990560E+02 -0.11017216448E+03 -0.16588494738E+03  0.33014086518E+03  0.26304137066E+03 0.  0.
         25    1    4    4    0    0  0.41146029006E+00 -0.95323221326E+02 -0.74168047540E+02  0.17388241199E+03  0.12509000000E+03 0.  0.
         25    1    3    3    0    0 -0.12103990560E+02  0.11017216448E+03 -0.13894225623E+03  0.21734044971E+03  0.12509000000E+03 0.  0.
         25    1    4    4    0    0  0.11692530270E+02 -0.14848943157E+02 -0.91716899836E+02  0.15625845319E+03  0.12509000000E+03 0.  0.
<mgrwt>
<rscale>  2 0.45477045E+03</rscale>
<asrwt>0</asrwt>
<pdfrwt beam="1">  1       21 0.17842215E-01 0.45477045E+03</pdfrwt>
<pdfrwt beam="2">  1       21 0.62669742E-01 0.45477045E+03</pdfrwt>
<totfact> 0.62146053E+04</totfact>
</mgrwt>
</event>
<event>
 7    0  0.4766352E-002  0.4563401E+03  0.7546771E-02  0.1025848E+00
         21   -1    0    0  502  501  0.00000000000E+00  0.00000000000E+00  0.44215843215E+03  0.44215843215E+03  0.00000000000E+00 0.  1.
         21   -1    0    0  501  502 -0.00000000000E+00 -0.00000000000E+00 -0.11774417463E+03  0.11774417463E+03  0.00000000000E+00 0.  1.
      99926    2    1    2    0    0  0.00000000000E+00  0.00000000000E+00  0.32441425751E+03  0.55990260678E+03  0.45634013477E+03 0.  0.
      99925    2    3    3    0    0 -0.84015895538E+00  0.17662259676E+02  0.34259973893E+03  0.43226687072E+03  0.26299696791E+03 0.  0.
         25    1    4    4    0    0  0.23419809036E+01  0.13740385260E+02  0.10585915588E+03  0.16446261595E+03  0.12509000000E+03 0.  0.
         25    1    3    3    0    0  0.84015895538E+00 -0.17662259676E+02 -0.18185481413E+02  0.12763573605E+03  0.12509000000E+03 0.  0.
         25    1    4    4    0    0 -0.31821398590E+01  0.39218744160E+01  0.23674058304E+03  0.26780425477E+03  0.12509000000E+03 0.  0.
<mgrwt>
<rscale>  2 0.45634013E+03</rscale>
<asrwt>0</asrwt>
<pdfrwt beam="1">  1       21 0.65023298E-01 0.45634013E+03</pdfrwt>
<pdfrwt beam="2">  1       21 0.17315320E-01 0.45634013E+03</pdfrwt>
<totfact> 0.60572199E+04</totfact>
</mgrwt>
</event>
<event>
 7    0  0.4766352E-002  0.4557931E+03  0.7546771E-02  0.1026008E+00
         21   -1    0    0  502  501  0.00000000000E+00  0.00000000000E+00  0.93228041145E+02  0.93228041145E+02  0.00000000000E+00 0. -1.
         21   -1    0    0  501  502 -0.00000000000E+00 -0.00000000000E+00 -0.55709471303E+03  0.55709471303E+03  0.00000000000E+00 0. -1.
      99926    2    1    2    0    0  0.00000000000E+00  0.00000000000E+00 -0.46386667189E+03  0.65032275418E+03  0.45579314970E+03 0.  0.
      99925    2    3    3    0    0  0.90360504701E+02 -0.69070889027E+02 -0.29120784046E+03  0.40867344486E+03  0.26320366576E+03 0.  0.
         25    1    3    3    0    0 -0.90360504701E+02  0.69070889027E+02 -0.17265883143E+03  0.24164930931E+03  0.12509000000E+03 0.  0.
         25    1    4    4    0    0  0.43784961042E+02  0.59144341530E+00 -0.16890631224E+03  0.21469588500E+03  0.12509000000E+03 0.  0.
         25    1    4    4    0    0  0.46575543659E+02 -0.69662332442E+02 -0.12230152821E+03  0.19397755987E+03  0.12509000000E+03 0.  0.
<mgrwt>
<rscale>  2 0.45579315E+03</rscale>
<asrwt>0</asrwt>
<pdfrwt beam="1">  1       21 0.13710006E-01 0.45579315E+03</pdfrwt>
<pdfrwt beam="2">  1       21 0.81925696E-01 0.45579315E+03</pdfrwt>
<totfact> 0.55335844E+04</totfact>
</mgrwt>
</event>
<event>
 7    0  0.4766352E-002  0.4590716E+03  0.7546771E-02  0.1025051E+00
         21   -1    0    0  502  501  0.00000000000E+00  0.00000000000E+00  0.27265065834E+03  0.27265065834E+03  0.00000000000E+00 0.  1.
         21   -1    0    0  501  502 -0.00000000000E+00 -0.00000000000E+00 -0.19323881117E+03  0.19323881117E+03  0.00000000000E+00 0.  1.
      99926    2    1    2    0    0  0.00000000000E+00  0.00000000000E+00  0.79411847172E+02  0.46588946951E+03  0.45907162440E+03 0.  0.
      99925    2    3    3    0    0 -0.45347014779E+02 -0.75152956044E+02 -0.28414107347E+02  0.27886470345E+03  0.26316124863E+03 0.  0.
         25    1    4    4    0    0 -0.33438768435E+02 -0.42211219332E+02  0.24902431124E+02  0.13844702036E+03  0.12509000000E+03 0.  0.
         25    1    3    3    0    0  0.45347014779E+02  0.75152956044E+02  0.10782595452E+03  0.18702476606E+03  0.12509000000E+03 0.  0.
         25    1    4    4    0    0 -0.11908246343E+02 -0.32941736712E+02 -0.53316538471E+02  0.14041768309E+03  0.12509000000E+03 0.  0.
<mgrwt>
<rscale>  2 0.45907162E+03</rscale>
<asrwt>0</asrwt>
<pdfrwt beam="1">  1       21 0.40095685E-01 0.45907162E+03</pdfrwt>
<pdfrwt beam="2">  1       21 0.28417472E-01 0.45907162E+03</pdfrwt>
<totfact> 0.65595181E+04</totfact>
</mgrwt>
</event>
<event>
 7    0  0.4766352E-002  0.4520582E+03  0.7546771E-02  0.1027110E+00
         21   -1    0    0  502  501  0.00000000000E+00  0.00000000000E+00  0.10911774872E+03  0.10911774872E+03  0.00000000000E+00 0.  1.
         21   -1    0    0  501  502 -0.00000000000E+00 -0.00000000000E+00 -0.46820215099E+03  0.46820215099E+03  0.00000000000E+00 0.  1.
      99926    2    1    2    0    0  0.00000000000E+00  0.00000000000E+00 -0.35908440227E+03  0.57731989971E+03  0.45205824696E+03 0.  0.
      99925    2    3    3    0    0  0.46223490361E+02  0.35178048375E+02 -0.10658860059E+03  0.28961215891E+03  0.26294479775E+03 0.  0.
         25    1    4    4    0    0  0.19204631622E+02 -0.13015504616E+02 -0.22842029211E+02  0.12925744711E+03  0.12509000000E+03 0.  0.
         25    1    3    3    0    0 -0.46223490361E+02 -0.35178048375E+02 -0.25249580168E+03  0.28770774080E+03  0.12509000000E+03 0.  0.
         25    1    4    4    0    0  0.27018858739E+02  0.48193552991E+02 -0.83746571383E+02  0.16035471180E+03  0.12509000000E+03 0.  0.
<mgrwt>
<rscale>  2 0.45205825E+03</rscale>
<asrwt>0</asrwt>
<pdfrwt beam="1">  1       21 0.16046728E-01 0.45205825E+03</pdfrwt>
<pdfrwt beam="2">  1       21 0.68853257E-01 0.45205825E+03</pdfrwt>
<totfact> 0.61514746E+04</totfact>
</mgrwt>
</event>
<event>
 7    0  0.4766352E-002  0.4235968E+03  0.7546771E-02  0.1035902E+00
         21   -1    0    0  502  501  0.00000000000E+00  0.00000000000E+00  0.17618370067E+03  0.17618370067E+03  0.00000000000E+00 0. -1.
         21   -1    0    0  501  502 -0.00000000000E+00 -0.00000000000E+00 -0.25461248935E+03  0.25461248935E+03  0.00000000000E+00 0. -1.
      99926    2    1    2    0    0  0.00000000000E+00 -0.17763568394E-14 -0.78428788688E+02  0.43079619002E+03  0.42359683951E+03 0.  0.
      99925    2    3    3    0    0 -0.77703322313E+02  0.90488547922E+01 -0.61412262570E+02  0.28228101123E+03  0.26418064886E+03 0.  0.
         25    1    4    4    0    0 -0.58667102995E+02  0.32816028456E+02 -0.58274785633E+02  0.15349977016E+03  0.12509000000E+03 0.  0.
         25    1    3    3    0    0  0.77703322313E+02 -0.90488547922E+01 -0.17016526118E+02  0.14851517880E+03  0.12509000000E+03 0.  0.
         25    1    4    4    0    0 -0.19036219317E+02 -0.23767173664E+02 -0.31374769371E+01  0.12878124107E+03  0.12509000000E+03 0.  0.
<mgrwt>
<rscale>  2 0.42359684E+03</rscale>
<asrwt>0</asrwt>
<pdfrwt beam="1">  1       21 0.25909368E-01 0.42359684E+03</pdfrwt>
<pdfrwt beam="2">  1       21 0.37443013E-01 0.42359684E+03</pdfrwt>
<totfact> 0.91126937E+04</totfact>
</mgrwt>
</event>
<event>
 7    0  0.4766352E-002  0.4472555E+03  0.7546771E-02  0.1028544E+00
         21   -1    0    0  502  501  0.00000000000E+00  0.00000000000E+00  0.14241997724E+03  0.14241997724E+03  0.00000000000E+00 0.  1.
         21   -1    0    0  501  502 -0.00000000000E+00 -0.00000000000E+00 -0.35114017941E+03  0.35114017941E+03  0.00000000000E+00 0.  1.
      99926    2    1    2    0    0  0.71054273576E-14  0.00000000000E+00 -0.20872020217E+03  0.49356015664E+03  0.44725552588E+03 0.  0.
      99925    2    3    3    0    0  0.62217400407E+02 -0.85442239897E+02 -0.12590516996E+03  0.31004661782E+03  0.26287908271E+03 0.  0.
         25    1    4    4    0    0  0.13320954449E+02 -0.44735061722E+01 -0.45828524313E+02  0.13395977689E+03  0.12509000000E+03 0.  0.
         25    1    4    4    0    0  0.48896445958E+02 -0.80968733725E+02 -0.80076645647E+02  0.17608684092E+03  0.12509000000E+03 0.  0.
         25    1    3    3    0    0 -0.62217400407E+02  0.85442239897E+02 -0.82815032213E+02  0.18351353883E+03  0.12509000000E+03 0.  0.
<mgrwt>
<rscale>  2 0.44725553E+03</rscale>
<asrwt>0</asrwt>
<pdfrwt beam="1">  1       21 0.20944115E-01 0.44725553E+03</pdfrwt>
<pdfrwt beam="2">  1       21 0.51638260E-01 0.44725553E+03</pdfrwt>
<totfact> 0.69926537E+04</totfact>
</mgrwt>
</event>
<event>
 7    0  0.4766352E-002  0.4560042E+03  0.7546771E-02  0.1025947E+00
         21   -1    0    0  502  501  0.00000000000E+00  0.00000000000E+00  0.15928862503E+03  0.15928862503E+03  0.00000000000E+00 0.  1.
         21   -1    0    0  501  502 -0.00000000000E+00 -0.00000000000E+00 -0.32635704051E+03  0.32635704051E+03  0.00000000000E+00 0.  1.
      99926    2    1    2    0    0  0.00000000000E+00  0.00000000000E+00 -0.16706841548E+03  0.48564566554E+03  0.45600422916E+03 0.  0.
      99925    2    3    3    0    0  0.68583904811E+02 -0.91219103271E+02 -0.97713666634E+02  0.30266406513E+03  0.26274112521E+03 0.  0.
         25    1    4    4    0    0  0.21974884904E+02 -0.19144794037E+02 -0.76462334546E+02  0.14947714009E+03  0.12509000000E+03 0.  0.
         25    1    4    4    0    0  0.46609019907E+02 -0.72074309234E+02 -0.21251332088E+02  0.15318692504E+03  0.12509000000E+03 0.  0.
         25    1    3    3    0    0 -0.68583904811E+02  0.91219103271E+02 -0.69354748843E+02  0.18298160041E+03  0.12509000000E+03 0.  0.
<mgrwt>
<rscale>  2 0.45600423E+03</rscale>
<asrwt>0</asrwt>
<pdfrwt beam="1">  1       21 0.23424798E-01 0.45600423E+03</pdfrwt>
<pdfrwt beam="2">  1       21 0.47993682E-01 0.45600423E+03</pdfrwt>
<totfact> 0.65765537E+04</totfact>
</mgrwt>
</event>
<event>
 7    0  0.4766352E-002  0.4828494E+03  0.7546771E-02  0.1018355E+00
         21   -1    0    0  502  501  0.00000000000E+00  0.00000000000E+00  0.16814383769E+03  0.16814383769E+03  0.00000000000E+00 0. -1.
         21   -1    0    0  501  502 -0.00000000000E+00 -0.00000000000E+00 -0.34664294697E+03  0.34664294697E+03  0.00000000000E+00 0. -1.
      99926    2    1    2    0    0  0.00000000000E+00  0.00000000000E+00 -0.17849910928E+03  0.51478678466E+03  0.48284935709E+03 0.  0.
      99925    2    3    3    0    0 -0.12362505863E+03  0.43026005713E+02 -0.64020840730E+02  0.30057386637E+03  0.26289083059E+03 0.  0.
         25    1    3    3    0    0  0.12362505863E+03 -0.43026005713E+02 -0.11447826855E+03  0.21421291829E+03  0.12509000000E+03 0.  0.
         25    1    4    4    0    0 -0.29267937229E+02  0.17715703229E+02 -0.57119235297E+02  0.14170594000E+03  0.12509000000E+03 0.  0.
         25    1    4    4    0    0 -0.94357121405E+02  0.25310302484E+02 -0.69016054325E+01  0.15886792637E+03  0.12509000000E+03 0.  0.
<mgrwt>
<rscale>  2 0.48284936E+03</rscale>
<asrwt>0</asrwt>
<pdfrwt beam="1">  1       21 0.24727035E-01 0.48284936E+03</pdfrwt>
<pdfrwt beam="2">  1       21 0.50976904E-01 0.48284936E+03</pdfrwt>
<totfact> 0.51808225E+04</totfact>
</mgrwt>
</event>
<event>
 7    0  0.4766352E-002  0.4535820E+03  0.7546771E-02  0.1026659E+00
         21   -1    0    0  502  501  0.00000000000E+00  0.00000000000E+00  0.10128709911E+03  0.10128709911E+03  0.00000000000E+00 0. -1.
         21   -1    0    0  501  502 -0.00000000000E+00 -0.00000000000E+00 -0.50780565966E+03  0.50780565966E+03  0.00000000000E+00 0. -1.
      99926    2    1    2    0    0  0.35527136788E-14  0.00000000000E+00 -0.40651856056E+03  0.60909275877E+03  0.45358201982E+03 0.  0.
      99925    2    3    3    0    0  0.26059269554E+02 -0.67958228248E+02 -0.36923357872E+03  0.45964348882E+03  0.26389637142E+03 0.  0.
         25    1    3    3    0    0 -0.26059269554E+02  0.67958228248E+02 -0.37284981836E+02  0.14944926994E+03  0.12509000000E+03 0.  0.
         25    1    4    4    0    0  0.40915356253E+02 -0.18138063640E+02 -0.13734429378E+03  0.19108641726E+03  0.12509000000E+03 0.  0.
         25    1    4    4    0    0 -0.14856086699E+02 -0.49820164608E+02 -0.23188928494E+03  0.26855707156E+03  0.12509000000E+03 0.  0.
<mgrwt>
<rscale>  2 0.45358202E+03</rscale>
<asrwt>0</asrwt>
<pdfrwt beam="1">  1       21 0.14895162E-01 0.45358202E+03</pdfrwt>
<pdfrwt beam="2">  1       21 0.74677303E-01 0.45358202E+03</pdfrwt>
<totfact> 0.58777640E+04</totfact>
</mgrwt>
</event>
<event>
 7    0  0.4766352E-002  0.4413370E+03  0.7546771E-02  0.1030337E+00
         21   -1    0    0  502  501  0.00000000000E+00  0.00000000000E+00  0.51154566639E+03  0.51154566639E+03  0.00000000000E+00 0. -1.
         21   -1    0    0  501  502 -0.00000000000E+00 -0.00000000000E+00 -0.95191083603E+02  0.95191083603E+02  0.00000000000E+00 0. -1.
      99926    2    1    2    0    0  0.71054273576E-14  0.71054273576E-14  0.41635458279E+03  0.60673675000E+03  0.44133699730E+03 0.  0.
      99925    2    3    3    0    0  0.50245570973E+02  0.45475530073E+02  0.16473623638E+03  0.31768322279E+03  0.26304364891E+03 0.  0.
         25    1    4    4    0    0  0.86130319549E+01  0.39609138145E+02  0.43558044249E+02  0.13852032148E+03  0.12509000000E+03 0.  0.
         25    1    3    3    0    0 -0.50245570973E+02 -0.45475530073E+02  0.25161834641E+03  0.28905352720E+03  0.12509000000E+03 0.  0.
         25    1    4    4    0    0  0.41632539018E+02  0.58663919285E+01  0.12117819213E+03  0.17916290131E+03  0.12509000000E+03 0.  0.
<mgrwt>
<rscale>  2 0.44133700E+03</rscale>
<asrwt>0</asrwt>
<pdfrwt beam="1">  1       21 0.75227303E-01 0.44133700E+03</pdfrwt>
<pdfrwt beam="2">  1       21 0.13998689E-01 0.44133700E+03</pdfrwt>
<totfact> 0.65001919E+04</totfact>
</mgrwt>
</event>
<event>
 7    0  0.4766352E-002  0.4701364E+03  0.7546771E-02  0.1021882E+00
         21   -1    0    0  502  501  0.00000000000E+00  0.00000000000E+00  0.47948296385E+02  0.47948296385E+02  0.00000000000E+00 0. -1.
         21   -1    0    0  501  502 -0.00000000000E+00 -0.00000000000E+00 -0.11524299693E+04  0.11524299693E+04  0.00000000000E+00 0. -1.
      99926    2    1    2    0    0 -0.35527136788E-14 -0.14210854715E-13 -0.11044816729E+04  0.12003782657E+04  0.47013637907E+03 0.  0.
      99925    2    3    3    0    0 -0.10581898777E+02 -0.12625317058E+03 -0.70534161668E+03  0.76332891807E+03  0.26289237584E+03 0.  0.
         25    1    3    3    0    0  0.10581898777E+02  0.12625317058E+03 -0.39914005625E+03  0.43704934763E+03  0.12509000000E+03 0.  0.
         25    1    4    4    0    0 -0.35117472722E+02 -0.36078592138E+02 -0.29809168688E+03  0.32717130618E+03  0.12509000000E+03 0.  0.
         25    1    4    4    0    0  0.24535573945E+02 -0.90174578440E+02 -0.40724992980E+03  0.43615761189E+03  0.12509000000E+03 0.  0.
<mgrwt>
<rscale>  2 0.47013638E+03</rscale>
<asrwt>0</asrwt>
<pdfrwt beam="1">  1       21 0.70512210E-02 0.47013638E+03</pdfrwt>
<pdfrwt beam="2">  1       21 0.16947497E+00 0.47013638E+03</pdfrwt>
<totfact> 0.28617696E+04</totfact>
</mgrwt>
</event>
<event>
 7    0  0.4766352E-002  0.4553819E+03  0.7546771E-02  0.1026129E+00
         21   -1    0    0  502  501  0.00000000000E+00  0.00000000000E+00  0.23326666180E+02  0.23326666180E+02  0.00000000000E+00 0. -1.
         21   -1    0    0  501  502 -0.00000000000E+00 -0.00000000000E+00 -0.22224855563E+04  0.22224855563E+04  0.00000000000E+00 0. -1.
      99926    2    1    2    0    0  0.35527136788E-14 -0.88817841970E-15 -0.21991588902E+04  0.22458122225E+04  0.45538194370E+03 0.  0.
      99925    2    3    3    0    0 -0.13342187548E+02 -0.74524208746E+01 -0.83110591875E+03  0.87196725557E+03  0.26335583162E+03 0.  0.
         25    1    4    4    0    0  0.32589688591E+02 -0.35253221374E+00 -0.44853836554E+03  0.46679372912E+03  0.12509000000E+03 0.  0.
         25    1    4    4    0    0 -0.45931876139E+02 -0.70998886608E+01 -0.38256755321E+03  0.40517352645E+03  0.12509000000E+03 0.  0.
         25    1    3    3    0    0  0.13342187548E+02  0.74524208746E+01 -0.13680529714E+04  0.13738449670E+04  0.12509000000E+03 0.  0.
<mgrwt>
<rscale>  2 0.45538194E+03</rscale>
<asrwt>0</asrwt>
<pdfrwt beam="1">  1       21 0.34303940E-02 0.45538194E+03</pdfrwt>
<pdfrwt beam="2">  1       21 0.32683593E+00 0.45538194E+03</pdfrwt>
<totfact> 0.10065684E+04</totfact>
</mgrwt>
</event>
<event>
 7    0  0.4766352E-002  0.4798246E+03  0.7546771E-02  0.1019183E+00
         21   -1    0    0  502  501  0.00000000000E+00  0.00000000000E+00  0.95906500149E+03  0.95906500149E+03  0.00000000000E+00 0.  1.
         21   -1    0    0  501  502 -0.00000000000E+00 -0.00000000000E+00 -0.60014614245E+02  0.60014614245E+02  0.00000000000E+00 0.  1.
      99926    2    1    2    0    0  0.00000000000E+00  0.00000000000E+00  0.89905038724E+03  0.10190796157E+04  0.47982461838E+03 0.  0.
      99925    2    3    3    0    0  0.16856777216E+02 -0.91452792453E+02  0.76200844319E+03  0.81153259283E+03  0.26321192516E+03 0.  0.
         25    1    4    4    0    0  0.44004412757E+01 -0.14176360952E+02  0.27130571338E+03  0.29912310393E+03  0.12509000000E+03 0.  0.
         25    1    4    4    0    0  0.12456335941E+02 -0.77276431501E+02  0.49070272981E+03  0.51240948890E+03  0.12509000000E+03 0.  0.
         25    1    3    3    0    0 -0.16856777216E+02  0.91452792453E+02  0.13704194405E+03  0.20754702290E+03  0.12509000000E+03 0.  0.
<mgrwt>
<rscale>  2 0.47982462E+03</rscale>
<asrwt>0</asrwt>
<pdfrwt beam="1">  1       21 0.14103896E+00 0.47982462E+03</pdfrwt>
<pdfrwt beam="2">  1       21 0.88256791E-02 0.47982462E+03</pdfrwt>
<totfact> 0.31805599E+04</totfact>
</mgrwt>
</event>
<event>
 7    0  0.4766352E-002  0.4562000E+03  0.7546771E-02  0.1025889E+00
         21   -1    0    0  502  501  0.00000000000E+00  0.00000000000E+00  0.27497141554E+03  0.27497141554E+03  0.00000000000E+00 0. -1.
         21   -1    0    0  501  502 -0.00000000000E+00 -0.00000000000E+00 -0.18921823420E+03  0.18921823420E+03  0.00000000000E+00 0. -1.
      99926    2    1    2    0    0  0.00000000000E+00  0.14210854715E-13  0.85753181343E+02  0.46418964974E+03  0.45619998116E+03 0.  0.
      99925    2    3    3    0    0  0.56449096434E+02  0.95766894356E+02  0.81074981719E+02  0.29677641193E+03  0.26295491528E+03 0.  0.
         25    1    3    3    0    0 -0.56449096434E+02 -0.95766894356E+02  0.46781996248E+01  0.16741323781E+03  0.12509000000E+03 0.  0.
         25    1    4    4    0    0  0.63917658445E+01  0.39331319763E+02  0.33879608491E+01  0.13132704887E+03  0.12509000000E+03 0.  0.
         25    1    4    4    0    0  0.50057330590E+02  0.56435574592E+02  0.77687020869E+02  0.16544936306E+03  0.12509000000E+03 0.  0.
<mgrwt>
<rscale>  2 0.45619998E+03</rscale>
<asrwt>0</asrwt>
<pdfrwt beam="1">  1       21 0.40436973E-01 0.45619998E+03</pdfrwt>
<pdfrwt beam="2">  1       21 0.27826211E-01 0.45619998E+03</pdfrwt>
<totfact> 0.67226791E+04</totfact>
</mgrwt>
</event>
<event>
 7    0  0.4766352E-002  0.4551964E+03  0.7546771E-02  0.1026184E+00
         21   -1    0    0  502  501  0.00000000000E+00  0.00000000000E+00  0.75240518338E+03  0.75240518338E+03  0.00000000000E+00 0. -1.
         21   -1    0    0  501  502 -0.00000000000E+00 -0.00000000000E+00 -0.68847143808E+02  0.68847143808E+02  0.00000000000E+00 0. -1.
      99926    2    1    2    0    0  0.00000000000E+00  0.00000000000E+00  0.68355803957E+03  0.82125232718E+03  0.45519643171E+03 0.  0.
      99925    2    3    3    0    0  0.10085089695E+03 -0.44204399878E+02  0.47883854597E+03  0.55727787474E+03  0.26295882602E+03 0.  0.
         25    1    4    4    0    0  0.58164479788E+02 -0.31180550859E+02  0.32244850262E+03  0.35210208521E+03  0.12509000000E+03 0.  0.
         25    1    4    4    0    0  0.42686417161E+02 -0.13023849019E+02  0.15639004335E+03  0.20517578954E+03  0.12509000000E+03 0.  0.
         25    1    3    3    0    0 -0.10085089695E+03  0.44204399878E+02  0.20471949359E+03  0.26397445244E+03  0.12509000000E+03 0.  0.
<mgrwt>
<rscale>  2 0.45519643E+03</rscale>
<asrwt>0</asrwt>
<pdfrwt beam="1">  1       21 0.11064782E+00 0.45519643E+03</pdfrwt>
<pdfrwt beam="2">  1       21 0.10124580E-01 0.45519643E+03</pdfrwt>
<totfact> 0.46681993E+04</totfact>
</mgrwt>
</event>
<event>
 7    0  0.4766352E-002  0.4526583E+03  0.7546771E-02  0.1026932E+00
         21   -1    0    0  502  501  0.00000000000E+00  0.00000000000E+00  0.22735968205E+03  0.22735968205E+03  0.00000000000E+00 0. -1.
         21   -1    0    0  501  502 -0.00000000000E+00 -0.00000000000E+00 -0.22530331997E+03  0.22530331997E+03  0.00000000000E+00 0. -1.
      99926    2    1    2    0    0  0.00000000000E+00 -0.35527136788E-14  0.20563620794E+01  0.45266300203E+03  0.45265833117E+03 0.  0.
      99925    2    3    3    0    0 -0.78872875259E+02 -0.23228660669E+02 -0.73226386724E+02  0.28510554473E+03  0.26298776929E+03 0.  0.
         25    1    4    4    0    0 -0.15325301128E+02 -0.11300973803E+02 -0.69240251984E+02  0.14423694901E+03  0.12509000000E+03 0.  0.
         25    1    4    4    0    0 -0.63547574131E+02 -0.11927686866E+02 -0.39861347400E+01  0.14086859573E+03  0.12509000000E+03 0.  0.
         25    1    3    3    0    0  0.78872875259E+02  0.23228660669E+02  0.75282748803E+02  0.16755745730E+03  0.12509000000E+03 0.  0.
<mgrwt>
<rscale>  2 0.45265833E+03</rscale>
<asrwt>0</asrwt>
<pdfrwt beam="1">  1       21 0.33435247E-01 0.45265833E+03</pdfrwt>
<pdfrwt beam="2">  1       21 0.33132841E-01 0.45265833E+03</pdfrwt>
<totfact> 0.70016412E+04</totfact>
</mgrwt>
</event>
<event>
 7    0  0.4766352E-002  0.4605749E+03  0.7546771E-02  0.1024615E+00
         21   -1    0    0  502  501  0.00000000000E+00  0.00000000000E+00  0.26320941989E+03  0.26320941989E+03  0.00000000000E+00 0. -1.
         21   -1    0    0  501  502 -0.00000000000E+00 -0.00000000000E+00 -0.20148336034E+03  0.20148336034E+03  0.00000000000E+00 0. -1.
      99926    2    1    2    0    0  0.00000000000E+00 -0.44408920985E-15  0.61726059543E+02  0.46469278023E+03  0.46057493806E+03 0.  0.
      99925    2    3    3    0    0 -0.21670367934E+02 -0.11367629032E+01  0.15629517572E+03  0.30638383256E+03  0.26262515841E+03 0.  0.
         25    1    4    4    0    0 -0.40119308109E+02 -0.25862607529E+02  0.91523858008E+02  0.16218063397E+03  0.12509000000E+03 0.  0.
         25    1    4    4    0    0  0.18448940175E+02  0.24725844626E+02  0.64771317710E+02  0.14420319859E+03  0.12509000000E+03 0.  0.
         25    1    3    3    0    0  0.21670367934E+02  0.11367629032E+01 -0.94569116175E+02  0.15830894766E+03  0.12509000000E+03 0.  0.
<mgrwt>
<rscale>  2 0.46057494E+03</rscale>
<asrwt>0</asrwt>
<pdfrwt beam="1">  1       21 0.38707268E-01 0.46057494E+03</pdfrwt>
<pdfrwt beam="2">  1       21 0.29629906E-01 0.46057494E+03</pdfrwt>
<totfact> 0.64905895E+04</totfact>
</mgrwt>
</event>
<event>
 7    0  0.4766352E-002  0.4574495E+03  0.7546771E-02  0.1025524E+00
         21   -1    0    0  502  501  0.00000000000E+00  0.00000000000E+00  0.18299862058E+03  0.18299862058E+03  0.00000000000E+00 0. -1.
         21   -1    0    0  501  502 -0.00000000000E+00 -0.00000000000E+00 -0.28587651916E+03  0.28587651916E+03  0.00000000000E+00 0. -1.
      99926    2    1    2    0    0  0.00000000000E+00  0.00000000000E+00 -0.10287789858E+03  0.46887513975E+03  0.45744948864E+03 0.  0.
      99925    2    3    3    0    0 -0.11227778532E+03 -0.15530976744E+02 -0.39659637843E+02  0.28862096114E+03  0.26245315777E+03 0.  0.
         25    1    4    4    0    0 -0.64549744519E+02  0.23062561001E+02 -0.43827952799E+02  0.14922114054E+03  0.12509000000E+03 0.  0.
         25    1    4    4    0    0 -0.47728040800E+02 -0.38593537745E+02  0.41683149564E+01  0.13939982060E+03  0.12509000000E+03 0.  0.
         25    1    3    3    0    0  0.11227778532E+03  0.15530976744E+02 -0.63218260737E+02  0.18025417861E+03  0.12509000000E+03 0.  0.
<mgrwt>
<rscale>  2 0.45744949E+03</rscale>
<asrwt>0</asrwt>
<pdfrwt beam="1">  1       21 0.26911562E-01 0.45744949E+03</pdfrwt>
<pdfrwt beam="2">  1       21 0.42040664E-01 0.45744949E+03</pdfrwt>
<totfact> 0.66223677E+04</totfact>
</mgrwt>
</event>
<event>
 7    0  0.4766352E-002  0.4279602E+03  0.7546771E-02  0.1034506E+00
         21   -1    0    0  502  501  0.00000000000E+00  0.00000000000E+00  0.95899423493E+03  0.95899423493E+03  0.00000000000E+00 0.  1.
         21   -1    0    0  501  502 -0.00000000000E+00 -0.00000000000E+00 -0.47745315964E+02  0.47745315964E+02  0.00000000000E+00 0.  1.
      99926    2    1    2    0    0  0.00000000000E+00  0.00000000000E+00  0.91124891896E+03  0.10067395509E+04  0.42796019794E+03 0.  0.
      99925    2    3    3    0    0  0.20598043954E+02 -0.81145812458E+02  0.62793232775E+03  0.68592072156E+03  0.26301959194E+03 0.  0.
         25    1    4    4    0    0  0.36970170390E+02 -0.14225324267E+02  0.34207472296E+03  0.36637655156E+03  0.12509000000E+03 0.  0.
         25    1    4    4    0    0 -0.16372126436E+02 -0.66920488190E+02  0.28585760479E+03  0.31954417000E+03  0.12509000000E+03 0.  0.
         25    1    3    3    0    0 -0.20598043954E+02  0.81145812458E+02  0.28331659121E+03  0.32081882933E+03  0.12509000000E+03 0.  0.
<mgrwt>
<rscale>  2 0.42796020E+03</rscale>
<asrwt>0</asrwt>
<pdfrwt beam="1">  1       21 0.14102855E+00 0.42796020E+03</pdfrwt>
<pdfrwt beam="2">  1       21 0.70213706E-02 0.42796020E+03</pdfrwt>
<totfact> 0.48332949E+04</totfact>
</mgrwt>
</event>
<event>
 7    0  0.4766352E-002  0.4577093E+03  0.7546771E-02  0.1025448E+00
         21   -1    0    0  502  501  0.00000000000E+00  0.00000000000E+00  0.39541399139E+03  0.39541399139E+03  0.00000000000E+00 0. -1.
         21   -1    0    0  501  502 -0.00000000000E+00 -0.00000000000E+00 -0.13245469527E+03  0.13245469527E+03  0.00000000000E+00 0. -1.
      99926    2    1    2    0    0 -0.35527136788E-14  0.14210854715E-13  0.26295929612E+03  0.52786868666E+03  0.45770925153E+03 0.  0.
      99925    2    3    3    0    0  0.26243984520E+02 -0.10533199432E+03  0.21121107961E+03  0.35434934548E+03  0.26300145007E+03 0.  0.
         25    1    4    4    0    0 -0.26938811295E+02 -0.43040619283E+02  0.99818006005E+02  0.16789680427E+03  0.12509000000E+03 0.  0.
         25    1    4    4    0    0  0.53182795815E+02 -0.62291375037E+02  0.11139307360E+03  0.18645254120E+03  0.12509000000E+03 0.  0.
         25    1    3    3    0    0 -0.26243984520E+02  0.10533199432E+03  0.51748216516E+02  0.17351934118E+03  0.12509000000E+03 0.  0.
<mgrwt>
<rscale>  2 0.45770925E+03</rscale>
<asrwt>0</asrwt>
<pdfrwt beam="1">  1       21 0.58149116E-01 0.45770925E+03</pdfrwt>
<pdfrwt beam="2">  1       21 0.19478632E-01 0.45770925E+03</pdfrwt>
<totfact> 0.62008603E+04</totfact>
</mgrwt>
</event>
<event>
 7    0  0.4766352E-002  0.4488993E+03  0.7546771E-02  0.1028051E+00
         21   -1    0    0  502  501  0.00000000000E+00  0.00000000000E+00  0.11161607196E+04  0.11161607196E+04  0.00000000000E+00 0. -1.
         21   -1    0    0  501  502 -0.00000000000E+00 -0.00000000000E+00 -0.45134769122E+02  0.45134769122E+02  0.00000000000E+00 0. -1.
      99926    2    1    2    0    0  0.00000000000E+00  0.00000000000E+00  0.10710259505E+04  0.11612954888E+04  0.44889934900E+03 0.  0.
      99925    2    3    3    0    0  0.35913727284E+02 -0.80400771665E+02  0.52130273857E+03  0.59068423953E+03  0.26343356980E+03 0.  0.
         25    1    4    4    0    0  0.32887091649E+02 -0.62161809896E+02  0.20679656727E+03  0.25171011053E+03  0.12509000000E+03 0.  0.
         25    1    4    4    0    0  0.30266356354E+01 -0.18238961769E+02  0.31450617130E+03  0.33897412900E+03  0.12509000000E+03 0.  0.
         25    1    3    3    0    0 -0.35913727284E+02  0.80400771665E+02  0.54972321196E+03  0.57061124924E+03  0.12509000000E+03 0.  0.
<mgrwt>
<rscale>  2 0.44889935E+03</rscale>
<asrwt>0</asrwt>
<pdfrwt beam="1">  1       21 0.16414126E+00 0.44889935E+03</pdfrwt>
<pdfrwt beam="2">  1       21 0.66374668E-02 0.44889935E+03</pdfrwt>
<totfact> 0.35044094E+04</totfact>
</mgrwt>
</event>
<event>
 7    0  0.4766352E-002  0.4532503E+03  0.7546771E-02  0.1026757E+00
         21   -1    0    0  502  501  0.00000000000E+00  0.00000000000E+00  0.96966191370E+02  0.96966191370E+02  0.00000000000E+00 0.  1.
         21   -1    0    0  501  502 -0.00000000000E+00 -0.00000000000E+00 -0.52965845514E+03  0.52965845514E+03  0.00000000000E+00 0.  1.
      99926    2    1    2    0    0  0.00000000000E+00  0.00000000000E+00 -0.43269226377E+03  0.62662464651E+03  0.45325031990E+03 0.  0.
      99925    2    3    3    0    0 -0.41927366611E+02  0.43297360770E+02 -0.40258443796E+03  0.48454525041E+03  0.26282561613E+03 0.  0.
         25    1    3    3    0    0  0.41927366611E+02 -0.43297360770E+02 -0.30107825814E+02  0.14207939610E+03  0.12509000000E+03 0.  0.
         25    1    4    4    0    0 -0.19260203961E+02 -0.19131962166E+02 -0.19382935526E+03  0.23228068041E+03  0.12509000000E+03 0.  0.
         25    1    4    4    0    0 -0.22667162650E+02  0.62429322936E+02 -0.20875508270E+03  0.25226457000E+03  0.12509000000E+03 0.  0.
<mgrwt>
<rscale>  2 0.45325032E+03</rscale>
<asrwt>0</asrwt>
<pdfrwt beam="1">  1       21 0.14259734E-01 0.45325032E+03</pdfrwt>
<pdfrwt beam="2">  1       21 0.77890949E-01 0.45325032E+03</pdfrwt>
<totfact> 0.57863825E+04</totfact>
</mgrwt>
</event>
<event>
 7    0  0.4766352E-002  0.4043947E+03  0.7546771E-02  0.1042268E+00
         21   -1    0    0  502  501  0.00000000000E+00  0.00000000000E+00  0.15599163459E+03  0.15599163459E+03  0.00000000000E+00 0. -1.
         21   -1    0    0  501  502 -0.00000000000E+00 -0.00000000000E+00 -0.26208955258E+03  0.26208955258E+03  0.00000000000E+00 0. -1.
      99926    2    1    2    0    0  0.00000000000E+00  0.00000000000E+00 -0.10609791799E+03  0.41808118716E+03  0.40439474633E+03 0.  0.
      99925    2    3    3    0    0 -0.12605588418E+02  0.31665696590E+02 -0.27699352850E+02  0.26657059244E+03  0.26292776461E+03 0.  0.
         25    1    3    3    0    0  0.12605588418E+02 -0.31665696590E+02 -0.78398565136E+02  0.15151059473E+03  0.12509000000E+03 0.  0.
         25    1    4    4    0    0 -0.19111723908E+01  0.15212267144E+02  0.26593838825E+02  0.12880142086E+03  0.12509000000E+03 0.  0.
         25    1    4    4    0    0 -0.10694416027E+02  0.16453429446E+02 -0.54293191676E+02  0.13776917158E+03  0.12509000000E+03 0.  0.
<mgrwt>
<rscale>  2 0.40439475E+03</rscale>
<asrwt>0</asrwt>
<pdfrwt beam="1">  1       21 0.22939946E-01 0.40439475E+03</pdfrwt>
<pdfrwt beam="2">  1       21 0.38542581E-01 0.40439475E+03</pdfrwt>
<totfact> 0.10916362E+05</totfact>
</mgrwt>
</event>
<event>
 7    0  0.4766352E-002  0.4562982E+03  0.7546771E-02  0.1025860E+00
         21   -1    0    0  502  501  0.00000000000E+00  0.00000000000E+00  0.21564854178E+03  0.21564854178E+03  0.00000000000E+00 0.  1.
         21   -1    0    0  501  502 -0.00000000000E+00 -0.00000000000E+00 -0.24137425980E+03  0.24137425980E+03  0.00000000000E+00 0.  1.
      99926    2    1    2    0    0  0.00000000000E+00  0.00000000000E+00 -0.25725718026E+02  0.45702280158E+03  0.45629817948E+03 0.  0.
      99925    2    3    3    0    0  0.10797468018E+03  0.37969826690E+02 -0.14575258554E+02  0.28710493864E+03  0.26290030112E+03 0.  0.
         25    1    4    4    0    0  0.73537450423E+02 -0.15922402393E+02 -0.13632542720E+02  0.14661048337E+03  0.12509000000E+03 0.  0.
         25    1    4    4    0    0  0.34437229757E+02  0.53892229083E+02 -0.94271583420E+00  0.14049445527E+03  0.12509000000E+03 0.  0.
         25    1    3    3    0    0 -0.10797468018E+03 -0.37969826690E+02 -0.11150459471E+02  0.16991786294E+03  0.12509000000E+03 0.  0.
<mgrwt>
<rscale>  2 0.45629818E+03</rscale>
<asrwt>0</asrwt>
<pdfrwt beam="1">  1       21 0.31713021E-01 0.45629818E+03</pdfrwt>
<pdfrwt beam="2">  1       21 0.35496215E-01 0.45629818E+03</pdfrwt>
<totfact> 0.67693996E+04</totfact>
</mgrwt>
</event>
<event>
 7    0  0.4766352E-002  0.4548984E+03  0.7546771E-02  0.1026271E+00
         21   -1    0    0  502  501  0.00000000000E+00  0.00000000000E+00  0.16773577766E+03  0.16773577766E+03  0.00000000000E+00 0. -1.
         21   -1    0    0  501  502 -0.00000000000E+00 -0.00000000000E+00 -0.30842047175E+03  0.30842047175E+03  0.00000000000E+00 0. -1.
      99926    2    1    2    0    0 -0.35527136788E-14  0.00000000000E+00 -0.14068469409E+03  0.47615624941E+03  0.45489843999E+03 0.  0.
      99925    2    3    3    0    0  0.31911879285E+02  0.10636107073E+03 -0.11047057695E+03  0.30618140898E+03  0.26308223320E+03 0.  0.
         25    1    4    4    0    0 -0.22558794180E+02  0.36827680500E+02 -0.47375763536E+02  0.14056012349E+03  0.12509000000E+03 0.  0.
         25    1    3    3    0    0 -0.31911879285E+02 -0.10636107073E+03 -0.30214117131E+02  0.16997484044E+03  0.12509000000E+03 0.  0.
         25    1    4    4    0    0  0.54470673465E+02  0.69533390234E+02 -0.63094813419E+02  0.16562128548E+03  0.12509000000E+03 0.  0.
<mgrwt>
<rscale>  2 0.45489844E+03</rscale>
<asrwt>0</asrwt>
<pdfrwt beam="1">  1       21 0.24667026E-01 0.45489844E+03</pdfrwt>
<pdfrwt beam="2">  1       21 0.45355951E-01 0.45489844E+03</pdfrwt>
<totfact> 0.67034991E+04</totfact>
</mgrwt>
</event>
<event>
 7    0  0.4766352E-002  0.4521871E+03  0.7546771E-02  0.1027072E+00
         21   -1    0    0  502  501  0.00000000000E+00  0.00000000000E+00  0.21039166202E+02  0.21039166202E+02  0.00000000000E+00 0.  1.
         21   -1    0    0  501  502 -0.00000000000E+00 -0.00000000000E+00 -0.24296730606E+04  0.24296730606E+04  0.00000000000E+00 0.  1.
      99926    2    1    2    0    0  0.35527136788E-14  0.14210854715E-13 -0.24086338944E+04  0.24507122268E+04  0.45218710879E+03 0.  0.
      99925    2    3    3    0    0  0.26633085877E+02  0.10574749299E+03 -0.14264376527E+04  0.14545953567E+04  0.26311864480E+03 0.  0.
         25    1    3    3    0    0 -0.26633085877E+02 -0.10574749299E+03 -0.98219624173E+03  0.99611687011E+03  0.12509000000E+03 0.  0.
         25    1    4    4    0    0  0.13856419907E+02  0.85989345460E+02 -0.63840902792E+03  0.65635338267E+03  0.12509000000E+03 0.  0.
         25    1    4    4    0    0  0.12776665969E+02  0.19758147528E+02 -0.78802862477E+03  0.79824197406E+03  0.12509000000E+03 0.  0.
<mgrwt>
<rscale>  2 0.45218711E+03</rscale>
<asrwt>0</asrwt>
<pdfrwt beam="1">  1       21 0.30939969E-02 0.45218711E+03</pdfrwt>
<pdfrwt beam="2">  1       21 0.35730465E+00 0.45218711E+03</pdfrwt>
<totfact> 0.78190064E+03</totfact>
</mgrwt>
</event>
<event>
 7    0  0.4766352E-002  0.4556802E+03  0.7546771E-02  0.1026042E+00
         21   -1    0    0  502  501  0.00000000000E+00  0.00000000000E+00  0.56688929608E+02  0.56688929608E+02  0.00000000000E+00 0.  1.
         21   -1    0    0  501  502 -0.00000000000E+00 -0.00000000000E+00 -0.91571877395E+03  0.91571877395E+03  0.00000000000E+00 0.  1.
      99926    2    1    2    0    0 -0.14210854715E-13  0.88817841970E-15 -0.85902984434E+03  0.97240770356E+03  0.45568022611E+03 0.  0.
      99925    2    3    3    0    0 -0.92205607168E+02  0.63417414006E+01 -0.39830479154E+03  0.48613908021E+03  0.26294943747E+03 0.  0.
         25    1    4    4    0    0 -0.10013624153E+02 -0.18061615611E+02 -0.17048658870E+03  0.21246100738E+03  0.12509000000E+03 0.  0.
         25    1    4    4    0    0 -0.82191983015E+02  0.24403357012E+02 -0.22781820284E+03  0.27367807283E+03  0.12509000000E+03 0.  0.
         25    1    3    3    0    0  0.92205607168E+02 -0.63417414006E+01 -0.46072505280E+03  0.48626862335E+03  0.12509000000E+03 0.  0.
<mgrwt>
<rscale>  2 0.45568023E+03</rscale>
<asrwt>0</asrwt>
<pdfrwt beam="1">  1       21 0.83366080E-02 0.45568023E+03</pdfrwt>
<pdfrwt beam="2">  1       21 0.13466451E+00 0.45568023E+03</pdfrwt>
<totfact> 0.40033211E+04</totfact>
</mgrwt>
</event>
<event>
 7    0  0.4766352E-002  0.4548339E+03  0.7546771E-02  0.1026290E+00
         21   -1    0    0  502  501  0.00000000000E+00  0.00000000000E+00  0.27869399650E+03  0.27869399650E+03  0.00000000000E+00 0. -1.
         21   -1    0    0  501  502 -0.00000000000E+00 -0.00000000000E+00 -0.18557440620E+03  0.18557440620E+03  0.00000000000E+00 0. -1.
      99926    2    1    2    0    0  0.00000000000E+00  0.35527136788E-14  0.93119590307E+02  0.46426840270E+03  0.45483391655E+03 0.  0.
      99925    2    3    3    0    0  0.10750120996E+03  0.31892330623E+02  0.73056269339E+02  0.29508307283E+03  0.26298891704E+03 0.  0.
         25    1    4    4    0    0  0.78156993612E+02  0.50763803569E+02  0.42380792842E+02  0.16164504046E+03  0.12509000000E+03 0.  0.
         25    1    4    4    0    0  0.29344216349E+02 -0.18871472946E+02  0.30675476497E+02  0.13343803237E+03  0.12509000000E+03 0.  0.
         25    1    3    3    0    0 -0.10750120996E+03 -0.31892330623E+02  0.20063320968E+02  0.16918532987E+03  0.12509000000E+03 0.  0.
<mgrwt>
<rscale>  2 0.45483392E+03</rscale>
<asrwt>0</asrwt>
<pdfrwt beam="1">  1       21 0.40984411E-01 0.45483392E+03</pdfrwt>
<pdfrwt beam="2">  1       21 0.27290354E-01 0.45483392E+03</pdfrwt>
<totfact> 0.67954281E+04</totfact>
</mgrwt>
</event>
<event>
 7    0  0.4766352E-002  0.4487723E+03  0.7546771E-02  0.1028089E+00
         21   -1    0    0  502  501  0.00000000000E+00  0.00000000000E+00  0.48324202273E+02  0.48324202273E+02  0.00000000000E+00 0.  1.
         21   -1    0    0  501  502 -0.00000000000E+00 -0.00000000000E+00 -0.10419030740E+04  0.10419030740E+04  0.00000000000E+00 0.  1.
      99926    2    1    2    0    0 -0.17763568394E-14 -0.14210854715E-13 -0.99357887177E+03  0.10902272763E+04  0.44877225805E+03 0.  0.
      99925    2    3    3    0    0  0.58858102568E+01 -0.77693292043E+02 -0.80746775261E+03  0.85283362188E+03  0.26315418430E+03 0.  0.
         25    1    3    3    0    0 -0.58858102568E+01  0.77693292043E+02 -0.18611111916E+03  0.23739365444E+03  0.12509000000E+03 0.  0.
         25    1    4    4    0    0  0.34901827323E+02 -0.13095099671E+02 -0.36903760418E+03  0.39144077533E+03  0.12509000000E+03 0.  0.
         25    1    4    4    0    0 -0.29016017066E+02 -0.64598192371E+02 -0.43843014842E+03  0.46139284655E+03  0.12509000000E+03 0.  0.
<mgrwt>
<rscale>  2 0.44877226E+03</rscale>
<asrwt>0</asrwt>
<pdfrwt beam="1">  1       21 0.71065011E-02 0.44877226E+03</pdfrwt>
<pdfrwt beam="2">  1       21 0.15322102E+00 0.44877226E+03</pdfrwt>
<totfact> 0.37630374E+04</totfact>
</mgrwt>
</event>
<event>
 6    0  0.4766352E-002  0.4517360E+03  0.7546771E-02  0.1027206E+00
         21   -1    0    0  502  501  0.00000000000E+00  0.00000000000E+00  0.31032103142E+03  0.31032103142E+03  0.00000000000E+00 0. -1.
         21   -1    0    0  501  502 -0.00000000000E+00 -0.00000000000E+00 -0.16439861172E+03  0.16439861172E+03  0.00000000000E+00 0. -1.
      99926    2    1    2    0    0  0.00000000000E+00  0.14210854715E-13  0.14592241970E+03  0.47471964314E+03  0.45173597047E+03 0.  0.
         25    1    3    3    0    0  0.65789039728E+02  0.13233837150E+02  0.79338434915E+02  0.16262050163E+03  0.12509000000E+03 0.  0.
         25    1    3    3    0    0 -0.71816461751E+02 -0.77516184451E+02  0.27880916222E+02  0.16610604029E+03  0.12509000000E+03 0.  0.
         25    1    3    3    0    0  0.60274220237E+01  0.64282347301E+02  0.38703068559E+02  0.14599310123E+03  0.12509000000E+03 0.  0.
<mgrwt>
<rscale>  2 0.45173597E+03</rscale>
<asrwt>0</asrwt>
<pdfrwt beam="1">  1       21 0.45635446E-01 0.45173597E+03</pdfrwt>
<pdfrwt beam="2">  1       21 0.24176266E-01 0.45173597E+03</pdfrwt>
<totfact> 0.68852927E+04</totfact>
</mgrwt>
</event>
<event>
 7    0  0.4766352E-002  0.4480742E+03  0.7546771E-02  0.1028298E+00
         21   -1    0    0  502  501  0.00000000000E+00  0.00000000000E+00  0.14833171989E+03  0.14833171989E+03  0.00000000000E+00 0.  1.
         21   -1    0    0  501  502 -0.00000000000E+00 -0.00000000000E+00 -0.33838088453E+03  0.33838088453E+03  0.00000000000E+00 0.  1.
      99926    2    1    2    0    0  0.00000000000E+00 -0.14210854715E-13 -0.19004916464E+03  0.48671260442E+03  0.44807418395E+03 0.  0.
      99925    2    3    3    0    0  0.49097270505E+02 -0.90182286508E+02 -0.15123093639E+03  0.32028619511E+03  0.26300012146E+03 0.  0.
         25    1    4    4    0    0  0.96192700760E+01 -0.84064482099E+02 -0.81068121333E+02  0.17140278850E+03  0.12509000000E+03 0.  0.
         25    1    4    4    0    0  0.39478000430E+02 -0.61178044082E+01 -0.70162815053E+02  0.14888340661E+03  0.12509000000E+03 0.  0.
         25    1    3    3    0    0 -0.49097270505E+02  0.90182286508E+02 -0.38818228253E+02  0.16642640931E+03  0.12509000000E+03 0.  0.
<mgrwt>
<rscale>  2 0.44807418E+03</rscale>
<asrwt>0</asrwt>
<pdfrwt beam="1">  1       21 0.21813488E-01 0.44807418E+03</pdfrwt>
<pdfrwt beam="2">  1       21 0.49761895E-01 0.44807418E+03</pdfrwt>
<totfact> 0.69984040E+04</totfact>
</mgrwt>
</event>
<event>
 7    0  0.4766352E-002  0.4580472E+03  0.7546771E-02  0.1025349E+00
         21   -1    0    0  502  501  0.00000000000E+00  0.00000000000E+00  0.15699751551E+03  0.15699751551E+03  0.00000000000E+00 0. -1.
         21   -1    0    0  501  502 -0.00000000000E+00 -0.00000000000E+00 -0.33409320501E+03  0.33409320501E+03  0.00000000000E+00 0. -1.
      99926    2    1    2    0    0  0.35527136788E-14  0.00000000000E+00 -0.17709568950E+03  0.49109072052E+03  0.45804717284E+03 0.  0.
      99925    2    3    3    0    0  0.21016869094E+02  0.11245587407E+03 -0.89610126538E+02  0.30033101769E+03  0.26283210041E+03 0.  0.
         25    1    4    4    0    0  0.45630359492E+02  0.75011909814E+02 -0.35732596685E+02  0.15694981009E+03  0.12509000000E+03 0.  0.
         25    1    3    3    0    0 -0.21016869094E+02 -0.11245587407E+03 -0.87485562963E+02  0.19075970284E+03  0.12509000000E+03 0.  0.
         25    1    4    4    0    0 -0.24613490398E+02  0.37443964257E+02 -0.53877529853E+02  0.14338120760E+03  0.12509000000E+03 0.  0.
<mgrwt>
<rscale>  2 0.45804717E+03</rscale>
<asrwt>0</asrwt>
<pdfrwt beam="1">  1       21 0.23087870E-01 0.45804717E+03</pdfrwt>
<pdfrwt beam="2">  1       21 0.49131353E-01 0.45804717E+03</pdfrwt>
<totfact> 0.64330874E+04</totfact>
</mgrwt>
</event>
<event>
 7    0  0.4766352E-002  0.4478966E+03  0.7546771E-02  0.1028351E+00
         21   -1    0    0  502  501  0.00000000000E+00  0.00000000000E+00  0.47378522293E+02  0.47378522293E+02  0.00000000000E+00 0. -1.
         21   -1    0    0  501  502 -0.00000000000E+00 -0.00000000000E+00 -0.10585563892E+04  0.10585563892E+04  0.00000000000E+00 0. -1.
      99926    2    1    2    0    0  0.00000000000E+00  0.00000000000E+00 -0.10111778669E+04  0.11059349115E+04  0.44789658397E+03 0.  0.
      99925    2    3    3    0    0  0.38243899543E+02  0.91768226218E+02 -0.73388250921E+03  0.78589705951E+03  0.26299552779E+03 0.  0.
         25    1    4    4    0    0  0.18285077732E+01  0.11844709105E+02 -0.27820588845E+03  0.30526982334E+03  0.12509000000E+03 0.  0.
         25    1    3    3    0    0 -0.38243899543E+02 -0.91768226218E+02 -0.27729535766E+03  0.32003785194E+03  0.12509000000E+03 0.  0.
         25    1    4    4    0    0  0.36415391769E+02  0.79923517113E+02 -0.45567662076E+03  0.48062723618E+03  0.12509000000E+03 0.  0.
<mgrwt>
<rscale>  2 0.44789658E+03</rscale>
<asrwt>0</asrwt>
<pdfrwt beam="1">  1       21 0.69674299E-02 0.44789658E+03</pdfrwt>
<pdfrwt beam="2">  1       21 0.15567005E+00 0.44789658E+03</pdfrwt>
<totfact> 0.37312213E+04</totfact>
</mgrwt>
</event>
<event>
 7    0  0.4766352E-002  0.4657559E+03  0.7546771E-02  0.1023125E+00
         21   -1    0    0  502  501  0.00000000000E+00  0.00000000000E+00  0.12694216423E+04  0.12694216423E+04  0.00000000000E+00 0.  1.
         21   -1    0    0  501  502 -0.00000000000E+00 -0.00000000000E+00 -0.42721936150E+02  0.42721936150E+02  0.00000000000E+00 0.  1.
      99926    2    1    2    0    0 -0.35527136788E-14  0.00000000000E+00  0.12266997062E+04  0.13121435785E+04  0.46575594618E+03 0.  0.
      99925    2    3    3    0    0  0.18926264322E+02 -0.10989542716E+03  0.91045019739E+03  0.95423790892E+03  0.26308784941E+03 0.  0.
         25    1    3    3    0    0 -0.18926264322E+02  0.10989542716E+03  0.31624950881E+03  0.35790566957E+03  0.12509000000E+03 0.  0.
         25    1    4    4    0    0  0.25408533141E+02 -0.24525036769E+02  0.34020864855E+03  0.36419294836E+03  0.12509000000E+03 0.  0.
         25    1    4    4    0    0 -0.64822688191E+01 -0.85370390395E+02  0.57024154883E+03  0.59004496056E+03  0.12509000000E+03 0.  0.
<mgrwt>
<rscale>  2 0.46575595E+03</rscale>
<asrwt>0</asrwt>
<pdfrwt beam="1">  1       21 0.18667963E+00 0.46575595E+03</pdfrwt>
<pdfrwt beam="2">  1       21 0.62826385E-02 0.46575595E+03</pdfrwt>
<totfact> 0.26478424E+04</totfact>
</mgrwt>
</event>
<event>
 7    0  0.4766352E-002  0.4579547E+03  0.7546771E-02  0.1025376E+00
         21   -1    0    0  502  501  0.00000000000E+00  0.00000000000E+00  0.87991601988E+02  0.87991601988E+02  0.00000000000E+00 0. -1.
         21   -1    0    0  501  502 -0.00000000000E+00 -0.00000000000E+00 -0.59585954017E+03  0.59585954017E+03  0.00000000000E+00 0. -1.
      99926    2    1    2    0    0  0.00000000000E+00  0.17763568394E-14 -0.50786793819E+03  0.68385114216E+03  0.45795473794E+03 0.  0.
      99925    2    3    3    0    0  0.14472719683E+02  0.83821024559E+01 -0.15010981098E+03  0.30448574450E+03  0.26438398968E+03 0.  0.
         25    1    4    4    0    0 -0.32367169108E+02 -0.79467586289E+01 -0.86093613364E+02  0.15546833430E+03  0.12509000000E+03 0.  0.
         25    1    4    4    0    0  0.46839888790E+02  0.16328861085E+02 -0.64016197615E+02  0.14901741020E+03  0.12509000000E+03 0.  0.
         25    1    3    3    0    0 -0.14472719683E+02 -0.83821024559E+01 -0.35775812721E+03  0.37936539766E+03  0.12509000000E+03 0.  0.
<mgrwt>
<rscale>  2 0.45795474E+03</rscale>
<asrwt>0</asrwt>
<pdfrwt beam="1">  1       21 0.12939942E-01 0.45795474E+03</pdfrwt>
<pdfrwt beam="2">  1       21 0.87626402E-01 0.45795474E+03</pdfrwt>
<totfact> 0.52555324E+04</totfact>
</mgrwt>
</event>
<event>
 7    0  0.4766352E-002  0.4447549E+03  0.7546771E-02  0.1029298E+00
         21   -1    0    0  502  501  0.00000000000E+00  0.00000000000E+00  0.56563804612E+03  0.56563804612E+03  0.00000000000E+00 0. -1.
         21   -1    0    0  501  502 -0.00000000000E+00 -0.00000000000E+00 -0.87426456154E+02  0.87426456154E+02  0.00000000000E+00 0. -1.
      99926    2    1    2    0    0  0.00000000000E+00  0.14210854715E-13  0.47821158997E+03  0.65306450227E+03  0.44475489806E+03 0.  0.
      99925    2    3    3    0    0 -0.13158961251E+02  0.10208003535E+03  0.29597846596E+03  0.40924097703E+03  0.26321366432E+03 0.  0.
         25    1    4    4    0    0 -0.40545834361E+02  0.72430783110E+02  0.17536475469E+03  0.23084732685E+03  0.12509000000E+03 0.  0.
         25    1    3    3    0    0  0.13158961251E+02 -0.10208003535E+03  0.18223312401E+03  0.24382352525E+03  0.12509000000E+03 0.  0.
         25    1    4    4    0    0  0.27386873110E+02  0.29649252243E+02  0.12061371127E+03  0.17839365018E+03  0.12509000000E+03 0.  0.
<mgrwt>
<rscale>  2 0.44475490E+03</rscale>
<asrwt>0</asrwt>
<pdfrwt beam="1">  1       21 0.83182064E-01 0.44475490E+03</pdfrwt>
<pdfrwt beam="2">  1       21 0.12856832E-01 0.44475490E+03</pdfrwt>
<totfact> 0.60247740E+04</totfact>
</mgrwt>
</event>
<event>
 7    0  0.4766352E-002  0.4625422E+03  0.7546771E-02  0.1024046E+00
         21   -1    0    0  502  501  0.00000000000E+00  0.00000000000E+00  0.11291772195E+03  0.11291772195E+03  0.00000000000E+00 0.  1.
         21   -1    0    0  501  502 -0.00000000000E+00 -0.00000000000E+00 -0.47367520050E+03  0.47367520050E+03  0.00000000000E+00 0.  1.
      99926    2    1    2    0    0 -0.14210854715E-13  0.14210854715E-13 -0.36075747855E+03  0.58659292245E+03  0.46254221249E+03 0.  0.
      99925    2    3    3    0    0  0.87676227049E+02 -0.81860692966E+02 -0.21386675677E+03  0.35940866664E+03  0.26276854104E+03 0.  0.
         25    1    3    3    0    0 -0.87676227049E+02  0.81860692966E+02 -0.14689072178E+03  0.22718425581E+03  0.12509000000E+03 0.  0.
         25    1    4    4    0    0  0.21040939517E+02 -0.25002086257E+02 -0.13725272798E+03  0.18855674183E+03  0.12509000000E+03 0.  0.
         25    1    4    4    0    0  0.66635287532E+02 -0.56858606709E+02 -0.76614028794E+02  0.17085192480E+03  0.12509000000E+03 0.  0.
<mgrwt>
<rscale>  2 0.46254221E+03</rscale>
<asrwt>0</asrwt>
<pdfrwt beam="1">  1       21 0.16605548E-01 0.46254221E+03</pdfrwt>
<pdfrwt beam="2">  1       21 0.69658116E-01 0.46254221E+03</pdfrwt>
<totfact> 0.56091604E+04</totfact>
</mgrwt>
</event>
<event>
 7    0  0.4766352E-002  0.4586147E+03  0.7546771E-02  0.1025184E+00
         21   -1    0    0  502  501  0.00000000000E+00  0.00000000000E+00  0.18264285577E+03  0.18264285577E+03  0.00000000000E+00 0.  1.
         21   -1    0    0  501  502 -0.00000000000E+00 -0.00000000000E+00 -0.28789445295E+03  0.28789445295E+03  0.00000000000E+00 0.  1.
      99926    2    1    2    0    0  0.00000000000E+00  0.00000000000E+00 -0.10525159718E+03  0.47053730872E+03  0.45861471867E+03 0.  0.
      99925    2    3    3    0    0 -0.30561968686E+02  0.11104528838E+03 -0.82930757695E+02  0.29904148376E+03  0.26321703675E+03 0.  0.
         25    1    4    4    0    0 -0.37957403022E+02  0.21033312828E+02 -0.48119887585E+02  0.14087652883E+03  0.12509000000E+03 0.  0.
         25    1    4    4    0    0  0.73954343356E+01  0.90011975553E+02 -0.34810870110E+02  0.15816495494E+03  0.12509000000E+03 0.  0.
         25    1    3    3    0    0  0.30561968686E+02 -0.11104528838E+03 -0.22320839486E+02  0.17149582496E+03  0.12509000000E+03 0.  0.
<mgrwt>
<rscale>  2 0.45861472E+03</rscale>
<asrwt>0</asrwt>
<pdfrwt beam="1">  1       21 0.26859244E-01 0.45861472E+03</pdfrwt>
<pdfrwt beam="2">  1       21 0.42337419E-01 0.45861472E+03</pdfrwt>
<totfact> 0.65497689E+04</totfact>
</mgrwt>
</event>
<event>
 7    0  0.4766352E-002  0.4537643E+03  0.7546771E-02  0.1026605E+00
         21   -1    0    0  502  501  0.00000000000E+00  0.00000000000E+00  0.42221926479E+03  0.42221926479E+03  0.00000000000E+00 0. -1.
         21   -1    0    0  501  502 -0.00000000000E+00 -0.00000000000E+00 -0.12191654315E+03  0.12191654315E+03  0.00000000000E+00 0. -1.
      99926    2    1    2    0    0  0.00000000000E+00  0.00000000000E+00  0.30030272164E+03  0.54413580794E+03  0.45376431422E+03 0.  0.
      99925    2    3    3    0    0 -0.66554679968E+02 -0.27442280362E+02  0.29211919031E+03  0.39957757586E+03  0.26295629599E+03 0.  0.
         25    1    3    3    0    0  0.66554679968E+02  0.27442280362E+02  0.81835313229E+01  0.14455823208E+03  0.12509000000E+03 0.  0.
         25    1    4    4    0    0 -0.54579477203E+02 -0.26018585761E+01  0.10230639869E+03  0.17058662407E+03  0.12509000000E+03 0.  0.
         25    1    4    4    0    0 -0.11975202765E+02 -0.24840421786E+02  0.18981279162E+03  0.22899095178E+03  0.12509000000E+03 0.  0.
<mgrwt>
<rscale>  2 0.45376431E+03</rscale>
<asrwt>0</asrwt>
<pdfrwt beam="1">  1       21 0.62091068E-01 0.45376431E+03</pdfrwt>
<pdfrwt beam="2">  1       21 0.17928903E-01 0.45376431E+03</pdfrwt>
<totfact> 0.62868171E+04</totfact>
</mgrwt>
</event>
<event>
 7    0  0.4766352E-002  0.4590613E+03  0.7546771E-02  0.1025054E+00
         21   -1    0    0  502  501  0.00000000000E+00  0.00000000000E+00  0.38115353315E+03  0.38115353315E+03  0.00000000000E+00 0. -1.
         21   -1    0    0  501  502 -0.00000000000E+00 -0.00000000000E+00 -0.13822335198E+03  0.13822335198E+03  0.00000000000E+00 0. -1.
      99926    2    1    2    0    0  0.00000000000E+00  0.00000000000E+00  0.24293018118E+03  0.51937688513E+03  0.45906129861E+03 0.  0.
      99925    2    3    3    0    0 -0.70742482395E+02  0.10948635435E+02  0.25698676009E+03  0.37456850504E+03  0.26293535074E+03 0.  0.
         25    1    4    4    0    0 -0.72696578969E+02 -0.10695470879E+02  0.12608083939E+03  0.19220580598E+03  0.12509000000E+03 0.  0.
         25    1    4    4    0    0  0.19540965742E+01  0.21644106314E+02  0.13090592071E+03  0.18236269906E+03  0.12509000000E+03 0.  0.
         25    1    3    3    0    0  0.70742482395E+02 -0.10948635435E+02 -0.14056578919E+02  0.14480838009E+03  0.12509000000E+03 0.  0.
<mgrwt>
<rscale>  2 0.45906130E+03</rscale>
<asrwt>0</asrwt>
<pdfrwt beam="1">  1       21 0.56051990E-01 0.45906130E+03</pdfrwt>
<pdfrwt beam="2">  1       21 0.20326964E-01 0.45906130E+03</pdfrwt>
<totfact> 0.61910516E+04</totfact>
</mgrwt>
</event>
<event>
 7    0  0.4766352E-002  0.4558329E+03  0.7546771E-02  0.1025997E+00
         21   -1    0    0  502  501  0.00000000000E+00  0.00000000000E+00  0.63158829572E+02  0.63158829572E+02  0.00000000000E+00 0. -1.
         21   -1    0    0  501  502 -0.00000000000E+00 -0.00000000000E+00 -0.82246481560E+03  0.82246481560E+03  0.00000000000E+00 0. -1.
      99926    2    1    2    0    0 -0.71054273576E-14 -0.14210854715E-13 -0.75930598602E+03  0.88562364517E+03  0.45583293043E+03 0.  0.
      99925    2    3    3    0    0 -0.53381585621E+02 -0.94602289261E+02 -0.41087636635E+03  0.49981294705E+03  0.26304829746E+03 0.  0.
         25    1    4    4    0    0  0.38962846189E+01 -0.25572196002E+02 -0.22234639929E+03  0.25642649555E+03  0.12509000000E+03 0.  0.
         25    1    4    4    0    0 -0.57277870240E+02 -0.69030093258E+02 -0.18852996706E+03  0.24338645150E+03  0.12509000000E+03 0.  0.
         25    1    3    3    0    0  0.53381585621E+02  0.94602289261E+02 -0.34842961967E+03  0.38581069812E+03  0.12509000000E+03 0.  0.
<mgrwt>
<rscale>  2 0.45583293E+03</rscale>
<asrwt>0</asrwt>
<pdfrwt beam="1">  1       21 0.92880637E-02 0.45583293E+03</pdfrwt>
<pdfrwt beam="2">  1       21 0.12095070E+00 0.45583293E+03</pdfrwt>
<totfact> 0.43576189E+04</totfact>
</mgrwt>
</event>
<event>
 7    0  0.4766352E-002  0.4504274E+03  0.7546771E-02  0.1027595E+00
         21   -1    0    0  502  501  0.00000000000E+00  0.00000000000E+00  0.52924290033E+02  0.52924290033E+02  0.00000000000E+00 0.  1.
         21   -1    0    0  501  502 -0.00000000000E+00 -0.00000000000E+00 -0.95837307611E+03  0.95837307611E+03  0.00000000000E+00 0.  1.
      99926    2    1    2    0    0  0.00000000000E+00  0.00000000000E+00 -0.90544878608E+03  0.10112973661E+04  0.45042741764E+03 0.  0.
      99925    2    3    3    0    0 -0.10291829997E+02 -0.12121203917E+02 -0.33055759527E+03  0.42273960796E+03  0.26303537214E+03 0.  0.
         25    1    4    4    0    0  0.15812256757E+02 -0.26228843924E+02 -0.11994485694E+03  0.17598936481E+03  0.12509000000E+03 0.  0.
         25    1    3    3    0    0  0.10291829997E+02  0.12121203917E+02 -0.57489119081E+03  0.58855775819E+03  0.12509000000E+03 0.  0.
         25    1    4    4    0    0 -0.26104086754E+02  0.14107640008E+02 -0.21061273833E+03  0.24675024316E+03  0.12509000000E+03 0.  0.
<mgrwt>
<rscale>  2 0.45042742E+03</rscale>
<asrwt>0</asrwt>
<pdfrwt beam="1">  1       21 0.77829843E-02 0.45042742E+03</pdfrwt>
<pdfrwt beam="2">  1       21 0.14093721E+00 0.45042742E+03</pdfrwt>
<totfact> 0.40144559E+04</totfact>
</mgrwt>
</event>
<event>
 7    0  0.4766352E-002  0.4602537E+03  0.7546771E-02  0.1024708E+00
         21   -1    0    0  502  501  0.00000000000E+00  0.00000000000E+00  0.17460087521E+02  0.17460087521E+02  0.00000000000E+00 0.  1.
         21   -1    0    0  501  502 -0.00000000000E+00 -0.00000000000E+00 -0.30331106001E+04  0.30331106001E+04  0.00000000000E+00 0.  1.
      99926    2    1    2    0    0  0.13322676296E-14 -0.14210854715E-13 -0.30156505125E+04  0.30505706876E+04  0.46025374106E+03 0.  0.
      99925    2    3    3    0    0  0.28886037466E+01  0.11122269077E+03 -0.16274644546E+04  0.16523264777E+04  0.26298936646E+03 0.  0.
         25    1    4    4    0    0 -0.16989674381E+02  0.91255408145E+02 -0.80584489925E+03  0.82076166352E+03  0.12509000000E+03 0.  0.
         25    1    3    3    0    0 -0.28886037466E+01 -0.11122269077E+03 -0.13881860580E+04  0.13982442099E+04  0.12509000000E+03 0.  0.
         25    1    4    4    0    0  0.19878278128E+02  0.19967282628E+02 -0.82161955533E+03  0.83156481414E+03  0.12509000000E+03 0.  0.
<mgrwt>
<rscale>  2 0.46025374E+03</rscale>
<asrwt>0</asrwt>
<pdfrwt beam="1">  1       21 0.25676589E-02 0.46025374E+03</pdfrwt>
<pdfrwt beam="2">  1       21 0.44604586E+00 0.46025374E+03</pdfrwt>
<totfact> 0.28571086E+03</totfact>
</mgrwt>
</event>
<event>
 7    0  0.4766352E-002  0.4403787E+03  0.7546771E-02  0.1030631E+00
         21   -1    0    0  502  501  0.00000000000E+00  0.00000000000E+00  0.15947353814E+03  0.15947353814E+03  0.00000000000E+00 0.  1.
         21   -1    0    0  501  502 -0.00000000000E+00 -0.00000000000E+00 -0.30402131594E+03  0.30402131594E+03  0.00000000000E+00 0.  1.
      99926    2    1    2    0    0  0.00000000000E+00  0.00000000000E+00 -0.14454777780E+03  0.46349485408E+03  0.44037872303E+03 0.  0.
      99925    2    3    3    0    0 -0.62890456553E+02  0.68092261201E+02 -0.56823663452E+02  0.28479176542E+03  0.26322168482E+03 0.  0.
         25    1    4    4    0    0 -0.62531811153E+02  0.28808826927E+02 -0.56826378290E+02  0.15367797918E+03  0.12509000000E+03 0.  0.
         25    1    3    3    0    0  0.62890456553E+02 -0.68092261201E+02 -0.87724114345E+02  0.17870308867E+03  0.12509000000E+03 0.  0.
         25    1    4    4    0    0 -0.35864539993E+00  0.39283434275E+02  0.27148375554E-02  0.13111378624E+03  0.12509000000E+03 0.  0.
<mgrwt>
<rscale>  2 0.44037872E+03</rscale>
<asrwt>0</asrwt>
<pdfrwt beam="1">  1       21 0.23451991E-01 0.44037872E+03</pdfrwt>
<pdfrwt beam="2">  1       21 0.44709017E-01 0.44037872E+03</pdfrwt>
<totfact> 0.76409743E+04</totfact>
</mgrwt>
</event>
<event>
 6    0  0.4766352E-002  0.4584895E+03  0.7546771E-02  0.1025220E+00
         21   -1    0    0  502  501  0.00000000000E+00  0.00000000000E+00  0.98249800232E+03  0.98249800232E+03  0.00000000000E+00 0. -1.
         21   -1    0    0  501  502 -0.00000000000E+00 -0.00000000000E+00 -0.53489333093E+02  0.53489333093E+02  0.00000000000E+00 0. -1.
      99926    2    1    2    0    0 -0.35527136788E-14  0.00000000000E+00  0.92900866922E+03  0.10359873354E+04  0.45848953274E+03 0.  0.
         25    1    3    3    0    0 -0.25592975162E+02  0.53998496553E+02  0.24452752201E+03  0.28109083074E+03  0.12509000000E+03 0.  0.
         25    1    3    3    0    0 -0.28720007675E+02 -0.10936072607E+03  0.31741789567E+03  0.35942486814E+03  0.12509000000E+03 0.  0.
         25    1    3    3    0    0  0.54312982837E+02  0.55362229515E+02  0.36706325154E+03  0.39547163652E+03  0.12509000000E+03 0.  0.
<mgrwt>
<rscale>  2 0.45848953E+03</rscale>
<asrwt>0</asrwt>
<pdfrwt beam="1">  1       21 0.14448499E+00 0.45848953E+03</pdfrwt>
<pdfrwt beam="2">  1       21 0.78660790E-02 0.45848953E+03</pdfrwt>
<totfact> 0.36783527E+04</totfact>
</mgrwt>
</event>
<event>
 7    0  0.4766352E-002  0.4426172E+03  0.7546771E-02  0.1029947E+00
         21   -1    0    0  502  501  0.00000000000E+00  0.00000000000E+00  0.11851053325E+03  0.11851053325E+03  0.00000000000E+00 0. -1.
         21   -1    0    0  501  502 -0.00000000000E+00 -0.00000000000E+00 -0.41327548462E+03  0.41327548462E+03  0.00000000000E+00 0. -1.
      99926    2    1    2    0    0  0.00000000000E+00  0.00000000000E+00 -0.29476495137E+03  0.53178601788E+03  0.44261720736E+03 0.  0.
      99925    2    3    3    0    0 -0.57688752995E+02 -0.50256218719E+02 -0.26708161580E+03  0.38256284638E+03  0.26299821709E+03 0.  0.
         25    1    3    3    0    0  0.57688752995E+02  0.50256218719E+02 -0.27683335572E+02  0.14922317149E+03  0.12509000000E+03 0.  0.
         25    1    4    4    0    0 -0.24067011994E+02 -0.31211816063E+02 -0.18924887477E+03  0.23025212970E+03  0.12509000000E+03 0.  0.
         25    1    4    4    0    0 -0.33621741001E+02 -0.19044402657E+02 -0.77832741031E+02  0.15231071668E+03  0.12509000000E+03 0.  0.
<mgrwt>
<rscale>  2 0.44261721E+03</rscale>
<asrwt>0</asrwt>
<pdfrwt beam="1">  1       21 0.17428019E-01 0.44261721E+03</pdfrwt>
<pdfrwt beam="2">  1       21 0.60775807E-01 0.44261721E+03</pdfrwt>
<totfact> 0.69667905E+04</totfact>
</mgrwt>
</event>
<event>
 7    0  0.4766352E-002  0.4644074E+03  0.7546771E-02  0.1023511E+00
         21   -1    0    0  502  501  0.00000000000E+00  0.00000000000E+00  0.32650332163E+02  0.32650332163E+02  0.00000000000E+00 0.  1.
         21   -1    0    0  501  502 -0.00000000000E+00 -0.00000000000E+00 -0.16513936604E+04  0.16513936604E+04  0.00000000000E+00 0.  1.
      99926    2    1    2    0    0 -0.35527136788E-14  0.00000000000E+00 -0.16187433283E+04  0.16840439926E+04  0.46440737093E+03 0.  0.
      99925    2    3    3    0    0 -0.24529955405E+02 -0.27584791085E+02 -0.58938513496E+03  0.64645619504E+03  0.26299835622E+03 0.  0.
         25    1    4    4    0    0 -0.49244152250E+02 -0.98504804793E+01 -0.26132481996E+03  0.29404113339E+03  0.12509000000E+03 0.  0.
         25    1    3    3    0    0  0.24529955405E+02  0.27584791085E+02 -0.10293581933E+04  0.10375877976E+04  0.12509000000E+03 0.  0.
         25    1    4    4    0    0  0.24714196845E+02 -0.17734310605E+02 -0.32806031500E+03  0.35241506165E+03  0.12509000000E+03 0.  0.
<mgrwt>
<rscale>  2 0.46440737E+03</rscale>
<asrwt>0</asrwt>
<pdfrwt beam="1">  1       21 0.48015194E-02 0.46440737E+03</pdfrwt>
<pdfrwt beam="2">  1       21 0.24285201E+00 0.46440737E+03</pdfrwt>
<totfact> 0.18227497E+04</totfact>
</mgrwt>
</event>
<event>
 7    0  0.4766352E-002  0.4564179E+03  0.7546771E-02  0.1025825E+00
         21   -1    0    0  502  501  0.00000000000E+00  0.00000000000E+00  0.17324181824E+03  0.17324181824E+03  0.00000000000E+00 0.  1.
         21   -1    0    0  501  502 -0.00000000000E+00 -0.00000000000E+00 -0.30061638387E+03  0.30061638387E+03  0.00000000000E+00 0.  1.
      99926    2    1    2    0    0  0.00000000000E+00  0.00000000000E+00 -0.12737456563E+03  0.47385820210E+03  0.45641791785E+03 0.  0.
      99925    2    3    3    0    0 -0.72082291506E+02 -0.87496959599E+02 -0.63051908402E+02  0.29320248805E+03  0.26294596623E+03 0.  0.
         25    1    3    3    0    0  0.72082291506E+02  0.87496959599E+02 -0.64322657229E+02  0.18065571406E+03  0.12509000000E+03 0.  0.
         25    1    4    4    0    0 -0.30684706235E+02 -0.31182319093E+01 -0.16056481056E+02  0.12983294363E+03  0.12509000000E+03 0.  0.
         25    1    4    4    0    0 -0.41397585270E+02 -0.84378727690E+02 -0.46995427346E+02  0.16336954442E+03  0.12509000000E+03 0.  0.
<mgrwt>
<rscale>  2 0.45641792E+03</rscale>
<asrwt>0</asrwt>
<pdfrwt beam="1">  1       21 0.25476738E-01 0.45641792E+03</pdfrwt>
<pdfrwt beam="2">  1       21 0.44208291E-01 0.45641792E+03</pdfrwt>
<totfact> 0.66399785E+04</totfact>
</mgrwt>
</event>
<event>
 7    0  0.4766352E-002  0.4376305E+03  0.7546771E-02  0.1031476E+00
         21   -1    0    0  502  501  0.00000000000E+00  0.00000000000E+00  0.12044104008E+03  0.12044104008E+03  0.00000000000E+00 0. -1.
         21   -1    0    0  501  502 -0.00000000000E+00 -0.00000000000E+00 -0.39753993759E+03  0.39753993759E+03  0.00000000000E+00 0. -1.
      99926    2    1    2    0    0  0.00000000000E+00  0.00000000000E+00 -0.27709889751E+03  0.51798097768E+03  0.43763054536E+03 0.  0.
      99925    2    3    3    0    0 -0.81178501061E+02  0.50841060025E+02 -0.17718552292E+03  0.33142012181E+03  0.26319161307E+03 0.  0.
         25    1    4    4    0    0 -0.81336476651E+01  0.22567768735E+02 -0.50851787158E+02  0.13714544384E+03  0.12509000000E+03 0.  0.
         25    1    4    4    0    0 -0.73044853396E+02  0.28273291290E+02 -0.12633373576E+03  0.19427467797E+03  0.12509000000E+03 0.  0.
         25    1    3    3    0    0  0.81178501061E+02 -0.50841060025E+02 -0.99913374595E+02  0.18656085587E+03  0.12509000000E+03 0.  0.
<mgrwt>
<rscale>  2 0.43763055E+03</rscale>
<asrwt>0</asrwt>
<pdfrwt beam="1">  1       21 0.17711918E-01 0.43763055E+03</pdfrwt>
<pdfrwt beam="2">  1       21 0.58461754E-01 0.43763055E+03</pdfrwt>
<totfact> 0.73652260E+04</totfact>
</mgrwt>
</event>
<event>
 7    0  0.4766352E-002  0.4587133E+03  0.7546771E-02  0.1025155E+00
         21   -1    0    0  502  501  0.00000000000E+00  0.00000000000E+00  0.17052322218E+02  0.17052322218E+02  0.00000000000E+00 0.  1.
         21   -1    0    0  501  502 -0.00000000000E+00 -0.00000000000E+00 -0.30848865969E+04  0.30848865969E+04  0.00000000000E+00 0.  1.
      99926    2    1    2    0    0 -0.14210854715E-13  0.26645352591E-14 -0.30678342747E+04  0.31019389191E+04  0.45871333207E+03 0.  0.
      99925    2    3    3    0    0 -0.10519401250E+03 -0.66590145905E+01 -0.22611809657E+04  0.22788671169E+04  0.26303203939E+03 0.  0.
         25    1    3    3    0    0  0.10519401250E+03  0.66590145905E+01 -0.80665330897E+03  0.82307180228E+03  0.12509000000E+03 0.  0.
         25    1    4    4    0    0 -0.59339007544E+02 -0.39171175469E+02 -0.10111762144E+04  0.10213620041E+04  0.12509000000E+03 0.  0.
         25    1    4    4    0    0 -0.45855004958E+02  0.32512160878E+02 -0.12500047513E+04  0.12575051127E+04  0.12509000000E+03 0.  0.
<mgrwt>
<rscale>  2 0.45871333E+03</rscale>
<asrwt>0</asrwt>
<pdfrwt beam="1">  1       21 0.25076964E-02 0.45871333E+03</pdfrwt>
<pdfrwt beam="2">  1       21 0.45365945E+00 0.45871333E+03</pdfrwt>
<totfact> 0.26418248E+03</totfact>
</mgrwt>
</event>
<event>
 7    0  0.4766352E-002  0.4547777E+03  0.7546771E-02  0.1026307E+00
         21   -1    0    0  502  501  0.00000000000E+00  0.00000000000E+00  0.90998510529E+02  0.90998510529E+02  0.00000000000E+00 0.  1.
         21   -1    0    0  501  502 -0.00000000000E+00 -0.00000000000E+00 -0.56820358616E+03  0.56820358616E+03  0.00000000000E+00 0.  1.
      99926    2    1    2    0    0 -0.14210854715E-13  0.22204460493E-15 -0.47720507563E+03  0.65920209669E+03  0.45477766004E+03 0.  0.
      99925    2    3    3    0    0 -0.10538602662E+03 -0.13707692209E+01 -0.35877835762E+03  0.45726029999E+03  0.26316720623E+03 0.  0.
         25    1    4    4    0    0 -0.47160955107E+02 -0.10960213892E+02 -0.24003604068E+03  0.27497107284E+03  0.12509000000E+03 0.  0.
         25    1    4    4    0    0 -0.58225071514E+02  0.95894446712E+01 -0.11874231694E+03  0.18228922715E+03  0.12509000000E+03 0.  0.
         25    1    3    3    0    0  0.10538602662E+03  0.13707692209E+01 -0.11842671802E+03  0.20194179670E+03  0.12509000000E+03 0.  0.
<mgrwt>
<rscale>  2 0.45477766E+03</rscale>
<asrwt>0</asrwt>
<pdfrwt beam="1">  1       21 0.13382134E-01 0.45477766E+03</pdfrwt>
<pdfrwt beam="2">  1       21 0.83559351E-01 0.45477766E+03</pdfrwt>
<totfact> 0.55270958E+04</totfact>
</mgrwt>
</event>
<event>
 7    0  0.4766352E-002  0.4525314E+03  0.7546771E-02  0.1026970E+00
         21   -1    0    0  502  501  0.00000000000E+00  0.00000000000E+00  0.16201002564E+03  0.16201002564E+03  0.00000000000E+00 0. -1.
         21   -1    0    0  501  502 -0.00000000000E+00 -0.00000000000E+00 -0.31600614620E+03  0.31600614620E+03  0.00000000000E+00 0. -1.
      99926    2    1    2    0    0  0.00000000000E+00  0.71054273576E-14 -0.15399612056E+03  0.47801617184E+03  0.45253138609E+03 0.  0.
      99925    2    3    3    0    0  0.40940088772E+02  0.34543366741E+02  0.54703305076E+01  0.26838222381E+03  0.26292538577E+03 0.  0.
         25    1    4    4    0    0  0.48530990871E+02  0.47479848668E+02  0.15840919526E+01  0.14233625874E+03  0.12509000000E+03 0.  0.
         25    1    3    3    0    0 -0.40940088772E+02 -0.34543366741E+02 -0.15946645107E+03  0.20963394804E+03  0.12509000000E+03 0.  0.
         25    1    4    4    0    0 -0.75909020992E+01 -0.12936481927E+02  0.38862385550E+01  0.12604596507E+03  0.12509000000E+03 0.  0.
<mgrwt>
<rscale>  2 0.45253139E+03</rscale>
<asrwt>0</asrwt>
<pdfrwt beam="1">  1       21 0.23825004E-01 0.45253139E+03</pdfrwt>
<pdfrwt beam="2">  1       21 0.46471491E-01 0.45253139E+03</pdfrwt>
<totfact> 0.68170775E+04</totfact>
</mgrwt>
</event>
<event>
 7    0  0.4766352E-002  0.4686064E+03  0.7546771E-02  0.1022314E+00
         21   -1    0    0  502  501  0.00000000000E+00  0.00000000000E+00  0.48425084585E+03  0.48425084585E+03  0.00000000000E+00 0.  1.
         21   -1    0    0  501  502 -0.00000000000E+00 -0.00000000000E+00 -0.11336683602E+03  0.11336683602E+03  0.00000000000E+00 0.  1.
      99926    2    1    2    0    0 -0.28421709430E-13  0.35527136788E-14  0.37088400983E+03  0.59761768188E+03  0.46860638594E+03 0.  0.
      99925    2    3    3    0    0 -0.12068258895E+03  0.22025513723E+02  0.26219002271E+03  0.39143499233E+03  0.26349257046E+03 0.  0.
         25    1    4    4    0    0 -0.23102567036E+02 -0.13967790003E+02  0.11522535761E+03  0.17220110017E+03  0.12509000000E+03 0.  0.
         25    1    3    3    0    0  0.12068258895E+03 -0.22025513723E+02  0.10869398713E+03  0.20618268954E+03  0.12509000000E+03 0.  0.
         25    1    4    4    0    0 -0.97580021911E+02  0.35993303725E+02  0.14696466509E+03  0.21923389217E+03  0.12509000000E+03 0.  0.
<mgrwt>
<rscale>  2 0.46860639E+03</rscale>
<asrwt>0</asrwt>
<pdfrwt beam="1">  1       21 0.71213359E-01 0.46860639E+03</pdfrwt>
<pdfrwt beam="2">  1       21 0.16671594E-01 0.46860639E+03</pdfrwt>
<totfact> 0.52903252E+04</totfact>
</mgrwt>
</event>
<event>
 6    0  0.4766352E-002  0.4513600E+03  0.7546771E-02  0.1027317E+00
         21   -1    0    0  502  501  0.00000000000E+00  0.00000000000E+00  0.40227594510E+03  0.40227594510E+03  0.00000000000E+00 0.  1.
         21   -1    0    0  501  502 -0.00000000000E+00 -0.00000000000E+00 -0.12660826445E+03  0.12660826445E+03  0.00000000000E+00 0.  1.
      99926    2    1    2    0    0 -0.17763568394E-14 -0.88817841970E-15  0.27566768065E+03  0.52888420955E+03  0.45135998599E+03 0.  0.
         25    1    3    3    0    0  0.20385901642E+02  0.37577335368E+02  0.13131348979E+03  0.18632869296E+03  0.12509000000E+03 0.  0.
         25    1    3    3    0    0 -0.59570495702E+01 -0.43899394816E+02  0.16819604841E+03  0.21424299780E+03  0.12509000000E+03 0.  0.
         25    1    3    3    0    0 -0.14428852072E+02  0.63220594480E+01 -0.23841857545E+02  0.12831251879E+03  0.12509000000E+03 0.  0.
<mgrwt>
<rscale>  2 0.45135999E+03</rscale>
<asrwt>0</asrwt>
<pdfrwt beam="1">  1       21 0.59158227E-01 0.45135999E+03</pdfrwt>
<pdfrwt beam="2">  1       21 0.18618863E-01 0.45135999E+03</pdfrwt>
<totfact> 0.65140611E+04</totfact>
</mgrwt>
</event>
<event>
 7    0  0.4766352E-002  0.4501403E+03  0.7546771E-02  0.1027680E+00
         21   -1    0    0  502  501  0.00000000000E+00  0.00000000000E+00  0.46359449791E+03  0.46359449791E+03  0.00000000000E+00 0. -1.
         21   -1    0    0  501  502 -0.00000000000E+00 -0.00000000000E+00 -0.10926915696E+03  0.10926915696E+03  0.00000000000E+00 0. -1.
      99926    2    1    2    0    0  0.88817841970E-15 -0.35527136788E-14  0.35432534096E+03  0.57286365487E+03  0.45014033348E+03 0.  0.
      99925    2    3    3    0    0  0.49825815028E+01 -0.29876045077E+02  0.35667982477E+03  0.44413737208E+03  0.26290702480E+03 0.  0.
         25    1    4    4    0    0 -0.12032430274E+02 -0.41713979506E+02  0.22683199636E+03  0.26265014398E+03  0.12509000000E+03 0.  0.
         25    1    3    3    0    0 -0.49825815028E+01  0.29876045077E+02 -0.23544838070E+01  0.12872628279E+03  0.12509000000E+03 0.  0.
         25    1    4    4    0    0  0.17015011777E+02  0.11837934429E+02  0.12984782841E+03  0.18148722809E+03  0.12509000000E+03 0.  0.
<mgrwt>
<rscale>  2 0.45014033E+03</rscale>
<asrwt>0</asrwt>
<pdfrwt beam="1">  1       21 0.68175661E-01 0.45014033E+03</pdfrwt>
<pdfrwt beam="2">  1       21 0.16068994E-01 0.45014033E+03</pdfrwt>
<totfact> 0.62757438E+04</totfact>
</mgrwt>
</event>
<event>
 7    0  0.4766352E-002  0.4544509E+03  0.7546771E-02  0.1026403E+00
         21   -1    0    0  502  501  0.00000000000E+00  0.00000000000E+00  0.23672390293E+03  0.23672390293E+03  0.00000000000E+00 0.  1.
         21   -1    0    0  501  502 -0.00000000000E+00 -0.00000000000E+00 -0.21810811849E+03  0.21810811849E+03  0.00000000000E+00 0.  1.
      99926    2    1    2    0    0  0.88817841970E-15  0.71054273576E-14  0.18615784437E+02  0.45483202142E+03  0.45445089974E+03 0.  0.
      99925    2    3    3    0    0  0.62121513835E+01 -0.39464019674E+02  0.11715448747E+03  0.29065716412E+03  0.26298367525E+03 0.  0.
         25    1    4    4    0    0  0.24115534837E+02 -0.14299038916E+02  0.95842610160E+02  0.16006041221E+03  0.12509000000E+03 0.  0.
         25    1    3    3    0    0 -0.62121513835E+01  0.39464019674E+02 -0.98538703030E+02  0.16417485730E+03  0.12509000000E+03 0.  0.
         25    1    4    4    0    0 -0.17903383453E+02 -0.25164980758E+02  0.21311877307E+02  0.13059675191E+03  0.12509000000E+03 0.  0.
<mgrwt>
<rscale>  2 0.45445090E+03</rscale>
<asrwt>0</asrwt>
<pdfrwt beam="1">  1       21 0.34812339E-01 0.45445090E+03</pdfrwt>
<pdfrwt beam="2">  1       21 0.32074723E-01 0.45445090E+03</pdfrwt>
<totfact> 0.68859313E+04</totfact>
</mgrwt>
</event>
<event>
 7    0  0.4766352E-002  0.4456220E+03  0.7546771E-02  0.1029036E+00
         21   -1    0    0  502  501  0.00000000000E+00  0.00000000000E+00  0.33438632399E+03  0.33438632399E+03  0.00000000000E+00 0.  1.
         21   -1    0    0  501  502 -0.00000000000E+00 -0.00000000000E+00 -0.14846524756E+03  0.14846524756E+03  0.00000000000E+00 0.  1.
      99926    2    1    2    0    0 -0.44408920985E-14  0.00000000000E+00  0.18592107642E+03  0.48285157155E+03  0.44562202986E+03 0.  0.
      99925    2    3    3    0    0 -0.30494622288E+01 -0.73181525742E+02  0.37275466362E+02  0.27522724634E+03  0.26267040527E+03 0.  0.
         25    1    4    4    0    0 -0.35893609658E+02 -0.57059552976E+02  0.25478522118E+02  0.14436345448E+03  0.12509000000E+03 0.  0.
         25    1    4    4    0    0  0.32844147429E+02 -0.16121972766E+02  0.11796944243E+02  0.13086379186E+03  0.12509000000E+03 0.  0.
         25    1    3    3    0    0  0.30494622288E+01  0.73181525742E+02  0.14864561006E+03  0.20762432521E+03  0.12509000000E+03 0.  0.
<mgrwt>
<rscale>  2 0.44562203E+03</rscale>
<asrwt>0</asrwt>
<pdfrwt beam="1">  1       21 0.49174459E-01 0.44562203E+03</pdfrwt>
<pdfrwt beam="2">  1       21 0.21833125E-01 0.44562203E+03</pdfrwt>
<totfact> 0.71682936E+04</totfact>
</mgrwt>
</event>
<event>
 7    0  0.4766352E-002  0.4525035E+03  0.7546771E-02  0.1026978E+00
         21   -1    0    0  502  501  0.00000000000E+00  0.00000000000E+00  0.23281172427E+03  0.23281172427E+03  0.00000000000E+00 0. -1.
         21   -1    0    0  501  502 -0.00000000000E+00 -0.00000000000E+00 -0.21987665997E+03  0.21987665997E+03  0.00000000000E+00 0. -1.
      99926    2    1    2    0    0  0.00000000000E+00  0.44408920985E-15  0.12935064300E+02  0.45268838423E+03  0.45250354400E+03 0.  0.
      99925    2    3    3    0    0  0.30755892747E+02  0.30312937492E+01  0.11472488735E+03  0.28848183790E+03  0.26287802750E+03 0.  0.
         25    1    4    4    0    0 -0.76281463926E+01  0.81448222032E+01  0.20715127747E+02  0.12728374352E+03  0.12509000000E+03 0.  0.
         25    1    3    3    0    0 -0.30755892747E+02 -0.30312937492E+01 -0.10178982305E+03  0.16420654633E+03  0.12509000000E+03 0.  0.
         25    1    4    4    0    0  0.38384039140E+02 -0.51135284541E+01  0.94009759601E+02  0.16119809439E+03  0.12509000000E+03 0.  0.
<mgrwt>
<rscale>  2 0.45250354E+03</rscale>
<asrwt>0</asrwt>
<pdfrwt beam="1">  1       21 0.34237018E-01 0.45250354E+03</pdfrwt>
<pdfrwt beam="2">  1       21 0.32334803E-01 0.45250354E+03</pdfrwt>
<totfact> 0.70101464E+04</totfact>
</mgrwt>
</event>
<event>
 7    0  0.4766352E-002  0.4523661E+03  0.7546771E-02  0.1027019E+00
         21   -1    0    0  502  501  0.00000000000E+00  0.00000000000E+00  0.57574454030E+03  0.57574454030E+03  0.00000000000E+00 0.  1.
         21   -1    0    0  501  502 -0.00000000000E+00 -0.00000000000E+00 -0.88856713193E+02  0.88856713193E+02  0.00000000000E+00 0.  1.
      99926    2    1    2    0    0  0.00000000000E+00  0.14210854715E-13  0.48688782711E+03  0.66460125349E+03  0.45236607959E+03 0.  0.
      99925    2    3    3    0    0 -0.34788676075E+02  0.73759442984E+02  0.19698258623E+03  0.33849810386E+03  0.26292226917E+03 0.  0.
         25    1    4    4    0    0 -0.11395952239E+02  0.43672607950E+02  0.50784788093E+02  0.14235085955E+03  0.12509000000E+03 0.  0.
         25    1    4    4    0    0 -0.23392723837E+02  0.30086835034E+02  0.14619779814E+03  0.19614724431E+03  0.12509000000E+03 0.  0.
         25    1    3    3    0    0  0.34788676075E+02 -0.73759442984E+02  0.28990524088E+03  0.32610314963E+03  0.12509000000E+03 0.  0.
<mgrwt>
<rscale>  2 0.45236608E+03</rscale>
<asrwt>0</asrwt>
<pdfrwt beam="1">  1       21 0.84668313E-01 0.45236608E+03</pdfrwt>
<pdfrwt beam="2">  1       21 0.13067164E-01 0.45236608E+03</pdfrwt>
<totfact> 0.56021468E+04</totfact>
</mgrwt>
</event>
<event>
 7    0  0.4766352E-002  0.4609458E+03  0.7546771E-02  0.1024507E+00
         21   -1    0    0  502  501  0.00000000000E+00  0.00000000000E+00  0.37795971266E+02  0.37795971266E+02  0.00000000000E+00 0. -1.
         21   -1    0    0  501  502 -0.00000000000E+00 -0.00000000000E+00 -0.14053816120E+04  0.14053816120E+04  0.00000000000E+00 0. -1.
      99926    2    1    2    0    0 -0.14210854715E-13  0.71054273576E-14 -0.13675856408E+04  0.14431775833E+04  0.46094582339E+03 0.  0.
      99925    2    3    3    0    0  0.10096241281E+03 -0.57759312586E+02 -0.79197119118E+03  0.84275352510E+03  0.26360119389E+03 0.  0.
         25    1    4    4    0    0  0.64839900798E+01 -0.21390970461E+02 -0.36199001413E+03  0.38364553194E+03  0.12509000000E+03 0.  0.
         25    1    4    4    0    0  0.94478422727E+02 -0.36368342125E+02 -0.42998117705E+03  0.45910799316E+03  0.12509000000E+03 0.  0.
         25    1    3    3    0    0 -0.10096241281E+03  0.57759312586E+02 -0.57561444958E+03  0.60042405819E+03  0.12509000000E+03 0.  0.
<mgrwt>
<rscale>  2 0.46094582E+03</rscale>
<asrwt>0</asrwt>
<pdfrwt beam="1">  1       21 0.55582311E-02 0.46094582E+03</pdfrwt>
<pdfrwt beam="2">  1       21 0.20667376E+00 0.46094582E+03</pdfrwt>
<totfact> 0.24072346E+04</totfact>
</mgrwt>
</event>
<event>
 7    0  0.4766352E-002  0.3967768E+03  0.7546771E-02  0.1044901E+00
         21   -1    0    0  502  501  0.00000000000E+00  0.00000000000E+00  0.39058400833E+02  0.39058400833E+02  0.00000000000E+00 0.  1.
         21   -1    0    0  501  502 -0.00000000000E+00 -0.00000000000E+00 -0.10076696559E+04  0.10076696559E+04  0.00000000000E+00 0.  1.
      99926    2    1    2    0    0  0.00000000000E+00  0.00000000000E+00 -0.96861125505E+03  0.10467280567E+04  0.39677684069E+03 0.  0.
      99925    2    3    3    0    0 -0.25599938872E+02 -0.19951967519E+02 -0.59504229361E+03  0.65143738528E+03  0.26313855261E+03 0.  0.
         25    1    4    4    0    0 -0.24796849902E+02  0.22508931146E+02 -0.24162728318E+03  0.27414008796E+03  0.12509000000E+03 0.  0.
         25    1    3    3    0    0  0.25599938872E+02  0.19951967519E+02 -0.37356896143E+03  0.39529067144E+03  0.12509000000E+03 0.  0.
         25    1    4    4    0    0 -0.80308897001E+00 -0.42460898665E+02 -0.35341501043E+03  0.37729729732E+03  0.12509000000E+03 0.  0.
<mgrwt>
<rscale>  2 0.39677684E+03</rscale>
<asrwt>0</asrwt>
<pdfrwt beam="1">  1       21 0.57438826E-02 0.39677684E+03</pdfrwt>
<pdfrwt beam="2">  1       21 0.14818671E+00 0.39677684E+03</pdfrwt>
<totfact> 0.60602773E+04</totfact>
</mgrwt>
</event>
<event>
 7    0  0.4766352E-002  0.4266692E+03  0.7546771E-02  0.1034917E+00
         21   -1    0    0  502  501  0.00000000000E+00  0.00000000000E+00  0.64761577890E+02  0.64761577890E+02  0.00000000000E+00 0.  1.
         21   -1    0    0  501  502 -0.00000000000E+00 -0.00000000000E+00 -0.70275700920E+03  0.70275700920E+03  0.00000000000E+00 0.  1.
      99926    2    1    2    0    0  0.00000000000E+00  0.35527136788E-14 -0.63799543131E+03  0.76751858709E+03  0.42666920578E+03 0.  0.
      99925    2    3    3    0    0  0.41276808963E+02 -0.18783342618E+02 -0.53965912577E+03  0.60206730724E+03  0.26305224101E+03 0.  0.
         25    1    4    4    0    0 -0.75146887943E+00  0.16556192889E+02 -0.31221000575E+03  0.33674510838E+03  0.12509000000E+03 0.  0.
         25    1    3    3    0    0 -0.41276808963E+02  0.18783342618E+02 -0.98336305544E+02  0.16545127986E+03  0.12509000000E+03 0.  0.
         25    1    4    4    0    0  0.42028277843E+02 -0.35339535507E+02 -0.22744912002E+03  0.26532219886E+03  0.12509000000E+03 0.  0.
<mgrwt>
<rscale>  2 0.42666921E+03</rscale>
<asrwt>0</asrwt>
<pdfrwt beam="1">  1       21 0.95237607E-02 0.42666921E+03</pdfrwt>
<pdfrwt beam="2">  1       21 0.10334663E+00 0.42666921E+03</pdfrwt>
<totfact> 0.62073172E+04</totfact>
</mgrwt>
</event>
<event>
 7    0  0.4766352E-002  0.4733907E+03  0.7546771E-02  0.1020968E+00
         21   -1    0    0  502  501  0.00000000000E+00  0.00000000000E+00  0.13783517432E+03  0.13783517432E+03  0.00000000000E+00 0. -1.
         21   -1    0    0  501  502 -0.00000000000E+00 -0.00000000000E+00 -0.40646144186E+03  0.40646144186E+03  0.00000000000E+00 0. -1.
      99926    2    1    2    0    0  0.00000000000E+00  0.00000000000E+00 -0.26862626754E+03  0.54429661619E+03  0.47339067880E+03 0.  0.
      99925    2    3    3    0    0  0.96177390322E+02 -0.95746719500E+01 -0.67050903429E+02  0.28812889716E+03  0.26302219104E+03 0.  0.
         25    1    4    4    0    0  0.33442383445E+02  0.27013886064E+02 -0.54096554583E+02  0.14290587241E+03  0.12509000000E+03 0.  0.
         25    1    4    4    0    0  0.62735006877E+02 -0.36588558014E+02 -0.12954348846E+02  0.14522302476E+03  0.12509000000E+03 0.  0.
         25    1    3    3    0    0 -0.96177390322E+02  0.95746719500E+01 -0.20157536411E+03  0.25616771902E+03  0.12509000000E+03 0.  0.
<mgrwt>
<rscale>  2 0.47339068E+03</rscale>
<asrwt>0</asrwt>
<pdfrwt beam="1">  1       21 0.20269879E-01 0.47339068E+03</pdfrwt>
<pdfrwt beam="2">  1       21 0.59773741E-01 0.47339068E+03</pdfrwt>
<totfact> 0.53946759E+04</totfact>
</mgrwt>
</event>
<event>
 7    0  0.4766352E-002  0.4349654E+03  0.7546771E-02  0.1032303E+00
         21   -1    0    0  502  501  0.00000000000E+00  0.00000000000E+00  0.50550881066E+02  0.50550881066E+02  0.00000000000E+00 0.  1.
         21   -1    0    0  501  502 -0.00000000000E+00 -0.00000000000E+00 -0.93566578107E+03  0.93566578107E+03  0.00000000000E+00 0.  1.
      99926    2    1    2    0    0  0.00000000000E+00  0.00000000000E+00 -0.88511490000E+03  0.98621666213E+03  0.43496542215E+03 0.  0.
      99925    2    3    3    0    0  0.24529600720E+02 -0.32268910046E+02 -0.38082656856E+03  0.46506676700E+03  0.26384699843E+03 0.  0.
         25    1    3    3    0    0 -0.24529600720E+02  0.32268910046E+02 -0.50428833144E+03  0.52114989513E+03  0.12509000000E+03 0.  0.
         25    1    4    4    0    0  0.23253091114E+02 -0.56639792370E+02 -0.18933508957E+03  0.23504054239E+03  0.12509000000E+03 0.  0.
         25    1    4    4    0    0  0.12765096055E+01  0.24370882324E+02 -0.19149147900E+03  0.23002622461E+03  0.12509000000E+03 0.  0.
<mgrwt>
<rscale>  2 0.43496542E+03</rscale>
<asrwt>0</asrwt>
<pdfrwt beam="1">  1       21 0.74339540E-02 0.43496542E+03</pdfrwt>
<pdfrwt beam="2">  1       21 0.13759789E+00 0.43496542E+03</pdfrwt>
<totfact> 0.46580793E+04</totfact>
</mgrwt>
</event>
<event>
 7    0  0.4766352E-002  0.4587075E+03  0.7546771E-02  0.1025157E+00
         21   -1    0    0  502  501  0.00000000000E+00  0.00000000000E+00  0.18173548929E+03  0.18173548929E+03  0.00000000000E+00 0. -1.
         21   -1    0    0  501  502 -0.00000000000E+00 -0.00000000000E+00 -0.28944887245E+03  0.28944887245E+03  0.00000000000E+00 0. -1.
      99926    2    1    2    0    0 -0.71054273576E-14  0.00000000000E+00 -0.10771338316E+03  0.47118436175E+03  0.45870745562E+03 0.  0.
      99925    2    3    3    0    0 -0.57447066719E+02  0.90040878240E+02 -0.11585545744E+03  0.30649882291E+03  0.26289069249E+03 0.  0.
         25    1    3    3    0    0  0.57447066719E+02 -0.90040878240E+02  0.81420742803E+01  0.16468553884E+03  0.12509000000E+03 0.  0.
         25    1    4    4    0    0 -0.26649727574E+02  0.41016829064E+02 -0.13858273128E+02  0.13502647178E+03  0.12509000000E+03 0.  0.
         25    1    4    4    0    0 -0.30797339145E+02  0.49024049176E+02 -0.10199718431E+03  0.17147235113E+03  0.12509000000E+03 0.  0.
<mgrwt>
<rscale>  2 0.45870746E+03</rscale>
<asrwt>0</asrwt>
<pdfrwt beam="1">  1       21 0.26725807E-01 0.45870746E+03</pdfrwt>
<pdfrwt beam="2">  1       21 0.42566010E-01 0.45870746E+03</pdfrwt>
<totfact> 0.65403106E+04</totfact>
</mgrwt>
</event>
<event>
 7    0  0.4766352E-002  0.4565947E+03  0.7546771E-02  0.1025773E+00
         21   -1    0    0  502  501  0.00000000000E+00  0.00000000000E+00  0.55391869654E+02  0.55391869654E+02  0.00000000000E+00 0.  1.
         21   -1    0    0  501  502 -0.00000000000E+00 -0.00000000000E+00 -0.94092672054E+03  0.94092672054E+03  0.00000000000E+00 0.  1.
      99926    2    1    2    0    0 -0.14210854715E-13  0.00000000000E+00 -0.88553485088E+03  0.99631859019E+03  0.45659474486E+03 0.  0.
      99925    2    3    3    0    0 -0.11225914222E+03  0.21897876746E+02 -0.57353484703E+03  0.64125079030E+03  0.26301848468E+03 0.  0.
         25    1    3    3    0    0  0.11225914222E+03 -0.21897876746E+02 -0.31200000385E+03  0.35506779989E+03  0.12509000000E+03 0.  0.
         25    1    4    4    0    0 -0.90512844088E+02  0.26666208420E+02 -0.36259080678E+03  0.39499780110E+03  0.12509000000E+03 0.  0.
         25    1    4    4    0    0 -0.21746298130E+02 -0.47683316736E+01 -0.21094404025E+03  0.24625298920E+03  0.12509000000E+03 0.  0.
<mgrwt>
<rscale>  2 0.45659474E+03</rscale>
<asrwt>0</asrwt>
<pdfrwt beam="1">  1       21 0.81458639E-02 0.45659474E+03</pdfrwt>
<pdfrwt beam="2">  1       21 0.13837157E+00 0.45659474E+03</pdfrwt>
<totfact> 0.38824461E+04</totfact>
</mgrwt>
</event>
<event>
 7    0  0.4766352E-002  0.4216020E+03  0.7546771E-02  0.1036546E+00
         21   -1    0    0  502  501  0.00000000000E+00  0.00000000000E+00  0.47298932802E+02  0.47298932802E+02  0.00000000000E+00 0.  1.
         21   -1    0    0  501  502 -0.00000000000E+00 -0.00000000000E+00 -0.93949381145E+03  0.93949381145E+03  0.00000000000E+00 0.  1.
      99926    2    1    2    0    0  0.00000000000E+00  0.00000000000E+00 -0.89219487864E+03  0.98679274425E+03  0.42160196705E+03 0.  0.
      99925    2    3    3    0    0 -0.55992424316E+01  0.76996335523E+02 -0.55907985076E+03  0.62268710421E+03  0.26307634449E+03 0.  0.
         25    1    3    3    0    0  0.55992424316E+01 -0.76996335523E+02 -0.33311502789E+03  0.36410564003E+03  0.12509000000E+03 0.  0.
         25    1    4    4    0    0  0.44996950924E+01  0.17619112665E+02 -0.34601127079E+03  0.36837750746E+03  0.12509000000E+03 0.  0.
         25    1    4    4    0    0 -0.10098937524E+02  0.59377222858E+02 -0.21306857997E+03  0.25430959676E+03  0.12509000000E+03 0.  0.
<mgrwt>
<rscale>  2 0.42160197E+03</rscale>
<asrwt>0</asrwt>
<pdfrwt beam="1">  1       21 0.69557263E-02 0.42160197E+03</pdfrwt>
<pdfrwt beam="2">  1       21 0.13816084E+00 0.42160197E+03</pdfrwt>
<totfact> 0.51976765E+04</totfact>
</mgrwt>
</event>
<event>
 7    0  0.4766352E-002  0.4567180E+03  0.7546771E-02  0.1025737E+00
         21   -1    0    0  502  501  0.00000000000E+00  0.00000000000E+00  0.37567546130E+03  0.37567546130E+03  0.00000000000E+00 0.  1.
         21   -1    0    0  501  502 -0.00000000000E+00 -0.00000000000E+00 -0.13881088187E+03  0.13881088187E+03  0.00000000000E+00 0.  1.
      99926    2    1    2    0    0  0.35527136788E-14  0.00000000000E+00  0.23686457942E+03  0.51448634317E+03  0.45671804029E+03 0.  0.
      99925    2    3    3    0    0  0.18825364156E+02  0.66068152976E+02  0.25235813789E+03  0.37093512016E+03  0.26303771295E+03 0.  0.
         25    1    3    3    0    0 -0.18825364156E+02 -0.66068152976E+02 -0.15493558471E+02  0.14355122301E+03  0.12509000000E+03 0.  0.
         25    1    4    4    0    0 -0.19098563713E+02  0.34508365833E+02  0.16415912306E+03  0.21012212695E+03  0.12509000000E+03 0.  0.
         25    1    4    4    0    0  0.37923927869E+02  0.31559787144E+02  0.88199014830E+02  0.16081299321E+03  0.12509000000E+03 0.  0.
<mgrwt>
<rscale>  2 0.45671804E+03</rscale>
<asrwt>0</asrwt>
<pdfrwt beam="1">  1       21 0.55246391E-01 0.45671804E+03</pdfrwt>
<pdfrwt beam="2">  1       21 0.20413365E-01 0.45671804E+03</pdfrwt>
<totfact> 0.63395751E+04</totfact>
</mgrwt>
</event>
<event>
 7    0  0.4766352E-002  0.4324214E+03  0.7546771E-02  0.1033098E+00
         21   -1    0    0  502  501  0.00000000000E+00  0.00000000000E+00  0.22944928407E+03  0.22944928407E+03  0.00000000000E+00 0.  1.
         21   -1    0    0  501  502 -0.00000000000E+00 -0.00000000000E+00 -0.20373597820E+03  0.20373597820E+03  0.00000000000E+00 0.  1.
      99926    2    1    2    0    0  0.35527136788E-14  0.00000000000E+00  0.25713305879E+02  0.43318526227E+03  0.43242143489E+03 0.  0.
      99925    2    3    3    0    0  0.20823542116E+02  0.76912005820E+02 -0.26251501154E+02  0.27603270640E+03  0.26297497437E+03 0.  0.
         25    1    4    4    0    0  0.30740896613E+02  0.43503361575E+02  0.21556095464E+02  0.13765797668E+03  0.12509000000E+03 0.  0.
         25    1    3    3    0    0 -0.20823542116E+02 -0.76912005820E+02  0.51964807034E+02  0.15715255587E+03  0.12509000000E+03 0.  0.
         25    1    4    4    0    0 -0.99173544965E+01  0.33408644245E+02 -0.47807596618E+02  0.13837472972E+03  0.12509000000E+03 0.  0.
<mgrwt>
<rscale>  2 0.43242143E+03</rscale>
<asrwt>0</asrwt>
<pdfrwt beam="1">  1       21 0.33742542E-01 0.43242143E+03</pdfrwt>
<pdfrwt beam="2">  1       21 0.29961173E-01 0.43242143E+03</pdfrwt>
<totfact> 0.84381675E+04</totfact>
</mgrwt>
</event>
<event>
 7    0  0.4766352E-002  0.4520664E+03  0.7546771E-02  0.1027108E+00
         21   -1    0    0  502  501  0.00000000000E+00  0.00000000000E+00  0.33728250280E+02  0.33728250280E+02  0.00000000000E+00 0. -1.
         21   -1    0    0  501  502 -0.00000000000E+00 -0.00000000000E+00 -0.15147836363E+04  0.15147836363E+04  0.00000000000E+00 0. -1.
      99926    2    1    2    0    0  0.00000000000E+00  0.00000000000E+00 -0.14810553860E+04  0.15485118866E+04  0.45206637392E+03 0.  0.
      99925    2    3    3    0    0 -0.32105825939E+02 -0.77843525028E+02 -0.11797519329E+04  0.12115821055E+04  0.26272833237E+03 0.  0.
         25    1    3    3    0    0  0.32105825939E+02  0.77843525028E+02 -0.30130345313E+03  0.33692978113E+03  0.12509000000E+03 0.  0.
         25    1    4    4    0    0 -0.56231787996E+02 -0.37929525455E+02 -0.59281948507E+03  0.60965819347E+03  0.12509000000E+03 0.  0.
         25    1    4    4    0    0  0.24125962057E+02 -0.39913999573E+02 -0.58693244785E+03  0.60192391201E+03  0.12509000000E+03 0.  0.
<mgrwt>
<rscale>  2 0.45206637E+03</rscale>
<asrwt>0</asrwt>
<pdfrwt beam="1">  1       21 0.49600381E-02 0.45206637E+03</pdfrwt>
<pdfrwt beam="2">  1       21 0.22276224E+00 0.45206637E+03</pdfrwt>
<totfact> 0.23137548E+04</totfact>
</mgrwt>
</event>
<event>
 7    0  0.4766352E-002  0.4623959E+03  0.7546771E-02  0.1024089E+00
         21   -1    0    0  502  501  0.00000000000E+00  0.00000000000E+00  0.32152423797E+03  0.32152423797E+03  0.00000000000E+00 0. -1.
         21   -1    0    0  501  502 -0.00000000000E+00 -0.00000000000E+00 -0.16624714173E+03  0.16624714173E+03  0.00000000000E+00 0. -1.
      99926    2    1    2    0    0  0.00000000000E+00  0.00000000000E+00  0.15527709624E+03  0.48777137969E+03  0.46239587177E+03 0.  0.
      99925    2    3    3    0    0 -0.10644829418E+03 -0.22275149285E+02  0.15081527773E+03  0.32195570633E+03  0.26283608434E+03 0.  0.
         25    1    4    4    0    0 -0.15484160487E+02 -0.12055557093E+02  0.90466748372E+02  0.15561759651E+03  0.12509000000E+03 0.  0.
         25    1    3    3    0    0  0.10644829418E+03  0.22275149285E+02  0.44618185053E+01  0.16581567336E+03  0.12509000000E+03 0.  0.
         25    1    4    4    0    0 -0.90964133689E+02 -0.10219592192E+02  0.60348529362E+02  0.16633810982E+03  0.12509000000E+03 0.  0.
<mgrwt>
<rscale>  2 0.46239587E+03</rscale>
<asrwt>0</asrwt>
<pdfrwt beam="1">  1       21 0.47282976E-01 0.46239587E+03</pdfrwt>
<pdfrwt beam="2">  1       21 0.24448109E-01 0.46239587E+03</pdfrwt>
<totfact> 0.62394239E+04</totfact>
</mgrwt>
</event>
<event>
 7    0  0.4766352E-002  0.4549661E+03  0.7546771E-02  0.1026251E+00
         21   -1    0    0  502  501  0.00000000000E+00  0.00000000000E+00  0.10005267019E+03  0.10005267019E+03  0.00000000000E+00 0. -1.
         21   -1    0    0  501  502 -0.00000000000E+00 -0.00000000000E+00 -0.51721292860E+03  0.51721292860E+03  0.00000000000E+00 0. -1.
      99926    2    1    2    0    0  0.00000000000E+00  0.35527136788E-14 -0.41716025841E+03  0.61726559878E+03  0.45496608472E+03 0.  0.
      99925    2    3    3    0    0 -0.11090672592E+03  0.17797349009E+02 -0.28071664167E+03  0.40074443091E+03  0.26301562408E+03 0.  0.
         25    1    3    3    0    0  0.11090672592E+03 -0.17797349009E+02 -0.13644361674E+03  0.21652116787E+03  0.12509000000E+03 0.  0.
         25    1    4    4    0    0 -0.17920112590E+02  0.21114179129E+02 -0.15022863146E+03  0.19744135536E+03  0.12509000000E+03 0.  0.
         25    1    4    4    0    0 -0.92986613333E+02 -0.33168301192E+01 -0.13048801021E+03  0.20330307555E+03  0.12509000000E+03 0.  0.
<mgrwt>
<rscale>  2 0.45496608E+03</rscale>
<asrwt>0</asrwt>
<pdfrwt beam="1">  1       21 0.14713628E-01 0.45496608E+03</pdfrwt>
<pdfrwt beam="2">  1       21 0.76060724E-01 0.45496608E+03</pdfrwt>
<totfact> 0.57643354E+04</totfact>
</mgrwt>
</event>
<event>
 7    0  0.4766352E-002  0.4591352E+03  0.7546771E-02  0.1025032E+00
         21   -1    0    0  502  501  0.00000000000E+00  0.00000000000E+00  0.34810157718E+02  0.34810157718E+02  0.00000000000E+00 0. -1.
         21   -1    0    0  501  502 -0.00000000000E+00 -0.00000000000E+00 -0.15139625708E+04  0.15139625708E+04  0.00000000000E+00 0. -1.
      99926    2    1    2    0    0  0.00000000000E+00  0.00000000000E+00 -0.14791524131E+04  0.15487727285E+04  0.45913516907E+03 0.  0.
      99925    2    3    3    0    0  0.74687882019E+02  0.33616818192E+02 -0.12086821938E+04  0.12397257777E+04  0.26324700970E+03 0.  0.
         25    1    3    3    0    0 -0.74687882019E+02 -0.33616818192E+02 -0.27047021926E+03  0.30904695079E+03  0.12509000000E+03 0.  0.
         25    1    4    4    0    0 -0.16460578060E+01 -0.81479560439E+00 -0.56135134272E+03  0.57512277947E+03  0.12509000000E+03 0.  0.
         25    1    4    4    0    0  0.76333939825E+02  0.34431613796E+02 -0.64733085112E+03  0.66460299827E+03  0.12509000000E+03 0.  0.
<mgrwt>
<rscale>  2 0.45913517E+03</rscale>
<asrwt>0</asrwt>
<pdfrwt beam="1">  1       21 0.51191430E-02 0.45913517E+03</pdfrwt>
<pdfrwt beam="2">  1       21 0.22264146E+00 0.45913517E+03</pdfrwt>
<totfact> 0.21897026E+04</totfact>
</mgrwt>
</event>
<event>
 7    0  0.4766352E-002  0.4286992E+03  0.7546771E-02  0.1034272E+00
         21   -1    0    0  502  501  0.00000000000E+00  0.00000000000E+00  0.30122215783E+03  0.30122215783E+03  0.00000000000E+00 0.  1.
         21   -1    0    0  501  502 -0.00000000000E+00 -0.00000000000E+00 -0.15253109881E+03  0.15253109881E+03  0.00000000000E+00 0.  1.
      99926    2    1    2    0    0  0.35527136788E-14  0.00000000000E+00  0.14869105901E+03  0.45375325664E+03  0.42869917994E+03 0.  0.
      99925    2    3    3    0    0  0.21173205712E+02 -0.16744809404E+02  0.93022181330E+01  0.26452997492E+03  0.26298456815E+03 0.  0.
         25    1    4    4    0    0 -0.23923347441E+02  0.10546411571E+01 -0.14823460095E+02  0.12822122246E+03  0.12509000000E+03 0.  0.
         25    1    3    3    0    0 -0.21173205712E+02  0.16744809404E+02  0.13938884088E+03  0.18922328172E+03  0.12509000000E+03 0.  0.
         25    1    4    4    0    0  0.45096553153E+02 -0.17799450561E+02  0.24125678228E+02  0.13630875246E+03  0.12509000000E+03 0.  0.
<mgrwt>
<rscale>  2 0.42869918E+03</rscale>
<asrwt>0</asrwt>
<pdfrwt beam="1">  1       21 0.44297376E-01 0.42869918E+03</pdfrwt>
<pdfrwt beam="2">  1       21 0.22431044E-01 0.42869918E+03</pdfrwt>
<totfact> 0.85078930E+04</totfact>
</mgrwt>
</event>
<event>
 7    0  0.4766352E-002  0.4553872E+03  0.7546771E-02  0.1026128E+00
         21   -1    0    0  502  501  0.00000000000E+00  0.00000000000E+00  0.21887370052E+03  0.21887370052E+03  0.00000000000E+00 0.  1.
         21   -1    0    0  501  502 -0.00000000000E+00 -0.00000000000E+00 -0.23686895372E+03  0.23686895372E+03  0.00000000000E+00 0.  1.
      99926    2    1    2    0    0  0.00000000000E+00  0.00000000000E+00 -0.17995253203E+02  0.45574265424E+03  0.45538723934E+03 0.  0.
      99925    2    3    3    0    0 -0.25959409449E+02 -0.34113396732E+02 -0.11649799497E+03  0.29085507735E+03  0.26303474754E+03 0.  0.
         25    1    4    4    0    0 -0.20333115461E+02 -0.13196599765E+01 -0.97770134085E+02  0.16006774911E+03  0.12509000000E+03 0.  0.
         25    1    4    4    0    0 -0.56262939876E+01 -0.32793736755E+02 -0.18727860884E+02  0.13078732824E+03  0.12509000000E+03 0.  0.
         25    1    3    3    0    0  0.25959409449E+02  0.34113396732E+02  0.98502741767E+02  0.16488757689E+03  0.12509000000E+03 0.  0.
<mgrwt>
<rscale>  2 0.45538724E+03</rscale>
<asrwt>0</asrwt>
<pdfrwt beam="1">  1       21 0.32187309E-01 0.45538724E+03</pdfrwt>
<pdfrwt beam="2">  1       21 0.34833669E-01 0.45538724E+03</pdfrwt>
<totfact> 0.68280227E+04</totfact>
</mgrwt>
</event>
<event>
 7    0  0.4766352E-002  0.4570174E+03  0.7546771E-02  0.1025650E+00
         21   -1    0    0  502  501  0.00000000000E+00  0.00000000000E+00  0.34774562984E+02  0.34774562984E+02  0.00000000000E+00 0.  1.
         21   -1    0    0  501  502 -0.00000000000E+00 -0.00000000000E+00 -0.15015637773E+04  0.15015637773E+04  0.00000000000E+00 0.  1.
      99926    2    1    2    0    0  0.00000000000E+00  0.00000000000E+00 -0.14667892143E+04  0.15363383403E+04  0.45701739200E+03 0.  0.
      99925    2    3    3    0    0  0.11049361495E+03 -0.31345234492E+02 -0.92638021741E+03  0.96987496573E+03  0.26322192021E+03 0.  0.
         25    1    4    4    0    0  0.33394201519E+02 -0.35904145839E+02 -0.54022402545E+03  0.55668104526E+03  0.12509000000E+03 0.  0.
         25    1    3    3    0    0 -0.11049361495E+03  0.31345234492E+02 -0.54040899690E+03  0.56646337454E+03  0.12509000000E+03 0.  0.
         25    1    4    4    0    0  0.77099413428E+02  0.45589113470E+01 -0.38615619196E+03  0.41319392047E+03  0.12509000000E+03 0.  0.
<mgrwt>
<rscale>  2 0.45701739E+03</rscale>
<asrwt>0</asrwt>
<pdfrwt beam="1">  1       21 0.51139058E-02 0.45701739E+03</pdfrwt>
<pdfrwt beam="2">  1       21 0.22081823E+00 0.45701739E+03</pdfrwt>
<totfact> 0.22547075E+04</totfact>
</mgrwt>
</event>
<event>
 7    0  0.4766352E-002  0.4489000E+03  0.7546771E-02  0.1028051E+00
         21   -1    0    0  502  501  0.00000000000E+00  0.00000000000E+00  0.24589604106E+03  0.24589604106E+03  0.00000000000E+00 0. -1.
         21   -1    0    0  501  502 -0.00000000000E+00 -0.00000000000E+00 -0.20487442622E+03  0.20487442622E+03  0.00000000000E+00 0. -1.
      99926    2    1    2    0    0  0.00000000000E+00  0.00000000000E+00  0.41021614833E+02  0.45077046728E+03  0.44890003485E+03 0.  0.
      99925    2    3    3    0    0 -0.38928997012E+02 -0.91726673954E+02 -0.14177253025E+02  0.28158514689E+03  0.26298279587E+03 0.  0.
         25    1    4    4    0    0  0.26828903089E+01 -0.62351573960E+02 -0.36999598523E+02  0.14460772824E+03  0.12509000000E+03 0.  0.
         25    1    3    3    0    0  0.38928997012E+02  0.91726673954E+02  0.55198867858E+02  0.16918532039E+03  0.12509000000E+03 0.  0.
         25    1    4    4    0    0 -0.41611887321E+02 -0.29375099994E+02  0.22822345499E+02  0.13697741865E+03  0.12509000000E+03 0.  0.
<mgrwt>
<rscale>  2 0.44890003E+03</rscale>
<asrwt>0</asrwt>
<pdfrwt beam="1">  1       21 0.36161183E-01 0.44890003E+03</pdfrwt>
<pdfrwt beam="2">  1       21 0.30128592E-01 0.44890003E+03</pdfrwt>
<totfact> 0.72312615E+04</totfact>
</mgrwt>
</event>
<event>
 7    0  0.4766352E-002  0.4551655E+03  0.7546771E-02  0.1026193E+00
         21   -1    0    0  502  501  0.00000000000E+00  0.00000000000E+00  0.28507897939E+03  0.28507897939E+03  0.00000000000E+00 0.  1.
         21   -1    0    0  501  502 -0.00000000000E+00 -0.00000000000E+00 -0.18168265406E+03  0.18168265406E+03  0.00000000000E+00 0.  1.
      99926    2    1    2    0    0  0.00000000000E+00 -0.17763568394E-14  0.10339632533E+03  0.46676163346E+03  0.45516548900E+03 0.  0.
      99925    2    3    3    0    0 -0.91500942518E+02  0.10838501837E+02  0.13264485497E+03  0.30867026687E+03  0.26304520618E+03 0.  0.
         25    1    3    3    0    0  0.91500942518E+02 -0.10838501837E+02 -0.29248529638E+02  0.15809136659E+03  0.12509000000E+03 0.  0.
         25    1    4    4    0    0 -0.76687510936E+02  0.27988099625E+02  0.90946076980E+02  0.17487997333E+03  0.12509000000E+03 0.  0.
         25    1    4    4    0    0 -0.14813431582E+02 -0.17149597788E+02  0.41698777988E+02  0.13379029354E+03  0.12509000000E+03 0.  0.
<mgrwt>
<rscale>  2 0.45516549E+03</rscale>
<asrwt>0</asrwt>
<pdfrwt beam="1">  1       21 0.41923380E-01 0.45516549E+03</pdfrwt>
<pdfrwt beam="2">  1       21 0.26718037E-01 0.45516549E+03</pdfrwt>
<totfact> 0.67588882E+04</totfact>
</mgrwt>
</event>
<event>
 7    0  0.4766352E-002  0.4539606E+03  0.7546771E-02  0.1026548E+00
         21   -1    0    0  502  501  0.00000000000E+00  0.00000000000E+00  0.33557495304E+03  0.33557495304E+03  0.00000000000E+00 0. -1.
         21   -1    0    0  501  502 -0.00000000000E+00 -0.00000000000E+00 -0.15352769749E+03  0.15352769749E+03  0.00000000000E+00 0. -1.
      99926    2    1    2    0    0  0.00000000000E+00  0.00000000000E+00  0.18204725555E+03  0.48910265052E+03  0.45396057042E+03 0.  0.
      99925    2    3    3    0    0  0.82452143951E+02 -0.13124099564E+02  0.19533206754E+03  0.33812386936E+03  0.26306374967E+03 0.  0.
         25    1    3    3    0    0 -0.82452143951E+02  0.13124099564E+02 -0.13284811988E+02  0.15097878116E+03  0.12509000000E+03 0.  0.
         25    1    4    4    0    0  0.58952521790E+02  0.23891377693E+02  0.12568373438E+03  0.18838818153E+03  0.12509000000E+03 0.  0.
         25    1    4    4    0    0  0.23499622161E+02 -0.37015477257E+02  0.69648333157E+02  0.14973568783E+03  0.12509000000E+03 0.  0.
<mgrwt>
<rscale>  2 0.45396057E+03</rscale>
<asrwt>0</asrwt>
<pdfrwt beam="1">  1       21 0.49349258E-01 0.45396057E+03</pdfrwt>
<pdfrwt beam="2">  1       21 0.22577603E-01 0.45396057E+03</pdfrwt>
<totfact> 0.66591019E+04</totfact>
</mgrwt>
</event>
<event>
 7    0  0.4766352E-002  0.4541331E+03  0.7546771E-02  0.1026497E+00
         21   -1    0    0  502  501  0.00000000000E+00  0.00000000000E+00  0.76898717677E+02  0.76898717677E+02  0.00000000000E+00 0.  1.
         21   -1    0    0  501  502 -0.00000000000E+00 -0.00000000000E+00 -0.67048210769E+03  0.67048210769E+03  0.00000000000E+00 0.  1.
      99926    2    1    2    0    0  0.00000000000E+00  0.00000000000E+00 -0.59358339002E+03  0.74738082537E+03  0.45413308317E+03 0.  0.
      99925    2    3    3    0    0 -0.12935756922E+02  0.10987880994E+03 -0.40565280741E+03  0.49597259428E+03  0.26304738630E+03 0.  0.
         25    1    4    4    0    0 -0.37686441678E+02  0.41381490498E+02 -0.23655293963E+03  0.27338159592E+03  0.12509000000E+03 0.  0.
         25    1    4    4    0    0  0.24750684756E+02  0.68497319441E+02 -0.16909986779E+03  0.22259099836E+03  0.12509000000E+03 0.  0.
         25    1    3    3    0    0  0.12935756922E+02 -0.10987880994E+03 -0.18793058261E+03  0.25140823109E+03  0.12509000000E+03 0.  0.
<mgrwt>
<rscale>  2 0.45413308E+03</rscale>
<asrwt>0</asrwt>
<pdfrwt beam="1">  1       21 0.11308634E-01 0.45413308E+03</pdfrwt>
<pdfrwt beam="2">  1       21 0.98600317E-01 0.45413308E+03</pdfrwt>
<totfact> 0.50749745E+04</totfact>
</mgrwt>
</event>
<event>
 7    0  0.4766352E-002  0.4391551E+03  0.7546771E-02  0.1031006E+00
         21   -1    0    0  502  501  0.00000000000E+00  0.00000000000E+00  0.16793350433E+03  0.16793350433E+03  0.00000000000E+00 0.  1.
         21   -1    0    0  501  502 -0.00000000000E+00 -0.00000000000E+00 -0.28710349917E+03  0.28710349917E+03  0.00000000000E+00 0.  1.
      99926    2    1    2    0    0  0.00000000000E+00  0.35527136788E-14 -0.11916999485E+03  0.45503700350E+03  0.43915508296E+03 0.  0.
      99925    2    3    3    0    0 -0.86418833543E+02  0.25384153314E+02 -0.37950568672E+02  0.28080533784E+03  0.26324669432E+03 0.  0.
         25    1    4    4    0    0 -0.18952176237E+02 -0.21780314516E+02 -0.13676947114E+02  0.12910512797E+03  0.12509000000E+03 0.  0.
         25    1    4    4    0    0 -0.67466657306E+02  0.47164467830E+02 -0.24273621558E+02  0.15170020988E+03  0.12509000000E+03 0.  0.
         25    1    3    3    0    0  0.86418833543E+02 -0.25384153314E+02 -0.81219426174E+02  0.17423166566E+03  0.12509000000E+03 0.  0.
<mgrwt>
<rscale>  2 0.43915508E+03</rscale>
<asrwt>0</asrwt>
<pdfrwt beam="1">  1       21 0.24696104E-01 0.43915508E+03</pdfrwt>
<pdfrwt beam="2">  1       21 0.42221103E-01 0.43915508E+03</pdfrwt>
<totfact> 0.77905959E+04</totfact>
</mgrwt>
</event>
<event>
 7    0  0.4766352E-002  0.4542549E+03  0.7546771E-02  0.1026461E+00
         21   -1    0    0  502  501  0.00000000000E+00  0.00000000000E+00  0.10673097939E+03  0.10673097939E+03  0.00000000000E+00 0.  1.
         21   -1    0    0  501  502 -0.00000000000E+00 -0.00000000000E+00 -0.48333551156E+03  0.48333551156E+03  0.00000000000E+00 0.  1.
      99926    2    1    2    0    0  0.00000000000E+00  0.00000000000E+00 -0.37660453217E+03  0.59006649095E+03  0.45425487350E+03 0.  0.
      99925    2    3    3    0    0  0.93568471625E+02 -0.90928787802E+01 -0.31729537441E+03  0.42272604868E+03  0.26302702956E+03 0.  0.
         25    1    4    4    0    0  0.61811725476E+02 -0.61710189322E+01 -0.22196923300E+03  0.26225296829E+03  0.12509000000E+03 0.  0.
         25    1    3    3    0    0 -0.93568471625E+02  0.90928787802E+01 -0.59309157754E+02  0.16734044227E+03  0.12509000000E+03 0.  0.
         25    1    4    4    0    0  0.31756746149E+02 -0.29218598480E+01 -0.95326141416E+02  0.16047308038E+03  0.12509000000E+03 0.  0.
<mgrwt>
<rscale>  2 0.45425487E+03</rscale>
<asrwt>0</asrwt>
<pdfrwt beam="1">  1       21 0.15695732E-01 0.45425487E+03</pdfrwt>
<pdfrwt beam="2">  1       21 0.71078753E-01 0.45425487E+03</pdfrwt>
<totfact> 0.59644378E+04</totfact>
</mgrwt>
</event>
<event>
 7    0  0.4766352E-002  0.4752000E+03  0.7546771E-02  0.1020463E+00
         21   -1    0    0  502  501  0.00000000000E+00  0.00000000000E+00  0.46521247291E+03  0.46521247291E+03  0.00000000000E+00 0. -1.
         21   -1    0    0  501  502 -0.00000000000E+00 -0.00000000000E+00 -0.12135047475E+03  0.12135047475E+03  0.00000000000E+00 0. -1.
      99926    2    1    2    0    0 -0.71054273576E-14  0.00000000000E+00  0.34386199816E+03  0.58656294766E+03  0.47519997662E+03 0.  0.
      99925    2    3    3    0    0  0.50984409608E+02 -0.83283265361E+02  0.32068072138E+03  0.42618716393E+03  0.26318028292E+03 0.  0.
         25    1    3    3    0    0 -0.50984409608E+02  0.83283265361E+02  0.23181276778E+02  0.16037578372E+03  0.12509000000E+03 0.  0.
         25    1    4    4    0    0  0.37671154096E+02 -0.80796920957E+02  0.15586929602E+03  0.21883784825E+03  0.12509000000E+03 0.  0.
         25    1    4    4    0    0  0.13313255513E+02 -0.24863444039E+01  0.16481142537E+03  0.20734931568E+03  0.12509000000E+03 0.  0.
<mgrwt>
<rscale>  2 0.47519998E+03</rscale>
<asrwt>0</asrwt>
<pdfrwt beam="1">  1       21 0.68413598E-01 0.47519998E+03</pdfrwt>
<pdfrwt beam="2">  1       21 0.17845658E-01 0.47519998E+03</pdfrwt>
<totfact> 0.50887394E+04</totfact>
</mgrwt>
</event>
<event>
 7    0  0.4766352E-002  0.4521583E+03  0.7546771E-02  0.1027080E+00
         21   -1    0    0  502  501  0.00000000000E+00  0.00000000000E+00  0.26369882619E+03  0.26369882619E+03  0.00000000000E+00 0. -1.
         21   -1    0    0  501  502 -0.00000000000E+00 -0.00000000000E+00 -0.19382638200E+03  0.19382638200E+03  0.00000000000E+00 0. -1.
      99926    2    1    2    0    0  0.00000000000E+00  0.00000000000E+00  0.69872444188E+02  0.45752520819E+03  0.45215833253E+03 0.  0.
      99925    2    3    3    0    0 -0.49395480077E+02 -0.74420153778E+02 -0.21571333417E+02  0.27867402619E+03  0.26308861189E+03 0.  0.
         25    1    3    3    0    0  0.49395480077E+02  0.74420153778E+02  0.91443777605E+02  0.17885118200E+03  0.12509000000E+03 0.  0.
         25    1    4    4    0    0 -0.17990560719E+02 -0.16739156084E+02 -0.45543026697E+02  0.13537183977E+03  0.12509000000E+03 0.  0.
         25    1    4    4    0    0 -0.31404919359E+02 -0.57680997695E+02  0.23971693280E+02  0.14330218642E+03  0.12509000000E+03 0.  0.
<mgrwt>
<rscale>  2 0.45215833E+03</rscale>
<asrwt>0</asrwt>
<pdfrwt beam="1">  1       21 0.38779240E-01 0.45215833E+03</pdfrwt>
<pdfrwt beam="2">  1       21 0.28503879E-01 0.45215833E+03</pdfrwt>
<totfact> 0.69932658E+04</totfact>
</mgrwt>
</event>
<event>
 7    0  0.4766352E-002  0.4536208E+03  0.7546771E-02  0.1026648E+00
         21   -1    0    0  502  501  0.00000000000E+00  0.00000000000E+00  0.94513272064E+02  0.94513272064E+02  0.00000000000E+00 0. -1.
         21   -1    0    0  501  502 -0.00000000000E+00 -0.00000000000E+00 -0.54429350628E+03  0.54429350628E+03  0.00000000000E+00 0. -1.
      99926    2    1    2    0    0  0.14210854715E-13  0.14210854715E-13 -0.44978023422E+03  0.63880677834E+03  0.45362081187E+03 0.  0.
      99925    2    3    3    0    0  0.89022794033E+02  0.62367074405E+02 -0.31981144757E+03  0.42820263919E+03  0.26317946041E+03 0.  0.
         25    1    4    4    0    0  0.17616741713E+02  0.11167001595E+02 -0.10552283180E+03  0.16497765801E+03  0.12509000000E+03 0.  0.
         25    1    4    4    0    0  0.71406052320E+02  0.51200072811E+02 -0.21428861577E+03  0.26322498117E+03  0.12509000000E+03 0.  0.
         25    1    3    3    0    0 -0.89022794033E+02 -0.62367074405E+02 -0.12996878665E+03  0.21060413916E+03  0.12509000000E+03 0.  0.
<mgrwt>
<rscale>  2 0.45362081E+03</rscale>
<asrwt>0</asrwt>
<pdfrwt beam="1">  1       21 0.13899011E-01 0.45362081E+03</pdfrwt>
<pdfrwt beam="2">  1       21 0.80043162E-01 0.45362081E+03</pdfrwt>
<totfact> 0.56968510E+04</totfact>
</mgrwt>
</event>
<event>
 7    0  0.4766352E-002  0.4532473E+03  0.7546771E-02  0.1026758E+00
         21   -1    0    0  502  501  0.00000000000E+00  0.00000000000E+00  0.60032869626E+03  0.60032869626E+03  0.00000000000E+00 0.  1.
         21   -1    0    0  501  502 -0.00000000000E+00 -0.00000000000E+00 -0.85550281140E+02  0.85550281140E+02  0.00000000000E+00 0.  1.
      99926    2    1    2    0    0  0.00000000000E+00 -0.35527136788E-14  0.51477841512E+03  0.68587897740E+03  0.45324734414E+03 0.  0.
      99925    2    3    3    0    0  0.51941651377E+02  0.29524610403E+02  0.46687214852E+03  0.53920874782E+03  0.26307191581E+03 0.  0.
         25    1    4    4    0    0  0.57461143370E+02  0.14082185243E+02  0.19099498200E+03  0.23585309451E+03  0.12509000000E+03 0.  0.
         25    1    4    4    0    0 -0.55194919932E+01  0.15442425160E+02  0.27587716652E+03  0.30335565331E+03  0.12509000000E+03 0.  0.
         25    1    3    3    0    0 -0.51941651377E+02 -0.29524610403E+02  0.47906266598E+02  0.14667022959E+03  0.12509000000E+03 0.  0.
<mgrwt>
<rscale>  2 0.45324734E+03</rscale>
<asrwt>0</asrwt>
<pdfrwt beam="1">  1       21 0.88283630E-01 0.45324734E+03</pdfrwt>
<pdfrwt beam="2">  1       21 0.12580924E-01 0.45324734E+03</pdfrwt>
<totfact> 0.54423646E+04</totfact>
</mgrwt>
</event>
<event>
 7    0  0.4766352E-002  0.4529727E+03  0.7546771E-02  0.1026839E+00
         21   -1    0    0  502  501  0.00000000000E+00  0.00000000000E+00  0.96131438512E+03  0.96131438512E+03  0.00000000000E+00 0.  1.
         21   -1    0    0  501  502 -0.00000000000E+00 -0.00000000000E+00 -0.53360337065E+02  0.53360337065E+02  0.00000000000E+00 0.  1.
      99926    2    1    2    0    0  0.00000000000E+00  0.00000000000E+00  0.90795404806E+03  0.10146747222E+04  0.45297266856E+03 0.  0.
      99925    2    3    3    0    0  0.12489698277E+02 -0.10590840649E+03  0.64292988646E+03  0.70281273755E+03  0.26308614946E+03 0.  0.
         25    1    4    4    0    0  0.15586062454E+02 -0.86032994627E+02  0.41284149851E+03  0.44014794388E+03  0.12509000000E+03 0.  0.
         25    1    3    3    0    0 -0.12489698277E+02  0.10590840649E+03  0.26502416160E+03  0.31186198463E+03  0.12509000000E+03 0.  0.
         25    1    4    4    0    0 -0.30963641769E+01 -0.19875411866E+02  0.23008838795E+03  0.26266479368E+03  0.12509000000E+03 0.  0.
<mgrwt>
<rscale>  2 0.45297267E+03</rscale>
<asrwt>0</asrwt>
<pdfrwt beam="1">  1       21 0.14136975E+00 0.45297267E+03</pdfrwt>
<pdfrwt beam="2">  1       21 0.78471090E-02 0.45297267E+03</pdfrwt>
<totfact> 0.39217958E+04</totfact>
</mgrwt>
</event>
<event>
 7    0  0.4766352E-002  0.4606456E+03  0.7546771E-02  0.1024594E+00
         21   -1    0    0  502  501  0.00000000000E+00  0.00000000000E+00  0.50582286776E+03  0.50582286776E+03  0.00000000000E+00 0.  1.
         21   -1    0    0  501  502 -0.00000000000E+00 -0.00000000000E+00 -0.10487583585E+03  0.10487583585E+03  0.00000000000E+00 0.  1.
      99926    2    1    2    0    0  0.35527136788E-14  0.00000000000E+00  0.40094703192E+03  0.61069870361E+03  0.46064561670E+03 0.  0.
      99925    2    3    3    0    0 -0.31062384230E+02 -0.10422634220E+03  0.31320329048E+03  0.42315011155E+03  0.26292910378E+03 0.  0.
         25    1    4    4    0    0 -0.44102802322E+02 -0.76419959097E+02  0.14112113550E+03  0.20820122552E+03  0.12509000000E+03 0.  0.
         25    1    3    3    0    0  0.31062384230E+02  0.10422634220E+03  0.87743741437E+02  0.18754859206E+03  0.12509000000E+03 0.  0.
         25    1    4    4    0    0  0.13040418092E+02 -0.27806383102E+02  0.17208215497E+03  0.21494888603E+03  0.12509000000E+03 0.  0.
<mgrwt>
<rscale>  2 0.46064562E+03</rscale>
<asrwt>0</asrwt>
<pdfrwt beam="1">  1       21 0.74385715E-01 0.46064562E+03</pdfrwt>
<pdfrwt beam="2">  1       21 0.15422917E-01 0.46064562E+03</pdfrwt>
<totfact> 0.55507453E+04</totfact>
</mgrwt>
</event>
<event>
 7    0  0.4766352E-002  0.4525188E+03  0.7546771E-02  0.1026974E+00
         21   -1    0    0  502  501  0.00000000000E+00  0.00000000000E+00  0.10184228283E+03  0.10184228283E+03  0.00000000000E+00 0. -1.
         21   -1    0    0  501  502 -0.00000000000E+00 -0.00000000000E+00 -0.50267245686E+03  0.50267245686E+03  0.00000000000E+00 0. -1.
      99926    2    1    2    0    0  0.71054273576E-14  0.00000000000E+00 -0.40083017403E+03  0.60451473969E+03  0.45251877540E+03 0.  0.
      99925    2    3    3    0    0 -0.63824842763E+02  0.90029594629E+02 -0.23828424543E+03  0.37160354316E+03  0.26292750562E+03 0.  0.
         25    1    3    3    0    0  0.63824842763E+02 -0.90029594629E+02 -0.16254592860E+03  0.23291119653E+03  0.12509000000E+03 0.  0.
         25    1    4    4    0    0 -0.20624672928E+02  0.59515432980E+02 -0.73837994584E+02  0.15832568156E+03  0.12509000000E+03 0.  0.
         25    1    4    4    0    0 -0.43200169836E+02  0.30514161649E+02 -0.16444625084E+03  0.21327786161E+03  0.12509000000E+03 0.  0.
<mgrwt>
<rscale>  2 0.45251878E+03</rscale>
<asrwt>0</asrwt>
<pdfrwt beam="1">  1       21 0.14976806E-01 0.45251878E+03</pdfrwt>
<pdfrwt beam="2">  1       21 0.73922419E-01 0.45251878E+03</pdfrwt>
<totfact> 0.59560170E+04</totfact>
</mgrwt>
</event>
<event>
 7    0  0.4766352E-002  0.4510582E+03  0.7546771E-02  0.1027407E+00
         21   -1    0    0  502  501  0.00000000000E+00  0.00000000000E+00  0.52505624311E+03  0.52505624311E+03  0.00000000000E+00 0.  1.
         21   -1    0    0  501  502 -0.00000000000E+00 -0.00000000000E+00 -0.96872226490E+02  0.96872226490E+02  0.00000000000E+00 0.  1.
      99926    2    1    2    0    0  0.71054273576E-14  0.14210854715E-13  0.42818401662E+03  0.62192846960E+03  0.45105816611E+03 0.  0.
      99925    2    3    3    0    0 -0.56087696154E+02 -0.88881479522E+02  0.31239106575E+03  0.42167547304E+03  0.26301383906E+03 0.  0.
         25    1    4    4    0    0 -0.27485543294E+02 -0.57532572781E+02  0.21808876372E+03  0.25937553659E+03  0.12509000000E+03 0.  0.
         25    1    3    3    0    0  0.56087696154E+02  0.88881479522E+02  0.11579295087E+03  0.20025299656E+03  0.12509000000E+03 0.  0.
         25    1    4    4    0    0 -0.28602152860E+02 -0.31348906741E+02  0.94302302034E+02  0.16229993645E+03  0.12509000000E+03 0.  0.
<mgrwt>
<rscale>  2 0.45105817E+03</rscale>
<asrwt>0</asrwt>
<pdfrwt beam="1">  1       21 0.77214152E-01 0.45105817E+03</pdfrwt>
<pdfrwt beam="2">  1       21 0.14245916E-01 0.45105817E+03</pdfrwt>
<totfact> 0.59168594E+04</totfact>
</mgrwt>
</event>
<event>
 7    0  0.4766352E-002  0.4472170E+03  0.7546771E-02  0.1028555E+00
         21   -1    0    0  502  501  0.00000000000E+00  0.00000000000E+00  0.23656304073E+03  0.23656304073E+03  0.00000000000E+00 0. -1.
         21   -1    0    0  501  502 -0.00000000000E+00 -0.00000000000E+00 -0.21136338383E+03  0.21136338383E+03  0.00000000000E+00 0. -1.
      99926    2    1    2    0    0  0.00000000000E+00 -0.14210854715E-13  0.25199656897E+02  0.44792642456E+03  0.44721701568E+03 0.  0.
      99925    2    3    3    0    0 -0.52109984262E+02 -0.78470102473E+02 -0.31900788177E+02  0.28125016240E+03  0.26307980941E+03 0.  0.
         25    1    3    3    0    0  0.52109984262E+02  0.78470102473E+02  0.57100445074E+02  0.16667626217E+03  0.12509000000E+03 0.  0.
         25    1    4    4    0    0 -0.44577189467E+02 -0.29899735651E+01 -0.21834398571E+02  0.13461171875E+03  0.12509000000E+03 0.  0.
         25    1    4    4    0    0 -0.75327947950E+01 -0.75480128908E+02 -0.10066389606E+02  0.14663844365E+03  0.12509000000E+03 0.  0.
<mgrwt>
<rscale>  2 0.44721702E+03</rscale>
<asrwt>0</asrwt>
<pdfrwt beam="1">  1       21 0.34788683E-01 0.44721702E+03</pdfrwt>
<pdfrwt beam="2">  1       21 0.31082850E-01 0.44721702E+03</pdfrwt>
<totfact> 0.73528213E+04</totfact>
</mgrwt>
</event>
<event>
 7    0  0.4766352E-002  0.4626816E+03  0.7546771E-02  0.1024006E+00
         21   -1    0    0  502  501  0.00000000000E+00  0.00000000000E+00  0.20905921837E+03  0.20905921837E+03  0.00000000000E+00 0. -1.
         21   -1    0    0  501  502 -0.00000000000E+00 -0.00000000000E+00 -0.25599714995E+03  0.25599714995E+03  0.00000000000E+00 0. -1.
      99926    2    1    2    0    0  0.00000000000E+00  0.00000000000E+00 -0.46937931579E+02  0.46505636832E+03  0.46268159278E+03 0.  0.
      99925    2    3    3    0    0  0.90604160456E+02 -0.32769995892E+02 -0.10103597724E+03  0.29815192510E+03  0.26344508957E+03 0.  0.
         25    1    4    4    0    0  0.68316850367E+02 -0.49694394391E+02 -0.69339507575E+02  0.16610900123E+03  0.12509000000E+03 0.  0.
         25    1    3    3    0    0 -0.90604160456E+02  0.32769995892E+02  0.54098045664E+02  0.16690444322E+03  0.12509000000E+03 0.  0.
         25    1    4    4    0    0  0.22287310088E+02  0.16924398499E+02 -0.31696469667E+02  0.13204292387E+03  0.12509000000E+03 0.  0.
<mgrwt>
<rscale>  2 0.46268159E+03</rscale>
<asrwt>0</asrwt>
<pdfrwt beam="1">  1       21 0.30744003E-01 0.46268159E+03</pdfrwt>
<pdfrwt beam="2">  1       21 0.37646640E-01 0.46268159E+03</pdfrwt>
<totfact> 0.63813633E+04</totfact>
</mgrwt>
</event>
<event>
 7    0  0.4766352E-002  0.4511704E+03  0.7546771E-02  0.1027374E+00
         21   -1    0    0  502  501  0.00000000000E+00  0.00000000000E+00  0.59531938903E+02  0.59531938903E+02  0.00000000000E+00 0. -1.
         21   -1    0    0  501  502 -0.00000000000E+00 -0.00000000000E+00 -0.85481310109E+03  0.85481310109E+03  0.00000000000E+00 0. -1.
      99926    2    1    2    0    0 -0.71054273576E-14  0.00000000000E+00 -0.79528116219E+03  0.91434504000E+03  0.45117039490E+03 0.  0.
      99925    2    3    3    0    0 -0.57847299050E+02 -0.64812155065E+02 -0.36702558010E+03  0.45981530814E+03  0.26301219687E+03 0.  0.
         25    1    4    4    0    0 -0.67270472470E+02 -0.24819577745E+02 -0.17096088125E+03  0.22364359800E+03  0.12509000000E+03 0.  0.
         25    1    3    3    0    0  0.57847299050E+02  0.64812155065E+02 -0.42825558209E+03  0.45452973185E+03  0.12509000000E+03 0.  0.
         25    1    4    4    0    0  0.94231734200E+01 -0.39992577320E+02 -0.19606469885E+03  0.23617171015E+03  0.12509000000E+03 0.  0.
<mgrwt>
<rscale>  2 0.45117039E+03</rscale>
<asrwt>0</asrwt>
<pdfrwt beam="1">  1       21 0.87546972E-02 0.45117039E+03</pdfrwt>
<pdfrwt beam="2">  1       21 0.12570780E+00 0.45117039E+03</pdfrwt>
<totfact> 0.43920529E+04</totfact>
</mgrwt>
</event>
<event>
 7    0  0.4766352E-002  0.4444760E+03  0.7546771E-02  0.1029382E+00
         21   -1    0    0  502  501  0.00000000000E+00  0.00000000000E+00  0.13498475984E+03  0.13498475984E+03  0.00000000000E+00 0. -1.
         21   -1    0    0  501  502 -0.00000000000E+00 -0.00000000000E+00 -0.36589113041E+03  0.36589113041E+03  0.00000000000E+00 0. -1.
      99926    2    1    2    0    0  0.00000000000E+00  0.00000000000E+00 -0.23090637058E+03  0.50087589025E+03  0.44447598974E+03 0.  0.
      99925    2    3    3    0    0  0.60395873980E+02  0.21326779266E+02 -0.23758638309E+03  0.36018252234E+03  0.26302408038E+03 0.  0.
         25    1    3    3    0    0 -0.60395873980E+02 -0.21326779266E+02  0.66800125113E+01  0.14069336791E+03  0.12509000000E+03 0.  0.
         25    1    4    4    0    0  0.43052824967E+02 -0.53129701107E+01 -0.73542741095E+02  0.15145235639E+03  0.12509000000E+03 0.  0.
         25    1    4    4    0    0  0.17343049013E+02  0.26639749376E+02 -0.16404364199E+03  0.20873016594E+03  0.12509000000E+03 0.  0.
<mgrwt>
<rscale>  2 0.44447599E+03</rscale>
<asrwt>0</asrwt>
<pdfrwt beam="1">  1       21 0.19850700E-01 0.44447599E+03</pdfrwt>
<pdfrwt beam="2">  1       21 0.53807518E-01 0.44447599E+03</pdfrwt>
<totfact> 0.70953081E+04</totfact>
</mgrwt>
</event>
<event>
 7    0  0.4766352E-002  0.4490347E+03  0.7546771E-02  0.1028010E+00
         21   -1    0    0  502  501  0.00000000000E+00  0.00000000000E+00  0.21773250915E+03  0.21773250915E+03  0.00000000000E+00 0. -1.
         21   -1    0    0  501  502 -0.00000000000E+00 -0.00000000000E+00 -0.23151361432E+03  0.23151361432E+03  0.00000000000E+00 0. -1.
      99926    2    1    2    0    0  0.00000000000E+00  0.00000000000E+00 -0.13781105168E+02  0.44924612347E+03  0.44903469865E+03 0.  0.
      99925    2    3    3    0    0 -0.81524419359E+02 -0.67925681043E+02  0.78692484077E+01  0.28378804719E+03  0.26308478017E+03 0.  0.
         25    1    3    3    0    0  0.81524419359E+02  0.67925681043E+02 -0.21650353576E+02  0.16545807628E+03  0.12509000000E+03 0.  0.
         25    1    4    4    0    0 -0.30150253789E+02 -0.43239200383E+02  0.42108972847E+02  0.14212438196E+03  0.12509000000E+03 0.  0.
         25    1    4    4    0    0 -0.51374165571E+02 -0.24686480661E+02 -0.34239724439E+02  0.14166366523E+03  0.12509000000E+03 0.  0.
<mgrwt>
<rscale>  2 0.44903470E+03</rscale>
<asrwt>0</asrwt>
<pdfrwt beam="1">  1       21 0.32019487E-01 0.44903470E+03</pdfrwt>
<pdfrwt beam="2">  1       21 0.34046120E-01 0.44903470E+03</pdfrwt>
<totfact> 0.72352290E+04</totfact>
</mgrwt>
</event>
<event>
 7    0  0.4766352E-002  0.4544900E+03  0.7546771E-02  0.1026391E+00
         21   -1    0    0  502  501  0.00000000000E+00  0.00000000000E+00  0.83815974669E+02  0.83815974669E+02  0.00000000000E+00 0.  1.
         21   -1    0    0  501  502 -0.00000000000E+00 -0.00000000000E+00 -0.61611510124E+03  0.61611510124E+03  0.00000000000E+00 0.  1.
      99926    2    1    2    0    0  0.00000000000E+00  0.00000000000E+00 -0.53229912657E+03  0.69993107591E+03  0.45448998985E+03 0.  0.
      99925    2    3    3    0    0  0.99486355677E+02 -0.36688445777E+02 -0.39363035325E+03  0.48517513580E+03  0.26307124581E+03 0.  0.
         25    1    4    4    0    0  0.78530647046E+02  0.11927836104E+00 -0.16762008329E+03  0.22340787178E+03  0.12509000000E+03 0.  0.
         25    1    4    4    0    0  0.20955708631E+02 -0.36807724138E+02 -0.22601026996E+03  0.26176726401E+03  0.12509000000E+03 0.  0.
         25    1    3    3    0    0 -0.99486355677E+02  0.36688445777E+02 -0.13866877332E+03  0.21475594011E+03  0.12509000000E+03 0.  0.
<mgrwt>
<rscale>  2 0.45448999E+03</rscale>
<asrwt>0</asrwt>
<pdfrwt beam="1">  1       21 0.12325879E-01 0.45448999E+03</pdfrwt>
<pdfrwt beam="2">  1       21 0.90605159E-01 0.45448999E+03</pdfrwt>
<totfact> 0.53119584E+04</totfact>
</mgrwt>
</event>
<event>
 7    0  0.4766352E-002  0.4161197E+03  0.7546771E-02  0.1038337E+00
         21   -1    0    0  502  501  0.00000000000E+00  0.00000000000E+00  0.18455508130E+04  0.18455508130E+04  0.00000000000E+00 0.  1.
         21   -1    0    0  501  502 -0.00000000000E+00 -0.00000000000E+00 -0.23455811707E+02  0.23455811707E+02  0.00000000000E+00 0.  1.
      99926    2    1    2    0    0  0.00000000000E+00  0.00000000000E+00  0.18220950013E+04  0.18690066247E+04  0.41611965763E+03 0.  0.
      99925    2    3    3    0    0  0.36518886622E+02 -0.51352926585E+02  0.10470869508E+04  0.10814434599E+04  0.26297931906E+03 0.  0.
         25    1    4    4    0    0 -0.11071631039E+02  0.31179865563E+01  0.46127328750E+03  0.47807202043E+03  0.12509000000E+03 0.  0.
         25    1    4    4    0    0  0.47590517662E+02 -0.54470913141E+02  0.58581366327E+03  0.60337143944E+03  0.12509000000E+03 0.  0.
         25    1    3    3    0    0 -0.36518886622E+02  0.51352926585E+02  0.77500805052E+03  0.78756316484E+03  0.12509000000E+03 0.  0.
<mgrwt>
<rscale>  2 0.41611966E+03</rscale>
<asrwt>0</asrwt>
<pdfrwt beam="1">  1       21 0.27140443E+00 0.41611966E+03</pdfrwt>
<pdfrwt beam="2">  1       21 0.34493853E-02 0.41611966E+03</pdfrwt>
<totfact> 0.21857666E+04</totfact>
</mgrwt>
</event>
<event>
 7    0  0.4766352E-002  0.4562389E+03  0.7546771E-02  0.1025878E+00
         21   -1    0    0  502  501  0.00000000000E+00  0.00000000000E+00  0.27619852532E+03  0.27619852532E+03  0.00000000000E+00 0. -1.
         21   -1    0    0  501  502 -0.00000000000E+00 -0.00000000000E+00 -0.18840970330E+03  0.18840970330E+03  0.00000000000E+00 0. -1.
      99926    2    1    2    0    0 -0.35527136788E-14 -0.14210854715E-13  0.87788822014E+02  0.46460822862E+03  0.45623889448E+03 0.  0.
      99925    2    3    3    0    0  0.20029606832E+02  0.11164879064E+03  0.69726914510E+02  0.29478367738E+03  0.26299987879E+03 0.  0.
         25    1    4    4    0    0  0.48851586197E+02  0.44564014374E+02  0.38085328327E+02  0.14652791265E+03  0.12509000000E+03 0.  0.
         25    1    4    4    0    0 -0.28821979365E+02  0.67084776264E+02  0.31641586182E+02  0.14825576473E+03  0.12509000000E+03 0.  0.
         25    1    3    3    0    0 -0.20029606832E+02 -0.11164879064E+03  0.18061907504E+02  0.16982455124E+03  0.12509000000E+03 0.  0.
<mgrwt>
<rscale>  2 0.45623889E+03</rscale>
<asrwt>0</asrwt>
<pdfrwt beam="1">  1       21 0.40617431E-01 0.45623889E+03</pdfrwt>
<pdfrwt beam="2">  1       21 0.27707309E-01 0.45623889E+03</pdfrwt>
<totfact> 0.67175277E+04</totfact>
</mgrwt>
</event>
<event>
 7    0  0.4766352E-002  0.4541598E+03  0.7546771E-02  0.1026489E+00
         21   -1    0    0  502  501  0.00000000000E+00  0.00000000000E+00  0.57520241053E+03  0.57520241053E+03  0.00000000000E+00 0.  1.
         21   -1    0    0  501  502 -0.00000000000E+00 -0.00000000000E+00 -0.89647198337E+02  0.89647198337E+02  0.00000000000E+00 0.  1.
      99926    2    1    2    0    0  0.13322676296E-14 -0.14210854715E-13  0.48555521219E+03  0.66484960886E+03  0.45415981584E+03 0.  0.
      99925    2    3    3    0    0 -0.34611468886E+01  0.10515126096E+03  0.24838844782E+03  0.37681428214E+03  0.26310343022E+03 0.  0.
         25    1    3    3    0    0  0.34611468886E+01 -0.10515126096E+03  0.23716676437E+03  0.28803532673E+03  0.12509000000E+03 0.  0.
         25    1    4    4    0    0  0.54400356862E+01  0.81875032480E+02  0.94542022136E+02  0.17697123207E+03  0.12509000000E+03 0.  0.
         25    1    4    4    0    0 -0.89011825747E+01  0.23276228485E+02  0.15384642568E+03  0.19984305006E+03  0.12509000000E+03 0.  0.
<mgrwt>
<rscale>  2 0.45415982E+03</rscale>
<asrwt>0</asrwt>
<pdfrwt beam="1">  1       21 0.84588588E-01 0.45415982E+03</pdfrwt>
<pdfrwt beam="2">  1       21 0.13183412E-01 0.45415982E+03</pdfrwt>
<totfact> 0.55217939E+04</totfact>
</mgrwt>
</event>
<event>
 7    0  0.4766352E-002  0.4460844E+03  0.7546771E-02  0.1028896E+00
         21   -1    0    0  502  501  0.00000000000E+00  0.00000000000E+00  0.13823394624E+03  0.13823394624E+03  0.00000000000E+00 0.  1.
         21   -1    0    0  501  502 -0.00000000000E+00 -0.00000000000E+00 -0.35988144024E+03  0.35988144024E+03  0.00000000000E+00 0.  1.
      99926    2    1    2    0    0  0.35527136788E-14  0.14210854715E-13 -0.22164749400E+03  0.49811538647E+03  0.44608443892E+03 0.  0.
      99925    2    3    3    0    0  0.26204508531E+02  0.90253271471E+02 -0.89624326661E+02  0.29339617855E+03  0.26309022859E+03 0.  0.
         25    1    4    4    0    0  0.65343970972E+01  0.86598119603E+02 -0.40986673625E+02  0.15770018446E+03  0.12509000000E+03 0.  0.
         25    1    3    3    0    0 -0.26204508531E+02 -0.90253271471E+02 -0.13202316734E+03  0.20471920792E+03  0.12509000000E+03 0.  0.
         25    1    4    4    0    0  0.19670111433E+02  0.36551518674E+01 -0.48637653036E+02  0.13569599409E+03  0.12509000000E+03 0.  0.
<mgrwt>
<rscale>  2 0.44608444E+03</rscale>
<asrwt>0</asrwt>
<pdfrwt beam="1">  1       21 0.20328522E-01 0.44608444E+03</pdfrwt>
<pdfrwt beam="2">  1       21 0.52923740E-01 0.44608444E+03</pdfrwt>
<totfact> 0.70244218E+04</totfact>
</mgrwt>
</event>
<event>
 7    0  0.4766352E-002  0.4537859E+03  0.7546771E-02  0.1026599E+00
         21   -1    0    0  502  501  0.00000000000E+00  0.00000000000E+00  0.46610375753E+03  0.46610375753E+03  0.00000000000E+00 0.  1.
         21   -1    0    0  501  502 -0.00000000000E+00 -0.00000000000E+00 -0.11044837803E+03  0.11044837803E+03  0.00000000000E+00 0.  1.
      99926    2    1    2    0    0  0.00000000000E+00  0.00000000000E+00  0.35565537950E+03  0.57655213557E+03  0.45378587027E+03 0.  0.
      99925    2    3    3    0    0  0.21094322815E+02 -0.44962642278E+02  0.35176550114E+03  0.44190723626E+03  0.26282394870E+03 0.  0.
         25    1    4    4    0    0  0.29863400112E+02 -0.18775970239E+02  0.23514077552E+03  0.26866903830E+03  0.12509000000E+03 0.  0.
         25    1    4    4    0    0 -0.87690772976E+01 -0.26186672040E+02  0.11662472561E+03  0.17323819796E+03  0.12509000000E+03 0.  0.
         25    1    3    3    0    0 -0.21094322815E+02  0.44962642278E+02  0.38898783631E+01  0.13464489931E+03  0.12509000000E+03 0.  0.
<mgrwt>
<rscale>  2 0.45378587E+03</rscale>
<asrwt>0</asrwt>
<pdfrwt beam="1">  1       21 0.68544670E-01 0.45378587E+03</pdfrwt>
<pdfrwt beam="2">  1       21 0.16242409E-01 0.45378587E+03</pdfrwt>
<totfact> 0.60726106E+04</totfact>
</mgrwt>
</event>
<event>
 7    0  0.4766352E-002  0.4514357E+03  0.7546771E-02  0.1027295E+00
         21   -1    0    0  502  501  0.00000000000E+00  0.00000000000E+00  0.50918205043E+03  0.50918205043E+03  0.00000000000E+00 0. -1.
         21   -1    0    0  501  502 -0.00000000000E+00 -0.00000000000E+00 -0.10005958200E+03  0.10005958200E+03  0.00000000000E+00 0. -1.
      99926    2    1    2    0    0  0.71054273576E-14 -0.17763568394E-14  0.40912246843E+03  0.60924163243E+03  0.45143567926E+03 0.  0.
      99925    2    3    3    0    0 -0.34612536859E+02 -0.86100458565E+01  0.11810261471E+03  0.29047490901E+03  0.26297392374E+03 0.  0.
         25    1    3    3    0    0  0.34612536859E+02  0.86100458565E+01  0.29101985373E+03  0.31876672342E+03  0.12509000000E+03 0.  0.
         25    1    4    4    0    0 -0.18156127185E+02 -0.40068415810E+02  0.38757578115E+02  0.13814767773E+03  0.12509000000E+03 0.  0.
         25    1    4    4    0    0 -0.16456409674E+02  0.31458369954E+02  0.79345036593E+02  0.15232723129E+03  0.12509000000E+03 0.  0.
<mgrwt>
<rscale>  2 0.45143568E+03</rscale>
<asrwt>0</asrwt>
<pdfrwt beam="1">  1       21 0.74879712E-01 0.45143568E+03</pdfrwt>
<pdfrwt beam="2">  1       21 0.14714645E-01 0.45143568E+03</pdfrwt>
<totfact> 0.59778327E+04</totfact>
</mgrwt>
</event>
<event>
 6    0  0.4766352E-002  0.4533771E+03  0.7546771E-02  0.1026720E+00
         21   -1    0    0  502  501  0.00000000000E+00  0.00000000000E+00  0.25274595776E+03  0.25274595776E+03  0.00000000000E+00 0.  1.
         21   -1    0    0  501  502 -0.00000000000E+00 -0.00000000000E+00 -0.20331755455E+03  0.20331755455E+03  0.00000000000E+00 0.  1.
      99926    2    1    2    0    0  0.00000000000E+00  0.14210854715E-13  0.49428403216E+02  0.45606351231E+03  0.45337706186E+03 0.  0.
         25    1    3    3    0    0  0.46400258210E+02 -0.43188717004E+02 -0.41549312725E+01  0.14029618951E+03  0.12509000000E+03 0.  0.
         25    1    3    3    0    0 -0.24311192846E+02  0.10764932809E+03  0.46373460631E+02  0.17313987954E+03  0.12509000000E+03 0.  0.
         25    1    3    3    0    0 -0.22089065364E+02 -0.64460611083E+02  0.72098738576E+01  0.14262744326E+03  0.12509000000E+03 0.  0.
<mgrwt>
<rscale>  2 0.45337706E+03</rscale>
<asrwt>0</asrwt>
<pdfrwt beam="1">  1       21 0.37168523E-01 0.45337706E+03</pdfrwt>
<pdfrwt beam="2">  1       21 0.29899640E-01 0.45337706E+03</pdfrwt>
<totfact> 0.69361697E+04</totfact>
</mgrwt>
</event>
<event>
 7    0  0.4766352E-002  0.4492045E+03  0.7546771E-02  0.1027960E+00
         21   -1    0    0  502  501  0.00000000000E+00  0.00000000000E+00  0.92664965738E+02  0.92664965738E+02  0.00000000000E+00 0.  1.
         21   -1    0    0  501  502 -0.00000000000E+00 -0.00000000000E+00 -0.54439308049E+03  0.54439308049E+03  0.00000000000E+00 0.  1.
      99926    2    1    2    0    0  0.00000000000E+00 -0.14210854715E-13 -0.45172811475E+03  0.63705804623E+03  0.44920447973E+03 0.  0.
      99925    2    3    3    0    0 -0.33244805034E+02 -0.91828232656E+02 -0.34972176764E+03  0.44840374777E+03  0.26310257483E+03 0.  0.
         25    1    4    4    0    0 -0.33785620030E+02 -0.11073778071E+02 -0.18781413463E+03  0.22844201441E+03  0.12509000000E+03 0.  0.
         25    1    4    4    0    0  0.54081499627E+00 -0.80754454585E+02 -0.16190763301E+03  0.21996173336E+03  0.12509000000E+03 0.  0.
         25    1    3    3    0    0  0.33244805034E+02  0.91828232656E+02 -0.10200634711E+03  0.18865429845E+03  0.12509000000E+03 0.  0.
<mgrwt>
<rscale>  2 0.44920448E+03</rscale>
<asrwt>0</asrwt>
<pdfrwt beam="1">  1       21 0.13627201E-01 0.44920448E+03</pdfrwt>
<pdfrwt beam="2">  1       21 0.80057806E-01 0.44920448E+03</pdfrwt>
<totfact> 0.59110865E+04</totfact>
</mgrwt>
</event>
<event>
 7    0  0.4766352E-002  0.4545062E+03  0.7546771E-02  0.1026387E+00
         21   -1    0    0  502  501  0.00000000000E+00  0.00000000000E+00  0.11628788800E+03  0.11628788800E+03  0.00000000000E+00 0. -1.
         21   -1    0    0  501  502 -0.00000000000E+00 -0.00000000000E+00 -0.44410452571E+03  0.44410452571E+03  0.00000000000E+00 0. -1.
      99926    2    1    2    0    0  0.00000000000E+00  0.88817841970E-15 -0.32781663771E+03  0.56039241372E+03  0.45450622591E+03 0.  0.
      99925    2    3    3    0    0  0.11011607721E+03 -0.63661462194E+01 -0.17828263271E+03  0.33639686682E+03  0.26308188193E+03 0.  0.
         25    1    4    4    0    0  0.11410756745E+02  0.27901136568E+01 -0.80611031591E+02  0.14927704652E+03  0.12509000000E+03 0.  0.
         25    1    3    3    0    0 -0.11011607721E+03  0.63661462194E+01 -0.14953400500E+03  0.22399554690E+03  0.12509000000E+03 0.  0.
         25    1    4    4    0    0  0.98705320469E+02 -0.91562598762E+01 -0.97671601114E+02  0.18711982030E+03  0.12509000000E+03 0.  0.
<mgrwt>
<rscale>  2 0.45450623E+03</rscale>
<asrwt>0</asrwt>
<pdfrwt beam="1">  1       21 0.17101160E-01 0.45450623E+03</pdfrwt>
<pdfrwt beam="2">  1       21 0.65309488E-01 0.45450623E+03</pdfrwt>
<totfact> 0.61424504E+04</totfact>
</mgrwt>
</event>
<event>
 7    0  0.4766352E-002  0.4564373E+03  0.7546771E-02  0.1025820E+00
         21   -1    0    0  502  501  0.00000000000E+00  0.00000000000E+00  0.82603870253E+02  0.82603870253E+02  0.00000000000E+00 0. -1.
         21   -1    0    0  501  502 -0.00000000000E+00 -0.00000000000E+00 -0.63052441248E+03  0.63052441248E+03  0.00000000000E+00 0. -1.
      99926    2    1    2    0    0  0.00000000000E+00  0.00000000000E+00 -0.54792054222E+03  0.71312828273E+03  0.45643731995E+03 0.  0.
      99925    2    3    3    0    0 -0.18208625817E+02 -0.33972832392E+02 -0.17574365918E+03  0.31860471212E+03  0.26293995788E+03 0.  0.
         25    1    3    3    0    0  0.18208625817E+02  0.33972832392E+02 -0.37217688304E+03  0.39452357061E+03  0.12509000000E+03 0.  0.
         25    1    4    4    0    0 -0.15763113852E+02 -0.30782840448E+02 -0.44368098678E+02  0.13715719195E+03  0.12509000000E+03 0.  0.
         25    1    4    4    0    0 -0.24455119644E+01 -0.31899919437E+01 -0.13137556050E+03  0.18144752017E+03  0.12509000000E+03 0.  0.
<mgrwt>
<rscale>  2 0.45643732E+03</rscale>
<asrwt>0</asrwt>
<pdfrwt beam="1">  1       21 0.12147628E-01 0.45643732E+03</pdfrwt>
<pdfrwt beam="2">  1       21 0.92724176E-01 0.45643732E+03</pdfrwt>
<totfact> 0.51609931E+04</totfact>
</mgrwt>
</event>
<event>
 7    0  0.4766352E-002  0.4532823E+03  0.7546771E-02  0.1026748E+00
         21   -1    0    0  502  501  0.00000000000E+00  0.00000000000E+00  0.15393356127E+03  0.15393356127E+03  0.00000000000E+00 0. -1.
         21   -1    0    0  501  502 -0.00000000000E+00 -0.00000000000E+00 -0.33369079566E+03  0.33369079566E+03  0.00000000000E+00 0. -1.
      99926    2    1    2    0    0 -0.71054273576E-14  0.14210854715E-13 -0.17975723439E+03  0.48762435693E+03  0.45328230735E+03 0.  0.
      99925    2    3    3    0    0 -0.32734366514E+02 -0.10651011134E+03 -0.11505154843E+03  0.30804073723E+03  0.26312790508E+03 0.  0.
         25    1    3    3    0    0  0.32734366514E+02  0.10651011134E+03 -0.64705685952E+02  0.17958361970E+03  0.12509000000E+03 0.  0.
         25    1    4    4    0    0 -0.34646115716E+02 -0.20053936389E+02 -0.33778153151E+02  0.13561336744E+03  0.12509000000E+03 0.  0.
         25    1    4    4    0    0  0.19117492019E+01 -0.86456174951E+02 -0.81273395283E+02  0.17242736979E+03  0.12509000000E+03 0.  0.
<mgrwt>
<rscale>  2 0.45328231E+03</rscale>
<asrwt>0</asrwt>
<pdfrwt beam="1">  1       21 0.22637289E-01 0.45328231E+03</pdfrwt>
<pdfrwt beam="2">  1       21 0.49072175E-01 0.45328231E+03</pdfrwt>
<totfact> 0.67058923E+04</totfact>
</mgrwt>
</event>
<event>
 7    0  0.4766352E-002  0.4555797E+03  0.7546771E-02  0.1026071E+00
         21   -1    0    0  502  501  0.00000000000E+00  0.00000000000E+00  0.13009410936E+03  0.13009410936E+03  0.00000000000E+00 0.  1.
         21   -1    0    0  501  502 -0.00000000000E+00 -0.00000000000E+00 -0.39885142227E+03  0.39885142227E+03  0.00000000000E+00 0.  1.
      99926    2    1    2    0    0  0.14210854715E-13 -0.35527136788E-14 -0.26875731291E+03  0.52894553163E+03  0.45557972101E+03 0.  0.
      99925    2    3    3    0    0  0.10345369580E+03 -0.18031362467E+02 -0.22004983158E+03  0.35851160295E+03  0.26283234936E+03 0.  0.
         25    1    4    4    0    0  0.83280291891E+02 -0.32496236984E+02 -0.14000162829E+03  0.20794128128E+03  0.12509000000E+03 0.  0.
         25    1    3    3    0    0 -0.10345369580E+03  0.18031362467E+02 -0.48707481332E+02  0.17043392868E+03  0.12509000000E+03 0.  0.
         25    1    4    4    0    0  0.20173403910E+02  0.14464874516E+02 -0.80048203288E+02  0.15057032168E+03  0.12509000000E+03 0.  0.
<mgrwt>
<rscale>  2 0.45557972E+03</rscale>
<asrwt>0</asrwt>
<pdfrwt beam="1">  1       21 0.19131487E-01 0.45557972E+03</pdfrwt>
<pdfrwt beam="2">  1       21 0.58654621E-01 0.45557972E+03</pdfrwt>
<totfact> 0.62988044E+04</totfact>
</mgrwt>
</event>
<event>
 7    0  0.4766352E-002  0.4576618E+03  0.7546771E-02  0.1025462E+00
         21   -1    0    0  502  501  0.00000000000E+00  0.00000000000E+00  0.79286088689E+03  0.79286088689E+03  0.00000000000E+00 0.  1.
         21   -1    0    0  501  502 -0.00000000000E+00 -0.00000000000E+00 -0.66043829946E+02  0.66043829946E+02  0.00000000000E+00 0.  1.
      99926    2    1    2    0    0 -0.14210854715E-13  0.17763568394E-14  0.72681705695E+03  0.85890471684E+03  0.45766175101E+03 0.  0.
      99925    2    3    3    0    0  0.68453401735E+02 -0.13988866156E+02  0.28506959878E+03  0.39450200207E+03  0.26360120809E+03 0.  0.
         25    1    3    3    0    0 -0.68453401735E+02  0.13988866156E+02  0.44174745817E+03  0.46440271477E+03  0.12509000000E+03 0.  0.
         25    1    4    4    0    0  0.53059036697E+02 -0.11056675487E+02  0.20137767475E+03  0.24318303279E+03  0.12509000000E+03 0.  0.
         25    1    4    4    0    0  0.15394365038E+02 -0.29321906691E+01  0.83691924023E+02  0.15131896928E+03  0.12509000000E+03 0.  0.
<mgrwt>
<rscale>  2 0.45766175E+03</rscale>
<asrwt>0</asrwt>
<pdfrwt beam="1">  1       21 0.11659718E+00 0.45766175E+03</pdfrwt>
<pdfrwt beam="2">  1       21 0.97123284E-02 0.45766175E+03</pdfrwt>
<totfact> 0.44115327E+04</totfact>
</mgrwt>
</event>
<event>
 7    0  0.4766352E-002  0.4749922E+03  0.7546771E-02  0.1020521E+00
         21   -1    0    0  502  501  0.00000000000E+00  0.00000000000E+00  0.81025741328E+02  0.81025741328E+02  0.00000000000E+00 0. -1.
         21   -1    0    0  501  502 -0.00000000000E+00 -0.00000000000E+00 -0.69612932987E+03  0.69612932987E+03  0.00000000000E+00 0. -1.
      99926    2    1    2    0    0  0.00000000000E+00  0.00000000000E+00 -0.61510358854E+03  0.77715507120E+03  0.47499218947E+03 0.  0.
      99925    2    3    3    0    0  0.79019267411E+02  0.48163936197E+02 -0.53266239411E+03  0.60106456035E+03  0.26265104270E+03 0.  0.
         25    1    3    3    0    0 -0.79019267411E+02 -0.48163936197E+02 -0.82441194427E+02  0.17609051085E+03  0.12509000000E+03 0.  0.
         25    1    4    4    0    0  0.25854939387E+02  0.60565701608E+02 -0.25082247997E+03  0.28791683984E+03  0.12509000000E+03 0.  0.
         25    1    4    4    0    0  0.53164328025E+02 -0.12401765411E+02 -0.28183991414E+03  0.31314772051E+03  0.12509000000E+03 0.  0.
<mgrwt>
<rscale>  2 0.47499219E+03</rscale>
<asrwt>0</asrwt>
<pdfrwt beam="1">  1       21 0.11915551E-01 0.47499219E+03</pdfrwt>
<pdfrwt beam="2">  1       21 0.10237196E+00 0.47499219E+03</pdfrwt>
<totfact> 0.41914836E+04</totfact>
</mgrwt>
</event>
<event>
 7    0  0.4766352E-002  0.4546801E+03  0.7546771E-02  0.1026336E+00
         21   -1    0    0  502  501  0.00000000000E+00  0.00000000000E+00  0.49615314064E+02  0.49615314064E+02  0.00000000000E+00 0.  1.
         21   -1    0    0  501  502 -0.00000000000E+00 -0.00000000000E+00 -0.10416844500E+04  0.10416844500E+04  0.00000000000E+00 0.  1.
      99926    2    1    2    0    0 -0.17763568394E-14  0.00000000000E+00 -0.99206913591E+03  0.10912997640E+04  0.45468011235E+03 0.  0.
      99925    2    3    3    0    0  0.13423749650E+02  0.79236953079E+02 -0.43461782685E+03  0.51436115217E+03  0.26308942902E+03 0.  0.
         25    1    3    3    0    0 -0.13423749650E+02 -0.79236953079E+02 -0.55745130906E+03  0.57693861187E+03  0.12509000000E+03 0.  0.
         25    1    4    4    0    0  0.30898702136E+02  0.26635093728E+02 -0.15687672873E+03  0.20474856319E+03  0.12509000000E+03 0.  0.
         25    1    4    4    0    0 -0.17474952486E+02  0.52601859350E+02 -0.27774109811E+03  0.30961258898E+03  0.12509000000E+03 0.  0.
<mgrwt>
<rscale>  2 0.45468011E+03</rscale>
<asrwt>0</asrwt>
<pdfrwt beam="1">  1       21 0.72963688E-02 0.45468011E+03</pdfrwt>
<pdfrwt beam="2">  1       21 0.15318891E+00 0.45468011E+03</pdfrwt>
<totfact> 0.35886882E+04</totfact>
</mgrwt>
</event>
<event>
 7    0  0.4766352E-002  0.4501901E+03  0.7546771E-02  0.1027665E+00
         21   -1    0    0  502  501  0.00000000000E+00  0.00000000000E+00  0.48766862128E+02  0.48766862128E+02  0.00000000000E+00 0.  1.
         21   -1    0    0  501  502 -0.00000000000E+00 -0.00000000000E+00 -0.10389799302E+04  0.10389799302E+04  0.00000000000E+00 0.  1.
      99926    2    1    2    0    0  0.00000000000E+00  0.71054273576E-14 -0.99021306805E+03  0.10877467923E+04  0.45019014209E+03 0.  0.
      99925    2    3    3    0    0  0.38026918312E+02  0.17562033833E+02 -0.38391108686E+03  0.46725982867E+03  0.26303907186E+03 0.  0.
         25    1    4    4    0    0  0.24071600532E+02  0.35766417499E+02 -0.14286401673E+03  0.19472111839E+03  0.12509000000E+03 0.  0.
         25    1    4    4    0    0  0.13955317780E+02 -0.18204383665E+02 -0.24104707013E+03  0.27253871027E+03  0.12509000000E+03 0.  0.
         25    1    3    3    0    0 -0.38026918312E+02 -0.17562033833E+02 -0.60630198119E+03  0.62048696364E+03  0.12509000000E+03 0.  0.
<mgrwt>
<rscale>  2 0.45019014E+03</rscale>
<asrwt>0</asrwt>
<pdfrwt beam="1">  1       21 0.71715980E-02 0.45019014E+03</pdfrwt>
<pdfrwt beam="2">  1       21 0.15279115E+00 0.45019014E+03</pdfrwt>
<totfact> 0.37302339E+04</totfact>
</mgrwt>
</event>
<event>
 7    0  0.4766352E-002  0.4574679E+03  0.7546771E-02  0.1025518E+00
         21   -1    0    0  502  501  0.00000000000E+00  0.00000000000E+00  0.22561559895E+03  0.22561559895E+03  0.00000000000E+00 0. -1.
         21   -1    0    0  501  502 -0.00000000000E+00 -0.00000000000E+00 -0.23189544530E+03  0.23189544530E+03  0.00000000000E+00 0. -1.
      99926    2    1    2    0    0  0.00000000000E+00  0.00000000000E+00 -0.62798463501E+01  0.45751104425E+03  0.45746794330E+03 0.  0.
      99925    2    3    3    0    0 -0.58026443710E+02  0.22399494735E+02 -0.10125843109E+03  0.28858133936E+03  0.26297740212E+03 0.  0.
         25    1    4    4    0    0 -0.55569252412E+02  0.38500667519E+02 -0.36572511489E+02  0.14681723301E+03  0.12509000000E+03 0.  0.
         25    1    3    3    0    0  0.58026443710E+02 -0.22399494735E+02  0.94978584743E+02  0.16892970489E+03  0.12509000000E+03 0.  0.
         25    1    4    4    0    0 -0.24571912988E+01 -0.16101172784E+02 -0.64685919605E+02  0.14176410635E+03  0.12509000000E+03 0.  0.
<mgrwt>
<rscale>  2 0.45746794E+03</rscale>
<asrwt>0</asrwt>
<pdfrwt beam="1">  1       21 0.33178765E-01 0.45746794E+03</pdfrwt>
<pdfrwt beam="2">  1       21 0.34102271E-01 0.45746794E+03</pdfrwt>
<totfact> 0.67032492E+04</totfact>
</mgrwt>
</event>
<event>
 7    0  0.4766352E-002  0.4552439E+03  0.7546771E-02  0.1026170E+00
         21   -1    0    0  502  501  0.00000000000E+00  0.00000000000E+00  0.13923284132E+03  0.13923284132E+03  0.00000000000E+00 0. -1.
         21   -1    0    0  501  502 -0.00000000000E+00 -0.00000000000E+00 -0.37212301990E+03  0.37212301990E+03  0.00000000000E+00 0. -1.
      99926    2    1    2    0    0  0.00000000000E+00 -0.71054273576E-14 -0.23289017859E+03  0.51135586122E+03  0.45524387039E+03 0.  0.
      99925    2    3    3    0    0 -0.87984709935E+02 -0.55512901176E+02 -0.10053080369E+03  0.30161911289E+03  0.26465950840E+03 0.  0.
         25    1    3    3    0    0  0.87984709935E+02  0.55512901176E+02 -0.13235937489E+03  0.20973674833E+03  0.12509000000E+03 0.  0.
         25    1    4    4    0    0 -0.81089905301E+01 -0.50887429309E+01 -0.63248322710E+02  0.14049736459E+03  0.12509000000E+03 0.  0.
         25    1    4    4    0    0 -0.79875719405E+02 -0.50424158245E+02 -0.37282480983E+02  0.16112174829E+03  0.12509000000E+03 0.  0.
<mgrwt>
<rscale>  2 0.45524387E+03</rscale>
<asrwt>0</asrwt>
<pdfrwt beam="1">  1       21 0.20475418E-01 0.45524387E+03</pdfrwt>
<pdfrwt beam="2">  1       21 0.54723973E-01 0.45524387E+03</pdfrwt>
<totfact> 0.64355375E+04</totfact>
</mgrwt>
</event>
<event>
 7    0  0.4766352E-002  0.4403376E+03  0.7546771E-02  0.1030643E+00
         21   -1    0    0  502  501  0.00000000000E+00  0.00000000000E+00  0.85976046058E+02  0.85976046058E+02  0.00000000000E+00 0.  1.
         21   -1    0    0  501  502 -0.00000000000E+00 -0.00000000000E+00 -0.56381171530E+03  0.56381171530E+03  0.00000000000E+00 0.  1.
      99926    2    1    2    0    0  0.00000000000E+00 -0.71054273576E-14 -0.47783566924E+03  0.64978776136E+03  0.44033760686E+03 0.  0.
      99925    2    3    3    0    0 -0.90732931733E+02  0.32068502494E+02 -0.33784434862E+03  0.43882347124E+03  0.26299502138E+03 0.  0.
         25    1    4    4    0    0 -0.55949239804E+02  0.35847869181E+02 -0.22943891670E+03  0.26963885431E+03  0.12509000000E+03 0.  0.
         25    1    3    3    0    0  0.90732931733E+02 -0.32068502494E+02 -0.13999132063E+03  0.21096429011E+03  0.12509000000E+03 0.  0.
         25    1    4    4    0    0 -0.34783691929E+02 -0.37793666871E+01 -0.10840543192E+03  0.16918461693E+03  0.12509000000E+03 0.  0.
<mgrwt>
<rscale>  2 0.44033761E+03</rscale>
<asrwt>0</asrwt>
<pdfrwt beam="1">  1       21 0.12643537E-01 0.44033761E+03</pdfrwt>
<pdfrwt beam="2">  1       21 0.82913485E-01 0.44033761E+03</pdfrwt>
<totfact> 0.62649819E+04</totfact>
</mgrwt>
</event>
<event>
 7    0  0.4766352E-002  0.4522772E+03  0.7546771E-02  0.1027045E+00
         21   -1    0    0  502  501  0.00000000000E+00  0.00000000000E+00  0.49088996024E+03  0.49088996024E+03  0.00000000000E+00 0.  1.
         21   -1    0    0  501  502 -0.00000000000E+00 -0.00000000000E+00 -0.10417542270E+03  0.10417542270E+03  0.00000000000E+00 0.  1.
      99926    2    1    2    0    0  0.71054273576E-14  0.00000000000E+00  0.38671453754E+03  0.59506538293E+03  0.45227721192E+03 0.  0.
      99925    2    3    3    0    0  0.47502851239E+02  0.97121812009E+02  0.27452257814E+03  0.39525619622E+03  0.26301263752E+03 0.  0.
         25    1    4    4    0    0 -0.25836406485E+01  0.66068460812E+02  0.17419238880E+03  0.22441526937E+03  0.12509000000E+03 0.  0.
         25    1    3    3    0    0 -0.47502851239E+02 -0.97121812009E+02  0.11219195940E+03  0.19980918672E+03  0.12509000000E+03 0.  0.
         25    1    4    4    0    0  0.50086491887E+02  0.31053351198E+02  0.10033018934E+03  0.17084092684E+03  0.12509000000E+03 0.  0.
<mgrwt>
<rscale>  2 0.45227721E+03</rscale>
<asrwt>0</asrwt>
<pdfrwt beam="1">  1       21 0.72189699E-01 0.45227721E+03</pdfrwt>
<pdfrwt beam="2">  1       21 0.15319915E-01 0.45227721E+03</pdfrwt>
<totfact> 0.60269378E+04</totfact>
</mgrwt>
</event>
<event>
 7    0  0.4766352E-002  0.4403008E+03  0.7546771E-02  0.1030655E+00
         21   -1    0    0  502  501  0.00000000000E+00  0.00000000000E+00  0.11121625764E+03  0.11121625764E+03  0.00000000000E+00 0. -1.
         21   -1    0    0  501  502 -0.00000000000E+00 -0.00000000000E+00 -0.43578348590E+03  0.43578348590E+03  0.00000000000E+00 0. -1.
      99926    2    1    2    0    0  0.00000000000E+00  0.00000000000E+00 -0.32456722826E+03  0.54699974355E+03  0.44030084462E+03 0.  0.
      99925    2    3    3    0    0 -0.44492745371E+02  0.72773836524E+02 -0.26892993515E+03  0.38569676106E+03  0.26298867999E+03 0.  0.
         25    1    4    4    0    0 -0.15919117602E+02 -0.44629207031E+01 -0.11109130492E+03  0.16811342033E+03  0.12509000000E+03 0.  0.
         25    1    3    3    0    0  0.44492745371E+02 -0.72773836524E+02 -0.55637293112E+02  0.16130298248E+03  0.12509000000E+03 0.  0.
         25    1    4    4    0    0 -0.28573627769E+02  0.77236757227E+02 -0.15783863023E+03  0.21758334073E+03  0.12509000000E+03 0.  0.
<mgrwt>
<rscale>  2 0.44030084E+03</rscale>
<asrwt>0</asrwt>
<pdfrwt beam="1">  1       21 0.16355333E-01 0.44030084E+03</pdfrwt>
<pdfrwt beam="2">  1       21 0.64085805E-01 0.44030084E+03</pdfrwt>
<totfact> 0.69840432E+04</totfact>
</mgrwt>
</event>
<event>
 7    0  0.4766352E-002  0.4471044E+03  0.7546771E-02  0.1028589E+00
         21   -1    0    0  502  501  0.00000000000E+00  0.00000000000E+00  0.20938488150E+03  0.20938488150E+03  0.00000000000E+00 0. -1.
         21   -1    0    0  501  502 -0.00000000000E+00 -0.00000000000E+00 -0.23867806022E+03  0.23867806022E+03  0.00000000000E+00 0. -1.
      99926    2    1    2    0    0  0.00000000000E+00  0.00000000000E+00 -0.29293178721E+02  0.44806294171E+03  0.44710436077E+03 0.  0.
      99925    2    3    3    0    0 -0.40164625936E+02  0.24409369929E+02 -0.11164226542E+03  0.29109831291E+03  0.26469835253E+03 0.  0.
         25    1    4    4    0    0 -0.39766064213E+02  0.35887712082E+02 -0.91245794599E+02  0.16383702534E+03  0.12509000000E+03 0.  0.
         25    1    4    4    0    0 -0.39856172300E+00 -0.11478342154E+02 -0.20396470819E+02  0.12726128756E+03  0.12509000000E+03 0.  0.
         25    1    3    3    0    0  0.40164625936E+02 -0.24409369929E+02  0.82349086697E+02  0.15696462881E+03  0.12509000000E+03 0.  0.
<mgrwt>
<rscale>  2 0.44710436E+03</rscale>
<asrwt>0</asrwt>
<pdfrwt beam="1">  1       21 0.30791895E-01 0.44710436E+03</pdfrwt>
<pdfrwt beam="2">  1       21 0.35099715E-01 0.44710436E+03</pdfrwt>
<totfact> 0.73584584E+04</totfact>
</mgrwt>
</event>
<event>
 7    0  0.4766352E-002  0.4600303E+03  0.7546771E-02  0.1024772E+00
         21   -1    0    0  502  501  0.00000000000E+00  0.00000000000E+00  0.32335361924E+03  0.32335361924E+03  0.00000000000E+00 0.  1.
         21   -1    0    0  501  502 -0.00000000000E+00 -0.00000000000E+00 -0.16361954295E+03  0.16361954295E+03  0.00000000000E+00 0.  1.
      99926    2    1    2    0    0  0.00000000000E+00  0.00000000000E+00  0.15973407629E+03  0.48697316219E+03  0.46003030940E+03 0.  0.
      99925    2    3    3    0    0  0.14631490734E+02  0.11618088372E+03  0.11413866657E+03  0.30966403172E+03  0.26296786699E+03 0.  0.
         25    1    4    4    0    0 -0.29073853137E+02  0.61180236915E+02  0.37977926725E+02  0.14723498682E+03  0.12509000000E+03 0.  0.
         25    1    3    3    0    0 -0.14631490734E+02 -0.11618088372E+03  0.45595409717E+02  0.17730913048E+03  0.12509000000E+03 0.  0.
         25    1    4    4    0    0  0.43705343871E+02  0.55000646808E+02  0.76160739849E+02  0.16242904490E+03  0.12509000000E+03 0.  0.
<mgrwt>
<rscale>  2 0.46003031E+03</rscale>
<asrwt>0</asrwt>
<pdfrwt beam="1">  1       21 0.47552003E-01 0.46003031E+03</pdfrwt>
<pdfrwt beam="2">  1       21 0.24061698E-01 0.46003031E+03</pdfrwt>
<totfact> 0.63617352E+04</totfact>
</mgrwt>
</event>
<event>
 7    0  0.4766352E-002  0.4553237E+03  0.7546771E-02  0.1026146E+00
         21   -1    0    0  502  501  0.00000000000E+00  0.00000000000E+00  0.22143137299E+03  0.22143137299E+03  0.00000000000E+00 0. -1.
         21   -1    0    0  501  502 -0.00000000000E+00 -0.00000000000E+00 -0.23406761176E+03  0.23406761176E+03  0.00000000000E+00 0. -1.
      99926    2    1    2    0    0  0.00000000000E+00 -0.88817841970E-15 -0.12636238772E+02  0.45549898475E+03  0.45532367671E+03 0.  0.
      99925    2    3    3    0    0 -0.10762656032E+03 -0.66344209801E+01 -0.43942495703E+02  0.28740650469E+03  0.26276237170E+03 0.  0.
         25    1    4    4    0    0 -0.39393073819E+02 -0.32154286845E+02 -0.45953084971E+02  0.14263557251E+03  0.12509000000E+03 0.  0.
         25    1    3    3    0    0  0.10762656032E+03  0.66344209801E+01  0.31306256931E+02  0.16809248006E+03  0.12509000000E+03 0.  0.
         25    1    4    4    0    0 -0.68233486505E+02  0.25519865865E+02  0.20105892683E+01  0.14477093218E+03  0.12509000000E+03 0.  0.
<mgrwt>
<rscale>  2 0.45532368E+03</rscale>
<asrwt>0</asrwt>
<pdfrwt beam="1">  1       21 0.32563437E-01 0.45532368E+03</pdfrwt>
<pdfrwt beam="2">  1       21 0.34421708E-01 0.45532368E+03</pdfrwt>
<totfact> 0.68332615E+04</totfact>
</mgrwt>
</event>
<event>
 7    0  0.4766352E-002  0.4762244E+03  0.7546771E-02  0.1020178E+00
         21   -1    0    0  502  501  0.00000000000E+00  0.00000000000E+00  0.16851827712E+03  0.16851827712E+03  0.00000000000E+00 0.  1.
         21   -1    0    0  501  502 -0.00000000000E+00 -0.00000000000E+00 -0.33644673533E+03  0.33644673533E+03  0.00000000000E+00 0.  1.
      99926    2    1    2    0    0  0.00000000000E+00  0.00000000000E+00 -0.16792845820E+03  0.50496501245E+03  0.47622441845E+03 0.  0.
      99925    2    3    3    0    0 -0.10234311622E+03 -0.21674912950E+02 -0.18931558763E+03  0.34049971917E+03  0.26297481199E+03 0.  0.
         25    1    3    3    0    0  0.10234311622E+03  0.21674912950E+02  0.21387129429E+02  0.16446529328E+03  0.12509000000E+03 0.  0.
         25    1    4    4    0    0 -0.43244737429E+02 -0.41465110039E+01 -0.13969094664E+03  0.19247953019E+03  0.12509000000E+03 0.  0.
         25    1    4    4    0    0 -0.59098378793E+02 -0.17528401946E+02 -0.49624640987E+02  0.14802018897E+03  0.12509000000E+03 0.  0.
<mgrwt>
<rscale>  2 0.47622442E+03</rscale>
<asrwt>0</asrwt>
<pdfrwt beam="1">  1       21 0.24782100E-01 0.47622442E+03</pdfrwt>
<pdfrwt beam="2">  1       21 0.49477461E-01 0.47622442E+03</pdfrwt>
<totfact> 0.55047223E+04</totfact>
</mgrwt>
</event>
<event>
 7    0  0.4766352E-002  0.4650586E+03  0.7546771E-02  0.1023324E+00
         21   -1    0    0  502  501  0.00000000000E+00  0.00000000000E+00  0.24935944952E+03  0.24935944952E+03  0.00000000000E+00 0. -1.
         21   -1    0    0  501  502 -0.00000000000E+00 -0.00000000000E+00 -0.21683510029E+03  0.21683510029E+03  0.00000000000E+00 0. -1.
      99926    2    1    2    0    0  0.00000000000E+00  0.00000000000E+00  0.32524349228E+02  0.46619454982E+03  0.46505862532E+03 0.  0.
      99925    2    3    3    0    0  0.87083449250E+02  0.83627397346E+02  0.39856668457E+02  0.29218782660E+03  0.26307433032E+03 0.  0.
         25    1    4    4    0    0  0.69166380267E+02  0.73113019641E+02  0.47838659822E+01  0.16062345804E+03  0.12509000000E+03 0.  0.
         25    1    4    4    0    0  0.17917068983E+02  0.10514377705E+02  0.35072802475E+02  0.13156436855E+03  0.12509000000E+03 0.  0.
         25    1    3    3    0    0 -0.87083449250E+02 -0.83627397346E+02 -0.73323192298E+01  0.17400672322E+03  0.12509000000E+03 0.  0.
<mgrwt>
<rscale>  2 0.46505863E+03</rscale>
<asrwt>0</asrwt>
<pdfrwt beam="1">  1       21 0.36670507E-01 0.46505863E+03</pdfrwt>
<pdfrwt beam="2">  1       21 0.31887515E-01 0.46505863E+03</pdfrwt>
<totfact> 0.62559834E+04</totfact>
</mgrwt>
</event>
<event>
 7    0  0.4766352E-002  0.4527540E+03  0.7546771E-02  0.1026904E+00
         21   -1    0    0  502  501  0.00000000000E+00  0.00000000000E+00  0.36177107071E+03  0.36177107071E+03  0.00000000000E+00 0.  1.
         21   -1    0    0  501  502 -0.00000000000E+00 -0.00000000000E+00 -0.14165465676E+03  0.14165465676E+03  0.00000000000E+00 0.  1.
      99926    2    1    2    0    0  0.00000000000E+00  0.00000000000E+00  0.22011641394E+03  0.50342572747E+03  0.45275404735E+03 0.  0.
      99925    2    3    3    0    0  0.89710171757E+01  0.72987694791E+02  0.23129398074E+03  0.35789178353E+03  0.26302460047E+03 0.  0.
         25    1    4    4    0    0 -0.18293589176E+02  0.53307680564E+02  0.80380315743E+02  0.15901216139E+03  0.12509000000E+03 0.  0.
         25    1    4    4    0    0  0.27264606351E+02  0.19680014227E+02  0.15091366499E+03  0.19887962214E+03  0.12509000000E+03 0.  0.
         25    1    3    3    0    0 -0.89710171757E+01 -0.72987694791E+02 -0.11177566793E+02  0.14553394394E+03  0.12509000000E+03 0.  0.
<mgrwt>
<rscale>  2 0.45275405E+03</rscale>
<asrwt>0</asrwt>
<pdfrwt beam="1">  1       21 0.53201628E-01 0.45275405E+03</pdfrwt>
<pdfrwt beam="2">  1       21 0.20831567E-01 0.45275405E+03</pdfrwt>
<totfact> 0.66203004E+04</totfact>
</mgrwt>
</event>
<event>
 7    0  0.4766352E-002  0.4547837E+03  0.7546771E-02  0.1026305E+00
         21   -1    0    0  502  501  0.00000000000E+00  0.00000000000E+00  0.20779443829E+03  0.20779443829E+03  0.00000000000E+00 0.  1.
         21   -1    0    0  501  502 -0.00000000000E+00 -0.00000000000E+00 -0.24883755965E+03  0.24883755965E+03  0.00000000000E+00 0.  1.
      99926    2    1    2    0    0  0.00000000000E+00 -0.17763568394E-14 -0.41043121359E+02  0.45663199793E+03  0.45478373292E+03 0.  0.
      99925    2    3    3    0    0  0.73027991421E+02 -0.13065200002E+02 -0.11130365043E+03  0.29511470156E+03  0.26305968428E+03 0.  0.
         25    1    3    3    0    0 -0.73027991421E+02  0.13065200002E+02  0.70260529075E+02  0.16151729637E+03  0.12509000000E+03 0.  0.
         25    1    4    4    0    0  0.74505251102E+02 -0.23324731962E+02 -0.67535086520E+02  0.16218375866E+03  0.12509000000E+03 0.  0.
         25    1    4    4    0    0 -0.14772596815E+01  0.10259531960E+02 -0.43768563915E+02  0.13293094290E+03  0.12509000000E+03 0.  0.
<mgrwt>
<rscale>  2 0.45478373E+03</rscale>
<asrwt>0</asrwt>
<pdfrwt beam="1">  1       21 0.30558006E-01 0.45478373E+03</pdfrwt>
<pdfrwt beam="2">  1       21 0.36593759E-01 0.45478373E+03</pdfrwt>
<totfact> 0.68544615E+04</totfact>
</mgrwt>
</event>
<event>
 7    0  0.4766352E-002  0.4507927E+03  0.7546771E-02  0.1027486E+00
         21   -1    0    0  502  501  0.00000000000E+00  0.00000000000E+00  0.53597662755E+03  0.53597662755E+03  0.00000000000E+00 0.  1.
         21   -1    0    0  501  502 -0.00000000000E+00 -0.00000000000E+00 -0.94786824871E+02  0.94786824871E+02  0.00000000000E+00 0.  1.
      99926    2    1    2    0    0  0.00000000000E+00  0.00000000000E+00  0.44118980268E+03  0.63076345242E+03  0.45079273610E+03 0.  0.
      99925    2    3    3    0    0  0.86163278244E+02  0.55224966604E+02  0.33256993446E+03  0.43603366188E+03  0.26277116571E+03 0.  0.
         25    1    4    4    0    0  0.57500133523E+02 -0.61664334889E+01  0.18911629192E+03  0.23400164578E+03  0.12509000000E+03 0.  0.
         25    1    4    4    0    0  0.28663144722E+02  0.61391400093E+02  0.14345364253E+03  0.20203201609E+03  0.12509000000E+03 0.  0.
         25    1    3    3    0    0 -0.86163278244E+02 -0.55224966604E+02  0.10861986822E+03  0.19472979055E+03  0.12509000000E+03 0.  0.
<mgrwt>
<rscale>  2 0.45079274E+03</rscale>
<asrwt>0</asrwt>
<pdfrwt beam="1">  1       21 0.78820091E-01 0.45079274E+03</pdfrwt>
<pdfrwt beam="2">  1       21 0.13939239E-01 0.45079274E+03</pdfrwt>
<totfact> 0.58750511E+04</totfact>
</mgrwt>
</event>
<event>
 7    0  0.4766352E-002  0.4519740E+03  0.7546771E-02  0.1027135E+00
         21   -1    0    0  502  501  0.00000000000E+00  0.00000000000E+00  0.34523464742E+02  0.34523464742E+02  0.00000000000E+00 0. -1.
         21   -1    0    0  501  502 -0.00000000000E+00 -0.00000000000E+00 -0.14792870720E+04  0.14792870720E+04  0.00000000000E+00 0. -1.
      99926    2    1    2    0    0  0.88817841970E-15  0.00000000000E+00 -0.14447636073E+04  0.15138105367E+04  0.45197395975E+03 0.  0.
      99925    2    3    3    0    0 -0.53443517572E+01 -0.10186339890E+03 -0.10513227662E+04  0.10885483616E+04  0.26316014626E+03 0.  0.
         25    1    4    4    0    0 -0.93402802625E+01 -0.60944699580E+02 -0.38848159588E+03  0.41275532181E+03  0.12509000000E+03 0.  0.
         25    1    3    3    0    0  0.53443517572E+01  0.10186339890E+03 -0.39344084102E+03  0.42526217515E+03  0.12509000000E+03 0.  0.
         25    1    4    4    0    0  0.39959285053E+01 -0.40918699321E+02 -0.66284117036E+03  0.67579303978E+03  0.12509000000E+03 0.  0.
<mgrwt>
<rscale>  2 0.45197396E+03</rscale>
<asrwt>0</asrwt>
<pdfrwt beam="1">  1       21 0.50769820E-02 0.45197396E+03</pdfrwt>
<pdfrwt beam="2">  1       21 0.21754213E+00 0.45197396E+03</pdfrwt>
<totfact> 0.24001866E+04</totfact>
</mgrwt>
</event>
<event>
 7    0  0.4766352E-002  0.4587142E+03  0.7546771E-02  0.1025155E+00
         21   -1    0    0  502  501  0.00000000000E+00  0.00000000000E+00  0.40503413175E+03  0.40503413175E+03  0.00000000000E+00 0.  1.
         21   -1    0    0  501  502 -0.00000000000E+00 -0.00000000000E+00 -0.12987716681E+03  0.12987716681E+03  0.00000000000E+00 0.  1.
      99926    2    1    2    0    0  0.00000000000E+00  0.00000000000E+00  0.27515696494E+03  0.53491129856E+03  0.45871422691E+03 0.  0.
      99925    2    3    3    0    0 -0.41241466836E+02  0.10890891031E+03  0.16735917288E+03  0.33284724583E+03  0.26308969378E+03 0.  0.
         25    1    4    4    0    0 -0.35392548382E+02  0.82822802428E+02  0.58459989130E+02  0.16485547462E+03  0.12509000000E+03 0.  0.
         25    1    4    4    0    0 -0.58489184539E+01  0.26086107883E+02  0.10889918375E+03  0.16799177121E+03  0.12509000000E+03 0.  0.
         25    1    3    3    0    0  0.41241466836E+02 -0.10890891031E+03  0.10779779206E+03  0.20206405273E+03  0.12509000000E+03 0.  0.
<mgrwt>
<rscale>  2 0.45871423E+03</rscale>
<asrwt>0</asrwt>
<pdfrwt beam="1">  1       21 0.59563843E-01 0.45871423E+03</pdfrwt>
<pdfrwt beam="2">  1       21 0.19099583E-01 0.45871423E+03</pdfrwt>
<totfact> 0.61058004E+04</totfact>
</mgrwt>
</event>
<event>
 7    0  0.4766352E-002  0.4520209E+03  0.7546771E-02  0.1027121E+00
         21   -1    0    0  502  501  0.00000000000E+00  0.00000000000E+00  0.49984651984E+02  0.49984651984E+02  0.00000000000E+00 0. -1.
         21   -1    0    0  501  502 -0.00000000000E+00 -0.00000000000E+00 -0.10219280267E+04  0.10219280267E+04  0.00000000000E+00 0. -1.
      99926    2    1    2    0    0  0.00000000000E+00  0.00000000000E+00 -0.97194337471E+03  0.10719126787E+04  0.45202087017E+03 0.  0.
      99925    2    3    3    0    0 -0.18411777683E+02 -0.86815336796E+02 -0.76885019696E+03  0.81741269202E+03  0.26297716146E+03 0.  0.
         25    1    4    4    0    0 -0.51814385298E+01 -0.40781283405E+02 -0.49994245677E+03  0.51699122677E+03  0.12509000000E+03 0.  0.
         25    1    4    4    0    0 -0.13230339153E+02 -0.46034053391E+02 -0.26890774019E+03  0.30042146525E+03  0.12509000000E+03 0.  0.
         25    1    3    3    0    0  0.18411777683E+02  0.86815336796E+02 -0.20309317775E+03  0.25449998666E+03  0.12509000000E+03 0.  0.
<mgrwt>
<rscale>  2 0.45202087E+03</rscale>
<asrwt>0</asrwt>
<pdfrwt beam="1">  1       21 0.73506851E-02 0.45202087E+03</pdfrwt>
<pdfrwt beam="2">  1       21 0.15028351E+00 0.45202087E+03</pdfrwt>
<totfact> 0.37344118E+04</totfact>
</mgrwt>
</event>
<event>
 7    0  0.4766352E-002  0.4604832E+03  0.7546771E-02  0.1024641E+00
         21   -1    0    0  502  501  0.00000000000E+00  0.00000000000E+00  0.18275946644E+03  0.18275946644E+03  0.00000000000E+00 0. -1.
         21   -1    0    0  501  502 -0.00000000000E+00 -0.00000000000E+00 -0.29005987950E+03  0.29005987950E+03  0.00000000000E+00 0. -1.
      99926    2    1    2    0    0  0.00000000000E+00  0.00000000000E+00 -0.10730041306E+03  0.47281934594E+03  0.46048317587E+03 0.  0.
      99925    2    3    3    0    0 -0.10019056750E+03  0.24449887418E+02 -0.99871982327E+01  0.28373387138E+03  0.26413863563E+03 0.  0.
         25    1    4    4    0    0 -0.30590055556E+02  0.79217457456E+01 -0.42821539978E+02  0.13594005275E+03  0.12509000000E+03 0.  0.
         25    1    4    4    0    0 -0.69600511939E+02  0.16528141673E+02  0.32834341746E+02  0.14779381864E+03  0.12509000000E+03 0.  0.
         25    1    3    3    0    0  0.10019056750E+03 -0.24449887418E+02 -0.97313214829E+02  0.18908547456E+03  0.12509000000E+03 0.  0.
<mgrwt>
<rscale>  2 0.46048318E+03</rscale>
<asrwt>0</asrwt>
<pdfrwt beam="1">  1       21 0.26876392E-01 0.46048318E+03</pdfrwt>
<pdfrwt beam="2">  1       21 0.42655864E-01 0.46048318E+03</pdfrwt>
<totfact> 0.64380507E+04</totfact>
</mgrwt>
</event>
<event>
 7    0  0.4766352E-002  0.5635125E+03  0.7546771E-02  0.9984138E-01
         21   -1    0    0  502  501  0.00000000000E+00  0.00000000000E+00  0.44754766423E+02  0.44754766423E+02  0.00000000000E+00 0.  1.
         21   -1    0    0  501  502 -0.00000000000E+00 -0.00000000000E+00 -0.17738127841E+04  0.17738127841E+04  0.00000000000E+00 0.  1.
      99926    2    1    2    0    0  0.00000000000E+00  0.00000000000E+00 -0.17290580176E+04  0.18185675505E+04  0.56351247308E+03 0.  0.
      99925    2    3    3    0    0  0.14871313240E+02  0.12098804930E+03 -0.50646436852E+03  0.58356066671E+03  0.26301640844E+03 0.  0.
         25    1    4    4    0    0  0.14510179401E+02  0.74997227173E+02 -0.34050291966E+03  0.37070861304E+03  0.12509000000E+03 0.  0.
         25    1    3    3    0    0 -0.14871313240E+02 -0.12098804930E+03 -0.12225936491E+04  0.12350068838E+04  0.12509000000E+03 0.  0.
         25    1    4    4    0    0  0.36113383914E+00  0.45990822126E+02 -0.16596144887E+03  0.21285205366E+03  0.12509000000E+03 0.  0.
<mgrwt>
<rscale>  2 0.56351247E+03</rscale>
<asrwt>0</asrwt>
<pdfrwt beam="1">  1       21 0.65815830E-02 0.56351247E+03</pdfrwt>
<pdfrwt beam="2">  1       21 0.26085483E+00 0.56351247E+03</pdfrwt>
<totfact> 0.78834542E+03</totfact>
</mgrwt>
</event>
<event>
 7    0  0.4766352E-002  0.4534638E+03  0.7546771E-02  0.1026694E+00
         21   -1    0    0  502  501  0.00000000000E+00  0.00000000000E+00  0.16717282281E+03  0.16717282281E+03  0.00000000000E+00 0. -1.
         21   -1    0    0  501  502 -0.00000000000E+00 -0.00000000000E+00 -0.30751029267E+03  0.30751029267E+03  0.00000000000E+00 0. -1.
      99926    2    1    2    0    0  0.00000000000E+00  0.00000000000E+00 -0.14033746985E+03  0.47468311548E+03  0.45346384054E+03 0.  0.
      99925    2    3    3    0    0  0.10425093590E+03  0.38836564270E+02 -0.79885511668E+02  0.29669861136E+03  0.26319543052E+03 0.  0.
         25    1    3    3    0    0 -0.10425093590E+03 -0.38836564270E+02 -0.60451958185E+02  0.17798450413E+03  0.12509000000E+03 0.  0.
         25    1    4    4    0    0  0.30169318571E+02  0.49736637298E+02 -0.21347330156E+02  0.13959633762E+03  0.12509000000E+03 0.  0.
         25    1    4    4    0    0  0.74081617328E+02 -0.10900073029E+02 -0.58538181512E+02  0.15710227373E+03  0.12509000000E+03 0.  0.
<mgrwt>
<rscale>  2 0.45346384E+03</rscale>
<asrwt>0</asrwt>
<pdfrwt beam="1">  1       21 0.24584239E-01 0.45346384E+03</pdfrwt>
<pdfrwt beam="2">  1       21 0.45222101E-01 0.45346384E+03</pdfrwt>
<totfact> 0.67913381E+04</totfact>
</mgrwt>
</event>
<event>
 7    0  0.4766352E-002  0.4637659E+03  0.7546771E-02  0.1023695E+00
         21   -1    0    0  502  501  0.00000000000E+00  0.00000000000E+00  0.83463353967E+02  0.83463353967E+02  0.00000000000E+00 0.  1.
         21   -1    0    0  501  502 -0.00000000000E+00 -0.00000000000E+00 -0.64423138584E+03  0.64423138584E+03  0.00000000000E+00 0.  1.
      99926    2    1    2    0    0  0.00000000000E+00  0.35527136788E-14 -0.56076803188E+03  0.72769473981E+03  0.46376594180E+03 0.  0.
      99925    2    3    3    0    0 -0.11300573970E+03  0.25364339785E+02 -0.29411036045E+03  0.41120229319E+03  0.26300717645E+03 0.  0.
         25    1    4    4    0    0 -0.50848237566E+02 -0.27399561027E+02 -0.15024896599E+03  0.20385911579E+03  0.12509000000E+03 0.  0.
         25    1    4    4    0    0 -0.62157502131E+02  0.52763900811E+02 -0.14386139446E+03  0.20734317740E+03  0.12509000000E+03 0.  0.
         25    1    3    3    0    0  0.11300573970E+03 -0.25364339785E+02 -0.26665767143E+03  0.31649244662E+03  0.12509000000E+03 0.  0.
<mgrwt>
<rscale>  2 0.46376594E+03</rscale>
<asrwt>0</asrwt>
<pdfrwt beam="1">  1       21 0.12274023E-01 0.46376594E+03</pdfrwt>
<pdfrwt beam="2">  1       21 0.94739908E-01 0.46376594E+03</pdfrwt>
<totfact> 0.48027522E+04</totfact>
</mgrwt>
</event>
<event>
 7    0  0.4766352E-002  0.4516164E+03  0.7546771E-02  0.1027241E+00
         21   -1    0    0  502  501  0.00000000000E+00  0.00000000000E+00  0.16380648906E+03  0.16380648906E+03  0.00000000000E+00 0. -1.
         21   -1    0    0  501  502 -0.00000000000E+00 -0.00000000000E+00 -0.31127790917E+03  0.31127790917E+03  0.00000000000E+00 0. -1.
      99926    2    1    2    0    0  0.00000000000E+00  0.00000000000E+00 -0.14747142011E+03  0.47508439823E+03  0.45161639219E+03 0.  0.
      99925    2    3    3    0    0 -0.12546727374E+02 -0.45582064478E+02  0.11427718966E+02  0.26740293669E+03  0.26294218532E+03 0.  0.
         25    1    4    4    0    0  0.57183717578E+00 -0.53759648546E+02 -0.19706918810E+02  0.13757288090E+03  0.12509000000E+03 0.  0.
         25    1    4    4    0    0 -0.13118564549E+02  0.81775840686E+01  0.31134637776E+02  0.12983005579E+03  0.12509000000E+03 0.  0.
         25    1    3    3    0    0  0.12546727374E+02  0.45582064478E+02 -0.15889913908E+03  0.20768146154E+03  0.12509000000E+03 0.  0.
<mgrwt>
<rscale>  2 0.45161639E+03</rscale>
<asrwt>0</asrwt>
<pdfrwt beam="1">  1       21 0.24089190E-01 0.45161639E+03</pdfrwt>
<pdfrwt beam="2">  1       21 0.45776163E-01 0.45161639E+03</pdfrwt>
<totfact> 0.68891211E+04</totfact>
</mgrwt>
</event>
<event>
 7    0  0.4766352E-002  0.4729379E+03  0.7546771E-02  0.1021094E+00
         21   -1    0    0  502  501  0.00000000000E+00  0.00000000000E+00  0.69019705077E+02  0.69019705077E+02  0.00000000000E+00 0. -1.
         21   -1    0    0  501  502 -0.00000000000E+00 -0.00000000000E+00 -0.81016809121E+03  0.81016809121E+03  0.00000000000E+00 0. -1.
      99926    2    1    2    0    0 -0.17763568394E-14 -0.71054273576E-14 -0.74114838613E+03  0.87918779628E+03  0.47293789325E+03 0.  0.
      99925    2    3    3    0    0  0.13786206059E+02  0.32316799078E+02 -0.69051371298E+03  0.73973955067E+03  0.26300376429E+03 0.  0.
         25    1    3    3    0    0 -0.13786206059E+02 -0.32316799078E+02 -0.50634673151E+02  0.13944824562E+03  0.12509000000E+03 0.  0.
         25    1    4    4    0    0  0.24619020685E+02  0.52071563254E+02 -0.38224633749E+03  0.40629707666E+03  0.12509000000E+03 0.  0.
         25    1    4    4    0    0 -0.10832814625E+02 -0.19754764176E+02 -0.30826737549E+03  0.33344247401E+03  0.12509000000E+03 0.  0.
<mgrwt>
<rscale>  2 0.47293789E+03</rscale>
<asrwt>0</asrwt>
<pdfrwt beam="1">  1       21 0.10149957E-01 0.47293789E+03</pdfrwt>
<pdfrwt beam="2">  1       21 0.11914236E+00 0.47293789E+03</pdfrwt>
<totfact> 0.38452140E+04</totfact>
</mgrwt>
</event>
<event>
 7    0  0.4766352E-002  0.4522563E+03  0.7546771E-02  0.1027051E+00
         21   -1    0    0  502  501  0.00000000000E+00  0.00000000000E+00  0.45963325476E+02  0.45963325476E+02  0.00000000000E+00 0. -1.
         21   -1    0    0  501  502 -0.00000000000E+00 -0.00000000000E+00 -0.11124945208E+04  0.11124945208E+04  0.00000000000E+00 0. -1.
      99926    2    1    2    0    0  0.00000000000E+00  0.00000000000E+00 -0.10665311954E+04  0.11584578463E+04  0.45225633330E+03 0.  0.
      99925    2    3    3    0    0 -0.72479927713E+02  0.18113091900E+02 -0.88157491590E+03  0.92300560608E+03  0.26302774091E+03 0.  0.
         25    1    4    4    0    0 -0.36504762698E+02 -0.28555087117E+02 -0.48522658641E+03  0.50322990666E+03  0.12509000000E+03 0.  0.
         25    1    3    3    0    0  0.72479927713E+02 -0.18113091900E+02 -0.18495627946E+03  0.23545224023E+03  0.12509000000E+03 0.  0.
         25    1    4    4    0    0 -0.35975165015E+02  0.46668179017E+02 -0.39634832949E+03  0.41977569942E+03  0.12509000000E+03 0.  0.
<mgrwt>
<rscale>  2 0.45225633E+03</rscale>
<asrwt>0</asrwt>
<pdfrwt beam="1">  1       21 0.67593128E-02 0.45225633E+03</pdfrwt>
<pdfrwt beam="2">  1       21 0.16360213E+00 0.45225633E+03</pdfrwt>
<totfact> 0.34227220E+04</totfact>
</mgrwt>
</event>
<event>
 7    0  0.4766352E-002  0.4565858E+03  0.7546771E-02  0.1025776E+00
         21   -1    0    0  502  501  0.00000000000E+00  0.00000000000E+00  0.71155034690E+02  0.71155034690E+02  0.00000000000E+00 0.  1.
         21   -1    0    0  501  502 -0.00000000000E+00 -0.00000000000E+00 -0.73245210137E+03  0.73245210137E+03  0.00000000000E+00 0.  1.
      99926    2    1    2    0    0  0.00000000000E+00 -0.14210854715E-13 -0.66129706668E+03  0.80360713606E+03  0.45658582844E+03 0.  0.
      99925    2    3    3    0    0  0.71756509888E+02 -0.76570251211E+02 -0.33316033058E+03  0.43709216261E+03  0.26275797355E+03 0.  0.
         25    1    4    4    0    0  0.11021202555E+02 -0.30657135317E+01 -0.14434146737E+03  0.19134480084E+03  0.12509000000E+03 0.  0.
         25    1    4    4    0    0  0.60735307334E+02 -0.73504537679E+02 -0.18881886321E+03  0.24574736178E+03  0.12509000000E+03 0.  0.
         25    1    3    3    0    0 -0.71756509888E+02  0.76570251211E+02 -0.32813673610E+03  0.36651497345E+03  0.12509000000E+03 0.  0.
<mgrwt>
<rscale>  2 0.45658583E+03</rscale>
<asrwt>0</asrwt>
<pdfrwt beam="1">  1       21 0.10463976E-01 0.45658583E+03</pdfrwt>
<pdfrwt beam="2">  1       21 0.10771355E+00 0.45658583E+03</pdfrwt>
<totfact> 0.47003142E+04</totfact>
</mgrwt>
</event>
<event>
 7    0  0.4766352E-002  0.4537480E+03  0.7546771E-02  0.1026610E+00
         21   -1    0    0  502  501  0.00000000000E+00  0.00000000000E+00  0.21845253714E+03  0.21845253714E+03  0.00000000000E+00 0. -1.
         21   -1    0    0  501  502 -0.00000000000E+00 -0.00000000000E+00 -0.23562013463E+03  0.23562013463E+03  0.00000000000E+00 0. -1.
      99926    2    1    2    0    0  0.00000000000E+00  0.00000000000E+00 -0.17167597496E+02  0.45407267177E+03  0.45374801911E+03 0.  0.
      99925    2    3    3    0    0 -0.67365744545E+02 -0.84453300605E+02 -0.40731160535E+02  0.28711982476E+03  0.26288450470E+03 0.  0.
         25    1    4    4    0    0 -0.51606271065E+02 -0.30175625435E+02 -0.54920238727E+02  0.14912248759E+03  0.12509000000E+03 0.  0.
         25    1    3    3    0    0  0.67365744545E+02  0.84453300605E+02  0.23563563039E+02  0.16695284701E+03  0.12509000000E+03 0.  0.
         25    1    4    4    0    0 -0.15759473480E+02 -0.54277675169E+02  0.14189078192E+02  0.13799733717E+03  0.12509000000E+03 0.  0.
<mgrwt>
<rscale>  2 0.45374802E+03</rscale>
<asrwt>0</asrwt>
<pdfrwt beam="1">  1       21 0.32125373E-01 0.45374802E+03</pdfrwt>
<pdfrwt beam="2">  1       21 0.34650020E-01 0.45374802E+03</pdfrwt>
<totfact> 0.69303518E+04</totfact>
</mgrwt>
</event>
<event>
 7    0  0.4766352E-002  0.4530984E+03  0.7546771E-02  0.1026802E+00
         21   -1    0    0  502  501  0.00000000000E+00  0.00000000000E+00  0.28721671967E+03  0.28721671967E+03  0.00000000000E+00 0.  1.
         21   -1    0    0  501  502 -0.00000000000E+00 -0.00000000000E+00 -0.17869623736E+03  0.17869623736E+03  0.00000000000E+00 0.  1.
      99926    2    1    2    0    0  0.00000000000E+00 -0.35527136788E-14  0.10852048230E+03  0.46591295703E+03  0.45309843131E+03 0.  0.
      99925    2    3    3    0    0 -0.10245377660E+03  0.13441797268E+02  0.25942312100E+02  0.28385768919E+03  0.26310592145E+03 0.  0.
         25    1    4    4    0    0 -0.49897316639E+02  0.39724659045E+02  0.37021567523E+02  0.14520983199E+03  0.12509000000E+03 0.  0.
         25    1    4    4    0    0 -0.52556459963E+02 -0.26282861778E+02 -0.11079255423E+02  0.13864785721E+03  0.12509000000E+03 0.  0.
         25    1    3    3    0    0  0.10245377660E+03 -0.13441797268E+02  0.82578170204E+02  0.18205526784E+03  0.12509000000E+03 0.  0.
<mgrwt>
<rscale>  2 0.45309843E+03</rscale>
<asrwt>0</asrwt>
<pdfrwt beam="1">  1       21 0.42237753E-01 0.45309843E+03</pdfrwt>
<pdfrwt beam="2">  1       21 0.26278858E-01 0.45309843E+03</pdfrwt>
<totfact> 0.68772579E+04</totfact>
</mgrwt>
</event>
<event>
 7    0  0.4766352E-002  0.4582479E+03  0.7546771E-02  0.1025291E+00
         21   -1    0    0  502  501  0.00000000000E+00  0.00000000000E+00  0.38473925635E+03  0.38473925635E+03  0.00000000000E+00 0. -1.
         21   -1    0    0  501  502 -0.00000000000E+00 -0.00000000000E+00 -0.13645029921E+03  0.13645029921E+03  0.00000000000E+00 0. -1.
      99926    2    1    2    0    0  0.14210854715E-13  0.00000000000E+00  0.24828895714E+03  0.52118955557E+03  0.45824790954E+03 0.  0.
      99925    2    3    3    0    0 -0.71365344055E+02 -0.59233694151E+02  0.75963979599E+02  0.28892882096E+03  0.26288342384E+03 0.  0.
         25    1    4    4    0    0 -0.19975185334E+02 -0.61372796548E+02  0.18475849333E+02  0.14196652174E+03  0.12509000000E+03 0.  0.
         25    1    3    3    0    0  0.71365344055E+02  0.59233694151E+02  0.17232497754E+03  0.23226073461E+03  0.12509000000E+03 0.  0.
         25    1    4    4    0    0 -0.51390158721E+02  0.21391023969E+01  0.57488130266E+02  0.14696229923E+03  0.12509000000E+03 0.  0.
<mgrwt>
<rscale>  2 0.45824791E+03</rscale>
<asrwt>0</asrwt>
<pdfrwt beam="1">  1       21 0.56579302E-01 0.45824791E+03</pdfrwt>
<pdfrwt beam="2">  1       21 0.20066220E-01 0.45824791E+03</pdfrwt>
<totfact> 0.62188254E+04</totfact>
</mgrwt>
</event>
<event>
 7    0  0.4766352E-002  0.4527148E+03  0.7546771E-02  0.1026916E+00
         21   -1    0    0  502  501  0.00000000000E+00  0.00000000000E+00  0.13563224254E+03  0.13563224254E+03  0.00000000000E+00 0. -1.
         21   -1    0    0  501  502 -0.00000000000E+00 -0.00000000000E+00 -0.37776906412E+03  0.37776906412E+03  0.00000000000E+00 0. -1.
      99926    2    1    2    0    0  0.00000000000E+00  0.00000000000E+00 -0.24213682157E+03  0.51340130666E+03  0.45271476817E+03 0.  0.
      99925    2    3    3    0    0  0.27762249037E+02 -0.74594125623E+02 -0.24053283174E+03  0.36512754994E+03  0.26292025128E+03 0.  0.
         25    1    3    3    0    0 -0.27762249037E+02  0.74594125623E+02 -0.16039898389E+01  0.14827375672E+03  0.12509000000E+03 0.  0.
         25    1    4    4    0    0  0.24996807853E+02 -0.17221853547E+02 -0.16108656118E+03  0.20619849887E+03  0.12509000000E+03 0.  0.
         25    1    4    4    0    0  0.27654411839E+01 -0.57372272076E+02 -0.79446270551E+02  0.15892905107E+03  0.12509000000E+03 0.  0.
<mgrwt>
<rscale>  2 0.45271477E+03</rscale>
<asrwt>0</asrwt>
<pdfrwt beam="1">  1       21 0.19945918E-01 0.45271477E+03</pdfrwt>
<pdfrwt beam="2">  1       21 0.55554274E-01 0.45271477E+03</pdfrwt>
<totfact> 0.65519133E+04</totfact>
</mgrwt>
</event>
<event>
 7    0  0.4766352E-002  0.4336926E+03  0.7546771E-02  0.1032700E+00
         21   -1    0    0  502  501  0.00000000000E+00  0.00000000000E+00  0.17519262488E+03  0.17519262488E+03  0.00000000000E+00 0.  1.
         21   -1    0    0  501  502 -0.00000000000E+00 -0.00000000000E+00 -0.26840353202E+03  0.26840353202E+03  0.00000000000E+00 0.  1.
      99926    2    1    2    0    0  0.17763568394E-14  0.00000000000E+00 -0.93210907134E+02  0.44359615690E+03  0.43369260682E+03 0.  0.
      99925    2    3    3    0    0  0.79224799817E+01  0.69000842282E+01  0.33449590255E+02  0.26526846261E+03  0.26294125830E+03 0.  0.
         25    1    4    4    0    0  0.36990708671E+02  0.25795881830E+02  0.23998774919E+02  0.13511916720E+03  0.12509000000E+03 0.  0.
         25    1    4    4    0    0 -0.29068228689E+02 -0.18895797602E+02  0.94508153367E+01  0.13014929541E+03  0.12509000000E+03 0.  0.
         25    1    3    3    0    0 -0.79224799817E+01 -0.69000842282E+01 -0.12666049739E+03  0.17832769429E+03  0.12509000000E+03 0.  0.
<mgrwt>
<rscale>  2 0.43369261E+03</rscale>
<asrwt>0</asrwt>
<pdfrwt beam="1">  1       21 0.25763622E-01 0.43369261E+03</pdfrwt>
<pdfrwt beam="2">  1       21 0.39471107E-01 0.43369261E+03</pdfrwt>
<totfact> 0.82543305E+04</totfact>
</mgrwt>
</event>
<event>
 7    0  0.4766352E-002  0.4581249E+03  0.7546771E-02  0.1025326E+00
         21   -1    0    0  502  501  0.00000000000E+00  0.00000000000E+00  0.16846336439E+04  0.16846336439E+04  0.00000000000E+00 0.  1.
         21   -1    0    0  501  502 -0.00000000000E+00 -0.00000000000E+00 -0.31146006455E+02  0.31146006455E+02  0.00000000000E+00 0.  1.
      99926    2    1    2    0    0  0.35527136788E-14  0.00000000000E+00  0.16534876375E+04  0.17157796504E+04  0.45812491898E+03 0.  0.
      99925    2    3    3    0    0 -0.24288790019E+02 -0.10553006862E+03  0.87632231134E+03  0.92119800388E+03  0.26256128487E+03 0.  0.
         25    1    3    3    0    0  0.24288790019E+02  0.10553006862E+03  0.77716532614E+03  0.79458164650E+03  0.12509000000E+03 0.  0.
         25    1    4    4    0    0 -0.23216706828E+01 -0.12392088566E+02  0.42354512960E+03  0.44181097646E+03  0.12509000000E+03 0.  0.
         25    1    4    4    0    0 -0.21967119336E+02 -0.93137980052E+02  0.45277718174E+03  0.47938702742E+03  0.12509000000E+03 0.  0.
<mgrwt>
<rscale>  2 0.45812492E+03</rscale>
<asrwt>0</asrwt>
<pdfrwt beam="1">  1       21 0.24774018E+00 0.45812492E+03</pdfrwt>
<pdfrwt beam="2">  1       21 0.45802962E-02 0.45812492E+03</pdfrwt>
<totfact> 0.18482784E+04</totfact>
</mgrwt>
</event>
<event>
 7    0  0.4766352E-002  0.4658574E+03  0.7546771E-02  0.1023096E+00
         21   -1    0    0  502  501  0.00000000000E+00  0.00000000000E+00  0.35281469521E+03  0.35281469521E+03  0.00000000000E+00 0. -1.
         21   -1    0    0  501  502 -0.00000000000E+00 -0.00000000000E+00 -0.15377979988E+03  0.15377979988E+03  0.00000000000E+00 0. -1.
      99926    2    1    2    0    0 -0.17763568394E-14  0.00000000000E+00  0.19903489532E+03  0.50659449509E+03  0.46585737399E+03 0.  0.
      99925    2    3    3    0    0 -0.57434368211E+01  0.12258316121E+03  0.11653224256E+03  0.31290966271E+03  0.26319778681E+03 0.  0.
         25    1    4    4    0    0  0.25709234613E+02  0.42723851413E+02  0.80838192631E+02  0.15706245163E+03  0.12509000000E+03 0.  0.
         25    1    3    3    0    0  0.57434368211E+01 -0.12258316121E+03  0.82502652766E+02  0.19368483238E+03  0.12509000000E+03 0.  0.
         25    1    4    4    0    0 -0.31452671434E+02  0.79859309802E+02  0.35694049924E+02  0.15584721108E+03  0.12509000000E+03 0.  0.
<mgrwt>
<rscale>  2 0.46585737E+03</rscale>
<asrwt>0</asrwt>
<pdfrwt beam="1">  1       21 0.51884514E-01 0.46585737E+03</pdfrwt>
<pdfrwt beam="2">  1       21 0.22614676E-01 0.46585737E+03</pdfrwt>
<totfact> 0.59512902E+04</totfact>
</mgrwt>
</event>
<event>
 7    0  0.4766352E-002  0.4495678E+03  0.7546771E-02  0.1027851E+00
         21   -1    0    0  502  501  0.00000000000E+00  0.00000000000E+00  0.77452916347E+03  0.77452916347E+03  0.00000000000E+00 0.  1.
         21   -1    0    0  501  502 -0.00000000000E+00 -0.00000000000E+00 -0.65236798165E+02  0.65236798165E+02  0.00000000000E+00 0.  1.
      99926    2    1    2    0    0 -0.35527136788E-14  0.00000000000E+00  0.70929236531E+03  0.83976596164E+03  0.44956780450E+03 0.  0.
      99925    2    3    3    0    0  0.21833771499E+02  0.77137961488E+02  0.31442160771E+03  0.41786857840E+03  0.26329873288E+03 0.  0.
         25    1    4    4    0    0  0.43108578541E+02  0.42253711159E+02  0.12268889584E+03  0.18532080000E+03  0.12509000000E+03 0.  0.
         25    1    4    4    0    0 -0.21274807042E+02  0.34884250329E+02  0.19173271187E+03  0.23254777839E+03  0.12509000000E+03 0.  0.
         25    1    3    3    0    0 -0.21833771499E+02 -0.77137961488E+02  0.39487075759E+03  0.42189738324E+03  0.12509000000E+03 0.  0.
<mgrwt>
<rscale>  2 0.44956780E+03</rscale>
<asrwt>0</asrwt>
<pdfrwt beam="1">  1       21 0.11390134E+00 0.44956780E+03</pdfrwt>
<pdfrwt beam="2">  1       21 0.95936472E-02 0.44956780E+03</pdfrwt>
<totfact> 0.47910106E+04</totfact>
</mgrwt>
</event>
<event>
 7    0  0.4766352E-002  0.4533532E+03  0.7546771E-02  0.1026727E+00
         21   -1    0    0  502  501  0.00000000000E+00  0.00000000000E+00  0.50140483111E+02  0.50140483111E+02  0.00000000000E+00 0. -1.
         21   -1    0    0  501  502 -0.00000000000E+00 -0.00000000000E+00 -0.10247662996E+04  0.10247662996E+04  0.00000000000E+00 0. -1.
      99926    2    1    2    0    0 -0.14210854715E-13  0.00000000000E+00 -0.97462581648E+03  0.10749067827E+04  0.45335318390E+03 0.  0.
      99925    2    3    3    0    0  0.70046304308E+02 -0.74511277047E+02 -0.71995273909E+03  0.77330389877E+03  0.26307519488E+03 0.  0.
         25    1    3    3    0    0 -0.70046304308E+02  0.74511277047E+02 -0.25467307739E+03  0.30160288394E+03  0.12509000000E+03 0.  0.
         25    1    4    4    0    0  0.48497042987E+02 -0.25947999263E+02 -0.46138277840E+03  0.48119314018E+03  0.12509000000E+03 0.  0.
         25    1    4    4    0    0  0.21549261321E+02 -0.48563277785E+02 -0.25856996069E+03  0.29211075859E+03  0.12509000000E+03 0.  0.
<mgrwt>
<rscale>  2 0.45335318E+03</rscale>
<asrwt>0</asrwt>
<pdfrwt beam="1">  1       21 0.73736009E-02 0.45335318E+03</pdfrwt>
<pdfrwt beam="2">  1       21 0.15070092E+00 0.45335318E+03</pdfrwt>
<totfact> 0.36847791E+04</totfact>
</mgrwt>
</event>
<event>
 7    0  0.4766352E-002  0.4812852E+03  0.7546771E-02  0.1018783E+00
         21   -1    0    0  502  501  0.00000000000E+00  0.00000000000E+00  0.16388001468E+03  0.16388001468E+03  0.00000000000E+00 0. -1.
         21   -1    0    0  501  502 -0.00000000000E+00 -0.00000000000E+00 -0.35336128095E+03  0.35336128095E+03  0.00000000000E+00 0. -1.
      99926    2    1    2    0    0 -0.14210854715E-13 -0.13322676296E-14 -0.18948126627E+03  0.51724129563E+03  0.48128516250E+03 0.  0.
      99925    2    3    3    0    0 -0.89217082418E+02 -0.15807415224E+01 -0.22740314276E+03  0.35897644370E+03  0.26303937207E+03 0.  0.
         25    1    4    4    0    0 -0.16747579569E+02 -0.12174166218E+02 -0.14350466049E+03  0.19149357020E+03  0.12509000000E+03 0.  0.
         25    1    3    3    0    0  0.89217082418E+02  0.15807415224E+01  0.37921876495E+02  0.15826485193E+03  0.12509000000E+03 0.  0.
         25    1    4    4    0    0 -0.72469502849E+02  0.10593424696E+02 -0.83898482270E+02  0.16748287350E+03  0.12509000000E+03 0.  0.
<mgrwt>
<rscale>  2 0.48128516E+03</rscale>
<asrwt>0</asrwt>
<pdfrwt beam="1">  1       21 0.24100002E-01 0.48128516E+03</pdfrwt>
<pdfrwt beam="2">  1       21 0.51964895E-01 0.48128516E+03</pdfrwt>
<totfact> 0.52285344E+04</totfact>
</mgrwt>
</event>
<event>
 7    0  0.4766352E-002  0.4560291E+03  0.7546771E-02  0.1025939E+00
         21   -1    0    0  502  501  0.00000000000E+00  0.00000000000E+00  0.11885796058E+03  0.11885796058E+03  0.00000000000E+00 0.  1.
         21   -1    0    0  501  502 -0.00000000000E+00 -0.00000000000E+00 -0.43741814682E+03  0.43741814682E+03  0.00000000000E+00 0.  1.
      99926    2    1    2    0    0 -0.71054273576E-14  0.00000000000E+00 -0.31856018624E+03  0.55627610740E+03  0.45602907299E+03 0.  0.
      99925    2    3    3    0    0 -0.58086859456E+02  0.83446259777E+02 -0.26353741975E+03  0.38594591500E+03  0.26299223598E+03 0.  0.
         25    1    3    3    0    0  0.58086859456E+02 -0.83446259777E+02 -0.55022766483E+02  0.17033019240E+03  0.12509000000E+03 0.  0.
         25    1    4    4    0    0 -0.17951225388E+02  0.18843044603E+02 -0.78337584211E+02  0.14987191873E+03  0.12509000000E+03 0.  0.
         25    1    4    4    0    0 -0.40135634069E+02  0.64603215174E+02 -0.18519983554E+03  0.23607399628E+03  0.12509000000E+03 0.  0.
<mgrwt>
<rscale>  2 0.45602907E+03</rscale>
<asrwt>0</asrwt>
<pdfrwt beam="1">  1       21 0.17479112E-01 0.45602907E+03</pdfrwt>
<pdfrwt beam="2">  1       21 0.64326199E-01 0.45602907E+03</pdfrwt>
<totfact> 0.60955939E+04</totfact>
</mgrwt>
</event>
<event>
 7    0  0.4766352E-002  0.4690383E+03  0.7546771E-02  0.1022192E+00
         21   -1    0    0  502  501  0.00000000000E+00  0.00000000000E+00  0.79355887935E+02  0.79355887935E+02  0.00000000000E+00 0.  1.
         21   -1    0    0  501  502 -0.00000000000E+00 -0.00000000000E+00 -0.69307059480E+03  0.69307059480E+03  0.00000000000E+00 0.  1.
      99926    2    1    2    0    0  0.00000000000E+00  0.00000000000E+00 -0.61371470686E+03  0.77242648273E+03  0.46903830313E+03 0.  0.
      99925    2    3    3    0    0  0.84955585520E+02 -0.17552213401E+02 -0.53174152251E+03  0.59953159339E+03  0.26298964430E+03 0.  0.
         25    1    4    4    0    0  0.42291302279E+02 -0.17651076040E+02 -0.18120042023E+03  0.22490267923E+03  0.12509000000E+03 0.  0.
         25    1    3    3    0    0 -0.84955585520E+02  0.17552213401E+02 -0.81973184349E+02  0.17289488934E+03  0.12509000000E+03 0.  0.
         25    1    4    4    0    0  0.42664283241E+02  0.98862638950E-01 -0.35054110228E+03  0.37462891416E+03  0.12509000000E+03 0.  0.
<mgrwt>
<rscale>  2 0.46903830E+03</rscale>
<asrwt>0</asrwt>
<pdfrwt beam="1">  1       21 0.11669983E-01 0.46903830E+03</pdfrwt>
<pdfrwt beam="2">  1       21 0.10192215E+00 0.46903830E+03</pdfrwt>
<totfact> 0.44066937E+04</totfact>
</mgrwt>
</event>
<event>
 7    0  0.4766352E-002  0.4584411E+03  0.7546771E-02  0.1025234E+00
         21   -1    0    0  502  501  0.00000000000E+00  0.00000000000E+00  0.15678554412E+03  0.15678554412E+03  0.00000000000E+00 0. -1.
         21   -1    0    0  501  502 -0.00000000000E+00 -0.00000000000E+00 -0.33512049570E+03  0.33512049570E+03  0.00000000000E+00 0. -1.
      99926    2    1    2    0    0  0.14210854715E-13  0.00000000000E+00 -0.17833495159E+03  0.49190603982E+03  0.45844105080E+03 0.  0.
      99925    2    3    3    0    0  0.85070491976E+02 -0.74329177437E+02 -0.81995452383E+02  0.29776531140E+03  0.26301922219E+03 0.  0.
         25    1    3    3    0    0 -0.85070491976E+02  0.74329177437E+02 -0.96339499206E+02  0.19414072842E+03  0.12509000000E+03 0.  0.
         25    1    4    4    0    0  0.80327042764E+02 -0.27558265347E+02 -0.58324777725E+02  0.16205301474E+03  0.12509000000E+03 0.  0.
         25    1    4    4    0    0  0.47434492121E+01 -0.46770912090E+02 -0.23670674658E+02  0.13571229667E+03  0.12509000000E+03 0.  0.
<mgrwt>
<rscale>  2 0.45844105E+03</rscale>
<asrwt>0</asrwt>
<pdfrwt beam="1">  1       21 0.23056698E-01 0.45844105E+03</pdfrwt>
<pdfrwt beam="2">  1       21 0.49282425E-01 0.45844105E+03</pdfrwt>
<totfact> 0.64074785E+04</totfact>
</mgrwt>
</event>
<event>
 7    0  0.4766352E-002  0.4544572E+03  0.7546771E-02  0.1026401E+00
         21   -1    0    0  502  501  0.00000000000E+00  0.00000000000E+00  0.10693388636E+04  0.10693388636E+04  0.00000000000E+00 0.  1.
         21   -1    0    0  501  502 -0.00000000000E+00 -0.00000000000E+00 -0.48284821812E+02  0.48284821812E+02  0.00000000000E+00 0.  1.
      99926    2    1    2    0    0  0.00000000000E+00  0.00000000000E+00  0.10210540418E+04  0.11176236854E+04  0.45445719925E+03 0.  0.
      99925    2    3    3    0    0 -0.26820111361E+02 -0.60396860542E+02  0.86729650930E+03  0.90868353601E+03  0.26293617942E+03 0.  0.
         25    1    4    4    0    0 -0.30669443218E+01 -0.55281034117E+02  0.34653001338E+03  0.37255329438E+03  0.12509000000E+03 0.  0.
         25    1    3    3    0    0  0.26820111361E+02  0.60396860542E+02  0.15375753253E+03  0.20894014944E+03  0.12509000000E+03 0.  0.
         25    1    4    4    0    0 -0.23753167039E+02 -0.51158264246E+01  0.52076649591E+03  0.53613024163E+03  0.12509000000E+03 0.  0.
<mgrwt>
<rscale>  2 0.45445720E+03</rscale>
<asrwt>0</asrwt>
<pdfrwt beam="1">  1       21 0.15725570E+00 0.45445720E+03</pdfrwt>
<pdfrwt beam="2">  1       21 0.71007097E-02 0.45445720E+03</pdfrwt>
<totfact> 0.35029894E+04</totfact>
</mgrwt>
</event>
<event>
 7    0  0.4766352E-002  0.4490437E+03  0.7546771E-02  0.1028008E+00
         21   -1    0    0  502  501  0.00000000000E+00  0.00000000000E+00  0.99060185126E+03  0.99060185126E+03  0.00000000000E+00 0.  1.
         21   -1    0    0  501  502 -0.00000000000E+00 -0.00000000000E+00 -0.50888308782E+02  0.50888308782E+02  0.00000000000E+00 0.  1.
      99926    2    1    2    0    0 -0.35527136788E-14  0.00000000000E+00  0.93971354248E+03  0.10414901600E+04  0.44904366330E+03 0.  0.
      99925    2    3    3    0    0  0.26800235485E+02  0.48860956994E+02  0.38344285995E+03  0.46861126701E+03  0.26355729355E+03 0.  0.
         25    1    4    4    0    0 -0.67268217778E+01  0.42489572371E+02  0.13884113521E+03  0.19176804431E+03  0.12509000000E+03 0.  0.
         25    1    4    4    0    0  0.33527057263E+02  0.63713846228E+01  0.24460172474E+03  0.27684322270E+03  0.12509000000E+03 0.  0.
         25    1    3    3    0    0 -0.26800235485E+02 -0.48860956994E+02  0.55627068253E+03  0.57287889304E+03  0.12509000000E+03 0.  0.
<mgrwt>
<rscale>  2 0.44904366E+03</rscale>
<asrwt>0</asrwt>
<pdfrwt beam="1">  1       21 0.14567673E+00 0.44904366E+03</pdfrwt>
<pdfrwt beam="2">  1       21 0.74835754E-02 0.44904366E+03</pdfrwt>
<totfact> 0.39391050E+04</totfact>
</mgrwt>
</event>
<event>
 7    0  0.4766352E-002  0.4529307E+03  0.7546771E-02  0.1026852E+00
         21   -1    0    0  502  501  0.00000000000E+00  0.00000000000E+00  0.10293878841E+03  0.10293878841E+03  0.00000000000E+00 0.  1.
         21   -1    0    0  501  502 -0.00000000000E+00 -0.00000000000E+00 -0.49822389422E+03  0.49822389422E+03  0.00000000000E+00 0.  1.
      99926    2    1    2    0    0  0.00000000000E+00 -0.17763568394E-14 -0.39528510581E+03  0.60116268263E+03  0.45293074096E+03 0.  0.
      99925    2    3    3    0    0 -0.50466292111E+02  0.12041709194E+02 -0.11857214835E+03  0.29308896040E+03  0.26296375215E+03 0.  0.
         25    1    3    3    0    0  0.50466292111E+02 -0.12041709194E+02 -0.27671295746E+03  0.30807372223E+03  0.12509000000E+03 0.  0.
         25    1    4    4    0    0 -0.98062834399E+01 -0.18874339511E+02 -0.88403736142E+02  0.15464518276E+03  0.12509000000E+03 0.  0.
         25    1    4    4    0    0 -0.40660008671E+02  0.30916048705E+02 -0.30168412211E+02  0.13844377764E+03  0.12509000000E+03 0.  0.
<mgrwt>
<rscale>  2 0.45293074E+03</rscale>
<asrwt>0</asrwt>
<pdfrwt beam="1">  1       21 0.15138057E-01 0.45293074E+03</pdfrwt>
<pdfrwt beam="2">  1       21 0.73268220E-01 0.45293074E+03</pdfrwt>
<totfact> 0.59574790E+04</totfact>
</mgrwt>
</event>
<event>
 7    0  0.4766352E-002  0.4755869E+03  0.7546771E-02  0.1020355E+00
         21   -1    0    0  502  501  0.00000000000E+00  0.00000000000E+00  0.10700806817E+03  0.10700806817E+03  0.00000000000E+00 0. -1.
         21   -1    0    0  501  502 -0.00000000000E+00 -0.00000000000E+00 -0.52842489123E+03  0.52842489123E+03  0.00000000000E+00 0. -1.
      99926    2    1    2    0    0  0.00000000000E+00  0.00000000000E+00 -0.42141682306E+03  0.63543295940E+03  0.47558690808E+03 0.  0.
      99925    2    3    3    0    0 -0.12257480160E+03  0.31688744942E+02 -0.30818056414E+03  0.42448576938E+03  0.26302880023E+03 0.  0.
         25    1    4    4    0    0 -0.36952693871E+02  0.11529510891E+02 -0.19216239449E+03  0.23253456767E+03  0.12509000000E+03 0.  0.
         25    1    4    4    0    0 -0.85622107727E+02  0.20159234051E+02 -0.11601816965E+03  0.19195120171E+03  0.12509000000E+03 0.  0.
         25    1    3    3    0    0  0.12257480160E+03 -0.31688744942E+02 -0.11323625892E+03  0.21094719002E+03  0.12509000000E+03 0.  0.
<mgrwt>
<rscale>  2 0.47558691E+03</rscale>
<asrwt>0</asrwt>
<pdfrwt beam="1">  1       21 0.15736481E-01 0.47558691E+03</pdfrwt>
<pdfrwt beam="2">  1       21 0.77709542E-01 0.47558691E+03</pdfrwt>
<totfact> 0.48221150E+04</totfact>
</mgrwt>
</event>
<event>
 7    0  0.4766352E-002  0.4556627E+03  0.7546771E-02  0.1026047E+00
         21   -1    0    0  502  501  0.00000000000E+00  0.00000000000E+00  0.49807297011E+02  0.49807297011E+02  0.00000000000E+00 0.  1.
         21   -1    0    0  501  502 -0.00000000000E+00 -0.00000000000E+00 -0.10421591842E+04  0.10421591842E+04  0.00000000000E+00 0.  1.
      99926    2    1    2    0    0  0.71054273576E-14  0.00000000000E+00 -0.99235188717E+03  0.10919664812E+04  0.45566273501E+03 0.  0.
      99925    2    3    3    0    0  0.62731557123E+02  0.71681032347E+01 -0.85105221701E+03  0.89296965999E+03  0.26290360898E+03 0.  0.
         25    1    4    4    0    0 -0.10070854332E+02  0.17675972603E+01 -0.38763409843E+03  0.40744600731E+03  0.12509000000E+03 0.  0.
         25    1    4    4    0    0  0.72802411455E+02  0.54005059745E+01 -0.46341811859E+03  0.48552365268E+03  0.12509000000E+03 0.  0.
         25    1    3    3    0    0 -0.62731557123E+02 -0.71681032347E+01 -0.14129967016E+03  0.19899682120E+03  0.12509000000E+03 0.  0.
<mgrwt>
<rscale>  2 0.45566274E+03</rscale>
<asrwt>0</asrwt>
<pdfrwt beam="1">  1       21 0.73246027E-02 0.45566274E+03</pdfrwt>
<pdfrwt beam="2">  1       21 0.15325870E+00 0.45566274E+03</pdfrwt>
<totfact> 0.35589703E+04</totfact>
</mgrwt>
</event>
<event>
 7    0  0.4766352E-002  0.4533414E+03  0.7546771E-02  0.1026730E+00
         21   -1    0    0  502  501  0.00000000000E+00  0.00000000000E+00  0.55795198806E+03  0.55795198806E+03  0.00000000000E+00 0. -1.
         21   -1    0    0  501  502 -0.00000000000E+00 -0.00000000000E+00 -0.92086089755E+02  0.92086089755E+02  0.00000000000E+00 0. -1.
      99926    2    1    2    0    0  0.00000000000E+00  0.00000000000E+00  0.46586589830E+03  0.65003807781E+03  0.45334144682E+03 0.  0.
      99925    2    3    3    0    0 -0.84212564313E+02 -0.71171698060E+02  0.26909572643E+03  0.39211720772E+03  0.26303275083E+03 0.  0.
         25    1    4    4    0    0 -0.49111268816E+02  0.32020537546E+01  0.14439525574E+03  0.19728068292E+03  0.12509000000E+03 0.  0.
         25    1    4    4    0    0 -0.35101295497E+02 -0.74373751814E+02  0.12470047069E+03  0.19483652480E+03  0.12509000000E+03 0.  0.
         25    1    3    3    0    0  0.84212564313E+02  0.71171698060E+02  0.19677017187E+03  0.25792087009E+03  0.12509000000E+03 0.  0.
<mgrwt>
<rscale>  2 0.45334145E+03</rscale>
<asrwt>0</asrwt>
<pdfrwt beam="1">  1       21 0.82051762E-01 0.45334145E+03</pdfrwt>
<pdfrwt beam="2">  1       21 0.13542072E-01 0.45334145E+03</pdfrwt>
<totfact> 0.56434067E+04</totfact>
</mgrwt>
</event>
<event>
 7    0  0.4766352E-002  0.4554477E+03  0.7546771E-02  0.1026110E+00
         21   -1    0    0  502  501  0.00000000000E+00  0.00000000000E+00  0.11012558560E+03  0.11012558560E+03  0.00000000000E+00 0. -1.
         21   -1    0    0  501  502 -0.00000000000E+00 -0.00000000000E+00 -0.47090012167E+03  0.47090012167E+03  0.00000000000E+00 0. -1.
      99926    2    1    2    0    0  0.00000000000E+00  0.00000000000E+00 -0.36077453607E+03  0.58102570727E+03  0.45544769911E+03 0.  0.
      99925    2    3    3    0    0  0.10573385828E+03  0.17146354019E+02 -0.27498807401E+03  0.39533652768E+03  0.26305680570E+03 0.  0.
         25    1    4    4    0    0  0.12281961516E+02  0.15425614431E+01 -0.10292410152E+03  0.16246262601E+03  0.12509000000E+03 0.  0.
         25    1    3    3    0    0 -0.10573385828E+03 -0.17146354019E+02 -0.85786462061E+02  0.18568917959E+03  0.12509000000E+03 0.  0.
         25    1    4    4    0    0  0.93451896765E+02  0.15603792576E+02 -0.17206397249E+03  0.23287390167E+03  0.12509000000E+03 0.  0.
<mgrwt>
<rscale>  2 0.45544770E+03</rscale>
<asrwt>0</asrwt>
<pdfrwt beam="1">  1       21 0.16194939E-01 0.45544770E+03</pdfrwt>
<pdfrwt beam="2">  1       21 0.69250017E-01 0.45544770E+03</pdfrwt>
<totfact> 0.59650253E+04</totfact>
</mgrwt>
</event>
<event>
 7    0  0.4766352E-002  0.4606370E+03  0.7546771E-02  0.1024597E+00
         21   -1    0    0  502  501  0.00000000000E+00  0.00000000000E+00  0.37386896890E+02  0.37386896890E+02  0.00000000000E+00 0.  1.
         21   -1    0    0  501  502 -0.00000000000E+00 -0.00000000000E+00 -0.14188559243E+04  0.14188559243E+04  0.00000000000E+00 0.  1.
      99926    2    1    2    0    0  0.00000000000E+00  0.00000000000E+00 -0.13814690274E+04  0.14562428212E+04  0.46063703779E+03 0.  0.
      99925    2    3    3    0    0 -0.59945596851E+02  0.37658240981E+02 -0.11649610030E+04  0.11963681390E+04  0.26296571619E+03 0.  0.
         25    1    3    3    0    0  0.59945596851E+02 -0.37658240981E+02 -0.21650802445E+03  0.25987468220E+03  0.12509000000E+03 0.  0.
         25    1    4    4    0    0 -0.55380154920E+02  0.17229641036E+02 -0.74583209492E+03  0.75847006796E+03  0.12509000000E+03 0.  0.
         25    1    4    4    0    0 -0.45654419311E+01  0.20428599945E+02 -0.41912890808E+03  0.43789807107E+03  0.12509000000E+03 0.  0.
<mgrwt>
<rscale>  2 0.46063704E+03</rscale>
<asrwt>0</asrwt>
<pdfrwt beam="1">  1       21 0.54980726E-02 0.46063704E+03</pdfrwt>
<pdfrwt beam="2">  1       21 0.20865530E+00 0.46063704E+03</pdfrwt>
<totfact> 0.23810922E+04</totfact>
</mgrwt>
</event>
<event>
 6    0  0.4766352E-002  0.4520967E+03  0.7546771E-02  0.1027099E+00
         21   -1    0    0  502  501  0.00000000000E+00  0.00000000000E+00  0.16755784947E+03  0.16755784947E+03  0.00000000000E+00 0.  1.
         21   -1    0    0  501  502 -0.00000000000E+00 -0.00000000000E+00 -0.30495649006E+03  0.30495649006E+03  0.00000000000E+00 0.  1.
      99926    2    1    2    0    0  0.00000000000E+00  0.00000000000E+00 -0.13739864059E+03  0.47251433953E+03  0.45209668725E+03 0.  0.
         25    1    3    3    0    0 -0.61571256457E+02 -0.17497352347E+02 -0.10901702089E+03  0.17784655157E+03  0.12509000000E+03 0.  0.
         25    1    3    3    0    0  0.25856099365E+02 -0.22699085308E+02 -0.76079567734E+02  0.15039745701E+03  0.12509000000E+03 0.  0.
         25    1    3    3    0    0  0.35715157092E+02  0.40196437654E+02  0.47697948032E+02  0.14427033095E+03  0.12509000000E+03 0.  0.
<mgrwt>
<rscale>  2 0.45209669E+03</rscale>
<asrwt>0</asrwt>
<pdfrwt beam="1">  1       21 0.24640861E-01 0.45209669E+03</pdfrwt>
<pdfrwt beam="2">  1       21 0.44846542E-01 0.45209669E+03</pdfrwt>
<totfact> 0.68821159E+04</totfact>
</mgrwt>
</event>
<event>
 7    0  0.4766352E-002  0.4557114E+03  0.7546771E-02  0.1026032E+00
         21   -1    0    0  502  501  0.00000000000E+00  0.00000000000E+00  0.22212491251E+03  0.22212491251E+03  0.00000000000E+00 0. -1.
         21   -1    0    0  501  502 -0.00000000000E+00 -0.00000000000E+00 -0.23373434720E+03  0.23373434720E+03  0.00000000000E+00 0. -1.
      99926    2    1    2    0    0  0.17763568394E-14  0.00000000000E+00 -0.11609434693E+02  0.45585925971E+03  0.45571140614E+03 0.  0.
      99925    2    3    3    0    0 -0.10474818326E+02  0.43643534274E+02  0.97271751352E+02  0.28405384455E+03  0.26307853027E+03 0.  0.
         25    1    4    4    0    0 -0.19081105022E+02  0.46339521855E+02  0.81923350827E+02  0.15770346656E+03  0.12509000000E+03 0.  0.
         25    1    3    3    0    0  0.10474818326E+02 -0.43643534274E+02 -0.10888118604E+03  0.17180541516E+03  0.12509000000E+03 0.  0.
         25    1    4    4    0    0  0.86062866968E+01 -0.26959875811E+01  0.15348400525E+02  0.12635037799E+03  0.12509000000E+03 0.  0.
<mgrwt>
<rscale>  2 0.45571141E+03</rscale>
<asrwt>0</asrwt>
<pdfrwt beam="1">  1       21 0.32665428E-01 0.45571141E+03</pdfrwt>
<pdfrwt beam="2">  1       21 0.34372698E-01 0.45571141E+03</pdfrwt>
<totfact> 0.68095547E+04</totfact>
</mgrwt>
</event>
<event>
 7    0  0.4766352E-002  0.4510057E+03  0.7546771E-02  0.1027423E+00
         21   -1    0    0  502  501  0.00000000000E+00  0.00000000000E+00  0.43274103410E+03  0.43274103410E+03  0.00000000000E+00 0. -1.
         21   -1    0    0  501  502 -0.00000000000E+00 -0.00000000000E+00 -0.11751033011E+03  0.11751033011E+03  0.00000000000E+00 0. -1.
      99926    2    1    2    0    0  0.00000000000E+00  0.35527136788E-14  0.31523070399E+03  0.55025136420E+03  0.45100572842E+03 0.  0.
      99925    2    3    3    0    0  0.63482326350E+02 -0.19654605403E+02  0.30522916107E+03  0.40825189860E+03  0.26284684260E+03 0.  0.
         25    1    3    3    0    0 -0.63482326350E+02  0.19654605403E+02  0.10001542919E+02  0.14199946561E+03  0.12509000000E+03 0.  0.
         25    1    4    4    0    0  0.65574721493E+02 -0.21109883474E+02  0.19364278431E+03  0.24060487795E+03  0.12509000000E+03 0.  0.
         25    1    4    4    0    0 -0.20923951427E+01  0.14552780710E+01  0.11158637676E+03  0.16764702064E+03  0.12509000000E+03 0.  0.
<mgrwt>
<rscale>  2 0.45100573E+03</rscale>
<asrwt>0</asrwt>
<pdfrwt beam="1">  1       21 0.63638387E-01 0.45100573E+03</pdfrwt>
<pdfrwt beam="2">  1       21 0.17280931E-01 0.45100573E+03</pdfrwt>
<totfact> 0.63843689E+04</totfact>
</mgrwt>
</event>
<event>
 7    0  0.4766352E-002  0.4557828E+03  0.7546771E-02  0.1026011E+00
         21   -1    0    0  502  501  0.00000000000E+00  0.00000000000E+00  0.39897214625E+04  0.39897214625E+04  0.00000000000E+00 0.  1.
         21   -1    0    0  501  502 -0.00000000000E+00 -0.00000000000E+00 -0.13017069100E+02  0.13017069100E+02  0.00000000000E+00 0.  1.
      99926    2    1    2    0    0  0.00000000000E+00  0.00000000000E+00  0.39767043934E+04  0.40027385316E+04  0.45578275512E+03 0.  0.
      99925    2    3    3    0    0  0.10325829861E+03 -0.44756437859E+02  0.26573958090E+04  0.26727430188E+04  0.26293981091E+03 0.  0.
         25    1    4    4    0    0  0.79353983767E+02 -0.51112207789E+02  0.16120964996E+04  0.16196950777E+04  0.12509000000E+03 0.  0.
         25    1    3    3    0    0 -0.10325829861E+03  0.44756437859E+02  0.13193085844E+04  0.13299955127E+04  0.12509000000E+03 0.  0.
         25    1    4    4    0    0  0.23904314843E+02  0.63557699294E+01  0.10452993093E+04  0.10530479411E+04  0.12509000000E+03 0.  0.
<mgrwt>
<rscale>  2 0.45578276E+03</rscale>
<asrwt>0</asrwt>
<pdfrwt beam="1">  1       21 0.58672290E+00 0.45578276E+03</pdfrwt>
<pdfrwt beam="2">  1       21 0.19142776E-02 0.45578276E+03</pdfrwt>
<totfact> 0.44551912E+02</totfact>
</mgrwt>
</event>
<event>
 7    0  0.4766352E-002  0.4544212E+03  0.7546771E-02  0.1026412E+00
         21   -1    0    0  502  501  0.00000000000E+00  0.00000000000E+00  0.11446402976E+04  0.11446402976E+04  0.00000000000E+00 0. -1.
         21   -1    0    0  501  502 -0.00000000000E+00 -0.00000000000E+00 -0.45101208751E+02  0.45101208751E+02  0.00000000000E+00 0. -1.
      99926    2    1    2    0    0 -0.71054273576E-14  0.13322676296E-14  0.10995390889E+04  0.11897415064E+04  0.45442121873E+03 0.  0.
      99925    2    3    3    0    0 -0.51962077135E+02  0.33423047592E+01  0.95373774389E+03  0.99070189032E+03  0.26298920683E+03 0.  0.
         25    1    4    4    0    0 -0.25953437062E+02 -0.17612403483E+02  0.34422411085E+03  0.36758879776E+03  0.12509000000E+03 0.  0.
         25    1    3    3    0    0  0.51962077135E+02 -0.33423047592E+01  0.14580134501E+03  0.19903961607E+03  0.12509000000E+03 0.  0.
         25    1    4    4    0    0 -0.26008640073E+02  0.20954708243E+02  0.60951363305E+03  0.62311309256E+03  0.12509000000E+03 0.  0.
<mgrwt>
<rscale>  2 0.45442122E+03</rscale>
<asrwt>0</asrwt>
<pdfrwt beam="1">  1       21 0.16832944E+00 0.45442122E+03</pdfrwt>
<pdfrwt beam="2">  1       21 0.66325315E-02 0.45442122E+03</pdfrwt>
<totfact> 0.32629667E+04</totfact>
</mgrwt>
</event>
<event>
 7    0  0.4766352E-002  0.4580904E+03  0.7546771E-02  0.1025337E+00
         21   -1    0    0  502  501  0.00000000000E+00  0.00000000000E+00  0.15676423815E+03  0.15676423815E+03  0.00000000000E+00 0. -1.
         21   -1    0    0  501  502 -0.00000000000E+00 -0.00000000000E+00 -0.33465350500E+03  0.33465350500E+03  0.00000000000E+00 0. -1.
      99926    2    1    2    0    0  0.00000000000E+00  0.00000000000E+00 -0.17788926685E+03  0.49141774315E+03  0.45809039175E+03 0.  0.
      99925    2    3    3    0    0 -0.36660662578E+02 -0.42682613772E+02 -0.22045662373E+03  0.34780264063E+03  0.26305844253E+03 0.  0.
         25    1    3    3    0    0  0.36660662578E+02  0.42682613772E+02  0.42567356873E+02  0.14361510251E+03  0.12509000000E+03 0.  0.
         25    1    4    4    0    0  0.11467534248E+02 -0.48987326594E+02 -0.10976518147E+03  0.17385961484E+03  0.12509000000E+03 0.  0.
         25    1    4    4    0    0 -0.48128196826E+02  0.63047128227E+01 -0.11069144225E+03  0.17394302579E+03  0.12509000000E+03 0.  0.
<mgrwt>
<rscale>  2 0.45809039E+03</rscale>
<asrwt>0</asrwt>
<pdfrwt beam="1">  1       21 0.23053564E-01 0.45809039E+03</pdfrwt>
<pdfrwt beam="2">  1       21 0.49213751E-01 0.45809039E+03</pdfrwt>
<totfact> 0.64286189E+04</totfact>
</mgrwt>
</event>
<event>
 7    0  0.4766352E-002  0.4510858E+03  0.7546771E-02  0.1027399E+00
         21   -1    0    0  502  501  0.00000000000E+00  0.00000000000E+00  0.15265514267E+03  0.15265514267E+03  0.00000000000E+00 0.  1.
         21   -1    0    0  501  502 -0.00000000000E+00 -0.00000000000E+00 -0.33323213731E+03  0.33323213731E+03  0.00000000000E+00 0.  1.
      99926    2    1    2    0    0  0.14210854715E-13 -0.71054273576E-14 -0.18057699464E+03  0.48588727998E+03  0.45108579877E+03 0.  0.
      99925    2    3    3    0    0  0.94325480409E+02 -0.48456578979E+02 -0.84965204652E+02  0.29605983522E+03  0.26303422539E+03 0.  0.
         25    1    4    4    0    0  0.59648552162E+02 -0.47034369807E+02 -0.78527222576E+02  0.16608496170E+03  0.12509000000E+03 0.  0.
         25    1    3    3    0    0 -0.94325480409E+02  0.48456578979E+02 -0.95611789989E+02  0.18982744476E+03  0.12509000000E+03 0.  0.
         25    1    4    4    0    0  0.34676928247E+02 -0.14222091727E+01 -0.64379820758E+01  0.12997487351E+03  0.12509000000E+03 0.  0.
<mgrwt>
<rscale>  2 0.45108580E+03</rscale>
<asrwt>0</asrwt>
<pdfrwt beam="1">  1       21 0.22449286E-01 0.45108580E+03</pdfrwt>
<pdfrwt beam="2">  1       21 0.49004726E-01 0.45108580E+03</pdfrwt>
<totfact> 0.68374022E+04</totfact>
</mgrwt>
</event>
<event>
 7    0  0.4766352E-002  0.4266549E+03  0.7546771E-02  0.1034922E+00
         21   -1    0    0  502  501  0.00000000000E+00  0.00000000000E+00  0.19940653438E+04  0.19940653438E+04  0.00000000000E+00 0. -1.
         21   -1    0    0  501  502 -0.00000000000E+00 -0.00000000000E+00 -0.22822025603E+02  0.22822025603E+02  0.00000000000E+00 0. -1.
      99926    2    1    2    0    0  0.00000000000E+00  0.88817841970E-15  0.19712433182E+04  0.20168873694E+04  0.42665494409E+03 0.  0.
      99925    2    3    3    0    0 -0.17707005907E+02 -0.55463209356E+01  0.16618103133E+04  0.16826111478E+04  0.26310161050E+03 0.  0.
         25    1    4    4    0    0 -0.37338743003E+01  0.36030673293E+02  0.75156356883E+03  0.76276304140E+03  0.12509000000E+03 0.  0.
         25    1    4    4    0    0 -0.13973131607E+02 -0.41576994229E+02  0.91024674451E+03  0.91984810640E+03  0.12509000000E+03 0.  0.
         25    1    3    3    0    0  0.17707005907E+02  0.55463209356E+01  0.30943300487E+03  0.33427622162E+03  0.12509000000E+03 0.  0.
<mgrwt>
<rscale>  2 0.42665494E+03</rscale>
<asrwt>0</asrwt>
<pdfrwt beam="1">  1       21 0.29324478E+00 0.42665494E+03</pdfrwt>
<pdfrwt beam="2">  1       21 0.33561816E-02 0.42665494E+03</pdfrwt>
<totfact> 0.16849929E+04</totfact>
</mgrwt>
</event>
<event>
 7    0  0.4766352E-002  0.4489283E+03  0.7546771E-02  0.1028042E+00
         21   -1    0    0  502  501  0.00000000000E+00  0.00000000000E+00  0.57362303601E+03  0.57362303601E+03  0.00000000000E+00 0.  1.
         21   -1    0    0  501  502 -0.00000000000E+00 -0.00000000000E+00 -0.87834962452E+02  0.87834962452E+02  0.00000000000E+00 0.  1.
      99926    2    1    2    0    0  0.00000000000E+00  0.00000000000E+00  0.48578807356E+03  0.66145799846E+03  0.44892831423E+03 0.  0.
      99925    2    3    3    0    0  0.96563318383E+02 -0.28258900133E+02  0.25213603809E+03  0.37797286363E+03  0.26299784037E+03 0.  0.
         25    1    3    3    0    0 -0.96563318383E+02  0.28258900133E+02  0.23365203547E+03  0.28348513484E+03  0.12509000000E+03 0.  0.
         25    1    4    4    0    0  0.58870795320E+02 -0.23847995778E+02  0.78919530357E+02  0.16096675997E+03  0.12509000000E+03 0.  0.
         25    1    4    4    0    0  0.37692523063E+02 -0.44109043553E+01  0.17321650773E+03  0.21700610365E+03  0.12509000000E+03 0.  0.
<mgrwt>
<rscale>  2 0.44892831E+03</rscale>
<asrwt>0</asrwt>
<pdfrwt beam="1">  1       21 0.84356328E-01 0.44892831E+03</pdfrwt>
<pdfrwt beam="2">  1       21 0.12916906E-01 0.44892831E+03</pdfrwt>
<totfact> 0.57761586E+04</totfact>
</mgrwt>
</event>
<event>
 7    0  0.4766352E-002  0.4540959E+03  0.7546771E-02  0.1026508E+00
         21   -1    0    0  502  501  0.00000000000E+00  0.00000000000E+00  0.33574803696E+03  0.33574803696E+03  0.00000000000E+00 0.  1.
         21   -1    0    0  501  502 -0.00000000000E+00 -0.00000000000E+00 -0.15354006019E+03  0.15354006019E+03  0.00000000000E+00 0.  1.
      99926    2    1    2    0    0  0.00000000000E+00  0.14210854715E-13  0.18220797677E+03  0.48928809715E+03  0.45409590970E+03 0.  0.
      99925    2    3    3    0    0  0.39928749049E+02 -0.83898619092E+02  0.46152104892E+02  0.28242584428E+03  0.26268052354E+03 0.  0.
         25    1    3    3    0    0 -0.39928749049E+02  0.83898619092E+02  0.13605587188E+03  0.20686225286E+03  0.12509000000E+03 0.  0.
         25    1    4    4    0    0  0.33739636988E+01 -0.79176211426E+02  0.29035218786E+02  0.15089999376E+03  0.12509000000E+03 0.  0.
         25    1    4    4    0    0  0.36554785350E+02 -0.47224076663E+01  0.17116886106E+02  0.13152585052E+03  0.12509000000E+03 0.  0.
<mgrwt>
<rscale>  2 0.45409591E+03</rscale>
<asrwt>0</asrwt>
<pdfrwt beam="1">  1       21 0.49374711E-01 0.45409591E+03</pdfrwt>
<pdfrwt beam="2">  1       21 0.22579421E-01 0.45409591E+03</pdfrwt>
<totfact> 0.66506008E+04</totfact>
</mgrwt>
</event>
<event>
 7    0  0.4766352E-002  0.4553332E+03  0.7546771E-02  0.1026143E+00
         21   -1    0    0  502  501  0.00000000000E+00  0.00000000000E+00  0.23566104216E+03  0.23566104216E+03  0.00000000000E+00 0. -1.
         21   -1    0    0  501  502 -0.00000000000E+00 -0.00000000000E+00 -0.21994337034E+03  0.21994337034E+03  0.00000000000E+00 0. -1.
      99926    2    1    2    0    0  0.00000000000E+00  0.14210854715E-13  0.15717671817E+02  0.45560441250E+03  0.45533321368E+03 0.  0.
      99925    2    3    3    0    0 -0.26261662517E+02  0.83002733406E+02 -0.62866021804E+02  0.28413420029E+03  0.26306078843E+03 0.  0.
         25    1    4    4    0    0 -0.53048637724E+02  0.51300074283E+02 -0.35934153363E+02  0.14961492928E+03  0.12509000000E+03 0.  0.
         25    1    4    4    0    0  0.26786975207E+02  0.31702659123E+02 -0.26931868441E+02  0.13451927101E+03  0.12509000000E+03 0.  0.
         25    1    3    3    0    0  0.26261662517E+02 -0.83002733406E+02  0.78583693621E+02  0.17147021221E+03  0.12509000000E+03 0.  0.
<mgrwt>
<rscale>  2 0.45533321E+03</rscale>
<asrwt>0</asrwt>
<pdfrwt beam="1">  1       21 0.34656036E-01 0.45533321E+03</pdfrwt>
<pdfrwt beam="2">  1       21 0.32344613E-01 0.45533321E+03</pdfrwt>
<totfact> 0.68319729E+04</totfact>
</mgrwt>
</event>
<event>
 7    0  0.4766352E-002  0.4562645E+03  0.7546771E-02  0.1025870E+00
         21   -1    0    0  502  501  0.00000000000E+00  0.00000000000E+00  0.26985950882E+03  0.26985950882E+03  0.00000000000E+00 0.  1.
         21   -1    0    0  501  502 -0.00000000000E+00 -0.00000000000E+00 -0.19285710970E+03  0.19285710970E+03  0.00000000000E+00 0.  1.
      99926    2    1    2    0    0 -0.71054273576E-14  0.00000000000E+00  0.77002399122E+02  0.46271661853E+03  0.45626450617E+03 0.  0.
      99925    2    3    3    0    0  0.48826922150E+02 -0.93362223361E+02  0.93739111229E+02  0.29831406773E+03  0.26287580518E+03 0.  0.
         25    1    4    4    0    0 -0.11300331597E+02 -0.36711608713E+02  0.24242702581E+02  0.13308139027E+03  0.12509000000E+03 0.  0.
         25    1    4    4    0    0  0.60127253748E+02 -0.56650614648E+02  0.69496408648E+02  0.16523267745E+03  0.12509000000E+03 0.  0.
         25    1    3    3    0    0 -0.48826922150E+02  0.93362223361E+02 -0.16736712107E+02  0.16440255080E+03  0.12509000000E+03 0.  0.
<mgrwt>
<rscale>  2 0.45626451E+03</rscale>
<asrwt>0</asrwt>
<pdfrwt beam="1">  1       21 0.39685222E-01 0.45626451E+03</pdfrwt>
<pdfrwt beam="2">  1       21 0.28361340E-01 0.45626451E+03</pdfrwt>
<totfact> 0.67300863E+04</totfact>
</mgrwt>
</event>
<event>
 7    0  0.4766352E-002  0.4545143E+03  0.7546771E-02  0.1026384E+00
         21   -1    0    0  502  501  0.00000000000E+00  0.00000000000E+00  0.26236938753E+03  0.26236938753E+03  0.00000000000E+00 0. -1.
         21   -1    0    0  501  502 -0.00000000000E+00 -0.00000000000E+00 -0.19684389965E+03  0.19684389965E+03  0.00000000000E+00 0. -1.
      99926    2    1    2    0    0  0.26645352591E-14  0.00000000000E+00  0.65525487872E+02  0.45921328718E+03  0.45451430512E+03 0.  0.
      99925    2    3    3    0    0  0.61102301457E+01  0.82264771070E+02  0.11868636920E+03  0.30022141671E+03  0.26313801958E+03 0.  0.
         25    1    4    4    0    0  0.42428418606E+02  0.30257893543E+02  0.58426702124E+02  0.14756997814E+03  0.12509000000E+03 0.  0.
         25    1    3    3    0    0 -0.61102301457E+01 -0.82264771070E+02 -0.53160881324E+02  0.15899187047E+03  0.12509000000E+03 0.  0.
         25    1    4    4    0    0 -0.36318188461E+02  0.52006877527E+02  0.60259667072E+02  0.15265143857E+03  0.12509000000E+03 0.  0.
<mgrwt>
<rscale>  2 0.45451431E+03</rscale>
<asrwt>0</asrwt>
<pdfrwt beam="1">  1       21 0.38583733E-01 0.45451431E+03</pdfrwt>
<pdfrwt beam="2">  1       21 0.28947632E-01 0.45451431E+03</pdfrwt>
<totfact> 0.68502893E+04</totfact>
</mgrwt>
</event>
<event>
 7    0  0.4766352E-002  0.4306470E+03  0.7546771E-02  0.1033656E+00
         21   -1    0    0  502  501  0.00000000000E+00  0.00000000000E+00  0.34930600872E+03  0.34930600872E+03  0.00000000000E+00 0. -1.
         21   -1    0    0  501  502 -0.00000000000E+00 -0.00000000000E+00 -0.13273234603E+03  0.13273234603E+03  0.00000000000E+00 0. -1.
      99926    2    1    2    0    0  0.14210854715E-13  0.88817841970E-15  0.21657366269E+03  0.48203835475E+03  0.43064698313E+03 0.  0.
      99925    2    3    3    0    0  0.88059799032E+02 -0.71040175187E+01  0.14555246931E+03  0.31322925168E+03  0.26291072156E+03 0.  0.
         25    1    3    3    0    0 -0.88059799032E+02  0.71040175187E+01  0.71021193384E+02  0.16880910307E+03  0.12509000000E+03 0.  0.
         25    1    4    4    0    0  0.31592033705E+02  0.11316561264E+02  0.30163266581E+02  0.13297914086E+03  0.12509000000E+03 0.  0.
         25    1    4    4    0    0  0.56467765327E+02 -0.18420578783E+02  0.11538920273E+03  0.18025011082E+03  0.12509000000E+03 0.  0.
<mgrwt>
<rscale>  2 0.43064698E+03</rscale>
<asrwt>0</asrwt>
<pdfrwt beam="1">  1       21 0.51368531E-01 0.43064698E+03</pdfrwt>
<pdfrwt beam="2">  1       21 0.19519463E-01 0.43064698E+03</pdfrwt>
<totfact> 0.81139382E+04</totfact>
</mgrwt>
</event>
<event>
 7    0  0.4766352E-002  0.4525112E+03  0.7546771E-02  0.1026976E+00
         21   -1    0    0  502  501  0.00000000000E+00  0.00000000000E+00  0.25074523063E+04  0.25074523063E+04  0.00000000000E+00 0. -1.
         21   -1    0    0  501  502 -0.00000000000E+00 -0.00000000000E+00 -0.20415782468E+02  0.20415782468E+02  0.00000000000E+00 0. -1.
      99926    2    1    2    0    0  0.00000000000E+00  0.00000000000E+00  0.24870365239E+04  0.25278680888E+04  0.45251121902E+03 0.  0.
      99925    2    3    3    0    0 -0.58340174609E+02 -0.94010526253E+02  0.16086777642E+04  0.16337745961E+04  0.26293293177E+03 0.  0.
         25    1    3    3    0    0  0.58340174609E+02  0.94010526253E+02  0.87835875962E+03  0.89409349272E+03  0.12509000000E+03 0.  0.
         25    1    4    4    0    0 -0.54327054964E+02 -0.35841300585E+02  0.98255689689E+03  0.99262359002E+03  0.12509000000E+03 0.  0.
         25    1    4    4    0    0 -0.40131196443E+01 -0.58169225668E+02  0.62612086736E+03  0.64115100607E+03  0.12509000000E+03 0.  0.
<mgrwt>
<rscale>  2 0.45251122E+03</rscale>
<asrwt>0</asrwt>
<pdfrwt beam="1">  1       21 0.36874278E+00 0.45251122E+03</pdfrwt>
<pdfrwt beam="2">  1       21 0.30023227E-02 0.45251122E+03</pdfrwt>
<totfact> 0.69850358E+03</totfact>
</mgrwt>
</event>
<event>
 7    0  0.4766352E-002  0.4586348E+03  0.7546771E-02  0.1025178E+00
         21   -1    0    0  502  501  0.00000000000E+00  0.00000000000E+00  0.96556630045E+03  0.96556630045E+03  0.00000000000E+00 0. -1.
         21   -1    0    0  501  502 -0.00000000000E+00 -0.00000000000E+00 -0.54461788538E+02  0.54461788538E+02  0.00000000000E+00 0. -1.
      99926    2    1    2    0    0 -0.14210854715E-13  0.00000000000E+00  0.91110451192E+03  0.10200280890E+04  0.45863479011E+03 0.  0.
      99925    2    3    3    0    0 -0.10333507672E+03 -0.41056987589E+02  0.49357968526E+03  0.57020778789E+03  0.26296806148E+03 0.  0.
         25    1    3    3    0    0  0.10333507672E+03  0.41056987589E+02  0.41752482666E+03  0.44982030110E+03  0.12509000000E+03 0.  0.
         25    1    4    4    0    0 -0.84205584595E+02 -0.95567239218E+01  0.21693027171E+03  0.26436369330E+03  0.12509000000E+03 0.  0.
         25    1    4    4    0    0 -0.19129492122E+02 -0.31500263667E+02  0.27664941355E+03  0.30584409459E+03  0.12509000000E+03 0.  0.
<mgrwt>
<rscale>  2 0.45863479E+03</rscale>
<asrwt>0</asrwt>
<pdfrwt beam="1">  1       21 0.14199503E+00 0.45863479E+03</pdfrwt>
<pdfrwt beam="2">  1       21 0.80090872E-02 0.45863479E+03</pdfrwt>
<totfact> 0.37326096E+04</totfact>
</mgrwt>
</event>
<event>
 7    0  0.4766352E-002  0.4549772E+03  0.7546771E-02  0.1026248E+00
         21   -1    0    0  502  501  0.00000000000E+00  0.00000000000E+00  0.13717872503E+04  0.13717872503E+04  0.00000000000E+00 0.  1.
         21   -1    0    0  501  502 -0.00000000000E+00 -0.00000000000E+00 -0.37725280324E+02  0.37725280324E+02  0.00000000000E+00 0.  1.
      99926    2    1    2    0    0  0.00000000000E+00  0.00000000000E+00  0.13340619699E+04  0.14095125306E+04  0.45497717992E+03 0.  0.
      99925    2    3    3    0    0 -0.46190656333E+02  0.93853403285E+02  0.97371508741E+03  0.10139882938E+04  0.26288619299E+03 0.  0.
         25    1    4    4    0    0 -0.23366378332E+02  0.48964789543E+02  0.34481955538E+03  0.37079856003E+03  0.12509000000E+03 0.  0.
         25    1    4    4    0    0 -0.22824278001E+02  0.44888613742E+02  0.62889553203E+03  0.64318973376E+03  0.12509000000E+03 0.  0.
         25    1    3    3    0    0  0.46190656333E+02 -0.93853403285E+02  0.36034688254E+03  0.39552423680E+03  0.12509000000E+03 0.  0.
<mgrwt>
<rscale>  2 0.45497718E+03</rscale>
<asrwt>0</asrwt>
<pdfrwt beam="1">  1       21 0.20173339E+00 0.45497718E+03</pdfrwt>
<pdfrwt beam="2">  1       21 0.55478362E-02 0.45497718E+03</pdfrwt>
<totfact> 0.26084242E+04</totfact>
</mgrwt>
</event>
<event>
 7    0  0.4766352E-002  0.4213796E+03  0.7546771E-02  0.1036618E+00
         21   -1    0    0  502  501  0.00000000000E+00  0.00000000000E+00  0.13340774992E+03  0.13340774992E+03  0.00000000000E+00 0.  1.
         21   -1    0    0  501  502 -0.00000000000E+00 -0.00000000000E+00 -0.33274070120E+03  0.33274070120E+03  0.00000000000E+00 0.  1.
      99926    2    1    2    0    0  0.00000000000E+00  0.00000000000E+00 -0.19933295127E+03  0.46614845112E+03  0.42137958306E+03 0.  0.
      99925    2    3    3    0    0 -0.33324864583E+02 -0.12287248138E+02 -0.20600531410E+03  0.33594264636E+03  0.26297860967E+03 0.  0.
         25    1    4    4    0    0 -0.35201670047E+02 -0.66190534146E+01 -0.15053369947E+03  0.19897455169E+03  0.12509000000E+03 0.  0.
         25    1    3    3    0    0  0.33324864583E+02  0.12287248138E+02  0.66723628262E+01  0.13020580476E+03  0.12509000000E+03 0.  0.
         25    1    4    4    0    0  0.18768054644E+01 -0.56681947236E+01 -0.55471614628E+02  0.13696809468E+03  0.12509000000E+03 0.  0.
<mgrwt>
<rscale>  2 0.42137958E+03</rscale>
<asrwt>0</asrwt>
<pdfrwt beam="1">  1       21 0.19618787E-01 0.42137958E+03</pdfrwt>
<pdfrwt beam="2">  1       21 0.48932456E-01 0.42137958E+03</pdfrwt>
<totfact> 0.89271958E+04</totfact>
</mgrwt>
</event>
<event>
 7    0  0.4766352E-002  0.4456392E+03  0.7546771E-02  0.1029031E+00
         21   -1    0    0  502  501  0.00000000000E+00  0.00000000000E+00  0.72115946997E+03  0.72115946997E+03  0.00000000000E+00 0. -1.
         21   -1    0    0  501  502 -0.00000000000E+00 -0.00000000000E+00 -0.68845492134E+02  0.68845492134E+02  0.00000000000E+00 0. -1.
      99926    2    1    2    0    0  0.00000000000E+00 -0.14210854715E-13  0.65231397784E+03  0.79000496210E+03  0.44563922007E+03 0.  0.
      99925    2    3    3    0    0  0.12068930747E+02 -0.76070774002E+02  0.28972981891E+03  0.39879248512E+03  0.26298223604E+03 0.  0.
         25    1    3    3    0    0 -0.12068930747E+02  0.76070774002E+02  0.36258415892E+03  0.39121247699E+03  0.12509000000E+03 0.  0.
         25    1    4    4    0    0  0.16166624570E+02 -0.54003444721E+02  0.20266740343E+03  0.24474336826E+03  0.12509000000E+03 0.  0.
         25    1    4    4    0    0 -0.40976938223E+01 -0.22067329281E+02  0.87062415478E+02  0.15404911686E+03  0.12509000000E+03 0.  0.
<mgrwt>
<rscale>  2 0.44563922E+03</rscale>
<asrwt>0</asrwt>
<pdfrwt beam="1">  1       21 0.10605286E+00 0.44563922E+03</pdfrwt>
<pdfrwt beam="2">  1       21 0.10124337E-01 0.44563922E+03</pdfrwt>
<totfact> 0.51966052E+04</totfact>
</mgrwt>
</event>
<event>
 7    0  0.4766352E-002  0.4659724E+03  0.7546771E-02  0.1023063E+00
         21   -1    0    0  502  501  0.00000000000E+00  0.00000000000E+00  0.72605232121E+02  0.72605232121E+02  0.00000000000E+00 0. -1.
         21   -1    0    0  501  502 -0.00000000000E+00 -0.00000000000E+00 -0.74763981003E+03  0.74763981003E+03  0.00000000000E+00 0. -1.
      99926    2    1    2    0    0  0.00000000000E+00  0.00000000000E+00 -0.67503457791E+03  0.82024504216E+03  0.46597236807E+03 0.  0.
      99925    2    3    3    0    0 -0.85660711029E+02 -0.81300235777E+02 -0.48292080435E+03  0.56236387603E+03  0.26285573997E+03 0.  0.
         25    1    4    4    0    0 -0.29939475815E+02 -0.20865824278E+02 -0.29205921945E+03  0.31980908461E+03  0.12509000000E+03 0.  0.
         25    1    3    3    0    0  0.85660711029E+02  0.81300235777E+02 -0.19211377356E+03  0.25788116613E+03  0.12509000000E+03 0.  0.
         25    1    4    4    0    0 -0.55721235214E+02 -0.60434411500E+02 -0.19086158491E+03  0.24255479142E+03  0.12509000000E+03 0.  0.
<mgrwt>
<rscale>  2 0.46597237E+03</rscale>
<asrwt>0</asrwt>
<pdfrwt beam="1">  1       21 0.10677240E-01 0.46597237E+03</pdfrwt>
<pdfrwt beam="2">  1       21 0.10994703E+00 0.46597237E+03</pdfrwt>
<totfact> 0.42979512E+04</totfact>
</mgrwt>
</event>
<event>
 7    0  0.4766352E-002  0.4529906E+03  0.7546771E-02  0.1026834E+00
         21   -1    0    0  502  501  0.00000000000E+00  0.00000000000E+00  0.15346411259E+03  0.15346411259E+03  0.00000000000E+00 0. -1.
         21   -1    0    0  501  502 -0.00000000000E+00 -0.00000000000E+00 -0.33428094998E+03  0.33428094998E+03  0.00000000000E+00 0. -1.
      99926    2    1    2    0    0 -0.71054273576E-14  0.00000000000E+00 -0.18081683739E+03  0.48774506257E+03  0.45299063718E+03 0.  0.
      99925    2    3    3    0    0 -0.63595387444E+02  0.90805767583E+02 -0.10325129528E+03  0.30347899907E+03  0.26296123701E+03 0.  0.
         25    1    3    3    0    0  0.63595387444E+02 -0.90805767583E+02 -0.77565542116E+02  0.18426606349E+03  0.12509000000E+03 0.  0.
         25    1    4    4    0    0 -0.49784617037E+01  0.75119560578E+02 -0.45410228312E+02  0.15289646954E+03  0.12509000000E+03 0.  0.
         25    1    4    4    0    0 -0.58616925740E+02  0.15686207005E+02 -0.57841066966E+02  0.15058252954E+03  0.12509000000E+03 0.  0.
<mgrwt>
<rscale>  2 0.45299064E+03</rscale>
<asrwt>0</asrwt>
<pdfrwt beam="1">  1       21 0.22568252E-01 0.45299064E+03</pdfrwt>
<pdfrwt beam="2">  1       21 0.49158962E-01 0.45299064E+03</pdfrwt>
<totfact> 0.67206160E+04</totfact>
</mgrwt>
</event>
<event>
 7    0  0.4766352E-002  0.4487534E+03  0.7546771E-02  0.1028094E+00
         21   -1    0    0  502  501  0.00000000000E+00  0.00000000000E+00  0.21798935121E+03  0.21798935121E+03  0.00000000000E+00 0.  1.
         21   -1    0    0  501  502 -0.00000000000E+00 -0.00000000000E+00 -0.23095120241E+03  0.23095120241E+03  0.00000000000E+00 0.  1.
      99926    2    1    2    0    0  0.71054273576E-14  0.00000000000E+00 -0.12961851196E+02  0.44894055362E+03  0.44875339675E+03 0.  0.
      99925    2    3    3    0    0 -0.57695400295E+02 -0.67070130044E+01 -0.97936582833E+02  0.28694686128E+03  0.26338789590E+03 0.  0.
         25    1    3    3    0    0  0.57695400295E+02  0.67070130044E+01  0.84974731637E+02  0.16199369233E+03  0.12509000000E+03 0.  0.
         25    1    4    4    0    0  0.27305352303E+01 -0.17077007168E+02 -0.71621525755E+02  0.14517655130E+03  0.12509000000E+03 0.  0.
         25    1    4    4    0    0 -0.60425935525E+02  0.10369994163E+02 -0.26315057078E+02  0.14177030998E+03  0.12509000000E+03 0.  0.
<mgrwt>
<rscale>  2 0.44875340E+03</rscale>
<asrwt>0</asrwt>
<pdfrwt beam="1">  1       21 0.32057258E-01 0.44875340E+03</pdfrwt>
<pdfrwt beam="2">  1       21 0.33963412E-01 0.44875340E+03</pdfrwt>
<totfact> 0.72540664E+04</totfact>
</mgrwt>
</event>
<event>
 7    0  0.4766352E-002  0.4597217E+03  0.7546771E-02  0.1024862E+00
         21   -1    0    0  502  501  0.00000000000E+00  0.00000000000E+00  0.79087567023E+02  0.79087567023E+02  0.00000000000E+00 0. -1.
         21   -1    0    0  501  502 -0.00000000000E+00 -0.00000000000E+00 -0.66806982156E+03  0.66806982156E+03  0.00000000000E+00 0. -1.
      99926    2    1    2    0    0  0.00000000000E+00  0.31086244690E-14 -0.58898225454E+03  0.74715738859E+03  0.45972172796E+03 0.  0.
      99925    2    3    3    0    0  0.65266931080E+02  0.21852774797E+01 -0.21016494983E+03  0.34291166359E+03  0.26297253689E+03 0.  0.
         25    1    3    3    0    0 -0.65266931080E+02 -0.21852774797E+01 -0.37881730471E+03  0.40424572500E+03  0.12509000000E+03 0.  0.
         25    1    4    4    0    0  0.58495671520E+02 -0.30636185313E+02 -0.11112670133E+03  0.17988043608E+03  0.12509000000E+03 0.  0.
         25    1    4    4    0    0  0.67712595607E+01  0.32821462793E+02 -0.99038248494E+02  0.16303122750E+03  0.12509000000E+03 0.  0.
<mgrwt>
<rscale>  2 0.45972173E+03</rscale>
<asrwt>0</asrwt>
<pdfrwt beam="1">  1       21 0.11630524E-01 0.45972173E+03</pdfrwt>
<pdfrwt beam="2">  1       21 0.98245564E-01 0.45972173E+03</pdfrwt>
<totfact> 0.48587748E+04</totfact>
</mgrwt>
</event>
<event>
 6    0  0.4766352E-002  0.4577573E+03  0.7546771E-02  0.1025434E+00
         21   -1    0    0  502  501  0.00000000000E+00  0.00000000000E+00  0.65551654135E+03  0.65551654135E+03  0.00000000000E+00 0.  1.
         21   -1    0    0  501  502 -0.00000000000E+00 -0.00000000000E+00 -0.79914735900E+02  0.79914735900E+02  0.00000000000E+00 0.  1.
      99926    2    1    2    0    0  0.00000000000E+00 -0.71054273576E-14  0.57560180545E+03  0.73543127725E+03  0.45775727752E+03 0.  0.
         25    1    3    3    0    0  0.53972869376E+01 -0.35573543536E+02  0.76628272218E+02  0.15104306641E+03  0.12509000000E+03 0.  0.
         25    1    3    3    0    0 -0.38374896749E+02 -0.21693409289E+02  0.11629108512E+03  0.17639263388E+03  0.12509000000E+03 0.  0.
         25    1    3    3    0    0  0.32977609811E+02  0.57266952825E+02  0.38268244811E+03  0.40799557697E+03  0.12509000000E+03 0.  0.
<mgrwt>
<rscale>  2 0.45775728E+03</rscale>
<asrwt>0</asrwt>
<pdfrwt beam="1">  1       21 0.96399489E-01 0.45775728E+03</pdfrwt>
<pdfrwt beam="2">  1       21 0.11752167E-01 0.45775728E+03</pdfrwt>
<totfact> 0.49929883E+04</totfact>
</mgrwt>
</event>
<event>
 7    0  0.4766352E-002  0.4383926E+03  0.7546771E-02  0.1031241E+00
         21   -1    0    0  502  501  0.00000000000E+00  0.00000000000E+00  0.18285842532E+03  0.18285842532E+03  0.00000000000E+00 0. -1.
         21   -1    0    0  501  502 -0.00000000000E+00 -0.00000000000E+00 -0.26275530320E+03  0.26275530320E+03  0.00000000000E+00 0. -1.
      99926    2    1    2    0    0  0.00000000000E+00  0.00000000000E+00 -0.79896877877E+02  0.44561372852E+03  0.43839261393E+03 0.  0.
      99925    2    3    3    0    0  0.71439006569E+02  0.53510088628E+02 -0.13196382449E+02  0.27809260915E+03  0.26304846228E+03 0.  0.
         25    1    3    3    0    0 -0.71439006569E+02 -0.53510088628E+02 -0.66700495427E+02  0.16752111937E+03  0.12509000000E+03 0.  0.
         25    1    4    4    0    0  0.15672711652E+02  0.26920260285E+02  0.29399186579E+02  0.13222009899E+03  0.12509000000E+03 0.  0.
         25    1    4    4    0    0  0.55766294917E+02  0.26589828343E+02 -0.42595569028E+02  0.14587251016E+03  0.12509000000E+03 0.  0.
<mgrwt>
<rscale>  2 0.43839261E+03</rscale>
<asrwt>0</asrwt>
<pdfrwt beam="1">  1       21 0.26890945E-01 0.43839261E+03</pdfrwt>
<pdfrwt beam="2">  1       21 0.38640486E-01 0.43839261E+03</pdfrwt>
<totfact> 0.79223601E+04</totfact>
</mgrwt>
</event>
<event>
 7    0  0.4766352E-002  0.4525646E+03  0.7546771E-02  0.1026960E+00
         21   -1    0    0  502  501  0.00000000000E+00  0.00000000000E+00  0.10064596353E+03  0.10064596353E+03  0.00000000000E+00 0.  1.
         21   -1    0    0  501  502 -0.00000000000E+00 -0.00000000000E+00 -0.50875051552E+03  0.50875051552E+03  0.00000000000E+00 0.  1.
      99926    2    1    2    0    0  0.00000000000E+00  0.00000000000E+00 -0.40810455200E+03  0.60939647905E+03  0.45256462888E+03 0.  0.
      99925    2    3    3    0    0 -0.95943414579E+02  0.50163526949E+02 -0.22500893625E+03  0.36263134609E+03  0.26296568890E+03 0.  0.
         25    1    3    3    0    0  0.95943414579E+02 -0.50163526949E+02 -0.18309561575E+03  0.24676513296E+03  0.12509000000E+03 0.  0.
         25    1    4    4    0    0 -0.56809266074E+02  0.30195174064E+02 -0.16579758543E+03  0.21742904287E+03  0.12509000000E+03 0.  0.
         25    1    4    4    0    0 -0.39134148505E+02  0.19968352885E+02 -0.59211350826E+02  0.14520230323E+03  0.12509000000E+03 0.  0.
<mgrwt>
<rscale>  2 0.45256463E+03</rscale>
<asrwt>0</asrwt>
<pdfrwt beam="1">  1       21 0.14800877E-01 0.45256463E+03</pdfrwt>
<pdfrwt beam="2">  1       21 0.74816252E-01 0.45256463E+03</pdfrwt>
<totfact> 0.59234886E+04</totfact>
</mgrwt>
</event>
<event>
 7    0  0.4766352E-002  0.4463718E+03  0.7546771E-02  0.1028810E+00
         21   -1    0    0  502  501  0.00000000000E+00  0.00000000000E+00  0.49692842782E+02  0.49692842782E+02  0.00000000000E+00 0.  1.
         21   -1    0    0  501  502 -0.00000000000E+00 -0.00000000000E+00 -0.10023966497E+04  0.10023966497E+04  0.00000000000E+00 0.  1.
      99926    2    1    2    0    0 -0.88817841970E-15 -0.35527136788E-14 -0.95270380695E+03  0.10520894925E+04  0.44637176936E+03 0.  0.
      99925    2    3    3    0    0  0.57557827396E+01 -0.31322496250E+02 -0.36949427294E+03  0.45476621616E+03  0.26319586969E+03 0.  0.
         25    1    4    4    0    0 -0.17200938876E+02  0.19812753703E+02 -0.18774895887E+03  0.22712462915E+03  0.12509000000E+03 0.  0.
         25    1    3    3    0    0 -0.57557827396E+01  0.31322496250E+02 -0.58320953401E+03  0.59732327635E+03  0.12509000000E+03 0.  0.
         25    1    4    4    0    0  0.22956721616E+02 -0.51135249953E+02 -0.18174531407E+03  0.22764158702E+03  0.12509000000E+03 0.  0.
<mgrwt>
<rscale>  2 0.44637177E+03</rscale>
<asrwt>0</asrwt>
<pdfrwt beam="1">  1       21 0.73077715E-02 0.44637177E+03</pdfrwt>
<pdfrwt beam="2">  1       21 0.14741126E+00 0.44637177E+03</pdfrwt>
<totfact> 0.39815286E+04</totfact>
</mgrwt>
</event>
<event>
 7    0  0.4766352E-002  0.4550227E+03  0.7546771E-02  0.1026235E+00
         21   -1    0    0  502  501  0.00000000000E+00  0.00000000000E+00  0.19078343237E+04  0.19078343237E+04  0.00000000000E+00 0.  1.
         21   -1    0    0  501  502 -0.00000000000E+00 -0.00000000000E+00 -0.27130977210E+02  0.27130977210E+02  0.00000000000E+00 0.  1.
      99926    2    1    2    0    0 -0.14210854715E-13 -0.35527136788E-14  0.18807033465E+04  0.19349653009E+04  0.45502267881E+03 0.  0.
      99925    2    3    3    0    0 -0.92173883970E+02 -0.27633833757E+02  0.14355075284E+04  0.14626238162E+04  0.26330003779E+03 0.  0.
         25    1    4    4    0    0 -0.71498269576E+02  0.82490779209E+01  0.62269374351E+03  0.63919876107E+03  0.12509000000E+03 0.  0.
         25    1    4    4    0    0 -0.20675614394E+02 -0.35882911678E+02  0.81281378490E+03  0.82342505512E+03  0.12509000000E+03 0.  0.
         25    1    3    3    0    0  0.92173883970E+02  0.27633833757E+02  0.44519581806E+03  0.47234148471E+03  0.12509000000E+03 0.  0.
<mgrwt>
<rscale>  2 0.45502268E+03</rscale>
<asrwt>0</asrwt>
<pdfrwt beam="1">  1       21 0.28056378E+00 0.45502268E+03</pdfrwt>
<pdfrwt beam="2">  1       21 0.39898509E-02 0.45502268E+03</pdfrwt>
<totfact> 0.14798239E+04</totfact>
</mgrwt>
</event>
<event>
 7    0  0.4766352E-002  0.4524973E+03  0.7546771E-02  0.1026980E+00
         21   -1    0    0  502  501  0.00000000000E+00  0.00000000000E+00  0.30941556701E+03  0.30941556701E+03  0.00000000000E+00 0.  1.
         21   -1    0    0  501  502 -0.00000000000E+00 -0.00000000000E+00 -0.16543590106E+03  0.16543590106E+03  0.00000000000E+00 0.  1.
      99926    2    1    2    0    0  0.00000000000E+00 -0.71054273576E-14  0.14397966595E+03  0.47485146808E+03  0.45249726245E+03 0.  0.
      99925    2    3    3    0    0 -0.10176150733E+03  0.43601197807E+02  0.86304413264E+02  0.29813018555E+03  0.26301461359E+03 0.  0.
         25    1    4    4    0    0 -0.63667984621E+02 -0.15185312790E+02  0.54092894456E+02  0.15118781472E+03  0.12509000000E+03 0.  0.
         25    1    3    3    0    0  0.10176150733E+03 -0.43601197807E+02  0.57675252689E+02  0.17672128252E+03  0.12509000000E+03 0.  0.
         25    1    4    4    0    0 -0.38093522710E+02  0.58786510597E+02  0.32211518808E+02  0.14694237083E+03  0.12509000000E+03 0.  0.
<mgrwt>
<rscale>  2 0.45249726E+03</rscale>
<asrwt>0</asrwt>
<pdfrwt beam="1">  1       21 0.45502289E-01 0.45249726E+03</pdfrwt>
<pdfrwt beam="2">  1       21 0.24328809E-01 0.45249726E+03</pdfrwt>
<totfact> 0.68425869E+04</totfact>
</mgrwt>
</event>
<event>
 7    0  0.4766352E-002  0.4566432E+03  0.7546771E-02  0.1025759E+00
         21   -1    0    0  502  501  0.00000000000E+00  0.00000000000E+00  0.66844930940E+03  0.66844930940E+03  0.00000000000E+00 0.  1.
         21   -1    0    0  501  502 -0.00000000000E+00 -0.00000000000E+00 -0.77987592620E+02  0.77987592620E+02  0.00000000000E+00 0.  1.
      99926    2    1    2    0    0 -0.35527136788E-14  0.00000000000E+00  0.59046171678E+03  0.74643690202E+03  0.45664319738E+03 0.  0.
      99925    2    3    3    0    0 -0.28954795584E+02 -0.30600502995E+02  0.54541977087E+03  0.60696985945E+03  0.26297321699E+03 0.  0.
         25    1    4    4    0    0 -0.40576860775E+02 -0.21369346293E+02  0.21023482374E+03  0.24889620287E+03  0.12509000000E+03 0.  0.
         25    1    3    3    0    0  0.28954795584E+02  0.30600502995E+02  0.45041945907E+02  0.13946704257E+03  0.12509000000E+03 0.  0.
         25    1    4    4    0    0  0.11622065191E+02 -0.92311567021E+01  0.33518494713E+03  0.35807365658E+03  0.12509000000E+03 0.  0.
<mgrwt>
<rscale>  2 0.45664320E+03</rscale>
<asrwt>0</asrwt>
<pdfrwt beam="1">  1       21 0.98301366E-01 0.45664320E+03</pdfrwt>
<pdfrwt beam="2">  1       21 0.11468764E-01 0.45664320E+03</pdfrwt>
<totfact> 0.49806762E+04</totfact>
</mgrwt>
</event>
<event>
 7    0  0.4766352E-002  0.4262978E+03  0.7546771E-02  0.1035036E+00
         21   -1    0    0  502  501  0.00000000000E+00  0.00000000000E+00  0.28881297544E+02  0.28881297544E+02  0.00000000000E+00 0.  1.
         21   -1    0    0  501  502 -0.00000000000E+00 -0.00000000000E+00 -0.15730754879E+04  0.15730754879E+04  0.00000000000E+00 0.  1.
      99926    2    1    2    0    0 -0.14210854715E-13  0.00000000000E+00 -0.15441941903E+04  0.16019567854E+04  0.42629783590E+03 0.  0.
      99925    2    3    3    0    0 -0.77674600791E+02 -0.38139457077E+01 -0.88324714122E+03  0.92479624343E+03  0.26282064152E+03 0.  0.
         25    1    4    4    0    0 -0.50452562104E+00  0.26908884214E+01 -0.45976255320E+03  0.47648358718E+03  0.12509000000E+03 0.  0.
         25    1    4    4    0    0 -0.77170075170E+02 -0.65048341291E+01 -0.42348458802E+03  0.44831265626E+03  0.12509000000E+03 0.  0.
         25    1    3    3    0    0  0.77674600791E+02  0.38139457077E+01 -0.66094704912E+03  0.67716054200E+03  0.12509000000E+03 0.  0.
<mgrwt>
<rscale>  2 0.42629784E+03</rscale>
<asrwt>0</asrwt>
<pdfrwt beam="1">  1       21 0.42472502E-02 0.42629784E+03</pdfrwt>
<pdfrwt beam="2">  1       21 0.23133460E+00 0.42629784E+03</pdfrwt>
<totfact> 0.26900079E+04</totfact>
</mgrwt>
</event>
<event>
 7    0  0.4766352E-002  0.4750305E+03  0.7546771E-02  0.1020510E+00
         21   -1    0    0  502  501  0.00000000000E+00  0.00000000000E+00  0.23481886142E+03  0.23481886142E+03  0.00000000000E+00 0.  1.
         21   -1    0    0  501  502 -0.00000000000E+00 -0.00000000000E+00 -0.24024256135E+03  0.24024256135E+03  0.00000000000E+00 0.  1.
      99926    2    1    2    0    0  0.00000000000E+00 -0.71054273576E-14 -0.54236999307E+01  0.47506142278E+03  0.47503046102E+03 0.  0.
      99925    2    3    3    0    0  0.63860336430E+02  0.50671078801E+02  0.98860412832E+02  0.29293952659E+03  0.26342832843E+03 0.  0.
         25    1    4    4    0    0  0.26125516013E+02  0.45343241476E+02  0.88162379625E+02  0.16173640721E+03  0.12509000000E+03 0.  0.
         25    1    4    4    0    0  0.37734820417E+02  0.53278373243E+01  0.10698033207E+02  0.13120311939E+03  0.12509000000E+03 0.  0.
         25    1    3    3    0    0 -0.63860336430E+02 -0.50671078801E+02 -0.10428411276E+03  0.18212189619E+03  0.12509000000E+03 0.  0.
<mgrwt>
<rscale>  2 0.47503046E+03</rscale>
<asrwt>0</asrwt>
<pdfrwt beam="1">  1       21 0.34532186E-01 0.47503046E+03</pdfrwt>
<pdfrwt beam="2">  1       21 0.35329788E-01 0.47503046E+03</pdfrwt>
<totfact> 0.57368630E+04</totfact>
</mgrwt>
</event>
<event>
 7    0  0.4766352E-002  0.4625733E+03  0.7546771E-02  0.1024038E+00
         21   -1    0    0  502  501  0.00000000000E+00  0.00000000000E+00  0.92489400683E+02  0.92489400683E+02  0.00000000000E+00 0.  1.
         21   -1    0    0  501  502 -0.00000000000E+00 -0.00000000000E+00 -0.57837462753E+03  0.57837462753E+03  0.00000000000E+00 0.  1.
      99926    2    1    2    0    0  0.00000000000E+00  0.00000000000E+00 -0.48588522685E+03  0.67086402821E+03  0.46257333546E+03 0.  0.
      99925    2    3    3    0    0 -0.92499272810E+00  0.76466316033E+02 -0.16925194010E+03  0.32193409331E+03  0.26295890954E+03 0.  0.
         25    1    4    4    0    0 -0.81014164819E+00  0.21299151014E+01 -0.53810931823E+02  0.13619220738E+03  0.12509000000E+03 0.  0.
         25    1    4    4    0    0 -0.11485107992E+00  0.74336400932E+02 -0.11544100828E+03  0.18574188593E+03  0.12509000000E+03 0.  0.
         25    1    3    3    0    0  0.92499272810E+00 -0.76466316033E+02 -0.31663328674E+03  0.34892993490E+03  0.12509000000E+03 0.  0.
<mgrwt>
<rscale>  2 0.46257334E+03</rscale>
<asrwt>0</asrwt>
<pdfrwt beam="1">  1       21 0.13601383E-01 0.46257334E+03</pdfrwt>
<pdfrwt beam="2">  1       21 0.85055090E-01 0.46257334E+03</pdfrwt>
<totfact> 0.51376942E+04</totfact>
</mgrwt>
</event>
<event>
 7    0  0.4766352E-002  0.4654315E+03  0.7546771E-02  0.1023218E+00
         21   -1    0    0  502  501  0.00000000000E+00  0.00000000000E+00  0.40093791603E+02  0.40093791603E+02  0.00000000000E+00 0.  1.
         21   -1    0    0  501  502 -0.00000000000E+00 -0.00000000000E+00 -0.13507484437E+04  0.13507484437E+04  0.00000000000E+00 0.  1.
      99926    2    1    2    0    0  0.00000000000E+00 -0.44408920985E-15 -0.13106546521E+04  0.13908422353E+04  0.46543152711E+03 0.  0.
      99925    2    3    3    0    0  0.10401481004E+03  0.22496651528E+01 -0.62326719853E+03  0.68446191202E+03  0.26306266656E+03 0.  0.
         25    1    4    4    0    0  0.84778417692E+02 -0.16362182327E+02 -0.28857874057E+03  0.32615992814E+03  0.12509000000E+03 0.  0.
         25    1    4    4    0    0  0.19236392347E+02  0.18611847480E+02 -0.33468845797E+03  0.35830198388E+03  0.12509000000E+03 0.  0.
         25    1    3    3    0    0 -0.10401481004E+03 -0.22496651528E+01 -0.68738745353E+03  0.70638032325E+03  0.12509000000E+03 0.  0.
<mgrwt>
<rscale>  2 0.46543153E+03</rscale>
<asrwt>0</asrwt>
<pdfrwt beam="1">  1       21 0.58961479E-02 0.46543153E+03</pdfrwt>
<pdfrwt beam="2">  1       21 0.19863941E+00 0.46543153E+03</pdfrwt>
<totfact> 0.24527583E+04</totfact>
</mgrwt>
</event>
<event>
 7    0  0.4766352E-002  0.4630812E+03  0.7546771E-02  0.1023891E+00
         21   -1    0    0  502  501  0.00000000000E+00  0.00000000000E+00  0.58752535492E+03  0.58752535492E+03  0.00000000000E+00 0. -1.
         21   -1    0    0  501  502 -0.00000000000E+00 -0.00000000000E+00 -0.91248929343E+02  0.91248929343E+02  0.00000000000E+00 0. -1.
      99926    2    1    2    0    0  0.00000000000E+00  0.00000000000E+00  0.49627642558E+03  0.67877428427E+03  0.46308124384E+03 0.  0.
      99925    2    3    3    0    0  0.66390615730E+02 -0.10041885868E+03  0.32440609592E+03  0.43448228818E+03  0.26276202662E+03 0.  0.
         25    1    3    3    0    0 -0.66390615730E+02  0.10041885868E+03  0.17187032966E+03  0.24429199609E+03  0.12509000000E+03 0.  0.
         25    1    4    4    0    0  0.32457352196E+02 -0.83521591462E+02  0.13717377237E+03  0.20613948646E+03  0.12509000000E+03 0.  0.
         25    1    4    4    0    0  0.33933263533E+02 -0.16897267220E+02  0.18723232355E+03  0.22834280172E+03  0.12509000000E+03 0.  0.
<mgrwt>
<rscale>  2 0.46308124E+03</rscale>
<asrwt>0</asrwt>
<pdfrwt beam="1">  1       21 0.86400786E-01 0.46308124E+03</pdfrwt>
<pdfrwt beam="2">  1       21 0.13418960E-01 0.46308124E+03</pdfrwt>
<totfact> 0.50760218E+04</totfact>
</mgrwt>
</event>
<event>
 7    0  0.4766352E-002  0.4327991E+03  0.7546771E-02  0.1032979E+00
         21   -1    0    0  502  501  0.00000000000E+00  0.00000000000E+00  0.23904591266E+03  0.23904591266E+03  0.00000000000E+00 0.  1.
         21   -1    0    0  501  502 -0.00000000000E+00 -0.00000000000E+00 -0.19589859793E+03  0.19589859793E+03  0.00000000000E+00 0.  1.
      99926    2    1    2    0    0  0.00000000000E+00  0.00000000000E+00  0.43147314728E+02  0.43494451059E+03  0.43279907177E+03 0.  0.
      99925    2    3    3    0    0  0.15296768441E+02 -0.53799183463E+02  0.99653972972E+02  0.28672557188E+03  0.26296824139E+03 0.  0.
         25    1    4    4    0    0 -0.19027429381E+01 -0.66670616872E+02  0.57644491678E+02  0.15303263412E+03  0.12509000000E+03 0.  0.
         25    1    3    3    0    0 -0.15296768441E+02  0.53799183463E+02 -0.56506658244E+02  0.14821893871E+03  0.12509000000E+03 0.  0.
         25    1    4    4    0    0  0.17199511379E+02  0.12871433410E+02  0.42009481294E+02  0.13369293777E+03  0.12509000000E+03 0.  0.
<mgrwt>
<rscale>  2 0.43279907E+03</rscale>
<asrwt>0</asrwt>
<pdfrwt beam="1">  1       21 0.35153811E-01 0.43279907E+03</pdfrwt>
<pdfrwt beam="2">  1       21 0.28808617E-01 0.43279907E+03</pdfrwt>
<totfact> 0.83955036E+04</totfact>
</mgrwt>
</event>
<event>
 7    0  0.4766352E-002  0.4646406E+03  0.7546771E-02  0.1023444E+00
         21   -1    0    0  502  501  0.00000000000E+00  0.00000000000E+00  0.51954211000E+03  0.51954211000E+03  0.00000000000E+00 0. -1.
         21   -1    0    0  501  502 -0.00000000000E+00 -0.00000000000E+00 -0.10388515469E+03  0.10388515469E+03  0.00000000000E+00 0. -1.
      99926    2    1    2    0    0  0.71054273576E-14  0.00000000000E+00  0.41565695531E+03  0.62342726469E+03  0.46464055986E+03 0.  0.
      99925    2    3    3    0    0 -0.56764971212E+02 -0.46048502974E+02  0.12917301773E+03  0.30239256069E+03  0.26346321502E+03 0.  0.
         25    1    4    4    0    0 -0.50957981182E+02 -0.53830132697E+02  0.89782160035E+02  0.17088810196E+03  0.12509000000E+03 0.  0.
         25    1    4    4    0    0 -0.58069900297E+01  0.77816297228E+01  0.39390857691E+02  0.13150445872E+03  0.12509000000E+03 0.  0.
         25    1    3    3    0    0  0.56764971212E+02  0.46048502974E+02  0.28648393758E+03  0.32103470401E+03  0.12509000000E+03 0.  0.
<mgrwt>
<rscale>  2 0.46464056E+03</rscale>
<asrwt>0</asrwt>
<pdfrwt beam="1">  1       21 0.76403250E-01 0.46464056E+03</pdfrwt>
<pdfrwt beam="2">  1       21 0.15277229E-01 0.46464056E+03</pdfrwt>
<totfact> 0.53099857E+04</totfact>
</mgrwt>
</event>
<event>
 7    0  0.4766352E-002  0.4565033E+03  0.7546771E-02  0.1025800E+00
         21   -1    0    0  502  501  0.00000000000E+00  0.00000000000E+00  0.38204328238E+03  0.38204328238E+03  0.00000000000E+00 0. -1.
         21   -1    0    0  501  502 -0.00000000000E+00 -0.00000000000E+00 -0.13636887521E+03  0.13636887521E+03  0.00000000000E+00 0. -1.
      99926    2    1    2    0    0  0.00000000000E+00  0.00000000000E+00  0.24567440717E+03  0.51841215758E+03  0.45650328673E+03 0.  0.
      99925    2    3    3    0    0 -0.35080465332E+02  0.66995144796E+02  0.56607668454E+02  0.27942946310E+03  0.26297796152E+03 0.  0.
         25    1    4    4    0    0 -0.42323546130E+02  0.21185046040E+02 -0.18875154729E+01  0.13375783920E+03  0.12509000000E+03 0.  0.
         25    1    3    3    0    0  0.35080465332E+02 -0.66995144796E+02  0.18906673872E+03  0.23898269448E+03  0.12509000000E+03 0.  0.
         25    1    4    4    0    0  0.72430807982E+01  0.45810098756E+02  0.58495183927E+02  0.14567162390E+03  0.12509000000E+03 0.  0.
<mgrwt>
<rscale>  2 0.45650329E+03</rscale>
<asrwt>0</asrwt>
<pdfrwt beam="1">  1       21 0.56182836E-01 0.45650329E+03</pdfrwt>
<pdfrwt beam="2">  1       21 0.20054246E-01 0.45650329E+03</pdfrwt>
<totfact> 0.63237927E+04</totfact>
</mgrwt>
</event>
<event>
 7    0  0.4766352E-002  0.4554201E+03  0.7546771E-02  0.1026118E+00
         21   -1    0    0  502  501  0.00000000000E+00  0.00000000000E+00  0.79946369617E+02  0.79946369617E+02  0.00000000000E+00 0.  1.
         21   -1    0    0  501  502 -0.00000000000E+00 -0.00000000000E+00 -0.64858307977E+03  0.64858307977E+03  0.00000000000E+00 0.  1.
      99926    2    1    2    0    0 -0.35527136788E-14  0.00000000000E+00 -0.56863671015E+03  0.72852944939E+03  0.45542008134E+03 0.  0.
      99925    2    3    3    0    0 -0.28467536330E+02  0.10295433114E+03 -0.41961836662E+03  0.50657456719E+03  0.26292246688E+03 0.  0.
         25    1    4    4    0    0 -0.34678307354E+02  0.71544922795E+02 -0.17002817369E+03  0.22556229500E+03  0.12509000000E+03 0.  0.
         25    1    4    4    0    0  0.62107710248E+01  0.31409408342E+02 -0.24959019294E+03  0.28101227219E+03  0.12509000000E+03 0.  0.
         25    1    3    3    0    0  0.28467536330E+02 -0.10295433114E+03 -0.14901834353E+03  0.22195488220E+03  0.12509000000E+03 0.  0.
<mgrwt>
<rscale>  2 0.45542008E+03</rscale>
<asrwt>0</asrwt>
<pdfrwt beam="1">  1       21 0.11756820E-01 0.45542008E+03</pdfrwt>
<pdfrwt beam="2">  1       21 0.95379859E-01 0.45542008E+03</pdfrwt>
<totfact> 0.51211870E+04</totfact>
</mgrwt>
</event>
<event>
 7    0  0.4766352E-002  0.4560868E+03  0.7546771E-02  0.1025922E+00
         21   -1    0    0  502  501  0.00000000000E+00  0.00000000000E+00  0.85304409766E+03  0.85304409766E+03  0.00000000000E+00 0.  1.
         21   -1    0    0  501  502 -0.00000000000E+00 -0.00000000000E+00 -0.60962595381E+02  0.60962595381E+02  0.00000000000E+00 0.  1.
      99926    2    1    2    0    0  0.71054273576E-14 -0.35527136788E-14  0.79208150228E+03  0.91400669304E+03  0.45608675564E+03 0.  0.
      99925    2    3    3    0    0  0.61918021232E+02 -0.24771292157E+02  0.68369757263E+03  0.73556330545E+03  0.26298963332E+03 0.  0.
         25    1    3    3    0    0 -0.61918021232E+02  0.24771292157E+02  0.10838392964E+03  0.17844338759E+03  0.12509000000E+03 0.  0.
         25    1    4    4    0    0 -0.18000570539E+01  0.84047483071E+01  0.35897032208E+03  0.38023818882E+03  0.12509000000E+03 0.  0.
         25    1    4    4    0    0  0.63718078286E+02 -0.33176040464E+02  0.32472725055E+03  0.35532511664E+03  0.12509000000E+03 0.  0.
<mgrwt>
<rscale>  2 0.45608676E+03</rscale>
<asrwt>0</asrwt>
<pdfrwt beam="1">  1       21 0.12544765E+00 0.45608676E+03</pdfrwt>
<pdfrwt beam="2">  1       21 0.89650881E-02 0.45608676E+03</pdfrwt>
<totfact> 0.42272950E+04</totfact>
</mgrwt>
</event>
<event>
 7    0  0.4766352E-002  0.4608776E+03  0.7546771E-02  0.1024527E+00
         21   -1    0    0  502  501  0.00000000000E+00  0.00000000000E+00  0.26398305311E+02  0.26398305311E+02  0.00000000000E+00 0.  1.
         21   -1    0    0  501  502 -0.00000000000E+00 -0.00000000000E+00 -0.20115698164E+04  0.20115698164E+04  0.00000000000E+00 0.  1.
      99926    2    1    2    0    0 -0.14210854715E-13  0.17763568394E-14 -0.19851715111E+04  0.20379681217E+04  0.46087757232E+03 0.  0.
      99925    2    3    3    0    0  0.90816008753E+02 -0.81458299038E+01 -0.90686858245E+03  0.94861114808E+03  0.26294216556E+03 0.  0.
         25    1    4    4    0    0  0.61928950543E+02 -0.12626639999E+02 -0.34784454999E+03  0.37501728761E+03  0.12509000000E+03 0.  0.
         25    1    4    4    0    0  0.28887058210E+02  0.44808100947E+01 -0.55902403247E+03  0.57359386047E+03  0.12509000000E+03 0.  0.
         25    1    3    3    0    0 -0.90816008753E+02  0.81458299038E+01 -0.10783029286E+04  0.10893569736E+04  0.12509000000E+03 0.  0.
<mgrwt>
<rscale>  2 0.46087757E+03</rscale>
<asrwt>0</asrwt>
<pdfrwt beam="1">  1       21 0.38821026E-02 0.46087757E+03</pdfrwt>
<pdfrwt beam="2">  1       21 0.29581918E+00 0.46087757E+03</pdfrwt>
<totfact> 0.12518682E+04</totfact>
</mgrwt>
</event>
<event>
 7    0  0.4766352E-002  0.4537083E+03  0.7546771E-02  0.1026622E+00
         21   -1    0    0  502  501  0.00000000000E+00  0.00000000000E+00  0.13666393558E+03  0.13666393558E+03  0.00000000000E+00 0.  1.
         21   -1    0    0  501  502 -0.00000000000E+00 -0.00000000000E+00 -0.37656463918E+03  0.37656463918E+03  0.00000000000E+00 0.  1.
      99926    2    1    2    0    0  0.00000000000E+00  0.00000000000E+00 -0.23990070360E+03  0.51322857476E+03  0.45370830096E+03 0.  0.
      99925    2    3    3    0    0 -0.32415882134E+02  0.10547805289E+03 -0.12975566488E+03  0.31333898846E+03  0.26299882141E+03 0.  0.
         25    1    4    4    0    0 -0.46973885569E+02  0.46187905489E+02 -0.93510965891E+02  0.16950421051E+03  0.12509000000E+03 0.  0.
         25    1    3    3    0    0  0.32415882134E+02 -0.10547805289E+03 -0.11014503872E+03  0.19988958630E+03  0.12509000000E+03 0.  0.
         25    1    4    4    0    0  0.14558003434E+02  0.59290147406E+02 -0.36244698991E+02  0.14383477795E+03  0.12509000000E+03 0.  0.
<mgrwt>
<rscale>  2 0.45370830E+03</rscale>
<asrwt>0</asrwt>
<pdfrwt beam="1">  1       21 0.20097638E-01 0.45370830E+03</pdfrwt>
<pdfrwt beam="2">  1       21 0.55377153E-01 0.45370830E+03</pdfrwt>
<totfact> 0.65014808E+04</totfact>
</mgrwt>
</event>
<event>
 7    0  0.4766352E-002  0.4623263E+03  0.7546771E-02  0.1024109E+00
         21   -1    0    0  502  501  0.00000000000E+00  0.00000000000E+00  0.16334408447E+03  0.16334408447E+03  0.00000000000E+00 0.  1.
         21   -1    0    0  501  502 -0.00000000000E+00 -0.00000000000E+00 -0.32714014921E+03  0.32714014921E+03  0.00000000000E+00 0.  1.
      99926    2    1    2    0    0 -0.71054273576E-14  0.00000000000E+00 -0.16379606474E+03  0.49048423367E+03  0.46232632702E+03 0.  0.
      99925    2    3    3    0    0 -0.41694345098E+02  0.40209748472E+02  0.89354592516E+01  0.26948891751E+03  0.26303838492E+03 0.  0.
         25    1    4    4    0    0 -0.12968983314E+02  0.52421498499E+01 -0.32796891010E+02  0.13007235995E+03  0.12509000000E+03 0.  0.
         25    1    3    3    0    0  0.41694345098E+02 -0.40209748472E+02 -0.17273152399E+03  0.22099531616E+03  0.12509000000E+03 0.  0.
         25    1    4    4    0    0 -0.28725361784E+02  0.34967598622E+02  0.41732350262E+02  0.13941655756E+03  0.12509000000E+03 0.  0.
<mgrwt>
<rscale>  2 0.46232633E+03</rscale>
<asrwt>0</asrwt>
<pdfrwt beam="1">  1       21 0.24021189E-01 0.46232633E+03</pdfrwt>
<pdfrwt beam="2">  1       21 0.48108845E-01 0.46232633E+03</pdfrwt>
<totfact> 0.62244810E+04</totfact>
</mgrwt>
</event>
<event>
 7    0  0.4766352E-002  0.4542176E+03  0.7546771E-02  0.1026472E+00
         21   -1    0    0  502  501  0.00000000000E+00  0.00000000000E+00  0.20020809409E+03  0.20020809409E+03  0.00000000000E+00 0. -1.
         21   -1    0    0  501  502 -0.00000000000E+00 -0.00000000000E+00 -0.25762399266E+03  0.25762399266E+03  0.00000000000E+00 0. -1.
      99926    2    1    2    0    0  0.00000000000E+00  0.00000000000E+00 -0.57415898570E+02  0.45783208676E+03  0.45421760672E+03 0.  0.
      99925    2    3    3    0    0  0.20748207500E+02  0.11041837061E+03 -0.38547897708E+02  0.28863925523E+03  0.26306648316E+03 0.  0.
         25    1    4    4    0    0  0.13303417483E+02  0.99085162203E+02 -0.17824744338E+02  0.16112132043E+03  0.12509000000E+03 0.  0.
         25    1    3    3    0    0 -0.20748207500E+02 -0.11041837061E+03 -0.18868000862E+02  0.16919283152E+03  0.12509000000E+03 0.  0.
         25    1    4    4    0    0  0.74447900173E+01  0.11333208408E+02 -0.20723153370E+02  0.12751793480E+03  0.12509000000E+03 0.  0.
<mgrwt>
<rscale>  2 0.45421761E+03</rscale>
<asrwt>0</asrwt>
<pdfrwt beam="1">  1       21 0.29442367E-01 0.45421761E+03</pdfrwt>
<pdfrwt beam="2">  1       21 0.37885881E-01 0.45421761E+03</pdfrwt>
<totfact> 0.68766893E+04</totfact>
</mgrwt>
</event>
<event>
 7    0  0.4766352E-002  0.4468296E+03  0.7546771E-02  0.1028672E+00
         21   -1    0    0  502  501  0.00000000000E+00  0.00000000000E+00  0.13607269394E+03  0.13607269394E+03  0.00000000000E+00 0. -1.
         21   -1    0    0  501  502 -0.00000000000E+00 -0.00000000000E+00 -0.36681983836E+03  0.36681983836E+03  0.00000000000E+00 0. -1.
      99926    2    1    2    0    0 -0.14210854715E-13  0.00000000000E+00 -0.23074714443E+03  0.50289253230E+03  0.44682955854E+03 0.  0.
      99925    2    3    3    0    0  0.10310018369E+03 -0.16357669744E+02 -0.13016094987E+03  0.31141848217E+03  0.26294938093E+03 0.  0.
         25    1    4    4    0    0  0.15854368501E+02 -0.29256044962E+02 -0.51226342694E+02  0.13920820182E+03  0.12509000000E+03 0.  0.
         25    1    3    3    0    0 -0.10310018369E+03  0.16357669744E+02 -0.10058619456E+03  0.19147405013E+03  0.12509000000E+03 0.  0.
         25    1    4    4    0    0  0.87245815185E+02  0.12898375219E+02 -0.78934607173E+02  0.17221028036E+03  0.12509000000E+03 0.  0.
<mgrwt>
<rscale>  2 0.44682956E+03</rscale>
<asrwt>0</asrwt>
<pdfrwt beam="1">  1       21 0.20010690E-01 0.44682956E+03</pdfrwt>
<pdfrwt beam="2">  1       21 0.53944094E-01 0.44682956E+03</pdfrwt>
<totfact> 0.69464363E+04</totfact>
</mgrwt>
</event>
<event>
 7    0  0.4766352E-002  0.4559095E+03  0.7546771E-02  0.1025974E+00
         21   -1    0    0  502  501  0.00000000000E+00  0.00000000000E+00  0.11591191730E+03  0.11591191730E+03  0.00000000000E+00 0.  1.
         21   -1    0    0  501  502 -0.00000000000E+00 -0.00000000000E+00 -0.44830051066E+03  0.44830051066E+03  0.00000000000E+00 0.  1.
      99926    2    1    2    0    0  0.71054273576E-14  0.14210854715E-13 -0.33238859336E+03  0.56421242796E+03  0.45590951610E+03 0.  0.
      99925    2    3    3    0    0 -0.54518559984E+02 -0.95043415366E+02 -0.24802949505E+03  0.37774664087E+03  0.26299880245E+03 0.  0.
         25    1    3    3    0    0  0.54518559984E+02  0.95043415366E+02 -0.84359098303E+02  0.18646578709E+03  0.12509000000E+03 0.  0.
         25    1    4    4    0    0 -0.26359706915E+02 -0.78835926327E+02 -0.96198002956E+02  0.17835779013E+03  0.12509000000E+03 0.  0.
         25    1    4    4    0    0 -0.28158853070E+02 -0.16207489039E+02 -0.15183149210E+03  0.19938885074E+03  0.12509000000E+03 0.  0.
<mgrwt>
<rscale>  2 0.45590952E+03</rscale>
<asrwt>0</asrwt>
<pdfrwt beam="1">  1       21 0.17045870E-01 0.45590952E+03</pdfrwt>
<pdfrwt beam="2">  1       21 0.65926545E-01 0.45590952E+03</pdfrwt>
<totfact> 0.60500618E+04</totfact>
</mgrwt>
</event>
<event>
 7    0  0.4766352E-002  0.4520348E+03  0.7546771E-02  0.1027117E+00
         21   -1    0    0  502  501  0.00000000000E+00  0.00000000000E+00  0.28480773132E+03  0.28480773132E+03  0.00000000000E+00 0. -1.
         21   -1    0    0  501  502 -0.00000000000E+00 -0.00000000000E+00 -0.17936263105E+03  0.17936263105E+03  0.00000000000E+00 0. -1.
      99926    2    1    2    0    0  0.00000000000E+00  0.13322676296E-14  0.10544510027E+03  0.46417036238E+03  0.45203479527E+03 0.  0.
      99925    2    3    3    0    0 -0.14636564048E+02  0.34122364706E+01  0.17872946214E+03  0.31841722121E+03  0.26309586420E+03 0.  0.
         25    1    4    4    0    0 -0.31341930873E+02 -0.31012475724E+02  0.93904696083E+02  0.16251058528E+03  0.12509000000E+03 0.  0.
         25    1    3    3    0    0  0.14636564048E+02 -0.34122364706E+01 -0.73284361869E+02  0.14575314116E+03  0.12509000000E+03 0.  0.
         25    1    4    4    0    0  0.16705366825E+02  0.34424712194E+02  0.84824766059E+02  0.15590663593E+03  0.12509000000E+03 0.  0.
<mgrwt>
<rscale>  2 0.45203480E+03</rscale>
<asrwt>0</asrwt>
<pdfrwt beam="1">  1       21 0.41883490E-01 0.45203480E+03</pdfrwt>
<pdfrwt beam="2">  1       21 0.26376858E-01 0.45203480E+03</pdfrwt>
<totfact> 0.69492180E+04</totfact>
</mgrwt>
</event>
<event>
 7    0  0.4766352E-002  0.4544405E+03  0.7546771E-02  0.1026406E+00
         21   -1    0    0  502  501  0.00000000000E+00  0.00000000000E+00  0.16253114549E+03  0.16253114549E+03  0.00000000000E+00 0.  1.
         21   -1    0    0  501  502 -0.00000000000E+00 -0.00000000000E+00 -0.31765628780E+03  0.31765628780E+03  0.00000000000E+00 0.  1.
      99926    2    1    2    0    0 -0.17763568394E-14  0.00000000000E+00 -0.15512514231E+03  0.48018743329E+03  0.45444049260E+03 0.  0.
      99925    2    3    3    0    0  0.13191678933E+02 -0.32960348465E+02  0.15207262052E+02  0.26589548048E+03  0.26307554192E+03 0.  0.
         25    1    4    4    0    0  0.87636901944E+01 -0.11810116993E+02 -0.32842901885E+02  0.13016314929E+03  0.12509000000E+03 0.  0.
         25    1    4    4    0    0  0.44279887383E+01 -0.21150231471E+02  0.48050163937E+02  0.13573233119E+03  0.12509000000E+03 0.  0.
         25    1    3    3    0    0 -0.13191678933E+02  0.32960348465E+02 -0.17033240437E+03  0.21429195281E+03  0.12509000000E+03 0.  0.
<mgrwt>
<rscale>  2 0.45444049E+03</rscale>
<asrwt>0</asrwt>
<pdfrwt beam="1">  1       21 0.23901639E-01 0.45444049E+03</pdfrwt>
<pdfrwt beam="2">  1       21 0.46714159E-01 0.45444049E+03</pdfrwt>
<totfact> 0.66983445E+04</totfact>
</mgrwt>
</event>
<event>
 7    0  0.4766352E-002  0.4598071E+03  0.7546771E-02  0.1024837E+00
         21   -1    0    0  502  501  0.00000000000E+00  0.00000000000E+00  0.12780250063E+03  0.12780250063E+03  0.00000000000E+00 0. -1.
         21   -1    0    0  501  502 -0.00000000000E+00 -0.00000000000E+00 -0.41357289179E+03  0.41357289179E+03  0.00000000000E+00 0. -1.
      99926    2    1    2    0    0  0.17763568394E-14  0.00000000000E+00 -0.28577039116E+03  0.54137539242E+03  0.45980713245E+03 0.  0.
      99925    2    3    3    0    0 -0.12256501275E+02  0.18407158708E+02 -0.43008832050E+02  0.26738683792E+03  0.26297702588E+03 0.  0.
         25    1    4    4    0    0  0.31572792353E+01  0.48650422946E+02 -0.19655940442E+02  0.13568602050E+03  0.12509000000E+03 0.  0.
         25    1    3    3    0    0  0.12256501275E+02 -0.18407158708E+02 -0.24276155911E+03  0.27398855450E+03  0.12509000000E+03 0.  0.
         25    1    4    4    0    0 -0.15413780510E+02 -0.30243264237E+02 -0.23352891608E+02  0.13170081742E+03  0.12509000000E+03 0.  0.
<mgrwt>
<rscale>  2 0.45980713E+03</rscale>
<asrwt>0</asrwt>
<pdfrwt beam="1">  1       21 0.18794485E-01 0.45980713E+03</pdfrwt>
<pdfrwt beam="2">  1       21 0.60819543E-01 0.45980713E+03</pdfrwt>
<totfact> 0.60119816E+04</totfact>
</mgrwt>
</event>
<event>
 7    0  0.4766352E-002  0.4558673E+03  0.7546771E-02  0.1025987E+00
         21   -1    0    0  502  501  0.00000000000E+00  0.00000000000E+00  0.50605451179E+02  0.50605451179E+02  0.00000000000E+00 0.  1.
         21   -1    0    0  501  502 -0.00000000000E+00 -0.00000000000E+00 -0.10266435494E+04  0.10266435494E+04  0.00000000000E+00 0.  1.
      99926    2    1    2    0    0  0.00000000000E+00 -0.71054273576E-14 -0.97603809818E+03  0.10772490005E+04  0.45586734919E+03 0.  0.
      99925    2    3    3    0    0  0.42260875784E+01  0.53541829175E+02 -0.37618282062E+03  0.46214051465E+03  0.26301283898E+03 0.  0.
         25    1    4    4    0    0 -0.66613241389E+01  0.61194467300E+02 -0.23320737041E+03  0.27170263484E+03  0.12509000000E+03 0.  0.
         25    1    3    3    0    0 -0.42260875784E+01 -0.53541829175E+02 -0.59985527756E+03  0.61510848588E+03  0.12509000000E+03 0.  0.
         25    1    4    4    0    0  0.10887411717E+02 -0.76526381253E+01 -0.14297545021E+03  0.19043787981E+03  0.12509000000E+03 0.  0.
<mgrwt>
<rscale>  2 0.45586735E+03</rscale>
<asrwt>0</asrwt>
<pdfrwt beam="1">  1       21 0.74419789E-02 0.45586735E+03</pdfrwt>
<pdfrwt beam="2">  1       21 0.15097698E+00 0.45586735E+03</pdfrwt>
<totfact> 0.36048565E+04</totfact>
</mgrwt>
</event>
<event>
 7    0  0.4766352E-002  0.4556947E+03  0.7546771E-02  0.1026037E+00
         21   -1    0    0  502  501  0.00000000000E+00  0.00000000000E+00  0.24695928496E+03  0.24695928496E+03  0.00000000000E+00 0.  1.
         21   -1    0    0  501  502 -0.00000000000E+00 -0.00000000000E+00 -0.21021445102E+03  0.21021445102E+03  0.00000000000E+00 0.  1.
      99926    2    1    2    0    0  0.00000000000E+00  0.00000000000E+00  0.36744833936E+02  0.45717373598E+03  0.45569468073E+03 0.  0.
      99925    2    3    3    0    0 -0.10861614754E+03  0.29791113678E+02  0.36970651643E+02  0.28885101899E+03  0.26340672757E+03 0.  0.
         25    1    3    3    0    0  0.10861614754E+03 -0.29791113678E+02 -0.22581770724E+00  0.16832271699E+03  0.12509000000E+03 0.  0.
         25    1    4    4    0    0 -0.56903291437E+02  0.12200918533E+01 -0.20683457998E+02  0.13897764833E+03  0.12509000000E+03 0.  0.
         25    1    4    4    0    0 -0.51712856102E+02  0.28571021825E+02  0.57654109642E+02  0.14987337066E+03  0.12509000000E+03 0.  0.
<mgrwt>
<rscale>  2 0.45569468E+03</rscale>
<asrwt>0</asrwt>
<pdfrwt beam="1">  1       21 0.36317542E-01 0.45569468E+03</pdfrwt>
<pdfrwt beam="2">  1       21 0.30913890E-01 0.45569468E+03</pdfrwt>
<totfact> 0.68009138E+04</totfact>
</mgrwt>
</event>
<event>
 7    0  0.4766352E-002  0.4695606E+03  0.7546771E-02  0.1022044E+00
         21   -1    0    0  502  501  0.00000000000E+00  0.00000000000E+00  0.42729129770E+03  0.42729129770E+03  0.00000000000E+00 0.  1.
         21   -1    0    0  501  502 -0.00000000000E+00 -0.00000000000E+00 -0.12900282125E+03  0.12900282125E+03  0.00000000000E+00 0.  1.
      99926    2    1    2    0    0  0.00000000000E+00  0.00000000000E+00  0.29828847644E+03  0.55629411895E+03  0.46956057288E+03 0.  0.
      99925    2    3    3    0    0  0.10696501508E+03 -0.52678569459E+02  0.13606683004E+03  0.31927108887E+03  0.26306520069E+03 0.  0.
         25    1    3    3    0    0 -0.10696501508E+03  0.52678569459E+02  0.16222164640E+03  0.23702303009E+03  0.12509000000E+03 0.  0.
         25    1    4    4    0    0  0.62544363950E+02 -0.56872863650E+02  0.42606424089E+02  0.15687299180E+03  0.12509000000E+03 0.  0.
         25    1    4    4    0    0  0.44420651128E+02  0.41942941911E+01  0.93460405953E+02  0.16239809707E+03  0.12509000000E+03 0.  0.
<mgrwt>
<rscale>  2 0.46956057E+03</rscale>
<asrwt>0</asrwt>
<pdfrwt beam="1">  1       21 0.62836956E-01 0.46956057E+03</pdfrwt>
<pdfrwt beam="2">  1       21 0.18971003E-01 0.46956057E+03</pdfrwt>
<totfact> 0.54854348E+04</totfact>
</mgrwt>
</event>
<event>
 7    0  0.4766352E-002  0.4559471E+03  0.7546771E-02  0.1025963E+00
         21   -1    0    0  502  501  0.00000000000E+00  0.00000000000E+00  0.78599377556E+03  0.78599377556E+03  0.00000000000E+00 0. -1.
         21   -1    0    0  501  502 -0.00000000000E+00 -0.00000000000E+00 -0.66122582809E+02  0.66122582809E+02  0.00000000000E+00 0. -1.
      99926    2    1    2    0    0 -0.14210854715E-13 -0.35527136788E-14  0.71987119275E+03  0.85211635837E+03  0.45594709567E+03 0.  0.
      99925    2    3    3    0    0 -0.11281002178E+03 -0.16369468540E+02  0.46300585563E+03  0.54451049037E+03  0.26291289672E+03 0.  0.
         25    1    4    4    0    0 -0.21917486125E+02  0.41749150240E+01  0.25070746763E+03  0.28106858334E+03  0.12509000000E+03 0.  0.
         25    1    3    3    0    0  0.11281002178E+03  0.16369468540E+02  0.25686533712E+03  0.30760586800E+03  0.12509000000E+03 0.  0.
         25    1    4    4    0    0 -0.90892535652E+02 -0.20544383564E+02  0.21229838800E+03  0.26344190703E+03  0.12509000000E+03 0.  0.
<mgrwt>
<rscale>  2 0.45594710E+03</rscale>
<asrwt>0</asrwt>
<pdfrwt beam="1">  1       21 0.11558731E+00 0.45594710E+03</pdfrwt>
<pdfrwt beam="2">  1       21 0.97239097E-02 0.45594710E+03</pdfrwt>
<totfact> 0.45009527E+04</totfact>
</mgrwt>
</event>
<event>
 7    0  0.4766352E-002  0.4532041E+03  0.7546771E-02  0.1026771E+00
         21   -1    0    0  502  501  0.00000000000E+00  0.00000000000E+00  0.32836302637E+03  0.32836302637E+03  0.00000000000E+00 0.  1.
         21   -1    0    0  501  502 -0.00000000000E+00 -0.00000000000E+00 -0.15637722169E+03  0.15637722169E+03  0.00000000000E+00 0.  1.
      99926    2    1    2    0    0 -0.14210854715E-13  0.00000000000E+00  0.17198580467E+03  0.48474024806E+03  0.45320413841E+03 0.  0.
      99925    2    3    3    0    0 -0.99221241561E+02 -0.50920317072E+02  0.10993291510E+03  0.30603433693E+03  0.26293352028E+03 0.  0.
         25    1    4    4    0    0 -0.80866349989E+01 -0.30042519887E+02  0.59066967556E+02  0.14178984951E+03  0.12509000000E+03 0.  0.
         25    1    4    4    0    0 -0.91134606563E+02 -0.20877797185E+02  0.50865947541E+02  0.16424448742E+03  0.12509000000E+03 0.  0.
         25    1    3    3    0    0  0.99221241561E+02  0.50920317072E+02  0.62052889577E+02  0.17870591113E+03  0.12509000000E+03 0.  0.
<mgrwt>
<rscale>  2 0.45320414E+03</rscale>
<asrwt>0</asrwt>
<pdfrwt beam="1">  1       21 0.48288680E-01 0.45320414E+03</pdfrwt>
<pdfrwt beam="2">  1       21 0.22996650E-01 0.45320414E+03</pdfrwt>
<totfact> 0.67311139E+04</totfact>
</mgrwt>
</event>
<event>
 7    0  0.4766352E-002  0.4577223E+03  0.7546771E-02  0.1025444E+00
         21   -1    0    0  502  501  0.00000000000E+00  0.00000000000E+00  0.13587539810E+04  0.13587539810E+04  0.00000000000E+00 0. -1.
         21   -1    0    0  501  502 -0.00000000000E+00 -0.00000000000E+00 -0.38548127284E+02  0.38548127284E+02  0.00000000000E+00 0. -1.
      99926    2    1    2    0    0  0.00000000000E+00  0.00000000000E+00  0.13202058537E+04  0.13973021083E+04  0.45772228003E+03 0.  0.
      99925    2    3    3    0    0 -0.35024958706E+02 -0.19737457754E+02  0.49759941253E+03  0.56426838739E+03  0.26301582212E+03 0.  0.
         25    1    4    4    0    0  0.40893715732E+01 -0.12602585782E+02  0.17102069847E+03  0.21229963621E+03  0.12509000000E+03 0.  0.
         25    1    4    4    0    0 -0.39114330279E+02 -0.71348719722E+01  0.32657871406E+03  0.35196875118E+03  0.12509000000E+03 0.  0.
         25    1    3    3    0    0  0.35024958706E+02  0.19737457754E+02  0.82260644121E+03  0.83303372092E+03  0.12509000000E+03 0.  0.
<mgrwt>
<rscale>  2 0.45772228E+03</rscale>
<asrwt>0</asrwt>
<pdfrwt beam="1">  1       21 0.19981673E+00 0.45772228E+03</pdfrwt>
<pdfrwt beam="2">  1       21 0.56688431E-02 0.45772228E+03</pdfrwt>
<totfact> 0.25852717E+04</totfact>
</mgrwt>
</event>
<event>
 7    0  0.4766352E-002  0.4543216E+03  0.7546771E-02  0.1026441E+00
         21   -1    0    0  502  501  0.00000000000E+00  0.00000000000E+00  0.36098216823E+02  0.36098216823E+02  0.00000000000E+00 0.  1.
         21   -1    0    0  501  502 -0.00000000000E+00 -0.00000000000E+00 -0.14294894785E+04  0.14294894785E+04  0.00000000000E+00 0.  1.
      99926    2    1    2    0    0  0.00000000000E+00 -0.17763568394E-14 -0.13933912617E+04  0.14655876954E+04  0.45432156516E+03 0.  0.
      99925    2    3    3    0    0  0.10597115648E+03 -0.13038186287E+02 -0.99200753698E+03  0.10318178452E+04  0.26300044105E+03 0.  0.
         25    1    4    4    0    0  0.53338856241E+02  0.34021497172E+02 -0.49734365236E+03  0.51672111675E+03  0.12509000000E+03 0.  0.
         25    1    4    4    0    0  0.52632300235E+02 -0.47059683459E+02 -0.49466388462E+03  0.51509672847E+03  0.12509000000E+03 0.  0.
         25    1    3    3    0    0 -0.10597115648E+03  0.13038186287E+02 -0.40138372474E+03  0.43376985014E+03  0.12509000000E+03 0.  0.
<mgrwt>
<rscale>  2 0.45432157E+03</rscale>
<asrwt>0</asrwt>
<pdfrwt beam="1">  1       21 0.53085607E-02 0.45432157E+03</pdfrwt>
<pdfrwt beam="2">  1       21 0.21021907E+00 0.45432157E+03</pdfrwt>
<totfact> 0.24765480E+04</totfact>
</mgrwt>
</event>
<event>
 7    0  0.4766352E-002  0.4589109E+03  0.7546771E-02  0.1025098E+00
         21   -1    0    0  502  501  0.00000000000E+00  0.00000000000E+00  0.50029717719E+03  0.50029717719E+03  0.00000000000E+00 0. -1.
         21   -1    0    0  501  502 -0.00000000000E+00 -0.00000000000E+00 -0.10523705598E+03  0.10523705598E+03  0.00000000000E+00 0. -1.
      99926    2    1    2    0    0  0.00000000000E+00  0.00000000000E+00  0.39506012121E+03  0.60553423317E+03  0.45891089350E+03 0.  0.
      99925    2    3    3    0    0  0.92547514527E+02 -0.61570322740E+02  0.20072067958E+03  0.34907512579E+03  0.26307547424E+03 0.  0.
         25    1    4    4    0    0  0.66665166869E+02 -0.35934861434E+02  0.14937560096E+03  0.20903620979E+03  0.12509000000E+03 0.  0.
         25    1    3    3    0    0 -0.92547514527E+02  0.61570322740E+02  0.19433944162E+03  0.25645910738E+03  0.12509000000E+03 0.  0.
         25    1    4    4    0    0  0.25882347658E+02 -0.25635461306E+02  0.51345078618E+02  0.14003891600E+03  0.12509000000E+03 0.  0.
<mgrwt>
<rscale>  2 0.45891089E+03</rscale>
<asrwt>0</asrwt>
<pdfrwt beam="1">  1       21 0.73573113E-01 0.45891089E+03</pdfrwt>
<pdfrwt beam="2">  1       21 0.15476038E-01 0.45891089E+03</pdfrwt>
<totfact> 0.56570701E+04</totfact>
</mgrwt>
</event>
<event>
 7    0  0.4766352E-002  0.4553250E+03  0.7546771E-02  0.1026146E+00
         21   -1    0    0  502  501  0.00000000000E+00  0.00000000000E+00  0.97906250626E+02  0.97906250626E+02  0.00000000000E+00 0. -1.
         21   -1    0    0  501  502 -0.00000000000E+00 -0.00000000000E+00 -0.52938607941E+03  0.52938607941E+03  0.00000000000E+00 0. -1.
      99926    2    1    2    0    0  0.71054273576E-14  0.00000000000E+00 -0.43147982878E+03  0.62729233003E+03  0.45532496601E+03 0.  0.
      99925    2    3    3    0    0 -0.36992898008E+02 -0.18313121087E+02 -0.12594406203E+03  0.29457103860E+03  0.26307098874E+03 0.  0.
         25    1    3    3    0    0  0.36992898008E+02  0.18313121087E+02 -0.30553576676E+03  0.33272129144E+03  0.12509000000E+03 0.  0.
         25    1    4    4    0    0 -0.32899653437E+00 -0.40682243029E+02 -0.42700042469E+02  0.13829661913E+03  0.12509000000E+03 0.  0.
         25    1    4    4    0    0 -0.36663901473E+02  0.22369121942E+02 -0.83244019556E+02  0.15627441947E+03  0.12509000000E+03 0.  0.
<mgrwt>
<rscale>  2 0.45532497E+03</rscale>
<asrwt>0</asrwt>
<pdfrwt beam="1">  1       21 0.14397978E-01 0.45532497E+03</pdfrwt>
<pdfrwt beam="2">  1       21 0.77850894E-01 0.45532497E+03</pdfrwt>
<totfact> 0.56882955E+04</totfact>
</mgrwt>
</event>
<event>
 7    0  0.4766352E-002  0.4455889E+03  0.7546771E-02  0.1029046E+00
         21   -1    0    0  502  501  0.00000000000E+00  0.00000000000E+00  0.60238452579E+03  0.60238452579E+03  0.00000000000E+00 0.  1.
         21   -1    0    0  501  502 -0.00000000000E+00 -0.00000000000E+00 -0.82401467645E+02  0.82401467645E+02  0.00000000000E+00 0.  1.
      99926    2    1    2    0    0  0.00000000000E+00  0.00000000000E+00  0.51998305815E+03  0.68478599344E+03  0.44558890925E+03 0.  0.
      99925    2    3    3    0    0 -0.25760826281E+02  0.80323750761E+02  0.23639628599E+03  0.36356256567E+03  0.26301902976E+03 0.  0.
         25    1    4    4    0    0 -0.84355678922E+01  0.49184688687E+02  0.17192507437E+03  0.21839421170E+03  0.12509000000E+03 0.  0.
         25    1    3    3    0    0  0.25760826281E+02 -0.80323750761E+02  0.28358677215E+03  0.32122342777E+03  0.12509000000E+03 0.  0.
         25    1    4    4    0    0 -0.17325258388E+02  0.31139062074E+02  0.64471211617E+02  0.14516835396E+03  0.12509000000E+03 0.  0.
<mgrwt>
<rscale>  2 0.44558891E+03</rscale>
<asrwt>0</asrwt>
<pdfrwt beam="1">  1       21 0.88585958E-01 0.44558891E+03</pdfrwt>
<pdfrwt beam="2">  1       21 0.12117863E-01 0.44558891E+03</pdfrwt>
<totfact> 0.57909921E+04</totfact>
</mgrwt>
</event>
<event>
 7    0  0.4766352E-002  0.4484961E+03  0.7546771E-02  0.1028171E+00
         21   -1    0    0  502  501  0.00000000000E+00  0.00000000000E+00  0.96352941939E+02  0.96352941939E+02  0.00000000000E+00 0.  1.
         21   -1    0    0  501  502 -0.00000000000E+00 -0.00000000000E+00 -0.52190612706E+03  0.52190612706E+03  0.00000000000E+00 0.  1.
      99926    2    1    2    0    0  0.00000000000E+00  0.00000000000E+00 -0.42555318512E+03  0.61825906900E+03  0.44849611262E+03 0.  0.
      99925    2    3    3    0    0 -0.49764041060E+02  0.94541691344E+02 -0.27287260122E+03  0.39381874289E+03  0.26309533361E+03 0.  0.
         25    1    4    4    0    0 -0.45699909111E+02  0.85541902652E+02 -0.15950723941E+03  0.22471307556E+03  0.12509000000E+03 0.  0.
         25    1    3    3    0    0  0.49764041060E+02 -0.94541691344E+02 -0.15268058390E+03  0.22444032611E+03  0.12509000000E+03 0.  0.
         25    1    4    4    0    0 -0.40641319493E+01  0.89997886925E+01 -0.11336536181E+03  0.16910566733E+03  0.12509000000E+03 0.  0.
<mgrwt>
<rscale>  2 0.44849611E+03</rscale>
<asrwt>0</asrwt>
<pdfrwt beam="1">  1       21 0.14169550E-01 0.44849611E+03</pdfrwt>
<pdfrwt beam="2">  1       21 0.76750903E-01 0.44849611E+03</pdfrwt>
<totfact> 0.60622223E+04</totfact>
</mgrwt>
</event>
<event>
 7    0  0.4766352E-002  0.4581998E+03  0.7546771E-02  0.1025305E+00
         21   -1    0    0  502  501  0.00000000000E+00  0.00000000000E+00  0.28761402869E+03  0.28761402869E+03  0.00000000000E+00 0.  1.
         21   -1    0    0  501  502 -0.00000000000E+00 -0.00000000000E+00 -0.18249024361E+03  0.18249024361E+03  0.00000000000E+00 0.  1.
      99926    2    1    2    0    0  0.35527136788E-14  0.00000000000E+00  0.10512378508E+03  0.47010427231E+03  0.45819975628E+03 0.  0.
      99925    2    3    3    0    0  0.20231048266E+02 -0.10395751423E+03  0.11500242484E+03  0.30590452900E+03  0.26293642399E+03 0.  0.
         25    1    3    3    0    0 -0.20231048266E+02  0.10395751423E+03 -0.98786397652E+01  0.16419974331E+03  0.12509000000E+03 0.  0.
         25    1    4    4    0    0  0.14325956424E+02 -0.89733824142E+02  0.41837731609E+02  0.16017270713E+03  0.12509000000E+03 0.  0.
         25    1    4    4    0    0  0.59050918423E+01 -0.14223690091E+02  0.73164693234E+02  0.14573182187E+03  0.12509000000E+03 0.  0.
<mgrwt>
<rscale>  2 0.45819976E+03</rscale>
<asrwt>0</asrwt>
<pdfrwt beam="1">  1       21 0.42296181E-01 0.45819976E+03</pdfrwt>
<pdfrwt beam="2">  1       21 0.26836801E-01 0.45819976E+03</pdfrwt>
<totfact> 0.65743578E+04</totfact>
</mgrwt>
</event>
<event>
 7    0  0.4766352E-002  0.4543555E+03  0.7546771E-02  0.1026431E+00
         21   -1    0    0  502  501  0.00000000000E+00  0.00000000000E+00  0.39578767381E+02  0.39578767381E+02  0.00000000000E+00 0. -1.
         21   -1    0    0  501  502 -0.00000000000E+00 -0.00000000000E+00 -0.13039753258E+04  0.13039753258E+04  0.00000000000E+00 0. -1.
      99926    2    1    2    0    0  0.14210854715E-13  0.00000000000E+00 -0.12643965584E+04  0.13435540932E+04  0.45435552639E+03 0.  0.
      99925    2    3    3    0    0 -0.93715961762E+02 -0.60605523786E+02 -0.75162464169E+03  0.80407447569E+03  0.26294571580E+03 0.  0.
         25    1    3    3    0    0  0.93715961762E+02  0.60605523786E+02 -0.51277191673E+03  0.53947961749E+03  0.12509000000E+03 0.  0.
         25    1    4    4    0    0 -0.73276865104E+02 -0.22032069263E+02 -0.47933631705E+03  0.50126412596E+03  0.12509000000E+03 0.  0.
         25    1    4    4    0    0 -0.20439096657E+02 -0.38573454523E+02 -0.27228832464E+03  0.30281034973E+03  0.12509000000E+03 0.  0.
<mgrwt>
<rscale>  2 0.45435553E+03</rscale>
<asrwt>0</asrwt>
<pdfrwt beam="1">  1       21 0.58204085E-02 0.45435553E+03</pdfrwt>
<pdfrwt beam="2">  1       21 0.19176103E+00 0.45435553E+03</pdfrwt>
<totfact> 0.28015730E+04</totfact>
</mgrwt>
</event>
<event>
 7    0  0.4766352E-002  0.4631056E+03  0.7546771E-02  0.1023884E+00
         21   -1    0    0  502  501  0.00000000000E+00  0.00000000000E+00  0.43111846877E+02  0.43111846877E+02  0.00000000000E+00 0.  1.
         21   -1    0    0  501  502 -0.00000000000E+00 -0.00000000000E+00 -0.12436652777E+04  0.12436652777E+04  0.00000000000E+00 0.  1.
      99926    2    1    2    0    0  0.00000000000E+00 -0.14210854715E-13 -0.12005534308E+04  0.12867771246E+04  0.46310563382E+03 0.  0.
      99925    2    3    3    0    0 -0.34282999998E+02  0.11437869146E+03 -0.70165296777E+03  0.75875535487E+03  0.26293533848E+03 0.  0.
         25    1    4    4    0    0 -0.23183424343E+02  0.14270035594E+02 -0.32380451229E+03  0.34819244012E+03  0.12509000000E+03 0.  0.
         25    1    4    4    0    0 -0.11099575655E+02  0.10010865586E+03 -0.37784845548E+03  0.41056291475E+03  0.12509000000E+03 0.  0.
         25    1    3    3    0    0  0.34282999998E+02 -0.11437869146E+03 -0.49890046305E+03  0.52802176970E+03  0.12509000000E+03 0.  0.
<mgrwt>
<rscale>  2 0.46310563E+03</rscale>
<asrwt>0</asrwt>
<pdfrwt beam="1">  1       21 0.63399766E-02 0.46310563E+03</pdfrwt>
<pdfrwt beam="2">  1       21 0.18289198E+00 0.46310563E+03</pdfrwt>
<totfact> 0.27711619E+04</totfact>
</mgrwt>
</event>
<event>
 7    0  0.4766352E-002  0.4526335E+03  0.7546771E-02  0.1026940E+00
         21   -1    0    0  502  501  0.00000000000E+00  0.00000000000E+00  0.57831894331E+02  0.57831894331E+02  0.00000000000E+00 0.  1.
         21   -1    0    0  501  502 -0.00000000000E+00 -0.00000000000E+00 -0.88565778243E+03  0.88565778243E+03  0.00000000000E+00 0.  1.
      99926    2    1    2    0    0  0.00000000000E+00  0.00000000000E+00 -0.82782588810E+03  0.94348967676E+03  0.45263348213E+03 0.  0.
      99925    2    3    3    0    0 -0.60768880268E+02 -0.74887717092E+02 -0.40724356117E+03  0.49422580240E+03  0.26288932779E+03 0.  0.
         25    1    4    4    0    0 -0.40377556284E+02 -0.61132403935E+02 -0.27294833927E+03  0.30905634094E+03  0.12509000000E+03 0.  0.
         25    1    3    3    0    0  0.60768880268E+02  0.74887717092E+02 -0.42058232693E+03  0.44926387436E+03  0.12509000000E+03 0.  0.
         25    1    4    4    0    0 -0.20391323984E+02 -0.13755313158E+02 -0.13429522190E+03  0.18516946146E+03  0.12509000000E+03 0.  0.
<mgrwt>
<rscale>  2 0.45263348E+03</rscale>
<asrwt>0</asrwt>
<pdfrwt beam="1">  1       21 0.85046910E-02 0.45263348E+03</pdfrwt>
<pdfrwt beam="2">  1       21 0.13024378E+00 0.45263348E+03</pdfrwt>
<totfact> 0.42180795E+04</totfact>
</mgrwt>
</event>
<event>
 7    0  0.4766352E-002  0.4313027E+03  0.7546771E-02  0.1033449E+00
         21   -1    0    0  502  501  0.00000000000E+00  0.00000000000E+00  0.18795428804E+03  0.18795428804E+03  0.00000000000E+00 0.  1.
         21   -1    0    0  501  502 -0.00000000000E+00 -0.00000000000E+00 -0.24742981944E+03  0.24742981944E+03  0.00000000000E+00 0.  1.
      99926    2    1    2    0    0 -0.17763568394E-14  0.00000000000E+00 -0.59475531394E+02  0.43538410748E+03  0.43130265732E+03 0.  0.
      99925    2    3    3    0    0  0.87279462444E+01  0.88476502627E+02 -0.30474194981E+02  0.27920198886E+03  0.26290835944E+03 0.  0.
         25    1    4    4    0    0 -0.15968159071E+02  0.54602229498E+02  0.18122618025E+02  0.13860852410E+03  0.12509000000E+03 0.  0.
         25    1    3    3    0    0 -0.87279462444E+01 -0.88476502627E+02 -0.29001336412E+02  0.15618211862E+03  0.12509000000E+03 0.  0.
         25    1    4    4    0    0  0.24696105315E+02  0.33874273129E+02 -0.48596813006E+02  0.14059346476E+03  0.12509000000E+03 0.  0.
<mgrwt>
<rscale>  2 0.43130266E+03</rscale>
<asrwt>0</asrwt>
<pdfrwt beam="1">  1       21 0.27640337E-01 0.43130266E+03</pdfrwt>
<pdfrwt beam="2">  1       21 0.36386738E-01 0.43130266E+03</pdfrwt>
<totfact> 0.84970848E+04</totfact>
</mgrwt>
</event>
<event>
 7    0  0.4766352E-002  0.4583924E+03  0.7546771E-02  0.1025249E+00
         21   -1    0    0  502  501  0.00000000000E+00  0.00000000000E+00  0.59895724269E+03  0.59895724269E+03  0.00000000000E+00 0.  1.
         21   -1    0    0  501  502 -0.00000000000E+00 -0.00000000000E+00 -0.87703902269E+02  0.87703902269E+02  0.00000000000E+00 0.  1.
      99926    2    1    2    0    0 -0.14210854715E-13 -0.71054273576E-14  0.51125334042E+03  0.68666114496E+03  0.45839235367E+03 0.  0.
      99925    2    3    3    0    0 -0.10124151679E+03 -0.52748116178E+02  0.28742473782E+03  0.40598524660E+03  0.26301869146E+03 0.  0.
         25    1    4    4    0    0 -0.75184016130E+02 -0.54537808405E+02  0.12781215007E+03  0.20152037771E+03  0.12509000000E+03 0.  0.
         25    1    4    4    0    0 -0.26057500655E+02  0.17896922269E+01  0.15961258775E+03  0.20446486888E+03  0.12509000000E+03 0.  0.
         25    1    3    3    0    0  0.10124151679E+03  0.52748116178E+02  0.22382860260E+03  0.28067589836E+03  0.12509000000E+03 0.  0.
<mgrwt>
<rscale>  2 0.45839235E+03</rscale>
<asrwt>0</asrwt>
<pdfrwt beam="1">  1       21 0.88081945E-01 0.45839235E+03</pdfrwt>
<pdfrwt beam="2">  1       21 0.12897633E-01 0.45839235E+03</pdfrwt>
<totfact> 0.52224535E+04</totfact>
</mgrwt>
</event>
<event>
 7    0  0.4766352E-002  0.4545339E+03  0.7546771E-02  0.1026379E+00
         21   -1    0    0  502  501  0.00000000000E+00  0.00000000000E+00  0.81074582367E+02  0.81074582367E+02  0.00000000000E+00 0. -1.
         21   -1    0    0  501  502 -0.00000000000E+00 -0.00000000000E+00 -0.63707089796E+03  0.63707089796E+03  0.00000000000E+00 0. -1.
      99926    2    1    2    0    0  0.00000000000E+00  0.00000000000E+00 -0.55599631559E+03  0.71814548033E+03  0.45453385788E+03 0.  0.
      99925    2    3    3    0    0  0.71013317762E+02 -0.81789599070E+02 -0.30099467706E+03  0.41416230058E+03  0.26305928188E+03 0.  0.
         25    1    3    3    0    0 -0.71013317762E+02  0.81789599070E+02 -0.25500163854E+03  0.30398317975E+03  0.12509000000E+03 0.  0.
         25    1    4    4    0    0  0.43900230581E+02 -0.89888537957E+01 -0.10692940003E+03  0.17055625004E+03  0.12509000000E+03 0.  0.
         25    1    4    4    0    0  0.27113087181E+02 -0.72800745274E+02 -0.19406527703E+03  0.24360605053E+03  0.12509000000E+03 0.  0.
<mgrwt>
<rscale>  2 0.45453386E+03</rscale>
<asrwt>0</asrwt>
<pdfrwt beam="1">  1       21 0.11922732E-01 0.45453386E+03</pdfrwt>
<pdfrwt beam="2">  1       21 0.93686900E-01 0.45453386E+03</pdfrwt>
<totfact> 0.52119701E+04</totfact>
</mgrwt>
</event>
<event>
 7    0  0.4766352E-002  0.4555819E+03  0.7546771E-02  0.1026070E+00
         21   -1    0    0  502  501  0.00000000000E+00  0.00000000000E+00  0.14405434671E+03  0.14405434671E+03  0.00000000000E+00 0.  1.
         21   -1    0    0  501  502 -0.00000000000E+00 -0.00000000000E+00 -0.36020235380E+03  0.36020235380E+03  0.00000000000E+00 0.  1.
      99926    2    1    2    0    0  0.00000000000E+00  0.14210854715E-13 -0.21614800710E+03  0.50425670051E+03  0.45558189059E+03 0.  0.
      99925    2    3    3    0    0  0.65096141152E+02  0.69015210594E+02 -0.20536644676E+03  0.34688975026E+03  0.26297626223E+03 0.  0.
         25    1    4    4    0    0  0.68409584964E+02  0.40888648688E+02 -0.13520206298E+03  0.20069593629E+03  0.12509000000E+03 0.  0.
         25    1    4    4    0    0 -0.33134438124E+01  0.28126561906E+02 -0.70164383779E+02  0.14619381398E+03  0.12509000000E+03 0.  0.
         25    1    3    3    0    0 -0.65096141152E+02 -0.69015210594E+02 -0.10781560334E+02  0.15736695025E+03  0.12509000000E+03 0.  0.
<mgrwt>
<rscale>  2 0.45558189E+03</rscale>
<asrwt>0</asrwt>
<pdfrwt beam="1">  1       21 0.21184463E-01 0.45558189E+03</pdfrwt>
<pdfrwt beam="2">  1       21 0.52970934E-01 0.45558189E+03</pdfrwt>
<totfact> 0.64673413E+04</totfact>
</mgrwt>
</event>
<event>
 7    0  0.4766352E-002  0.4489807E+03  0.7546771E-02  0.1028026E+00
         21   -1    0    0  502  501  0.00000000000E+00  0.00000000000E+00  0.12425536410E+04  0.12425536410E+04  0.00000000000E+00 0. -1.
         21   -1    0    0  501  502 -0.00000000000E+00 -0.00000000000E+00 -0.40558350004E+02  0.40558350004E+02  0.00000000000E+00 0. -1.
      99926    2    1    2    0    0  0.71054273576E-14  0.71054273576E-14  0.12019952910E+04  0.12831119911E+04  0.44898073666E+03 0.  0.
      99925    2    3    3    0    0 -0.54953853594E+02 -0.63073271993E+02  0.95321545615E+03  0.99235938485E+03  0.26298151872E+03 0.  0.
         25    1    3    3    0    0  0.54953853594E+02  0.63073271993E+02  0.24877983489E+03  0.29075260620E+03  0.12509000000E+03 0.  0.
         25    1    4    4    0    0 -0.18595797283E+02 -0.28965639953E+01  0.55037746571E+03  0.56472741798E+03  0.12509000000E+03 0.  0.
         25    1    4    4    0    0 -0.36358056310E+02 -0.60176707997E+02  0.40283799045E+03  0.42763196687E+03  0.12509000000E+03 0.  0.
<mgrwt>
<rscale>  2 0.44898074E+03</rscale>
<asrwt>0</asrwt>
<pdfrwt beam="1">  1       21 0.18272845E+00 0.44898074E+03</pdfrwt>
<pdfrwt beam="2">  1       21 0.59644640E-02 0.44898074E+03</pdfrwt>
<totfact> 0.31037086E+04</totfact>
</mgrwt>
</event>
<event>
 7    0  0.4766352E-002  0.4510942E+03  0.7546771E-02  0.1027396E+00
         21   -1    0    0  502  501  0.00000000000E+00  0.00000000000E+00  0.17425296662E+03  0.17425296662E+03  0.00000000000E+00 0.  1.
         21   -1    0    0  501  502 -0.00000000000E+00 -0.00000000000E+00 -0.29194045561E+03  0.29194045561E+03  0.00000000000E+00 0.  1.
      99926    2    1    2    0    0  0.14210854715E-13 -0.71054273576E-14 -0.11768748899E+03  0.46619342224E+03  0.45109418293E+03 0.  0.
      99925    2    3    3    0    0 -0.66614446670E+02  0.32377030476E+02  0.90990616814E+01  0.27329942508E+03  0.26291448461E+03 0.  0.
         25    1    3    3    0    0  0.66614446670E+02 -0.32377030476E+02 -0.12678655067E+03  0.19289399715E+03  0.12509000000E+03 0.  0.
         25    1    4    4    0    0 -0.70904346928E+02  0.83385807440E+01  0.19872517806E+02  0.14539389054E+03  0.12509000000E+03 0.  0.
         25    1    4    4    0    0  0.42899002577E+01  0.24038449732E+02 -0.10773456124E+02  0.12790553454E+03  0.12509000000E+03 0.  0.
<mgrwt>
<rscale>  2 0.45109418E+03</rscale>
<asrwt>0</asrwt>
<pdfrwt beam="1">  1       21 0.25625437E-01 0.45109418E+03</pdfrwt>
<pdfrwt beam="2">  1       21 0.42932419E-01 0.45109418E+03</pdfrwt>
<totfact> 0.69859456E+04</totfact>
</mgrwt>
</event>
<event>
 7    0  0.4766352E-002  0.4590720E+03  0.7546771E-02  0.1025051E+00
         21   -1    0    0  502  501  0.00000000000E+00  0.00000000000E+00  0.75093705410E+02  0.75093705410E+02  0.00000000000E+00 0. -1.
         21   -1    0    0  501  502 -0.00000000000E+00 -0.00000000000E+00 -0.70161384019E+03  0.70161384019E+03  0.00000000000E+00 0. -1.
      99926    2    1    2    0    0  0.00000000000E+00 -0.35527136788E-14 -0.62652013478E+03  0.77670754560E+03  0.45907203368E+03 0.  0.
      99925    2    3    3    0    0  0.21651993540E+02 -0.20189828061E+02 -0.58421081383E+03  0.64137822608E+03  0.26303481884E+03 0.  0.
         25    1    4    4    0    0  0.37667662783E+02 -0.40345304019E+02 -0.31618051277E+03  0.34447673525E+03  0.12509000000E+03 0.  0.
         25    1    3    3    0    0 -0.21651993540E+02  0.20189828061E+02 -0.42309320956E+02  0.13532931952E+03  0.12509000000E+03 0.  0.
         25    1    4    4    0    0 -0.16015669243E+02  0.20155475958E+02 -0.26803030106E+03  0.29690149083E+03  0.12509000000E+03 0.  0.
<mgrwt>
<rscale>  2 0.45907203E+03</rscale>
<asrwt>0</asrwt>
<pdfrwt beam="1">  1       21 0.11043191E-01 0.45907203E+03</pdfrwt>
<pdfrwt beam="2">  1       21 0.10317851E+00 0.45907203E+03</pdfrwt>
<totfact> 0.47379452E+04</totfact>
</mgrwt>
</event>
<event>
 7    0  0.4766352E-002  0.4500153E+03  0.7546771E-02  0.1027717E+00
         21   -1    0    0  502  501  0.00000000000E+00  0.00000000000E+00  0.17694408249E+03  0.17694408249E+03  0.00000000000E+00 0.  1.
         21   -1    0    0  501  502 -0.00000000000E+00 -0.00000000000E+00 -0.28612673152E+03  0.28612673152E+03  0.00000000000E+00 0.  1.
      99926    2    1    2    0    0  0.00000000000E+00  0.00000000000E+00 -0.10918264904E+03  0.46307081401E+03  0.45001525300E+03 0.  0.
      99925    2    3    3    0    0  0.87794310003E+02  0.21017238049E+02 -0.13081295270E+03  0.30729872633E+03  0.26300363770E+03 0.  0.
         25    1    3    3    0    0 -0.87794310003E+02 -0.21017238049E+02  0.21630303666E+02  0.15577208768E+03  0.12509000000E+03 0.  0.
         25    1    4    4    0    0  0.51355861174E+01  0.90034636696E+01 -0.78514588209E+02  0.14805230584E+03  0.12509000000E+03 0.  0.
         25    1    4    4    0    0  0.82658723885E+02  0.12013774380E+02 -0.52298364493E+02  0.15924642049E+03  0.12509000000E+03 0.  0.
<mgrwt>
<rscale>  2 0.45001525E+03</rscale>
<asrwt>0</asrwt>
<pdfrwt beam="1">  1       21 0.26021189E-01 0.45001525E+03</pdfrwt>
<pdfrwt beam="2">  1       21 0.42077460E-01 0.45001525E+03</pdfrwt>
<totfact> 0.70709496E+04</totfact>
</mgrwt>
</event>
<event>
 7    0  0.4766352E-002  0.4515165E+03  0.7546771E-02  0.1027271E+00
         21   -1    0    0  502  501  0.00000000000E+00  0.00000000000E+00  0.92397228324E+03  0.92397228324E+03  0.00000000000E+00 0. -1.
         21   -1    0    0  501  502 -0.00000000000E+00 -0.00000000000E+00 -0.55160516129E+02  0.55160516129E+02  0.00000000000E+00 0. -1.
      99926    2    1    2    0    0  0.00000000000E+00  0.00000000000E+00  0.86881176711E+03  0.97913279937E+03  0.45151650261E+03 0.  0.
      99925    2    3    3    0    0 -0.33266623548E+02  0.49584483974E+02  0.74825124884E+03  0.79542750288E+03  0.26317236110E+03 0.  0.
         25    1    3    3    0    0  0.33266623548E+02 -0.49584483974E+02  0.12056051827E+03  0.18370529649E+03  0.12509000000E+03 0.  0.
         25    1    4    4    0    0  0.15977601311E+02  0.20280133740E+02  0.28805475782E+03  0.31510255342E+03  0.12509000000E+03 0.  0.
         25    1    4    4    0    0 -0.49244224858E+02  0.29304350234E+02  0.46019649103E+03  0.48032494946E+03  0.12509000000E+03 0.  0.
<mgrwt>
<rscale>  2 0.45151650E+03</rscale>
<asrwt>0</asrwt>
<pdfrwt beam="1">  1       21 0.13587827E+00 0.45151650E+03</pdfrwt>
<pdfrwt beam="2">  1       21 0.81118412E-02 0.45151650E+03</pdfrwt>
<totfact> 0.41090551E+04</totfact>
</mgrwt>
</event>
<event>
 7    0  0.4766352E-002  0.4533317E+03  0.7546771E-02  0.1026733E+00
         21   -1    0    0  502  501  0.00000000000E+00  0.00000000000E+00  0.11704784910E+04  0.11704784910E+04  0.00000000000E+00 0. -1.
         21   -1    0    0  501  502 -0.00000000000E+00 -0.00000000000E+00 -0.43894364948E+02  0.43894364948E+02  0.00000000000E+00 0. -1.
      99926    2    1    2    0    0 -0.71054273576E-14 -0.33306690739E-15  0.11265841260E+04  0.12143728559E+04  0.45333171099E+03 0.  0.
      99925    2    3    3    0    0 -0.40194346363E+02  0.53179334080E+00  0.43106379667E+03  0.50655091155E+03  0.26298661736E+03 0.  0.
         25    1    4    4    0    0 -0.12286707181E+02 -0.21473452514E+02  0.27701055913E+03  0.30494988163E+03  0.12509000000E+03 0.  0.
         25    1    3    3    0    0  0.40194346363E+02 -0.53179334080E+00  0.69552032937E+03  0.70782194438E+03  0.12509000000E+03 0.  0.
         25    1    4    4    0    0 -0.27907639182E+02  0.22005245855E+02  0.15405323754E+03  0.20160102993E+03  0.12509000000E+03 0.  0.
<mgrwt>
<rscale>  2 0.45333171E+03</rscale>
<asrwt>0</asrwt>
<pdfrwt beam="1">  1       21 0.17212917E+00 0.45333171E+03</pdfrwt>
<pdfrwt beam="2">  1       21 0.64550544E-02 0.45333171E+03</pdfrwt>
<totfact> 0.32119033E+04</totfact>
</mgrwt>
</event>
<event>
 7    0  0.4766352E-002  0.4517387E+03  0.7546771E-02  0.1027205E+00
         21   -1    0    0  502  501  0.00000000000E+00  0.00000000000E+00  0.27956760817E+03  0.27956760817E+03  0.00000000000E+00 0.  1.
         21   -1    0    0  501  502 -0.00000000000E+00 -0.00000000000E+00 -0.18248525180E+03  0.18248525180E+03  0.00000000000E+00 0.  1.
      99926    2    1    2    0    0  0.53290705182E-14  0.00000000000E+00  0.97082356371E+02  0.46205285997E+03  0.45173870930E+03 0.  0.
      99925    2    3    3    0    0 -0.11721578192E+02  0.10567195636E+03  0.32819151428E+02  0.28575417771E+03  0.26320029563E+03 0.  0.
         25    1    3    3    0    0  0.11721578192E+02 -0.10567195636E+03  0.64263204943E+02  0.17629868226E+03  0.12509000000E+03 0.  0.
         25    1    4    4    0    0  0.23072227340E+02  0.33675410687E+02 -0.78632768360E+01  0.13181691918E+03  0.12509000000E+03 0.  0.
         25    1    4    4    0    0 -0.34793805532E+02  0.71996545678E+02  0.40682428264E+02  0.15393725853E+03  0.12509000000E+03 0.  0.
<mgrwt>
<rscale>  2 0.45173871E+03</rscale>
<asrwt>0</asrwt>
<pdfrwt beam="1">  1       21 0.41112884E-01 0.45173871E+03</pdfrwt>
<pdfrwt beam="2">  1       21 0.26836066E-01 0.45173871E+03</pdfrwt>
<totfact> 0.69820718E+04</totfact>
</mgrwt>
</event>
<event>
 7    0  0.4766352E-002  0.4554733E+03  0.7546771E-02  0.1026102E+00
         21   -1    0    0  502  501  0.00000000000E+00  0.00000000000E+00  0.12144724242E+03  0.12144724242E+03  0.00000000000E+00 0. -1.
         21   -1    0    0  501  502 -0.00000000000E+00 -0.00000000000E+00 -0.42704952552E+03  0.42704952552E+03  0.00000000000E+00 0. -1.
      99926    2    1    2    0    0  0.00000000000E+00  0.00000000000E+00 -0.30560228310E+03  0.54849676794E+03  0.45547332414E+03 0.  0.
      99925    2    3    3    0    0 -0.20241452542E+02  0.11170706419E+03 -0.18492578264E+03  0.34089496050E+03  0.26291375851E+03 0.  0.
         25    1    3    3    0    0  0.20241452542E+02 -0.11170706419E+03 -0.12067650045E+03  0.20760180744E+03  0.12509000000E+03 0.  0.
         25    1    4    4    0    0  0.26523599164E+02  0.57888389203E+02 -0.11156311762E+03  0.17929976082E+03  0.12509000000E+03 0.  0.
         25    1    4    4    0    0 -0.46765051707E+02  0.53818674988E+02 -0.73362665024E+02  0.16159519967E+03  0.12509000000E+03 0.  0.
<mgrwt>
<rscale>  2 0.45547332E+03</rscale>
<asrwt>0</asrwt>
<pdfrwt beam="1">  1       21 0.17859889E-01 0.45547332E+03</pdfrwt>
<pdfrwt beam="2">  1       21 0.62801400E-01 0.45547332E+03</pdfrwt>
<totfact> 0.61734433E+04</totfact>
</mgrwt>
</event>
<event>
 7    0  0.4766352E-002  0.4529971E+03  0.7546771E-02  0.1026832E+00
         21   -1    0    0  502  501  0.00000000000E+00  0.00000000000E+00  0.50584317928E+03  0.50584317928E+03  0.00000000000E+00 0.  1.
         21   -1    0    0  501  502 -0.00000000000E+00 -0.00000000000E+00 -0.10141798349E+03  0.10141798349E+03  0.00000000000E+00 0.  1.
      99926    2    1    2    0    0  0.14210854715E-13  0.44408920985E-15  0.40442519579E+03  0.60726116277E+03  0.45299710906E+03 0.  0.
      99925    2    3    3    0    0  0.85461954699E+02 -0.13956896530E+01  0.15959403814E+03  0.31934538080E+03  0.26306942350E+03 0.  0.
         25    1    4    4    0    0  0.16453806503E+02 -0.13219175578E+02  0.10923154091E+03  0.16740523284E+03  0.12509000000E+03 0.  0.
         25    1    4    4    0    0  0.69008148196E+02  0.11823485925E+02  0.50362497233E+02  0.15194014797E+03  0.12509000000E+03 0.  0.
         25    1    3    3    0    0 -0.85461954699E+02  0.13956896530E+01  0.24483115765E+03  0.28791578197E+03  0.12509000000E+03 0.  0.
<mgrwt>
<rscale>  2 0.45299711E+03</rscale>
<asrwt>0</asrwt>
<pdfrwt beam="1">  1       21 0.74388702E-01 0.45299711E+03</pdfrwt>
<pdfrwt beam="2">  1       21 0.14914410E-01 0.45299711E+03</pdfrwt>
<totfact> 0.59164078E+04</totfact>
</mgrwt>
</event>
<event>
 7    0  0.4766352E-002  0.4563625E+03  0.7546771E-02  0.1025841E+00
         21   -1    0    0  502  501  0.00000000000E+00  0.00000000000E+00  0.12600415304E+03  0.12600415304E+03  0.00000000000E+00 0.  1.
         21   -1    0    0  501  502 -0.00000000000E+00 -0.00000000000E+00 -0.41321406208E+03  0.41321406208E+03  0.00000000000E+00 0.  1.
      99926    2    1    2    0    0  0.00000000000E+00  0.00000000000E+00 -0.28720990904E+03  0.53921821512E+03  0.45636252220E+03 0.  0.
      99925    2    3    3    0    0 -0.73232401460E+02  0.86119564257E+02 -0.15923884730E+03  0.32754945334E+03  0.26296781157E+03 0.  0.
         25    1    3    3    0    0  0.73232401460E+02 -0.86119564257E+02 -0.12797106173E+03  0.21166876178E+03  0.12509000000E+03 0.  0.
         25    1    4    4    0    0 -0.28129209217E+02  0.77371767755E+02 -0.10863419163E+03  0.18500415819E+03  0.12509000000E+03 0.  0.
         25    1    4    4    0    0 -0.45103192243E+02  0.87477965019E+01 -0.50604655673E+02  0.14254529515E+03  0.12509000000E+03 0.  0.
<mgrwt>
<rscale>  2 0.45636252E+03</rscale>
<asrwt>0</asrwt>
<pdfrwt beam="1">  1       21 0.18530022E-01 0.45636252E+03</pdfrwt>
<pdfrwt beam="2">  1       21 0.60766774E-01 0.45636252E+03</pdfrwt>
<totfact> 0.61914316E+04</totfact>
</mgrwt>
</event>
<event>
 7    0  0.4766352E-002  0.4283399E+03  0.7546771E-02  0.1034386E+00
         21   -1    0    0  502  501  0.00000000000E+00  0.00000000000E+00  0.34812162309E+03  0.34812162309E+03  0.00000000000E+00 0. -1.
         21   -1    0    0  501  502 -0.00000000000E+00 -0.00000000000E+00 -0.13176073192E+03  0.13176073192E+03  0.00000000000E+00 0. -1.
      99926    2    1    2    0    0  0.00000000000E+00 -0.17763568394E-14  0.21636089118E+03  0.47988235501E+03  0.42833986438E+03 0.  0.
      99925    2    3    3    0    0 -0.81294731048E+02 -0.13845650559E+02  0.11601621885E+03  0.29955737975E+03  0.26357982737E+03 0.  0.
         25    1    4    4    0    0 -0.49806509690E+02 -0.45608567122E+02  0.73764280796E+02  0.16015463472E+03  0.12509000000E+03 0.  0.
         25    1    4    4    0    0 -0.31488221358E+02  0.31762916563E+02  0.42251938050E+02  0.13940274503E+03  0.12509000000E+03 0.  0.
         25    1    3    3    0    0  0.81294731048E+02  0.13845650559E+02  0.10034467233E+03  0.18032497525E+03  0.12509000000E+03 0.  0.
<mgrwt>
<rscale>  2 0.42833986E+03</rscale>
<asrwt>0</asrwt>
<pdfrwt beam="1">  1       21 0.51194356E-01 0.42833986E+03</pdfrwt>
<pdfrwt beam="2">  1       21 0.19376578E-01 0.42833986E+03</pdfrwt>
<totfact> 0.82915171E+04</totfact>
</mgrwt>
</event>
<event>
 7    0  0.4766352E-002  0.4547568E+03  0.7546771E-02  0.1026313E+00
         21   -1    0    0  502  501  0.00000000000E+00  0.00000000000E+00  0.24347060630E+03  0.24347060630E+03  0.00000000000E+00 0.  1.
         21   -1    0    0  501  502 -0.00000000000E+00 -0.00000000000E+00 -0.21234979750E+03  0.21234979750E+03  0.00000000000E+00 0.  1.
      99926    2    1    2    0    0  0.00000000000E+00  0.00000000000E+00  0.31120808805E+02  0.45582040380E+03  0.45475678750E+03 0.  0.
      99925    2    3    3    0    0 -0.31552676055E+02 -0.38709895894E+02 -0.82104519217E+02  0.27986157222E+03  0.26284466919E+03 0.  0.
         25    1    4    4    0    0 -0.43224774208E+02 -0.25524714427E+02 -0.72814391023E+02  0.15319704890E+03  0.12509000000E+03 0.  0.
         25    1    4    4    0    0  0.11672098153E+02 -0.13185181467E+02 -0.92901281943E+01  0.12666452332E+03  0.12509000000E+03 0.  0.
         25    1    3    3    0    0  0.31552676055E+02  0.38709895894E+02  0.11322532802E+03  0.17595883158E+03  0.12509000000E+03 0.  0.
<mgrwt>
<rscale>  2 0.45475679E+03</rscale>
<asrwt>0</asrwt>
<pdfrwt beam="1">  1       21 0.35804501E-01 0.45475679E+03</pdfrwt>
<pdfrwt beam="2">  1       21 0.31227911E-01 0.45475679E+03</pdfrwt>
<totfact> 0.68618829E+04</totfact>
</mgrwt>
</event>
<event>
 7    0  0.4766352E-002  0.4472532E+03  0.7546771E-02  0.1028544E+00
         21   -1    0    0  502  501  0.00000000000E+00  0.00000000000E+00  0.10019641880E+03  0.10019641880E+03  0.00000000000E+00 0.  1.
         21   -1    0    0  501  502 -0.00000000000E+00 -0.00000000000E+00 -0.49910823894E+03  0.49910823894E+03  0.00000000000E+00 0.  1.
      99926    2    1    2    0    0  0.00000000000E+00  0.00000000000E+00 -0.39891182014E+03  0.59930465773E+03  0.44725320852E+03 0.  0.
      99925    2    3    3    0    0 -0.50747013891E+02  0.51759083609E+02 -0.35585076693E+03  0.44845365655E+03  0.26310958096E+03 0.  0.
         25    1    4    4    0    0 -0.48969791910E+02  0.24172555029E+02 -0.12833073387E+03  0.18734630578E+03  0.12509000000E+03 0.  0.
         25    1    3    3    0    0  0.50747013891E+02 -0.51759083609E+02 -0.43061053210E+02  0.15085100119E+03  0.12509000000E+03 0.  0.
         25    1    4    4    0    0 -0.17772219812E+01  0.27586528580E+02 -0.22752003307E+03  0.26110735076E+03  0.12509000000E+03 0.  0.
<mgrwt>
<rscale>  2 0.44725321E+03</rscale>
<asrwt>0</asrwt>
<pdfrwt beam="1">  1       21 0.14734768E-01 0.44725321E+03</pdfrwt>
<pdfrwt beam="2">  1       21 0.73398270E-01 0.44725321E+03</pdfrwt>
<totfact> 0.62457093E+04</totfact>
</mgrwt>
</event>
<event>
 7    0  0.4766352E-002  0.4493879E+03  0.7546771E-02  0.1027905E+00
         21   -1    0    0  502  501  0.00000000000E+00  0.00000000000E+00  0.10529539978E+03  0.10529539978E+03  0.00000000000E+00 0.  1.
         21   -1    0    0  501  502 -0.00000000000E+00 -0.00000000000E+00 -0.47948322859E+03  0.47948322859E+03  0.00000000000E+00 0.  1.
      99926    2    1    2    0    0  0.00000000000E+00  0.00000000000E+00 -0.37418782881E+03  0.58477862836E+03  0.44938793148E+03 0.  0.
      99925    2    3    3    0    0  0.25474990088E+02  0.83462205367E+01 -0.37150966349E+03  0.45682037272E+03  0.26447455142E+03 0.  0.
         25    1    4    4    0    0 -0.18925786377E+02 -0.15270906430E+02 -0.21798942280E+03  0.25250402477E+03  0.12509000000E+03 0.  0.
         25    1    3    3    0    0 -0.25474990088E+02 -0.83462205367E+01 -0.26781653162E+01  0.12795825564E+03  0.12509000000E+03 0.  0.
         25    1    4    4    0    0  0.44400776465E+02  0.23617126967E+02 -0.15352024070E+03  0.20431634795E+03  0.12509000000E+03 0.  0.
<mgrwt>
<rscale>  2 0.44938793E+03</rscale>
<asrwt>0</asrwt>
<pdfrwt beam="1">  1       21 0.15484617E-01 0.44938793E+03</pdfrwt>
<pdfrwt beam="2">  1       21 0.70512242E-01 0.44938793E+03</pdfrwt>
<totfact> 0.62345080E+04</totfact>
</mgrwt>
</event>
<event>
 7    0  0.4766352E-002  0.4502100E+03  0.7546771E-02  0.1027659E+00
         21   -1    0    0  502  501  0.00000000000E+00  0.00000000000E+00  0.67852925861E+03  0.67852925861E+03  0.00000000000E+00 0. -1.
         21   -1    0    0  501  502 -0.00000000000E+00 -0.00000000000E+00 -0.74679552585E+02  0.74679552585E+02  0.00000000000E+00 0. -1.
      99926    2    1    2    0    0 -0.71054273576E-14  0.00000000000E+00  0.60384970603E+03  0.75320881120E+03  0.45021000188E+03 0.  0.
      99925    2    3    3    0    0  0.55715969362E+02 -0.42830916704E+02  0.52006314852E+03  0.58705691688E+03  0.26311858265E+03 0.  0.
         25    1    3    3    0    0 -0.55715969362E+02  0.42830916704E+02  0.83786557502E+02  0.16615189432E+03  0.12509000000E+03 0.  0.
         25    1    4    4    0    0 -0.23892388154E+01 -0.29722259018E+02  0.19366713642E+03  0.23247277039E+03  0.12509000000E+03 0.  0.
         25    1    4    4    0    0  0.58105208177E+02 -0.13108657686E+02  0.32639601210E+03  0.35458414649E+03  0.12509000000E+03 0.  0.
<mgrwt>
<rscale>  2 0.45021000E+03</rscale>
<asrwt>0</asrwt>
<pdfrwt beam="1">  1       21 0.99783711E-01 0.45021000E+03</pdfrwt>
<pdfrwt beam="2">  1       21 0.10982288E-01 0.45021000E+03</pdfrwt>
<totfact> 0.52038907E+04</totfact>
</mgrwt>
</event>
<event>
 7    0  0.4766352E-002  0.4607341E+03  0.7546771E-02  0.1024569E+00
         21   -1    0    0  502  501  0.00000000000E+00  0.00000000000E+00  0.30152408030E+02  0.30152408030E+02  0.00000000000E+00 0.  1.
         21   -1    0    0  501  502 -0.00000000000E+00 -0.00000000000E+00 -0.17600243673E+04  0.17600243673E+04  0.00000000000E+00 0.  1.
      99926    2    1    2    0    0 -0.14210854715E-13  0.00000000000E+00 -0.17298719593E+04  0.17901767753E+04  0.46073407891E+03 0.  0.
      99925    2    3    3    0    0 -0.10951005366E+03 -0.22526233765E+02 -0.92365998296E+03  0.96669323457E+03  0.26238933397E+03 0.  0.
         25    1    4    4    0    0 -0.92045282272E+02  0.12649049569E+01 -0.45770468566E+03  0.48333737839E+03  0.12509000000E+03 0.  0.
         25    1    3    3    0    0  0.10951005366E+03  0.22526233765E+02 -0.80621197632E+03  0.82348354078E+03  0.12509000000E+03 0.  0.
         25    1    4    4    0    0 -0.17464771387E+02 -0.23791138722E+02 -0.46595529730E+03  0.48335585618E+03  0.12509000000E+03 0.  0.
<mgrwt>
<rscale>  2 0.46073408E+03</rscale>
<asrwt>0</asrwt>
<pdfrwt beam="1">  1       21 0.44341788E-02 0.46073408E+03</pdfrwt>
<pdfrwt beam="2">  1       21 0.25882705E+00 0.46073408E+03</pdfrwt>
<totfact> 0.16693380E+04</totfact>
</mgrwt>
</event>
<event>
 7    0  0.4766352E-002  0.4570566E+03  0.7546771E-02  0.1025638E+00
         21   -1    0    0  502  501  0.00000000000E+00  0.00000000000E+00  0.35055264160E+03  0.35055264160E+03  0.00000000000E+00 0.  1.
         21   -1    0    0  501  502 -0.00000000000E+00 -0.00000000000E+00 -0.14897955368E+03  0.14897955368E+03  0.00000000000E+00 0.  1.
      99926    2    1    2    0    0  0.00000000000E+00  0.00000000000E+00  0.20157308792E+03  0.49953219527E+03  0.45705656580E+03 0.  0.
      99925    2    3    3    0    0  0.86295138710E+01  0.11474387730E+03  0.12966466999E+03  0.31498151238E+03  0.26298251008E+03 0.  0.
         25    1    4    4    0    0  0.62423677874E+01  0.18116715442E+02  0.78067707421E+02  0.14869182081E+03  0.12509000000E+03 0.  0.
         25    1    4    4    0    0  0.23871460836E+01  0.96627161861E+02  0.51596962564E+02  0.16628969157E+03  0.12509000000E+03 0.  0.
         25    1    3    3    0    0 -0.86295138710E+01 -0.11474387730E+03  0.71908417933E+02  0.18455068290E+03  0.12509000000E+03 0.  0.
<mgrwt>
<rscale>  2 0.45705657E+03</rscale>
<asrwt>0</asrwt>
<pdfrwt beam="1">  1       21 0.51551859E-01 0.45705657E+03</pdfrwt>
<pdfrwt beam="2">  1       21 0.21908758E-01 0.45705657E+03</pdfrwt>
<totfact> 0.64248228E+04</totfact>
</mgrwt>
</event>
<event>
 7    0  0.4766352E-002  0.4602416E+03  0.7546771E-02  0.1024711E+00
         21   -1    0    0  502  501  0.00000000000E+00  0.00000000000E+00  0.12734578446E+03  0.12734578446E+03  0.00000000000E+00 0. -1.
         21   -1    0    0  501  502 -0.00000000000E+00 -0.00000000000E+00 -0.41584088575E+03  0.41584088575E+03  0.00000000000E+00 0. -1.
      99926    2    1    2    0    0  0.00000000000E+00 -0.17763568394E-14 -0.28849510129E+03  0.54318667021E+03  0.46024160528E+03 0.  0.
      99925    2    3    3    0    0 -0.11744891316E+03  0.12548544008E+02 -0.17681023950E+03  0.33807028956E+03  0.26282683792E+03 0.  0.
         25    1    4    4    0    0 -0.26243171369E+02  0.90159025016E+01 -0.48621315464E+02  0.13704572580E+03  0.12509000000E+03 0.  0.
         25    1    4    4    0    0 -0.91205741788E+02  0.35326415059E+01 -0.12818892404E+03  0.20102456377E+03  0.12509000000E+03 0.  0.
         25    1    3    3    0    0  0.11744891316E+03 -0.12548544008E+02 -0.11168486178E+03  0.20511638065E+03  0.12509000000E+03 0.  0.
<mgrwt>
<rscale>  2 0.46024161E+03</rscale>
<asrwt>0</asrwt>
<pdfrwt beam="1">  1       21 0.18727321E-01 0.46024161E+03</pdfrwt>
<pdfrwt beam="2">  1       21 0.61153072E-01 0.46024161E+03</pdfrwt>
<totfact> 0.59799704E+04</totfact>
</mgrwt>
</event>
<event>
 7    0  0.4766352E-002  0.4480571E+03  0.7546771E-02  0.1028303E+00
         21   -1    0    0  502  501  0.00000000000E+00  0.00000000000E+00  0.47149866710E+02  0.47149866710E+02  0.00000000000E+00 0.  1.
         21   -1    0    0  501  502 -0.00000000000E+00 -0.00000000000E+00 -0.10644523551E+04  0.10644523551E+04  0.00000000000E+00 0.  1.
      99926    2    1    2    0    0  0.00000000000E+00  0.14210854715E-13 -0.10173024884E+04  0.11116022218E+04  0.44805707968E+03 0.  0.
      99925    2    3    3    0    0  0.76000537730E+02 -0.69764961363E+02 -0.57767566104E+03  0.64302726836E+03  0.26292901502E+03 0.  0.
         25    1    3    3    0    0 -0.76000537730E+02  0.69764961363E+02 -0.43962682739E+03  0.46857495348E+03  0.12509000000E+03 0.  0.
         25    1    4    4    0    0  0.61633502495E+02 -0.24461030753E+01 -0.29739472351E+03  0.32847496361E+03  0.12509000000E+03 0.  0.
         25    1    4    4    0    0  0.14367035235E+02 -0.67318858288E+02 -0.28028093753E+03  0.31455230475E+03  0.12509000000E+03 0.  0.
<mgrwt>
<rscale>  2 0.44805708E+03</rscale>
<asrwt>0</asrwt>
<pdfrwt beam="1">  1       21 0.69338043E-02 0.44805708E+03</pdfrwt>
<pdfrwt beam="2">  1       21 0.15653710E+00 0.44805708E+03</pdfrwt>
<totfact> 0.37056189E+04</totfact>
</mgrwt>
</event>
<event>
 7    0  0.4766352E-002  0.4311327E+03  0.7546771E-02  0.1033503E+00
         21   -1    0    0  502  501  0.00000000000E+00  0.00000000000E+00  0.10276362712E+03  0.10276362712E+03  0.00000000000E+00 0.  1.
         21   -1    0    0  501  502 -0.00000000000E+00 -0.00000000000E+00 -0.45219154293E+03  0.45219154293E+03  0.00000000000E+00 0.  1.
      99926    2    1    2    0    0  0.00000000000E+00 -0.17763568394E-14 -0.34942791581E+03  0.55495517006E+03  0.43113266221E+03 0.  0.
      99925    2    3    3    0    0 -0.70613905147E+02  0.13126245341E+02 -0.15756292372E+03  0.31491703723E+03  0.26303620187E+03 0.  0.
         25    1    4    4    0    0  0.13304757334E+01  0.23269254414E+02 -0.85514303603E+02  0.15330829262E+03  0.12509000000E+03 0.  0.
         25    1    4    4    0    0 -0.71944380880E+02 -0.10143009073E+02 -0.72048620112E+02  0.16160874461E+03  0.12509000000E+03 0.  0.
         25    1    3    3    0    0  0.70613905147E+02 -0.13126245341E+02 -0.19186499210E+03  0.24003813282E+03  0.12509000000E+03 0.  0.
<mgrwt>
<rscale>  2 0.43113266E+03</rscale>
<asrwt>0</asrwt>
<pdfrwt beam="1">  1       21 0.15112298E-01 0.43113266E+03</pdfrwt>
<pdfrwt beam="2">  1       21 0.66498758E-01 0.43113266E+03</pdfrwt>
<totfact> 0.74671251E+04</totfact>
</mgrwt>
</event>
<event>
 7    0  0.4766352E-002  0.4531813E+03  0.7546771E-02  0.1026778E+00
         21   -1    0    0  502  501  0.00000000000E+00  0.00000000000E+00  0.78527687072E+02  0.78527687072E+02  0.00000000000E+00 0. -1.
         21   -1    0    0  501  502 -0.00000000000E+00 -0.00000000000E+00 -0.65382441738E+03  0.65382441738E+03  0.00000000000E+00 0. -1.
      99926    2    1    2    0    0  0.00000000000E+00  0.00000000000E+00 -0.57529673031E+03  0.73235210446E+03  0.45318128491E+03 0.  0.
      99925    2    3    3    0    0  0.10358510636E+03  0.98823629455E+01 -0.29801023249E+03  0.41085117860E+03  0.26298489866E+03 0.  0.
         25    1    4    4    0    0  0.52514440766E+02  0.39004264550E+02 -0.18249874733E+03  0.23072147715E+03  0.12509000000E+03 0.  0.
         25    1    4    4    0    0  0.51070665595E+02 -0.29121901605E+02 -0.11551148516E+03  0.18012970144E+03  0.12509000000E+03 0.  0.
         25    1    3    3    0    0 -0.10358510636E+03 -0.98823629455E+01 -0.27728649782E+03  0.32150092586E+03  0.12509000000E+03 0.  0.
<mgrwt>
<rscale>  2 0.45318128E+03</rscale>
<asrwt>0</asrwt>
<pdfrwt beam="1">  1       21 0.11548189E-01 0.45318128E+03</pdfrwt>
<pdfrwt beam="2">  1       21 0.96150652E-01 0.45318128E+03</pdfrwt>
<totfact> 0.51919937E+04</totfact>
</mgrwt>
</event>
<event>
 7    0  0.4766352E-002  0.4531109E+03  0.7546771E-02  0.1026798E+00
         21   -1    0    0  502  501  0.00000000000E+00  0.00000000000E+00  0.25472652552E+03  0.25472652552E+03  0.00000000000E+00 0.  1.
         21   -1    0    0  501  502 -0.00000000000E+00 -0.00000000000E+00 -0.20149989762E+03  0.20149989762E+03  0.00000000000E+00 0.  1.
      99926    2    1    2    0    0  0.00000000000E+00 -0.14210854715E-13  0.53226627899E+02  0.45622642315E+03  0.45311088628E+03 0.  0.
      99925    2    3    3    0    0  0.53901376444E+01 -0.74750396476E+02 -0.49549732170E+02  0.27782473132E+03  0.26289680489E+03 0.  0.
         25    1    4    4    0    0  0.33513308419E+02 -0.44403571850E+02  0.44513887186E+00  0.13690334285E+03  0.12509000000E+03 0.  0.
         25    1    4    4    0    0 -0.28123170774E+02 -0.30346824626E+02 -0.49994871042E+02  0.14092138848E+03  0.12509000000E+03 0.  0.
         25    1    3    3    0    0 -0.53901376444E+01  0.74750396476E+02  0.10277636007E+03  0.17840169183E+03  0.12509000000E+03 0.  0.
<mgrwt>
<rscale>  2 0.45311089E+03</rscale>
<asrwt>0</asrwt>
<pdfrwt beam="1">  1       21 0.37459783E-01 0.45311089E+03</pdfrwt>
<pdfrwt beam="2">  1       21 0.29632338E-01 0.45311089E+03</pdfrwt>
<totfact> 0.69497522E+04</totfact>
</mgrwt>
</event>
<event>
 7    0  0.4766352E-002  0.4559469E+03  0.7546771E-02  0.1025963E+00
         21   -1    0    0  502  501  0.00000000000E+00  0.00000000000E+00  0.23048575719E+03  0.23048575719E+03  0.00000000000E+00 0.  1.
         21   -1    0    0  501  502 -0.00000000000E+00 -0.00000000000E+00 -0.22548852388E+03  0.22548852388E+03  0.00000000000E+00 0.  1.
      99926    2    1    2    0    0  0.00000000000E+00  0.14210854715E-13  0.49972333114E+01  0.45597428106E+03  0.45594689674E+03 0.  0.
      99925    2    3    3    0    0 -0.40916572880E+02  0.10517420464E+03  0.20442317321E+02  0.28679438279E+03  0.26286374875E+03 0.  0.
         25    1    4    4    0    0 -0.15482022300E+02  0.95181630364E+02  0.14648952963E+02  0.15862325081E+03  0.12509000000E+03 0.  0.
         25    1    4    4    0    0 -0.25434550581E+02  0.99925742796E+01  0.57933643584E+01  0.12817113199E+03  0.12509000000E+03 0.  0.
         25    1    3    3    0    0  0.40916572880E+02 -0.10517420464E+03 -0.15445084010E+02  0.16917989827E+03  0.12509000000E+03 0.  0.
<mgrwt>
<rscale>  2 0.45594690E+03</rscale>
<asrwt>0</asrwt>
<pdfrwt beam="1">  1       21 0.33894964E-01 0.45594690E+03</pdfrwt>
<pdfrwt beam="2">  1       21 0.33160077E-01 0.45594690E+03</pdfrwt>
<totfact> 0.67959570E+04</totfact>
</mgrwt>
</event>
<event>
 7    0  0.4766352E-002  0.4552442E+03  0.7546771E-02  0.1026170E+00
         21   -1    0    0  502  501  0.00000000000E+00  0.00000000000E+00  0.25792699138E+03  0.25792699138E+03  0.00000000000E+00 0. -1.
         21   -1    0    0  501  502 -0.00000000000E+00 -0.00000000000E+00 -0.20087785456E+03  0.20087785456E+03  0.00000000000E+00 0. -1.
      99926    2    1    2    0    0  0.13322676296E-14  0.00000000000E+00  0.57049136817E+02  0.45880484594E+03  0.45524420111E+03 0.  0.
      99925    2    3    3    0    0  0.27745438340E+01 -0.11188780875E+03  0.16643084666E+02  0.28615856885E+03  0.26283674481E+03 0.  0.
         25    1    4    4    0    0 -0.32929603486E+02 -0.71373156654E+02  0.24177952691E+02  0.14970159576E+03  0.12509000000E+03 0.  0.
         25    1    4    4    0    0  0.35704147320E+02 -0.40514652096E+02 -0.75348680250E+01  0.13645697310E+03  0.12509000000E+03 0.  0.
         25    1    3    3    0    0 -0.27745438340E+01  0.11188780875E+03  0.40406052151E+02  0.17264627708E+03  0.12509000000E+03 0.  0.
<mgrwt>
<rscale>  2 0.45524420E+03</rscale>
<asrwt>0</asrwt>
<pdfrwt beam="1">  1       21 0.37930440E-01 0.45524420E+03</pdfrwt>
<pdfrwt beam="2">  1       21 0.29540861E-01 0.45524420E+03</pdfrwt>
<totfact> 0.68134937E+04</totfact>
</mgrwt>
</event>
<event>
 7    0  0.4766352E-002  0.4543483E+03  0.7546771E-02  0.1026433E+00
         21   -1    0    0  502  501  0.00000000000E+00  0.00000000000E+00  0.18493307486E+04  0.18493307486E+04  0.00000000000E+00 0.  1.
         21   -1    0    0  501  502 -0.00000000000E+00 -0.00000000000E+00 -0.27906358639E+02  0.27906358639E+02  0.00000000000E+00 0.  1.
      99926    2    1    2    0    0  0.00000000000E+00 -0.71054273576E-14  0.18214243900E+04  0.18772371073E+04  0.45434826780E+03 0.  0.
      99925    2    3    3    0    0  0.63778475284E+02  0.59761383255E+02  0.14398175279E+04  0.14662499760E+04  0.26301209364E+03 0.  0.
         25    1    4    4    0    0 -0.32353686744E+01  0.57526973548E+01  0.66482482351E+03  0.67652281203E+03  0.12509000000E+03 0.  0.
         25    1    4    4    0    0  0.67013843958E+02  0.54008685900E+02  0.77499270442E+03  0.78972716392E+03  0.12509000000E+03 0.  0.
         25    1    3    3    0    0 -0.63778475284E+02 -0.59761383255E+02  0.38160686206E+03  0.41098713131E+03  0.12509000000E+03 0.  0.
<mgrwt>
<rscale>  2 0.45434827E+03</rscale>
<asrwt>0</asrwt>
<pdfrwt beam="1">  1       21 0.27196032E+00 0.45434827E+03</pdfrwt>
<pdfrwt beam="2">  1       21 0.41038775E-02 0.45434827E+03</pdfrwt>
<totfact> 0.15899708E+04</totfact>
</mgrwt>
</event>
<event>
 7    0  0.4766352E-002  0.4355293E+03  0.7546771E-02  0.1032127E+00
         21   -1    0    0  502  501  0.00000000000E+00  0.00000000000E+00  0.43139334137E+02  0.43139334137E+02  0.00000000000E+00 0.  1.
         21   -1    0    0  501  502 -0.00000000000E+00 -0.00000000000E+00 -0.10992622602E+04  0.10992622602E+04  0.00000000000E+00 0.  1.
      99926    2    1    2    0    0  0.71054273576E-14  0.00000000000E+00 -0.10561229261E+04  0.11424015943E+04  0.43552929613E+03 0.  0.
      99925    2    3    3    0    0  0.41678698019E+02  0.83326134123E+02 -0.70347210573E+03  0.75679756470E+03  0.26303838481E+03 0.  0.
         25    1    4    4    0    0  0.44970451678E+02  0.15876877095E+02 -0.28587531608E+03  0.31566853057E+03  0.12509000000E+03 0.  0.
         25    1    4    4    0    0 -0.32917536592E+01  0.67449257028E+02 -0.41759678965E+03  0.44112903412E+03  0.12509000000E+03 0.  0.
         25    1    3    3    0    0 -0.41678698019E+02 -0.83326134123E+02 -0.35265082032E+03  0.38560402963E+03  0.12509000000E+03 0.  0.
<mgrwt>
<rscale>  2 0.43552930E+03</rscale>
<asrwt>0</asrwt>
<pdfrwt beam="1">  1       21 0.63440203E-02 0.43552930E+03</pdfrwt>
<pdfrwt beam="2">  1       21 0.16165620E+00 0.43552930E+03</pdfrwt>
<totfact> 0.39733105E+04</totfact>
</mgrwt>
</event>
<event>
 7    0  0.4766352E-002  0.4186799E+03  0.7546771E-02  0.1037497E+00
         21   -1    0    0  502  501  0.00000000000E+00  0.00000000000E+00  0.84598452959E+03  0.84598452959E+03  0.00000000000E+00 0. -1.
         21   -1    0    0  501  502 -0.00000000000E+00 -0.00000000000E+00 -0.51801444993E+02  0.51801444993E+02  0.00000000000E+00 0. -1.
      99926    2    1    2    0    0  0.00000000000E+00 -0.35527136788E-14  0.79418308460E+03  0.89778597459E+03  0.41867993061E+03 0.  0.
      99925    2    3    3    0    0  0.36410908908E+02  0.20372712030E+02  0.38716658016E+03  0.46994167502E+03  0.26307112241E+03 0.  0.
         25    1    3    3    0    0 -0.36410908908E+02 -0.20372712030E+02  0.40701650444E+03  0.42784429957E+03  0.12509000000E+03 0.  0.
         25    1    4    4    0    0  0.23619300592E+02  0.49695169746E+02  0.21463264021E+03  0.25444480659E+03  0.12509000000E+03 0.  0.
         25    1    4    4    0    0  0.12791608316E+02 -0.29322457715E+02  0.17253393995E+03  0.21549686843E+03  0.12509000000E+03 0.  0.
<mgrwt>
<rscale>  2 0.41867993E+03</rscale>
<asrwt>0</asrwt>
<pdfrwt beam="1">  1       21 0.12440948E+00 0.41867993E+03</pdfrwt>
<pdfrwt beam="2">  1       21 0.76178601E-02 0.41867993E+03</pdfrwt>
<totfact> 0.58189350E+04</totfact>
</mgrwt>
</event>
<event>
 7    0  0.4766352E-002  0.4123366E+03  0.7546771E-02  0.1039590E+00
         21   -1    0    0  502  501  0.00000000000E+00  0.00000000000E+00  0.57589028810E+02  0.57589028810E+02  0.00000000000E+00 0.  1.
         21   -1    0    0  501  502 -0.00000000000E+00 -0.00000000000E+00 -0.73808084874E+03  0.73808084874E+03  0.00000000000E+00 0.  1.
      99926    2    1    2    0    0  0.00000000000E+00  0.00000000000E+00 -0.68049181993E+03  0.79566987755E+03  0.41233655798E+03 0.  0.
      99925    2    3    3    0    0  0.25038633442E+02  0.57014375626E+02 -0.48571216758E+03  0.55595297522E+03  0.26322961218E+03 0.  0.
         25    1    4    4    0    0  0.25496111781E+02  0.35715202424E+01 -0.29727614671E+03  0.32354817721E+03  0.12509000000E+03 0.  0.
         25    1    4    4    0    0 -0.45747833820E+00  0.53442855383E+02 -0.18843602087E+03  0.23240479801E+03  0.12509000000E+03 0.  0.
         25    1    3    3    0    0 -0.25038633442E+02 -0.57014375626E+02 -0.19477965235E+03  0.23971690233E+03  0.12509000000E+03 0.  0.
<mgrwt>
<rscale>  2 0.41233656E+03</rscale>
<asrwt>0</asrwt>
<pdfrwt beam="1">  1       21 0.84689754E-02 0.41233656E+03</pdfrwt>
<pdfrwt beam="2">  1       21 0.10854129E+00 0.41233656E+03</pdfrwt>
<totfact> 0.68057081E+04</totfact>
</mgrwt>
</event>
<event>
 7    0  0.4766352E-002  0.4533048E+03  0.7546771E-02  0.1026741E+00
         21   -1    0    0  502  501  0.00000000000E+00  0.00000000000E+00  0.25279230972E+03  0.25279230972E+03  0.00000000000E+00 0.  1.
         21   -1    0    0  501  502 -0.00000000000E+00 -0.00000000000E+00 -0.20321543571E+03  0.20321543571E+03  0.00000000000E+00 0.  1.
      99926    2    1    2    0    0  0.00000000000E+00  0.00000000000E+00  0.49576874003E+02  0.45600774543E+03  0.45330475120E+03 0.  0.
      99925    2    3    3    0    0  0.34002115279E+02  0.52474682172E+02  0.12411247575E+03  0.29753755852E+03  0.26308735428E+03 0.  0.
         25    1    4    4    0    0  0.27264530561E+02 -0.13255717520E+02  0.65336631864E+02  0.14434490721E+03  0.12509000000E+03 0.  0.
         25    1    3    3    0    0 -0.34002115279E+02 -0.52474682172E+02 -0.74535601743E+02  0.15847018691E+03  0.12509000000E+03 0.  0.
         25    1    4    4    0    0  0.67375847175E+01  0.65730399692E+02  0.58775843882E+02  0.15319265131E+03  0.12509000000E+03 0.  0.
<mgrwt>
<rscale>  2 0.45330475E+03</rscale>
<asrwt>0</asrwt>
<pdfrwt beam="1">  1       21 0.37175340E-01 0.45330475E+03</pdfrwt>
<pdfrwt beam="2">  1       21 0.29884623E-01 0.45330475E+03</pdfrwt>
<totfact> 0.69405991E+04</totfact>
</mgrwt>
</event>
<event>
 7    0  0.4766352E-002  0.4564611E+03  0.7546771E-02  0.1025813E+00
         21   -1    0    0  502  501  0.00000000000E+00  0.00000000000E+00  0.11860401640E+03  0.11860401640E+03  0.00000000000E+00 0.  1.
         21   -1    0    0  501  502 -0.00000000000E+00 -0.00000000000E+00 -0.43918567627E+03  0.43918567627E+03  0.00000000000E+00 0.  1.
      99926    2    1    2    0    0 -0.14210854715E-13  0.17763568394E-14 -0.32058165986E+03  0.55778969267E+03  0.45646110525E+03 0.  0.
      99925    2    3    3    0    0  0.11378120727E+03 -0.10227510425E+02 -0.19061940409E+03  0.34427514720E+03  0.26294268324E+03 0.  0.
         25    1    4    4    0    0  0.78843880716E+02 -0.23631403944E+02 -0.65511601839E+02  0.16344442130E+03  0.12509000000E+03 0.  0.
         25    1    4    4    0    0  0.34937326552E+02  0.13403893518E+02 -0.12510780225E+03  0.18083072590E+03  0.12509000000E+03 0.  0.
         25    1    3    3    0    0 -0.11378120727E+03  0.10227510425E+02 -0.12996225578E+03  0.21351454546E+03  0.12509000000E+03 0.  0.
<mgrwt>
<rscale>  2 0.45646111E+03</rscale>
<asrwt>0</asrwt>
<pdfrwt beam="1">  1       21 0.17441767E-01 0.45646111E+03</pdfrwt>
<pdfrwt beam="2">  1       21 0.64586129E-01 0.45646111E+03</pdfrwt>
<totfact> 0.60650642E+04</totfact>
</mgrwt>
</event>
<event>
 7    0  0.4766352E-002  0.4579829E+03  0.7546771E-02  0.1025368E+00
         21   -1    0    0  502  501  0.00000000000E+00  0.00000000000E+00  0.17072015994E+03  0.17072015994E+03  0.00000000000E+00 0. -1.
         21   -1    0    0  501  502 -0.00000000000E+00 -0.00000000000E+00 -0.30715223875E+03  0.30715223875E+03  0.00000000000E+00 0. -1.
      99926    2    1    2    0    0 -0.14210854715E-13  0.00000000000E+00 -0.13643207881E+03  0.47787239868E+03  0.45798287882E+03 0.  0.
      99925    2    3    3    0    0  0.71142137897E+02  0.77767899572E+02 -0.35536980671E+02  0.28568400435E+03  0.26314145123E+03 0.  0.
         25    1    3    3    0    0 -0.71142137897E+02 -0.77767899572E+02 -0.10089509814E+03  0.19218839433E+03  0.12509000000E+03 0.  0.
         25    1    4    4    0    0  0.68728913971E+02  0.16302378605E+02 -0.25743476124E+02  0.14594405033E+03  0.12509000000E+03 0.  0.
         25    1    4    4    0    0  0.24132239266E+01  0.61465520967E+02 -0.97935045471E+01  0.13973995402E+03  0.12509000000E+03 0.  0.
<mgrwt>
<rscale>  2 0.45798288E+03</rscale>
<asrwt>0</asrwt>
<pdfrwt beam="1">  1       21 0.25105906E-01 0.45798288E+03</pdfrwt>
<pdfrwt beam="2">  1       21 0.45169446E-01 0.45798288E+03</pdfrwt>
<totfact> 0.65295818E+04</totfact>
</mgrwt>
</event>
<event>
 7    0  0.4766352E-002  0.4509204E+03  0.7546771E-02  0.1027448E+00
         21   -1    0    0  502  501  0.00000000000E+00  0.00000000000E+00  0.69964357659E+03  0.69964357659E+03  0.00000000000E+00 0. -1.
         21   -1    0    0  501  502 -0.00000000000E+00 -0.00000000000E+00 -0.72654581153E+02  0.72654581153E+02  0.00000000000E+00 0. -1.
      99926    2    1    2    0    0  0.00000000000E+00  0.00000000000E+00  0.62698899544E+03  0.77229815774E+03  0.45092044094E+03 0.  0.
      99925    2    3    3    0    0  0.10892077209E+03 -0.87971200727E+01  0.39305320482E+03  0.48539297106E+03  0.26301024813E+03 0.  0.
         25    1    4    4    0    0  0.35973011059E+02  0.28188007918E+02  0.15548680225E+03  0.20472487657E+03  0.12509000000E+03 0.  0.
         25    1    3    3    0    0 -0.10892077209E+03  0.87971200727E+01  0.23393579062E+03  0.28690518668E+03  0.12509000000E+03 0.  0.
         25    1    4    4    0    0  0.72947761030E+02 -0.36985127990E+02  0.23756640258E+03  0.28066809449E+03  0.12509000000E+03 0.  0.
<mgrwt>
<rscale>  2 0.45092044E+03</rscale>
<asrwt>0</asrwt>
<pdfrwt beam="1">  1       21 0.10288876E+00 0.45092044E+03</pdfrwt>
<pdfrwt beam="2">  1       21 0.10684498E-01 0.45092044E+03</pdfrwt>
<totfact> 0.50739375E+04</totfact>
</mgrwt>
</event>
<event>
 7    0  0.4766352E-002  0.4538719E+03  0.7546771E-02  0.1026574E+00
         21   -1    0    0  502  501  0.00000000000E+00  0.00000000000E+00  0.88699079602E+03  0.88699079602E+03  0.00000000000E+00 0. -1.
         21   -1    0    0  501  502 -0.00000000000E+00 -0.00000000000E+00 -0.58061396736E+02  0.58061396736E+02  0.00000000000E+00 0. -1.
      99926    2    1    2    0    0  0.71054273576E-14  0.00000000000E+00  0.82892939928E+03  0.94505219275E+03  0.45387189606E+03 0.  0.
      99925    2    3    3    0    0  0.19862252885E+02  0.84078839752E+02  0.37392278448E+03  0.46532071787E+03  0.26313753313E+03 0.  0.
         25    1    4    4    0    0  0.34634555621E+02  0.26497222505E+02  0.23108542227E+03  0.26636372826E+03  0.12509000000E+03 0.  0.
         25    1    4    4    0    0 -0.14772302737E+02  0.57581617247E+02  0.14283736221E+03  0.19895698961E+03  0.12509000000E+03 0.  0.
         25    1    3    3    0    0 -0.19862252885E+02 -0.84078839752E+02  0.45500661480E+03  0.47973147488E+03  0.12509000000E+03 0.  0.
<mgrwt>
<rscale>  2 0.45387190E+03</rscale>
<asrwt>0</asrwt>
<pdfrwt beam="1">  1       21 0.13043981E+00 0.45387190E+03</pdfrwt>
<pdfrwt beam="2">  1       21 0.85384412E-02 0.45387190E+03</pdfrwt>
<totfact> 0.41708542E+04</totfact>
</mgrwt>
</event>
<event>
 7    0  0.4766352E-002  0.4622974E+03  0.7546771E-02  0.1024117E+00
         21   -1    0    0  502  501  0.00000000000E+00  0.00000000000E+00  0.11217956430E+03  0.11217956430E+03  0.00000000000E+00 0. -1.
         21   -1    0    0  501  502 -0.00000000000E+00 -0.00000000000E+00 -0.47628745617E+03  0.47628745617E+03  0.00000000000E+00 0. -1.
      99926    2    1    2    0    0  0.13322676296E-14 -0.35527136788E-14 -0.36410789187E+03  0.58846702046E+03  0.46229739048E+03 0.  0.
      99925    2    3    3    0    0  0.23567637348E+01  0.99278020872E+01 -0.37971152971E+03  0.46199529555E+03  0.26297279654E+03 0.  0.
         25    1    4    4    0    0  0.24118755173E+02  0.37349051567E+02 -0.17742348182E+03  0.22159256758E+03  0.12509000000E+03 0.  0.
         25    1    4    4    0    0 -0.21761991438E+02 -0.27421249480E+02 -0.20228804790E+03  0.24040272797E+03  0.12509000000E+03 0.  0.
         25    1    3    3    0    0 -0.23567637348E+01 -0.99278020872E+01  0.15603637842E+02  0.12647172492E+03  0.12509000000E+03 0.  0.
<mgrwt>
<rscale>  2 0.46229739E+03</rscale>
<asrwt>0</asrwt>
<pdfrwt beam="1">  1       21 0.16496994E-01 0.46229739E+03</pdfrwt>
<pdfrwt beam="2">  1       21 0.70042275E-01 0.46229739E+03</pdfrwt>
<totfact> 0.56088023E+04</totfact>
</mgrwt>
</event>
<event>
 7    0  0.4766352E-002  0.4571475E+03  0.7546771E-02  0.1025612E+00
         21   -1    0    0  502  501  0.00000000000E+00  0.00000000000E+00  0.47820362527E+03  0.47820362527E+03  0.00000000000E+00 0. -1.
         21   -1    0    0  501  502 -0.00000000000E+00 -0.00000000000E+00 -0.10925463020E+03  0.10925463020E+03  0.00000000000E+00 0. -1.
      99926    2    1    2    0    0  0.00000000000E+00  0.00000000000E+00  0.36894899507E+03  0.58745825546E+03  0.45714750458E+03 0.  0.
      99925    2    3    3    0    0  0.39852684013E+02  0.90038456521E+02  0.15483804601E+03  0.32065089671E+03  0.26295820389E+03 0.  0.
         25    1    3    3    0    0 -0.39852684013E+02 -0.90038456521E+02  0.21411094906E+03  0.26680735875E+03  0.12509000000E+03 0.  0.
         25    1    4    4    0    0  0.43232306571E+02  0.42476776813E+02  0.11659634663E+03  0.18142636261E+03  0.12509000000E+03 0.  0.
         25    1    4    4    0    0 -0.33796225582E+01  0.47561679709E+02  0.38241699371E+02  0.13922453410E+03  0.12509000000E+03 0.  0.
<mgrwt>
<rscale>  2 0.45714750E+03</rscale>
<asrwt>0</asrwt>
<pdfrwt beam="1">  1       21 0.70324062E-01 0.45714750E+03</pdfrwt>
<pdfrwt beam="2">  1       21 0.16066858E-01 0.45714750E+03</pdfrwt>
<totfact> 0.58458340E+04</totfact>
</mgrwt>
</event>
<event>
 7    0  0.4766352E-002  0.4522768E+03  0.7546771E-02  0.1027045E+00
         21   -1    0    0  502  501  0.00000000000E+00  0.00000000000E+00  0.22006980681E+03  0.22006980681E+03  0.00000000000E+00 0.  1.
         21   -1    0    0  501  502 -0.00000000000E+00 -0.00000000000E+00 -0.23237433995E+03  0.23237433995E+03  0.00000000000E+00 0.  1.
      99926    2    1    2    0    0  0.88817841970E-15  0.14210854715E-13 -0.12304533138E+02  0.45244414676E+03  0.45227680065E+03 0.  0.
      99925    2    3    3    0    0 -0.40854564125E+01 -0.89207456476E+02  0.57503065910E+02  0.28363872555E+03  0.26300126007E+03 0.  0.
         25    1    3    3    0    0  0.40854564125E+01  0.89207456476E+02 -0.69807599048E+02  0.16880542121E+03  0.12509000000E+03 0.  0.
         25    1    4    4    0    0 -0.69566752389E+01 -0.49539316495E+01  0.40893126305E+02  0.13188135823E+03  0.12509000000E+03 0.  0.
         25    1    4    4    0    0  0.28712188264E+01 -0.84253524826E+02  0.16609939605E+02  0.15175736732E+03  0.12509000000E+03 0.  0.
<mgrwt>
<rscale>  2 0.45227680E+03</rscale>
<asrwt>0</asrwt>
<pdfrwt beam="1">  1       21 0.32363207E-01 0.45227680E+03</pdfrwt>
<pdfrwt beam="2">  1       21 0.34172697E-01 0.45227680E+03</pdfrwt>
<totfact> 0.70247436E+04</totfact>
</mgrwt>
</event>
<event>
 7    0  0.4766352E-002  0.4550923E+03  0.7546771E-02  0.1026214E+00
         21   -1    0    0  502  501  0.00000000000E+00  0.00000000000E+00  0.54406031722E+02  0.54406031722E+02  0.00000000000E+00 0.  1.
         21   -1    0    0  501  502 -0.00000000000E+00 -0.00000000000E+00 -0.95168211630E+03  0.95168211630E+03  0.00000000000E+00 0.  1.
      99926    2    1    2    0    0  0.00000000000E+00  0.00000000000E+00 -0.89727608457E+03  0.10060881480E+04  0.45509228694E+03 0.  0.
      99925    2    3    3    0    0  0.49716667302E+02 -0.47936456433E+02 -0.76309101775E+03  0.81007082449E+03  0.26293951484E+03 0.  0.
         25    1    4    4    0    0  0.39521152179E+02  0.13947673235E+02 -0.36894505964E+03  0.39182192919E+03  0.12509000000E+03 0.  0.
         25    1    3    3    0    0 -0.49716667302E+02  0.47936456433E+02 -0.13418506683E+03  0.19601732353E+03  0.12509000000E+03 0.  0.
         25    1    4    4    0    0  0.10195515124E+02 -0.61884129669E+02 -0.39414595810E+03  0.41824889530E+03  0.12509000000E+03 0.  0.
<mgrwt>
<rscale>  2 0.45509229E+03</rscale>
<asrwt>0</asrwt>
<pdfrwt beam="1">  1       21 0.80008869E-02 0.45509229E+03</pdfrwt>
<pdfrwt beam="2">  1       21 0.13995325E+00 0.45509229E+03</pdfrwt>
<totfact> 0.38902776E+04</totfact>
</mgrwt>
</event>
<event>
 7    0  0.4766352E-002  0.4546589E+03  0.7546771E-02  0.1026342E+00
         21   -1    0    0  502  501  0.00000000000E+00  0.00000000000E+00  0.40980190185E+03  0.40980190185E+03  0.00000000000E+00 0.  1.
         21   -1    0    0  501  502 -0.00000000000E+00 -0.00000000000E+00 -0.12610648249E+03  0.12610648249E+03  0.00000000000E+00 0.  1.
      99926    2    1    2    0    0  0.00000000000E+00  0.00000000000E+00  0.28369541937E+03  0.53590838434E+03  0.45465888910E+03 0.  0.
      99925    2    3    3    0    0  0.31505788918E+02 -0.10824569030E+03  0.18543974928E+03  0.34094318486E+03  0.26295362801E+03 0.  0.
         25    1    4    4    0    0  0.43640178551E+02 -0.69713857793E+02  0.13002488404E+03  0.19828884417E+03  0.12509000000E+03 0.  0.
         25    1    3    3    0    0 -0.31505788918E+02  0.10824569030E+03  0.98255670082E+02  0.19496519948E+03  0.12509000000E+03 0.  0.
         25    1    4    4    0    0 -0.12134389632E+02 -0.38531832512E+02  0.55414865245E+02  0.14265434069E+03  0.12509000000E+03 0.  0.
<mgrwt>
<rscale>  2 0.45465889E+03</rscale>
<asrwt>0</asrwt>
<pdfrwt beam="1">  1       21 0.60264985E-01 0.45465889E+03</pdfrwt>
<pdfrwt beam="2">  1       21 0.18545071E-01 0.45465889E+03</pdfrwt>
<totfact> 0.62977266E+04</totfact>
</mgrwt>
</event>
<event>
 7    0  0.4766352E-002  0.4513158E+03  0.7546771E-02  0.1027330E+00
         21   -1    0    0  502  501  0.00000000000E+00  0.00000000000E+00  0.18188623501E+04  0.18188623501E+04  0.00000000000E+00 0.  1.
         21   -1    0    0  501  502 -0.00000000000E+00 -0.00000000000E+00 -0.27996343143E+02  0.27996343143E+02  0.00000000000E+00 0.  1.
      99926    2    1    2    0    0  0.00000000000E+00  0.00000000000E+00  0.17908660070E+04  0.18468586933E+04  0.45131582948E+03 0.  0.
      99925    2    3    3    0    0  0.44426110268E+02 -0.80562633713E+02  0.88705168786E+03  0.92980261605E+03  0.26307449638E+03 0.  0.
         25    1    3    3    0    0 -0.44426110268E+02  0.80562633713E+02  0.90381431910E+03  0.91705607721E+03  0.12509000000E+03 0.  0.
         25    1    4    4    0    0  0.38483320142E+02 -0.70233528134E+02  0.56236273482E+03  0.58164685851E+03  0.12509000000E+03 0.  0.
         25    1    4    4    0    0  0.59427901253E+01 -0.10329105578E+02  0.32468895305E+03  0.34815575754E+03  0.12509000000E+03 0.  0.
<mgrwt>
<rscale>  2 0.45131583E+03</rscale>
<asrwt>0</asrwt>
<pdfrwt beam="1">  1       21 0.26747968E+00 0.45131583E+03</pdfrwt>
<pdfrwt beam="2">  1       21 0.41171105E-02 0.45131583E+03</pdfrwt>
<totfact> 0.16852222E+04</totfact>
</mgrwt>
</event>
<event>
 7    0  0.4766352E-002  0.4505277E+03  0.7546771E-02  0.1027565E+00
         21   -1    0    0  502  501  0.00000000000E+00  0.00000000000E+00  0.14333599435E+04  0.14333599435E+04  0.00000000000E+00 0. -1.
         21   -1    0    0  501  502 -0.00000000000E+00 -0.00000000000E+00 -0.35401990720E+02  0.35401990720E+02  0.00000000000E+00 0. -1.
      99926    2    1    2    0    0  0.99920072216E-15  0.00000000000E+00  0.13979579527E+04  0.14687619342E+04  0.45052767025E+03 0.  0.
      99925    2    3    3    0    0 -0.90525300197E+00 -0.41337820052E+02  0.12118378742E+04  0.12407316147E+04  0.26297199776E+03 0.  0.
         25    1    4    4    0    0  0.25737834464E+02 -0.89804332422E+00  0.70322397346E+03  0.71472701611E+03  0.12509000000E+03 0.  0.
         25    1    3    3    0    0  0.90525300197E+00  0.41337820052E+02  0.18612007853E+03  0.22803031944E+03  0.12509000000E+03 0.  0.
         25    1    4    4    0    0 -0.26643087465E+02 -0.40439776728E+02  0.50861390074E+03  0.52600459863E+03  0.12509000000E+03 0.  0.
<mgrwt>
<rscale>  2 0.45052767E+03</rscale>
<asrwt>0</asrwt>
<pdfrwt beam="1">  1       21 0.21078819E+00 0.45052767E+03</pdfrwt>
<pdfrwt beam="2">  1       21 0.52061761E-02 0.45052767E+03</pdfrwt>
<totfact> 0.25427178E+04</totfact>
</mgrwt>
</event>
<event>
 7    0  0.4766352E-002  0.4384970E+03  0.7546771E-02  0.1031209E+00
         21   -1    0    0  502  501  0.00000000000E+00  0.00000000000E+00  0.10994932052E+04  0.10994932052E+04  0.00000000000E+00 0.  1.
         21   -1    0    0  501  502 -0.00000000000E+00 -0.00000000000E+00 -0.43720064228E+02  0.43720064228E+02  0.00000000000E+00 0.  1.
      99926    2    1    2    0    0  0.14210854715E-13 -0.17763568394E-14  0.10557731410E+04  0.11432132695E+04  0.43849704013E+03 0.  0.
      99925    2    3    3    0    0  0.91383213260E+02 -0.12471538734E+02  0.75228653976E+03  0.80224691308E+03  0.26298030479E+03 0.  0.
         25    1    4    4    0    0  0.84265484740E+02 -0.46391318550E+01  0.35942255632E+03  0.38981312901E+03  0.12509000000E+03 0.  0.
         25    1    3    3    0    0 -0.91383213260E+02  0.12471538734E+02  0.30348660125E+03  0.34096635638E+03  0.12509000000E+03 0.  0.
         25    1    4    4    0    0  0.71177285206E+01 -0.78324068786E+01  0.39286398344E+03  0.41243378407E+03  0.12509000000E+03 0.  0.
<mgrwt>
<rscale>  2 0.43849704E+03</rscale>
<asrwt>0</asrwt>
<pdfrwt beam="1">  1       21 0.16169016E+00 0.43849704E+03</pdfrwt>
<pdfrwt beam="2">  1       21 0.64294219E-02 0.43849704E+03</pdfrwt>
<totfact> 0.38760558E+04</totfact>
</mgrwt>
</event>
<event>
 7    0  0.4766352E-002  0.4377049E+03  0.7546771E-02  0.1031453E+00
         21   -1    0    0  502  501  0.00000000000E+00  0.00000000000E+00  0.11173121633E+03  0.11173121633E+03  0.00000000000E+00 0. -1.
         21   -1    0    0  501  502 -0.00000000000E+00 -0.00000000000E+00 -0.42867506583E+03  0.42867506583E+03  0.00000000000E+00 0. -1.
      99926    2    1    2    0    0  0.00000000000E+00  0.00000000000E+00 -0.31694384950E+03  0.54040628216E+03  0.43770486182E+03 0.  0.
      99925    2    3    3    0    0  0.82427071786E+02  0.48280484129E+02 -0.18811992994E+03  0.33701420350E+03  0.26280075725E+03 0.  0.
         25    1    3    3    0    0 -0.82427071786E+02 -0.48280484129E+02 -0.12882391957E+03  0.20339207866E+03  0.12509000000E+03 0.  0.
         25    1    4    4    0    0  0.15996102493E+02  0.93325969525E+01 -0.12274863376E+03  0.17623197170E+03  0.12509000000E+03 0.  0.
         25    1    4    4    0    0  0.66430969292E+02  0.38947887176E+02 -0.65371296177E+02  0.16078223179E+03  0.12509000000E+03 0.  0.
<mgrwt>
<rscale>  2 0.43770486E+03</rscale>
<asrwt>0</asrwt>
<pdfrwt beam="1">  1       21 0.16431061E-01 0.43770486E+03</pdfrwt>
<pdfrwt beam="2">  1       21 0.63040450E-01 0.43770486E+03</pdfrwt>
<totfact> 0.71844804E+04</totfact>
</mgrwt>
</event>
<event>
 7    0  0.4766352E-002  0.4549298E+03  0.7546771E-02  0.1026262E+00
         21   -1    0    0  502  501  0.00000000000E+00  0.00000000000E+00  0.69166919482E+03  0.69166919482E+03  0.00000000000E+00 0.  1.
         21   -1    0    0  501  502 -0.00000000000E+00 -0.00000000000E+00 -0.74804935975E+02  0.74804935975E+02  0.00000000000E+00 0.  1.
      99926    2    1    2    0    0  0.35527136788E-14  0.00000000000E+00  0.61686425885E+03  0.76647413080E+03  0.45492975209E+03 0.  0.
      99925    2    3    3    0    0  0.23213584108E+02  0.10417695560E+03  0.32484905878E+03  0.43134416536E+03  0.26294328178E+03 0.  0.
         25    1    4    4    0    0  0.47661565192E+02  0.43922453808E+02  0.18737548070E+03  0.23443098262E+03  0.12509000000E+03 0.  0.
         25    1    3    3    0    0 -0.23213584108E+02 -0.10417695560E+03  0.29201520006E+03  0.33512996543E+03  0.12509000000E+03 0.  0.
         25    1    4    4    0    0 -0.24447981084E+02  0.60254501793E+02  0.13747357809E+03  0.19691318274E+03  0.12509000000E+03 0.  0.
<mgrwt>
<rscale>  2 0.45492975E+03</rscale>
<asrwt>0</asrwt>
<pdfrwt beam="1">  1       21 0.10171605E+00 0.45492975E+03</pdfrwt>
<pdfrwt beam="2">  1       21 0.11000726E-01 0.45492975E+03</pdfrwt>
<totfact> 0.49456287E+04</totfact>
</mgrwt>
</event>
<event>
 7    0  0.4766352E-002  0.4599615E+03  0.7546771E-02  0.1024792E+00
         21   -1    0    0  502  501  0.00000000000E+00  0.00000000000E+00  0.53951149682E+03  0.53951149682E+03  0.00000000000E+00 0.  1.
         21   -1    0    0  501  502 -0.00000000000E+00 -0.00000000000E+00 -0.98035250941E+02  0.98035250941E+02  0.00000000000E+00 0.  1.
      99926    2    1    2    0    0  0.26645352591E-14  0.00000000000E+00  0.44147624588E+03  0.63754674776E+03  0.45996149828E+03 0.  0.
      99925    2    3    3    0    0  0.63149208335E+01 -0.11726523692E+03  0.26436533318E+03  0.39095640425E+03  0.26299594412E+03 0.  0.
         25    1    3    3    0    0 -0.63149208335E+01  0.11726523692E+03  0.17711091269E+03  0.24659034351E+03  0.12509000000E+03 0.  0.
         25    1    4    4    0    0 -0.25663452350E+02 -0.33182054524E+02  0.14507510644E+03  0.19609680298E+03  0.12509000000E+03 0.  0.
         25    1    4    4    0    0  0.31978373184E+02 -0.84083182395E+02  0.11929022674E+03  0.19485960127E+03  0.12509000000E+03 0.  0.
<mgrwt>
<rscale>  2 0.45996150E+03</rscale>
<asrwt>0</asrwt>
<pdfrwt beam="1">  1       21 0.79339925E-01 0.45996150E+03</pdfrwt>
<pdfrwt beam="2">  1       21 0.14416949E-01 0.45996150E+03</pdfrwt>
<totfact> 0.54268199E+04</totfact>
</mgrwt>
</event>
<event>
 7    0  0.4766352E-002  0.4531959E+03  0.7546771E-02  0.1026773E+00
         21   -1    0    0  502  501  0.00000000000E+00  0.00000000000E+00  0.14481546697E+03  0.14481546697E+03  0.00000000000E+00 0.  1.
         21   -1    0    0  501  502 -0.00000000000E+00 -0.00000000000E+00 -0.35456591063E+03  0.35456591063E+03  0.00000000000E+00 0.  1.
      99926    2    1    2    0    0 -0.71054273576E-14  0.00000000000E+00 -0.20975044366E+03  0.49938137761E+03  0.45319588666E+03 0.  0.
      99925    2    3    3    0    0  0.32233198821E+02  0.44593374098E+02 -0.25196106785E+02  0.26973957070E+03  0.26286316609E+03 0.  0.
         25    1    4    4    0    0 -0.15183140819E+02  0.36092382669E+02  0.90556666163E+01  0.13138759854E+03  0.12509000000E+03 0.  0.
         25    1    4    4    0    0  0.47416339640E+02  0.85009914288E+01 -0.34251773402E+02  0.13835197216E+03  0.12509000000E+03 0.  0.
         25    1    3    3    0    0 -0.32233198821E+02 -0.44593374098E+02 -0.18455433688E+03  0.22964180691E+03  0.12509000000E+03 0.  0.
<mgrwt>
<rscale>  2 0.45319589E+03</rscale>
<asrwt>0</asrwt>
<pdfrwt beam="1">  1       21 0.21296392E-01 0.45319589E+03</pdfrwt>
<pdfrwt beam="2">  1       21 0.52142045E-01 0.45319589E+03</pdfrwt>
<totfact> 0.66257954E+04</totfact>
</mgrwt>
</event>
<event>
 7    0  0.4766352E-002  0.4517986E+03  0.7546771E-02  0.1027187E+00
         21   -1    0    0  502  501  0.00000000000E+00  0.00000000000E+00  0.38585726739E+03  0.38585726739E+03  0.00000000000E+00 0. -1.
         21   -1    0    0  501  502 -0.00000000000E+00 -0.00000000000E+00 -0.13225224049E+03  0.13225224049E+03  0.00000000000E+00 0. -1.
      99926    2    1    2    0    0  0.00000000000E+00  0.71054273576E-14  0.25360502690E+03  0.51810950787E+03  0.45179857512E+03 0.  0.
      99925    2    3    3    0    0 -0.19179411584E+02  0.53211025876E+02  0.26842564806E+03  0.38002829259E+03  0.26300173294E+03 0.  0.
         25    1    4    4    0    0  0.15695060412E+02  0.41795977517E+02  0.17477321149E+03  0.21951405926E+03  0.12509000000E+03 0.  0.
         25    1    3    3    0    0  0.19179411584E+02 -0.53211025876E+02 -0.14820621159E+02  0.13808121529E+03  0.12509000000E+03 0.  0.
         25    1    4    4    0    0 -0.34874471995E+02  0.11415048359E+02  0.93652436569E+02  0.16051423333E+03  0.12509000000E+03 0.  0.
<mgrwt>
<rscale>  2 0.45179858E+03</rscale>
<asrwt>0</asrwt>
<pdfrwt beam="1">  1       21 0.56743715E-01 0.45179858E+03</pdfrwt>
<pdfrwt beam="2">  1       21 0.19448859E-01 0.45179858E+03</pdfrwt>
<totfact> 0.65668402E+04</totfact>
</mgrwt>
</event>
<event>
 6    0  0.4766352E-002  0.4451456E+03  0.7546771E-02  0.1029180E+00
         21   -1    0    0  502  501  0.00000000000E+00  0.00000000000E+00  0.28283974778E+02  0.28283974778E+02  0.00000000000E+00 0. -1.
         21   -1    0    0  501  502 -0.00000000000E+00 -0.00000000000E+00 -0.17514743633E+04  0.17514743633E+04  0.00000000000E+00 0. -1.
      99926    2    1    2    0    0  0.00000000000E+00  0.00000000000E+00 -0.17231903885E+04  0.17797583381E+04  0.44514562433E+03 0.  0.
         25    1    3    3    0    0  0.86331847258E+02  0.11702394600E+02 -0.65960403770E+03  0.67698975512E+03  0.12509000000E+03 0.  0.
         25    1    3    3    0    0 -0.10641254117E+01  0.10007403281E+02 -0.64555647746E+03  0.65764120474E+03  0.12509000000E+03 0.  0.
         25    1    3    3    0    0 -0.85267721846E+02 -0.21709797881E+02 -0.41802987337E+03  0.44512737822E+03  0.12509000000E+03 0.  0.
<mgrwt>
<rscale>  2 0.44514562E+03</rscale>
<asrwt>0</asrwt>
<pdfrwt beam="1">  1       21 0.41594078E-02 0.44514562E+03</pdfrwt>
<pdfrwt beam="2">  1       21 0.25756978E+00 0.44514562E+03</pdfrwt>
<totfact> 0.19069110E+04</totfact>
</mgrwt>
</event>
<event>
 7    0  0.4766352E-002  0.4453442E+03  0.7546771E-02  0.1029120E+00
         21   -1    0    0  502  501  0.00000000000E+00  0.00000000000E+00  0.23262012062E+03  0.23262012062E+03  0.00000000000E+00 0. -1.
         21   -1    0    0  501  502 -0.00000000000E+00 -0.00000000000E+00 -0.21314949839E+03  0.21314949839E+03  0.00000000000E+00 0. -1.
      99926    2    1    2    0    0 -0.71054273576E-14  0.00000000000E+00  0.19470622237E+02  0.44576961901E+03  0.44534419060E+03 0.  0.
      99925    2    3    3    0    0 -0.61290322415E+02 -0.21814376927E+02  0.93162318540E+02  0.28667736632E+03  0.26319636035E+03 0.  0.
         25    1    4    4    0    0 -0.32655352244E+01 -0.41406014580E+02  0.47591223369E+02  0.14013405869E+03  0.12509000000E+03 0.  0.
         25    1    3    3    0    0  0.61290322415E+02  0.21814376927E+02 -0.73691696304E+02  0.15909225269E+03  0.12509000000E+03 0.  0.
         25    1    4    4    0    0 -0.58024787191E+02  0.19591637653E+02  0.45571095171E+02  0.14654330762E+03  0.12509000000E+03 0.  0.
<mgrwt>
<rscale>  2 0.44534419E+03</rscale>
<asrwt>0</asrwt>
<pdfrwt beam="1">  1       21 0.34208841E-01 0.44534419E+03</pdfrwt>
<pdfrwt beam="2">  1       21 0.31345515E-01 0.44534419E+03</pdfrwt>
<totfact> 0.74828304E+04</totfact>
</mgrwt>
</event>
<event>
 7    0  0.4766352E-002  0.4316608E+03  0.7546771E-02  0.1033337E+00
         21   -1    0    0  502  501  0.00000000000E+00  0.00000000000E+00  0.98122876998E+02  0.98122876998E+02  0.00000000000E+00 0.  1.
         21   -1    0    0  501  502 -0.00000000000E+00 -0.00000000000E+00 -0.47473905780E+03  0.47473905780E+03  0.00000000000E+00 0.  1.
      99926    2    1    2    0    0 -0.14210854715E-13  0.00000000000E+00 -0.37661618080E+03  0.57286193480E+03  0.43166080283E+03 0.  0.
      99925    2    3    3    0    0 -0.76887690064E+02  0.35789410804E+02 -0.20404736076E+03  0.34347121014E+03  0.26295350911E+03 0.  0.
         25    1    3    3    0    0  0.76887690064E+02 -0.35789410804E+02 -0.17256882005E+03  0.22939072466E+03  0.12509000000E+03 0.  0.
         25    1    4    4    0    0  0.20562896892E+01  0.50422486547E+01 -0.93355617974E+02  0.15618076740E+03  0.12509000000E+03 0.  0.
         25    1    4    4    0    0 -0.78943979753E+02  0.30747162149E+02 -0.11069174278E+03  0.18729044274E+03  0.12509000000E+03 0.  0.
<mgrwt>
<rscale>  2 0.43166080E+03</rscale>
<asrwt>0</asrwt>
<pdfrwt beam="1">  1       21 0.14429835E-01 0.43166080E+03</pdfrwt>
<pdfrwt beam="2">  1       21 0.69814566E-01 0.43166080E+03</pdfrwt>
<totfact> 0.72936761E+04</totfact>
</mgrwt>
</event>
<event>
 7    0  0.4766352E-002  0.4556556E+03  0.7546771E-02  0.1026049E+00
         21   -1    0    0  502  501  0.00000000000E+00  0.00000000000E+00  0.64679188110E+03  0.64679188110E+03  0.00000000000E+00 0. -1.
         21   -1    0    0  501  502 -0.00000000000E+00 -0.00000000000E+00 -0.80250715193E+02  0.80250715193E+02  0.00000000000E+00 0. -1.
      99926    2    1    2    0    0  0.00000000000E+00  0.71054273576E-14  0.56654116591E+03  0.72704259630E+03  0.45565562013E+03 0.  0.
      99925    2    3    3    0    0  0.10663596848E+03  0.34528671651E+02  0.32547067311E+03  0.43322981656E+03  0.26304649011E+03 0.  0.
         25    1    3    3    0    0 -0.10663596848E+03 -0.34528671651E+02  0.24107049280E+03  0.29381277974E+03  0.12509000000E+03 0.  0.
         25    1    4    4    0    0  0.40314663173E+02 -0.20792967153E+02  0.16876211994E+03  0.21490877315E+03  0.12509000000E+03 0.  0.
         25    1    4    4    0    0  0.66321305309E+02  0.55321638803E+02  0.15670855317E+03  0.21832104341E+03  0.12509000000E+03 0.  0.
<mgrwt>
<rscale>  2 0.45565562E+03</rscale>
<asrwt>0</asrwt>
<pdfrwt beam="1">  1       21 0.95116450E-01 0.45565562E+03</pdfrwt>
<pdfrwt beam="2">  1       21 0.11801576E-01 0.45565562E+03</pdfrwt>
<totfact> 0.51194769E+04</totfact>
</mgrwt>
</event>
<event>
 7    0  0.4766352E-002  0.4535854E+03  0.7546771E-02  0.1026658E+00
         21   -1    0    0  502  501  0.00000000000E+00  0.00000000000E+00  0.17475775888E+04  0.17475775888E+04  0.00000000000E+00 0.  1.
         21   -1    0    0  501  502 -0.00000000000E+00 -0.00000000000E+00 -0.29432132783E+02  0.29432132783E+02  0.00000000000E+00 0.  1.
      99926    2    1    2    0    0  0.00000000000E+00  0.14210854715E-13  0.17181454560E+04  0.17770097215E+04  0.45358543028E+03 0.  0.
      99925    2    3    3    0    0  0.60697423221E+02 -0.78433369491E+02  0.88102082588E+03  0.92480016688E+03  0.26310013759E+03 0.  0.
         25    1    4    4    0    0  0.52121816110E+02 -0.58670424020E+02  0.37313425881E+03  0.40129239411E+03  0.12509000000E+03 0.  0.
         25    1    4    4    0    0  0.85756071105E+01 -0.19762945470E+02  0.50788656706E+03  0.52350777278E+03  0.12509000000E+03 0.  0.
         25    1    3    3    0    0 -0.60697423221E+02  0.78433369491E+02  0.83712463010E+03  0.85220955466E+03  0.12509000000E+03 0.  0.
<mgrwt>
<rscale>  2 0.45358543E+03</rscale>
<asrwt>0</asrwt>
<pdfrwt beam="1">  1       21 0.25699663E+00 0.45358543E+03</pdfrwt>
<pdfrwt beam="2">  1       21 0.43282560E-02 0.45358543E+03</pdfrwt>
<totfact> 0.17901200E+04</totfact>
</mgrwt>
</event>
<event>
 7    0  0.4766352E-002  0.4538757E+03  0.7546771E-02  0.1026573E+00
         21   -1    0    0  502  501  0.00000000000E+00  0.00000000000E+00  0.18196888193E+03  0.18196888193E+03  0.00000000000E+00 0.  1.
         21   -1    0    0  501  502 -0.00000000000E+00 -0.00000000000E+00 -0.28301975210E+03  0.28301975210E+03  0.00000000000E+00 0.  1.
      99926    2    1    2    0    0  0.00000000000E+00 -0.14210854715E-13 -0.10105087017E+03  0.46498863403E+03  0.45387570040E+03 0.  0.
      99925    2    3    3    0    0  0.23524974219E+02 -0.10922634797E+03 -0.53979189932E+02  0.29078452764E+03  0.26297921794E+03 0.  0.
         25    1    3    3    0    0 -0.23524974219E+02  0.10922634797E+03 -0.47071680234E+02  0.17420410639E+03  0.12509000000E+03 0.  0.
         25    1    4    4    0    0 -0.88229325394E+01 -0.44884711242E+02  0.85883610077E+01  0.13346815907E+03  0.12509000000E+03 0.  0.
         25    1    4    4    0    0  0.32347906758E+02 -0.64341636727E+02 -0.62567550940E+02  0.15731636857E+03  0.12509000000E+03 0.  0.
<mgrwt>
<rscale>  2 0.45387570E+03</rscale>
<asrwt>0</asrwt>
<pdfrwt beam="1">  1       21 0.26760130E-01 0.45387570E+03</pdfrwt>
<pdfrwt beam="2">  1       21 0.41620551E-01 0.45387570E+03</pdfrwt>
<totfact> 0.68418812E+04</totfact>
</mgrwt>
</event>
<event>
 7    0  0.4766352E-002  0.4396156E+03  0.7546771E-02  0.1030865E+00
         21   -1    0    0  502  501  0.00000000000E+00  0.00000000000E+00  0.37819929122E+03  0.37819929122E+03  0.00000000000E+00 0. -1.
         21   -1    0    0  501  502 -0.00000000000E+00 -0.00000000000E+00 -0.12775134479E+03  0.12775134479E+03  0.00000000000E+00 0. -1.
      99926    2    1    2    0    0  0.14210854715E-13  0.00000000000E+00  0.25044794644E+03  0.50595063601E+03  0.43961559595E+03 0.  0.
      99925    2    3    3    0    0  0.90588494260E+02  0.20810790249E+02  0.12352298835E+03  0.30496104083E+03  0.26287628933E+03 0.  0.
         25    1    4    4    0    0  0.41326745769E+02  0.11674202117E+02  0.10515316044E+03  0.16896414460E+03  0.12509000000E+03 0.  0.
         25    1    3    3    0    0 -0.90588494260E+02 -0.20810790249E+02  0.12692495809E+03  0.20098959518E+03  0.12509000000E+03 0.  0.
         25    1    4    4    0    0  0.49261748491E+02  0.91365881320E+01  0.18369827913E+02  0.13599689623E+03  0.12509000000E+03 0.  0.
<mgrwt>
<rscale>  2 0.43961560E+03</rscale>
<asrwt>0</asrwt>
<pdfrwt beam="1">  1       21 0.55617543E-01 0.43961560E+03</pdfrwt>
<pdfrwt beam="2">  1       21 0.18786963E-01 0.43961560E+03</pdfrwt>
<totfact> 0.73415805E+04</totfact>
</mgrwt>
</event>
<event>
 6    0  0.4766352E-002  0.4568188E+03  0.7546771E-02  0.1025708E+00
         21   -1    0    0  502  501  0.00000000000E+00  0.00000000000E+00  0.82707864099E+02  0.82707864099E+02  0.00000000000E+00 0.  1.
         21   -1    0    0  501  502 -0.00000000000E+00 -0.00000000000E+00 -0.63078462080E+03  0.63078462080E+03  0.00000000000E+00 0.  1.
      99926    2    1    2    0    0  0.44408920985E-14  0.00000000000E+00 -0.54807675670E+03  0.71349248490E+03  0.45681877673E+03 0.  0.
         25    1    3    3    0    0 -0.30860411484E+02 -0.10598105883E+02 -0.26447213175E+03  0.29437680177E+03  0.12509000000E+03 0.  0.
         25    1    3    3    0    0  0.36955257454E+02 -0.15738111109E+02 -0.25666085188E+03  0.28833258606E+03  0.12509000000E+03 0.  0.
         25    1    3    3    0    0 -0.60948459692E+01  0.26336216992E+02 -0.26943773066E+02  0.13078309707E+03  0.12509000000E+03 0.  0.
<mgrwt>
<rscale>  2 0.45681878E+03</rscale>
<asrwt>0</asrwt>
<pdfrwt beam="1">  1       21 0.12162921E-01 0.45681878E+03</pdfrwt>
<pdfrwt beam="2">  1       21 0.92762444E-01 0.45681878E+03</pdfrwt>
<totfact> 0.51436612E+04</totfact>
</mgrwt>
</event>
<event>
 7    0  0.4766352E-002  0.4389961E+03  0.7546771E-02  0.1031055E+00
         21   -1    0    0  502  501  0.00000000000E+00  0.00000000000E+00  0.12291081199E+04  0.12291081199E+04  0.00000000000E+00 0.  1.
         21   -1    0    0  501  502 -0.00000000000E+00 -0.00000000000E+00 -0.39198667854E+02  0.39198667854E+02  0.00000000000E+00 0.  1.
      99926    2    1    2    0    0  0.71054273576E-14  0.71054273576E-14  0.11899094520E+04  0.12683067877E+04  0.43899613186E+03 0.  0.
      99925    2    3    3    0    0  0.37861012206E+02  0.52174996899E+02  0.54848546772E+03  0.61162732080E+03  0.26286115100E+03 0.  0.
         25    1    4    4    0    0  0.58016040725E+02  0.28096578538E+02  0.26043589124E+03  0.29602304007E+03  0.12509000000E+03 0.  0.
         25    1    3    3    0    0 -0.37861012206E+02 -0.52174996899E+02  0.64142398430E+03  0.65667946693E+03  0.12509000000E+03 0.  0.
         25    1    4    4    0    0 -0.20155028519E+02  0.24078418360E+02  0.28804957648E+03  0.31560428073E+03  0.12509000000E+03 0.  0.
<mgrwt>
<rscale>  2 0.43899613E+03</rscale>
<asrwt>0</asrwt>
<pdfrwt beam="1">  1       21 0.18075117E+00 0.43899613E+03</pdfrwt>
<pdfrwt beam="2">  1       21 0.57645108E-02 0.43899613E+03</pdfrwt>
<totfact> 0.34101345E+04</totfact>
</mgrwt>
</event>
<event>
 7    0  0.4766352E-002  0.4277535E+03  0.7546771E-02  0.1034572E+00
         21   -1    0    0  502  501  0.00000000000E+00  0.00000000000E+00  0.19257622618E+03  0.19257622618E+03  0.00000000000E+00 0.  1.
         21   -1    0    0  501  502 -0.00000000000E+00 -0.00000000000E+00 -0.23753327453E+03  0.23753327453E+03  0.00000000000E+00 0.  1.
      99926    2    1    2    0    0 -0.17763568394E-14  0.00000000000E+00 -0.44957048349E+02  0.43010950071E+03  0.42775348790E+03 0.  0.
      99925    2    3    3    0    0 -0.90148251453E+01 -0.82273948285E+02 -0.49041438723E+02  0.28006130851E+03  0.26301901865E+03 0.  0.
         25    1    4    4    0    0 -0.88015797406E+01 -0.63227929217E+02 -0.60698500716E+02  0.15299364342E+03  0.12509000000E+03 0.  0.
         25    1    4    4    0    0 -0.21324540471E+00 -0.19046019068E+02  0.11657061992E+02  0.12706766509E+03  0.12509000000E+03 0.  0.
         25    1    3    3    0    0  0.90148251453E+01  0.82273948285E+02  0.40843903741E+01  0.15004819220E+03  0.12509000000E+03 0.  0.
<mgrwt>
<rscale>  2 0.42775349E+03</rscale>
<asrwt>0</asrwt>
<pdfrwt beam="1">  1       21 0.28320033E-01 0.42775349E+03</pdfrwt>
<pdfrwt beam="2">  1       21 0.34931364E-01 0.42775349E+03</pdfrwt>
<totfact> 0.88048527E+04</totfact>
</mgrwt>
</event>
<event>
 7    0  0.4766352E-002  0.4565520E+03  0.7546771E-02  0.1025786E+00
         21   -1    0    0  502  501  0.00000000000E+00  0.00000000000E+00  0.41859471753E+03  0.41859471753E+03  0.00000000000E+00 0.  1.
         21   -1    0    0  501  502 -0.00000000000E+00 -0.00000000000E+00 -0.12448779119E+03  0.12448779119E+03  0.00000000000E+00 0.  1.
      99926    2    1    2    0    0  0.00000000000E+00  0.00000000000E+00  0.29410692634E+03  0.54308250872E+03  0.45655199830E+03 0.  0.
      99925    2    3    3    0    0 -0.94856855033E+01 -0.10635987015E+03  0.23430769795E+03  0.36808006295E+03  0.26302173905E+03 0.  0.
         25    1    3    3    0    0  0.94856855033E+01  0.10635987015E+03  0.59799228386E+02  0.17500244577E+03  0.12509000000E+03 0.  0.
         25    1    4    4    0    0 -0.12861556424E+02 -0.20505757948E+02  0.74027545691E+02  0.14735498418E+03  0.12509000000E+03 0.  0.
         25    1    4    4    0    0  0.33758709206E+01 -0.85854112206E+02  0.16028015226E+03  0.22072507877E+03  0.12509000000E+03 0.  0.
<mgrwt>
<rscale>  2 0.45655200E+03</rscale>
<asrwt>0</asrwt>
<pdfrwt beam="1">  1       21 0.61558046E-01 0.45655200E+03</pdfrwt>
<pdfrwt beam="2">  1       21 0.18307028E-01 0.45655200E+03</pdfrwt>
<totfact> 0.61566337E+04</totfact>
</mgrwt>
</event>
<event>
 7    0  0.4766352E-002  0.4529425E+03  0.7546771E-02  0.1026848E+00
         21   -1    0    0  502  501  0.00000000000E+00  0.00000000000E+00  0.27034169201E+02  0.27034169201E+02  0.00000000000E+00 0.  1.
         21   -1    0    0  501  502 -0.00000000000E+00 -0.00000000000E+00 -0.18971999949E+04  0.18971999949E+04  0.00000000000E+00 0.  1.
      99926    2    1    2    0    0  0.00000000000E+00 -0.71054273576E-14 -0.18701658257E+04  0.19242341641E+04  0.45294249378E+03 0.  0.
      99925    2    3    3    0    0  0.73592568268E+02 -0.53774967602E+02 -0.90802700406E+03  0.94972596329E+03  0.26298051638E+03 0.  0.
         25    1    4    4    0    0  0.30451630670E+02  0.11977073659E+02 -0.37879198484E+03  0.40025195563E+03  0.12509000000E+03 0.  0.
         25    1    4    4    0    0  0.43140937598E+02 -0.65752041261E+02 -0.52923501922E+03  0.54947400766E+03  0.12509000000E+03 0.  0.
         25    1    3    3    0    0 -0.73592568268E+02  0.53774967602E+02 -0.96213882162E+03  0.97450820079E+03  0.12509000000E+03 0.  0.
<mgrwt>
<rscale>  2 0.45294249E+03</rscale>
<asrwt>0</asrwt>
<pdfrwt beam="1">  1       21 0.39756123E-02 0.45294249E+03</pdfrwt>
<pdfrwt beam="2">  1       21 0.27900005E+00 0.45294249E+03</pdfrwt>
<totfact> 0.15228168E+04</totfact>
</mgrwt>
</event>
<event>
 7    0  0.4766352E-002  0.4578828E+03  0.7546771E-02  0.1025397E+00
         21   -1    0    0  502  501  0.00000000000E+00  0.00000000000E+00  0.18563446688E+04  0.18563446688E+04  0.00000000000E+00 0. -1.
         21   -1    0    0  501  502 -0.00000000000E+00 -0.00000000000E+00 -0.28235147974E+02  0.28235147974E+02  0.00000000000E+00 0. -1.
      99926    2    1    2    0    0 -0.71054273576E-14 -0.17763568394E-14  0.18281095209E+04  0.18845798168E+04  0.45788280778E+03 0.  0.
      99925    2    3    3    0    0 -0.33789003300E+02 -0.15047464770E+02  0.69489820516E+03  0.74388550321E+03  0.26289542296E+03 0.  0.
         25    1    3    3    0    0  0.33789003300E+02  0.15047464770E+02  0.11332113157E+04  0.11406943136E+04  0.12509000000E+03 0.  0.
         25    1    4    4    0    0  0.18349718381E+02 -0.27294163808E+02  0.34718211945E+03  0.37049239629E+03  0.12509000000E+03 0.  0.
         25    1    4    4    0    0 -0.52138721682E+02  0.12246699038E+02  0.34771608571E+03  0.37339310692E+03  0.12509000000E+03 0.  0.
<mgrwt>
<rscale>  2 0.45788281E+03</rscale>
<asrwt>0</asrwt>
<pdfrwt beam="1">  1       21 0.27299178E+00 0.45788281E+03</pdfrwt>
<pdfrwt beam="2">  1       21 0.41522289E-02 0.45788281E+03</pdfrwt>
<totfact> 0.15341049E+04</totfact>
</mgrwt>
</event>
<event>
 7    0  0.4766352E-002  0.4540194E+03  0.7546771E-02  0.1026530E+00
         21   -1    0    0  502  501  0.00000000000E+00  0.00000000000E+00  0.57735894879E+03  0.57735894879E+03  0.00000000000E+00 0.  1.
         21   -1    0    0  501  502 -0.00000000000E+00 -0.00000000000E+00 -0.89257130380E+02  0.89257130380E+02  0.00000000000E+00 0.  1.
      99926    2    1    2    0    0  0.31086244690E-14  0.00000000000E+00  0.48810181840E+03  0.66661607917E+03  0.45401939592E+03 0.  0.
      99925    2    3    3    0    0  0.37290311421E+01  0.64069083510E+02  0.17210521466E+03  0.32075466933E+03  0.26295360779E+03 0.  0.
         25    1    3    3    0    0 -0.37290311421E+01 -0.64069083510E+02  0.31599660375E+03  0.34586140984E+03  0.12509000000E+03 0.  0.
         25    1    4    4    0    0  0.23034394665E+02 -0.80282526901E+00  0.96662504844E+02  0.15975724024E+03  0.12509000000E+03 0.  0.
         25    1    4    4    0    0 -0.19305363523E+02  0.64871908779E+02  0.75442709814E+02  0.16099742909E+03  0.12509000000E+03 0.  0.
<mgrwt>
<rscale>  2 0.45401940E+03</rscale>
<asrwt>0</asrwt>
<pdfrwt beam="1">  1       21 0.84905726E-01 0.45401940E+03</pdfrwt>
<pdfrwt beam="2">  1       21 0.13126049E-01 0.45401940E+03</pdfrwt>
<totfact> 0.55178470E+04</totfact>
</mgrwt>
</event>
<event>
 7    0  0.4766352E-002  0.5040429E+03  0.7546771E-02  0.1012729E+00
         21   -1    0    0  502  501  0.00000000000E+00  0.00000000000E+00  0.96751051547E+02  0.96751051547E+02  0.00000000000E+00 0.  1.
         21   -1    0    0  501  502 -0.00000000000E+00 -0.00000000000E+00 -0.65647682215E+03  0.65647682215E+03  0.00000000000E+00 0.  1.
      99926    2    1    2    0    0  0.00000000000E+00  0.00000000000E+00 -0.55972577060E+03  0.75322787370E+03  0.50404294602E+03 0.  0.
      99925    2    3    3    0    0  0.77209078480E+02  0.12894468764E+03 -0.28398776793E+03  0.41519395752E+03  0.26296196637E+03 0.  0.
         25    1    4    4    0    0  0.45521081063E+02  0.10838734814E+03 -0.14876768709E+03  0.22715483460E+03  0.12509000000E+03 0.  0.
         25    1    4    4    0    0  0.31687997416E+02  0.20557339500E+02 -0.13522008083E+03  0.18803912292E+03  0.12509000000E+03 0.  0.
         25    1    3    3    0    0 -0.77209078480E+02 -0.12894468764E+03 -0.27573800268E+03  0.33803391618E+03  0.12509000000E+03 0.  0.
<mgrwt>
<rscale>  2 0.50404295E+03</rscale>
<asrwt>0</asrwt>
<pdfrwt beam="1">  1       21 0.14228096E-01 0.50404295E+03</pdfrwt>
<pdfrwt beam="2">  1       21 0.96540706E-01 0.50404295E+03</pdfrwt>
<totfact> 0.34673547E+04</totfact>
</mgrwt>
</event>
<event>
 7    0  0.4766352E-002  0.4567294E+03  0.7546771E-02  0.1025734E+00
         21   -1    0    0  502  501  0.00000000000E+00  0.00000000000E+00  0.59777984336E+03  0.59777984336E+03  0.00000000000E+00 0.  1.
         21   -1    0    0  501  502 -0.00000000000E+00 -0.00000000000E+00 -0.87240196584E+02  0.87240196584E+02  0.00000000000E+00 0.  1.
      99926    2    1    2    0    0  0.71054273576E-14  0.00000000000E+00  0.51053964677E+03  0.68502003994E+03  0.45672937741E+03 0.  0.
      99925    2    3    3    0    0 -0.55405737453E+02  0.75427621567E+02  0.22111199067E+03  0.35612036214E+03  0.26300585179E+03 0.  0.
         25    1    3    3    0    0  0.55405737453E+02 -0.75427621567E+02  0.28942765611E+03  0.32889967780E+03  0.12509000000E+03 0.  0.
         25    1    4    4    0    0 -0.47660791049E+02  0.89618178601E+01  0.80933458575E+02  0.15668311332E+03  0.12509000000E+03 0.  0.
         25    1    4    4    0    0 -0.77449464043E+01  0.66465803707E+02  0.14017853209E+03  0.19943724882E+03  0.12509000000E+03 0.  0.
<mgrwt>
<rscale>  2 0.45672938E+03</rscale>
<asrwt>0</asrwt>
<pdfrwt beam="1">  1       21 0.87908798E-01 0.45672938E+03</pdfrwt>
<pdfrwt beam="2">  1       21 0.12829441E-01 0.45672938E+03</pdfrwt>
<totfact> 0.52998769E+04</totfact>
</mgrwt>
</event>
<event>
 7    0  0.4766352E-002  0.4590242E+03  0.7546771E-02  0.1025065E+00
         21   -1    0    0  502  501  0.00000000000E+00  0.00000000000E+00  0.21123691063E+03  0.21123691063E+03  0.00000000000E+00 0. -1.
         21   -1    0    0  501  502 -0.00000000000E+00 -0.00000000000E+00 -0.24936841396E+03  0.24936841396E+03  0.00000000000E+00 0. -1.
      99926    2    1    2    0    0  0.17763568394E-14 -0.14210854715E-13 -0.38131503335E+02  0.46060532459E+03  0.45902424064E+03 0.  0.
      99925    2    3    3    0    0  0.82013106118E+01 -0.11319830898E+03  0.27172511079E+01  0.28683177226E+03  0.26340835877E+03 0.  0.
         25    1    4    4    0    0 -0.15886147247E+02 -0.17217104239E+02  0.39875986901E+01  0.12732716676E+03  0.12509000000E+03 0.  0.
         25    1    4    4    0    0  0.24087457859E+02 -0.95981204744E+02 -0.12703475822E+01  0.15950460549E+03  0.12509000000E+03 0.  0.
         25    1    3    3    0    0 -0.82013106118E+01  0.11319830898E+03 -0.40848754443E+02  0.17377355234E+03  0.12509000000E+03 0.  0.
<mgrwt>
<rscale>  2 0.45902424E+03</rscale>
<asrwt>0</asrwt>
<pdfrwt beam="1">  1       21 0.31064252E-01 0.45902424E+03</pdfrwt>
<pdfrwt beam="2">  1       21 0.36671825E-01 0.45902424E+03</pdfrwt>
<totfact> 0.65992624E+04</totfact>
</mgrwt>
</event>
<event>
 7    0  0.4766352E-002  0.4554769E+03  0.7546771E-02  0.1026101E+00
         21   -1    0    0  502  501  0.00000000000E+00  0.00000000000E+00  0.56861278775E+03  0.56861278775E+03  0.00000000000E+00 0.  1.
         21   -1    0    0  501  502 -0.00000000000E+00 -0.00000000000E+00 -0.91212872366E+02  0.91212872366E+02  0.00000000000E+00 0.  1.
      99926    2    1    2    0    0  0.00000000000E+00 -0.71054273576E-14  0.47739991538E+03  0.65982566011E+03  0.45547691768E+03 0.  0.
      99925    2    3    3    0    0 -0.93881187079E+02 -0.63386556944E+02  0.29851250304E+03  0.41389935554E+03  0.26338456514E+03 0.  0.
         25    1    4    4    0    0 -0.61545369510E+02 -0.47738786613E+01  0.10827367811E+03  0.17658233178E+03  0.12509000000E+03 0.  0.
         25    1    4    4    0    0 -0.32335817569E+02 -0.58612678282E+02  0.19023882493E+03  0.23731702376E+03  0.12509000000E+03 0.  0.
         25    1    3    3    0    0  0.93881187079E+02  0.63386556944E+02  0.17888741234E+03  0.24592630458E+03  0.12509000000E+03 0.  0.
<mgrwt>
<rscale>  2 0.45547692E+03</rscale>
<asrwt>0</asrwt>
<pdfrwt beam="1">  1       21 0.83619526E-01 0.45547692E+03</pdfrwt>
<pdfrwt beam="2">  1       21 0.13413658E-01 0.45547692E+03</pdfrwt>
<totfact> 0.54931676E+04</totfact>
</mgrwt>
</event>
<event>
 7    0  0.4766352E-002  0.4561197E+03  0.7546771E-02  0.1025913E+00
         21   -1    0    0  502  501  0.00000000000E+00  0.00000000000E+00  0.61024074240E+02  0.61024074240E+02  0.00000000000E+00 0.  1.
         21   -1    0    0  501  502 -0.00000000000E+00 -0.00000000000E+00 -0.85230772183E+03  0.85230772183E+03  0.00000000000E+00 0.  1.
      99926    2    1    2    0    0  0.00000000000E+00  0.00000000000E+00 -0.79128364759E+03  0.91333179607E+03  0.45611967593E+03 0.  0.
      99925    2    3    3    0    0 -0.12789612239E+02 -0.98945254668E+02 -0.38710465101E+03  0.47863430703E+03  0.26322433669E+03 0.  0.
         25    1    4    4    0    0 -0.18726359133E+02 -0.27764174401E+02 -0.12741310612E+03  0.18166764604E+03  0.12509000000E+03 0.  0.
         25    1    3    3    0    0  0.12789612239E+02  0.98945254668E+02 -0.40417899658E+03  0.43469748904E+03  0.12509000000E+03 0.  0.
         25    1    4    4    0    0  0.59367468937E+01 -0.71181080267E+02 -0.25969154489E+03  0.29696666099E+03  0.12509000000E+03 0.  0.
<mgrwt>
<rscale>  2 0.45611968E+03</rscale>
<asrwt>0</asrwt>
<pdfrwt beam="1">  1       21 0.89741286E-02 0.45611968E+03</pdfrwt>
<pdfrwt beam="2">  1       21 0.12533937E+00 0.45611968E+03</pdfrwt>
<totfact> 0.42290478E+04</totfact>
</mgrwt>
</event>
<event>
 7    0  0.4766352E-002  0.4522005E+03  0.7546771E-02  0.1027068E+00
         21   -1    0    0  502  501  0.00000000000E+00  0.00000000000E+00  0.11962881309E+03  0.11962881309E+03  0.00000000000E+00 0.  1.
         21   -1    0    0  501  502 -0.00000000000E+00 -0.00000000000E+00 -0.42733279259E+03  0.42733279259E+03  0.00000000000E+00 0.  1.
      99926    2    1    2    0    0  0.00000000000E+00  0.00000000000E+00 -0.30770397950E+03  0.54696160568E+03  0.45220046340E+03 0.  0.
      99925    2    3    3    0    0 -0.25261646811E+02  0.10735035237E+03 -0.18612672524E+03  0.34058625395E+03  0.26304674408E+03 0.  0.
         25    1    3    3    0    0  0.25261646811E+02 -0.10735035237E+03 -0.12157725425E+03  0.20637535174E+03  0.12509000000E+03 0.  0.
         25    1    4    4    0    0 -0.38364504612E+02  0.21785824571E+02 -0.96439308320E+02  0.16399544401E+03  0.12509000000E+03 0.  0.
         25    1    4    4    0    0  0.13102857802E+02  0.85564527798E+02 -0.89687416924E+02  0.17659080994E+03  0.12509000000E+03 0.  0.
<mgrwt>
<rscale>  2 0.45220046E+03</rscale>
<asrwt>0</asrwt>
<pdfrwt beam="1">  1       21 0.17592473E-01 0.45220046E+03</pdfrwt>
<pdfrwt beam="2">  1       21 0.62843057E-01 0.45220046E+03</pdfrwt>
<totfact> 0.63461860E+04</totfact>
</mgrwt>
</event>
<event>
 7    0  0.4766352E-002  0.4540734E+03  0.7546771E-02  0.1026514E+00
         21   -1    0    0  502  501  0.00000000000E+00  0.00000000000E+00  0.44233761292E+03  0.44233761292E+03  0.00000000000E+00 0. -1.
         21   -1    0    0  501  502 -0.00000000000E+00 -0.00000000000E+00 -0.11653016123E+03  0.11653016123E+03  0.00000000000E+00 0. -1.
      99926    2    1    2    0    0  0.35527136788E-14 -0.14210854715E-13  0.32580745168E+03  0.55886777415E+03  0.45407344495E+03 0.  0.
      99925    2    3    3    0    0  0.24413076565E+02 -0.10086588151E+03  0.25795996963E+03  0.38274079358E+03  0.26301567402E+03 0.  0.
         25    1    3    3    0    0 -0.24413076565E+02  0.10086588151E+03  0.67847482055E+02  0.17612698056E+03  0.12509000000E+03 0.  0.
         25    1    4    4    0    0 -0.42068587578E+01 -0.49006454878E+02  0.17749151025E+03  0.22264337985E+03  0.12509000000E+03 0.  0.
         25    1    4    4    0    0  0.28619935323E+02 -0.51859426637E+02  0.80468459376E+02  0.16009741373E+03  0.12509000000E+03 0.  0.
<mgrwt>
<rscale>  2 0.45407344E+03</rscale>
<asrwt>0</asrwt>
<pdfrwt beam="1">  1       21 0.65049648E-01 0.45407344E+03</pdfrwt>
<pdfrwt beam="2">  1       21 0.17136789E-01 0.45407344E+03</pdfrwt>
<totfact> 0.61735524E+04</totfact>
</mgrwt>
</event>
<event>
 7    0  0.4766352E-002  0.4438277E+03  0.7546771E-02  0.1029579E+00
         21   -1    0    0  502  501  0.00000000000E+00  0.00000000000E+00  0.72092504903E+02  0.72092504903E+02  0.00000000000E+00 0.  1.
         21   -1    0    0  501  502 -0.00000000000E+00 -0.00000000000E+00 -0.68309109704E+03  0.68309109704E+03  0.00000000000E+00 0.  1.
      99926    2    1    2    0    0  0.00000000000E+00 -0.14210854715E-13 -0.61099859214E+03  0.75518360195E+03  0.44382766143E+03 0.  0.
      99925    2    3    3    0    0 -0.57907037506E+02  0.81224147185E+02 -0.35010569062E+03  0.44913915870E+03  0.26306159392E+03 0.  0.
         25    1    4    4    0    0 -0.52937482439E+02  0.74644753848E+01 -0.16838872196E+03  0.21647255074E+03  0.12509000000E+03 0.  0.
         25    1    3    3    0    0  0.57907037506E+02 -0.81224147185E+02 -0.26089290152E+03  0.30604444325E+03  0.12509000000E+03 0.  0.
         25    1    4    4    0    0 -0.49695550676E+01  0.73759671800E+02 -0.18171696866E+03  0.23266660796E+03  0.12509000000E+03 0.  0.
<mgrwt>
<rscale>  2 0.44382766E+03</rscale>
<asrwt>0</asrwt>
<pdfrwt beam="1">  1       21 0.10601839E-01 0.44382766E+03</pdfrwt>
<pdfrwt beam="2">  1       21 0.10045457E+00 0.44382766E+03</pdfrwt>
<totfact> 0.54646647E+04</totfact>
</mgrwt>
</event>
<event>
 7    0  0.4766352E-002  0.4486321E+03  0.7546771E-02  0.1028131E+00
         21   -1    0    0  502  501  0.00000000000E+00  0.00000000000E+00  0.59886924679E+03  0.59886924679E+03  0.00000000000E+00 0.  1.
         21   -1    0    0  501  502 -0.00000000000E+00 -0.00000000000E+00 -0.84021144236E+02  0.84021144236E+02  0.00000000000E+00 0.  1.
      99926    2    1    2    0    0 -0.71054273576E-14  0.00000000000E+00  0.51484810255E+03  0.68289039103E+03  0.44863205130E+03 0.  0.
      99925    2    3    3    0    0 -0.40994982092E+02  0.41011508747E+02  0.46281241627E+03  0.53552094659E+03  0.26310609870E+03 0.  0.
         25    1    3    3    0    0  0.40994982092E+02 -0.41011508747E+02  0.52035686282E+02  0.14736944444E+03  0.12509000000E+03 0.  0.
         25    1    4    4    0    0  0.53457545339E+01 -0.87075038571E+01  0.24565285455E+03  0.27585726520E+03  0.12509000000E+03 0.  0.
         25    1    4    4    0    0 -0.46340736626E+02  0.49719012604E+02  0.21715956172E+03  0.25966368139E+03  0.12509000000E+03 0.  0.
<mgrwt>
<rscale>  2 0.44863205E+03</rscale>
<asrwt>0</asrwt>
<pdfrwt beam="1">  1       21 0.88069005E-01 0.44863205E+03</pdfrwt>
<pdfrwt beam="2">  1       21 0.12356051E-01 0.44863205E+03</pdfrwt>
<totfact> 0.56628309E+04</totfact>
</mgrwt>
</event>
<event>
 7    0  0.4766352E-002  0.4519326E+03  0.7546771E-02  0.1027147E+00
         21   -1    0    0  502  501  0.00000000000E+00  0.00000000000E+00  0.29826313712E+03  0.29826313712E+03  0.00000000000E+00 0. -1.
         21   -1    0    0  501  502 -0.00000000000E+00 -0.00000000000E+00 -0.17119367828E+03  0.17119367828E+03  0.00000000000E+00 0. -1.
      99926    2    1    2    0    0  0.00000000000E+00 -0.71054273576E-14  0.12706945885E+03  0.46945681540E+03  0.45193257700E+03 0.  0.
      99925    2    3    3    0    0 -0.84144905578E+02  0.59362350311E+02  0.12134469168E+03  0.30733175618E+03  0.26291447352E+03 0.  0.
         25    1    3    3    0    0  0.84144905578E+02 -0.59362350311E+02  0.57247671692E+01  0.16212505922E+03  0.12509000000E+03 0.  0.
         25    1    4    4    0    0 -0.34961567636E+02 -0.44877161190E+01  0.81060237725E+02  0.15316892977E+03  0.12509000000E+03 0.  0.
         25    1    4    4    0    0 -0.49183337942E+02  0.63850066430E+02  0.40284453954E+02  0.15416282640E+03  0.12509000000E+03 0.  0.
<mgrwt>
<rscale>  2 0.45193258E+03</rscale>
<asrwt>0</asrwt>
<pdfrwt beam="1">  1       21 0.43862226E-01 0.45193258E+03</pdfrwt>
<pdfrwt beam="2">  1       21 0.25175541E-01 0.45193258E+03</pdfrwt>
<totfact> 0.69143547E+04</totfact>
</mgrwt>
</event>
<event>
 7    0  0.4766352E-002  0.4562389E+03  0.7546771E-02  0.1025878E+00
         21   -1    0    0  502  501  0.00000000000E+00  0.00000000000E+00  0.24368808371E+03  0.24368808371E+03  0.00000000000E+00 0.  1.
         21   -1    0    0  501  502 -0.00000000000E+00 -0.00000000000E+00 -0.21354545083E+03  0.21354545083E+03  0.00000000000E+00 0.  1.
      99926    2    1    2    0    0 -0.44408920985E-15  0.00000000000E+00  0.30142632873E+02  0.45723353454E+03  0.45623889224E+03 0.  0.
      99925    2    3    3    0    0 -0.32460823501E+01 -0.83425801987E+02  0.97243417630E+02  0.29255073367E+03  0.26298145944E+03 0.  0.
         25    1    4    4    0    0  0.20274768989E+02 -0.77383324702E+02  0.53513907400E+02  0.15783057874E+03  0.12509000000E+03 0.  0.
         25    1    4    4    0    0 -0.23520851340E+02 -0.60424772849E+01  0.43729510230E+02  0.13472015493E+03  0.12509000000E+03 0.  0.
         25    1    3    3    0    0  0.32460823501E+01  0.83425801987E+02 -0.67100784758E+02  0.16468280087E+03  0.12509000000E+03 0.  0.
<mgrwt>
<rscale>  2 0.45623889E+03</rscale>
<asrwt>0</asrwt>
<pdfrwt beam="1">  1       21 0.35836483E-01 0.45623889E+03</pdfrwt>
<pdfrwt beam="2">  1       21 0.31403743E-01 0.45623889E+03</pdfrwt>
<totfact> 0.67710721E+04</totfact>
</mgrwt>
</event>
<event>
 7    0  0.4766352E-002  0.4588764E+03  0.7546771E-02  0.1025108E+00
         21   -1    0    0  502  501  0.00000000000E+00  0.00000000000E+00  0.31800673344E+03  0.31800673344E+03  0.00000000000E+00 0. -1.
         21   -1    0    0  501  502 -0.00000000000E+00 -0.00000000000E+00 -0.16553703178E+03  0.16553703178E+03  0.00000000000E+00 0. -1.
      99926    2    1    2    0    0  0.00000000000E+00  0.00000000000E+00  0.15246970166E+03  0.48354376522E+03  0.45887641360E+03 0.  0.
      99925    2    3    3    0    0 -0.55154508055E+02  0.80827404964E+02  0.16256220564E+03  0.32440717015E+03  0.26313200526E+03 0.  0.
         25    1    3    3    0    0  0.55154508055E+02 -0.80827404964E+02 -0.10092503985E+02  0.15913659506E+03  0.12509000000E+03 0.  0.
         25    1    4    4    0    0 -0.20409650383E+02  0.27389899720E+01  0.52829331984E+02  0.13734082537E+03  0.12509000000E+03 0.  0.
         25    1    4    4    0    0 -0.34744857672E+02  0.78088414992E+02  0.10973287366E+03  0.18706634479E+03  0.12509000000E+03 0.  0.
<mgrwt>
<rscale>  2 0.45887641E+03</rscale>
<asrwt>0</asrwt>
<pdfrwt beam="1">  1       21 0.46765696E-01 0.45887641E+03</pdfrwt>
<pdfrwt beam="2">  1       21 0.24343681E-01 0.45887641E+03</pdfrwt>
<totfact> 0.64437355E+04</totfact>
</mgrwt>
</event>
<event>
 7    0  0.4766352E-002  0.4527433E+03  0.7546771E-02  0.1026907E+00
         21   -1    0    0  502  501  0.00000000000E+00  0.00000000000E+00  0.13759363640E+03  0.13759363640E+03  0.00000000000E+00 0. -1.
         21   -1    0    0  501  502 -0.00000000000E+00 -0.00000000000E+00 -0.37243099521E+03  0.37243099521E+03  0.00000000000E+00 0. -1.
      99926    2    1    2    0    0 -0.14210854715E-13  0.00000000000E+00 -0.23483735881E+03  0.51002463161E+03  0.45274334866E+03 0.  0.
      99925    2    3    3    0    0 -0.65743281490E+02  0.34255833127E+02 -0.24127601940E+03  0.36447530796E+03  0.26293058288E+03 0.  0.
         25    1    4    4    0    0 -0.14588982488E+02 -0.19474715594E+02 -0.12138799134E+03  0.17599618035E+03  0.12509000000E+03 0.  0.
         25    1    4    4    0    0 -0.51154299002E+02  0.53730548721E+02 -0.11988802806E+03  0.18847912761E+03  0.12509000000E+03 0.  0.
         25    1    3    3    0    0  0.65743281490E+02 -0.34255833127E+02  0.64386605892E+01  0.14554932365E+03  0.12509000000E+03 0.  0.
<mgrwt>
<rscale>  2 0.45274335E+03</rscale>
<asrwt>0</asrwt>
<pdfrwt beam="1">  1       21 0.20234359E-01 0.45274335E+03</pdfrwt>
<pdfrwt beam="2">  1       21 0.54769263E-01 0.45274335E+03</pdfrwt>
<totfact> 0.65741465E+04</totfact>
</mgrwt>
</event>
<event>
 7    0  0.4766352E-002  0.4499747E+03  0.7546771E-02  0.1027730E+00
         21   -1    0    0  502  501  0.00000000000E+00  0.00000000000E+00  0.30796812782E+03  0.30796812782E+03  0.00000000000E+00 0. -1.
         21   -1    0    0  501  502 -0.00000000000E+00 -0.00000000000E+00 -0.16436538583E+03  0.16436538583E+03  0.00000000000E+00 0. -1.
      99926    2    1    2    0    0  0.14210854715E-13  0.00000000000E+00  0.14360274199E+03  0.47233351365E+03  0.44997466664E+03 0.  0.
      99925    2    3    3    0    0 -0.85838632857E+02  0.19415472375E+02  0.24811529466E+02  0.27867378183E+03  0.26324557589E+03 0.  0.
         25    1    4    4    0    0 -0.11658556233E+02  0.10025254788E+02  0.39811588195E+02  0.13216995998E+03  0.12509000000E+03 0.  0.
         25    1    4    4    0    0 -0.74180076624E+02  0.93902175874E+01 -0.15000058729E+02  0.14650382185E+03  0.12509000000E+03 0.  0.
         25    1    3    3    0    0  0.85838632857E+02 -0.19415472375E+02  0.11879121252E+03  0.19365973182E+03  0.12509000000E+03 0.  0.
<mgrwt>
<rscale>  2 0.44997467E+03</rscale>
<asrwt>0</asrwt>
<pdfrwt beam="1">  1       21 0.45289431E-01 0.44997467E+03</pdfrwt>
<pdfrwt beam="2">  1       21 0.24171380E-01 0.44997467E+03</pdfrwt>
<totfact> 0.70013338E+04</totfact>
</mgrwt>
</event>
<event>
 7    0  0.4766352E-002  0.4377964E+03  0.7546771E-02  0.1031425E+00
         21   -1    0    0  502  501  0.00000000000E+00  0.00000000000E+00  0.42684676345E+03  0.42684676345E+03  0.00000000000E+00 0.  1.
         21   -1    0    0  501  502 -0.00000000000E+00 -0.00000000000E+00 -0.11225672767E+03  0.11225672767E+03  0.00000000000E+00 0.  1.
      99926    2    1    2    0    0 -0.71054273576E-14  0.71054273576E-14  0.31459003579E+03  0.53910349112E+03  0.43779639506E+03 0.  0.
      99925    2    3    3    0    0 -0.49478586026E+02  0.58757961607E+02  0.12996210374E+03  0.30323147091E+03  0.26298012856E+03 0.  0.
         25    1    4    4    0    0  0.80862094071E+01  0.38934303365E+02  0.38681873370E+02  0.13683954907E+03  0.12509000000E+03 0.  0.
         25    1    4    4    0    0 -0.57564795433E+02  0.19823658242E+02  0.91280230366E+02  0.16639192184E+03  0.12509000000E+03 0.  0.
         25    1    3    3    0    0  0.49478586026E+02 -0.58757961607E+02  0.18462793205E+03  0.23587202021E+03  0.12509000000E+03 0.  0.
<mgrwt>
<rscale>  2 0.43779640E+03</rscale>
<asrwt>0</asrwt>
<pdfrwt beam="1">  1       21 0.62771582E-01 0.43779640E+03</pdfrwt>
<pdfrwt beam="2">  1       21 0.16508342E-01 0.43779640E+03</pdfrwt>
<totfact> 0.71891663E+04</totfact>
</mgrwt>
</event>
<event>
 7    0  0.4766352E-002  0.4469953E+03  0.7546771E-02  0.1028622E+00
         21   -1    0    0  502  501  0.00000000000E+00  0.00000000000E+00  0.55466637606E+03  0.55466637606E+03  0.00000000000E+00 0. -1.
         21   -1    0    0  501  502 -0.00000000000E+00 -0.00000000000E+00 -0.90056293990E+02  0.90056293990E+02  0.00000000000E+00 0. -1.
      99926    2    1    2    0    0  0.00000000000E+00  0.00000000000E+00  0.46461008207E+03  0.64472267005E+03  0.44699529406E+03 0.  0.
      99925    2    3    3    0    0 -0.41952928567E+02  0.93521961387E+02  0.25670794079E+03  0.38132712353E+03  0.26268803322E+03 0.  0.
         25    1    4    4    0    0 -0.61662834491E+01  0.72060558774E+02  0.17181883466E+03  0.22449937022E+03  0.12509000000E+03 0.  0.
         25    1    4    4    0    0 -0.35786645118E+02  0.21461402614E+02  0.84889106127E+02  0.15682775332E+03  0.12509000000E+03 0.  0.
         25    1    3    3    0    0  0.41952928567E+02 -0.93521961387E+02  0.20790214128E+03  0.26339554652E+03  0.12509000000E+03 0.  0.
<mgrwt>
<rscale>  2 0.44699529E+03</rscale>
<asrwt>0</asrwt>
<pdfrwt beam="1">  1       21 0.81568584E-01 0.44699529E+03</pdfrwt>
<pdfrwt beam="2">  1       21 0.13243573E-01 0.44699529E+03</pdfrwt>
<totfact> 0.59687776E+04</totfact>
</mgrwt>
</event>
<event>
 7    0  0.4766352E-002  0.4291556E+03  0.7546771E-02  0.1034127E+00
         21   -1    0    0  502  501  0.00000000000E+00  0.00000000000E+00  0.21970587052E+02  0.21970587052E+02  0.00000000000E+00 0.  1.
         21   -1    0    0  501  502 -0.00000000000E+00 -0.00000000000E+00 -0.20956942915E+04  0.20956942915E+04  0.00000000000E+00 0.  1.
      99926    2    1    2    0    0  0.71054273576E-14  0.00000000000E+00 -0.20737237045E+04  0.21176648786E+04  0.42915560752E+03 0.  0.
      99925    2    3    3    0    0  0.60228809907E+02 -0.71738706059E+01 -0.10327515720E+04  0.10674508706E+04  0.26305242371E+03 0.  0.
         25    1    4    4    0    0  0.50150539295E+01  0.47331389284E+01 -0.61829089225E+03  0.63085552142E+03  0.12509000000E+03 0.  0.
         25    1    3    3    0    0 -0.60228809907E+02  0.71738706059E+01 -0.10409721325E+04  0.10502140080E+04  0.12509000000E+03 0.  0.
         25    1    4    4    0    0  0.55213755977E+02 -0.11907009534E+02 -0.41446067976E+03  0.43659534914E+03  0.12509000000E+03 0.  0.
<mgrwt>
<rscale>  2 0.42915561E+03</rscale>
<asrwt>0</asrwt>
<pdfrwt beam="1">  1       21 0.32309698E-02 0.42915561E+03</pdfrwt>
<pdfrwt beam="2">  1       21 0.30819023E+00 0.42915561E+03</pdfrwt>
<totfact> 0.14599776E+04</totfact>
</mgrwt>
</event>
<event>
 7    0  0.4766352E-002  0.4765981E+03  0.7546771E-02  0.1020074E+00
         21   -1    0    0  502  501  0.00000000000E+00  0.00000000000E+00  0.41723090393E+03  0.41723090393E+03  0.00000000000E+00 0.  1.
         21   -1    0    0  501  502 -0.00000000000E+00 -0.00000000000E+00 -0.13610312878E+03  0.13610312878E+03  0.00000000000E+00 0.  1.
      99926    2    1    2    0    0  0.00000000000E+00  0.71054273576E-14  0.28112777515E+03  0.55333403272E+03  0.47659807574E+03 0.  0.
      99925    2    3    3    0    0 -0.12818617428E+03  0.33077818076E+02  0.18267862150E+03  0.34629398519E+03  0.26272077973E+03 0.  0.
         25    1    4    4    0    0 -0.83596483445E+02  0.52910105387E+02  0.89794483479E+02  0.18302570492E+03  0.12509000000E+03 0.  0.
         25    1    4    4    0    0 -0.44589690834E+02 -0.19832287311E+02  0.92884138025E+02  0.16326828028E+03  0.12509000000E+03 0.  0.
         25    1    3    3    0    0  0.12818617428E+03 -0.33077818076E+02  0.98449153643E+02  0.20704004752E+03  0.12509000000E+03 0.  0.
<mgrwt>
<rscale>  2 0.47659808E+03</rscale>
<asrwt>0</asrwt>
<pdfrwt beam="1">  1       21 0.61357485E-01 0.47659808E+03</pdfrwt>
<pdfrwt beam="2">  1       21 0.20015166E-01 0.47659808E+03</pdfrwt>
<totfact> 0.52142348E+04</totfact>
</mgrwt>
</event>
<event>
 7    0  0.4766352E-002  0.4526597E+03  0.7546771E-02  0.1026932E+00
         21   -1    0    0  502  501  0.00000000000E+00  0.00000000000E+00  0.19370146860E+04  0.19370146860E+04  0.00000000000E+00 0.  1.
         21   -1    0    0  501  502 -0.00000000000E+00 -0.00000000000E+00 -0.26445439295E+02  0.26445439295E+02  0.00000000000E+00 0.  1.
      99926    2    1    2    0    0  0.14210854715E-13  0.00000000000E+00  0.19105692467E+04  0.19634601253E+04  0.45265971455E+03 0.  0.
      99925    2    3    3    0    0 -0.10505047091E+03  0.16923286287E+02  0.10708347590E+04  0.11078179589E+04  0.26315689201E+03 0.  0.
         25    1    4    4    0    0 -0.56609507570E+02  0.43239436514E+02  0.46596262699E+03  0.48769146298E+03  0.12509000000E+03 0.  0.
         25    1    4    4    0    0 -0.48440963341E+02 -0.26316150228E+02  0.60487213203E+03  0.62012649589E+03  0.12509000000E+03 0.  0.
         25    1    3    3    0    0  0.10505047091E+03 -0.16923286287E+02  0.83973448770E+03  0.85564216644E+03  0.12509000000E+03 0.  0.
<mgrwt>
<rscale>  2 0.45265971E+03</rscale>
<asrwt>0</asrwt>
<pdfrwt beam="1">  1       21 0.28485500E+00 0.45265971E+03</pdfrwt>
<pdfrwt beam="2">  1       21 0.38890365E-02 0.45265971E+03</pdfrwt>
<totfact> 0.14578771E+04</totfact>
</mgrwt>
</event>
<event>
 7    0  0.4766352E-002  0.4567864E+03  0.7546771E-02  0.1025717E+00
         21   -1    0    0  502  501  0.00000000000E+00  0.00000000000E+00  0.19954039952E+03  0.19954039952E+03  0.00000000000E+00 0.  1.
         21   -1    0    0  501  502 -0.00000000000E+00 -0.00000000000E+00 -0.26141803784E+03  0.26141803784E+03  0.00000000000E+00 0.  1.
      99926    2    1    2    0    0  0.00000000000E+00  0.00000000000E+00 -0.61877638317E+02  0.46095843736E+03  0.45678642586E+03 0.  0.
      99925    2    3    3    0    0  0.19875676888E+02  0.10185274718E+03  0.10184506944E+02  0.28316787091E+03  0.26327038249E+03 0.  0.
         25    1    4    4    0    0  0.62363880430E+01  0.65179474639E+02  0.43856480016E+02  0.14784503843E+03  0.12509000000E+03 0.  0.
         25    1    4    4    0    0  0.13639288845E+02  0.36673272543E+02 -0.33671973072E+02  0.13532283248E+03  0.12509000000E+03 0.  0.
         25    1    3    3    0    0 -0.19875676888E+02 -0.10185274718E+03 -0.72062145262E+02  0.17779056645E+03  0.12509000000E+03 0.  0.
<mgrwt>
<rscale>  2 0.45678643E+03</rscale>
<asrwt>0</asrwt>
<pdfrwt beam="1">  1       21 0.29344177E-01 0.45678643E+03</pdfrwt>
<pdfrwt beam="2">  1       21 0.38443829E-01 0.45678643E+03</pdfrwt>
<totfact> 0.67149034E+04</totfact>
</mgrwt>
</event>
<event>
 7    0  0.4766352E-002  0.4653992E+03  0.7546771E-02  0.1023227E+00
         21   -1    0    0  502  501  0.00000000000E+00  0.00000000000E+00  0.14364031250E+03  0.14364031250E+03  0.00000000000E+00 0.  1.
         21   -1    0    0  501  502 -0.00000000000E+00 -0.00000000000E+00 -0.37697708489E+03  0.37697708489E+03  0.00000000000E+00 0.  1.
      99926    2    1    2    0    0  0.71054273576E-14  0.00000000000E+00 -0.23333677238E+03  0.52061739739E+03  0.46539921049E+03 0.  0.
      99925    2    3    3    0    0  0.32061507783E+02 -0.37989875631E+02 -0.19653821675E+02  0.26807218866E+03  0.26268851268E+03 0.  0.
         25    1    4    4    0    0 -0.15953522401E+02 -0.12980586694E+02  0.14386278303E+02  0.12758324189E+03  0.12509000000E+03 0.  0.
         25    1    3    3    0    0 -0.32061507783E+02  0.37989875631E+02 -0.21368295071E+03  0.25254520873E+03  0.12509000000E+03 0.  0.
         25    1    4    4    0    0  0.48015030184E+02 -0.25009288937E+02 -0.34040099978E+02  0.14048894677E+03  0.12509000000E+03 0.  0.
<mgrwt>
<rscale>  2 0.46539921E+03</rscale>
<asrwt>0</asrwt>
<pdfrwt beam="1">  1       21 0.21123576E-01 0.46539921E+03</pdfrwt>
<pdfrwt beam="2">  1       21 0.55437806E-01 0.46539921E+03</pdfrwt>
<totfact> 0.58837955E+04</totfact>
</mgrwt>
</event>
<event>
 7    0  0.4766352E-002  0.4558747E+03  0.7546771E-02  0.1025984E+00
         21   -1    0    0  502  501  0.00000000000E+00  0.00000000000E+00  0.17315491102E+04  0.17315491102E+04  0.00000000000E+00 0. -1.
         21   -1    0    0  501  502 -0.00000000000E+00 -0.00000000000E+00 -0.30005178429E+02  0.30005178429E+02  0.00000000000E+00 0. -1.
      99926    2    1    2    0    0 -0.14210854715E-13 -0.35527136788E-14  0.17015439317E+04  0.17615542886E+04  0.45587471967E+03 0.  0.
      99925    2    3    3    0    0 -0.69747744549E+02 -0.19037081353E+02  0.72945878498E+03  0.77879073668E+03  0.26301660444E+03 0.  0.
         25    1    4    4    0    0 -0.57174790030E+02 -0.31167068672E+02  0.30672232822E+03  0.33758915491E+03  0.12509000000E+03 0.  0.
         25    1    3    3    0    0  0.69747744549E+02  0.19037081353E+02  0.97208514676E+03  0.98276355192E+03  0.12509000000E+03 0.  0.
         25    1    4    4    0    0 -0.12572954520E+02  0.12129987319E+02  0.42273645677E+03  0.44120158177E+03  0.12509000000E+03 0.  0.
<mgrwt>
<rscale>  2 0.45587472E+03</rscale>
<asrwt>0</asrwt>
<pdfrwt beam="1">  1       21 0.25463951E+00 0.45587472E+03</pdfrwt>
<pdfrwt beam="2">  1       21 0.44125274E-02 0.45587472E+03</pdfrwt>
<totfact> 0.17888236E+04</totfact>
</mgrwt>
</event>
<event>
 7    0  0.4766352E-002  0.4564832E+03  0.7546771E-02  0.1025806E+00
         21   -1    0    0  502  501  0.00000000000E+00  0.00000000000E+00  0.19920173166E+03  0.19920173166E+03  0.00000000000E+00 0.  1.
         21   -1    0    0  501  502 -0.00000000000E+00 -0.00000000000E+00 -0.26151488898E+03  0.26151488898E+03  0.00000000000E+00 0.  1.
      99926    2    1    2    0    0 -0.35527136788E-14  0.00000000000E+00 -0.62313157316E+02  0.46071662064E+03  0.45648315956E+03 0.  0.
      99925    2    3    3    0    0 -0.13014985987E+02 -0.11968819971E+02  0.75116853869E+02  0.27404268410E+03  0.26295286357E+03 0.  0.
         25    1    4    4    0    0  0.27667858604E+02  0.13677950927E+02  0.26923166543E+02  0.13162432047E+03  0.12509000000E+03 0.  0.
         25    1    4    4    0    0 -0.40682844591E+02 -0.25646770898E+02  0.48193687326E+02  0.14241836363E+03  0.12509000000E+03 0.  0.
         25    1    3    3    0    0  0.13014985987E+02  0.11968819971E+02 -0.13743001119E+03  0.18667393655E+03  0.12509000000E+03 0.  0.
<mgrwt>
<rscale>  2 0.45648316E+03</rscale>
<asrwt>0</asrwt>
<pdfrwt beam="1">  1       21 0.29294372E-01 0.45648316E+03</pdfrwt>
<pdfrwt beam="2">  1       21 0.38458072E-01 0.45648316E+03</pdfrwt>
<totfact> 0.67328492E+04</totfact>
</mgrwt>
</event>
<event>
 7    0  0.4766352E-002  0.4537081E+03  0.7546771E-02  0.1026622E+00
         21   -1    0    0  502  501  0.00000000000E+00  0.00000000000E+00  0.80632653485E+02  0.80632653485E+02  0.00000000000E+00 0.  1.
         21   -1    0    0  501  502 -0.00000000000E+00 -0.00000000000E+00 -0.63823723724E+03  0.63823723724E+03  0.00000000000E+00 0.  1.
      99926    2    1    2    0    0  0.00000000000E+00  0.00000000000E+00 -0.55760458376E+03  0.71886989073E+03  0.45370810877E+03 0.  0.
      99925    2    3    3    0    0 -0.35790050159E+02 -0.89646884891E+02 -0.44115804443E+03  0.52259254542E+03  0.26299250312E+03 0.  0.
         25    1    3    3    0    0  0.35790050159E+02  0.89646884891E+02 -0.11644653933E+03  0.19627734531E+03  0.12509000000E+03 0.  0.
         25    1    4    4    0    0 -0.41240938617E+02 -0.35551684238E+02 -0.27996847150E+03  0.31143954534E+03  0.12509000000E+03 0.  0.
         25    1    4    4    0    0  0.54508884580E+01 -0.54095200653E+02 -0.16118957293E+03  0.21115300007E+03  0.12509000000E+03 0.  0.
<mgrwt>
<rscale>  2 0.45370811E+03</rscale>
<asrwt>0</asrwt>
<pdfrwt beam="1">  1       21 0.11857743E-01 0.45370811E+03</pdfrwt>
<pdfrwt beam="2">  1       21 0.93858416E-01 0.45370811E+03</pdfrwt>
<totfact> 0.52421092E+04</totfact>
</mgrwt>
</event>
<event>
 7    0  0.4766352E-002  0.4589993E+03  0.7546771E-02  0.1025072E+00
         21   -1    0    0  502  501  0.00000000000E+00  0.00000000000E+00  0.64069883951E+02  0.64069883951E+02  0.00000000000E+00 0.  1.
         21   -1    0    0  501  502 -0.00000000000E+00 -0.00000000000E+00 -0.82207263863E+03  0.82207263863E+03  0.00000000000E+00 0.  1.
      99926    2    1    2    0    0  0.00000000000E+00 -0.14210854715E-13 -0.75800275468E+03  0.88614252258E+03  0.45899934012E+03 0.  0.
      99925    2    3    3    0    0 -0.60559184584E+02  0.96108722089E+02 -0.42263708219E+03  0.51061363730E+03  0.26305870458E+03 0.  0.
         25    1    3    3    0    0  0.60559184584E+02 -0.96108722089E+02 -0.33536567249E+03  0.37552888528E+03  0.12509000000E+03 0.  0.
         25    1    4    4    0    0 -0.41110293353E+02  0.12919861439E+02 -0.16208086124E+03  0.20922402519E+03  0.12509000000E+03 0.  0.
         25    1    4    4    0    0 -0.19448891231E+02  0.83188860650E+02 -0.26055622095E+03  0.30138961210E+03  0.12509000000E+03 0.  0.
<mgrwt>
<rscale>  2 0.45899934E+03</rscale>
<asrwt>0</asrwt>
<pdfrwt beam="1">  1       21 0.94220419E-02 0.45899934E+03</pdfrwt>
<pdfrwt beam="2">  1       21 0.12089303E+00 0.45899934E+03</pdfrwt>
<totfact> 0.42491743E+04</totfact>
</mgrwt>
</event>
<event>
 7    0  0.4766352E-002  0.4555925E+03  0.7546771E-02  0.1026067E+00
         21   -1    0    0  502  501  0.00000000000E+00  0.00000000000E+00  0.30843888669E+02  0.30843888669E+02  0.00000000000E+00 0. -1.
         21   -1    0    0  501  502 -0.00000000000E+00 -0.00000000000E+00 -0.16823793190E+04  0.16823793190E+04  0.00000000000E+00 0. -1.
      99926    2    1    2    0    0 -0.35527136788E-14  0.00000000000E+00 -0.16515354303E+04  0.17132232076E+04  0.45559245127E+03 0.  0.
      99925    2    3    3    0    0 -0.20003261135E+02 -0.30008656656E+02 -0.14446236483E+04  0.14687633059E+04  0.26273087670E+03 0.  0.
         25    1    3    3    0    0  0.20003261135E+02  0.30008656656E+02 -0.20691178197E+03  0.24445990172E+03  0.12509000000E+03 0.  0.
         25    1    4    4    0    0  0.12464959960E+02  0.17700540288E+02 -0.64857017732E+03  0.66087780063E+03  0.12509000000E+03 0.  0.
         25    1    4    4    0    0 -0.32468221095E+02 -0.47709196944E+02 -0.79605347101E+03  0.80788550529E+03  0.12509000000E+03 0.  0.
<mgrwt>
<rscale>  2 0.45559245E+03</rscale>
<asrwt>0</asrwt>
<pdfrwt beam="1">  1       21 0.45358651E-02 0.45559245E+03</pdfrwt>
<pdfrwt beam="2">  1       21 0.24740877E+00 0.45559245E+03</pdfrwt>
<totfact> 0.18900866E+04</totfact>
</mgrwt>
</event>
<event>
 7    0  0.4766352E-002  0.4748481E+03  0.7546771E-02  0.1020561E+00
         21   -1    0    0  502  501  0.00000000000E+00  0.00000000000E+00  0.59834433689E+02  0.59834433689E+02  0.00000000000E+00 0.  1.
         21   -1    0    0  501  502 -0.00000000000E+00 -0.00000000000E+00 -0.94210285542E+03  0.94210285542E+03  0.00000000000E+00 0.  1.
      99926    2    1    2    0    0  0.00000000000E+00  0.00000000000E+00 -0.88226842174E+03  0.10019372891E+04  0.47484814765E+03 0.  0.
      99925    2    3    3    0    0 -0.34908808894E+02 -0.12243648202E+03 -0.61045073040E+03  0.67675782714E+03  0.26294817983E+03 0.  0.
         25    1    4    4    0    0  0.57616703149E+01 -0.31041460457E+02 -0.32082084241E+03  0.34578937250E+03  0.12509000000E+03 0.  0.
         25    1    3    3    0    0  0.34908808894E+02  0.12243648202E+03 -0.27181769133E+03  0.32517946197E+03  0.12509000000E+03 0.  0.
         25    1    4    4    0    0 -0.40670479209E+02 -0.91395021562E+02 -0.28962988800E+03  0.33096845464E+03  0.12509000000E+03 0.  0.
<mgrwt>
<rscale>  2 0.47484815E+03</rscale>
<asrwt>0</asrwt>
<pdfrwt beam="1">  1       21 0.87991807E-02 0.47484815E+03</pdfrwt>
<pdfrwt beam="2">  1       21 0.13854455E+00 0.47484815E+03</pdfrwt>
<totfact> 0.33576779E+04</totfact>
</mgrwt>
</event>
<event>
 7    0  0.4766352E-002  0.4411214E+03  0.7546771E-02  0.1030403E+00
         21   -1    0    0  502  501  0.00000000000E+00  0.00000000000E+00  0.31257687728E+03  0.31257687728E+03  0.00000000000E+00 0.  1.
         21   -1    0    0  501  502 -0.00000000000E+00 -0.00000000000E+00 -0.15563215617E+03  0.15563215617E+03  0.00000000000E+00 0.  1.
      99926    2    1    2    0    0 -0.14210854715E-13  0.88817841970E-15  0.15694472111E+03  0.46820903345E+03  0.44112135917E+03 0.  0.
      99925    2    3    3    0    0 -0.90215900056E+02  0.63898905031E+01  0.56134394381E+02  0.28384534560E+03  0.26312995014E+03 0.  0.
         25    1    4    4    0    0 -0.76328995611E+02 -0.19520445025E+02  0.13451476127E+02  0.14844397480E+03  0.12509000000E+03 0.  0.
         25    1    3    3    0    0  0.90215900056E+02 -0.63898905031E+01  0.10081032673E+03  0.18436368785E+03  0.12509000000E+03 0.  0.
         25    1    4    4    0    0 -0.13886904445E+02  0.25910335528E+02  0.42682918254E+02  0.13540137079E+03  0.12509000000E+03 0.  0.
<mgrwt>
<rscale>  2 0.44112136E+03</rscale>
<asrwt>0</asrwt>
<pdfrwt beam="1">  1       21 0.45967188E-01 0.44112136E+03</pdfrwt>
<pdfrwt beam="2">  1       21 0.22887082E-01 0.44112136E+03</pdfrwt>
<totfact> 0.75554043E+04</totfact>
</mgrwt>
</event>
<event>
 7    0  0.4766352E-002  0.4547298E+03  0.7546771E-02  0.1026321E+00
         21   -1    0    0  502  501  0.00000000000E+00  0.00000000000E+00  0.60350297414E+03  0.60350297414E+03  0.00000000000E+00 0.  1.
         21   -1    0    0  501  502 -0.00000000000E+00 -0.00000000000E+00 -0.85657894857E+02  0.85657894857E+02  0.00000000000E+00 0.  1.
      99926    2    1    2    0    0 -0.71054273576E-14 -0.14210854715E-13  0.51784507928E+03  0.68916086899E+03  0.45472978484E+03 0.  0.
      99925    2    3    3    0    0  0.57323920582E+02  0.97129489785E+02  0.33542417115E+03  0.44087662567E+03  0.26294990934E+03 0.  0.
         25    1    3    3    0    0 -0.57323920582E+02 -0.97129489785E+02  0.18242090813E+03  0.24828424332E+03  0.12509000000E+03 0.  0.
         25    1    4    4    0    0  0.65089485574E+02  0.64904379130E+02  0.20505844782E+03  0.25718805316E+03  0.12509000000E+03 0.  0.
         25    1    4    4    0    0 -0.77655649917E+01  0.32225110654E+02  0.13036572332E+03  0.18368857252E+03  0.12509000000E+03 0.  0.
<mgrwt>
<rscale>  2 0.45472978E+03</rscale>
<asrwt>0</asrwt>
<pdfrwt beam="1">  1       21 0.88750435E-01 0.45472978E+03</pdfrwt>
<pdfrwt beam="2">  1       21 0.12596750E-01 0.45472978E+03</pdfrwt>
<totfact> 0.53609480E+04</totfact>
</mgrwt>
</event>
<event>
 7    0  0.4766352E-002  0.4577110E+03  0.7546771E-02  0.1025447E+00
         21   -1    0    0  502  501  0.00000000000E+00  0.00000000000E+00  0.24067307420E+03  0.24067307420E+03  0.00000000000E+00 0. -1.
         21   -1    0    0  501  502 -0.00000000000E+00 -0.00000000000E+00 -0.21761822281E+03  0.21761822281E+03  0.00000000000E+00 0. -1.
      99926    2    1    2    0    0 -0.14210854715E-13  0.14210854715E-13  0.23054851388E+02  0.45829129701E+03  0.45771102974E+03 0.  0.
      99925    2    3    3    0    0 -0.64325519144E+02  0.75756455357E+02 -0.44353309384E+02  0.28488950584E+03  0.26328312051E+03 0.  0.
         25    1    3    3    0    0  0.64325519144E+02 -0.75756455357E+02  0.67408160772E+02  0.17340179117E+03  0.12509000000E+03 0.  0.
         25    1    4    4    0    0 -0.43393632714E+02  0.65124998916E+02 -0.54301355333E+02  0.15722728178E+03  0.12509000000E+03 0.  0.
         25    1    4    4    0    0 -0.20931886430E+02  0.10631456441E+02  0.99480459496E+01  0.12766222407E+03  0.12509000000E+03 0.  0.
<mgrwt>
<rscale>  2 0.45771103E+03</rscale>
<asrwt>0</asrwt>
<pdfrwt beam="1">  1       21 0.35393099E-01 0.45771103E+03</pdfrwt>
<pdfrwt beam="2">  1       21 0.32002680E-01 0.45771103E+03</pdfrwt>
<totfact> 0.66847651E+04</totfact>
</mgrwt>
</event>
<event>
 7    0  0.4766352E-002  0.4133045E+03  0.7546771E-02  0.1039268E+00
         21   -1    0    0  502  501  0.00000000000E+00  0.00000000000E+00  0.17051955832E+03  0.17051955832E+03  0.00000000000E+00 0. -1.
         21   -1    0    0  501  502 -0.00000000000E+00 -0.00000000000E+00 -0.25044139640E+03  0.25044139640E+03  0.00000000000E+00 0. -1.
      99926    2    1    2    0    0  0.17763568394E-14 -0.35527136788E-14 -0.79921838084E+02  0.42096095472E+03  0.41330451873E+03 0.  0.
      99925    2    3    3    0    0  0.95925419334E+01  0.24306311059E+02 -0.11500838560E+03  0.28844156922E+03  0.26322765143E+03 0.  0.
         25    1    4    4    0    0 -0.23691393078E+02  0.18068918558E+02 -0.88675762670E+02  0.15620072634E+03  0.12509000000E+03 0.  0.
         25    1    3    3    0    0 -0.95925419334E+01 -0.24306311059E+02  0.35086547518E+02  0.13251938551E+03  0.12509000000E+03 0.  0.
         25    1    4    4    0    0  0.33283935011E+02  0.62373925010E+01 -0.26332622931E+02  0.13224084288E+03  0.12509000000E+03 0.  0.
<mgrwt>
<rscale>  2 0.41330452E+03</rscale>
<asrwt>0</asrwt>
<pdfrwt beam="1">  1       21 0.25076406E-01 0.41330452E+03</pdfrwt>
<pdfrwt beam="2">  1       21 0.36829617E-01 0.41330452E+03</pdfrwt>
<totfact> 0.10063967E+05</totfact>
</mgrwt>
</event>
<event>
 7    0  0.4766352E-002  0.4469233E+03  0.7546771E-02  0.1028644E+00
         21   -1    0    0  502  501  0.00000000000E+00  0.00000000000E+00  0.70936449331E+02  0.70936449331E+02  0.00000000000E+00 0.  1.
         21   -1    0    0  501  502 -0.00000000000E+00 -0.00000000000E+00 -0.70394151097E+03  0.70394151097E+03  0.00000000000E+00 0.  1.
      99926    2    1    2    0    0  0.00000000000E+00  0.00000000000E+00 -0.63300506164E+03  0.77487796030E+03  0.44692331031E+03 0.  0.
      99925    2    3    3    0    0 -0.83991094209E+02  0.57721345400E+02 -0.35726525049E+03  0.45539993418E+03  0.26337118905E+03 0.  0.
         25    1    4    4    0    0 -0.57259231521E+02  0.38010698115E+02 -0.12601787104E+03  0.19039812154E+03  0.12509000000E+03 0.  0.
         25    1    4    4    0    0 -0.26731862687E+02  0.19710647285E+02 -0.23124737945E+03  0.26500181264E+03  0.12509000000E+03 0.  0.
         25    1    3    3    0    0  0.83991094209E+02 -0.57721345400E+02 -0.27573981115E+03  0.31947802612E+03  0.12509000000E+03 0.  0.
<mgrwt>
<rscale>  2 0.44692331E+03</rscale>
<asrwt>0</asrwt>
<pdfrwt beam="1">  1       21 0.10431831E-01 0.44692331E+03</pdfrwt>
<pdfrwt beam="2">  1       21 0.10352081E+00 0.44692331E+03</pdfrwt>
<totfact> 0.52237939E+04</totfact>
</mgrwt>
</event>
<event>
 7    0  0.4766352E-002  0.4529737E+03  0.7546771E-02  0.1026839E+00
         21   -1    0    0  502  501  0.00000000000E+00  0.00000000000E+00  0.34864132188E+02  0.34864132188E+02  0.00000000000E+00 0.  1.
         21   -1    0    0  501  502 -0.00000000000E+00 -0.00000000000E+00 -0.14713200859E+04  0.14713200859E+04  0.00000000000E+00 0.  1.
      99926    2    1    2    0    0  0.00000000000E+00  0.00000000000E+00 -0.14364559537E+04  0.15061842181E+04  0.45297372094E+03 0.  0.
      99925    2    3    3    0    0 -0.14425584778E+02  0.18293640074E+02 -0.12672967820E+04  0.12945120937E+04  0.26301648681E+03 0.  0.
         25    1    3    3    0    0  0.14425584778E+02 -0.18293640074E+02 -0.16915917170E+03  0.21167212437E+03  0.12509000000E+03 0.  0.
         25    1    4    4    0    0 -0.16275675171E+02 -0.35021510992E+01 -0.81557932072E+03  0.82528437471E+03  0.12509000000E+03 0.  0.
         25    1    4    4    0    0  0.18500903926E+01  0.21795791173E+02 -0.45171746125E+03  0.46922771897E+03  0.12509000000E+03 0.  0.
<mgrwt>
<rscale>  2 0.45297372E+03</rscale>
<asrwt>0</asrwt>
<pdfrwt beam="1">  1       21 0.51270779E-02 0.45297372E+03</pdfrwt>
<pdfrwt beam="2">  1       21 0.21637062E+00 0.45297372E+03</pdfrwt>
<totfact> 0.24003518E+04</totfact>
</mgrwt>
</event>
<event>
 7    0  0.4766352E-002  0.4480738E+03  0.7546771E-02  0.1028298E+00
         21   -1    0    0  502  501  0.00000000000E+00  0.00000000000E+00  0.14661200385E+04  0.14661200385E+04  0.00000000000E+00 0. -1.
         21   -1    0    0  501  502 -0.00000000000E+00 -0.00000000000E+00 -0.34234933280E+02  0.34234933280E+02  0.00000000000E+00 0. -1.
      99926    2    1    2    0    0  0.00000000000E+00  0.00000000000E+00  0.14318851053E+04  0.15003549718E+04  0.44807375152E+03 0.  0.
      99925    2    3    3    0    0  0.21821641561E+02  0.99134914544E+02  0.79901576581E+03  0.84730441923E+03  0.26304879683E+03 0.  0.
         25    1    3    3    0    0 -0.21821641561E+02 -0.99134914544E+02  0.63286933944E+03  0.65305055258E+03  0.12509000000E+03 0.  0.
         25    1    4    4    0    0  0.13853343479E+02  0.72803768230E+02  0.52623157349E+03  0.54594824006E+03  0.12509000000E+03 0.  0.
         25    1    4    4    0    0  0.79682980820E+01  0.26331146314E+02  0.27278419233E+03  0.30135617917E+03  0.12509000000E+03 0.  0.
<mgrwt>
<rscale>  2 0.44807375E+03</rscale>
<asrwt>0</asrwt>
<pdfrwt beam="1">  1       21 0.21560585E+00 0.44807375E+03</pdfrwt>
<pdfrwt beam="2">  1       21 0.50345500E-02 0.44807375E+03</pdfrwt>
<totfact> 0.25093534E+04</totfact>
</mgrwt>
</event>
<event>
 7    0  0.4766352E-002  0.4632525E+03  0.7546771E-02  0.1023842E+00
         21   -1    0    0  502  501  0.00000000000E+00  0.00000000000E+00  0.10171949587E+03  0.10171949587E+03  0.00000000000E+00 0. -1.
         21   -1    0    0  501  502 -0.00000000000E+00 -0.00000000000E+00 -0.52743785046E+03  0.52743785046E+03  0.00000000000E+00 0. -1.
      99926    2    1    2    0    0  0.00000000000E+00  0.00000000000E+00 -0.42571835459E+03  0.62915734634E+03  0.46325246790E+03 0.  0.
      99925    2    3    3    0    0  0.32025716276E+02 -0.39226275831E+02 -0.11903894747E+03  0.29409897221E+03  0.26412040289E+03 0.  0.
         25    1    4    4    0    0  0.47023729451E+02  0.43475937041E+01 -0.42088009670E+02  0.14017503829E+03  0.12509000000E+03 0.  0.
         25    1    4    4    0    0 -0.14998013175E+02 -0.43573869535E+02 -0.76950937798E+02  0.15392393392E+03  0.12509000000E+03 0.  0.
         25    1    3    3    0    0 -0.32025716276E+02  0.39226275831E+02 -0.30667940712E+03  0.33505837413E+03  0.12509000000E+03 0.  0.
<mgrwt>
<rscale>  2 0.46325247E+03</rscale>
<asrwt>0</asrwt>
<pdfrwt beam="1">  1       21 0.14958750E-01 0.46325247E+03</pdfrwt>
<pdfrwt beam="2">  1       21 0.77564389E-01 0.46325247E+03</pdfrwt>
<totfact> 0.53356382E+04</totfact>
</mgrwt>
</event>
<event>
 7    0  0.4766352E-002  0.4583307E+03  0.7546771E-02  0.1025266E+00
         21   -1    0    0  502  501  0.00000000000E+00  0.00000000000E+00  0.35855384544E+03  0.35855384544E+03  0.00000000000E+00 0.  1.
         21   -1    0    0  501  502 -0.00000000000E+00 -0.00000000000E+00 -0.14646828152E+03  0.14646828152E+03  0.00000000000E+00 0.  1.
      99926    2    1    2    0    0  0.14210854715E-13  0.00000000000E+00  0.21208556392E+03  0.50502212695E+03  0.45833073461E+03 0.  0.
      99925    2    3    3    0    0  0.94314944060E+02  0.61901880026E+02  0.16364658014E+03  0.32974807105E+03  0.26310917077E+03 0.  0.
         25    1    3    3    0    0 -0.94314944060E+02 -0.61901880026E+02  0.48438983783E+02  0.17527405591E+03  0.12509000000E+03 0.  0.
         25    1    4    4    0    0  0.85504367010E+02  0.41822499921E+02  0.11017129667E+03  0.19195140267E+03  0.12509000000E+03 0.  0.
         25    1    4    4    0    0  0.88105770506E+01  0.20079380105E+02  0.53475283467E+02  0.13779666837E+03  0.12509000000E+03 0.  0.
<mgrwt>
<rscale>  2 0.45833073E+03</rscale>
<asrwt>0</asrwt>
<pdfrwt beam="1">  1       21 0.52728507E-01 0.45833073E+03</pdfrwt>
<pdfrwt beam="2">  1       21 0.21539453E-01 0.45833073E+03</pdfrwt>
<totfact> 0.63230952E+04</totfact>
</mgrwt>
</event>
<event>
 7    0  0.4766352E-002  0.4548904E+03  0.7546771E-02  0.1026274E+00
         21   -1    0    0  502  501  0.00000000000E+00  0.00000000000E+00  0.12190671301E+03  0.12190671301E+03  0.00000000000E+00 0. -1.
         21   -1    0    0  501  502 -0.00000000000E+00 -0.00000000000E+00 -0.42435164737E+03  0.42435164737E+03  0.00000000000E+00 0. -1.
      99926    2    1    2    0    0  0.00000000000E+00  0.00000000000E+00 -0.30244493436E+03  0.54625836038E+03  0.45489038016E+03 0.  0.
      99925    2    3    3    0    0  0.74904233865E+02  0.84792675554E+02 -0.19756925243E+03  0.34764602733E+03  0.26272363565E+03 0.  0.
         25    1    4    4    0    0  0.47660986200E+01  0.14273149175E+02 -0.94262892835E+02  0.15735132522E+03  0.12509000000E+03 0.  0.
         25    1    3    3    0    0 -0.74904233865E+02 -0.84792675554E+02 -0.10487568193E+03  0.19861233305E+03  0.12509000000E+03 0.  0.
         25    1    4    4    0    0  0.70138135245E+02  0.70519526379E+02 -0.10330635959E+03  0.19029470210E+03  0.12509000000E+03 0.  0.
<mgrwt>
<rscale>  2 0.45489038E+03</rscale>
<asrwt>0</asrwt>
<pdfrwt beam="1">  1       21 0.17927458E-01 0.45489038E+03</pdfrwt>
<pdfrwt beam="2">  1       21 0.62404653E-01 0.45489038E+03</pdfrwt>
<totfact> 0.62168348E+04</totfact>
</mgrwt>
</event>
<event>
 7    0  0.4766352E-002  0.4558028E+03  0.7546771E-02  0.1026006E+00
         21   -1    0    0  502  501  0.00000000000E+00  0.00000000000E+00  0.21317518647E+04  0.21317518647E+04  0.00000000000E+00 0. -1.
         21   -1    0    0  501  502 -0.00000000000E+00 -0.00000000000E+00 -0.24364485976E+02  0.24364485976E+02  0.00000000000E+00 0. -1.
      99926    2    1    2    0    0  0.17763568394E-14  0.00000000000E+00  0.21073873787E+04  0.21561163507E+04  0.45580275740E+03 0.  0.
      99925    2    3    3    0    0 -0.15158289439E+02 -0.11262257721E+03  0.12828980850E+04  0.13144847673E+04  0.26292411116E+03 0.  0.
         25    1    4    4    0    0  0.42157086440E+01 -0.70113601330E+02  0.49570924275E+03  0.51605120942E+03  0.12509000000E+03 0.  0.
         25    1    4    4    0    0 -0.19373998083E+02 -0.42508975885E+02  0.78718884225E+03  0.79843355785E+03  0.12509000000E+03 0.  0.
         25    1    3    3    0    0  0.15158289439E+02  0.11262257721E+03  0.82448929374E+03  0.84163158343E+03  0.12509000000E+03 0.  0.
<mgrwt>
<rscale>  2 0.45580276E+03</rscale>
<asrwt>0</asrwt>
<pdfrwt beam="1">  1       21 0.31349280E+00 0.45580276E+03</pdfrwt>
<pdfrwt beam="2">  1       21 0.35830141E-02 0.45580276E+03</pdfrwt>
<totfact> 0.11253993E+04</totfact>
</mgrwt>
</event>
<event>
 7    0  0.4766352E-002  0.4549848E+03  0.7546771E-02  0.1026246E+00
         21   -1    0    0  502  501  0.00000000000E+00  0.00000000000E+00  0.61393918493E+02  0.61393918493E+02  0.00000000000E+00 0. -1.
         21   -1    0    0  501  502 -0.00000000000E+00 -0.00000000000E+00 -0.84296279724E+03  0.84296279724E+03  0.00000000000E+00 0. -1.
      99926    2    1    2    0    0  0.88817841970E-15 -0.14210854715E-13 -0.78156887875E+03  0.90435671573E+03  0.45498478773E+03 0.  0.
      99925    2    3    3    0    0  0.23595465471E+01 -0.10680305816E+03 -0.41653499638E+03  0.50396977280E+03  0.26281489303E+03 0.  0.
         25    1    4    4    0    0  0.14152523825E+02 -0.55418920753E+02 -0.14192439945E+03  0.19764006164E+03  0.12509000000E+03 0.  0.
         25    1    3    3    0    0 -0.23595465471E+01  0.10680305816E+03 -0.36503388237E+03  0.40038694293E+03  0.12509000000E+03 0.  0.
         25    1    4    4    0    0 -0.11792977277E+02 -0.51384137411E+02 -0.27461059693E+03  0.30632971116E+03  0.12509000000E+03 0.  0.
<mgrwt>
<rscale>  2 0.45498479E+03</rscale>
<asrwt>0</asrwt>
<pdfrwt beam="1">  1       21 0.90285184E-02 0.45498479E+03</pdfrwt>
<pdfrwt beam="2">  1       21 0.12396510E+00 0.45498479E+03</pdfrwt>
<totfact> 0.43051000E+04</totfact>
</mgrwt>
</event>
<event>
 7    0  0.4766352E-002  0.4623124E+03  0.7546771E-02  0.1024113E+00
         21   -1    0    0  502  501  0.00000000000E+00  0.00000000000E+00  0.20271484477E+03  0.20271484477E+03  0.00000000000E+00 0.  1.
         21   -1    0    0  501  502 -0.00000000000E+00 -0.00000000000E+00 -0.26358795172E+03  0.26358795172E+03  0.00000000000E+00 0.  1.
      99926    2    1    2    0    0  0.00000000000E+00  0.17763568394E-14 -0.60873106956E+02  0.46630279649E+03  0.46231240829E+03 0.  0.
      99925    2    3    3    0    0  0.38752847338E+02  0.13682781819E+02 -0.15156633838E+03  0.30642230355E+03  0.26312216077E+03 0.  0.
         25    1    4    4    0    0 -0.14989319515E+02 -0.14110725369E+02 -0.82469886479E+02  0.15123684255E+03  0.12509000000E+03 0.  0.
         25    1    3    3    0    0 -0.38752847338E+02 -0.13682781819E+02  0.90693231424E+02  0.15988049294E+03  0.12509000000E+03 0.  0.
         25    1    4    4    0    0  0.53742166853E+02  0.27793507187E+02 -0.69096451902E+02  0.15518546100E+03  0.12509000000E+03 0.  0.
<mgrwt>
<rscale>  2 0.46231241E+03</rscale>
<asrwt>0</asrwt>
<pdfrwt beam="1">  1       21 0.29811007E-01 0.46231241E+03</pdfrwt>
<pdfrwt beam="2">  1       21 0.38762934E-01 0.46231241E+03</pdfrwt>
<totfact> 0.63914347E+04</totfact>
</mgrwt>
</event>
<event>
 7    0  0.4766352E-002  0.4622320E+03  0.7546771E-02  0.1024136E+00
         21   -1    0    0  502  501  0.00000000000E+00  0.00000000000E+00  0.10660366754E+03  0.10660366754E+03  0.00000000000E+00 0.  1.
         21   -1    0    0  501  502 -0.00000000000E+00 -0.00000000000E+00 -0.50105782737E+03  0.50105782737E+03  0.00000000000E+00 0.  1.
      99926    2    1    2    0    0  0.35527136788E-14  0.14210854715E-13 -0.39445415983E+03  0.60766149491E+03  0.46223198525E+03 0.  0.
      99925    2    3    3    0    0  0.20252055433E+02  0.85664581585E+02 -0.13980933111E+03  0.31060920459E+03  0.26302635348E+03 0.  0.
         25    1    4    4    0    0  0.20591138057E+01  0.39405249370E+02 -0.24643983857E+02  0.13346103427E+03  0.12509000000E+03 0.  0.
         25    1    3    3    0    0 -0.20252055433E+02 -0.85664581585E+02 -0.25464482873E+03  0.29705229032E+03  0.12509000000E+03 0.  0.
         25    1    4    4    0    0  0.18192941627E+02  0.46259332215E+02 -0.11516534725E+03  0.17714817032E+03  0.12509000000E+03 0.  0.
<mgrwt>
<rscale>  2 0.46223199E+03</rscale>
<asrwt>0</asrwt>
<pdfrwt beam="1">  1       21 0.15677010E-01 0.46223199E+03</pdfrwt>
<pdfrwt beam="2">  1       21 0.73684974E-01 0.46223199E+03</pdfrwt>
<totfact> 0.54998991E+04</totfact>
</mgrwt>
</event>
<event>
 7    0  0.4766352E-002  0.4686085E+03  0.7546771E-02  0.1022314E+00
         21   -1    0    0  502  501  0.00000000000E+00  0.00000000000E+00  0.23494042931E+03  0.23494042931E+03  0.00000000000E+00 0.  1.
         21   -1    0    0  501  502 -0.00000000000E+00 -0.00000000000E+00 -0.23366979273E+03  0.23366979273E+03  0.00000000000E+00 0.  1.
      99926    2    1    2    0    0  0.00000000000E+00  0.00000000000E+00  0.12706365793E+01  0.46861022204E+03  0.46860849937E+03 0.  0.
      99925    2    3    3    0    0 -0.11335391387E+03 -0.19013385564E+02  0.50988531164E+02  0.29160740917E+03  0.26310536321E+03 0.  0.
         25    1    4    4    0    0 -0.39687152300E+02 -0.15885401079E+02 -0.13197583439E+02  0.13284991657E+03  0.12509000000E+03 0.  0.
         25    1    3    3    0    0  0.11335391387E+03  0.19013385564E+02 -0.49717894585E+02  0.17700281287E+03  0.12509000000E+03 0.  0.
         25    1    4    4    0    0 -0.73666761573E+02 -0.31279844849E+01  0.64186114604E+02  0.15875749260E+03  0.12509000000E+03 0.  0.
<mgrwt>
<rscale>  2 0.46860850E+03</rscale>
<asrwt>0</asrwt>
<pdfrwt beam="1">  1       21 0.34550063E-01 0.46860850E+03</pdfrwt>
<pdfrwt beam="2">  1       21 0.34363205E-01 0.46860850E+03</pdfrwt>
<totfact> 0.60696824E+04</totfact>
</mgrwt>
</event>
<event>
 7    0  0.4766352E-002  0.4846616E+03  0.7546771E-02  0.1017862E+00
         21   -1    0    0  502  501  0.00000000000E+00  0.00000000000E+00  0.77864466093E+03  0.77864466093E+03  0.00000000000E+00 0.  1.
         21   -1    0    0  501  502 -0.00000000000E+00 -0.00000000000E+00 -0.75418520505E+02  0.75418520505E+02  0.00000000000E+00 0.  1.
      99926    2    1    2    0    0  0.00000000000E+00  0.00000000000E+00  0.70322614042E+03  0.85406318143E+03  0.48466164827E+03 0.  0.
      99925    2    3    3    0    0  0.23813534038E+02 -0.15560328996E+02  0.67175684245E+03  0.72197596382E+03  0.26302628902E+03 0.  0.
         25    1    4    4    0    0  0.17562569168E+02 -0.16300472140E+01  0.22783291102E+03  0.26051188905E+03  0.12509000000E+03 0.  0.
         25    1    4    4    0    0  0.62509648695E+01 -0.13930281782E+02  0.44392393143E+03  0.46146407477E+03  0.12509000000E+03 0.  0.
         25    1    3    3    0    0 -0.23813534038E+02  0.15560328996E+02  0.31469297974E+02  0.13208721761E+03  0.12509000000E+03 0.  0.
<mgrwt>
<rscale>  2 0.48466165E+03</rscale>
<asrwt>0</asrwt>
<pdfrwt beam="1">  1       21 0.11450656E+00 0.48466165E+03</pdfrwt>
<pdfrwt beam="2">  1       21 0.11090959E-01 0.48466165E+03</pdfrwt>
<totfact> 0.36096577E+04</totfact>
</mgrwt>
</event>
<event>
 7    0  0.4766352E-002  0.4181979E+03  0.7546771E-02  0.1037654E+00
         21   -1    0    0  502  501  0.00000000000E+00  0.00000000000E+00  0.26506840586E+03  0.26506840586E+03  0.00000000000E+00 0.  1.
         21   -1    0    0  501  502 -0.00000000000E+00 -0.00000000000E+00 -0.16494748653E+03  0.16494748653E+03  0.00000000000E+00 0.  1.
      99926    2    1    2    0    0  0.00000000000E+00  0.00000000000E+00  0.10012091933E+03  0.43001589239E+03  0.41819788285E+03 0.  0.
      99925    2    3    3    0    0 -0.78704035710E+01  0.72776589588E+02  0.57800305529E+02  0.27902941056E+03  0.26297939347E+03 0.  0.
         25    1    3    3    0    0  0.78704035710E+01 -0.72776589588E+02  0.42320613799E+02  0.15098648183E+03  0.12509000000E+03 0.  0.
         25    1    4    4    0    0 -0.14573454589E+02 -0.11753064162E+01  0.41730388595E+02  0.13267516857E+03  0.12509000000E+03 0.  0.
         25    1    4    4    0    0  0.67030510180E+01  0.73951896005E+02  0.16069916934E+02  0.14635424198E+03  0.12509000000E+03 0.  0.
<mgrwt>
<rscale>  2 0.41819788E+03</rscale>
<asrwt>0</asrwt>
<pdfrwt beam="1">  1       21 0.38980648E-01 0.41819788E+03</pdfrwt>
<pdfrwt beam="2">  1       21 0.24256983E-01 0.41819788E+03</pdfrwt>
<totfact> 0.95505376E+04</totfact>
</mgrwt>
</event>
<event>
 7    0  0.4766352E-002  0.4454795E+03  0.7546771E-02  0.1029079E+00
         21   -1    0    0  502  501  0.00000000000E+00  0.00000000000E+00  0.89951241119E+03  0.89951241119E+03  0.00000000000E+00 0.  1.
         21   -1    0    0  501  502 -0.00000000000E+00 -0.00000000000E+00 -0.55155429436E+02  0.55155429436E+02  0.00000000000E+00 0.  1.
      99926    2    1    2    0    0 -0.88817841970E-15  0.44408920985E-15  0.84435698176E+03  0.95466784063E+03  0.44547948695E+03 0.  0.
      99925    2    3    3    0    0 -0.67102532383E+01 -0.26389076364E+01  0.75831727490E+03  0.80267333221E+03  0.26303497392E+03 0.  0.
         25    1    4    4    0    0 -0.20740955066E+02  0.51258590117E+01  0.49047500620E+03  0.50662580023E+03  0.12509000000E+03 0.  0.
         25    1    4    4    0    0  0.14030701828E+02 -0.77647666481E+01  0.26784226870E+03  0.29604753199E+03  0.12509000000E+03 0.  0.
         25    1    3    3    0    0  0.67102532383E+01  0.26389076364E+01  0.86039706858E+02  0.15199450841E+03  0.12509000000E+03 0.  0.
<mgrwt>
<rscale>  2 0.44547949E+03</rscale>
<asrwt>0</asrwt>
<pdfrwt beam="1">  1       21 0.13228123E+00 0.44547949E+03</pdfrwt>
<pdfrwt beam="2">  1       21 0.81110931E-02 0.44547949E+03</pdfrwt>
<totfact> 0.44148451E+04</totfact>
</mgrwt>
</event>
<event>
 7    0  0.4766352E-002  0.4524420E+03  0.7546771E-02  0.1026996E+00
         21   -1    0    0  502  501  0.00000000000E+00  0.00000000000E+00  0.17481143035E+03  0.17481143035E+03  0.00000000000E+00 0. -1.
         21   -1    0    0  501  502 -0.00000000000E+00 -0.00000000000E+00 -0.29274942668E+03  0.29274942668E+03  0.00000000000E+00 0. -1.
      99926    2    1    2    0    0  0.00000000000E+00  0.00000000000E+00 -0.11793799632E+03  0.46756085703E+03  0.45244202286E+03 0.  0.
      99925    2    3    3    0    0  0.50627294087E+02 -0.90573688535E+02 -0.11440671452E+03  0.30499796455E+03  0.26299837659E+03 0.  0.
         25    1    3    3    0    0 -0.50627294087E+02  0.90573688535E+02 -0.35312818031E+01  0.16256289248E+03  0.12509000000E+03 0.  0.
         25    1    4    4    0    0  0.41598471265E+02 -0.73328626835E+02 -0.91256731296E+02  0.17630320312E+03  0.12509000000E+03 0.  0.
         25    1    4    4    0    0  0.90288228217E+01 -0.17245061701E+02 -0.23149983223E+02  0.12869476142E+03  0.12509000000E+03 0.  0.
<mgrwt>
<rscale>  2 0.45244202E+03</rscale>
<asrwt>0</asrwt>
<pdfrwt beam="1">  1       21 0.25707563E-01 0.45244202E+03</pdfrwt>
<pdfrwt beam="2">  1       21 0.43051386E-01 0.45244202E+03</pdfrwt>
<totfact> 0.69007272E+04</totfact>
</mgrwt>
</event>
<event>
 7    0  0.4766352E-002  0.4485868E+03  0.7546771E-02  0.1028144E+00
         21   -1    0    0  502  501  0.00000000000E+00  0.00000000000E+00  0.17876876717E+03  0.17876876717E+03  0.00000000000E+00 0.  1.
         21   -1    0    0  501  502 -0.00000000000E+00 -0.00000000000E+00 -0.28141112470E+03  0.28141112470E+03  0.00000000000E+00 0.  1.
      99926    2    1    2    0    0  0.17763568394E-14  0.71054273576E-14 -0.10264235752E+03  0.46017989187E+03  0.44858675786E+03 0.  0.
      99925    2    3    3    0    0 -0.13946766022E+02 -0.47568879724E+02 -0.16227462809E+03  0.31300371719E+03  0.26302273942E+03 0.  0.
         25    1    4    4    0    0 -0.41766455251E+01  0.15115881205E+02 -0.92394122738E+02  0.15630136355E+03  0.12509000000E+03 0.  0.
         25    1    3    3    0    0  0.13946766022E+02  0.47568879724E+02  0.59632270566E+02  0.14717617468E+03  0.12509000000E+03 0.  0.
         25    1    4    4    0    0 -0.97701204971E+01 -0.62684760929E+02 -0.69880505350E+02  0.15670235364E+03  0.12509000000E+03 0.  0.
<mgrwt>
<rscale>  2 0.44858676E+03</rscale>
<asrwt>0</asrwt>
<pdfrwt beam="1">  1       21 0.26289525E-01 0.44858676E+03</pdfrwt>
<pdfrwt beam="2">  1       21 0.41383988E-01 0.44858676E+03</pdfrwt>
<totfact> 0.71754686E+04</totfact>
</mgrwt>
</event>
<event>
 7    0  0.4766352E-002  0.4514453E+03  0.7546771E-02  0.1027292E+00
         21   -1    0    0  502  501  0.00000000000E+00  0.00000000000E+00  0.22402169468E+02  0.22402169468E+02  0.00000000000E+00 0.  1.
         21   -1    0    0  501  502 -0.00000000000E+00 -0.00000000000E+00 -0.22743649680E+04  0.22743649680E+04  0.00000000000E+00 0.  1.
      99926    2    1    2    0    0  0.00000000000E+00  0.71054273576E-14 -0.22519627985E+04  0.22967671375E+04  0.45144527662E+03 0.  0.
      99925    2    3    3    0    0 -0.42940040433E+02  0.54147355603E+02 -0.18555142413E+04  0.18753472164E+04  0.26309370846E+03 0.  0.
         25    1    3    3    0    0  0.42940040433E+02 -0.54147355603E+02 -0.39644855726E+03  0.42141992103E+03  0.12509000000E+03 0.  0.
         25    1    4    4    0    0 -0.61133949914E+02  0.32371460348E+02 -0.10497345758E+04  0.10594222288E+04  0.12509000000E+03 0.  0.
         25    1    4    4    0    0  0.18193909480E+02  0.21775895255E+02 -0.80577966551E+03  0.81592498761E+03  0.12509000000E+03 0.  0.
<mgrwt>
<rscale>  2 0.45144528E+03</rscale>
<asrwt>0</asrwt>
<pdfrwt beam="1">  1       21 0.32944386E-02 0.45144528E+03</pdfrwt>
<pdfrwt beam="2">  1       21 0.33446525E+00 0.45144528E+03</pdfrwt>
<totfact> 0.97067677E+03</totfact>
</mgrwt>
</event>
<event>
 7    0  0.4766352E-002  0.4561082E+03  0.7546771E-02  0.1025916E+00
         21   -1    0    0  502  501  0.00000000000E+00  0.00000000000E+00  0.12339726880E+03  0.12339726880E+03  0.00000000000E+00 0. -1.
         21   -1    0    0  501  502 -0.00000000000E+00 -0.00000000000E+00 -0.42147342719E+03  0.42147342719E+03  0.00000000000E+00 0. -1.
      99926    2    1    2    0    0  0.35527136788E-14  0.00000000000E+00 -0.29807615838E+03  0.54487069599E+03  0.45610818798E+03 0.  0.
      99925    2    3    3    0    0  0.19928296752E+02  0.46368400507E+02 -0.30953564932E+03  0.40949716235E+03  0.26330294756E+03 0.  0.
         25    1    4    4    0    0  0.50617773021E+02  0.22558857710E+02 -0.14847356968E+03  0.20189841505E+03  0.12509000000E+03 0.  0.
         25    1    3    3    0    0 -0.19928296752E+02 -0.46368400507E+02  0.11459490933E+02  0.13537353364E+03  0.12509000000E+03 0.  0.
         25    1    4    4    0    0 -0.30689476270E+02  0.23809542797E+02 -0.16106207963E+03  0.20759874729E+03  0.12509000000E+03 0.  0.
<mgrwt>
<rscale>  2 0.45610819E+03</rscale>
<asrwt>0</asrwt>
<pdfrwt beam="1">  1       21 0.18146657E-01 0.45610819E+03</pdfrwt>
<pdfrwt beam="2">  1       21 0.61981386E-01 0.45610819E+03</pdfrwt>
<totfact> 0.61664221E+04</totfact>
</mgrwt>
</event>
<event>
 7    0  0.4766352E-002  0.4602165E+03  0.7546771E-02  0.1024718E+00
         21   -1    0    0  502  501  0.00000000000E+00  0.00000000000E+00  0.37769605590E+02  0.37769605590E+02  0.00000000000E+00 0.  1.
         21   -1    0    0  501  502 -0.00000000000E+00 -0.00000000000E+00 -0.14019158143E+04  0.14019158143E+04  0.00000000000E+00 0.  1.
      99926    2    1    2    0    0  0.00000000000E+00 -0.35527136788E-14 -0.13641462087E+04  0.14396854199E+04  0.46021650287E+03 0.  0.
      99925    2    3    3    0    0 -0.11522363893E+03 -0.21101347186E+02 -0.81099360623E+03  0.86059383512E+03  0.26303871555E+03 0.  0.
         25    1    4    4    0    0 -0.57800384083E+02 -0.36579813313E+02 -0.50446404957E+03  0.52422366653E+03  0.12509000000E+03 0.  0.
         25    1    4    4    0    0 -0.57423254849E+02  0.15478466126E+02 -0.30652955666E+03  0.33637016859E+03  0.12509000000E+03 0.  0.
         25    1    3    3    0    0  0.11522363893E+03  0.21101347186E+02 -0.55315260250E+03  0.57909158479E+03  0.12509000000E+03 0.  0.
<mgrwt>
<rscale>  2 0.46021650E+03</rscale>
<asrwt>0</asrwt>
<pdfrwt beam="1">  1       21 0.55543537E-02 0.46021650E+03</pdfrwt>
<pdfrwt beam="2">  1       21 0.20616409E+00 0.46021650E+03</pdfrwt>
<totfact> 0.24293719E+04</totfact>
</mgrwt>
</event>
<event>
 7    0  0.4766352E-002  0.4536936E+03  0.7546771E-02  0.1026626E+00
         21   -1    0    0  502  501  0.00000000000E+00  0.00000000000E+00  0.74645945798E+02  0.74645945798E+02  0.00000000000E+00 0.  1.
         21   -1    0    0  501  502 -0.00000000000E+00 -0.00000000000E+00 -0.68938059440E+03  0.68938059440E+03  0.00000000000E+00 0.  1.
      99926    2    1    2    0    0 -0.14210854715E-13 -0.35527136788E-14 -0.61473464860E+03  0.76402654019E+03  0.45369358154E+03 0.  0.
      99925    2    3    3    0    0  0.89853225322E+02  0.26037072896E+02 -0.49087295521E+03  0.56467569757E+03  0.26296549965E+03 0.  0.
         25    1    4    4    0    0  0.86156174297E+02  0.36874124124E+01 -0.27263203888E+03  0.31210930794E+03  0.12509000000E+03 0.  0.
         25    1    3    3    0    0 -0.89853225322E+02 -0.26037072896E+02 -0.12386169339E+03  0.19935084262E+03  0.12509000000E+03 0.  0.
         25    1    4    4    0    0  0.36970510243E+01  0.22349660484E+02 -0.21824091633E+03  0.25256638963E+03  0.12509000000E+03 0.  0.
<mgrwt>
<rscale>  2 0.45369358E+03</rscale>
<asrwt>0</asrwt>
<pdfrwt beam="1">  1       21 0.10977345E-01 0.45369358E+03</pdfrwt>
<pdfrwt beam="2">  1       21 0.10137950E+00 0.45369358E+03</pdfrwt>
<totfact> 0.50065302E+04</totfact>
</mgrwt>
</event>
<event>
 7    0  0.4766352E-002  0.4561557E+03  0.7546771E-02  0.1025902E+00
         21   -1    0    0  502  501  0.00000000000E+00  0.00000000000E+00  0.30502794771E+03  0.30502794771E+03  0.00000000000E+00 0. -1.
         21   -1    0    0  501  502 -0.00000000000E+00 -0.00000000000E+00 -0.17054012264E+03  0.17054012264E+03  0.00000000000E+00 0. -1.
      99926    2    1    2    0    0  0.00000000000E+00  0.71054273576E-14  0.13448782507E+03  0.47556807035E+03  0.45615569101E+03 0.  0.
      99925    2    3    3    0    0 -0.10620971907E+03 -0.35672566981E+02  0.10752583875E+03  0.30548722702E+03  0.26307338029E+03 0.  0.
         25    1    3    3    0    0  0.10620971907E+03  0.35672566981E+02  0.26961986316E+02  0.17008084332E+03  0.12509000000E+03 0.  0.
         25    1    4    4    0    0 -0.24807670539E+02 -0.44646484380E+02  0.36488658206E+02  0.13995591936E+03  0.12509000000E+03 0.  0.
         25    1    4    4    0    0 -0.81402048529E+02  0.89739173992E+01  0.71037180548E+02  0.16553130767E+03  0.12509000000E+03 0.  0.
<mgrwt>
<rscale>  2 0.45615569E+03</rscale>
<asrwt>0</asrwt>
<pdfrwt beam="1">  1       21 0.44857051E-01 0.45615569E+03</pdfrwt>
<pdfrwt beam="2">  1       21 0.25079430E-01 0.45615569E+03</pdfrwt>
<totfact> 0.66412974E+04</totfact>
</mgrwt>
</event>
<event>
 7    0  0.4766352E-002  0.4103273E+03  0.7546771E-02  0.1040261E+00
         21   -1    0    0  502  501  0.00000000000E+00  0.00000000000E+00  0.72260551415E+02  0.72260551415E+02  0.00000000000E+00 0.  1.
         21   -1    0    0  501  502 -0.00000000000E+00 -0.00000000000E+00 -0.58250493446E+03  0.58250493446E+03  0.00000000000E+00 0.  1.
      99926    2    1    2    0    0 -0.17763568394E-14  0.00000000000E+00 -0.51024438305E+03  0.65476548588E+03  0.41032732186E+03 0.  0.
      99925    2    3    3    0    0 -0.94825429183E+01 -0.37882597270E+02 -0.41448276367E+03  0.49246081668E+03  0.26305262743E+03 0.  0.
         25    1    4    4    0    0  0.33740149797E+02 -0.30979892983E+02 -0.21722398945E+03  0.25481742713E+03  0.12509000000E+03 0.  0.
         25    1    4    4    0    0 -0.43222692715E+02 -0.69027042873E+01 -0.19725877421E+03  0.23764338955E+03  0.12509000000E+03 0.  0.
         25    1    3    3    0    0  0.94825429183E+01  0.37882597270E+02 -0.95761619382E+02  0.16230466920E+03  0.12509000000E+03 0.  0.
<mgrwt>
<rscale>  2 0.41032732E+03</rscale>
<asrwt>0</asrwt>
<pdfrwt beam="1">  1       21 0.10626552E-01 0.41032732E+03</pdfrwt>
<pdfrwt beam="2">  1       21 0.85662492E-01 0.41032732E+03</pdfrwt>
<totfact> 0.80125593E+04</totfact>
</mgrwt>
</event>
<event>
 7    0  0.4766352E-002  0.4646512E+03  0.7546771E-02  0.1023441E+00
         21   -1    0    0  502  501  0.00000000000E+00  0.00000000000E+00  0.18008745749E+03  0.18008745749E+03  0.00000000000E+00 0.  1.
         21   -1    0    0  501  502 -0.00000000000E+00 -0.00000000000E+00 -0.29971648947E+03  0.29971648947E+03  0.00000000000E+00 0.  1.
      99926    2    1    2    0    0  0.00000000000E+00  0.88817841970E-15 -0.11962903198E+03  0.47980394696E+03  0.46465118340E+03 0.  0.
      99925    2    3    3    0    0  0.11845950532E+03 -0.77237962356E+01 -0.45506733448E+02  0.29209690216E+03  0.26297799534E+03 0.  0.
         25    1    3    3    0    0 -0.11845950532E+03  0.77237962356E+01 -0.74122298532E+02  0.18770704481E+03  0.12509000000E+03 0.  0.
         25    1    4    4    0    0  0.21554707616E+02 -0.38062869697E+01 -0.42067283487E+02  0.13377689517E+03  0.12509000000E+03 0.  0.
         25    1    4    4    0    0  0.96904797708E+02 -0.39175092659E+01 -0.34394499609E+01  0.15832000699E+03  0.12509000000E+03 0.  0.
<mgrwt>
<rscale>  2 0.46465118E+03</rscale>
<asrwt>0</asrwt>
<pdfrwt beam="1">  1       21 0.26483450E-01 0.46465118E+03</pdfrwt>
<pdfrwt beam="2">  1       21 0.44075954E-01 0.46465118E+03</pdfrwt>
<totfact> 0.61840838E+04</totfact>
</mgrwt>
</event>
<event>
 7    0  0.4766352E-002  0.4509405E+03  0.7546771E-02  0.1027442E+00
         21   -1    0    0  502  501  0.00000000000E+00  0.00000000000E+00  0.13362235425E+03  0.13362235425E+03  0.00000000000E+00 0.  1.
         21   -1    0    0  501  502 -0.00000000000E+00 -0.00000000000E+00 -0.38045155959E+03  0.38045155959E+03  0.00000000000E+00 0.  1.
      99926    2    1    2    0    0 -0.17763568394E-14  0.00000000000E+00 -0.24682920534E+03  0.51407391385E+03  0.45094049750E+03 0.  0.
      99925    2    3    3    0    0 -0.13252413911E+02 -0.10819211514E+03 -0.16547691760E+03  0.32928521540E+03  0.26299236219E+03 0.  0.
         25    1    4    4    0    0 -0.31804537276E+00 -0.92987870102E+02 -0.71083793014E+02  0.17131041669E+03  0.12509000000E+03 0.  0.
         25    1    3    3    0    0  0.13252413911E+02  0.10819211514E+03 -0.81352287742E+02  0.18478869845E+03  0.12509000000E+03 0.  0.
         25    1    4    4    0    0 -0.12934368538E+02 -0.15204245037E+02 -0.94393124586E+02  0.15797479870E+03  0.12509000000E+03 0.  0.
<mgrwt>
<rscale>  2 0.45094050E+03</rscale>
<asrwt>0</asrwt>
<pdfrwt beam="1">  1       21 0.19650346E-01 0.45094050E+03</pdfrwt>
<pdfrwt beam="2">  1       21 0.55948759E-01 0.45094050E+03</pdfrwt>
<totfact> 0.66406179E+04</totfact>
</mgrwt>
</event>
<event>
 7    0  0.4766352E-002  0.4598286E+03  0.7546771E-02  0.1024831E+00
         21   -1    0    0  502  501  0.00000000000E+00  0.00000000000E+00  0.10673473511E+03  0.10673473511E+03  0.00000000000E+00 0.  1.
         21   -1    0    0  501  502 -0.00000000000E+00 -0.00000000000E+00 -0.49525188698E+03  0.49525188698E+03  0.00000000000E+00 0.  1.
      99926    2    1    2    0    0  0.00000000000E+00 -0.71054273576E-14 -0.38851715186E+03  0.60198662209E+03  0.45982857228E+03 0.  0.
      99925    2    3    3    0    0  0.96556799505E+02 -0.33063511626E+02 -0.16681869075E+03  0.32773468119E+03  0.26299265073E+03 0.  0.
         25    1    3    3    0    0 -0.96556799505E+02  0.33063511626E+02 -0.22169846111E+03  0.27425194090E+03  0.12509000000E+03 0.  0.
         25    1    4    4    0    0  0.68215618595E+02 -0.53522734533E+02 -0.88176917500E+02  0.17589977434E+03  0.12509000000E+03 0.  0.
         25    1    4    4    0    0  0.28341180910E+02  0.20459222908E+02 -0.78641773252E+02  0.15183490685E+03  0.12509000000E+03 0.  0.
<mgrwt>
<rscale>  2 0.45982857E+03</rscale>
<asrwt>0</asrwt>
<pdfrwt beam="1">  1       21 0.15696285E-01 0.45982857E+03</pdfrwt>
<pdfrwt beam="2">  1       21 0.72831160E-01 0.45982857E+03</pdfrwt>
<totfact> 0.56374457E+04</totfact>
</mgrwt>
</event>
<event>
 7    0  0.4766352E-002  0.4572160E+03  0.7546771E-02  0.1025592E+00
         21   -1    0    0  502  501  0.00000000000E+00  0.00000000000E+00  0.27955298249E+02  0.27955298249E+02  0.00000000000E+00 0. -1.
         21   -1    0    0  501  502 -0.00000000000E+00 -0.00000000000E+00 -0.18694707690E+04  0.18694707690E+04  0.00000000000E+00 0. -1.
      99926    2    1    2    0    0  0.00000000000E+00 -0.71054273576E-14 -0.18415154707E+04  0.18974260672E+04  0.45721597922E+03 0.  0.
      99925    2    3    3    0    0 -0.94367065707E+02  0.57933399282E+02 -0.12878008030E+04  0.13190586552E+04  0.26310341317E+03 0.  0.
         25    1    3    3    0    0  0.94367065707E+02 -0.57933399282E+02 -0.55371466775E+03  0.57836741196E+03  0.12509000000E+03 0.  0.
         25    1    4    4    0    0 -0.69083703372E+02 -0.52024483537E+01 -0.62975188686E+03  0.64578213868E+03  0.12509000000E+03 0.  0.
         25    1    4    4    0    0 -0.25283362336E+02  0.63135847636E+02 -0.65804891611E+03  0.67327651657E+03  0.12509000000E+03 0.  0.
<mgrwt>
<rscale>  2 0.45721598E+03</rscale>
<asrwt>0</asrwt>
<pdfrwt beam="1">  1       21 0.41110726E-02 0.45721598E+03</pdfrwt>
<pdfrwt beam="2">  1       21 0.27492222E+00 0.45721598E+03</pdfrwt>
<totfact> 0.15194581E+04</totfact>
</mgrwt>
</event>
<event>
 7    0  0.4766352E-002  0.4609682E+03  0.7546771E-02  0.1024501E+00
         21   -1    0    0  502  501  0.00000000000E+00  0.00000000000E+00  0.71919300107E+03  0.71919300107E+03  0.00000000000E+00 0. -1.
         21   -1    0    0  501  502 -0.00000000000E+00 -0.00000000000E+00 -0.73864630457E+02  0.73864630457E+02  0.00000000000E+00 0. -1.
      99926    2    1    2    0    0  0.00000000000E+00  0.00000000000E+00  0.64532837061E+03  0.79305763152E+03  0.46096822125E+03 0.  0.
      99925    2    3    3    0    0  0.71489664084E+02 -0.92269841636E+02  0.44087945942E+03  0.52646550649E+03  0.26299569584E+03 0.  0.
         25    1    4    4    0    0  0.21974168778E+02 -0.22140968669E+02  0.26133687558E+03  0.29140617225E+03  0.12509000000E+03 0.  0.
         25    1    4    4    0    0  0.49515495306E+02 -0.70128872967E+02  0.17954258385E+03  0.23505933424E+03  0.12509000000E+03 0.  0.
         25    1    3    3    0    0 -0.71489664084E+02  0.92269841636E+02  0.20444891119E+03  0.26659212504E+03  0.12509000000E+03 0.  0.
<mgrwt>
<rscale>  2 0.46096822E+03</rscale>
<asrwt>0</asrwt>
<pdfrwt beam="1">  1       21 0.10576367E+00 0.46096822E+03</pdfrwt>
<pdfrwt beam="2">  1       21 0.10862446E-01 0.46096822E+03</pdfrwt>
<totfact> 0.45913788E+04</totfact>
</mgrwt>
</event>
<event>
 7    0  0.4766352E-002  0.4553572E+03  0.7546771E-02  0.1026136E+00
         21   -1    0    0  502  501  0.00000000000E+00  0.00000000000E+00  0.74970080565E+02  0.74970080565E+02  0.00000000000E+00 0.  1.
         21   -1    0    0  501  502 -0.00000000000E+00 -0.00000000000E+00 -0.69144317084E+03  0.69144317084E+03  0.00000000000E+00 0.  1.
      99926    2    1    2    0    0  0.00000000000E+00 -0.35527136788E-14 -0.61647309027E+03  0.76641325140E+03  0.45535722339E+03 0.  0.
      99925    2    3    3    0    0  0.43544018781E+02 -0.24109065984E+02 -0.55948714499E+03  0.62022079368E+03  0.26300311572E+03 0.  0.
         25    1    4    4    0    0  0.18474879587E+02 -0.45778872169E+02 -0.23299383047E+03  0.26901795377E+03  0.12509000000E+03 0.  0.
         25    1    4    4    0    0  0.25069139193E+02  0.21669806184E+02 -0.32649331452E+03  0.35120283992E+03  0.12509000000E+03 0.  0.
         25    1    3    3    0    0 -0.43544018781E+02  0.24109065984E+02 -0.56985945287E+02  0.14619245772E+03  0.12509000000E+03 0.  0.
<mgrwt>
<rscale>  2 0.45535722E+03</rscale>
<asrwt>0</asrwt>
<pdfrwt beam="1">  1       21 0.11025012E-01 0.45535722E+03</pdfrwt>
<pdfrwt beam="2">  1       21 0.10168282E+00 0.45535722E+03</pdfrwt>
<totfact> 0.49293731E+04</totfact>
</mgrwt>
</event>
<event>
 7    0  0.4766352E-002  0.4670441E+03  0.7546771E-02  0.1022758E+00
         21   -1    0    0  502  501  0.00000000000E+00  0.00000000000E+00  0.74683795485E+02  0.74683795485E+02  0.00000000000E+00 0. -1.
         21   -1    0    0  501  502 -0.00000000000E+00 -0.00000000000E+00 -0.73017902175E+03  0.73017902175E+03  0.00000000000E+00 0. -1.
      99926    2    1    2    0    0  0.00000000000E+00  0.00000000000E+00 -0.65549522626E+03  0.80486281723E+03  0.46704406956E+03 0.  0.
      99925    2    3    3    0    0 -0.15145356546E+02 -0.84369416261E+02 -0.25350916345E+03  0.37522589724E+03  0.26302090750E+03 0.  0.
         25    1    4    4    0    0  0.71704814903E+01 -0.47336339697E+01 -0.13359843482E+03  0.18322083119E+03  0.12509000000E+03 0.  0.
         25    1    4    4    0    0 -0.22315838036E+02 -0.79635782291E+02 -0.11991072863E+03  0.19200506605E+03  0.12509000000E+03 0.  0.
         25    1    3    3    0    0  0.15145356546E+02  0.84369416261E+02 -0.40198606281E+03  0.42963691999E+03  0.12509000000E+03 0.  0.
<mgrwt>
<rscale>  2 0.46704407E+03</rscale>
<asrwt>0</asrwt>
<pdfrwt beam="1">  1       21 0.10982912E-01 0.46704407E+03</pdfrwt>
<pdfrwt beam="2">  1       21 0.10737926E+00 0.46704407E+03</pdfrwt>
<totfact> 0.43291439E+04</totfact>
</mgrwt>
</event>
<event>
 7    0  0.4766352E-002  0.4632179E+03  0.7546771E-02  0.1023852E+00
         21   -1    0    0  502  501  0.00000000000E+00  0.00000000000E+00  0.21445726417E+03  0.21445726417E+03  0.00000000000E+00 0.  1.
         21   -1    0    0  501  502 -0.00000000000E+00 -0.00000000000E+00 -0.25013239006E+03  0.25013239006E+03  0.00000000000E+00 0.  1.
      99926    2    1    2    0    0  0.00000000000E+00 -0.88817841970E-15 -0.35675125895E+02  0.46458965423E+03  0.46321791007E+03 0.  0.
      99925    2    3    3    0    0  0.11781205449E+03 -0.77666470219E+01 -0.46788936200E+02  0.29222078851E+03  0.26318013545E+03 0.  0.
         25    1    4    4    0    0  0.20980733225E+02 -0.17376894764E+02 -0.37796967817E+02  0.13348507974E+03  0.12509000000E+03 0.  0.
         25    1    4    4    0    0  0.96831321269E+02  0.96102477423E+01 -0.89919683832E+01  0.15873570876E+03  0.12509000000E+03 0.  0.
         25    1    3    3    0    0 -0.11781205449E+03  0.77666470219E+01  0.11113810305E+02  0.17236886572E+03  0.12509000000E+03 0.  0.
<mgrwt>
<rscale>  2 0.46321791E+03</rscale>
<asrwt>0</asrwt>
<pdfrwt beam="1">  1       21 0.31537833E-01 0.46321791E+03</pdfrwt>
<pdfrwt beam="2">  1       21 0.36784175E-01 0.46321791E+03</pdfrwt>
<totfact> 0.63576904E+04</totfact>
</mgrwt>
</event>
<event>
 7    0  0.4766352E-002  0.4578527E+03  0.7546771E-02  0.1025406E+00
         21   -1    0    0  502  501  0.00000000000E+00  0.00000000000E+00  0.44404244102E+03  0.44404244102E+03  0.00000000000E+00 0.  1.
         21   -1    0    0  501  502 -0.00000000000E+00 -0.00000000000E+00 -0.11802313887E+03  0.11802313887E+03  0.00000000000E+00 0.  1.
      99926    2    1    2    0    0  0.71054273576E-14 -0.14210854715E-13  0.32601930215E+03  0.56206557988E+03  0.45785273911E+03 0.  0.
      99925    2    3    3    0    0 -0.49319359143E+02  0.98988487463E+02  0.24688052514E+03  0.37729119323E+03  0.26299720713E+03 0.  0.
         25    1    3    3    0    0  0.49319359143E+02 -0.98988487463E+02  0.79138777008E+02  0.18477438665E+03  0.12509000000E+03 0.  0.
         25    1    4    4    0    0 -0.11068503192E+02  0.77653713703E+01  0.11051120200E+03  0.16746058229E+03  0.12509000000E+03 0.  0.
         25    1    4    4    0    0 -0.38250855950E+02  0.91223116092E+02  0.13636932315E+03  0.20983061094E+03  0.12509000000E+03 0.  0.
<mgrwt>
<rscale>  2 0.45785274E+03</rscale>
<asrwt>0</asrwt>
<pdfrwt beam="1">  1       21 0.65300359E-01 0.45785274E+03</pdfrwt>
<pdfrwt beam="2">  1       21 0.17356344E-01 0.45785274E+03</pdfrwt>
<totfact> 0.59717283E+04</totfact>
</mgrwt>
</event>
<event>
 7    0  0.4766352E-002  0.4350827E+03  0.7546771E-02  0.1032266E+00
         21   -1    0    0  502  501  0.00000000000E+00  0.00000000000E+00  0.64587458246E+02  0.64587458246E+02  0.00000000000E+00 0. -1.
         21   -1    0    0  501  502 -0.00000000000E+00 -0.00000000000E+00 -0.73271567635E+03  0.73271567635E+03  0.00000000000E+00 0. -1.
      99926    2    1    2    0    0  0.00000000000E+00  0.17763568394E-14 -0.66812821810E+03  0.79730313459E+03  0.43508271927E+03 0.  0.
      99925    2    3    3    0    0  0.37803349586E+02 -0.41260481953E+01 -0.27241723699E+03  0.38055284223E+03  0.26298896784E+03 0.  0.
         25    1    4    4    0    0 -0.16838460896E+01 -0.30329682206E+02 -0.16324019029E+03  0.20788841427E+03  0.12509000000E+03 0.  0.
         25    1    3    3    0    0 -0.37803349586E+02  0.41260481953E+01 -0.39571098111E+03  0.41675029236E+03  0.12509000000E+03 0.  0.
         25    1    4    4    0    0  0.39487195676E+02  0.26203634011E+02 -0.10917704670E+03  0.17266442796E+03  0.12509000000E+03 0.  0.
<mgrwt>
<rscale>  2 0.43508272E+03</rscale>
<asrwt>0</asrwt>
<pdfrwt beam="1">  1       21 0.94981557E-02 0.43508272E+03</pdfrwt>
<pdfrwt beam="2">  1       21 0.10775230E+00 0.43508272E+03</pdfrwt>
<totfact> 0.56175132E+04</totfact>
</mgrwt>
</event>
<event>
 7    0  0.4766352E-002  0.4420552E+03  0.7546771E-02  0.1030118E+00
         21   -1    0    0  502  501  0.00000000000E+00  0.00000000000E+00  0.80399349213E+02  0.80399349213E+02  0.00000000000E+00 0.  1.
         21   -1    0    0  501  502 -0.00000000000E+00 -0.00000000000E+00 -0.60763181561E+03  0.60763181561E+03  0.00000000000E+00 0.  1.
      99926    2    1    2    0    0  0.00000000000E+00  0.00000000000E+00 -0.52723246639E+03  0.68803116482E+03  0.44205521165E+03 0.  0.
      99925    2    3    3    0    0 -0.63986215511E+02 -0.23024540051E+02 -0.22048634035E+03  0.34985213063E+03  0.26297893796E+03 0.  0.
         25    1    3    3    0    0  0.63986215511E+02  0.23024540051E+02 -0.30674612605E+03  0.33817903419E+03  0.12509000000E+03 0.  0.
         25    1    4    4    0    0 -0.55380278242E+02  0.59139014913E+01 -0.76913953749E+02  0.15705162791E+03  0.12509000000E+03 0.  0.
         25    1    4    4    0    0 -0.86059372684E+01 -0.28938441542E+02 -0.14357238660E+03  0.19280050272E+03  0.12509000000E+03 0.  0.
<mgrwt>
<rscale>  2 0.44205521E+03</rscale>
<asrwt>0</asrwt>
<pdfrwt beam="1">  1       21 0.11823433E-01 0.44205521E+03</pdfrwt>
<pdfrwt beam="2">  1       21 0.89357622E-01 0.44205521E+03</pdfrwt>
<totfact> 0.59381513E+04</totfact>
</mgrwt>
</event>
<event>
 7    0  0.4766352E-002  0.4486794E+03  0.7546771E-02  0.1028117E+00
         21   -1    0    0  502  501  0.00000000000E+00  0.00000000000E+00  0.76194714892E+02  0.76194714892E+02  0.00000000000E+00 0.  1.
         21   -1    0    0  501  502 -0.00000000000E+00 -0.00000000000E+00 -0.66052215161E+03  0.66052215161E+03  0.00000000000E+00 0.  1.
      99926    2    1    2    0    0  0.00000000000E+00  0.71054273576E-14 -0.58432743672E+03  0.73671686650E+03  0.44867938228E+03 0.  0.
      99925    2    3    3    0    0  0.35516822797E+02  0.42913715490E+02 -0.51988787234E+03  0.58537950418E+03  0.26321613253E+03 0.  0.
         25    1    4    4    0    0 -0.16268339074E+02 -0.17652225426E+01 -0.25841764731E+03  0.28756731979E+03  0.12509000000E+03 0.  0.
         25    1    3    3    0    0 -0.35516822797E+02 -0.42913715490E+02 -0.64439564376E+02  0.15133736233E+03  0.12509000000E+03 0.  0.
         25    1    4    4    0    0  0.51785161871E+02  0.44678938032E+02 -0.26147022503E+03  0.29781218439E+03  0.12509000000E+03 0.  0.
<mgrwt>
<rscale>  2 0.44867938E+03</rscale>
<asrwt>0</asrwt>
<pdfrwt beam="1">  1       21 0.11205105E-01 0.44867938E+03</pdfrwt>
<pdfrwt beam="2">  1       21 0.97135610E-01 0.44867938E+03</pdfrwt>
<totfact> 0.53567113E+04</totfact>
</mgrwt>
</event>
<event>
 7    0  0.4766352E-002  0.4559629E+03  0.7546771E-02  0.1025959E+00
         21   -1    0    0  502  501  0.00000000000E+00  0.00000000000E+00  0.88240702517E+02  0.88240702517E+02  0.00000000000E+00 0.  1.
         21   -1    0    0  501  502 -0.00000000000E+00 -0.00000000000E+00 -0.58902002881E+03  0.58902002881E+03  0.00000000000E+00 0.  1.
      99926    2    1    2    0    0  0.00000000000E+00  0.00000000000E+00 -0.50077932630E+03  0.67726073133E+03  0.45596289822E+03 0.  0.
      99925    2    3    3    0    0 -0.58643028395E+02  0.85186957888E+02 -0.24342792711E+03  0.37300249670E+03  0.26301688972E+03 0.  0.
         25    1    3    3    0    0  0.58643028395E+02 -0.85186957888E+02 -0.25735139919E+03  0.30425823463E+03  0.12509000000E+03 0.  0.
         25    1    4    4    0    0  0.65366312914E+01  0.59424643189E+02 -0.13173312668E+03  0.19124628240E+03  0.12509000000E+03 0.  0.
         25    1    4    4    0    0 -0.65179659687E+02  0.25762314699E+02 -0.11169480043E+03  0.18175621430E+03  0.12509000000E+03 0.  0.
<mgrwt>
<rscale>  2 0.45596290E+03</rscale>
<asrwt>0</asrwt>
<pdfrwt beam="1">  1       21 0.12976574E-01 0.45596290E+03</pdfrwt>
<pdfrwt beam="2">  1       21 0.86620593E-01 0.45596290E+03</pdfrwt>
<totfact> 0.53746566E+04</totfact>
</mgrwt>
</event>
<event>
 7    0  0.4766352E-002  0.4574055E+03  0.7546771E-02  0.1025536E+00
         21   -1    0    0  502  501  0.00000000000E+00  0.00000000000E+00  0.58529991844E+02  0.58529991844E+02  0.00000000000E+00 0. -1.
         21   -1    0    0  501  502 -0.00000000000E+00 -0.00000000000E+00 -0.89364366742E+03  0.89364366742E+03  0.00000000000E+00 0. -1.
      99926    2    1    2    0    0  0.00000000000E+00  0.00000000000E+00 -0.83511367558E+03  0.95217365927E+03  0.45740553808E+03 0.  0.
      99925    2    3    3    0    0 -0.68031109054E+02 -0.74082006481E+02 -0.40620303498E+03  0.49421272076E+03  0.26292381453E+03 0.  0.
         25    1    3    3    0    0  0.68031109054E+02  0.74082006481E+02 -0.42891064060E+03  0.45796093851E+03  0.12509000000E+03 0.  0.
         25    1    4    4    0    0 -0.72456941294E+01 -0.51247283414E+02 -0.15193095597E+03  0.20349277044E+03  0.12509000000E+03 0.  0.
         25    1    4    4    0    0 -0.60785414925E+02 -0.22834723067E+02 -0.25427207901E+03  0.29071995031E+03  0.12509000000E+03 0.  0.
<mgrwt>
<rscale>  2 0.45740554E+03</rscale>
<asrwt>0</asrwt>
<pdfrwt beam="1">  1       21 0.86073514E-02 0.45740554E+03</pdfrwt>
<pdfrwt beam="2">  1       21 0.13141819E+00 0.45740554E+03</pdfrwt>
<totfact> 0.40289696E+04</totfact>
</mgrwt>
</event>
<event>
 7    0  0.4766352E-002  0.4512139E+03  0.7546771E-02  0.1027361E+00
         21   -1    0    0  502  501  0.00000000000E+00  0.00000000000E+00  0.19999440650E+03  0.19999440650E+03  0.00000000000E+00 0. -1.
         21   -1    0    0  501  502 -0.00000000000E+00 -0.00000000000E+00 -0.25449958422E+03  0.25449958422E+03  0.00000000000E+00 0. -1.
      99926    2    1    2    0    0  0.00000000000E+00  0.00000000000E+00 -0.54505177716E+02  0.45449399072E+03  0.45121388853E+03 0.  0.
      99925    2    3    3    0    0 -0.94469624150E+02  0.17713020280E+02  0.18509565026E+02  0.28066383875E+03  0.26304244033E+03 0.  0.
         25    1    3    3    0    0  0.94469624150E+02 -0.17713020280E+02 -0.73014742743E+02  0.17383015197E+03  0.12509000000E+03 0.  0.
         25    1    4    4    0    0 -0.28655292322E+02  0.77717465906E+01  0.45577876607E+02  0.13640519330E+03  0.12509000000E+03 0.  0.
         25    1    4    4    0    0 -0.65814331829E+02  0.99412736897E+01 -0.27068311580E+02  0.14425864545E+03  0.12509000000E+03 0.  0.
<mgrwt>
<rscale>  2 0.45121389E+03</rscale>
<asrwt>0</asrwt>
<pdfrwt beam="1">  1       21 0.29410942E-01 0.45121389E+03</pdfrwt>
<pdfrwt beam="2">  1       21 0.37426409E-01 0.45121389E+03</pdfrwt>
<totfact> 0.70694202E+04</totfact>
</mgrwt>
</event>
<event>
 7    0  0.4766352E-002  0.4707643E+03  0.7546771E-02  0.1021705E+00
         21   -1    0    0  502  501  0.00000000000E+00  0.00000000000E+00  0.59840918577E+03  0.59840918577E+03  0.00000000000E+00 0. -1.
         21   -1    0    0  501  502 -0.00000000000E+00 -0.00000000000E+00 -0.92586750266E+02  0.92586750266E+02  0.00000000000E+00 0. -1.
      99926    2    1    2    0    0  0.00000000000E+00  0.88817841970E-15  0.50582243550E+03  0.69099593604E+03  0.47076432252E+03 0.  0.
      99925    2    3    3    0    0  0.46711626317E+02  0.37628649556E+01  0.48786134790E+03  0.55621372670E+03  0.26299977150E+03 0.  0.
         25    1    4    4    0    0  0.39787632713E+02  0.34535643601E+02  0.21280022889E+03  0.25240287619E+03  0.12509000000E+03 0.  0.
         25    1    4    4    0    0  0.69239936036E+01 -0.30772778646E+02  0.27506111902E+03  0.30381085051E+03  0.12509000000E+03 0.  0.
         25    1    3    3    0    0 -0.46711626317E+02 -0.37628649556E+01  0.17961087604E+02  0.13478220934E+03  0.12509000000E+03 0.  0.
<mgrwt>
<rscale>  2 0.47076432E+03</rscale>
<asrwt>0</asrwt>
<pdfrwt beam="1">  1       21 0.88001349E-01 0.47076432E+03</pdfrwt>
<pdfrwt beam="2">  1       21 0.13615699E-01 0.47076432E+03</pdfrwt>
<totfact> 0.47248595E+04</totfact>
</mgrwt>
</event>
<event>
 7    0  0.4766352E-002  0.4343859E+03  0.7546771E-02  0.1032483E+00
         21   -1    0    0  502  501  0.00000000000E+00  0.00000000000E+00  0.64848489069E+02  0.64848489069E+02  0.00000000000E+00 0. -1.
         21   -1    0    0  501  502 -0.00000000000E+00 -0.00000000000E+00 -0.72743065156E+03  0.72743065156E+03  0.00000000000E+00 0. -1.
      99926    2    1    2    0    0 -0.14210854715E-13 -0.17763568394E-14 -0.66258216249E+03  0.79227914063E+03  0.43438590519E+03 0.  0.
      99925    2    3    3    0    0 -0.74601517568E+02 -0.15406576746E+02 -0.52131502811E+03  0.58879287479E+03  0.26287818820E+03 0.  0.
         25    1    4    4    0    0 -0.53367717777E+02  0.34201431689E+00 -0.18993866047E+03  0.23360743378E+03  0.12509000000E+03 0.  0.
         25    1    4    4    0    0 -0.21233799790E+02 -0.15748591063E+02 -0.33137636764E+03  0.35518544101E+03  0.12509000000E+03 0.  0.
         25    1    3    3    0    0  0.74601517568E+02  0.15406576746E+02 -0.14126713438E+03  0.20348626584E+03  0.12509000000E+03 0.  0.
<mgrwt>
<rscale>  2 0.43438591E+03</rscale>
<asrwt>0</asrwt>
<pdfrwt beam="1">  1       21 0.95365426E-02 0.43438591E+03</pdfrwt>
<pdfrwt beam="2">  1       21 0.10697509E+00 0.43438591E+03</pdfrwt>
<totfact> 0.56785438E+04</totfact>
</mgrwt>
</event>
<event>
 7    0  0.4766352E-002  0.4527295E+03  0.7546771E-02  0.1026911E+00
         21   -1    0    0  502  501  0.00000000000E+00  0.00000000000E+00  0.20007114087E+03  0.20007114087E+03  0.00000000000E+00 0. -1.
         21   -1    0    0  501  502 -0.00000000000E+00 -0.00000000000E+00 -0.25611385676E+03  0.25611385676E+03  0.00000000000E+00 0. -1.
      99926    2    1    2    0    0 -0.71054273576E-14  0.00000000000E+00 -0.56042715887E+02  0.45618499763E+03  0.45272946233E+03 0.  0.
      99925    2    3    3    0    0  0.60248316864E+02 -0.30806489275E+02  0.53407998807E+02  0.27672506753E+03  0.26295522279E+03 0.  0.
         25    1    3    3    0    0 -0.60248316864E+02  0.30806489275E+02 -0.10945071469E+03  0.17945993011E+03  0.12509000000E+03 0.  0.
         25    1    4    4    0    0 -0.60736259168E+01 -0.28580576033E+02  0.11089529072E+02  0.12893496040E+03  0.12509000000E+03 0.  0.
         25    1    4    4    0    0  0.66321942781E+02 -0.22259132413E+01  0.42318469735E+02  0.14779010713E+03  0.12509000000E+03 0.  0.
<mgrwt>
<rscale>  2 0.45272946E+03</rscale>
<asrwt>0</asrwt>
<pdfrwt beam="1">  1       21 0.29422227E-01 0.45272946E+03</pdfrwt>
<pdfrwt beam="2">  1       21 0.37663803E-01 0.45272946E+03</pdfrwt>
<totfact> 0.69713250E+04</totfact>
</mgrwt>
</event>
<event>
 7    0  0.4766352E-002  0.4498315E+03  0.7546771E-02  0.1027772E+00
         21   -1    0    0  502  501  0.00000000000E+00  0.00000000000E+00  0.82698021940E+03  0.82698021940E+03  0.00000000000E+00 0. -1.
         21   -1    0    0  501  502 -0.00000000000E+00 -0.00000000000E+00 -0.61170857545E+02  0.61170857545E+02  0.00000000000E+00 0. -1.
      99926    2    1    2    0    0  0.00000000000E+00 -0.17763568394E-14  0.76580936186E+03  0.88815107695E+03  0.44983147597E+03 0.  0.
      99925    2    3    3    0    0 -0.44676145757E+02 -0.10747563172E+02  0.29049006112E+03  0.39450402300E+03  0.26294007006E+03 0.  0.
         25    1    4    4    0    0 -0.37048706027E+02  0.13336744894E+02  0.19552436469E+03  0.23543101043E+03  0.12509000000E+03 0.  0.
         25    1    3    3    0    0  0.44676145757E+02  0.10747563172E+02  0.47531930074E+03  0.49364705395E+03  0.12509000000E+03 0.  0.
         25    1    4    4    0    0 -0.76274397297E+01 -0.24084308067E+02  0.94965696426E+02  0.15907301257E+03  0.12509000000E+03 0.  0.
<mgrwt>
<rscale>  2 0.44983148E+03</rscale>
<asrwt>0</asrwt>
<pdfrwt beam="1">  1       21 0.12161473E+00 0.44983148E+03</pdfrwt>
<pdfrwt beam="2">  1       21 0.89957148E-02 0.44983148E+03</pdfrwt>
<totfact> 0.45566409E+04</totfact>
</mgrwt>
</event>
<event>
 7    0  0.4766352E-002  0.4551141E+03  0.7546771E-02  0.1026208E+00
         21   -1    0    0  502  501  0.00000000000E+00  0.00000000000E+00  0.11881155972E+04  0.11881155972E+04  0.00000000000E+00 0.  1.
         21   -1    0    0  501  502 -0.00000000000E+00 -0.00000000000E+00 -0.43583487256E+02  0.43583487256E+02  0.00000000000E+00 0.  1.
      99926    2    1    2    0    0  0.00000000000E+00  0.00000000000E+00  0.11445321100E+04  0.12316990845E+04  0.45511414388E+03 0.  0.
      99925    2    3    3    0    0 -0.48132532614E+02 -0.92475908451E+02  0.83889218999E+03  0.88538737067E+03  0.26325302538E+03 0.  0.
         25    1    4    4    0    0 -0.51378228818E+02 -0.19725351318E+02  0.35857185237E+03  0.38373179865E+03  0.12509000000E+03 0.  0.
         25    1    4    4    0    0  0.32456962040E+01 -0.72750557134E+02  0.48032033762E+03  0.50165557202E+03  0.12509000000E+03 0.  0.
         25    1    3    3    0    0  0.48132532614E+02  0.92475908451E+02  0.30563991997E+03  0.34631171381E+03  0.12509000000E+03 0.  0.
<mgrwt>
<rscale>  2 0.45511414E+03</rscale>
<asrwt>0</asrwt>
<pdfrwt beam="1">  1       21 0.17472286E+00 0.45511414E+03</pdfrwt>
<pdfrwt beam="2">  1       21 0.64093371E-02 0.45511414E+03</pdfrwt>
<totfact> 0.31136917E+04</totfact>
</mgrwt>
</event>
<event>
 7    0  0.4766352E-002  0.4484071E+03  0.7546771E-02  0.1028198E+00
         21   -1    0    0  502  501  0.00000000000E+00  0.00000000000E+00  0.85390434570E+02  0.85390434570E+02  0.00000000000E+00 0. -1.
         21   -1    0    0  501  502 -0.00000000000E+00 -0.00000000000E+00 -0.58867508029E+03  0.58867508029E+03  0.00000000000E+00 0. -1.
      99926    2    1    2    0    0  0.17763568394E-14 -0.71054273576E-14 -0.50328464572E+03  0.67406551486E+03  0.44840705136E+03 0.  0.
      99925    2    3    3    0    0 -0.11923324971E+02 -0.62802174258E+02 -0.18998944956E+03  0.33071778033E+03  0.26304368556E+03 0.  0.
         25    1    4    4    0    0 -0.40672573280E+02 -0.26358546084E+02 -0.70198818539E+02  0.15140810214E+03  0.12509000000E+03 0.  0.
         25    1    3    3    0    0  0.11923324971E+02  0.62802174258E+02 -0.31329519616E+03  0.34334773453E+03  0.12509000000E+03 0.  0.
         25    1    4    4    0    0  0.28749248309E+02 -0.36443628174E+02 -0.11979063102E+03  0.17930967819E+03  0.12509000000E+03 0.  0.
<mgrwt>
<rscale>  2 0.44840705E+03</rscale>
<asrwt>0</asrwt>
<pdfrwt beam="1">  1       21 0.12557417E-01 0.44840705E+03</pdfrwt>
<pdfrwt beam="2">  1       21 0.86569862E-01 0.44840705E+03</pdfrwt>
<totfact> 0.57249621E+04</totfact>
</mgrwt>
</event>
<event>
 7    0  0.4766352E-002  0.4505017E+03  0.7546771E-02  0.1027573E+00
         21   -1    0    0  502  501  0.00000000000E+00  0.00000000000E+00  0.58374033111E+02  0.58374033111E+02  0.00000000000E+00 0. -1.
         21   -1    0    0  501  502 -0.00000000000E+00 -0.00000000000E+00 -0.86918709263E+03  0.86918709263E+03  0.00000000000E+00 0. -1.
      99926    2    1    2    0    0 -0.35527136788E-14  0.00000000000E+00 -0.81081305952E+03  0.92756112574E+03  0.45050174750E+03 0.  0.
      99925    2    3    3    0    0  0.57310969648E+01  0.45673079961E+01 -0.29019303249E+03  0.39207403307E+03  0.26354571810E+03 0.  0.
         25    1    4    4    0    0 -0.38516430082E+02  0.33061301356E+01 -0.14121087825E+03  0.19256808178E+03  0.12509000000E+03 0.  0.
         25    1    3    3    0    0 -0.57310969648E+01 -0.45673079961E+01 -0.52062002703E+03  0.53548709267E+03  0.12509000000E+03 0.  0.
         25    1    4    4    0    0  0.44247527047E+02  0.12611778605E+01 -0.14898215424E+03  0.19950595129E+03  0.12509000000E+03 0.  0.
<mgrwt>
<rscale>  2 0.45050175E+03</rscale>
<asrwt>0</asrwt>
<pdfrwt beam="1">  1       21 0.85844168E-02 0.45050175E+03</pdfrwt>
<pdfrwt beam="2">  1       21 0.12782163E+00 0.45050175E+03</pdfrwt>
<totfact> 0.43576160E+04</totfact>
</mgrwt>
</event>
<event>
 7    0  0.4766352E-002  0.4524860E+03  0.7546771E-02  0.1026983E+00
         21   -1    0    0  502  501  0.00000000000E+00  0.00000000000E+00  0.95711584904E+02  0.95711584904E+02  0.00000000000E+00 0. -1.
         21   -1    0    0  501  502 -0.00000000000E+00 -0.00000000000E+00 -0.53479319664E+03  0.53479319664E+03  0.00000000000E+00 0. -1.
      99926    2    1    2    0    0  0.00000000000E+00  0.00000000000E+00 -0.43908161173E+03  0.63050478154E+03  0.45248604153E+03 0.  0.
      99925    2    3    3    0    0 -0.51948234465E+02  0.64298014228E+02 -0.17408060923E+03  0.32602835696E+03  0.26297828301E+03 0.  0.
         25    1    4    4    0    0 -0.19731522271E+02  0.64157900040E+02 -0.61612856753E+02  0.15475535960E+03  0.12509000000E+03 0.  0.
         25    1    4    4    0    0 -0.32216712194E+02  0.14011418768E+00 -0.11246775248E+03  0.17127299736E+03  0.12509000000E+03 0.  0.
         25    1    3    3    0    0  0.51948234465E+02 -0.64298014228E+02 -0.26500100250E+03  0.30447642458E+03  0.12509000000E+03 0.  0.
<mgrwt>
<rscale>  2 0.45248604E+03</rscale>
<asrwt>0</asrwt>
<pdfrwt beam="1">  1       21 0.14075233E-01 0.45248604E+03</pdfrwt>
<pdfrwt beam="2">  1       21 0.78646059E-01 0.45248604E+03</pdfrwt>
<totfact> 0.57980901E+04</totfact>
</mgrwt>
</event>
<event>
 7    0  0.4766352E-002  0.4395596E+03  0.7546771E-02  0.1030882E+00
         21   -1    0    0  502  501  0.00000000000E+00  0.00000000000E+00  0.44629391778E+03  0.44629391778E+03  0.00000000000E+00 0. -1.
         21   -1    0    0  501  502 -0.00000000000E+00 -0.00000000000E+00 -0.10823172990E+03  0.10823172990E+03  0.00000000000E+00 0. -1.
      99926    2    1    2    0    0 -0.14210854715E-13  0.00000000000E+00  0.33806218789E+03  0.55452564768E+03  0.43955961036E+03 0.  0.
      99925    2    3    3    0    0 -0.87010836468E+02 -0.38051777935E+02  0.24629282395E+03  0.37262471936E+03  0.26300228684E+03 0.  0.
         25    1    4    4    0    0 -0.16724094007E+02  0.10071450903E+02  0.92009101975E+02  0.15650658897E+03  0.12509000000E+03 0.  0.
         25    1    4    4    0    0 -0.70286742461E+02 -0.48123228838E+02  0.15428372198E+03  0.21611813040E+03  0.12509000000E+03 0.  0.
         25    1    3    3    0    0  0.87010836468E+02  0.38051777935E+02  0.91769363935E+02  0.18190092832E+03  0.12509000000E+03 0.  0.
<mgrwt>
<rscale>  2 0.43955961E+03</rscale>
<asrwt>0</asrwt>
<pdfrwt beam="1">  1       21 0.65631458E-01 0.43955961E+03</pdfrwt>
<pdfrwt beam="2">  1       21 0.15916431E-01 0.43955961E+03</pdfrwt>
<totfact> 0.69699784E+04</totfact>
</mgrwt>
</event>
<event>
 7    0  0.4766352E-002  0.4486314E+03  0.7546771E-02  0.1028131E+00
         21   -1    0    0  502  501  0.00000000000E+00  0.00000000000E+00  0.26878265952E+03  0.26878265952E+03  0.00000000000E+00 0.  1.
         21   -1    0    0  501  502 -0.00000000000E+00 -0.00000000000E+00 -0.18720532168E+03  0.18720532168E+03  0.00000000000E+00 0.  1.
      99926    2    1    2    0    0 -0.14210854715E-13  0.00000000000E+00  0.81577337836E+02  0.45598798120E+03  0.44863144891E+03 0.  0.
      99925    2    3    3    0    0 -0.65166494657E+02 -0.78004455141E+02  0.17306031391E+02  0.28246658200E+03  0.26297624261E+03 0.  0.
         25    1    4    4    0    0 -0.72640340139E+02 -0.44832833888E+02 -0.17117432350E+01  0.15144979424E+03  0.12509000000E+03 0.  0.
         25    1    4    4    0    0  0.74738454821E+01 -0.33171621253E+02  0.19017774626E+02  0.13101678776E+03  0.12509000000E+03 0.  0.
         25    1    3    3    0    0  0.65166494657E+02  0.78004455141E+02  0.64271306445E+02  0.17352139920E+03  0.12509000000E+03 0.  0.
<mgrwt>
<rscale>  2 0.44863145E+03</rscale>
<asrwt>0</asrwt>
<pdfrwt beam="1">  1       21 0.39526862E-01 0.44863145E+03</pdfrwt>
<pdfrwt beam="2">  1       21 0.27530194E-01 0.44863145E+03</pdfrwt>
<totfact> 0.72064184E+04</totfact>
</mgrwt>
</event>
<event>
 7    0  0.4766352E-002  0.4541224E+03  0.7546771E-02  0.1026500E+00
         21   -1    0    0  502  501  0.00000000000E+00  0.00000000000E+00  0.28380416145E+03  0.28380416145E+03  0.00000000000E+00 0.  1.
         21   -1    0    0  501  502 -0.00000000000E+00 -0.00000000000E+00 -0.18166329761E+03  0.18166329761E+03  0.00000000000E+00 0.  1.
      99926    2    1    2    0    0  0.00000000000E+00  0.71054273576E-14  0.10214086384E+03  0.46546745906E+03  0.45412244976E+03 0.  0.
      99925    2    3    3    0    0  0.51849369083E+02  0.58518210880E+02 -0.18623458283E+02  0.27482573310E+03  0.26281098207E+03 0.  0.
         25    1    4    4    0    0  0.67950782239E+01  0.10956164356E+02 -0.40106631016E+02  0.13199341111E+03  0.12509000000E+03 0.  0.
         25    1    4    4    0    0  0.45054290859E+02  0.47562046525E+02  0.21483172732E+02  0.14283232199E+03  0.12509000000E+03 0.  0.
         25    1    3    3    0    0 -0.51849369083E+02 -0.58518210880E+02  0.12076432213E+03  0.19064172596E+03  0.12509000000E+03 0.  0.
<mgrwt>
<rscale>  2 0.45412245E+03</rscale>
<asrwt>0</asrwt>
<pdfrwt beam="1">  1       21 0.41735906E-01 0.45412245E+03</pdfrwt>
<pdfrwt beam="2">  1       21 0.26715191E-01 0.45412245E+03</pdfrwt>
<totfact> 0.68248522E+04</totfact>
</mgrwt>
</event>
<event>
 7    0  0.4766352E-002  0.4338371E+03  0.7546771E-02  0.1032655E+00
         21   -1    0    0  502  501  0.00000000000E+00  0.00000000000E+00  0.17096905186E+04  0.17096905186E+04  0.00000000000E+00 0. -1.
         21   -1    0    0  501  502 -0.00000000000E+00 -0.00000000000E+00 -0.27521743011E+02  0.27521743011E+02  0.00000000000E+00 0. -1.
      99926    2    1    2    0    0  0.00000000000E+00  0.00000000000E+00  0.16821687756E+04  0.17372122616E+04  0.43383712650E+03 0.  0.
      99925    2    3    3    0    0 -0.60970678022E+02  0.27964708830E+02  0.82838026188E+03  0.87170559915E+03  0.26297784090E+03 0.  0.
         25    1    4    4    0    0  0.13982430296E+01 -0.12829569787E+02  0.39100546347E+03  0.41073024421E+03  0.12509000000E+03 0.  0.
         25    1    3    3    0    0  0.60970678022E+02 -0.27964708830E+02  0.85378851373E+03  0.86550666248E+03  0.12509000000E+03 0.  0.
         25    1    4    4    0    0 -0.62368921051E+02  0.40794278618E+02  0.43737479840E+03  0.46097535494E+03  0.12509000000E+03 0.  0.
<mgrwt>
<rscale>  2 0.43383713E+03</rscale>
<asrwt>0</asrwt>
<pdfrwt beam="1">  1       21 0.25142500E+00 0.43383713E+03</pdfrwt>
<pdfrwt beam="2">  1       21 0.40473163E-02 0.43383713E+03</pdfrwt>
<totfact> 0.21876799E+04</totfact>
</mgrwt>
</event>
<event>
 7    0  0.4766352E-002  0.4540447E+03  0.7546771E-02  0.1026523E+00
         21   -1    0    0  502  501  0.00000000000E+00  0.00000000000E+00  0.18552610598E+03  0.18552610598E+03  0.00000000000E+00 0.  1.
         21   -1    0    0  501  502 -0.00000000000E+00 -0.00000000000E+00 -0.27779994770E+03  0.27779994770E+03  0.00000000000E+00 0.  1.
      99926    2    1    2    0    0  0.00000000000E+00  0.00000000000E+00 -0.92273841719E+02  0.46332605367E+03  0.45404467858E+03 0.  0.
      99925    2    3    3    0    0 -0.50232333587E+02 -0.10040280906E+03 -0.56802257765E+02  0.29154202422E+03  0.26299476040E+03 0.  0.
         25    1    3    3    0    0  0.50232333587E+02  0.10040280906E+03 -0.35471583955E+02  0.17178402945E+03  0.12509000000E+03 0.  0.
         25    1    4    4    0    0 -0.19409086014E+02 -0.79982636460E+01 -0.16101373004E+02  0.12785713572E+03  0.12509000000E+03 0.  0.
         25    1    4    4    0    0 -0.30823247574E+02 -0.92404545417E+02 -0.40700884761E+02  0.16368488851E+03  0.12509000000E+03 0.  0.
<mgrwt>
<rscale>  2 0.45404468E+03</rscale>
<asrwt>0</asrwt>
<pdfrwt beam="1">  1       21 0.27283251E-01 0.45404468E+03</pdfrwt>
<pdfrwt beam="2">  1       21 0.40852933E-01 0.45404468E+03</pdfrwt>
<totfact> 0.68453058E+04</totfact>
</mgrwt>
</event>
<event>
 7    0  0.4766352E-002  0.4420798E+03  0.7546771E-02  0.1030111E+00
         21   -1    0    0  502  501  0.00000000000E+00  0.00000000000E+00  0.25792557373E+03  0.25792557373E+03  0.00000000000E+00 0.  1.
         21   -1    0    0  501  502 -0.00000000000E+00 -0.00000000000E+00 -0.18942919775E+03  0.18942919775E+03  0.00000000000E+00 0.  1.
      99926    2    1    2    0    0  0.00000000000E+00  0.00000000000E+00  0.68496375978E+02  0.44735477148E+03  0.44207978696E+03 0.  0.
      99925    2    3    3    0    0 -0.27710638410E+02  0.84784884958E+01  0.14117180946E+03  0.29981158804E+03  0.26290253762E+03 0.  0.
         25    1    3    3    0    0  0.27710638410E+02 -0.84784884958E+01 -0.72675433480E+02  0.14754318344E+03  0.12509000000E+03 0.  0.
         25    1    4    4    0    0  0.77131993249E+00  0.19060452226E+02  0.10927886941E+03  0.16719232989E+03  0.12509000000E+03 0.  0.
         25    1    4    4    0    0 -0.28481958343E+02 -0.10581963730E+02  0.31892940048E+02  0.13261925815E+03  0.12509000000E+03 0.  0.
<mgrwt>
<rscale>  2 0.44207979E+03</rscale>
<asrwt>0</asrwt>
<pdfrwt beam="1">  1       21 0.37930231E-01 0.44207979E+03</pdfrwt>
<pdfrwt beam="2">  1       21 0.27857235E-01 0.44207979E+03</pdfrwt>
<totfact> 0.76716984E+04</totfact>
</mgrwt>
</event>
<event>
 7    0  0.4766352E-002  0.4491275E+03  0.7546771E-02  0.1027983E+00
         21   -1    0    0  502  501  0.00000000000E+00  0.00000000000E+00  0.37545143259E+03  0.37545143259E+03  0.00000000000E+00 0. -1.
         21   -1    0    0  501  502 -0.00000000000E+00 -0.00000000000E+00 -0.13431534219E+03  0.13431534219E+03  0.00000000000E+00 0. -1.
      99926    2    1    2    0    0  0.00000000000E+00  0.00000000000E+00  0.24113609040E+03  0.50976677478E+03  0.44912754377E+03 0.  0.
      99925    2    3    3    0    0 -0.41560439935E+02  0.19667793970E+02  0.26290230953E+03  0.37472837771E+03  0.26303923742E+03 0.  0.
         25    1    4    4    0    0 -0.48215405428E+02  0.17069063349E+02  0.94836742871E+02  0.16509874058E+03  0.12509000000E+03 0.  0.
         25    1    4    4    0    0  0.66549654934E+01  0.25987306212E+01  0.16806556666E+03  0.20962963713E+03  0.12509000000E+03 0.  0.
         25    1    3    3    0    0  0.41560439935E+02 -0.19667793970E+02 -0.21766219125E+02  0.13503839707E+03  0.12509000000E+03 0.  0.
<mgrwt>
<rscale>  2 0.44912754E+03</rscale>
<asrwt>0</asrwt>
<pdfrwt beam="1">  1       21 0.55213446E-01 0.44912754E+03</pdfrwt>
<pdfrwt beam="2">  1       21 0.19752256E-01 0.44912754E+03</pdfrwt>
<totfact> 0.67689656E+04</totfact>
</mgrwt>
</event>
<event>
 7    0  0.4766352E-002  0.4564212E+03  0.7546771E-02  0.1025824E+00
         21   -1    0    0  502  501  0.00000000000E+00  0.00000000000E+00  0.25479219853E+03  0.25479219853E+03  0.00000000000E+00 0.  1.
         21   -1    0    0  501  502 -0.00000000000E+00 -0.00000000000E+00 -0.20440215983E+03  0.20440215983E+03  0.00000000000E+00 0.  1.
      99926    2    1    2    0    0  0.00000000000E+00  0.00000000000E+00  0.50390038698E+02  0.45919435836E+03  0.45642119008E+03 0.  0.
      99925    2    3    3    0    0  0.82683628024E+02  0.64775032686E+02  0.78405594608E+02  0.29346938536E+03  0.26257276263E+03 0.  0.
         25    1    3    3    0    0 -0.82683628024E+02 -0.64775032686E+02 -0.28015555910E+02  0.16572497300E+03  0.12509000000E+03 0.  0.
         25    1    4    4    0    0  0.17559542062E+02  0.62514877639E+02  0.28042740374E+02  0.14370229933E+03  0.12509000000E+03 0.  0.
         25    1    4    4    0    0  0.65124085962E+02  0.22601550477E+01  0.50362854233E+02  0.14976708604E+03  0.12509000000E+03 0.  0.
<mgrwt>
<rscale>  2 0.45642119E+03</rscale>
<asrwt>0</asrwt>
<pdfrwt beam="1">  1       21 0.37469441E-01 0.45642119E+03</pdfrwt>
<pdfrwt beam="2">  1       21 0.30059141E-01 0.45642119E+03</pdfrwt>
<totfact> 0.67471244E+04</totfact>
</mgrwt>
</event>
<event>
 7    0  0.4766352E-002  0.4555547E+03  0.7546771E-02  0.1026078E+00
         21   -1    0    0  502  501  0.00000000000E+00  0.00000000000E+00  0.15903469898E+03  0.15903469898E+03  0.00000000000E+00 0. -1.
         21   -1    0    0  501  502 -0.00000000000E+00 -0.00000000000E+00 -0.32623396553E+03  0.32623396553E+03  0.00000000000E+00 0. -1.
      99926    2    1    2    0    0  0.00000000000E+00  0.00000000000E+00 -0.16719926655E+03  0.48526866451E+03  0.45555469707E+03 0.  0.
      99925    2    3    3    0    0  0.27636354184E+02 -0.10881663950E+03 -0.87090063771E+02  0.29907032517E+03  0.26316069441E+03 0.  0.
         25    1    4    4    0    0 -0.26587487463E+02 -0.45381729078E+02 -0.38838310805E+02  0.14114644278E+03  0.12509000000E+03 0.  0.
         25    1    3    3    0    0 -0.27636354184E+02  0.10881663950E+03 -0.80109202777E+02  0.18619833934E+03  0.12509000000E+03 0.  0.
         25    1    4    4    0    0  0.54223841647E+02 -0.63434910424E+02 -0.48251752967E+02  0.15792388239E+03  0.12509000000E+03 0.  0.
<mgrwt>
<rscale>  2 0.45555470E+03</rscale>
<asrwt>0</asrwt>
<pdfrwt beam="1">  1       21 0.23387456E-01 0.45555470E+03</pdfrwt>
<pdfrwt beam="2">  1       21 0.47975583E-01 0.45555470E+03</pdfrwt>
<totfact> 0.66027315E+04</totfact>
</mgrwt>
</event>
<event>
 7    0  0.4766352E-002  0.4573430E+03  0.7546771E-02  0.1025555E+00
         21   -1    0    0  502  501  0.00000000000E+00  0.00000000000E+00  0.45612606450E+03  0.45612606450E+03  0.00000000000E+00 0.  1.
         21   -1    0    0  501  502 -0.00000000000E+00 -0.00000000000E+00 -0.11464077872E+03  0.11464077872E+03  0.00000000000E+00 0.  1.
      99926    2    1    2    0    0  0.14210854715E-13 -0.14210854715E-13  0.34148528578E+03  0.57076684322E+03  0.45734296640E+03 0.  0.
      99925    2    3    3    0    0  0.74372084050E+02 -0.78546064128E+02  0.16460908328E+03  0.32862351750E+03  0.26305241851E+03 0.  0.
         25    1    4    4    0    0  0.29533242055E+02 -0.21243855729E+02  0.36339097369E+02  0.13524626387E+03  0.12509000000E+03 0.  0.
         25    1    3    3    0    0 -0.74372084050E+02  0.78546064128E+02  0.17687620250E+03  0.24214332571E+03  0.12509000000E+03 0.  0.
         25    1    4    4    0    0  0.44838841995E+02 -0.57302208398E+02  0.12826998591E+03  0.19337725364E+03  0.12509000000E+03 0.  0.
<mgrwt>
<rscale>  2 0.45734297E+03</rscale>
<asrwt>0</asrwt>
<pdfrwt beam="1">  1       21 0.67077362E-01 0.45734297E+03</pdfrwt>
<pdfrwt beam="2">  1       21 0.16858938E-01 0.45734297E+03</pdfrwt>
<totfact> 0.59406394E+04</totfact>
</mgrwt>
</event>
<event>
 7    0  0.4766352E-002  0.4654199E+03  0.7546771E-02  0.1023221E+00
         21   -1    0    0  502  501  0.00000000000E+00  0.00000000000E+00  0.12411834846E+03  0.12411834846E+03  0.00000000000E+00 0.  1.
         21   -1    0    0  501  502 -0.00000000000E+00 -0.00000000000E+00 -0.43630873867E+03  0.43630873867E+03  0.00000000000E+00 0.  1.
      99926    2    1    2    0    0 -0.14210854715E-13  0.00000000000E+00 -0.31219039021E+03  0.56042708713E+03  0.46541989670E+03 0.  0.
      99925    2    3    3    0    0  0.68460832397E+02  0.99468181849E+02 -0.22085736183E+03  0.36403453394E+03  0.26298738156E+03 0.  0.
         25    1    4    4    0    0  0.72427774017E+02  0.67273527731E+02 -0.13471651310E+03  0.20872842879E+03  0.12509000000E+03 0.  0.
         25    1    3    3    0    0 -0.68460832397E+02 -0.99468181849E+02 -0.91333028382E+02  0.19639255318E+03  0.12509000000E+03 0.  0.
         25    1    4    4    0    0 -0.39669416202E+01  0.32194654118E+02 -0.86140848729E+02  0.15530610516E+03  0.12509000000E+03 0.  0.
<mgrwt>
<rscale>  2 0.46541990E+03</rscale>
<asrwt>0</asrwt>
<pdfrwt beam="1">  1       21 0.18252698E-01 0.46541990E+03</pdfrwt>
<pdfrwt beam="2">  1       21 0.64163051E-01 0.46541990E+03</pdfrwt>
<totfact> 0.56389275E+04</totfact>
</mgrwt>
</event>
<event>
 7    0  0.4766352E-002  0.4528818E+03  0.7546771E-02  0.1026866E+00
         21   -1    0    0  502  501  0.00000000000E+00  0.00000000000E+00  0.43889782660E+03  0.43889782660E+03  0.00000000000E+00 0.  1.
         21   -1    0    0  501  502 -0.00000000000E+00 -0.00000000000E+00 -0.11682784634E+03  0.11682784634E+03  0.00000000000E+00 0.  1.
      99926    2    1    2    0    0  0.00000000000E+00  0.00000000000E+00  0.32206998026E+03  0.55572567294E+03  0.45288182937E+03 0.  0.
      99925    2    3    3    0    0 -0.10432451316E+03 -0.85078267114E+01  0.15709149136E+03  0.32373128279E+03  0.26299851641E+03 0.  0.
         25    1    4    4    0    0 -0.19902950668E+02  0.20838792501E+02  0.84772870648E+02  0.15383215014E+03  0.12509000000E+03 0.  0.
         25    1    4    4    0    0 -0.84421562494E+02 -0.29346619212E+02  0.72318620717E+02  0.16989913265E+03  0.12509000000E+03 0.  0.
         25    1    3    3    0    0  0.10432451316E+03  0.85078267114E+01  0.16497848890E+03  0.23199439015E+03  0.12509000000E+03 0.  0.
<mgrwt>
<rscale>  2 0.45288183E+03</rscale>
<asrwt>0</asrwt>
<pdfrwt beam="1">  1       21 0.64543798E-01 0.45288183E+03</pdfrwt>
<pdfrwt beam="2">  1       21 0.17180566E-01 0.45288183E+03</pdfrwt>
<totfact> 0.62530949E+04</totfact>
</mgrwt>
</event>
<event>
 7    0  0.4766352E-002  0.4514212E+03  0.7546771E-02  0.1027299E+00
         21   -1    0    0  502  501  0.00000000000E+00  0.00000000000E+00  0.88585178013E+03  0.88585178013E+03  0.00000000000E+00 0. -1.
         21   -1    0    0  501  502 -0.00000000000E+00 -0.00000000000E+00 -0.57509933262E+02  0.57509933262E+02  0.00000000000E+00 0. -1.
      99926    2    1    2    0    0  0.00000000000E+00  0.00000000000E+00  0.82834184687E+03  0.94336171339E+03  0.45142120799E+03 0.  0.
      99925    2    3    3    0    0  0.10069800288E+03 -0.38140216913E+02  0.56764600371E+03  0.63480929537E+03  0.26299447147E+03 0.  0.
         25    1    4    4    0    0  0.64285097308E+02  0.77382024072E+01  0.22602602534E+03  0.26632259713E+03  0.12509000000E+03 0.  0.
         25    1    3    3    0    0 -0.10069800288E+03  0.38140216913E+02  0.26069584315E+03  0.30855241802E+03  0.12509000000E+03 0.  0.
         25    1    4    4    0    0  0.36412905574E+02 -0.45878419321E+02  0.34161997838E+03  0.36848669824E+03  0.12509000000E+03 0.  0.
<mgrwt>
<rscale>  2 0.45142121E+03</rscale>
<asrwt>0</asrwt>
<pdfrwt beam="1">  1       21 0.13027231E+00 0.45142121E+03</pdfrwt>
<pdfrwt beam="2">  1       21 0.84573437E-02 0.45142121E+03</pdfrwt>
<totfact> 0.42590329E+04</totfact>
</mgrwt>
</event>
<event>
 7    0  0.4766352E-002  0.4574037E+03  0.7546771E-02  0.1025537E+00
         21   -1    0    0  502  501  0.00000000000E+00  0.00000000000E+00  0.53033609800E+03  0.53033609800E+03  0.00000000000E+00 0. -1.
         21   -1    0    0  501  502 -0.00000000000E+00 -0.00000000000E+00 -0.98625268071E+02  0.98625268071E+02  0.00000000000E+00 0. -1.
      99926    2    1    2    0    0  0.71054273576E-14 -0.14210854715E-13  0.43171082993E+03  0.62896136607E+03  0.45740371591E+03 0.  0.
      99925    2    3    3    0    0 -0.37701242890E+02  0.98689868086E+02  0.20696910557E+03  0.35090125648E+03  0.26293422630E+03 0.  0.
         25    1    4    4    0    0  0.14771171802E+01  0.85704955849E+02  0.11083923717E+03  0.18783068420E+03  0.12509000000E+03 0.  0.
         25    1    3    3    0    0  0.37701242890E+02 -0.98689868086E+02  0.22474172436E+03  0.27806010959E+03  0.12509000000E+03 0.  0.
         25    1    4    4    0    0 -0.39178360070E+02  0.12984912237E+02  0.96129868402E+02  0.16307057228E+03  0.12509000000E+03 0.  0.
<mgrwt>
<rscale>  2 0.45740372E+03</rscale>
<asrwt>0</asrwt>
<pdfrwt beam="1">  1       21 0.77990601E-01 0.45740372E+03</pdfrwt>
<pdfrwt beam="2">  1       21 0.14503716E-01 0.45740372E+03</pdfrwt>
<totfact> 0.55862491E+04</totfact>
</mgrwt>
</event>
<event>
 7    0  0.4766352E-002  0.4587177E+03  0.7546771E-02  0.1025154E+00
         21   -1    0    0  502  501  0.00000000000E+00  0.00000000000E+00  0.28150607862E+03  0.28150607862E+03  0.00000000000E+00 0.  1.
         21   -1    0    0  501  502 -0.00000000000E+00 -0.00000000000E+00 -0.18687158594E+03  0.18687158594E+03  0.00000000000E+00 0.  1.
      99926    2    1    2    0    0 -0.71054273576E-14  0.71054273576E-14  0.94634492679E+02  0.46837766455E+03  0.45871772306E+03 0.  0.
      99925    2    3    3    0    0 -0.58079430308E+02  0.53628144559E+02  0.14702920602E+03  0.31140023879E+03  0.26287510948E+03 0.  0.
         25    1    3    3    0    0  0.58079430308E+02 -0.53628144559E+02 -0.52394713341E+02  0.15697742576E+03  0.12509000000E+03 0.  0.
         25    1    4    4    0    0 -0.53107330563E+02  0.43956344638E+02  0.11064829025E+03  0.18067401869E+03  0.12509000000E+03 0.  0.
         25    1    4    4    0    0 -0.49720997451E+01  0.96717999204E+01  0.36380915765E+02  0.13072622010E+03  0.12509000000E+03 0.  0.
<mgrwt>
<rscale>  2 0.45871772E+03</rscale>
<asrwt>0</asrwt>
<pdfrwt beam="1">  1       21 0.41397953E-01 0.45871772E+03</pdfrwt>
<pdfrwt beam="2">  1       21 0.27481116E-01 0.45871772E+03</pdfrwt>
<totfact> 0.65600086E+04</totfact>
</mgrwt>
</event>
<event>
 7    0  0.4766352E-002  0.4533917E+03  0.7546771E-02  0.1026715E+00
         21   -1    0    0  502  501  0.00000000000E+00  0.00000000000E+00  0.19577763874E+03  0.19577763874E+03  0.00000000000E+00 0.  1.
         21   -1    0    0  501  502 -0.00000000000E+00 -0.00000000000E+00 -0.26249687890E+03  0.26249687890E+03  0.00000000000E+00 0.  1.
      99926    2    1    2    0    0  0.35527136788E-14  0.00000000000E+00 -0.66719240160E+02  0.45827451764E+03  0.45339174729E+03 0.  0.
      99925    2    3    3    0    0 -0.28404885110E+02  0.10428804097E+03 -0.13967207097E+02  0.28474320035E+03  0.26306040044E+03 0.  0.
         25    1    4    4    0    0 -0.48508412833E+02  0.30349656792E+02 -0.11416390824E+02  0.13802901819E+03  0.12509000000E+03 0.  0.
         25    1    3    3    0    0  0.28404885110E+02 -0.10428804097E+03 -0.52752033063E+02  0.17353131729E+03  0.12509000000E+03 0.  0.
         25    1    4    4    0    0  0.20103527724E+02  0.73938384181E+02 -0.25508162722E+01  0.14671418216E+03  0.12509000000E+03 0.  0.
<mgrwt>
<rscale>  2 0.45339175E+03</rscale>
<asrwt>0</asrwt>
<pdfrwt beam="1">  1       21 0.28790829E-01 0.45339175E+03</pdfrwt>
<pdfrwt beam="2">  1       21 0.38602482E-01 0.45339175E+03</pdfrwt>
<totfact> 0.69189633E+04</totfact>
</mgrwt>
</event>
<event>
 7    0  0.4766352E-002  0.4552236E+03  0.7546771E-02  0.1026176E+00
         21   -1    0    0  502  501  0.00000000000E+00  0.00000000000E+00  0.24155399292E+03  0.24155399292E+03  0.00000000000E+00 0.  1.
         21   -1    0    0  501  502 -0.00000000000E+00 -0.00000000000E+00 -0.21447432431E+03  0.21447432431E+03  0.00000000000E+00 0.  1.
      99926    2    1    2    0    0  0.00000000000E+00  0.00000000000E+00  0.27079668615E+02  0.45602831723E+03  0.45522359085E+03 0.  0.
      99925    2    3    3    0    0 -0.52106050390E+02 -0.95467281765E+02  0.48782982952E+02  0.28885300707E+03  0.26311069513E+03 0.  0.
         25    1    4    4    0    0 -0.37550972806E+02 -0.76993412159E+01  0.15100823823E+02  0.13170003187E+03  0.12509000000E+03 0.  0.
         25    1    4    4    0    0 -0.14555077584E+02 -0.87767940549E+02  0.33682159129E+02  0.15715297520E+03  0.12509000000E+03 0.  0.
         25    1    3    3    0    0  0.52106050390E+02  0.95467281765E+02 -0.21703314336E+02  0.16717531016E+03  0.12509000000E+03 0.  0.
<mgrwt>
<rscale>  2 0.45522359E+03</rscale>
<asrwt>0</asrwt>
<pdfrwt beam="1">  1       21 0.35522646E-01 0.45522359E+03</pdfrwt>
<pdfrwt beam="2">  1       21 0.31540342E-01 0.45522359E+03</pdfrwt>
<totfact> 0.68348544E+04</totfact>
</mgrwt>
</event>
<event>
 7    0  0.4766352E-002  0.4549229E+03  0.7546771E-02  0.1026264E+00
         21   -1    0    0  502  501  0.00000000000E+00  0.00000000000E+00  0.71535837236E+02  0.71535837236E+02  0.00000000000E+00 0.  1.
         21   -1    0    0  501  502 -0.00000000000E+00 -0.00000000000E+00 -0.72325574950E+03  0.72325574950E+03  0.00000000000E+00 0.  1.
      99926    2    1    2    0    0  0.00000000000E+00  0.00000000000E+00 -0.65171991226E+03  0.79479158673E+03  0.45492287511E+03 0.  0.
      99925    2    3    3    0    0  0.33801470580E+02  0.79982370327E+02 -0.28303981371E+03  0.39590282762E+03  0.26284557025E+03 0.  0.
         25    1    4    4    0    0 -0.13310619618E+01  0.23882011092E+02 -0.87485925884E+02  0.15451025049E+03  0.12509000000E+03 0.  0.
         25    1    4    4    0    0  0.35132532542E+02  0.56100359234E+02 -0.19555388782E+03  0.24139257713E+03  0.12509000000E+03 0.  0.
         25    1    3    3    0    0 -0.33801470580E+02 -0.79982370327E+02 -0.36868009855E+03  0.39888875911E+03  0.12509000000E+03 0.  0.
<mgrwt>
<rscale>  2 0.45492288E+03</rscale>
<asrwt>0</asrwt>
<pdfrwt beam="1">  1       21 0.10519977E-01 0.45492288E+03</pdfrwt>
<pdfrwt beam="2">  1       21 0.10636113E+00 0.45492288E+03</pdfrwt>
<totfact> 0.48046850E+04</totfact>
</mgrwt>
</event>
<event>
 7    0  0.4766352E-002  0.4528829E+03  0.7546771E-02  0.1026866E+00
         21   -1    0    0  502  501  0.00000000000E+00  0.00000000000E+00  0.97750557379E+02  0.97750557379E+02  0.00000000000E+00 0.  1.
         21   -1    0    0  501  502 -0.00000000000E+00 -0.00000000000E+00 -0.52455698259E+03  0.52455698259E+03  0.00000000000E+00 0.  1.
      99926    2    1    2    0    0  0.00000000000E+00 -0.35527136788E-14 -0.42680642521E+03  0.62230753997E+03  0.45288293156E+03 0.  0.
      99925    2    3    3    0    0  0.10791937221E+03 -0.15010638528E+02 -0.30072614878E+03  0.41394330510E+03  0.26275641402E+03 0.  0.
         25    1    4    4    0    0  0.30196989515E+02  0.20017271476E+02 -0.16840615066E+03  0.21288656372E+03  0.12509000000E+03 0.  0.
         25    1    4    4    0    0  0.77722382697E+02 -0.35027910003E+02 -0.13231999812E+03  0.20105674138E+03  0.12509000000E+03 0.  0.
         25    1    3    3    0    0 -0.10791937221E+03  0.15010638528E+02 -0.12608027643E+03  0.20836423487E+03  0.12509000000E+03 0.  0.
<mgrwt>
<rscale>  2 0.45288293E+03</rscale>
<asrwt>0</asrwt>
<pdfrwt beam="1">  1       21 0.14375082E-01 0.45288293E+03</pdfrwt>
<pdfrwt beam="2">  1       21 0.77140734E-01 0.45288293E+03</pdfrwt>
<totfact> 0.58294122E+04</totfact>
</mgrwt>
</event>
<event>
 7    0  0.4766352E-002  0.4471210E+03  0.7546771E-02  0.1028584E+00
         21   -1    0    0  502  501  0.00000000000E+00  0.00000000000E+00  0.36894569260E+02  0.36894569260E+02  0.00000000000E+00 0. -1.
         21   -1    0    0  501  502 -0.00000000000E+00 -0.00000000000E+00 -0.13546516129E+04  0.13546516129E+04  0.00000000000E+00 0. -1.
      99926    2    1    2    0    0  0.17763568394E-14  0.35527136788E-14 -0.13177570436E+04  0.13915461822E+04  0.44712095793E+03 0.  0.
      99925    2    3    3    0    0 -0.14899405781E+02  0.27625582687E+02 -0.52112414836E+03  0.58454144670E+03  0.26293185390E+03 0.  0.
         25    1    4    4    0    0 -0.16743949159E+02 -0.11830712908E+02 -0.19023246432E+03  0.22859620334E+03  0.12509000000E+03 0.  0.
         25    1    3    3    0    0  0.14899405781E+02 -0.27625582687E+02 -0.79663289527E+03  0.80700473545E+03  0.12509000000E+03 0.  0.
         25    1    4    4    0    0  0.18445433784E+01  0.39456295595E+02 -0.33089168405E+03  0.35594524336E+03  0.12509000000E+03 0.  0.
<mgrwt>
<rscale>  2 0.44712096E+03</rscale>
<asrwt>0</asrwt>
<pdfrwt beam="1">  1       21 0.54256722E-02 0.44712096E+03</pdfrwt>
<pdfrwt beam="2">  1       21 0.19921346E+00 0.44712096E+03</pdfrwt>
<totfact> 0.28248706E+04</totfact>
</mgrwt>
</event>
<event>
 7    0  0.4766352E-002  0.4545718E+03  0.7546771E-02  0.1026367E+00
         21   -1    0    0  502  501  0.00000000000E+00  0.00000000000E+00  0.12231713413E+03  0.12231713413E+03  0.00000000000E+00 0. -1.
         21   -1    0    0  501  502 -0.00000000000E+00 -0.00000000000E+00 -0.42233551447E+03  0.42233551447E+03  0.00000000000E+00 0. -1.
      99926    2    1    2    0    0  0.00000000000E+00  0.00000000000E+00 -0.30001838034E+03  0.54465264860E+03  0.45457175351E+03 0.  0.
      99925    2    3    3    0    0  0.58538208649E+02 -0.22471317407E+02 -0.30124355687E+03  0.40472162582E+03  0.26290726858E+03 0.  0.
         25    1    4    4    0    0  0.66281723759E+02  0.35924847912E+01 -0.14407506185E+03  0.20201807939E+03  0.12509000000E+03 0.  0.
         25    1    4    4    0    0 -0.77435151095E+01 -0.26063802198E+02 -0.15716849502E+03  0.20270354644E+03  0.12509000000E+03 0.  0.
         25    1    3    3    0    0 -0.58538208649E+02  0.22471317407E+02  0.12251765348E+01  0.13993102278E+03  0.12509000000E+03 0.  0.
<mgrwt>
<rscale>  2 0.45457175E+03</rscale>
<asrwt>0</asrwt>
<pdfrwt beam="1">  1       21 0.17987814E-01 0.45457175E+03</pdfrwt>
<pdfrwt beam="2">  1       21 0.62108164E-01 0.45457175E+03</pdfrwt>
<totfact> 0.62432555E+04</totfact>
</mgrwt>
</event>
<event>
 7    0  0.4766352E-002  0.4539159E+03  0.7546771E-02  0.1026561E+00
         21   -1    0    0  502  501  0.00000000000E+00  0.00000000000E+00  0.26272233414E+03  0.26272233414E+03  0.00000000000E+00 0. -1.
         21   -1    0    0  501  502 -0.00000000000E+00 -0.00000000000E+00 -0.19606215412E+03  0.19606215412E+03  0.00000000000E+00 0. -1.
      99926    2    1    2    0    0  0.00000000000E+00  0.00000000000E+00  0.66660180023E+02  0.45878448826E+03  0.45391588104E+03 0.  0.
      99925    2    3    3    0    0  0.11177163003E+03 -0.71830077508E+01  0.52103092860E+02  0.29024989310E+03  0.26265143304E+03 0.  0.
         25    1    4    4    0    0  0.59416569369E+02 -0.53625994316E+01 -0.14162269470E+02  0.13930959825E+03  0.12509000000E+03 0.  0.
         25    1    3    3    0    0 -0.11177163003E+03  0.71830077508E+01  0.14557087164E+02  0.16853459516E+03  0.12509000000E+03 0.  0.
         25    1    4    4    0    0  0.52355060658E+02 -0.18204083192E+01  0.66265362330E+02  0.15094029484E+03  0.12509000000E+03 0.  0.
<mgrwt>
<rscale>  2 0.45391588E+03</rscale>
<asrwt>0</asrwt>
<pdfrwt beam="1">  1       21 0.38635637E-01 0.45391588E+03</pdfrwt>
<pdfrwt beam="2">  1       21 0.28832670E-01 0.45391588E+03</pdfrwt>
<totfact> 0.68862677E+04</totfact>
</mgrwt>
</event>
<event>
 7    0  0.4766352E-002  0.4543973E+03  0.7546771E-02  0.1026419E+00
         21   -1    0    0  502  501  0.00000000000E+00  0.00000000000E+00  0.23774894172E+03  0.23774894172E+03  0.00000000000E+00 0. -1.
         21   -1    0    0  501  502 -0.00000000000E+00 -0.00000000000E+00 -0.21711650485E+03  0.21711650485E+03  0.00000000000E+00 0. -1.
      99926    2    1    2    0    0  0.00000000000E+00  0.00000000000E+00  0.20632436865E+02  0.45486544657E+03  0.45439726785E+03 0.  0.
      99925    2    3    3    0    0 -0.98677731995E+02 -0.45043646066E+02  0.43013988739E+02  0.28778861752E+03  0.26307006729E+03 0.  0.
         25    1    4    4    0    0 -0.12600733039E+02 -0.18941963816E+02  0.41386714273E+02  0.13370843161E+03  0.12509000000E+03 0.  0.
         25    1    3    3    0    0  0.98677731995E+02  0.45043646066E+02 -0.22381551874E+02  0.16707682905E+03  0.12509000000E+03 0.  0.
         25    1    4    4    0    0 -0.86076998956E+02 -0.26101682250E+02  0.16272744663E+01  0.15408018590E+03  0.12509000000E+03 0.  0.
<mgrwt>
<rscale>  2 0.45439727E+03</rscale>
<asrwt>0</asrwt>
<pdfrwt beam="1">  1       21 0.34963080E-01 0.45439727E+03</pdfrwt>
<pdfrwt beam="2">  1       21 0.31928898E-01 0.45439727E+03</pdfrwt>
<totfact> 0.68886362E+04</totfact>
</mgrwt>
</event>
<event>
 7    0  0.4766352E-002  0.4516358E+03  0.7546771E-02  0.1027235E+00
         21   -1    0    0  502  501  0.00000000000E+00  0.00000000000E+00  0.88803343551E+03  0.88803343551E+03  0.00000000000E+00 0.  1.
         21   -1    0    0  501  502 -0.00000000000E+00 -0.00000000000E+00 -0.57423214235E+02  0.57423214235E+02  0.00000000000E+00 0.  1.
      99926    2    1    2    0    0  0.00000000000E+00  0.00000000000E+00  0.83061022127E+03  0.94545664974E+03  0.45163584541E+03 0.  0.
      99925    2    3    3    0    0 -0.70074104215E+02  0.23405787885E+02  0.69477250645E+03  0.74656571517E+03  0.26304623235E+03 0.  0.
         25    1    3    3    0    0  0.70074104215E+02 -0.23405787885E+02  0.13583771482E+03  0.19889093457E+03  0.12509000000E+03 0.  0.
         25    1    4    4    0    0 -0.62481966269E+02  0.44905498957E+01  0.44508385274E+03  0.46655257498E+03  0.12509000000E+03 0.  0.
         25    1    4    4    0    0 -0.75921379464E+01  0.18915237989E+02  0.24968865371E+03  0.28001314019E+03  0.12509000000E+03 0.  0.
<mgrwt>
<rscale>  2 0.45163585E+03</rscale>
<asrwt>0</asrwt>
<pdfrwt beam="1">  1       21 0.13059314E+00 0.45163585E+03</pdfrwt>
<pdfrwt beam="2">  1       21 0.84445909E-02 0.45163585E+03</pdfrwt>
<totfact> 0.42430644E+04</totfact>
</mgrwt>
</event>
<event>
 7    0  0.4766352E-002  0.4509460E+03  0.7546771E-02  0.1027440E+00
         21   -1    0    0  502  501  0.00000000000E+00  0.00000000000E+00  0.28733952707E+03  0.28733952707E+03  0.00000000000E+00 0.  1.
         21   -1    0    0  501  502 -0.00000000000E+00 -0.00000000000E+00 -0.17692680598E+03  0.17692680598E+03  0.00000000000E+00 0.  1.
      99926    2    1    2    0    0  0.00000000000E+00  0.00000000000E+00  0.11041272109E+03  0.46426633306E+03  0.45094596021E+03 0.  0.
      99925    2    3    3    0    0  0.30437003613E+02 -0.43729339454E+01 -0.38174777543E+02  0.26761617010E+03  0.26308851575E+03 0.  0.
         25    1    4    4    0    0  0.38414967724E+02 -0.31730813078E+02 -0.33960427059E+01  0.13469074003E+03  0.12509000000E+03 0.  0.
         25    1    4    4    0    0 -0.79779641107E+01  0.27357879133E+02 -0.34778734837E+02  0.13292543007E+03  0.12509000000E+03 0.  0.
         25    1    3    3    0    0 -0.30437003613E+02  0.43729339454E+01  0.14858749864E+03  0.19665016296E+03  0.12509000000E+03 0.  0.
<mgrwt>
<rscale>  2 0.45094596E+03</rscale>
<asrwt>0</asrwt>
<pdfrwt beam="1">  1       21 0.42255813E-01 0.45094596E+03</pdfrwt>
<pdfrwt beam="2">  1       21 0.26018648E-01 0.45094596E+03</pdfrwt>
<totfact> 0.70091703E+04</totfact>
</mgrwt>
</event>
<event>
 7    0  0.4766352E-002  0.4549918E+03  0.7546771E-02  0.1026244E+00
         21   -1    0    0  502  501  0.00000000000E+00  0.00000000000E+00  0.12215166940E+03  0.12215166940E+03  0.00000000000E+00 0.  1.
         21   -1    0    0  501  502 -0.00000000000E+00 -0.00000000000E+00 -0.42368953392E+03  0.42368953392E+03  0.00000000000E+00 0.  1.
      99926    2    1    2    0    0  0.00000000000E+00 -0.17763568394E-14 -0.30153786451E+03  0.54584120332E+03  0.45499179718E+03 0.  0.
      99925    2    3    3    0    0 -0.33359644741E+02  0.63569575120E+01 -0.60148098003E+02  0.27185250961E+03  0.26293101087E+03 0.  0.
         25    1    4    4    0    0 -0.19660369594E+02  0.18368658848E+02 -0.68562503016E+02  0.14516288327E+03  0.12509000000E+03 0.  0.
         25    1    3    3    0    0  0.33359644741E+02 -0.63569575120E+01 -0.24138976651E+03  0.27398869371E+03  0.12509000000E+03 0.  0.
         25    1    4    4    0    0 -0.13699275147E+02 -0.12011701336E+02  0.84144050128E+01  0.12668962633E+03  0.12509000000E+03 0.  0.
<mgrwt>
<rscale>  2 0.45499180E+03</rscale>
<asrwt>0</asrwt>
<pdfrwt beam="1">  1       21 0.17963481E-01 0.45499180E+03</pdfrwt>
<pdfrwt beam="2">  1       21 0.62307284E-01 0.45499180E+03</pdfrwt>
<totfact> 0.62146202E+04</totfact>
</mgrwt>
</event>
<event>
 7    0  0.4766352E-002  0.4252126E+03  0.7546771E-02  0.1035383E+00
         21   -1    0    0  502  501  0.00000000000E+00  0.00000000000E+00  0.18661288866E+03  0.18661288866E+03  0.00000000000E+00 0. -1.
         21   -1    0    0  501  502 -0.00000000000E+00 -0.00000000000E+00 -0.24222038172E+03  0.24222038172E+03  0.00000000000E+00 0. -1.
      99926    2    1    2    0    0  0.00000000000E+00  0.00000000000E+00 -0.55607493063E+02  0.42883327039E+03  0.42521262976E+03 0.  0.
      99925    2    3    3    0    0  0.52441249885E+02 -0.49141899549E+02  0.40448352754E+01  0.27272138949E+03  0.26305053623E+03 0.  0.
         25    1    4    4    0    0  0.45090846283E+02  0.88149547227E+00 -0.23458160636E+02  0.13502501566E+03  0.12509000000E+03 0.  0.
         25    1    3    3    0    0 -0.52441249885E+02  0.49141899549E+02 -0.59652328338E+02  0.15611188090E+03  0.12509000000E+03 0.  0.
         25    1    4    4    0    0  0.73504036023E+01 -0.50023395021E+02  0.27502995912E+02  0.13769637383E+03  0.12509000000E+03 0.  0.
<mgrwt>
<rscale>  2 0.42521263E+03</rscale>
<asrwt>0</asrwt>
<pdfrwt beam="1">  1       21 0.27443072E-01 0.42521263E+03</pdfrwt>
<pdfrwt beam="2">  1       21 0.35620644E-01 0.42521263E+03</pdfrwt>
<totfact> 0.90086501E+04</totfact>
</mgrwt>
</event>
<event>
 7    0  0.4766352E-002  0.4553989E+03  0.7546771E-02  0.1026124E+00
         21   -1    0    0  502  501  0.00000000000E+00  0.00000000000E+00  0.12260985713E+03  0.12260985713E+03  0.00000000000E+00 0. -1.
         21   -1    0    0  501  502 -0.00000000000E+00 -0.00000000000E+00 -0.42286188694E+03  0.42286188694E+03  0.00000000000E+00 0. -1.
      99926    2    1    2    0    0  0.00000000000E+00 -0.35527136788E-14 -0.30025202980E+03  0.54547174407E+03  0.45539888250E+03 0.  0.
      99925    2    3    3    0    0  0.64927334765E+02  0.30594571636E+02 -0.83366000436E+02  0.28501321676E+03  0.26292785529E+03 0.  0.
         25    1    4    4    0    0  0.22820397386E+02  0.30255468978E+02 -0.79471480534E+02  0.15296858585E+03  0.12509000000E+03 0.  0.
         25    1    4    4    0    0  0.42106937379E+02  0.33910265767E+00 -0.38945199013E+01  0.13204463091E+03  0.12509000000E+03 0.  0.
         25    1    3    3    0    0 -0.64927334765E+02 -0.30594571636E+02 -0.21688602937E+03  0.26045852731E+03  0.12509000000E+03 0.  0.
<mgrwt>
<rscale>  2 0.45539888E+03</rscale>
<asrwt>0</asrwt>
<pdfrwt beam="1">  1       21 0.18030862E-01 0.45539888E+03</pdfrwt>
<pdfrwt beam="2">  1       21 0.62185571E-01 0.45539888E+03</pdfrwt>
<totfact> 0.61970909E+04</totfact>
</mgrwt>
</event>
<event>
 7    0  0.4766352E-002  0.4544998E+03  0.7546771E-02  0.1026389E+00
         21   -1    0    0  502  501  0.00000000000E+00  0.00000000000E+00  0.20958152769E+02  0.20958152769E+02  0.00000000000E+00 0. -1.
         21   -1    0    0  501  502 -0.00000000000E+00 -0.00000000000E+00 -0.24640775069E+04  0.24640775069E+04  0.00000000000E+00 0. -1.
      99926    2    1    2    0    0  0.00000000000E+00  0.00000000000E+00 -0.24431193541E+04  0.24850356597E+04  0.45449978141E+03 0.  0.
      99925    2    3    3    0    0 -0.10869439437E+03 -0.18767215818E+02 -0.14160913678E+04  0.14445546783E+04  0.26316682337E+03 0.  0.
         25    1    4    4    0    0 -0.35098933782E+02 -0.16567759476E+02 -0.85594417819E+03  0.86590667515E+03  0.12509000000E+03 0.  0.
         25    1    4    4    0    0 -0.73595460583E+02 -0.21994563423E+01 -0.56014718957E+03  0.57864800312E+03  0.12509000000E+03 0.  0.
         25    1    3    3    0    0  0.10869439437E+03  0.18767215818E+02 -0.10270279864E+04  0.10404809814E+04  0.12509000000E+03 0.  0.
<mgrwt>
<rscale>  2 0.45449978E+03</rscale>
<asrwt>0</asrwt>
<pdfrwt beam="1">  1       21 0.30820813E-02 0.45449978E+03</pdfrwt>
<pdfrwt beam="2">  1       21 0.36236434E+00 0.45449978E+03</pdfrwt>
<totfact> 0.73145182E+03</totfact>
</mgrwt>
</event>
<event>
 7    0  0.4766352E-002  0.4476942E+03  0.7546771E-02  0.1028412E+00
         21   -1    0    0  502  501  0.00000000000E+00  0.00000000000E+00  0.26877467823E+03  0.26877467823E+03  0.00000000000E+00 0. -1.
         21   -1    0    0  501  502 -0.00000000000E+00 -0.00000000000E+00 -0.18642949235E+03  0.18642949235E+03  0.00000000000E+00 0. -1.
      99926    2    1    2    0    0  0.00000000000E+00  0.88817841970E-15  0.82345185879E+02  0.45520417058E+03  0.44769421180E+03 0.  0.
      99925    2    3    3    0    0 -0.10503776676E+03 -0.64733713142E+01  0.37613183182E+02  0.28572468172E+03  0.26296198435E+03 0.  0.
         25    1    3    3    0    0  0.10503776676E+03  0.64733713142E+01  0.44732002697E+02  0.16947948887E+03  0.12509000000E+03 0.  0.
         25    1    4    4    0    0 -0.79429249868E+02 -0.11093043740E+02  0.51363700278E+02  0.15721895293E+03  0.12509000000E+03 0.  0.
         25    1    4    4    0    0 -0.25608516889E+02  0.46196724260E+01 -0.13750517096E+02  0.12850572879E+03  0.12509000000E+03 0.  0.
<mgrwt>
<rscale>  2 0.44769421E+03</rscale>
<asrwt>0</asrwt>
<pdfrwt beam="1">  1       21 0.39525688E-01 0.44769421E+03</pdfrwt>
<pdfrwt beam="2">  1       21 0.27416102E-01 0.44769421E+03</pdfrwt>
<totfact> 0.72673329E+04</totfact>
</mgrwt>
</event>
<event>
 7    0  0.4766352E-002  0.4514072E+03  0.7546771E-02  0.1027303E+00
         21   -1    0    0  502  501  0.00000000000E+00  0.00000000000E+00  0.27893023379E+02  0.27893023379E+02  0.00000000000E+00 0.  1.
         21   -1    0    0  501  502 -0.00000000000E+00 -0.00000000000E+00 -0.18263386188E+04  0.18263386188E+04  0.00000000000E+00 0.  1.
      99926    2    1    2    0    0 -0.14210854715E-13 -0.71054273576E-14 -0.17984455954E+04  0.18542316422E+04  0.45140715897E+03 0.  0.
      99925    2    3    3    0    0 -0.93085089974E+02 -0.58106552198E+02 -0.11639313873E+04  0.11982613732E+04  0.26277906835E+03 0.  0.
         25    1    4    4    0    0 -0.49873184120E+02 -0.41419464153E+02 -0.75776980320E+03  0.77075643964E+03  0.12509000000E+03 0.  0.
         25    1    3    3    0    0  0.93085089974E+02  0.58106552198E+02 -0.63451420806E+03  0.65597026893E+03  0.12509000000E+03 0.  0.
         25    1    4    4    0    0 -0.43211905854E+02 -0.16687088044E+02 -0.40616158415E+03  0.42750493360E+03  0.12509000000E+03 0.  0.
<mgrwt>
<rscale>  2 0.45140716E+03</rscale>
<asrwt>0</asrwt>
<pdfrwt beam="1">  1       21 0.41019155E-02 0.45140716E+03</pdfrwt>
<pdfrwt beam="2">  1       21 0.26857919E+00 0.45140716E+03</pdfrwt>
<totfact> 0.16700067E+04</totfact>
</mgrwt>
</event>
<event>
 7    0  0.4766352E-002  0.4131985E+03  0.7546771E-02  0.1039303E+00
         21   -1    0    0  502  501  0.00000000000E+00  0.00000000000E+00  0.37574162881E+03  0.37574162881E+03  0.00000000000E+00 0. -1.
         21   -1    0    0  501  502 -0.00000000000E+00 -0.00000000000E+00 -0.11359732345E+03  0.11359732345E+03  0.00000000000E+00 0. -1.
      99926    2    1    2    0    0 -0.71054273576E-14  0.35527136788E-14  0.26214430536E+03  0.48933895227E+03  0.41319846729E+03 0.  0.
      99925    2    3    3    0    0 -0.58029501521E+02  0.31476935262E+02  0.15805652216E+03  0.31372575455E+03  0.26283790513E+03 0.  0.
         25    1    4    4    0    0 -0.36491541566E+02  0.45384083507E+02  0.51034461717E+02  0.14711686519E+03  0.12509000000E+03 0.  0.
         25    1    4    4    0    0 -0.21537959955E+02 -0.13907148246E+02  0.10702206045E+03  0.16660888936E+03  0.12509000000E+03 0.  0.
         25    1    3    3    0    0  0.58029501521E+02 -0.31476935262E+02  0.10408778320E+03  0.17561319771E+03  0.12509000000E+03 0.  0.
<mgrwt>
<rscale>  2 0.41319847E+03</rscale>
<asrwt>0</asrwt>
<pdfrwt beam="1">  1       21 0.55256122E-01 0.41319847E+03</pdfrwt>
<pdfrwt beam="2">  1       21 0.16705489E-01 0.41319847E+03</pdfrwt>
<totfact> 0.93343769E+04</totfact>
</mgrwt>
</event>
<event>
 7    0  0.4766352E-002  0.4524892E+03  0.7546771E-02  0.1026982E+00
         21   -1    0    0  502  501  0.00000000000E+00  0.00000000000E+00  0.38400314308E+03  0.38400314308E+03  0.00000000000E+00 0. -1.
         21   -1    0    0  501  502 -0.00000000000E+00 -0.00000000000E+00 -0.13329740504E+03  0.13329740504E+03  0.00000000000E+00 0. -1.
      99926    2    1    2    0    0  0.00000000000E+00  0.00000000000E+00  0.25070573804E+03  0.51730054811E+03  0.45248921533E+03 0.  0.
      99925    2    3    3    0    0 -0.45985919792E+02  0.59389042504E+02  0.65288095017E+02  0.28135781431E+03  0.26316899729E+03 0.  0.
         25    1    3    3    0    0  0.45985919792E+02 -0.59389042504E+02  0.18541764302E+03  0.23594273380E+03  0.12509000000E+03 0.  0.
         25    1    4    4    0    0  0.10046719571E+02  0.28449859448E+02  0.56598451223E+02  0.14057462025E+03  0.12509000000E+03 0.  0.
         25    1    4    4    0    0 -0.56032639362E+02  0.30939183056E+02  0.86896437944E+01  0.14078319407E+03  0.12509000000E+03 0.  0.
<mgrwt>
<rscale>  2 0.45248922E+03</rscale>
<asrwt>0</asrwt>
<pdfrwt beam="1">  1       21 0.56471050E-01 0.45248922E+03</pdfrwt>
<pdfrwt beam="2">  1       21 0.19602560E-01 0.45248922E+03</pdfrwt>
<totfact> 0.65363991E+04</totfact>
</mgrwt>
</event>
<event>
 7    0  0.4766352E-002  0.4543916E+03  0.7546771E-02  0.1026420E+00
         21   -1    0    0  502  501  0.00000000000E+00  0.00000000000E+00  0.15559329839E+03  0.15559329839E+03  0.00000000000E+00 0. -1.
         21   -1    0    0  501  502 -0.00000000000E+00 -0.00000000000E+00 -0.33174902181E+03  0.33174902181E+03  0.00000000000E+00 0. -1.
      99926    2    1    2    0    0  0.00000000000E+00  0.00000000000E+00 -0.17615572342E+03  0.48734232020E+03  0.45439156921E+03 0.  0.
      99925    2    3    3    0    0 -0.10397392280E+03  0.15407953635E+02 -0.15391973848E+03  0.32244863086E+03  0.26312326388E+03 0.  0.
         25    1    4    4    0    0 -0.52927700386E+02 -0.25514267100E+02 -0.49265508962E+02  0.14672054310E+03  0.12509000000E+03 0.  0.
         25    1    3    3    0    0  0.10397392280E+03 -0.15407953635E+02 -0.22235984935E+02  0.16489368934E+03  0.12509000000E+03 0.  0.
         25    1    4    4    0    0 -0.51046222416E+02  0.40922220735E+02 -0.10465422952E+03  0.17572808776E+03  0.12509000000E+03 0.  0.
<mgrwt>
<rscale>  2 0.45439157E+03</rscale>
<asrwt>0</asrwt>
<pdfrwt beam="1">  1       21 0.22881368E-01 0.45439157E+03</pdfrwt>
<pdfrwt beam="2">  1       21 0.48786620E-01 0.45439157E+03</pdfrwt>
<totfact> 0.66489967E+04</totfact>
</mgrwt>
</event>
<event>
 7    0  0.4766352E-002  0.4456687E+03  0.7546771E-02  0.1029022E+00
         21   -1    0    0  502  501  0.00000000000E+00  0.00000000000E+00  0.75839883137E+03  0.75839883137E+03  0.00000000000E+00 0. -1.
         21   -1    0    0  501  502 -0.00000000000E+00 -0.00000000000E+00 -0.65473671923E+02  0.65473671923E+02  0.00000000000E+00 0. -1.
      99926    2    1    2    0    0  0.00000000000E+00 -0.17763568394E-14  0.69292515945E+03  0.82387250329E+03  0.44566873919E+03 0.  0.
      99925    2    3    3    0    0 -0.90645951635E+02 -0.83243018545E+01  0.53338322442E+03  0.60164037312E+03  0.26303515340E+03 0.  0.
         25    1    4    4    0    0 -0.44947974264E+02 -0.38294270196E+02  0.31601787005E+03  0.34496604733E+03  0.12509000000E+03 0.  0.
         25    1    3    3    0    0  0.90645951635E+02  0.83243018545E+01  0.15954193502E+03  0.22223213017E+03  0.12509000000E+03 0.  0.
         25    1    4    4    0    0 -0.45697977371E+02  0.29969968342E+02  0.21736535438E+03  0.25667432579E+03  0.12509000000E+03 0.  0.
<mgrwt>
<rscale>  2 0.44566874E+03</rscale>
<asrwt>0</asrwt>
<pdfrwt beam="1">  1       21 0.11152923E+00 0.44566874E+03</pdfrwt>
<pdfrwt beam="2">  1       21 0.96284816E-02 0.44566874E+03</pdfrwt>
<totfact> 0.50208083E+04</totfact>
</mgrwt>
</event>
<event>
 7    0  0.4766352E-002  0.4455696E+03  0.7546771E-02  0.1029052E+00
         21   -1    0    0  502  501  0.00000000000E+00  0.00000000000E+00  0.35405993680E+03  0.35405993680E+03  0.00000000000E+00 0. -1.
         21   -1    0    0  501  502 -0.00000000000E+00 -0.00000000000E+00 -0.14018267924E+03  0.14018267924E+03  0.00000000000E+00 0. -1.
      99926    2    1    2    0    0  0.00000000000E+00 -0.71054273576E-14  0.21387725756E+03  0.49424261604E+03  0.44556961544E+03 0.  0.
      99925    2    3    3    0    0 -0.35041824068E+02 -0.63730804302E+02  0.21825640876E+03  0.34947994849E+03  0.26307951189E+03 0.  0.
         25    1    4    4    0    0 -0.25496552238E+01 -0.67501591299E+02  0.96044003662E+02  0.17156609312E+03  0.12509000000E+03 0.  0.
         25    1    4    4    0    0 -0.32492168844E+02  0.37707869971E+01  0.12221240510E+03  0.17791385537E+03  0.12509000000E+03 0.  0.
         25    1    3    3    0    0  0.35041824068E+02  0.63730804302E+02 -0.43791512058E+01  0.14476266755E+03  0.12509000000E+03 0.  0.
<mgrwt>
<rscale>  2 0.44556962E+03</rscale>
<asrwt>0</asrwt>
<pdfrwt beam="1">  1       21 0.52067638E-01 0.44556962E+03</pdfrwt>
<pdfrwt beam="2">  1       21 0.20615100E-01 0.44556962E+03</pdfrwt>
<totfact> 0.70832866E+04</totfact>
</mgrwt>
</event>
<event>
 7    0  0.4766352E-002  0.4494070E+03  0.7546771E-02  0.1027899E+00
         21   -1    0    0  502  501  0.00000000000E+00  0.00000000000E+00  0.46763579096E+02  0.46763579096E+02  0.00000000000E+00 0. -1.
         21   -1    0    0  501  502 -0.00000000000E+00 -0.00000000000E+00 -0.10797220031E+04  0.10797220031E+04  0.00000000000E+00 0. -1.
      99926    2    1    2    0    0  0.00000000000E+00  0.35527136788E-14 -0.10329584241E+04  0.11264855822E+04  0.44940701061E+03 0.  0.
      99925    2    3    3    0    0  0.10652420706E+03  0.36553471600E+01 -0.61167076683E+03  0.67427814480E+03  0.26296220509E+03 0.  0.
         25    1    4    4    0    0  0.42742260031E+02  0.34705975571E+02 -0.34923279798E+03  0.37502328036E+03  0.12509000000E+03 0.  0.
         25    1    4    4    0    0  0.63781947030E+02 -0.31050628411E+02 -0.26243796885E+03  0.29925486443E+03  0.12509000000E+03 0.  0.
         25    1    3    3    0    0 -0.10652420706E+03 -0.36553471600E+01 -0.42128765722E+03  0.45220743745E+03  0.12509000000E+03 0.  0.
<mgrwt>
<rscale>  2 0.44940701E+03</rscale>
<asrwt>0</asrwt>
<pdfrwt beam="1">  1       21 0.68769970E-02 0.44940701E+03</pdfrwt>
<pdfrwt beam="2">  1       21 0.15878265E+00 0.44940701E+03</pdfrwt>
<totfact> 0.36126870E+04</totfact>
</mgrwt>
</event>
<event>
 7    0  0.4766352E-002  0.4590420E+03  0.7546771E-02  0.1025059E+00
         21   -1    0    0  502  501  0.00000000000E+00  0.00000000000E+00  0.45264625678E+03  0.45264625678E+03  0.00000000000E+00 0.  1.
         21   -1    0    0  501  502 -0.00000000000E+00 -0.00000000000E+00 -0.11638202683E+03  0.11638202683E+03  0.00000000000E+00 0.  1.
      99926    2    1    2    0    0  0.00000000000E+00  0.00000000000E+00  0.33626422995E+03  0.56902828361E+03  0.45904199721E+03 0.  0.
      99925    2    3    3    0    0 -0.84686939184E+02  0.70300102739E+02  0.25963211423E+03  0.38563261470E+03  0.26303934434E+03 0.  0.
         25    1    4    4    0    0 -0.11770572978E+01  0.33404761293E+02  0.10395340087E+03  0.16604541907E+03  0.12509000000E+03 0.  0.
         25    1    3    3    0    0  0.84686939184E+02 -0.70300102739E+02  0.76632115718E+02  0.18339566890E+03  0.12509000000E+03 0.  0.
         25    1    4    4    0    0 -0.83509881886E+02  0.36895341446E+02  0.15567871336E+03  0.21958719564E+03  0.12509000000E+03 0.  0.
<mgrwt>
<rscale>  2 0.45904200E+03</rscale>
<asrwt>0</asrwt>
<pdfrwt beam="1">  1       21 0.66565626E-01 0.45904200E+03</pdfrwt>
<pdfrwt beam="2">  1       21 0.17115004E-01 0.45904200E+03</pdfrwt>
<totfact> 0.58726542E+04</totfact>
</mgrwt>
</event>
<event>
 7    0  0.4766352E-002  0.4636476E+03  0.7546771E-02  0.1023729E+00
         21   -1    0    0  502  501  0.00000000000E+00  0.00000000000E+00  0.28553947487E+03  0.28553947487E+03  0.00000000000E+00 0. -1.
         21   -1    0    0  501  502 -0.00000000000E+00 -0.00000000000E+00 -0.18821309944E+03  0.18821309944E+03  0.00000000000E+00 0. -1.
      99926    2    1    2    0    0  0.00000000000E+00  0.00000000000E+00  0.97326375428E+02  0.47375257431E+03  0.46364757986E+03 0.  0.
      99925    2    3    3    0    0  0.24693479644E+02 -0.11783907803E+03  0.73518431181E+02  0.29850947871E+03  0.26307248603E+03 0.  0.
         25    1    4    4    0    0  0.47187435324E+02 -0.40153050832E+02  0.24749702712E+02  0.14177086241E+03  0.12509000000E+03 0.  0.
         25    1    4    4    0    0 -0.22493955680E+02 -0.77686027195E+02  0.48768728469E+02  0.15673861630E+03  0.12509000000E+03 0.  0.
         25    1    3    3    0    0 -0.24693479644E+02  0.11783907803E+03  0.23807944247E+02  0.17524309560E+03  0.12509000000E+03 0.  0.
<mgrwt>
<rscale>  2 0.46364758E+03</rscale>
<asrwt>0</asrwt>
<pdfrwt beam="1">  1       21 0.41991099E-01 0.46364758E+03</pdfrwt>
<pdfrwt beam="2">  1       21 0.27678397E-01 0.46364758E+03</pdfrwt>
<totfact> 0.62740492E+04</totfact>
</mgrwt>
</event>
<event>
 7    0  0.4766352E-002  0.4579947E+03  0.7546771E-02  0.1025364E+00
         21   -1    0    0  502  501  0.00000000000E+00  0.00000000000E+00  0.11691242105E+04  0.11691242105E+04  0.00000000000E+00 0.  1.
         21   -1    0    0  501  502 -0.00000000000E+00 -0.00000000000E+00 -0.44853913499E+02  0.44853913499E+02  0.00000000000E+00 0.  1.
      99926    2    1    2    0    0  0.00000000000E+00  0.00000000000E+00  0.11242702970E+04  0.12139781240E+04  0.45799474323E+03 0.  0.
      99925    2    3    3    0    0 -0.32160332857E+01  0.39694922947E+02  0.99411698469E+03  0.10291175750E+04  0.26311285432E+03 0.  0.
         25    1    4    4    0    0 -0.73548167766E+01  0.45076787254E+02  0.63395972329E+03  0.64779506708E+03  0.12509000000E+03 0.  0.
         25    1    3    3    0    0  0.32160332857E+01 -0.39694922947E+02  0.13015331231E+03  0.18486054902E+03  0.12509000000E+03 0.  0.
         25    1    4    4    0    0  0.41387834909E+01 -0.53818643067E+01  0.36015726140E+03  0.38132250790E+03  0.12509000000E+03 0.  0.
<mgrwt>
<rscale>  2 0.45799474E+03</rscale>
<asrwt>0</asrwt>
<pdfrwt beam="1">  1       21 0.17193001E+00 0.45799474E+03</pdfrwt>
<pdfrwt beam="2">  1       21 0.65961645E-02 0.45799474E+03</pdfrwt>
<totfact> 0.30986909E+04</totfact>
</mgrwt>
</event>
<event>
 7    0  0.4766352E-002  0.4582412E+03  0.7546771E-02  0.1025293E+00
         21   -1    0    0  502  501  0.00000000000E+00  0.00000000000E+00  0.33430062377E+03  0.33430062377E+03  0.00000000000E+00 0. -1.
         21   -1    0    0  501  502 -0.00000000000E+00 -0.00000000000E+00 -0.15703307552E+03  0.15703307552E+03  0.00000000000E+00 0. -1.
      99926    2    1    2    0    0  0.71054273576E-14  0.00000000000E+00  0.17726754825E+03  0.49133369929E+03  0.45824122511E+03 0.  0.
      99925    2    3    3    0    0 -0.52742800916E+02 -0.22008059117E+02  0.21979632157E+03  0.34738105994E+03  0.26286312050E+03 0.  0.
         25    1    4    4    0    0 -0.10949002940E+02 -0.18910773668E+02  0.15508676284E+03  0.20044178740E+03  0.12509000000E+03 0.  0.
         25    1    4    4    0    0 -0.41793797976E+02 -0.30972854490E+01  0.64709558724E+02  0.14693927255E+03  0.12509000000E+03 0.  0.
         25    1    3    3    0    0  0.52742800916E+02  0.22008059117E+02 -0.42528773314E+02  0.14395263934E+03  0.12509000000E+03 0.  0.
<mgrwt>
<rscale>  2 0.45824123E+03</rscale>
<asrwt>0</asrwt>
<pdfrwt beam="1">  1       21 0.49161856E-01 0.45824123E+03</pdfrwt>
<pdfrwt beam="2">  1       21 0.23093099E-01 0.45824123E+03</pdfrwt>
<totfact> 0.64215581E+04</totfact>
</mgrwt>
</event>
<event>
 7    0  0.4766352E-002  0.4488134E+03  0.7546771E-02  0.1028076E+00
         21   -1    0    0  502  501  0.00000000000E+00  0.00000000000E+00  0.14737409174E+04  0.14737409174E+04  0.00000000000E+00 0.  1.
         21   -1    0    0  501  502 -0.00000000000E+00 -0.00000000000E+00 -0.34170432976E+02  0.34170432976E+02  0.00000000000E+00 0.  1.
      99926    2    1    2    0    0  0.17763568394E-14  0.00000000000E+00  0.14395704844E+04  0.15079113504E+04  0.44881339214E+03 0.  0.
      99925    2    3    3    0    0 -0.14504646674E+02  0.96817029502E+02  0.76458416880E+03  0.81448654813E+03  0.26308831966E+03 0.  0.
         25    1    4    4    0    0 -0.47763573647E+02  0.48010862150E+02  0.40022220410E+03  0.42474901131E+03  0.12509000000E+03 0.  0.
         25    1    4    4    0    0  0.33258926973E+02  0.48806167352E+02  0.36436196469E+03  0.38973753682E+03  0.12509000000E+03 0.  0.
         25    1    3    3    0    0  0.14504646674E+02 -0.96817029502E+02  0.67498631561E+03  0.69342480222E+03  0.12509000000E+03 0.  0.
<mgrwt>
<rscale>  2 0.44881339E+03</rscale>
<asrwt>0</asrwt>
<pdfrwt beam="1">  1       21 0.21672656E+00 0.44881339E+03</pdfrwt>
<pdfrwt beam="2">  1       21 0.50250647E-02 0.44881339E+03</pdfrwt>
<totfact> 0.24754211E+04</totfact>
</mgrwt>
</event>
<event>
 7    0  0.4766352E-002  0.4400497E+03  0.7546771E-02  0.1030732E+00
         21   -1    0    0  502  501  0.00000000000E+00  0.00000000000E+00  0.56182320806E+02  0.56182320806E+02  0.00000000000E+00 0.  1.
         21   -1    0    0  501  502 -0.00000000000E+00 -0.00000000000E+00 -0.86167548029E+03  0.86167548029E+03  0.00000000000E+00 0.  1.
      99926    2    1    2    0    0 -0.88817841970E-15  0.14210854715E-13 -0.80549315949E+03  0.91785780110E+03  0.44004967113E+03 0.  0.
      99925    2    3    3    0    0 -0.41687824397E+01 -0.64971296732E+02 -0.66820422999E+03  0.72104721600E+03  0.26300864353E+03 0.  0.
         25    1    4    4    0    0  0.33774160767E+02 -0.28746944650E+02 -0.38018635597E+03  0.40268629741E+03  0.12509000000E+03 0.  0.
         25    1    3    3    0    0  0.41687824397E+01  0.64971296732E+02 -0.13728892950E+03  0.19681058510E+03  0.12509000000E+03 0.  0.
         25    1    4    4    0    0 -0.37942943206E+02 -0.36224352082E+02 -0.28801787402E+03  0.31836091858E+03  0.12509000000E+03 0.  0.
<mgrwt>
<rscale>  2 0.44004967E+03</rscale>
<asrwt>0</asrwt>
<pdfrwt beam="1">  1       21 0.82621057E-02 0.44004967E+03</pdfrwt>
<pdfrwt beam="2">  1       21 0.12671699E+00 0.44004967E+03</pdfrwt>
<totfact> 0.47823199E+04</totfact>
</mgrwt>
</event>
<event>
 7    0  0.4766352E-002  0.4415851E+03  0.7546771E-02  0.1030262E+00
         21   -1    0    0  502  501  0.00000000000E+00  0.00000000000E+00  0.17373405823E+04  0.17373405823E+04  0.00000000000E+00 0. -1.
         21   -1    0    0  501  502 -0.00000000000E+00 -0.00000000000E+00 -0.28059757386E+02  0.28059757386E+02  0.00000000000E+00 0. -1.
      99926    2    1    2    0    0  0.00000000000E+00  0.00000000000E+00  0.17092808249E+04  0.17654003397E+04  0.44158512310E+03 0.  0.
      99925    2    3    3    0    0 -0.57630002063E+02 -0.51860076109E+02  0.13415908959E+04  0.13693522660E+04  0.26315168999E+03 0.  0.
         25    1    4    4    0    0  0.11067321743E+01 -0.49126582584E+02  0.58499516605E+03  0.60023453614E+03  0.12509000000E+03 0.  0.
         25    1    3    3    0    0  0.57630002063E+02  0.51860076109E+02  0.36768992902E+03  0.39604807364E+03  0.12509000000E+03 0.  0.
         25    1    4    4    0    0 -0.58736734237E+02 -0.27334935241E+01  0.75659572984E+03  0.76911772990E+03  0.12509000000E+03 0.  0.
<mgrwt>
<rscale>  2 0.44158512E+03</rscale>
<asrwt>0</asrwt>
<pdfrwt beam="1">  1       21 0.25549119E+00 0.44158512E+03</pdfrwt>
<pdfrwt beam="2">  1       21 0.41264361E-02 0.44158512E+03</pdfrwt>
<totfact> 0.19929756E+04</totfact>
</mgrwt>
</event>
<event>
 7    0  0.4766352E-002  0.4287594E+03  0.7546771E-02  0.1034253E+00
         21   -1    0    0  502  501  0.00000000000E+00  0.00000000000E+00  0.71555725194E+03  0.71555725194E+03  0.00000000000E+00 0. -1.
         21   -1    0    0  501  502 -0.00000000000E+00 -0.00000000000E+00 -0.64227779171E+02  0.64227779171E+02  0.00000000000E+00 0. -1.
      99926    2    1    2    0    0  0.00000000000E+00  0.35527136788E-14  0.65132947277E+03  0.77978503111E+03  0.42875938782E+03 0.  0.
      99925    2    3    3    0    0  0.16906321474E+02  0.24211399900E+02  0.56821537716E+03  0.62672466204E+03  0.26276048329E+03 0.  0.
         25    1    3    3    0    0 -0.16906321474E+02 -0.24211399900E+02  0.83114095606E+02  0.15306036907E+03  0.12509000000E+03 0.  0.
         25    1    4    4    0    0  0.39063611753E+02  0.38464934510E+02  0.29173496058E+03  0.32212157996E+03  0.12509000000E+03 0.  0.
         25    1    4    4    0    0 -0.22157290279E+02 -0.14253534609E+02  0.27648041658E+03  0.30460308208E+03  0.12509000000E+03 0.  0.
<mgrwt>
<rscale>  2 0.42875939E+03</rscale>
<asrwt>0</asrwt>
<pdfrwt beam="1">  1       21 0.10522900E+00 0.42875939E+03</pdfrwt>
<pdfrwt beam="2">  1       21 0.94452620E-02 0.42875939E+03</pdfrwt>
<totfact> 0.60240755E+04</totfact>
</mgrwt>
</event>
<event>
 7    0  0.4766352E-002  0.4597118E+03  0.7546771E-02  0.1024865E+00
         21   -1    0    0  502  501  0.00000000000E+00  0.00000000000E+00  0.10731437040E+03  0.10731437040E+03  0.00000000000E+00 0. -1.
         21   -1    0    0  501  502 -0.00000000000E+00 -0.00000000000E+00 -0.49232680954E+03  0.49232680954E+03  0.00000000000E+00 0. -1.
      99926    2    1    2    0    0  0.00000000000E+00  0.00000000000E+00 -0.38501243915E+03  0.59964117994E+03  0.45971182971E+03 0.  0.
      99925    2    3    3    0    0  0.10607018663E+03 -0.13575236952E+02 -0.17660654670E+03  0.33409326400E+03  0.26266569088E+03 0.  0.
         25    1    4    4    0    0  0.28171856916E+02 -0.38964767737E+02 -0.86689172602E+02  0.15960710320E+03  0.12509000000E+03 0.  0.
         25    1    4    4    0    0  0.77898329714E+02  0.25389530784E+02 -0.89917374093E+02  0.17448616080E+03  0.12509000000E+03 0.  0.
         25    1    3    3    0    0 -0.10607018663E+03  0.13575236952E+02 -0.20840589245E+03  0.26554791594E+03  0.12509000000E+03 0.  0.
<mgrwt>
<rscale>  2 0.45971183E+03</rscale>
<asrwt>0</asrwt>
<pdfrwt beam="1">  1       21 0.15781525E-01 0.45971183E+03</pdfrwt>
<pdfrwt beam="2">  1       21 0.72401003E-01 0.45971183E+03</pdfrwt>
<totfact> 0.56564815E+04</totfact>
</mgrwt>
</event>
<event>
 7    0  0.4766352E-002  0.4563943E+03  0.7546771E-02  0.1025832E+00
         21   -1    0    0  502  501  0.00000000000E+00  0.00000000000E+00  0.20300009108E+03  0.20300009108E+03  0.00000000000E+00 0. -1.
         21   -1    0    0  501  502 -0.00000000000E+00 -0.00000000000E+00 -0.25652170785E+03  0.25652170785E+03  0.00000000000E+00 0. -1.
      99926    2    1    2    0    0  0.00000000000E+00  0.00000000000E+00 -0.53521616777E+02  0.45952179893E+03  0.45639425964E+03 0.  0.
      99925    2    3    3    0    0  0.76214725402E+02 -0.68021020068E+02 -0.85840752802E+02  0.29481728110E+03  0.26289361129E+03 0.  0.
         25    1    4    4    0    0  0.56219836220E+02 -0.60277023797E+02 -0.17925012616E+02  0.15087346937E+03  0.12509000000E+03 0.  0.
         25    1    4    4    0    0  0.19994889182E+02 -0.77439962704E+01 -0.67915740185E+02  0.14394381173E+03  0.12509000000E+03 0.  0.
         25    1    3    3    0    0 -0.76214725402E+02  0.68021020068E+02  0.32319136024E+02  0.16470451783E+03  0.12509000000E+03 0.  0.
<mgrwt>
<rscale>  2 0.45639426E+03</rscale>
<asrwt>0</asrwt>
<pdfrwt beam="1">  1       21 0.29852955E-01 0.45639426E+03</pdfrwt>
<pdfrwt beam="2">  1       21 0.37723781E-01 0.45639426E+03</pdfrwt>
<totfact> 0.67462115E+04</totfact>
</mgrwt>
</event>
<event>
 7    0  0.4766352E-002  0.4637300E+03  0.7546771E-02  0.1023705E+00
         21   -1    0    0  502  501  0.00000000000E+00  0.00000000000E+00  0.42175104553E+03  0.42175104553E+03  0.00000000000E+00 0.  1.
         21   -1    0    0  501  502 -0.00000000000E+00 -0.00000000000E+00 -0.12747185187E+03  0.12747185187E+03  0.00000000000E+00 0.  1.
      99926    2    1    2    0    0 -0.14210854715E-13  0.00000000000E+00  0.29427919366E+03  0.54922289741E+03  0.46373003700E+03 0.  0.
      99925    2    3    3    0    0  0.10083240085E+03  0.51535150243E+02  0.23495637849E+03  0.37036611316E+03  0.26295154157E+03 0.  0.
         25    1    4    4    0    0  0.71938971320E+02  0.30250882507E+02  0.79076851733E+02  0.16730507484E+03  0.12509000000E+03 0.  0.
         25    1    4    4    0    0  0.28893429529E+02  0.21284267737E+02  0.15587952675E+03  0.20306103832E+03  0.12509000000E+03 0.  0.
         25    1    3    3    0    0 -0.10083240085E+03 -0.51535150243E+02  0.59322815172E+02  0.17885678425E+03  0.12509000000E+03 0.  0.
<mgrwt>
<rscale>  2 0.46373004E+03</rscale>
<asrwt>0</asrwt>
<pdfrwt beam="1">  1       21 0.62022212E-01 0.46373004E+03</pdfrwt>
<pdfrwt beam="2">  1       21 0.18745861E-01 0.46373004E+03</pdfrwt>
<totfact> 0.57819317E+04</totfact>
</mgrwt>
</event>
<event>
 7    0  0.4766352E-002  0.4445562E+03  0.7546771E-02  0.1029358E+00
         21   -1    0    0  502  501  0.00000000000E+00  0.00000000000E+00  0.40717934207E+03  0.40717934207E+03  0.00000000000E+00 0. -1.
         21   -1    0    0  501  502 -0.00000000000E+00 -0.00000000000E+00 -0.12134101227E+03  0.12134101227E+03  0.00000000000E+00 0. -1.
      99926    2    1    2    0    0  0.00000000000E+00  0.00000000000E+00  0.28583832979E+03  0.52852035434E+03  0.44455619912E+03 0.  0.
      99925    2    3    3    0    0  0.38921308429E+02 -0.54561163249E+02  0.88386222777E+02  0.28536067131E+03  0.26291975881E+03 0.  0.
         25    1    4    4    0    0  0.34600654638E+02  0.99375517551E+01  0.35175726088E+02  0.13483619708E+03  0.12509000000E+03 0.  0.
         25    1    4    4    0    0  0.43206537911E+01 -0.64498715004E+02  0.53210496690E+02  0.15052447424E+03  0.12509000000E+03 0.  0.
         25    1    3    3    0    0 -0.38921308429E+02  0.54561163249E+02  0.19745210701E+03  0.24315968303E+03  0.12509000000E+03 0.  0.
<mgrwt>
<rscale>  2 0.44455620E+03</rscale>
<asrwt>0</asrwt>
<pdfrwt beam="1">  1       21 0.59879315E-01 0.44455620E+03</pdfrwt>
<pdfrwt beam="2">  1       21 0.17844267E-01 0.44455620E+03</pdfrwt>
<totfact> 0.68824575E+04</totfact>
</mgrwt>
</event>
<event>
 7    0  0.4766352E-002  0.4540173E+03  0.7546771E-02  0.1026531E+00
         21   -1    0    0  502  501  0.00000000000E+00  0.00000000000E+00  0.18905736985E+03  0.18905736985E+03  0.00000000000E+00 0.  1.
         21   -1    0    0  501  502 -0.00000000000E+00 -0.00000000000E+00 -0.27257819746E+03  0.27257819746E+03  0.00000000000E+00 0.  1.
      99926    2    1    2    0    0  0.00000000000E+00 -0.35527136788E-14 -0.83520827610E+02  0.46163556731E+03  0.45401725557E+03 0.  0.
      99925    2    3    3    0    0 -0.98023659240E+02  0.19901474968E+02 -0.76960767955E+00  0.28135806184E+03  0.26297729976E+03 0.  0.
         25    1    4    4    0    0 -0.29393282109E+02  0.44939459579E+02  0.68153097476E+01  0.13629921719E+03  0.12509000000E+03 0.  0.
         25    1    4    4    0    0 -0.68630377132E+02 -0.25037984612E+02 -0.75849174272E+01  0.14505884465E+03  0.12509000000E+03 0.  0.
         25    1    3    3    0    0  0.98023659240E+02 -0.19901474968E+02 -0.82751219931E+02  0.18027750547E+03  0.12509000000E+03 0.  0.
<mgrwt>
<rscale>  2 0.45401726E+03</rscale>
<asrwt>0</asrwt>
<pdfrwt beam="1">  1       21 0.27802555E-01 0.45401726E+03</pdfrwt>
<pdfrwt beam="2">  1       21 0.40085029E-01 0.45401726E+03</pdfrwt>
<totfact> 0.68594927E+04</totfact>
</mgrwt>
</event>
<event>
 7    0  0.4766352E-002  0.4540268E+03  0.7546771E-02  0.1026528E+00
         21   -1    0    0  502  501  0.00000000000E+00  0.00000000000E+00  0.61571332772E+02  0.61571332772E+02  0.00000000000E+00 0. -1.
         21   -1    0    0  501  502 -0.00000000000E+00 -0.00000000000E+00 -0.83699808187E+03  0.83699808187E+03  0.00000000000E+00 0. -1.
      99926    2    1    2    0    0  0.00000000000E+00  0.17763568394E-14 -0.77542674910E+03  0.89856941464E+03  0.45402681607E+03 0.  0.
      99925    2    3    3    0    0 -0.76762625856E+02 -0.77999099482E+01 -0.64965826007E+03  0.70513063814E+03  0.26305897179E+03 0.  0.
         25    1    4    4    0    0 -0.17268175438E+02 -0.17952490230E+02 -0.22883169209E+03  0.26197697073E+03  0.12509000000E+03 0.  0.
         25    1    4    4    0    0 -0.59494450418E+02  0.10152580282E+02 -0.42082656798E+03  0.44315366741E+03  0.12509000000E+03 0.  0.
         25    1    3    3    0    0  0.76762625856E+02  0.77999099482E+01 -0.12576848903E+03  0.19343877650E+03  0.12509000000E+03 0.  0.
<mgrwt>
<rscale>  2 0.45402682E+03</rscale>
<asrwt>0</asrwt>
<pdfrwt beam="1">  1       21 0.90546076E-02 0.45402682E+03</pdfrwt>
<pdfrwt beam="2">  1       21 0.12308796E+00 0.45402682E+03</pdfrwt>
<totfact> 0.43627070E+04</totfact>
</mgrwt>
</event>
<event>
 7    0  0.4766352E-002  0.4538662E+03  0.7546771E-02  0.1026575E+00
         21   -1    0    0  502  501  0.00000000000E+00  0.00000000000E+00  0.36368271875E+03  0.36368271875E+03  0.00000000000E+00 0. -1.
         21   -1    0    0  501  502 -0.00000000000E+00 -0.00000000000E+00 -0.14160320209E+03  0.14160320209E+03  0.00000000000E+00 0. -1.
      99926    2    1    2    0    0  0.00000000000E+00 -0.35527136788E-14  0.22207951665E+03  0.50528592084E+03  0.45386622487E+03 0.  0.
      99925    2    3    3    0    0  0.39649948591E+02  0.14820098585E+02  0.25544013735E+03  0.36907948612E+03  0.26301758413E+03 0.  0.
         25    1    4    4    0    0 -0.14820370707E+02  0.23376554504E+02  0.10354874627E+03  0.16472995369E+03  0.12509000000E+03 0.  0.
         25    1    3    3    0    0 -0.39649948591E+02 -0.14820098585E+02 -0.33360620692E+02  0.13620643472E+03  0.12509000000E+03 0.  0.
         25    1    4    4    0    0  0.54470319299E+02 -0.85564559194E+01  0.15189139108E+03  0.20434953243E+03  0.12509000000E+03 0.  0.
<mgrwt>
<rscale>  2 0.45386622E+03</rscale>
<asrwt>0</asrwt>
<pdfrwt beam="1">  1       21 0.53482753E-01 0.45386622E+03</pdfrwt>
<pdfrwt beam="2">  1       21 0.20824000E-01 0.45386622E+03</pdfrwt>
<totfact> 0.65488224E+04</totfact>
</mgrwt>
</event>
<event>
 7    0  0.4766352E-002  0.4582740E+03  0.7546771E-02  0.1025283E+00
         21   -1    0    0  502  501  0.00000000000E+00  0.00000000000E+00  0.13442997718E+03  0.13442997718E+03  0.00000000000E+00 0. -1.
         21   -1    0    0  501  502 -0.00000000000E+00 -0.00000000000E+00 -0.39056588946E+03  0.39056588946E+03  0.00000000000E+00 0. -1.
      99926    2    1    2    0    0  0.00000000000E+00  0.00000000000E+00 -0.25613591227E+03  0.52499586664E+03  0.45827399494E+03 0.  0.
      99925    2    3    3    0    0  0.10527858575E+03  0.34979625106E+02 -0.20063607770E+03  0.34882863209E+03  0.26290573235E+03 0.  0.
         25    1    4    4    0    0  0.33006979429E+02  0.26186122200E+02 -0.13848794917E+03  0.19131543025E+03  0.12509000000E+03 0.  0.
         25    1    3    3    0    0 -0.10527858575E+03 -0.34979625106E+02 -0.55499834569E+02  0.17616723455E+03  0.12509000000E+03 0.  0.
         25    1    4    4    0    0  0.72271606326E+02  0.87935029058E+01 -0.62148128530E+02  0.15751320184E+03  0.12509000000E+03 0.  0.
<mgrwt>
<rscale>  2 0.45827399E+03</rscale>
<asrwt>0</asrwt>
<pdfrwt beam="1">  1       21 0.19769114E-01 0.45827399E+03</pdfrwt>
<pdfrwt beam="2">  1       21 0.57436161E-01 0.45827399E+03</pdfrwt>
<totfact> 0.61923586E+04</totfact>
</mgrwt>
</event>
<event>
 7    0  0.4766352E-002  0.4473097E+03  0.7546771E-02  0.1028527E+00
         21   -1    0    0  502  501  0.00000000000E+00  0.00000000000E+00  0.19095581787E+03  0.19095581787E+03  0.00000000000E+00 0.  1.
         21   -1    0    0  501  502 -0.00000000000E+00 -0.00000000000E+00 -0.26195319107E+03  0.26195319107E+03  0.00000000000E+00 0.  1.
      99926    2    1    2    0    0  0.00000000000E+00 -0.35527136788E-14 -0.70997373200E+02  0.45290900893E+03  0.44730967279E+03 0.  0.
      99925    2    3    3    0    0 -0.92657418430E+02  0.31790293931E+02 -0.85458417700E+02  0.29337014255E+03  0.26299596842E+03 0.  0.
         25    1    3    3    0    0  0.92657418430E+02 -0.31790293931E+02  0.14461044500E+02  0.15953886638E+03  0.12509000000E+03 0.  0.
         25    1    4    4    0    0 -0.68950491601E+01 -0.77916690633E+00 -0.32146986517E+02  0.12934096662E+03  0.12509000000E+03 0.  0.
         25    1    4    4    0    0 -0.85762369269E+02  0.32569460837E+02 -0.53311431183E+02  0.16402917593E+03  0.12509000000E+03 0.  0.
<mgrwt>
<rscale>  2 0.44730967E+03</rscale>
<asrwt>0</asrwt>
<pdfrwt beam="1">  1       21 0.28081738E-01 0.44730967E+03</pdfrwt>
<pdfrwt beam="2">  1       21 0.38522528E-01 0.44730967E+03</pdfrwt>
<totfact> 0.73080430E+04</totfact>
</mgrwt>
</event>
<event>
 7    0  0.4766352E-002  0.4470123E+03  0.7546771E-02  0.1028617E+00
         21   -1    0    0  502  501  0.00000000000E+00  0.00000000000E+00  0.12969480818E+03  0.12969480818E+03  0.00000000000E+00 0. -1.
         21   -1    0    0  501  502 -0.00000000000E+00 -0.00000000000E+00 -0.38517340533E+03  0.38517340533E+03  0.00000000000E+00 0. -1.
      99926    2    1    2    0    0  0.00000000000E+00  0.35527136788E-14 -0.25547859714E+03  0.51486821351E+03  0.44701226346E+03 0.  0.
      99925    2    3    3    0    0 -0.10074063941E+03  0.25409235566E+02 -0.14839403977E+03  0.32016609178E+03  0.26399096500E+03 0.  0.
         25    1    3    3    0    0  0.10074063941E+03 -0.25409235566E+02 -0.10708455737E+03  0.19470212173E+03  0.12509000000E+03 0.  0.
         25    1    4    4    0    0 -0.71109404289E+02 -0.24168489527E+02 -0.74700946110E+02  0.16391584034E+03  0.12509000000E+03 0.  0.
         25    1    4    4    0    0 -0.29631235124E+02  0.49577725093E+02 -0.73693093665E+02  0.15625025144E+03  0.12509000000E+03 0.  0.
<mgrwt>
<rscale>  2 0.44701226E+03</rscale>
<asrwt>0</asrwt>
<pdfrwt beam="1">  1       21 0.19072766E-01 0.44701226E+03</pdfrwt>
<pdfrwt beam="2">  1       21 0.56643147E-01 0.44701226E+03</pdfrwt>
<totfact> 0.68475993E+04</totfact>
</mgrwt>
</event>
<event>
 7    0  0.4766352E-002  0.4601091E+03  0.7546771E-02  0.1024750E+00
         21   -1    0    0  502  501  0.00000000000E+00  0.00000000000E+00  0.10120043135E+04  0.10120043135E+04  0.00000000000E+00 0. -1.
         21   -1    0    0  501  502 -0.00000000000E+00 -0.00000000000E+00 -0.52297293188E+02  0.52297293188E+02  0.00000000000E+00 0. -1.
      99926    2    1    2    0    0  0.00000000000E+00 -0.71054273576E-14  0.95970702035E+03  0.10643016067E+04  0.46010905791E+03 0.  0.
      99925    2    3    3    0    0 -0.10502465509E+03  0.47966822972E+02  0.54649892332E+03  0.61740180382E+03  0.26304547115E+03 0.  0.
         25    1    4    4    0    0 -0.54186226506E+02  0.64067076322E+02  0.30804800003E+03  0.34290204991E+03  0.12509000000E+03 0.  0.
         25    1    3    3    0    0  0.10502465509E+03 -0.47966822972E+02  0.41320809703E+03  0.44689980291E+03  0.12509000000E+03 0.  0.
         25    1    4    4    0    0 -0.50838428586E+02 -0.16100253351E+02  0.23845092329E+03  0.27449975391E+03  0.12509000000E+03 0.  0.
<mgrwt>
<rscale>  2 0.46010906E+03</rscale>
<asrwt>0</asrwt>
<pdfrwt beam="1">  1       21 0.14882415E+00 0.46010906E+03</pdfrwt>
<pdfrwt beam="2">  1       21 0.76907790E-02 0.46010906E+03</pdfrwt>
<totfact> 0.35327245E+04</totfact>
</mgrwt>
</event>
<event>
 7    0  0.4766352E-002  0.4504339E+03  0.7546771E-02  0.1027593E+00
         21   -1    0    0  502  501  0.00000000000E+00  0.00000000000E+00  0.69974516036E+02  0.69974516036E+02  0.00000000000E+00 0. -1.
         21   -1    0    0  501  502 -0.00000000000E+00 -0.00000000000E+00 -0.72487358592E+03  0.72487358592E+03  0.00000000000E+00 0. -1.
      99926    2    1    2    0    0  0.00000000000E+00 -0.35527136788E-14 -0.65489906989E+03  0.79484810196E+03  0.45043391685E+03 0.  0.
      99925    2    3    3    0    0 -0.10254092712E+03 -0.28846136011E+02 -0.45315078797E+03  0.53466236320E+03  0.26300468567E+03 0.  0.
         25    1    3    3    0    0  0.10254092712E+03  0.28846136011E+02 -0.20174828192E+03  0.26018573876E+03  0.12509000000E+03 0.  0.
         25    1    4    4    0    0 -0.14715623340E+02  0.22971781172E+01 -0.23266636828E+03  0.26458075067E+03  0.12509000000E+03 0.  0.
         25    1    4    4    0    0 -0.87825303783E+02 -0.31143314128E+02 -0.22048441969E+03  0.27008161253E+03  0.12509000000E+03 0.  0.
<mgrwt>
<rscale>  2 0.45043392E+03</rscale>
<asrwt>0</asrwt>
<pdfrwt beam="1">  1       21 0.10290370E-01 0.45043392E+03</pdfrwt>
<pdfrwt beam="2">  1       21 0.10659906E+00 0.45043392E+03</pdfrwt>
<totfact> 0.49774890E+04</totfact>
</mgrwt>
</event>
<event>
 7    0  0.4766352E-002  0.4716345E+03  0.7546771E-02  0.1021460E+00
         21   -1    0    0  502  501  0.00000000000E+00  0.00000000000E+00  0.47726501090E+03  0.47726501090E+03  0.00000000000E+00 0. -1.
         21   -1    0    0  501  502 -0.00000000000E+00 -0.00000000000E+00 -0.11651758726E+03  0.11651758726E+03  0.00000000000E+00 0. -1.
      99926    2    1    2    0    0  0.00000000000E+00  0.00000000000E+00  0.36074742364E+03  0.59378259816E+03  0.47163446673E+03 0.  0.
      99925    2    3    3    0    0 -0.27088823444E+02 -0.11685334467E+03  0.16741487140E+03  0.33414151441E+03  0.26312412274E+03 0.  0.
         25    1    4    4    0    0 -0.26924118639E+02 -0.74921969710E+02  0.12951365791E+03  0.19687433910E+03  0.12509000000E+03 0.  0.
         25    1    3    3    0    0  0.27088823444E+02  0.11685334467E+03  0.19333255224E+03  0.25964108375E+03  0.12509000000E+03 0.  0.
         25    1    4    4    0    0 -0.16470480505E+00 -0.41931374958E+02  0.37901213492E+02  0.13726717531E+03  0.12509000000E+03 0.  0.
<mgrwt>
<rscale>  2 0.47163447E+03</rscale>
<asrwt>0</asrwt>
<pdfrwt beam="1">  1       21 0.70186030E-01 0.47163447E+03</pdfrwt>
<pdfrwt beam="2">  1       21 0.17134939E-01 0.47163447E+03</pdfrwt>
<totfact> 0.51896006E+04</totfact>
</mgrwt>
</event>
<event>
 7    0  0.4766352E-002  0.4532541E+03  0.7546771E-02  0.1026756E+00
         21   -1    0    0  502  501  0.00000000000E+00  0.00000000000E+00  0.18845011759E+04  0.18845011759E+04  0.00000000000E+00 0. -1.
         21   -1    0    0  501  502 -0.00000000000E+00 -0.00000000000E+00 -0.27253799779E+02  0.27253799779E+02  0.00000000000E+00 0. -1.
      99926    2    1    2    0    0  0.00000000000E+00  0.00000000000E+00  0.18572473761E+04  0.19117549757E+04  0.45325409091E+03 0.  0.
      99925    2    3    3    0    0 -0.10273074792E+03 -0.36053449643E+02  0.12702756763E+04  0.13018068284E+04  0.26314875459E+03 0.  0.
         25    1    4    4    0    0 -0.59518996087E+02  0.97953163192E+01  0.76377353665E+03  0.77629632390E+03  0.12509000000E+03 0.  0.
         25    1    3    3    0    0  0.10273074792E+03  0.36053449643E+02  0.58697169986E+03  0.60994814725E+03  0.12509000000E+03 0.  0.
         25    1    4    4    0    0 -0.43211751829E+02 -0.45848765962E+02  0.50650213962E+03  0.52551050453E+03  0.12509000000E+03 0.  0.
<mgrwt>
<rscale>  2 0.45325409E+03</rscale>
<asrwt>0</asrwt>
<pdfrwt beam="1">  1       21 0.27713244E+00 0.45325409E+03</pdfrwt>
<pdfrwt beam="2">  1       21 0.40079130E-02 0.45325409E+03</pdfrwt>
<totfact> 0.15412222E+04</totfact>
</mgrwt>
</event>
<event>
 7    0  0.4766352E-002  0.4489691E+03  0.7546771E-02  0.1028030E+00
         21   -1    0    0  502  501  0.00000000000E+00  0.00000000000E+00  0.27689623976E+02  0.27689623976E+02  0.00000000000E+00 0. -1.
         21   -1    0    0  501  502 -0.00000000000E+00 -0.00000000000E+00 -0.18199349788E+04  0.18199349788E+04  0.00000000000E+00 0. -1.
      99926    2    1    2    0    0  0.00000000000E+00 -0.28421709430E-13 -0.17922453548E+04  0.18476246028E+04  0.44896910906E+03 0.  0.
      99925    2    3    3    0    0 -0.22240791613E+02  0.10499342793E+03 -0.11482493795E+04  0.11828715681E+04  0.26304037044E+03 0.  0.
         25    1    3    3    0    0  0.22240791613E+02 -0.10499342793E+03 -0.64399597536E+03  0.66475303466E+03  0.12509000000E+03 0.  0.
         25    1    4    4    0    0  0.41157089424E+01  0.29769394208E+02 -0.40412306969E+03  0.42410625962E+03  0.12509000000E+03 0.  0.
         25    1    4    4    0    0 -0.26356500556E+02  0.75224033720E+02 -0.74412630976E+03  0.75876530848E+03  0.12509000000E+03 0.  0.
<mgrwt>
<rscale>  2 0.44896911E+03</rscale>
<asrwt>0</asrwt>
<pdfrwt beam="1">  1       21 0.40720047E-02 0.44896911E+03</pdfrwt>
<pdfrwt beam="2">  1       21 0.26763742E+00 0.44896911E+03</pdfrwt>
<totfact> 0.17150055E+04</totfact>
</mgrwt>
</event>
<event>
 7    0  0.4766352E-002  0.4550239E+03  0.7546771E-02  0.1026234E+00
         21   -1    0    0  502  501  0.00000000000E+00  0.00000000000E+00  0.16634843003E+04  0.16634843003E+04  0.00000000000E+00 0. -1.
         21   -1    0    0  501  502 -0.00000000000E+00 -0.00000000000E+00 -0.31116431421E+02  0.31116431421E+02  0.00000000000E+00 0. -1.
      99926    2    1    2    0    0  0.00000000000E+00  0.00000000000E+00  0.16323678689E+04  0.16946007318E+04  0.45502393410E+03 0.  0.
      99925    2    3    3    0    0  0.43092361746E+02  0.52335321781E+02  0.68695189503E+03  0.73853859501E+03  0.26256506372E+03 0.  0.
         25    1    4    4    0    0  0.36899349016E+01  0.55989215897E+02  0.40450938480E+03  0.42711094391E+03  0.12509000000E+03 0.  0.
         25    1    4    4    0    0  0.39402426844E+02 -0.36538941160E+01  0.28244251023E+03  0.31142765109E+03  0.12509000000E+03 0.  0.
         25    1    3    3    0    0 -0.43092361746E+02 -0.52335321781E+02  0.94541597389E+03  0.95606213675E+03  0.12509000000E+03 0.  0.
<mgrwt>
<rscale>  2 0.45502393E+03</rscale>
<asrwt>0</asrwt>
<pdfrwt beam="1">  1       21 0.24462998E+00 0.45502393E+03</pdfrwt>
<pdfrwt beam="2">  1       21 0.45759469E-02 0.45502393E+03</pdfrwt>
<totfact> 0.19370574E+04</totfact>
</mgrwt>
</event>
<event>
 7    0  0.4766352E-002  0.4554584E+03  0.7546771E-02  0.1026107E+00
         21   -1    0    0  502  501  0.00000000000E+00  0.00000000000E+00  0.15159480286E+03  0.15159480286E+03  0.00000000000E+00 0. -1.
         21   -1    0    0  501  502 -0.00000000000E+00 -0.00000000000E+00 -0.34209997061E+03  0.34209997061E+03  0.00000000000E+00 0. -1.
      99926    2    1    2    0    0  0.00000000000E+00  0.00000000000E+00 -0.19050516775E+03  0.49369477347E+03  0.45545835201E+03 0.  0.
      99925    2    3    3    0    0  0.91893458079E+02 -0.65101585200E+02 -0.10351619336E+03  0.30422917291E+03  0.26297749586E+03 0.  0.
         25    1    4    4    0    0  0.51737472152E+02 -0.42345934881E+02 -0.11653763502E+02  0.14231395761E+03  0.12509000000E+03 0.  0.
         25    1    4    4    0    0  0.40155985926E+02 -0.22755650319E+02 -0.91862429856E+02  0.16191521530E+03  0.12509000000E+03 0.  0.
         25    1    3    3    0    0 -0.91893458079E+02  0.65101585200E+02 -0.86988974387E+02  0.18946560057E+03  0.12509000000E+03 0.  0.
<mgrwt>
<rscale>  2 0.45545835E+03</rscale>
<asrwt>0</asrwt>
<pdfrwt beam="1">  1       21 0.22293354E-01 0.45545835E+03</pdfrwt>
<pdfrwt beam="2">  1       21 0.50308818E-01 0.45545835E+03</pdfrwt>
<totfact> 0.65477350E+04</totfact>
</mgrwt>
</event>
<event>
 7    0  0.4766352E-002  0.4530769E+03  0.7546771E-02  0.1026808E+00
         21   -1    0    0  502  501  0.00000000000E+00  0.00000000000E+00  0.45317544088E+02  0.45317544088E+02  0.00000000000E+00 0.  1.
         21   -1    0    0  501  502 -0.00000000000E+00 -0.00000000000E+00 -0.11324457721E+04  0.11324457721E+04  0.00000000000E+00 0.  1.
      99926    2    1    2    0    0  0.00000000000E+00  0.00000000000E+00 -0.10871282280E+04  0.11777633161E+04  0.45307686413E+03 0.  0.
      99925    2    3    3    0    0 -0.48563449300E+02 -0.86052672533E+02 -0.81875181181E+03  0.86561450562E+03  0.26300279837E+03 0.  0.
         25    1    3    3    0    0  0.48563449300E+02  0.86052672533E+02 -0.26837641617E+03  0.31214881053E+03  0.12509000000E+03 0.  0.
         25    1    4    4    0    0 -0.63958383791E+02 -0.56981613275E+02 -0.44255811786E+03  0.46780634337E+03  0.12509000000E+03 0.  0.
         25    1    4    4    0    0  0.15394934492E+02 -0.29071059258E+02 -0.37619369394E+03  0.39780816225E+03  0.12509000000E+03 0.  0.
<mgrwt>
<rscale>  2 0.45307686E+03</rscale>
<asrwt>0</asrwt>
<pdfrwt beam="1">  1       21 0.66643457E-02 0.45307686E+03</pdfrwt>
<pdfrwt beam="2">  1       21 0.16653612E+00 0.45307686E+03</pdfrwt>
<totfact> 0.33365978E+04</totfact>
</mgrwt>
</event>
<event>
 7    0  0.4766352E-002  0.4532578E+03  0.7546771E-02  0.1026755E+00
         21   -1    0    0  502  501  0.00000000000E+00  0.00000000000E+00  0.75548749953E+03  0.75548749953E+03  0.00000000000E+00 0.  1.
         21   -1    0    0  501  502 -0.00000000000E+00 -0.00000000000E+00 -0.67983450486E+02  0.67983450486E+02  0.00000000000E+00 0.  1.
      99926    2    1    2    0    0 -0.22204460493E-15  0.00000000000E+00  0.68750404904E+03  0.82347095001E+03  0.45325775015E+03 0.  0.
      99925    2    3    3    0    0 -0.17970109907E+01  0.10992083726E+03  0.39934121406E+03  0.49064795309E+03  0.26301366679E+03 0.  0.
         25    1    3    3    0    0  0.17970109907E+01 -0.10992083726E+03  0.28816283498E+03  0.33282299692E+03  0.12509000000E+03 0.  0.
         25    1    4    4    0    0  0.32609049171E+01  0.45287801474E+02  0.26216718409E+03  0.29400809338E+03  0.12509000000E+03 0.  0.
         25    1    4    4    0    0 -0.50579159078E+01  0.64633035786E+02  0.13717402997E+03  0.19663985971E+03  0.12509000000E+03 0.  0.
<mgrwt>
<rscale>  2 0.45325775E+03</rscale>
<asrwt>0</asrwt>
<pdfrwt beam="1">  1       21 0.11110110E+00 0.45325775E+03</pdfrwt>
<pdfrwt beam="2">  1       21 0.99975666E-02 0.45325775E+03</pdfrwt>
<totfact> 0.47293638E+04</totfact>
</mgrwt>
</event>
<event>
 7    0  0.4766352E-002  0.4566743E+03  0.7546771E-02  0.1025750E+00
         21   -1    0    0  502  501  0.00000000000E+00  0.00000000000E+00  0.23893504631E+03  0.23893504631E+03  0.00000000000E+00 0. -1.
         21   -1    0    0  501  502 -0.00000000000E+00 -0.00000000000E+00 -0.21820929355E+03  0.21820929355E+03  0.00000000000E+00 0. -1.
      99926    2    1    2    0    0  0.71054273576E-14  0.22204460493E-14  0.20725752762E+02  0.45714433987E+03  0.45667427193E+03 0.  0.
      99925    2    3    3    0    0 -0.42822140807E+02  0.21432476269E+01 -0.93437553544E+02  0.28244717944E+03  0.26307319040E+03 0.  0.
         25    1    3    3    0    0  0.42822140807E+02 -0.21432476269E+01  0.11416330631E+03  0.17469716042E+03  0.12509000000E+03 0.  0.
         25    1    4    4    0    0  0.12478549166E+02 -0.18424800897E+02 -0.58038087207E+02  0.13968219337E+03  0.12509000000E+03 0.  0.
         25    1    4    4    0    0 -0.55300689973E+02  0.20568048524E+02 -0.35399466338E+02  0.14276498607E+03  0.12509000000E+03 0.  0.
<mgrwt>
<rscale>  2 0.45667427E+03</rscale>
<asrwt>0</asrwt>
<pdfrwt beam="1">  1       21 0.35137507E-01 0.45667427E+03</pdfrwt>
<pdfrwt beam="2">  1       21 0.32089602E-01 0.45667427E+03</pdfrwt>
<totfact> 0.67483000E+04</totfact>
</mgrwt>
</event>
<event>
 7    0  0.4766352E-002  0.4558123E+03  0.7546771E-02  0.1026003E+00
         21   -1    0    0  502  501  0.00000000000E+00  0.00000000000E+00  0.14904608984E+04  0.14904608984E+04  0.00000000000E+00 0.  1.
         21   -1    0    0  501  502 -0.00000000000E+00 -0.00000000000E+00 -0.34849091288E+02  0.34849091288E+02  0.00000000000E+00 0.  1.
      99926    2    1    2    0    0 -0.14210854715E-13  0.00000000000E+00  0.14556118071E+04  0.15253099897E+04  0.45581227676E+03 0.  0.
      99925    2    3    3    0    0 -0.10751891733E+03  0.36666708072E+02  0.85637767245E+03  0.90270753121E+03  0.26190342488E+03 0.  0.
         25    1    4    4    0    0 -0.87381699147E+02  0.37814727787E+02  0.42668983247E+03  0.45472765059E+03  0.12509000000E+03 0.  0.
         25    1    3    3    0    0  0.10751891733E+03 -0.36666708072E+02  0.59923413468E+03  0.62260245850E+03  0.12509000000E+03 0.  0.
         25    1    4    4    0    0 -0.20137218180E+02 -0.11480197151E+01  0.42968783998E+03  0.44797988061E+03  0.12509000000E+03 0.  0.
<mgrwt>
<rscale>  2 0.45581228E+03</rscale>
<asrwt>0</asrwt>
<pdfrwt beam="1">  1       21 0.21918538E+00 0.45581228E+03</pdfrwt>
<pdfrwt beam="2">  1       21 0.51248674E-02 0.45581228E+03</pdfrwt>
<totfact> 0.23020011E+04</totfact>
</mgrwt>
</event>
<event>
 7    0  0.4766352E-002  0.4618521E+03  0.7546771E-02  0.1024245E+00
         21   -1    0    0  502  501  0.00000000000E+00  0.00000000000E+00  0.57213505544E+03  0.57213505544E+03  0.00000000000E+00 0. -1.
         21   -1    0    0  501  502 -0.00000000000E+00 -0.00000000000E+00 -0.93206725182E+02  0.93206725182E+02  0.00000000000E+00 0. -1.
      99926    2    1    2    0    0  0.00000000000E+00 -0.14210854715E-13  0.47892833026E+03  0.66534178062E+03  0.46185207536E+03 0.  0.
      99925    2    3    3    0    0  0.26630367875E+02  0.11641133458E+03  0.30717889907E+03  0.42160801085E+03  0.26293281171E+03 0.  0.
         25    1    4    4    0    0 -0.37471404879E+01  0.57680138727E+02  0.20528691525E+03  0.24724737640E+03  0.12509000000E+03 0.  0.
         25    1    4    4    0    0  0.30377508363E+02  0.58731195848E+02  0.10189198382E+03  0.17436063445E+03  0.12509000000E+03 0.  0.
         25    1    3    3    0    0 -0.26630367875E+02 -0.11641133458E+03  0.17174943119E+03  0.24373376977E+03  0.12509000000E+03 0.  0.
<mgrwt>
<rscale>  2 0.46185208E+03</rscale>
<asrwt>0</asrwt>
<pdfrwt beam="1">  1       21 0.84137506E-01 0.46185208E+03</pdfrwt>
<pdfrwt beam="2">  1       21 0.13706872E-01 0.46185208E+03</pdfrwt>
<totfact> 0.51960547E+04</totfact>
</mgrwt>
</event>
<event>
 7    0  0.4766352E-002  0.4501889E+03  0.7546771E-02  0.1027666E+00
         21   -1    0    0  502  501  0.00000000000E+00  0.00000000000E+00  0.14370940744E+04  0.14370940744E+04  0.00000000000E+00 0.  1.
         21   -1    0    0  501  502 -0.00000000000E+00 -0.00000000000E+00 -0.35256917570E+02  0.35256917570E+02  0.00000000000E+00 0.  1.
      99926    2    1    2    0    0  0.00000000000E+00  0.14210854715E-13  0.14018371569E+04  0.14723509920E+04  0.45018888180E+03 0.  0.
      99925    2    3    3    0    0  0.25948328302E+02  0.97001444865E+02  0.10187700500E+04  0.10570552991E+04  0.26342151512E+03 0.  0.
         25    1    4    4    0    0  0.31927644715E+02  0.84230136272E+02  0.62074920029E+03  0.63960235155E+03  0.12509000000E+03 0.  0.
         25    1    3    3    0    0 -0.25948328302E+02 -0.97001444865E+02  0.38306710689E+03  0.41529569289E+03  0.12509000000E+03 0.  0.
         25    1    4    4    0    0 -0.59793164132E+01  0.12771308593E+02  0.39802084969E+03  0.41745294757E+03  0.12509000000E+03 0.  0.
<mgrwt>
<rscale>  2 0.45018888E+03</rscale>
<asrwt>0</asrwt>
<pdfrwt beam="1">  1       21 0.21133733E+00 0.45018888E+03</pdfrwt>
<pdfrwt beam="2">  1       21 0.51848418E-02 0.45018888E+03</pdfrwt>
<totfact> 0.25401103E+04</totfact>
</mgrwt>
</event>
<event>
 7    0  0.4766352E-002  0.4507103E+03  0.7546771E-02  0.1027510E+00
         21   -1    0    0  502  501  0.00000000000E+00  0.00000000000E+00  0.71064131961E+02  0.71064131961E+02  0.00000000000E+00 0.  1.
         21   -1    0    0  501  502 -0.00000000000E+00 -0.00000000000E+00 -0.71463548632E+03  0.71463548632E+03  0.00000000000E+00 0.  1.
      99926    2    1    2    0    0  0.00000000000E+00  0.00000000000E+00 -0.64357135436E+03  0.78569961828E+03  0.45071033050E+03 0.  0.
      99925    2    3    3    0    0  0.57216534180E+02 -0.82216046776E+02 -0.33215573799E+03  0.43547054418E+03  0.26319944991E+03 0.  0.
         25    1    3    3    0    0 -0.57216534180E+02  0.82216046776E+02 -0.31141561637E+03  0.35022907411E+03  0.12509000000E+03 0.  0.
         25    1    4    4    0    0 -0.89943244108E+01 -0.42485727614E+02 -0.18465774427E+03  0.22722659515E+03  0.12509000000E+03 0.  0.
         25    1    4    4    0    0  0.66210858590E+02 -0.39730319162E+02 -0.14749799372E+03  0.20824394903E+03  0.12509000000E+03 0.  0.
<mgrwt>
<rscale>  2 0.45071033E+03</rscale>
<asrwt>0</asrwt>
<pdfrwt beam="1">  1       21 0.10450608E-01 0.45071033E+03</pdfrwt>
<pdfrwt beam="2">  1       21 0.10509345E+00 0.45071033E+03</pdfrwt>
<totfact> 0.50130971E+04</totfact>
</mgrwt>
</event>
<event>
 7    0  0.4766352E-002  0.5292903E+03  0.7546771E-02  0.1006404E+00
         21   -1    0    0  502  501  0.00000000000E+00  0.00000000000E+00  0.98691486374E+03  0.98691486374E+03  0.00000000000E+00 0. -1.
         21   -1    0    0  501  502 -0.00000000000E+00 -0.00000000000E+00 -0.70965659976E+02  0.70965659976E+02  0.00000000000E+00 0. -1.
      99926    2    1    2    0    0  0.00000000000E+00  0.88817841970E-15  0.91594920376E+03  0.10578805237E+04  0.52929033486E+03 0.  0.
      99925    2    3    3    0    0  0.16048064489E+03  0.52277955857E+01  0.67802161818E+03  0.74476966265E+03  0.26303453853E+03 0.  0.
         25    1    4    4    0    0  0.99377630452E+02  0.19523595111E+02  0.44180404300E+03  0.47020783141E+03  0.12509000000E+03 0.  0.
         25    1    4    4    0    0  0.61103014441E+02 -0.14295799525E+02  0.23621757517E+03  0.27456183125E+03  0.12509000000E+03 0.  0.
         25    1    3    3    0    0 -0.16048064489E+03 -0.52277955857E+01  0.23792758559E+03  0.31311086106E+03  0.12509000000E+03 0.  0.
<mgrwt>
<rscale>  2 0.52929033E+03</rscale>
<asrwt>0</asrwt>
<pdfrwt beam="1">  1       21 0.14513453E+00 0.52929033E+03</pdfrwt>
<pdfrwt beam="2">  1       21 0.10436127E-01 0.52929033E+03</pdfrwt>
<totfact> 0.21524776E+04</totfact>
</mgrwt>
</event>
<event>
 7    0  0.4766352E-002  0.4710840E+03  0.7546771E-02  0.1021615E+00
         21   -1    0    0  502  501  0.00000000000E+00  0.00000000000E+00  0.12917386600E+04  0.12917386600E+04  0.00000000000E+00 0.  1.
         21   -1    0    0  501  502 -0.00000000000E+00 -0.00000000000E+00 -0.42949897007E+02  0.42949897007E+02  0.00000000000E+00 0.  1.
      99926    2    1    2    0    0  0.00000000000E+00  0.00000000000E+00  0.12487887630E+04  0.13346885570E+04  0.47108403669E+03 0.  0.
      99925    2    3    3    0    0 -0.81969130061E+02 -0.93547771392E+02  0.69304556491E+03  0.75162069292E+03  0.26296651339E+03 0.  0.
         25    1    3    3    0    0  0.81969130061E+02  0.93547771392E+02  0.55574319804E+03  0.58306786405E+03  0.12509000000E+03 0.  0.
         25    1    4    4    0    0 -0.97859484170E+01 -0.41793162199E+02  0.39253155279E+03  0.41421125193E+03  0.12509000000E+03 0.  0.
         25    1    4    4    0    0 -0.72183181644E+02 -0.51754609193E+02  0.30051401213E+03  0.33740944099E+03  0.12509000000E+03 0.  0.
<mgrwt>
<rscale>  2 0.47108404E+03</rscale>
<asrwt>0</asrwt>
<pdfrwt beam="1">  1       21 0.18996154E+00 0.47108404E+03</pdfrwt>
<pdfrwt beam="2">  1       21 0.63161622E-02 0.47108404E+03</pdfrwt>
<totfact> 0.24864920E+04</totfact>
</mgrwt>
</event>
<event>
 7    0  0.4766352E-002  0.4536988E+03  0.7546771E-02  0.1026625E+00
         21   -1    0    0  502  501  0.00000000000E+00  0.00000000000E+00  0.89959573104E+03  0.89959573104E+03  0.00000000000E+00 0. -1.
         21   -1    0    0  501  502 -0.00000000000E+00 -0.00000000000E+00 -0.57204191969E+02  0.57204191969E+02  0.00000000000E+00 0. -1.
      99926    2    1    2    0    0  0.00000000000E+00  0.28865798640E-14  0.84239153907E+03  0.95679992300E+03  0.45369878506E+03 0.  0.
      99925    2    3    3    0    0 -0.64164529071E+02  0.14060671940E+01  0.72413945856E+03  0.77308784811E+03  0.26299772175E+03 0.  0.
         25    1    4    4    0    0 -0.49080359876E+02 -0.32664981792E+02  0.41815902645E+03  0.44043201775E+03  0.12509000000E+03 0.  0.
         25    1    4    4    0    0 -0.15084169195E+02  0.34071048986E+02  0.30598043211E+03  0.33265583036E+03  0.12509000000E+03 0.  0.
         25    1    3    3    0    0  0.64164529071E+02 -0.14060671940E+01  0.11825208051E+03  0.18371207489E+03  0.12509000000E+03 0.  0.
<mgrwt>
<rscale>  2 0.45369879E+03</rscale>
<asrwt>0</asrwt>
<pdfrwt beam="1">  1       21 0.13229348E+00 0.45369879E+03</pdfrwt>
<pdfrwt beam="2">  1       21 0.84123817E-02 0.45369879E+03</pdfrwt>
<totfact> 0.41285153E+04</totfact>
</mgrwt>
</event>
<event>
 7    0  0.4766352E-002  0.4630119E+03  0.7546771E-02  0.1023911E+00
         21   -1    0    0  502  501  0.00000000000E+00  0.00000000000E+00  0.22164614933E+02  0.22164614933E+02  0.00000000000E+00 0. -1.
         21   -1    0    0  501  502 -0.00000000000E+00 -0.00000000000E+00 -0.24180440212E+04  0.24180440212E+04  0.00000000000E+00 0. -1.
      99926    2    1    2    0    0  0.00000000000E+00  0.71054273576E-14 -0.23958794062E+04  0.24402086361E+04  0.46301194205E+03 0.  0.
      99925    2    3    3    0    0  0.37438344582E+02 -0.57002594058E+02 -0.97404024082E+03  0.10112492085E+04  0.26309626669E+03 0.  0.
         25    1    4    4    0    0  0.19203801449E+02 -0.10717529082E+01 -0.35274368026E+03  0.37476065256E+03  0.12509000000E+03 0.  0.
         25    1    4    4    0    0  0.18234543132E+02 -0.55930841150E+02 -0.62129656057E+03  0.63648855593E+03  0.12509000000E+03 0.  0.
         25    1    3    3    0    0 -0.37438344582E+02  0.57002594058E+02 -0.14218391654E+04  0.14289594276E+04  0.12509000000E+03 0.  0.
<mgrwt>
<rscale>  2 0.46301194E+03</rscale>
<asrwt>0</asrwt>
<pdfrwt beam="1">  1       21 0.32595019E-02 0.46301194E+03</pdfrwt>
<pdfrwt beam="2">  1       21 0.35559474E+00 0.46301194E+03</pdfrwt>
<totfact> 0.72979295E+03</totfact>
</mgrwt>
</event>
<event>
 7    0  0.4766352E-002  0.4510806E+03  0.7546771E-02  0.1027400E+00
         21   -1    0    0  502  501  0.00000000000E+00  0.00000000000E+00  0.16458824796E+03  0.16458824796E+03  0.00000000000E+00 0. -1.
         21   -1    0    0  501  502 -0.00000000000E+00 -0.00000000000E+00 -0.30906469203E+03  0.30906469203E+03  0.00000000000E+00 0. -1.
      99926    2    1    2    0    0 -0.71054273576E-14  0.00000000000E+00 -0.14447644406E+03  0.47365293999E+03  0.45108055231E+03 0.  0.
      99925    2    3    3    0    0 -0.40094103539E+02 -0.92171423230E+02 -0.13607379370E+03  0.31296311134E+03  0.26329968350E+03 0.  0.
         25    1    4    4    0    0 -0.42756759812E+02 -0.37155070994E+02 -0.31545210485E+02  0.14089445771E+03  0.12509000000E+03 0.  0.
         25    1    3    3    0    0  0.40094103539E+02  0.92171423230E+02 -0.84026503683E+01  0.16068982865E+03  0.12509000000E+03 0.  0.
         25    1    4    4    0    0  0.26626562733E+01 -0.55016352236E+02 -0.10452858321E+03  0.17206865362E+03  0.12509000000E+03 0.  0.
<mgrwt>
<rscale>  2 0.45108055E+03</rscale>
<asrwt>0</asrwt>
<pdfrwt beam="1">  1       21 0.24204155E-01 0.45108055E+03</pdfrwt>
<pdfrwt beam="2">  1       21 0.45450689E-01 0.45108055E+03</pdfrwt>
<totfact> 0.69295618E+04</totfact>
</mgrwt>
</event>
<event>
 7    0  0.4766352E-002  0.4494042E+03  0.7546771E-02  0.1027900E+00
         21   -1    0    0  502  501  0.00000000000E+00  0.00000000000E+00  0.18673522163E+04  0.18673522163E+04  0.00000000000E+00 0.  1.
         21   -1    0    0  501  502 -0.00000000000E+00 -0.00000000000E+00 -0.27038833217E+02  0.27038833217E+02  0.00000000000E+00 0.  1.
      99926    2    1    2    0    0  0.17763568394E-14  0.00000000000E+00  0.18403133831E+04  0.18943910495E+04  0.44940416168E+03 0.  0.
      99925    2    3    3    0    0  0.64651659053E+01 -0.10563523538E+03  0.10761859257E+04  0.11128932053E+04  0.26297250493E+03 0.  0.
         25    1    4    4    0    0  0.16511999524E+02 -0.31549712476E+02  0.38069822890E+03  0.40230172765E+03  0.12509000000E+03 0.  0.
         25    1    4    4    0    0 -0.10046833619E+02 -0.74085522909E+02  0.69548769679E+03  0.71059147761E+03  0.12509000000E+03 0.  0.
         25    1    3    3    0    0 -0.64651659053E+01  0.10563523538E+03  0.76412745740E+03  0.78149784425E+03  0.12509000000E+03 0.  0.
<mgrwt>
<rscale>  2 0.44940416E+03</rscale>
<asrwt>0</asrwt>
<pdfrwt beam="1">  1       21 0.27461053E+00 0.44940416E+03</pdfrwt>
<pdfrwt beam="2">  1       21 0.39763003E-02 0.44940416E+03</pdfrwt>
<totfact> 0.16203940E+04</totfact>
</mgrwt>
</event>
<event>
 7    0  0.4766352E-002  0.4482961E+03  0.7546771E-02  0.1028231E+00
         21   -1    0    0  502  501  0.00000000000E+00  0.00000000000E+00  0.31779288178E+03  0.31779288178E+03  0.00000000000E+00 0. -1.
         21   -1    0    0  501  502 -0.00000000000E+00 -0.00000000000E+00 -0.15809777630E+03  0.15809777630E+03  0.00000000000E+00 0. -1.
      99926    2    1    2    0    0  0.00000000000E+00  0.00000000000E+00  0.15969510548E+03  0.47589065808E+03  0.44829609828E+03 0.  0.
      99925    2    3    3    0    0 -0.46888462657E+02 -0.57774343106E+02  0.18248084016E+03  0.32857093619E+03  0.26291291416E+03 0.  0.
         25    1    3    3    0    0  0.46888462657E+02  0.57774343106E+02 -0.22785734682E+02  0.14731972189E+03  0.12509000000E+03 0.  0.
         25    1    4    4    0    0 -0.62073491574E+02 -0.34941622051E+02  0.11206073257E+03  0.18242574158E+03  0.12509000000E+03 0.  0.
         25    1    4    4    0    0  0.15185028917E+02 -0.22832721055E+02  0.70420107585E+02  0.14614519461E+03  0.12509000000E+03 0.  0.
<mgrwt>
<rscale>  2 0.44829610E+03</rscale>
<asrwt>0</asrwt>
<pdfrwt beam="1">  1       21 0.46734247E-01 0.44829610E+03</pdfrwt>
<pdfrwt beam="2">  1       21 0.23249673E-01 0.44829610E+03</pdfrwt>
<totfact> 0.70687616E+04</totfact>
</mgrwt>
</event>
<event>
 7    0  0.4766352E-002  0.4508552E+03  0.7546771E-02  0.1027467E+00
         21   -1    0    0  502  501  0.00000000000E+00  0.00000000000E+00  0.13667588698E+03  0.13667588698E+03  0.00000000000E+00 0.  1.
         21   -1    0    0  501  502 -0.00000000000E+00 -0.00000000000E+00 -0.37181097249E+03  0.37181097249E+03  0.00000000000E+00 0.  1.
      99926    2    1    2    0    0  0.00000000000E+00 -0.35527136788E-14 -0.23513508551E+03  0.50848685948E+03  0.45085516280E+03 0.  0.
      99925    2    3    3    0    0  0.10556445825E+03 -0.24832567509E+02 -0.16363676783E+03  0.32815375440E+03  0.26295890076E+03 0.  0.
         25    1    3    3    0    0 -0.10556445825E+03  0.24832567509E+02 -0.71498317678E+02  0.18033310508E+03  0.12509000000E+03 0.  0.
         25    1    4    4    0    0  0.45421588530E+02 -0.13751795543E+02 -0.34308429431E+02  0.13811882209E+03  0.12509000000E+03 0.  0.
         25    1    4    4    0    0  0.60142869723E+02 -0.11080771966E+02 -0.12932833840E+03  0.19003493231E+03  0.12509000000E+03 0.  0.
<mgrwt>
<rscale>  2 0.45085516E+03</rscale>
<asrwt>0</asrwt>
<pdfrwt beam="1">  1       21 0.20099395E-01 0.45085516E+03</pdfrwt>
<pdfrwt beam="2">  1       21 0.54678084E-01 0.45085516E+03</pdfrwt>
<totfact> 0.66850502E+04</totfact>
</mgrwt>
</event>
<event>
 7    0  0.4766352E-002  0.4619355E+03  0.7546771E-02  0.1024221E+00
         21   -1    0    0  502  501  0.00000000000E+00  0.00000000000E+00  0.96588840866E+02  0.96588840866E+02  0.00000000000E+00 0. -1.
         21   -1    0    0  501  502 -0.00000000000E+00 -0.00000000000E+00 -0.55230090812E+03  0.55230090812E+03  0.00000000000E+00 0. -1.
      99926    2    1    2    0    0  0.00000000000E+00  0.00000000000E+00 -0.45571206725E+03  0.64888974898E+03  0.46193551292E+03 0.  0.
      99925    2    3    3    0    0  0.72373109616E+02 -0.95003464500E+02 -0.28998367264E+03  0.40935492032E+03  0.26309198986E+03 0.  0.
         25    1    3    3    0    0 -0.72373109616E+02  0.95003464500E+02 -0.16572839461E+03  0.23953482866E+03  0.12509000000E+03 0.  0.
         25    1    4    4    0    0  0.16926254635E+02 -0.13027436311E+02 -0.10194548010E+03  0.16277776631E+03  0.12509000000E+03 0.  0.
         25    1    4    4    0    0  0.55446854982E+02 -0.81976028189E+02 -0.18803819254E+03  0.24657715401E+03  0.12509000000E+03 0.  0.
<mgrwt>
<rscale>  2 0.46193551E+03</rscale>
<asrwt>0</asrwt>
<pdfrwt beam="1">  1       21 0.14204242E-01 0.46193551E+03</pdfrwt>
<pdfrwt beam="2">  1       21 0.81220720E-01 0.46193551E+03</pdfrwt>
<totfact> 0.52815592E+04</totfact>
</mgrwt>
</event>
<event>
 7    0  0.4766352E-002  0.4575864E+03  0.7546771E-02  0.1025484E+00
         21   -1    0    0  502  501  0.00000000000E+00  0.00000000000E+00  0.27238287874E+03  0.27238287874E+03  0.00000000000E+00 0.  1.
         21   -1    0    0  501  502 -0.00000000000E+00 -0.00000000000E+00 -0.19217923938E+03  0.19217923938E+03  0.00000000000E+00 0.  1.
      99926    2    1    2    0    0 -0.14210854715E-13  0.00000000000E+00  0.80203639362E+02  0.46456211812E+03  0.45758642662E+03 0.  0.
      99925    2    3    3    0    0 -0.97772005471E+02 -0.48885953477E+02  0.12600568998E+02  0.28521082952E+03  0.26312970458E+03 0.  0.
         25    1    3    3    0    0  0.97772005471E+02  0.48885953477E+02  0.67603070364E+02  0.17935128860E+03  0.12509000000E+03 0.  0.
         25    1    4    4    0    0 -0.80949785558E+01 -0.34813365833E+02 -0.54100896315E+00  0.13009727095E+03  0.12509000000E+03 0.  0.
         25    1    4    4    0    0 -0.89677026916E+02 -0.14072587644E+02  0.13141577961E+02  0.15511355857E+03  0.12509000000E+03 0.  0.
<mgrwt>
<rscale>  2 0.45758643E+03</rscale>
<asrwt>0</asrwt>
<pdfrwt beam="1">  1       21 0.40056306E-01 0.45758643E+03</pdfrwt>
<pdfrwt beam="2">  1       21 0.28261653E-01 0.45758643E+03</pdfrwt>
<totfact> 0.66465522E+04</totfact>
</mgrwt>
</event>
<event>
 7    0  0.4766352E-002  0.4349610E+03  0.7546771E-02  0.1032304E+00
         21   -1    0    0  502  501  0.00000000000E+00  0.00000000000E+00  0.45664875676E+02  0.45664875676E+02  0.00000000000E+00 0. -1.
         21   -1    0    0  501  502 -0.00000000000E+00 -0.00000000000E+00 -0.10357582550E+04  0.10357582550E+04  0.00000000000E+00 0. -1.
      99926    2    1    2    0    0  0.00000000000E+00 -0.71054273576E-14 -0.99009337930E+03  0.10814231306E+04  0.43496101868E+03 0.  0.
      99925    2    3    3    0    0  0.88104569849E+01  0.51599276074E+02 -0.44410224068E+03  0.51884518850E+03  0.26312244300E+03 0.  0.
         25    1    4    4    0    0 -0.57201088275E+01  0.15509386468E+02 -0.29206534556E+03  0.31815551998E+03  0.12509000000E+03 0.  0.
         25    1    4    4    0    0  0.14530565812E+02  0.36089889607E+02 -0.15203689512E+03  0.20068966852E+03  0.12509000000E+03 0.  0.
         25    1    3    3    0    0 -0.88104569849E+01 -0.51599276074E+02 -0.54599113862E+03  0.56257794215E+03  0.12509000000E+03 0.  0.
<mgrwt>
<rscale>  2 0.43496102E+03</rscale>
<asrwt>0</asrwt>
<pdfrwt beam="1">  1       21 0.67154230E-02 0.43496102E+03</pdfrwt>
<pdfrwt beam="2">  1       21 0.15231739E+00 0.43496102E+03</pdfrwt>
<totfact> 0.42396013E+04</totfact>
</mgrwt>
</event>
<event>
 7    0  0.4766352E-002  0.4578283E+03  0.7546771E-02  0.1025413E+00
         21   -1    0    0  502  501  0.00000000000E+00  0.00000000000E+00  0.52517221152E+02  0.52517221152E+02  0.00000000000E+00 0. -1.
         21   -1    0    0  501  502 -0.00000000000E+00 -0.00000000000E+00 -0.99780010995E+03  0.99780010995E+03  0.00000000000E+00 0. -1.
      99926    2    1    2    0    0  0.14210854715E-13  0.71054273576E-14 -0.94528288880E+03  0.10503173311E+04  0.45782830423E+03 0.  0.
      99925    2    3    3    0    0 -0.96159313903E+02 -0.33558665411E+02 -0.46684756709E+03  0.54542064580E+03  0.26299093575E+03 0.  0.
         25    1    3    3    0    0  0.96159313903E+02  0.33558665411E+02 -0.47843532171E+03  0.50489668531E+03  0.12509000000E+03 0.  0.
         25    1    4    4    0    0 -0.78821059697E+02 -0.20272965568E+02 -0.30633620636E+03  0.34075377036E+03  0.12509000000E+03 0.  0.
         25    1    4    4    0    0 -0.17338254206E+02 -0.13285699842E+02 -0.16051136073E+03  0.20466687544E+03  0.12509000000E+03 0.  0.
<mgrwt>
<rscale>  2 0.45782830E+03</rscale>
<asrwt>0</asrwt>
<pdfrwt beam="1">  1       21 0.77231209E-02 0.45782830E+03</pdfrwt>
<pdfrwt beam="2">  1       21 0.14673531E+00 0.45782830E+03</pdfrwt>
<totfact> 0.36454320E+04</totfact>
</mgrwt>
</event>
<event>
 7    0  0.4766352E-002  0.4428341E+03  0.7546771E-02  0.1029881E+00
         21   -1    0    0  502  501  0.00000000000E+00  0.00000000000E+00  0.71293688582E+02  0.71293688582E+02  0.00000000000E+00 0.  1.
         21   -1    0    0  501  502 -0.00000000000E+00 -0.00000000000E+00 -0.68765566820E+03  0.68765566820E+03  0.00000000000E+00 0.  1.
      99926    2    1    2    0    0 -0.35527136788E-14  0.00000000000E+00 -0.61636197962E+03  0.75894935679E+03  0.44283409562E+03 0.  0.
      99925    2    3    3    0    0 -0.13715805972E+02 -0.47566033810E+02 -0.24091101633E+03  0.36012410076E+03  0.26306006777E+03 0.  0.
         25    1    3    3    0    0  0.13715805972E+02  0.47566033810E+02 -0.37545096329E+03  0.39882525602E+03  0.12509000000E+03 0.  0.
         25    1    4    4    0    0  0.29933791996E+02 -0.13036389512E+02 -0.98112768992E+02  0.16229480242E+03  0.12509000000E+03 0.  0.
         25    1    4    4    0    0 -0.43649597968E+02 -0.34529644298E+02 -0.14279824734E+03  0.19782929834E+03  0.12509000000E+03 0.  0.
<mgrwt>
<rscale>  2 0.44283410E+03</rscale>
<asrwt>0</asrwt>
<pdfrwt beam="1">  1       21 0.10484366E-01 0.44283410E+03</pdfrwt>
<pdfrwt beam="2">  1       21 0.10112584E+00 0.44283410E+03</pdfrwt>
<totfact> 0.54870541E+04</totfact>
</mgrwt>
</event>
<event>
 7    0  0.4766352E-002  0.4575664E+03  0.7546771E-02  0.1025489E+00
         21   -1    0    0  502  501  0.00000000000E+00  0.00000000000E+00  0.18530147475E+03  0.18530147475E+03  0.00000000000E+00 0.  1.
         21   -1    0    0  501  502 -0.00000000000E+00 -0.00000000000E+00 -0.28246812905E+03  0.28246812905E+03  0.00000000000E+00 0.  1.
      99926    2    1    2    0    0  0.00000000000E+00  0.00000000000E+00 -0.97166654304E+02  0.46776960380E+03  0.45756643620E+03 0.  0.
      99925    2    3    3    0    0  0.44070127226E+02  0.81807758494E+02  0.92463202474E+01  0.27907430785E+03  0.26298724189E+03 0.  0.
         25    1    4    4    0    0  0.42204109715E+01  0.16986644331E+02  0.33473073622E+02  0.13066871359E+03  0.12509000000E+03 0.  0.
         25    1    3    3    0    0 -0.44070127226E+02 -0.81807758494E+02 -0.10641297455E+03  0.18869529596E+03  0.12509000000E+03 0.  0.
         25    1    4    4    0    0  0.39849716255E+02  0.64821114163E+02 -0.24226753375E+02  0.14840559425E+03  0.12509000000E+03 0.  0.
<mgrwt>
<rscale>  2 0.45756644E+03</rscale>
<asrwt>0</asrwt>
<pdfrwt beam="1">  1       21 0.27250217E-01 0.45756644E+03</pdfrwt>
<pdfrwt beam="2">  1       21 0.41539430E-01 0.45756644E+03</pdfrwt>
<totfact> 0.66243457E+04</totfact>
</mgrwt>
</event>
<event>
 7    0  0.4766352E-002  0.4494222E+03  0.7546771E-02  0.1027894E+00
         21   -1    0    0  502  501  0.00000000000E+00  0.00000000000E+00  0.12153411223E+03  0.12153411223E+03  0.00000000000E+00 0.  1.
         21   -1    0    0  501  502 -0.00000000000E+00 -0.00000000000E+00 -0.41548069289E+03  0.41548069289E+03  0.00000000000E+00 0.  1.
      99926    2    1    2    0    0  0.00000000000E+00  0.00000000000E+00 -0.29394658066E+03  0.53701480512E+03  0.44942219419E+03 0.  0.
      99925    2    3    3    0    0 -0.10076089864E+03 -0.15086647388E+02 -0.22819693792E+03  0.36279973905E+03  0.26300084136E+03 0.  0.
         25    1    4    4    0    0 -0.18323919659E+02 -0.43146015921E+01 -0.69655499631E+02  0.14440837423E+03  0.12509000000E+03 0.  0.
         25    1    3    3    0    0  0.10076089864E+03  0.15086647388E+02 -0.65749642745E+02  0.17421506607E+03  0.12509000000E+03 0.  0.
         25    1    4    4    0    0 -0.82436978978E+02 -0.10772045796E+02 -0.15854143829E+03  0.21839136482E+03  0.12509000000E+03 0.  0.
<mgrwt>
<rscale>  2 0.44942219E+03</rscale>
<asrwt>0</asrwt>
<pdfrwt beam="1">  1       21 0.17872664E-01 0.44942219E+03</pdfrwt>
<pdfrwt beam="2">  1       21 0.61100101E-01 0.44942219E+03</pdfrwt>
<totfact> 0.65580287E+04</totfact>
</mgrwt>
</event>
<event>
 7    0  0.4766352E-002  0.4558637E+03  0.7546771E-02  0.1025988E+00
         21   -1    0    0  502  501  0.00000000000E+00  0.00000000000E+00  0.49191998435E+02  0.49191998435E+02  0.00000000000E+00 0.  1.
         21   -1    0    0  501  502 -0.00000000000E+00 -0.00000000000E+00 -0.10561256474E+04  0.10561256474E+04  0.00000000000E+00 0.  1.
      99926    2    1    2    0    0  0.00000000000E+00  0.00000000000E+00 -0.10069336490E+04  0.11053176458E+04  0.45586371294E+03 0.  0.
      99925    2    3    3    0    0  0.84059595791E+01 -0.10065346695E+03 -0.50468246074E+03  0.57796051377E+03  0.26293000729E+03 0.  0.
         25    1    4    4    0    0 -0.19936212075E+02 -0.82172284293E+02 -0.29676694614E+03  0.33296826467E+03  0.12509000000E+03 0.  0.
         25    1    3    3    0    0 -0.84059595791E+01  0.10065346695E+03 -0.50225118823E+03  0.52735713207E+03  0.12509000000E+03 0.  0.
         25    1    4    4    0    0  0.28342171654E+02 -0.18481182660E+02 -0.20791551460E+03  0.24499224910E+03  0.12509000000E+03 0.  0.
<mgrwt>
<rscale>  2 0.45586371E+03</rscale>
<asrwt>0</asrwt>
<pdfrwt beam="1">  1       21 0.72341172E-02 0.45586371E+03</pdfrwt>
<pdfrwt beam="2">  1       21 0.15531260E+00 0.45586371E+03</pdfrwt>
<totfact> 0.35072754E+04</totfact>
</mgrwt>
</event>
<event>
 7    0  0.4766352E-002  0.4545530E+03  0.7546771E-02  0.1026373E+00
         21   -1    0    0  502  501  0.00000000000E+00  0.00000000000E+00  0.49086955371E+02  0.49086955371E+02  0.00000000000E+00 0.  1.
         21   -1    0    0  501  502 -0.00000000000E+00 -0.00000000000E+00 -0.10523084669E+04  0.10523084669E+04  0.00000000000E+00 0.  1.
      99926    2    1    2    0    0  0.00000000000E+00 -0.14210854715E-13 -0.10032215116E+04  0.11013954223E+04  0.45455304972E+03 0.  0.
      99925    2    3    3    0    0  0.17812188247E+02 -0.10417534323E+03 -0.72645169462E+03  0.77980746255E+03  0.26305481910E+03 0.  0.
         25    1    4    4    0    0 -0.13601910006E+02 -0.87387106583E+02 -0.37707277059E+03  0.40700479208E+03  0.12509000000E+03 0.  0.
         25    1    3    3    0    0 -0.17812188247E+02  0.10417534323E+03 -0.27676981696E+03  0.32158795977E+03  0.12509000000E+03 0.  0.
         25    1    4    4    0    0  0.31414098253E+02 -0.16788236648E+02 -0.34937892402E+03  0.37280267047E+03  0.12509000000E+03 0.  0.
<mgrwt>
<rscale>  2 0.45455305E+03</rscale>
<asrwt>0</asrwt>
<pdfrwt beam="1">  1       21 0.72186696E-02 0.45455305E+03</pdfrwt>
<pdfrwt beam="2">  1       21 0.15475125E+00 0.45455305E+03</pdfrwt>
<totfact> 0.35569722E+04</totfact>
</mgrwt>
</event>
<event>
 7    0  0.4766352E-002  0.4555388E+03  0.7546771E-02  0.1026083E+00
         21   -1    0    0  502  501  0.00000000000E+00  0.00000000000E+00  0.90785039265E+02  0.90785039265E+02  0.00000000000E+00 0.  1.
         21   -1    0    0  501  502 -0.00000000000E+00 -0.00000000000E+00 -0.57144761549E+03  0.57144761549E+03  0.00000000000E+00 0.  1.
      99926    2    1    2    0    0  0.00000000000E+00  0.00000000000E+00 -0.48066257622E+03  0.66223265475E+03  0.45553877644E+03 0.  0.
      99925    2    3    3    0    0  0.44242880486E+02  0.81036171176E+02 -0.20578427152E+03  0.34643226842E+03  0.26295219468E+03 0.  0.
         25    1    4    4    0    0  0.53882804227E+02  0.59670442141E+02 -0.86640761275E+02  0.17209894791E+03  0.12509000000E+03 0.  0.
         25    1    4    4    0    0 -0.96399237414E+01  0.21365729035E+02 -0.11914351025E+03  0.17433332051E+03  0.12509000000E+03 0.  0.
         25    1    3    3    0    0 -0.44242880486E+02 -0.81036171176E+02 -0.27487830470E+03  0.31580038633E+03  0.12509000000E+03 0.  0.
<mgrwt>
<rscale>  2 0.45553878E+03</rscale>
<asrwt>0</asrwt>
<pdfrwt beam="1">  1       21 0.13350741E-01 0.45553878E+03</pdfrwt>
<pdfrwt beam="2">  1       21 0.84036413E-01 0.45553878E+03</pdfrwt>
<totfact> 0.54768507E+04</totfact>
</mgrwt>
</event>
<event>
 7    0  0.4766352E-002  0.4468077E+03  0.7546771E-02  0.1028678E+00
         21   -1    0    0  502  501  0.00000000000E+00  0.00000000000E+00  0.30162718278E+02  0.30162718278E+02  0.00000000000E+00 0. -1.
         21   -1    0    0  501  502 -0.00000000000E+00 -0.00000000000E+00 -0.16546677723E+04  0.16546677723E+04  0.00000000000E+00 0. -1.
      99926    2    1    2    0    0  0.14210854715E-13  0.00000000000E+00 -0.16245050540E+04  0.16848304906E+04  0.44680768955E+03 0.  0.
      99925    2    3    3    0    0  0.10159228788E+03 -0.19003900687E+02 -0.11056971942E+04  0.11412394267E+04  0.26301901572E+03 0.  0.
         25    1    4    4    0    0  0.43280831152E+02 -0.21746495896E+02 -0.39202118378E+03  0.41433592296E+03  0.12509000000E+03 0.  0.
         25    1    4    4    0    0  0.58311456727E+02  0.27425952094E+01 -0.71367601038E+03  0.72690350371E+03  0.12509000000E+03 0.  0.
         25    1    3    3    0    0 -0.10159228788E+03  0.19003900687E+02 -0.51880785987E+03  0.54359106390E+03  0.12509000000E+03 0.  0.
<mgrwt>
<rscale>  2 0.44680769E+03</rscale>
<asrwt>0</asrwt>
<pdfrwt beam="1">  1       21 0.44356946E-02 0.44680769E+03</pdfrwt>
<pdfrwt beam="2">  1       21 0.24333345E+00 0.44680769E+03</pdfrwt>
<totfact> 0.20875671E+04</totfact>
</mgrwt>
</event>
<event>
 7    0  0.4766352E-002  0.4519026E+03  0.7546771E-02  0.1027156E+00
         21   -1    0    0  502  501  0.00000000000E+00  0.00000000000E+00  0.43805860366E+02  0.43805860366E+02  0.00000000000E+00 0.  1.
         21   -1    0    0  501  502 -0.00000000000E+00 -0.00000000000E+00 -0.11654601114E+04  0.11654601114E+04  0.00000000000E+00 0.  1.
      99926    2    1    2    0    0  0.14210854715E-13  0.00000000000E+00 -0.11216542511E+04  0.12092659718E+04  0.45190256872E+03 0.  0.
      99925    2    3    3    0    0 -0.84737643048E+02 -0.70977292777E+01 -0.51996372343E+03  0.58885494267E+03  0.26297723080E+03 0.  0.
         25    1    4    4    0    0 -0.55350507114E+02 -0.41843744584E+02 -0.25738813060E+03  0.29446686651E+03  0.12509000000E+03 0.  0.
         25    1    3    3    0    0  0.84737643048E+02  0.70977292777E+01 -0.60169052765E+03  0.62041102914E+03  0.12509000000E+03 0.  0.
         25    1    4    4    0    0 -0.29387135934E+02  0.34746015306E+02 -0.26257559283E+03  0.29438807616E+03  0.12509000000E+03 0.  0.
<mgrwt>
<rscale>  2 0.45190257E+03</rscale>
<asrwt>0</asrwt>
<pdfrwt beam="1">  1       21 0.64420391E-02 0.45190257E+03</pdfrwt>
<pdfrwt beam="2">  1       21 0.17139117E+00 0.45190257E+03</pdfrwt>
<totfact> 0.32644156E+04</totfact>
</mgrwt>
</event>
<event>
 7    0  0.4766352E-002  0.4522968E+03  0.7546771E-02  0.1027039E+00
         21   -1    0    0  502  501  0.00000000000E+00  0.00000000000E+00  0.64240779145E+03  0.64240779145E+03  0.00000000000E+00 0.  1.
         21   -1    0    0  501  502 -0.00000000000E+00 -0.00000000000E+00 -0.79611596508E+02  0.79611596508E+02  0.00000000000E+00 0.  1.
      99926    2    1    2    0    0  0.14210854715E-13  0.00000000000E+00  0.56279619495E+03  0.72201938796E+03  0.45229684893E+03 0.  0.
      99925    2    3    3    0    0  0.73297397227E+02 -0.54874912506E+02  0.45397003854E+03  0.53261398973E+03  0.26306862545E+03 0.  0.
         25    1    4    4    0    0  0.75167089119E+02 -0.20485727083E+02  0.21432406583E+03  0.26010011456E+03  0.12509000000E+03 0.  0.
         25    1    3    3    0    0 -0.73297397227E+02  0.54874912506E+02  0.10882615641E+03  0.18940539824E+03  0.12509000000E+03 0.  0.
         25    1    4    4    0    0 -0.18696918918E+01 -0.34389185423E+02  0.23964597271E+03  0.27251387516E+03  0.12509000000E+03 0.  0.
<mgrwt>
<rscale>  2 0.45229685E+03</rscale>
<asrwt>0</asrwt>
<pdfrwt beam="1">  1       21 0.94471731E-01 0.45229685E+03</pdfrwt>
<pdfrwt beam="2">  1       21 0.11707588E-01 0.45229685E+03</pdfrwt>
<totfact> 0.52838186E+04</totfact>
</mgrwt>
</event>
<event>
 7    0  0.4766352E-002  0.4552454E+03  0.7546771E-02  0.1026169E+00
         21   -1    0    0  502  501  0.00000000000E+00  0.00000000000E+00  0.31281784921E+03  0.31281784921E+03  0.00000000000E+00 0. -1.
         21   -1    0    0  501  502 -0.00000000000E+00 -0.00000000000E+00 -0.16563021401E+03  0.16563021401E+03  0.00000000000E+00 0. -1.
      99926    2    1    2    0    0 -0.35527136788E-14  0.00000000000E+00  0.14718763520E+03  0.47844806322E+03  0.45524537257E+03 0.  0.
      99925    2    3    3    0    0  0.30913711845E+02 -0.87143821697E+02  0.23665120196E+02  0.27981517810E+03  0.26303382433E+03 0.  0.
         25    1    4    4    0    0 -0.18057355600E+02 -0.46279853595E+02 -0.11447603375E+02  0.13507941613E+03  0.12509000000E+03 0.  0.
         25    1    3    3    0    0 -0.30913711845E+02  0.87143821697E+02  0.12352251500E+03  0.19863288512E+03  0.12509000000E+03 0.  0.
         25    1    4    4    0    0  0.48971067445E+02 -0.40863968102E+02  0.35112723571E+02  0.14473576197E+03  0.12509000000E+03 0.  0.
<mgrwt>
<rscale>  2 0.45524537E+03</rscale>
<asrwt>0</asrwt>
<pdfrwt beam="1">  1       21 0.46002625E-01 0.45524537E+03</pdfrwt>
<pdfrwt beam="2">  1       21 0.24357384E-01 0.45524537E+03</pdfrwt>
<totfact> 0.66683277E+04</totfact>
</mgrwt>
</event>
<event>
 7    0  0.4766352E-002  0.4543043E+03  0.7546771E-02  0.1026446E+00
         21   -1    0    0  502  501  0.00000000000E+00  0.00000000000E+00  0.42836081183E+03  0.42836081183E+03  0.00000000000E+00 0. -1.
         21   -1    0    0  501  502 -0.00000000000E+00 -0.00000000000E+00 -0.12045475374E+03  0.12045475374E+03  0.00000000000E+00 0. -1.
      99926    2    1    2    0    0  0.00000000000E+00  0.71054273576E-14  0.30790605808E+03  0.54881556557E+03  0.45430428614E+03 0.  0.
      99925    2    3    3    0    0  0.10509319225E+03  0.40220065237E+02  0.19436254917E+03  0.34583312983E+03  0.26298577996E+03 0.  0.
         25    1    4    4    0    0  0.70136399148E+02  0.52267960989E+02  0.79867848454E+02  0.17227140084E+03  0.12509000000E+03 0.  0.
         25    1    4    4    0    0  0.34956793098E+02 -0.12047895752E+02  0.11449470072E+03  0.17356172899E+03  0.12509000000E+03 0.  0.
         25    1    3    3    0    0 -0.10509319225E+03 -0.40220065237E+02  0.11354350891E+03  0.20298243574E+03  0.12509000000E+03 0.  0.
<mgrwt>
<rscale>  2 0.45430429E+03</rscale>
<asrwt>0</asrwt>
<pdfrwt beam="1">  1       21 0.62994237E-01 0.45430429E+03</pdfrwt>
<pdfrwt beam="2">  1       21 0.17713934E-01 0.45430429E+03</pdfrwt>
<totfact> 0.62287005E+04</totfact>
</mgrwt>
</event>
<event>
 7    0  0.4766352E-002  0.4295896E+03  0.7546771E-02  0.1033990E+00
         21   -1    0    0  502  501  0.00000000000E+00  0.00000000000E+00  0.91846098906E+02  0.91846098906E+02  0.00000000000E+00 0.  1.
         21   -1    0    0  501  502 -0.00000000000E+00 -0.00000000000E+00 -0.50232732490E+03  0.50232732490E+03  0.00000000000E+00 0.  1.
      99926    2    1    2    0    0  0.00000000000E+00  0.00000000000E+00 -0.41048122599E+03  0.59417342380E+03  0.42958959562E+03 0.  0.
      99925    2    3    3    0    0  0.11912455836E+02  0.77071516210E+02 -0.21057723941E+03  0.34579661900E+03  0.26296502189E+03 0.  0.
         25    1    4    4    0    0 -0.65489670484E+01  0.46155652953E+00 -0.11262953087E+03  0.16845183682E+03  0.12509000000E+03 0.  0.
         25    1    4    4    0    0  0.18461422884E+02  0.76609959681E+02 -0.97947708535E+02  0.17734478217E+03  0.12509000000E+03 0.  0.
         25    1    3    3    0    0 -0.11912455836E+02 -0.77071516210E+02 -0.19990398658E+03  0.24837680481E+03  0.12509000000E+03 0.  0.
<mgrwt>
<rscale>  2 0.42958960E+03</rscale>
<asrwt>0</asrwt>
<pdfrwt beam="1">  1       21 0.13506779E-01 0.42958960E+03</pdfrwt>
<pdfrwt beam="2">  1       21 0.73871666E-01 0.42958960E+03</pdfrwt>
<totfact> 0.72543174E+04</totfact>
</mgrwt>
</event>
<event>
 7    0  0.4766352E-002  0.4627233E+03  0.7546771E-02  0.1023994E+00
         21   -1    0    0  502  501  0.00000000000E+00  0.00000000000E+00  0.11159284675E+03  0.11159284675E+03  0.00000000000E+00 0. -1.
         21   -1    0    0  501  502 -0.00000000000E+00 -0.00000000000E+00 -0.47967429349E+03  0.47967429349E+03  0.00000000000E+00 0. -1.
      99926    2    1    2    0    0  0.00000000000E+00  0.88817841970E-15 -0.36808144674E+03  0.59126714025E+03  0.46272332954E+03 0.  0.
      99925    2    3    3    0    0  0.11883088467E+03 -0.39997628270E+01 -0.20406709391E+03  0.35318103547E+03  0.26259605432E+03 0.  0.
         25    1    3    3    0    0 -0.11883088467E+03  0.39997628270E+01 -0.16401435283E+03  0.23808610478E+03  0.12509000000E+03 0.  0.
         25    1    4    4    0    0  0.23374145703E+02 -0.53977497120E+01 -0.64138683988E+02  0.14260703094E+03  0.12509000000E+03 0.  0.
         25    1    4    4    0    0  0.95456738962E+02  0.13979868850E+01 -0.13992840992E+03  0.21057400453E+03  0.12509000000E+03 0.  0.
<mgrwt>
<rscale>  2 0.46272333E+03</rscale>
<asrwt>0</asrwt>
<pdfrwt beam="1">  1       21 0.16410713E-01 0.46272333E+03</pdfrwt>
<pdfrwt beam="2">  1       21 0.70540338E-01 0.46272333E+03</pdfrwt>
<totfact> 0.55738003E+04</totfact>
</mgrwt>
</event>
<event>
 7    0  0.4766352E-002  0.4563989E+03  0.7546771E-02  0.1025831E+00
         21   -1    0    0  502  501  0.00000000000E+00  0.00000000000E+00  0.24871835122E+03  0.24871835122E+03  0.00000000000E+00 0. -1.
         21   -1    0    0  501  502 -0.00000000000E+00 -0.00000000000E+00 -0.20937333439E+03  0.20937333439E+03  0.00000000000E+00 0. -1.
      99926    2    1    2    0    0 -0.44408920985E-15  0.14210854715E-13  0.39345016825E+02  0.45809168561E+03  0.45639890675E+03 0.  0.
      99925    2    3    3    0    0 -0.30599272140E+01  0.88799940510E+02  0.97032006490E+02  0.29417070018E+03  0.26310909899E+03 0.  0.
         25    1    3    3    0    0  0.30599272140E+01 -0.88799940510E+02 -0.57686989665E+02  0.16392098543E+03  0.12509000000E+03 0.  0.
         25    1    4    4    0    0  0.40963952780E+01  0.69077350804E+02  0.16443780133E+02  0.14389707034E+03  0.12509000000E+03 0.  0.
         25    1    4    4    0    0 -0.71563224920E+01  0.19722589706E+02  0.80588226357E+02  0.15027362983E+03  0.12509000000E+03 0.  0.
<mgrwt>
<rscale>  2 0.45639891E+03</rscale>
<asrwt>0</asrwt>
<pdfrwt beam="1">  1       21 0.36576228E-01 0.45639891E+03</pdfrwt>
<pdfrwt beam="2">  1       21 0.30790196E-01 0.45639891E+03</pdfrwt>
<totfact> 0.67562665E+04</totfact>
</mgrwt>
</event>
<event>
 7    0  0.4766352E-002  0.4519898E+03  0.7546771E-02  0.1027130E+00
         21   -1    0    0  502  501  0.00000000000E+00  0.00000000000E+00  0.84538338004E+02  0.84538338004E+02  0.00000000000E+00 0. -1.
         21   -1    0    0  501  502 -0.00000000000E+00 -0.00000000000E+00 -0.60414843972E+03  0.60414843972E+03  0.00000000000E+00 0. -1.
      99926    2    1    2    0    0  0.00000000000E+00  0.00000000000E+00 -0.51961010171E+03  0.68868677772E+03  0.45198984502E+03 0.  0.
      99925    2    3    3    0    0 -0.43739200712E+01  0.54464405267E+02 -0.47401552332E+03  0.54477056495E+03  0.26286640995E+03 0.  0.
         25    1    4    4    0    0  0.47338470400E+01  0.18208800684E+02 -0.15494923593E+03  0.20002685706E+03  0.12509000000E+03 0.  0.
         25    1    4    4    0    0 -0.91077671112E+01  0.36255604583E+02 -0.31906628739E+03  0.34474370790E+03  0.12509000000E+03 0.  0.
         25    1    3    3    0    0  0.43739200712E+01 -0.54464405267E+02 -0.45594578397E+02  0.14391621277E+03  0.12509000000E+03 0.  0.
<mgrwt>
<rscale>  2 0.45198985E+03</rscale>
<asrwt>0</asrwt>
<pdfrwt beam="1">  1       21 0.12432109E-01 0.45198985E+03</pdfrwt>
<pdfrwt beam="2">  1       21 0.88845357E-01 0.45198985E+03</pdfrwt>
<totfact> 0.54808915E+04</totfact>
</mgrwt>
</event>
<event>
 7    0  0.4766352E-002  0.4490081E+03  0.7546771E-02  0.1028018E+00
         21   -1    0    0  502  501  0.00000000000E+00  0.00000000000E+00  0.14123939422E+02  0.14123939422E+02  0.00000000000E+00 0. -1.
         21   -1    0    0  501  502 -0.00000000000E+00 -0.00000000000E+00 -0.35685564367E+04  0.35685564367E+04  0.00000000000E+00 0. -1.
      99926    2    1    2    0    0  0.00000000000E+00  0.00000000000E+00 -0.35544324973E+04  0.35826803761E+04  0.44900812882E+03 0.  0.
      99925    2    3    3    0    0 -0.63116939462E+02  0.72761143008E+02 -0.26296385688E+04  0.26445070178E+04  0.26294568412E+03 0.  0.
         25    1    4    4    0    0 -0.44808072989E+02  0.76938622963E+02 -0.14410476770E+04  0.14492043439E+04  0.12509000000E+03 0.  0.
         25    1    4    4    0    0 -0.18308866473E+02 -0.41774799550E+01 -0.11885908918E+04  0.11953026739E+04  0.12509000000E+03 0.  0.
         25    1    3    3    0    0  0.63116939462E+02 -0.72761143008E+02 -0.92479392848E+03  0.93817335831E+03  0.12509000000E+03 0.  0.
<mgrwt>
<rscale>  2 0.44900813E+03</rscale>
<asrwt>0</asrwt>
<pdfrwt beam="1">  1       21 0.20770477E-02 0.44900813E+03</pdfrwt>
<pdfrwt beam="2">  1       21 0.52478826E+00 0.44900813E+03</pdfrwt>
<totfact> 0.11442479E+03</totfact>
</mgrwt>
</event>
<event>
 7    0  0.4766352E-002  0.4574544E+03  0.7546771E-02  0.1025522E+00
         21   -1    0    0  502  501  0.00000000000E+00  0.00000000000E+00  0.41310347620E+03  0.41310347620E+03  0.00000000000E+00 0. -1.
         21   -1    0    0  501  502 -0.00000000000E+00 -0.00000000000E+00 -0.12664172653E+03  0.12664172653E+03  0.00000000000E+00 0. -1.
      99926    2    1    2    0    0  0.00000000000E+00  0.00000000000E+00  0.28646174967E+03  0.53974520272E+03  0.45745442379E+03 0.  0.
      99925    2    3    3    0    0 -0.10194805138E+03 -0.47580035782E+02  0.21086067189E+03  0.35529928641E+03  0.26290320460E+03 0.  0.
         25    1    4    4    0    0 -0.44159744385E+02  0.14355204412E+02  0.11685847248E+03  0.17736844592E+03  0.12509000000E+03 0.  0.
         25    1    4    4    0    0 -0.57788306990E+02 -0.61935240194E+02  0.94002199412E+02  0.17793084049E+03  0.12509000000E+03 0.  0.
         25    1    3    3    0    0  0.10194805138E+03  0.47580035782E+02  0.75601077775E+02  0.18444591631E+03  0.12509000000E+03 0.  0.
<mgrwt>
<rscale>  2 0.45745442E+03</rscale>
<asrwt>0</asrwt>
<pdfrwt beam="1">  1       21 0.60750511E-01 0.45745442E+03</pdfrwt>
<pdfrwt beam="2">  1       21 0.18623783E-01 0.45745442E+03</pdfrwt>
<totfact> 0.61348909E+04</totfact>
</mgrwt>
</event>
<event>
 7    0  0.4766352E-002  0.4516524E+03  0.7546771E-02  0.1027230E+00
         21   -1    0    0  502  501  0.00000000000E+00  0.00000000000E+00  0.12705764060E+04  0.12705764060E+04  0.00000000000E+00 0. -1.
         21   -1    0    0  501  502 -0.00000000000E+00 -0.00000000000E+00 -0.40137274278E+02  0.40137274278E+02  0.00000000000E+00 0. -1.
      99926    2    1    2    0    0  0.00000000000E+00  0.00000000000E+00  0.12304391317E+04  0.13107136803E+04  0.45165240484E+03 0.  0.
      99925    2    3    3    0    0 -0.53963085883E+02  0.86240858611E+02  0.89801682865E+03  0.94125245632E+03  0.26300658101E+03 0.  0.
         25    1    3    3    0    0  0.53963085883E+02 -0.86240858611E+02  0.33242230308E+03  0.36946122397E+03  0.12509000000E+03 0.  0.
         25    1    4    4    0    0 -0.38181817431E+02  0.76172420610E+02  0.56825701747E+03  0.58806771281E+03  0.12509000000E+03 0.  0.
         25    1    4    4    0    0 -0.15781268452E+02  0.10068438001E+02  0.32975981118E+03  0.35318474351E+03  0.12509000000E+03 0.  0.
<mgrwt>
<rscale>  2 0.45165240E+03</rscale>
<asrwt>0</asrwt>
<pdfrwt beam="1">  1       21 0.18684945E+00 0.45165240E+03</pdfrwt>
<pdfrwt beam="2">  1       21 0.59025412E-02 0.45165240E+03</pdfrwt>
<totfact> 0.29567377E+04</totfact>
</mgrwt>
</event>
<event>
 7    0  0.4766352E-002  0.4502304E+03  0.7546771E-02  0.1027653E+00
         21   -1    0    0  502  501  0.00000000000E+00  0.00000000000E+00  0.11829854911E+03  0.11829854911E+03  0.00000000000E+00 0.  1.
         21   -1    0    0  501  502 -0.00000000000E+00 -0.00000000000E+00 -0.42838093185E+03  0.42838093185E+03  0.00000000000E+00 0.  1.
      99926    2    1    2    0    0  0.00000000000E+00  0.00000000000E+00 -0.31008238274E+03  0.54667948096E+03  0.45023035306E+03 0.  0.
      99925    2    3    3    0    0  0.73496521957E+02  0.52648104268E+02 -0.26916236877E+03  0.38700632334E+03  0.26296758720E+03 0.  0.
         25    1    4    4    0    0  0.79232430709E+01  0.44579184551E+02 -0.16147488721E+03  0.20921694189E+03  0.12509000000E+03 0.  0.
         25    1    3    3    0    0 -0.73496521957E+02 -0.52648104268E+02 -0.40920013970E+02  0.15967315763E+03  0.12509000000E+03 0.  0.
         25    1    4    4    0    0  0.65573278886E+02  0.80689197170E+01 -0.10768748156E+03  0.17778938144E+03  0.12509000000E+03 0.  0.
<mgrwt>
<rscale>  2 0.45023035E+03</rscale>
<asrwt>0</asrwt>
<pdfrwt beam="1">  1       21 0.17396845E-01 0.45023035E+03</pdfrwt>
<pdfrwt beam="2">  1       21 0.62997197E-01 0.45023035E+03</pdfrwt>
<totfact> 0.64485916E+04</totfact>
</mgrwt>
</event>
<event>
 7    0  0.4766352E-002  0.4416173E+03  0.7546771E-02  0.1030252E+00
         21   -1    0    0  502  501  0.00000000000E+00  0.00000000000E+00  0.26308029382E+03  0.26308029382E+03  0.00000000000E+00 0.  1.
         21   -1    0    0  501  502 -0.00000000000E+00 -0.00000000000E+00 -0.18532921925E+03  0.18532921925E+03  0.00000000000E+00 0.  1.
      99926    2    1    2    0    0  0.00000000000E+00  0.00000000000E+00  0.77751074564E+02  0.44840951307E+03  0.44161732509E+03 0.  0.
      99925    2    3    3    0    0  0.82231911722E+02  0.39921881335E+02  0.91337011878E+02  0.29288482144E+03  0.26283687902E+03 0.  0.
         25    1    4    4    0    0  0.54932831591E+02  0.19726944034E+02  0.87057611263E+02  0.16319713259E+03  0.12509000000E+03 0.  0.
         25    1    4    4    0    0  0.27299080131E+02  0.20194937302E+02  0.42794006151E+01  0.12968768885E+03  0.12509000000E+03 0.  0.
         25    1    3    3    0    0 -0.82231911722E+02 -0.39921881335E+02 -0.13585937314E+02  0.15552469163E+03  0.12509000000E+03 0.  0.
<mgrwt>
<rscale>  2 0.44161733E+03</rscale>
<asrwt>0</asrwt>
<pdfrwt beam="1">  1       21 0.38688278E-01 0.44161733E+03</pdfrwt>
<pdfrwt beam="2">  1       21 0.27254297E-01 0.44161733E+03</pdfrwt>
<totfact> 0.76920244E+04</totfact>
</mgrwt>
</event>
<event>
 7    0  0.4766352E-002  0.4561947E+03  0.7546771E-02  0.1025891E+00
         21   -1    0    0  502  501  0.00000000000E+00  0.00000000000E+00  0.73810816857E+02  0.73810816857E+02  0.00000000000E+00 0. -1.
         21   -1    0    0  501  502 -0.00000000000E+00 -0.00000000000E+00 -0.70488864905E+03  0.70488864905E+03  0.00000000000E+00 0. -1.
      99926    2    1    2    0    0  0.00000000000E+00  0.00000000000E+00 -0.63107783219E+03  0.77869946591E+03  0.45619472588E+03 0.  0.
      99925    2    3    3    0    0  0.10031249226E+03 -0.17061226491E+02 -0.48538509920E+03  0.56138043292E+03  0.26305059282E+03 0.  0.
         25    1    4    4    0    0  0.36912911682E+02 -0.94629192789E+01 -0.15767837367E+03  0.20484649744E+03  0.12509000000E+03 0.  0.
         25    1    4    4    0    0  0.63399580577E+02 -0.75983072121E+01 -0.32770672553E+03  0.35653393548E+03  0.12509000000E+03 0.  0.
         25    1    3    3    0    0 -0.10031249226E+03  0.17061226491E+02 -0.14569273300E+03  0.21731903299E+03  0.12509000000E+03 0.  0.
<mgrwt>
<rscale>  2 0.45619473E+03</rscale>
<asrwt>0</asrwt>
<pdfrwt beam="1">  1       21 0.10854532E-01 0.45619473E+03</pdfrwt>
<pdfrwt beam="2">  1       21 0.10366010E+00 0.45619473E+03</pdfrwt>
<totfact> 0.48357303E+04</totfact>
</mgrwt>
</event>
<event>
 7    0  0.4766352E-002  0.4560462E+03  0.7546771E-02  0.1025934E+00
         21   -1    0    0  502  501  0.00000000000E+00  0.00000000000E+00  0.10962051296E+03  0.10962051296E+03  0.00000000000E+00 0.  1.
         21   -1    0    0  501  502 -0.00000000000E+00 -0.00000000000E+00 -0.47431400153E+03  0.47431400153E+03  0.00000000000E+00 0.  1.
      99926    2    1    2    0    0  0.00000000000E+00  0.00000000000E+00 -0.36469348857E+03  0.58393451448E+03  0.45604624393E+03 0.  0.
      99925    2    3    3    0    0 -0.44003945101E+02  0.10431103488E+03 -0.19990931354E+03  0.34809882673E+03  0.26151848949E+03 0.  0.
         25    1    3    3    0    0  0.44003945101E+02 -0.10431103488E+03 -0.16478417503E+03  0.23583568776E+03  0.12509000000E+03 0.  0.
         25    1    4    4    0    0 -0.29194162894E+02  0.91261895645E+02 -0.98118204940E+02  0.18562252822E+03  0.12509000000E+03 0.  0.
         25    1    4    4    0    0 -0.14809782207E+02  0.13049139230E+02 -0.10179110860E+03  0.16247629850E+03  0.12509000000E+03 0.  0.
<mgrwt>
<rscale>  2 0.45604624E+03</rscale>
<asrwt>0</asrwt>
<pdfrwt beam="1">  1       21 0.16120664E-01 0.45604624E+03</pdfrwt>
<pdfrwt beam="2">  1       21 0.69752059E-01 0.45604624E+03</pdfrwt>
<totfact> 0.59187173E+04</totfact>
</mgrwt>
</event>
<event>
 7    0  0.4766352E-002  0.4194681E+03  0.7546771E-02  0.1037240E+00
         21   -1    0    0  502  501  0.00000000000E+00  0.00000000000E+00  0.60861886585E+03  0.60861886585E+03  0.00000000000E+00 0.  1.
         21   -1    0    0  501  502 -0.00000000000E+00 -0.00000000000E+00 -0.72275721715E+02  0.72275721715E+02  0.00000000000E+00 0.  1.
      99926    2    1    2    0    0  0.44408920985E-15  0.00000000000E+00  0.53634314414E+03  0.68089458757E+03  0.41946808116E+03 0.  0.
      99925    2    3    3    0    0  0.12141033110E+01 -0.83478748322E+01  0.47094114309E+03  0.53948705276E+03  0.26303908221E+03 0.  0.
         25    1    3    3    0    0 -0.12141033110E+01  0.83478748322E+01  0.65402001045E+02  0.14140753481E+03  0.12509000000E+03 0.  0.
         25    1    4    4    0    0  0.38649586378E+02 -0.15806402964E+02  0.25330286925E+03  0.28557570726E+03  0.12509000000E+03 0.  0.
         25    1    4    4    0    0 -0.37435483067E+02  0.74585281322E+01  0.21763827384E+03  0.25391134550E+03  0.12509000000E+03 0.  0.
<mgrwt>
<rscale>  2 0.41946808E+03</rscale>
<asrwt>0</asrwt>
<pdfrwt beam="1">  1       21 0.89502772E-01 0.41946808E+03</pdfrwt>
<pdfrwt beam="2">  1       21 0.10628783E-01 0.41946808E+03</pdfrwt>
<totfact> 0.72106156E+04</totfact>
</mgrwt>
</event>
<event>
 7    0  0.4766352E-002  0.4653399E+03  0.7546771E-02  0.1023244E+00
         21   -1    0    0  502  501  0.00000000000E+00  0.00000000000E+00  0.41349963041E+03  0.41349963041E+03  0.00000000000E+00 0. -1.
         21   -1    0    0  501  502 -0.00000000000E+00 -0.00000000000E+00 -0.13091981284E+03  0.13091981284E+03  0.00000000000E+00 0. -1.
      99926    2    1    2    0    0  0.00000000000E+00  0.00000000000E+00  0.28257981756E+03  0.54441944325E+03  0.46533985096E+03 0.  0.
      99925    2    3    3    0    0  0.92801433515E+02 -0.71058899144E+02  0.13288257982E+03  0.31700298760E+03  0.26300502071E+03 0.  0.
         25    1    4    4    0    0  0.23512948217E+02 -0.56478660604E+02  0.94303208830E+02  0.16817639886E+03  0.12509000000E+03 0.  0.
         25    1    3    3    0    0 -0.92801433515E+02  0.71058899144E+02  0.14969723774E+03  0.22741645565E+03  0.12509000000E+03 0.  0.
         25    1    4    4    0    0  0.69288485299E+02 -0.14580238540E+02  0.38579370990E+02  0.14882658874E+03  0.12509000000E+03 0.  0.
<mgrwt>
<rscale>  2 0.46533985E+03</rscale>
<asrwt>0</asrwt>
<pdfrwt beam="1">  1       21 0.60808769E-01 0.46533985E+03</pdfrwt>
<pdfrwt beam="2">  1       21 0.19252914E-01 0.46533985E+03</pdfrwt>
<totfact> 0.57392102E+04</totfact>
</mgrwt>
</event>
<event>
 7    0  0.4766352E-002  0.4586298E+03  0.7546771E-02  0.1025179E+00
         21   -1    0    0  502  501  0.00000000000E+00  0.00000000000E+00  0.26379798477E+04  0.26379798477E+04  0.00000000000E+00 0.  1.
         21   -1    0    0  501  502 -0.00000000000E+00 -0.00000000000E+00 -0.19933940656E+02  0.19933940656E+02  0.00000000000E+00 0.  1.
      99926    2    1    2    0    0  0.00000000000E+00  0.00000000000E+00  0.26180459071E+04  0.26579137884E+04  0.45862984524E+03 0.  0.
      99925    2    3    3    0    0  0.95493024731E+02  0.40460423299E+02  0.13324186753E+04  0.13620585299E+04  0.26288390804E+03 0.  0.
         25    1    4    4    0    0  0.51673972712E+02  0.58281048795E+02  0.62796135779E+03  0.64501926721E+03  0.12509000000E+03 0.  0.
         25    1    3    3    0    0 -0.95493024731E+02 -0.40460423299E+02  0.12856272318E+04  0.12958552585E+04  0.12509000000E+03 0.  0.
         25    1    4    4    0    0  0.43819052018E+02 -0.17820625496E+02  0.70445731750E+03  0.71703926273E+03  0.12509000000E+03 0.  0.
<mgrwt>
<rscale>  2 0.45862985E+03</rscale>
<asrwt>0</asrwt>
<pdfrwt beam="1">  1       21 0.38793797E+00 0.45862985E+03</pdfrwt>
<pdfrwt beam="2">  1       21 0.29314637E-02 0.45862985E+03</pdfrwt>
<totfact> 0.54907565E+03</totfact>
</mgrwt>
</event>
<event>
 7    0  0.4766352E-002  0.4532649E+03  0.7546771E-02  0.1026753E+00
         21   -1    0    0  502  501  0.00000000000E+00  0.00000000000E+00  0.14757869742E+04  0.14757869742E+04  0.00000000000E+00 0. -1.
         21   -1    0    0  501  502 -0.00000000000E+00 -0.00000000000E+00 -0.34803301189E+02  0.34803301189E+02  0.00000000000E+00 0. -1.
      99926    2    1    2    0    0  0.14210854715E-13  0.71054273576E-14  0.14409836730E+04  0.15105902754E+04  0.45326486100E+03 0.  0.
      99925    2    3    3    0    0  0.10524892394E+03  0.27618108460E+02  0.82655267000E+03  0.87418391035E+03  0.26299828312E+03 0.  0.
         25    1    3    3    0    0 -0.10524892394E+03 -0.27618108460E+02  0.61443100303E+03  0.63640636506E+03  0.12509000000E+03 0.  0.
         25    1    4    4    0    0  0.95848763417E+02  0.97925098752E+01  0.46407324494E+03  0.49019828994E+03  0.12509000000E+03 0.  0.
         25    1    4    4    0    0  0.94001605202E+01  0.17825598584E+02  0.36247942506E+03  0.38398562040E+03  0.12509000000E+03 0.  0.
<mgrwt>
<rscale>  2 0.45326486E+03</rscale>
<asrwt>0</asrwt>
<pdfrwt beam="1">  1       21 0.21702746E+00 0.45326486E+03</pdfrwt>
<pdfrwt beam="2">  1       21 0.51181335E-02 0.45326486E+03</pdfrwt>
<totfact> 0.23840444E+04</totfact>
</mgrwt>
</event>
<event>
 7    0  0.4766352E-002  0.4268755E+03  0.7546771E-02  0.1034852E+00
         21   -1    0    0  502  501  0.00000000000E+00  0.00000000000E+00  0.10237181595E+03  0.10237181595E+03  0.00000000000E+00 0.  1.
         21   -1    0    0  501  502 -0.00000000000E+00 -0.00000000000E+00 -0.44500218687E+03  0.44500218687E+03  0.00000000000E+00 0.  1.
      99926    2    1    2    0    0  0.00000000000E+00  0.00000000000E+00 -0.34263037092E+03  0.54737400282E+03  0.42687554144E+03 0.  0.
      99925    2    3    3    0    0  0.60579072393E+02 -0.23918048426E+02 -0.15334003663E+03  0.31132266135E+03  0.26299569499E+03 0.  0.
         25    1    4    4    0    0  0.41447683040E+02 -0.26517098953E+02 -0.37030464087E+02  0.13942679203E+03  0.12509000000E+03 0.  0.
         25    1    3    3    0    0 -0.60579072393E+02  0.23918048426E+02 -0.18929033429E+03  0.23605134147E+03  0.12509000000E+03 0.  0.
         25    1    4    4    0    0  0.19131389353E+02  0.25990505274E+01 -0.11630957254E+03  0.17189586932E+03  0.12509000000E+03 0.  0.
<mgrwt>
<rscale>  2 0.42687554E+03</rscale>
<asrwt>0</asrwt>
<pdfrwt beam="1">  1       21 0.15054679E-01 0.42687554E+03</pdfrwt>
<pdfrwt beam="2">  1       21 0.65441499E-01 0.42687554E+03</pdfrwt>
<totfact> 0.78002235E+04</totfact>
</mgrwt>
</event>
<event>
 7    0  0.4766352E-002  0.4570215E+03  0.7546771E-02  0.1025649E+00
         21   -1    0    0  502  501  0.00000000000E+00  0.00000000000E+00  0.14079314654E+04  0.14079314654E+04  0.00000000000E+00 0.  1.
         21   -1    0    0  501  502 -0.00000000000E+00 -0.00000000000E+00 -0.37087852688E+02  0.37087852688E+02  0.00000000000E+00 0.  1.
      99926    2    1    2    0    0  0.00000000000E+00  0.00000000000E+00  0.13708436127E+04  0.14450193180E+04  0.45702146462E+03 0.  0.
      99925    2    3    3    0    0 -0.11000425017E+03 -0.32485468020E+02  0.90017759696E+03  0.94468917991E+03  0.26260559756E+03 0.  0.
         25    1    4    4    0    0 -0.70560280559E+02 -0.53654411225E+02  0.50674108077E+03  0.52942570780E+03  0.12509000000E+03 0.  0.
         25    1    4    4    0    0 -0.39443969611E+02  0.21168943205E+02  0.39343651619E+03  0.41526347211E+03  0.12509000000E+03 0.  0.
         25    1    3    3    0    0  0.11000425017E+03  0.32485468020E+02  0.47066601571E+03  0.50033013814E+03  0.12509000000E+03 0.  0.
<mgrwt>
<rscale>  2 0.45702146E+03</rscale>
<asrwt>0</asrwt>
<pdfrwt beam="1">  1       21 0.20704871E+00 0.45702146E+03</pdfrwt>
<pdfrwt beam="2">  1       21 0.54540969E-02 0.45702146E+03</pdfrwt>
<totfact> 0.24765372E+04</totfact>
</mgrwt>
</event>
<event>
 7    0  0.4766352E-002  0.4559111E+03  0.7546771E-02  0.1025974E+00
         21   -1    0    0  502  501  0.00000000000E+00  0.00000000000E+00  0.17503144805E+03  0.17503144805E+03  0.00000000000E+00 0. -1.
         21   -1    0    0  501  502 -0.00000000000E+00 -0.00000000000E+00 -0.29688222106E+03  0.29688222106E+03  0.00000000000E+00 0. -1.
      99926    2    1    2    0    0  0.00000000000E+00  0.00000000000E+00 -0.12185077301E+03  0.47191366911E+03  0.45591106611E+03 0.  0.
      99925    2    3    3    0    0 -0.69330392849E+02 -0.60827667293E+02 -0.14594854161E+03  0.31464027964E+03  0.26304148018E+03 0.  0.
         25    1    4    4    0    0 -0.57057009304E+02 -0.25826384140E+02 -0.37110143676E+02  0.14473139014E+03  0.12509000000E+03 0.  0.
         25    1    3    3    0    0  0.69330392849E+02  0.60827667293E+02  0.24097768608E+02  0.15727338946E+03  0.12509000000E+03 0.  0.
         25    1    4    4    0    0 -0.12273383545E+02 -0.35001283153E+02 -0.10883839794E+03  0.16990888950E+03  0.12509000000E+03 0.  0.
<mgrwt>
<rscale>  2 0.45591107E+03</rscale>
<asrwt>0</asrwt>
<pdfrwt beam="1">  1       21 0.25739919E-01 0.45591107E+03</pdfrwt>
<pdfrwt beam="2">  1       21 0.43659150E-01 0.45591107E+03</pdfrwt>
<totfact> 0.66809456E+04</totfact>
</mgrwt>
</event>
<event>
 7    0  0.4766352E-002  0.4509530E+03  0.7546771E-02  0.1027438E+00
         21   -1    0    0  502  501  0.00000000000E+00  0.00000000000E+00  0.95374651855E+02  0.95374651855E+02  0.00000000000E+00 0. -1.
         21   -1    0    0  501  502 -0.00000000000E+00 -0.00000000000E+00 -0.53305195457E+03  0.53305195457E+03  0.00000000000E+00 0. -1.
      99926    2    1    2    0    0 -0.35527136788E-14  0.71054273576E-14 -0.43767730272E+03  0.62842660643E+03  0.45095296690E+03 0.  0.
      99925    2    3    3    0    0 -0.17031208601E+02  0.48119618315E+02 -0.14175530248E+03  0.30312229035E+03  0.26302660967E+03 0.  0.
         25    1    4    4    0    0 -0.29691007664E+02  0.52729135589E+02 -0.51125800478E+02  0.14806509802E+03  0.12509000000E+03 0.  0.
         25    1    4    4    0    0  0.12659799063E+02 -0.46095172735E+01 -0.90629502002E+02  0.15505719234E+03  0.12509000000E+03 0.  0.
         25    1    3    3    0    0  0.17031208601E+02 -0.48119618315E+02 -0.29592200024E+03  0.32530431608E+03  0.12509000000E+03 0.  0.
<mgrwt>
<rscale>  2 0.45095297E+03</rscale>
<asrwt>0</asrwt>
<pdfrwt beam="1">  1       21 0.14025685E-01 0.45095297E+03</pdfrwt>
<pdfrwt beam="2">  1       21 0.78389991E-01 0.45095297E+03</pdfrwt>
<totfact> 0.58818523E+04</totfact>
</mgrwt>
</event>
<event>
 7    0  0.4766352E-002  0.4574634E+03  0.7546771E-02  0.1025519E+00
         21   -1    0    0  502  501  0.00000000000E+00  0.00000000000E+00  0.93900038809E+03  0.93900038809E+03  0.00000000000E+00 0.  1.
         21   -1    0    0  501  502 -0.00000000000E+00 -0.00000000000E+00 -0.55716908887E+02  0.55716908887E+02  0.00000000000E+00 0.  1.
      99926    2    1    2    0    0  0.00000000000E+00  0.44408920985E-15  0.88328347920E+03  0.99471729698E+03  0.45746343709E+03 0.  0.
      99925    2    3    3    0    0  0.11409971707E+03  0.15564741442E+01  0.59288685548E+03  0.65856424371E+03  0.26300355825E+03 0.  0.
         25    1    4    4    0    0  0.50782822534E+02  0.39710277470E+02  0.31416396789E+03  0.34424164191E+03  0.12509000000E+03 0.  0.
         25    1    3    3    0    0 -0.11409971707E+03 -0.15564741442E+01  0.29039662372E+03  0.33615305326E+03  0.12509000000E+03 0.  0.
         25    1    4    4    0    0  0.63316894537E+02 -0.38153803326E+02  0.27872288759E+03  0.31432260181E+03  0.12509000000E+03 0.  0.
<mgrwt>
<rscale>  2 0.45746344E+03</rscale>
<asrwt>0</asrwt>
<pdfrwt beam="1">  1       21 0.13808828E+00 0.45746344E+03</pdfrwt>
<pdfrwt beam="2">  1       21 0.81936637E-02 0.45746344E+03</pdfrwt>
<totfact> 0.38624372E+04</totfact>
</mgrwt>
</event>
<event>
 7    0  0.4766352E-002  0.4598508E+03  0.7546771E-02  0.1024824E+00
         21   -1    0    0  502  501  0.00000000000E+00  0.00000000000E+00  0.14622742403E+03  0.14622742403E+03  0.00000000000E+00 0. -1.
         21   -1    0    0  501  502 -0.00000000000E+00 -0.00000000000E+00 -0.36153065516E+03  0.36153065516E+03  0.00000000000E+00 0. -1.
      99926    2    1    2    0    0  0.00000000000E+00  0.00000000000E+00 -0.21530323113E+03  0.50775807919E+03  0.45985082978E+03 0.  0.
      99925    2    3    3    0    0  0.11455419164E+03  0.25032469300E+02 -0.12605742497E+03  0.31446656526E+03  0.26315291930E+03 0.  0.
         25    1    4    4    0    0  0.95319387020E+02  0.35043477176E+02 -0.72058042043E+02  0.17650410861E+03  0.12509000000E+03 0.  0.
         25    1    4    4    0    0  0.19234804618E+02 -0.10011007876E+02 -0.53999382924E+02  0.13796245665E+03  0.12509000000E+03 0.  0.
         25    1    3    3    0    0 -0.11455419164E+03 -0.25032469300E+02 -0.89245806167E+02  0.19329151394E+03  0.12509000000E+03 0.  0.
<mgrwt>
<rscale>  2 0.45985083E+03</rscale>
<asrwt>0</asrwt>
<pdfrwt beam="1">  1       21 0.21504033E-01 0.45985083E+03</pdfrwt>
<pdfrwt beam="2">  1       21 0.53166272E-01 0.45985083E+03</pdfrwt>
<totfact> 0.62295689E+04</totfact>
</mgrwt>
</event>
<event>
 7    0  0.4766352E-002  0.4551844E+03  0.7546771E-02  0.1026187E+00
         21   -1    0    0  502  501  0.00000000000E+00  0.00000000000E+00  0.13118790048E+04  0.13118790048E+04  0.00000000000E+00 0. -1.
         21   -1    0    0  501  502 -0.00000000000E+00 -0.00000000000E+00 -0.39483989649E+02  0.39483989649E+02  0.00000000000E+00 0. -1.
      99926    2    1    2    0    0 -0.17763568394E-14  0.00000000000E+00  0.12723950151E+04  0.13513629944E+04  0.45518443314E+03 0.  0.
      99925    2    3    3    0    0  0.10176249056E+02 -0.46037329788E+02  0.11065666637E+04  0.11383617221E+04  0.26297269309E+03 0.  0.
         25    1    4    4    0    0  0.18784527252E+02 -0.15235010974E+02  0.39082347119E+03  0.41106624497E+03  0.12509000000E+03 0.  0.
         25    1    4    4    0    0 -0.86082781961E+01 -0.30802318815E+02  0.71574319254E+03  0.72729547713E+03  0.12509000000E+03 0.  0.
         25    1    3    3    0    0 -0.10176249056E+02  0.46037329788E+02  0.16582835139E+03  0.21300127230E+03  0.12509000000E+03 0.  0.
<mgrwt>
<rscale>  2 0.45518443E+03</rscale>
<asrwt>0</asrwt>
<pdfrwt beam="1">  1       21 0.19292335E+00 0.45518443E+03</pdfrwt>
<pdfrwt beam="2">  1       21 0.58064699E-02 0.45518443E+03</pdfrwt>
<totfact> 0.27617786E+04</totfact>
</mgrwt>
</event>
<event>
 7    0  0.4766352E-002  0.4587826E+03  0.7546771E-02  0.1025135E+00
         21   -1    0    0  502  501  0.00000000000E+00  0.00000000000E+00  0.10393336557E+03  0.10393336557E+03  0.00000000000E+00 0.  1.
         21   -1    0    0  501  502 -0.00000000000E+00 -0.00000000000E+00 -0.50628947198E+03  0.50628947198E+03  0.00000000000E+00 0.  1.
      99926    2    1    2    0    0  0.00000000000E+00 -0.14210854715E-13 -0.40235610642E+03  0.61022283755E+03  0.45878260112E+03 0.  0.
      99925    2    3    3    0    0 -0.48954271336E+02 -0.10554234023E+03 -0.24223526947E+03  0.37608207478E+03  0.26310472237E+03 0.  0.
         25    1    4    4    0    0 -0.44147879269E+02 -0.73211946586E+02 -0.89505980819E+02  0.17597685379E+03  0.12509000000E+03 0.  0.
         25    1    3    3    0    0  0.48954271336E+02  0.10554234023E+03 -0.16012083695E+03  0.23414076276E+03  0.12509000000E+03 0.  0.
         25    1    4    4    0    0 -0.48063920665E+01 -0.32330393644E+02 -0.15272928865E+03  0.20010522100E+03  0.12509000000E+03 0.  0.
<mgrwt>
<rscale>  2 0.45878260E+03</rscale>
<asrwt>0</asrwt>
<pdfrwt beam="1">  1       21 0.15284319E-01 0.45878260E+03</pdfrwt>
<pdfrwt beam="2">  1       21 0.74454333E-01 0.45878260E+03</pdfrwt>
<totfact> 0.56350731E+04</totfact>
</mgrwt>
</event>
<event>
 7    0  0.4766352E-002  0.4636573E+03  0.7546771E-02  0.1023726E+00
         21   -1    0    0  502  501  0.00000000000E+00  0.00000000000E+00  0.88988958647E+03  0.88988958647E+03  0.00000000000E+00 0.  1.
         21   -1    0    0  501  502 -0.00000000000E+00 -0.00000000000E+00 -0.60394597896E+02  0.60394597896E+02  0.00000000000E+00 0.  1.
      99926    2    1    2    0    0  0.00000000000E+00  0.00000000000E+00  0.82949498857E+03  0.95028418436E+03  0.46365730339E+03 0.  0.
      99925    2    3    3    0    0 -0.94110139566E+02  0.53602990771E+02  0.63004363178E+03  0.69113490149E+03  0.26264515057E+03 0.  0.
         25    1    4    4    0    0 -0.54228189860E+02  0.11625478004E+02  0.40221203841E+03  0.42485042104E+03  0.12509000000E+03 0.  0.
         25    1    4    4    0    0 -0.39881949707E+02  0.41977512767E+02  0.22783159337E+03  0.26628448045E+03  0.12509000000E+03 0.  0.
         25    1    3    3    0    0  0.94110139566E+02 -0.53602990771E+02  0.19945135678E+03  0.25914928287E+03  0.12509000000E+03 0.  0.
<mgrwt>
<rscale>  2 0.46365730E+03</rscale>
<asrwt>0</asrwt>
<pdfrwt beam="1">  1       21 0.13086611E+00 0.46365730E+03</pdfrwt>
<pdfrwt beam="2">  1       21 0.88815590E-02 0.46365730E+03</pdfrwt>
<totfact> 0.38458885E+04</totfact>
</mgrwt>
</event>
<event>
 7    0  0.4766352E-002  0.4598019E+03  0.7546771E-02  0.1024839E+00
         21   -1    0    0  502  501  0.00000000000E+00  0.00000000000E+00  0.68187733426E+03  0.68187733426E+03  0.00000000000E+00 0.  1.
         21   -1    0    0  501  502 -0.00000000000E+00 -0.00000000000E+00 -0.77513124424E+02  0.77513124424E+02  0.00000000000E+00 0.  1.
      99926    2    1    2    0    0 -0.14210854715E-13  0.00000000000E+00  0.60436420983E+03  0.75939045868E+03  0.45980188191E+03 0.  0.
      99925    2    3    3    0    0  0.78317379647E+02 -0.77860602785E+02  0.31157775290E+03  0.42239297667E+03  0.26294342588E+03 0.  0.
         25    1    4    4    0    0  0.22687703943E+02 -0.41214446425E+02  0.20646832581E+03  0.24594723045E+03  0.12509000000E+03 0.  0.
         25    1    3    3    0    0 -0.78317379647E+02  0.77860602785E+02  0.29278645693E+03  0.33699748201E+03  0.12509000000E+03 0.  0.
         25    1    4    4    0    0  0.55629675704E+02 -0.36646156360E+02  0.10510942710E+03  0.17644574622E+03  0.12509000000E+03 0.  0.
<mgrwt>
<rscale>  2 0.45980188E+03</rscale>
<asrwt>0</asrwt>
<pdfrwt beam="1">  1       21 0.10027608E+00 0.45980188E+03</pdfrwt>
<pdfrwt beam="2">  1       21 0.11398989E-01 0.45980188E+03</pdfrwt>
<totfact> 0.47957485E+04</totfact>
</mgrwt>
</event>
<event>
 7    0  0.4766352E-002  0.4600637E+03  0.7546771E-02  0.1024763E+00
         21   -1    0    0  502  501  0.00000000000E+00  0.00000000000E+00  0.58174944700E+03  0.58174944700E+03  0.00000000000E+00 0.  1.
         21   -1    0    0  501  502 -0.00000000000E+00 -0.00000000000E+00 -0.90957798744E+02  0.90957798744E+02  0.00000000000E+00 0.  1.
      99926    2    1    2    0    0  0.00000000000E+00  0.00000000000E+00  0.49079164825E+03  0.67270724574E+03  0.46006368741E+03 0.  0.
      99925    2    3    3    0    0  0.48077707776E+02  0.10742877757E+03  0.31434781742E+03  0.42647089226E+03  0.26307881594E+03 0.  0.
         25    1    4    4    0    0  0.61823371591E+02  0.52349216742E+02  0.13967273685E+03  0.20425119654E+03  0.12509000000E+03 0.  0.
         25    1    3    3    0    0 -0.48077707776E+02 -0.10742877757E+03  0.17644383084E+03  0.24623635348E+03  0.12509000000E+03 0.  0.
         25    1    4    4    0    0 -0.13745663815E+02  0.55079560830E+02  0.17467508057E+03  0.22221969572E+03  0.12509000000E+03 0.  0.
<mgrwt>
<rscale>  2 0.46006369E+03</rscale>
<asrwt>0</asrwt>
<pdfrwt beam="1">  1       21 0.85551388E-01 0.46006369E+03</pdfrwt>
<pdfrwt beam="2">  1       21 0.13376147E-01 0.46006369E+03</pdfrwt>
<totfact> 0.52291511E+04</totfact>
</mgrwt>
</event>
<event>
 7    0  0.4766352E-002  0.4659487E+03  0.7546771E-02  0.1023070E+00
         21   -1    0    0  502  501  0.00000000000E+00  0.00000000000E+00  0.21792580058E+03  0.21792580058E+03  0.00000000000E+00 0.  1.
         21   -1    0    0  501  502 -0.00000000000E+00 -0.00000000000E+00 -0.24906200434E+03  0.24906200434E+03  0.00000000000E+00 0.  1.
      99926    2    1    2    0    0  0.00000000000E+00  0.00000000000E+00 -0.31136203757E+02  0.46698780492E+03  0.46594865250E+03 0.  0.
      99925    2    3    3    0    0 -0.54201999155E+02  0.11058002091E+03 -0.21526755135E+02  0.29118778405E+03  0.26298503124E+03 0.  0.
         25    1    4    4    0    0 -0.39163593885E+02  0.90081291809E+02  0.11108863677E+02  0.15943444161E+03  0.12509000000E+03 0.  0.
         25    1    4    4    0    0 -0.15038405271E+02  0.20498729102E+02 -0.32635618812E+02  0.13175334244E+03  0.12509000000E+03 0.  0.
         25    1    3    3    0    0  0.54201999155E+02 -0.11058002091E+03 -0.96094486222E+01  0.17580002088E+03  0.12509000000E+03 0.  0.
<mgrwt>
<rscale>  2 0.46594865E+03</rscale>
<asrwt>0</asrwt>
<pdfrwt beam="1">  1       21 0.32047912E-01 0.46594865E+03</pdfrwt>
<pdfrwt beam="2">  1       21 0.36626765E-01 0.46594865E+03</pdfrwt>
<totfact> 0.62073969E+04</totfact>
</mgrwt>
</event>
<event>
 7    0  0.4766352E-002  0.4642824E+03  0.7546771E-02  0.1023546E+00
         21   -1    0    0  502  501  0.00000000000E+00  0.00000000000E+00  0.97597447292E+03  0.97597447292E+03  0.00000000000E+00 0.  1.
         21   -1    0    0  501  502 -0.00000000000E+00 -0.00000000000E+00 -0.55216132738E+02  0.55216132738E+02  0.00000000000E+00 0.  1.
      99926    2    1    2    0    0 -0.71054273576E-14  0.00000000000E+00  0.92075834018E+03  0.10311906057E+04  0.46428239702E+03 0.  0.
      99925    2    3    3    0    0 -0.36142553449E+02 -0.62146980368E+02  0.79255682708E+03  0.83818369542E+03  0.26312934419E+03 0.  0.
         25    1    4    4    0    0 -0.48060672482E+02 -0.34787083424E+01  0.39725154687E+03  0.41925914330E+03  0.12509000000E+03 0.  0.
         25    1    4    4    0    0  0.11918119033E+02 -0.58668272026E+02  0.39530528021E+03  0.41892455212E+03  0.12509000000E+03 0.  0.
         25    1    3    3    0    0  0.36142553449E+02  0.62146980368E+02  0.12820151310E+03  0.19300691024E+03  0.12509000000E+03 0.  0.
<mgrwt>
<rscale>  2 0.46428240E+03</rscale>
<asrwt>0</asrwt>
<pdfrwt beam="1">  1       21 0.14352565E+00 0.46428240E+03</pdfrwt>
<pdfrwt beam="2">  1       21 0.81200202E-02 0.46428240E+03</pdfrwt>
<totfact> 0.35343668E+04</totfact>
</mgrwt>
</event>
<event>
 7    0  0.4766352E-002  0.4699289E+03  0.7546771E-02  0.1021940E+00
         21   -1    0    0  502  501  0.00000000000E+00  0.00000000000E+00  0.14229133245E+04  0.14229133245E+04  0.00000000000E+00 0. -1.
         21   -1    0    0  501  502 -0.00000000000E+00 -0.00000000000E+00 -0.38799471131E+02  0.38799471131E+02  0.00000000000E+00 0. -1.
      99926    2    1    2    0    0  0.00000000000E+00  0.00000000000E+00  0.13841138534E+04  0.14617127956E+04  0.46992886464E+03 0.  0.
      99925    2    3    3    0    0  0.52874088722E+02 -0.10554118821E+03  0.10027676488E+04  0.10433743591E+04  0.26296859890E+03 0.  0.
         25    1    4    4    0    0  0.16649791435E+02 -0.84091940231E+02  0.44222840791E+03  0.46750630244E+03  0.12509000000E+03 0.  0.
         25    1    3    3    0    0 -0.52874088722E+02  0.10554118821E+03  0.38134620452E+03  0.41833843651E+03  0.12509000000E+03 0.  0.
         25    1    4    4    0    0  0.36224297287E+02 -0.21449247977E+02  0.56053924094E+03  0.57586805666E+03  0.12509000000E+03 0.  0.
<mgrwt>
<rscale>  2 0.46992886E+03</rscale>
<asrwt>0</asrwt>
<pdfrwt beam="1">  1       21 0.20925192E+00 0.46992886E+03</pdfrwt>
<pdfrwt beam="2">  1       21 0.57058055E-02 0.46992886E+03</pdfrwt>
<totfact> 0.22060934E+04</totfact>
</mgrwt>
</event>
<event>
 7    0  0.4766352E-002  0.4559531E+03  0.7546771E-02  0.1025962E+00
         21   -1    0    0  502  501  0.00000000000E+00  0.00000000000E+00  0.74725921429E+03  0.74725921429E+03  0.00000000000E+00 0. -1.
         21   -1    0    0  501  502 -0.00000000000E+00 -0.00000000000E+00 -0.69551897504E+02  0.69551897504E+02  0.00000000000E+00 0. -1.
      99926    2    1    2    0    0  0.00000000000E+00  0.00000000000E+00  0.67770731678E+03  0.81681111179E+03  0.45595305145E+03 0.  0.
      99925    2    3    3    0    0 -0.44850539468E+02 -0.78026003730E+02  0.30060965036E+03  0.40944176308E+03  0.26301476634E+03 0.  0.
         25    1    4    4    0    0 -0.19292733135E+02 -0.30622594759E+02  0.88764707400E+02  0.15759642839E+03  0.12509000000E+03 0.  0.
         25    1    3    3    0    0  0.44850539468E+02  0.78026003730E+02  0.37709766643E+03  0.40736934872E+03  0.12509000000E+03 0.  0.
         25    1    4    4    0    0 -0.25557806333E+02 -0.47403408972E+02  0.21184494296E+03  0.25184533469E+03  0.12509000000E+03 0.  0.
<mgrwt>
<rscale>  2 0.45595305E+03</rscale>
<asrwt>0</asrwt>
<pdfrwt beam="1">  1       21 0.10989106E+00 0.45595305E+03</pdfrwt>
<pdfrwt beam="2">  1       21 0.10228221E-01 0.45595305E+03</pdfrwt>
<totfact> 0.46612838E+04</totfact>
</mgrwt>
</event>
<event>
 7    0  0.4766352E-002  0.4557463E+03  0.7546771E-02  0.1026022E+00
         21   -1    0    0  502  501  0.00000000000E+00  0.00000000000E+00  0.75178712067E+02  0.75178712067E+02  0.00000000000E+00 0.  1.
         21   -1    0    0  501  502 -0.00000000000E+00 -0.00000000000E+00 -0.69070320482E+03  0.69070320482E+03  0.00000000000E+00 0.  1.
      99926    2    1    2    0    0  0.00000000000E+00  0.00000000000E+00 -0.61552449275E+03  0.76588191688E+03  0.45574632136E+03 0.  0.
      99925    2    3    3    0    0  0.28240094591E+02  0.89379757943E+02 -0.49532354722E+03  0.56869667535E+03  0.26321901157E+03 0.  0.
         25    1    3    3    0    0 -0.28240094591E+02 -0.89379757943E+02 -0.12020094553E+03  0.19718524154E+03  0.12509000000E+03 0.  0.
         25    1    4    4    0    0  0.10092494988E+02  0.30670424272E+02 -0.31741585943E+03  0.34269938619E+03  0.12509000000E+03 0.  0.
         25    1    4    4    0    0  0.18147599603E+02  0.58709333671E+02 -0.17790768779E+03  0.22599728915E+03  0.12509000000E+03 0.  0.
<mgrwt>
<rscale>  2 0.45574632E+03</rscale>
<asrwt>0</asrwt>
<pdfrwt beam="1">  1       21 0.11055692E-01 0.45574632E+03</pdfrwt>
<pdfrwt beam="2">  1       21 0.10157401E+00 0.45574632E+03</pdfrwt>
<totfact> 0.49170437E+04</totfact>
</mgrwt>
</event>
<event>
 7    0  0.4766352E-002  0.4509445E+03  0.7546771E-02  0.1027441E+00
         21   -1    0    0  502  501  0.00000000000E+00  0.00000000000E+00  0.21577294871E+03  0.21577294871E+03  0.00000000000E+00 0. -1.
         21   -1    0    0  501  502 -0.00000000000E+00 -0.00000000000E+00 -0.23560758035E+03  0.23560758035E+03  0.00000000000E+00 0. -1.
      99926    2    1    2    0    0  0.00000000000E+00  0.00000000000E+00 -0.19834631641E+02  0.45138052907E+03  0.45094453030E+03 0.  0.
      99925    2    3    3    0    0 -0.34357498010E+02 -0.74826014766E+02  0.59406703033E+02  0.28195187926E+03  0.26303675731E+03 0.  0.
         25    1    4    4    0    0  0.14715271582E+02 -0.62556135534E+02  0.33263665357E+02  0.14451224462E+03  0.12509000000E+03 0.  0.
         25    1    3    3    0    0  0.34357498010E+02  0.74826014766E+02 -0.79241334674E+02  0.16942864981E+03  0.12509000000E+03 0.  0.
         25    1    4    4    0    0 -0.49072769592E+02 -0.12269879232E+02  0.26143037676E+02  0.13743963464E+03  0.12509000000E+03 0.  0.
<mgrwt>
<rscale>  2 0.45094453E+03</rscale>
<asrwt>0</asrwt>
<pdfrwt beam="1">  1       21 0.31731316E-01 0.45094453E+03</pdfrwt>
<pdfrwt beam="2">  1       21 0.34648173E-01 0.45094453E+03</pdfrwt>
<totfact> 0.71084247E+04</totfact>
</mgrwt>
</event>
<event>
 7    0  0.4766352E-002  0.4798597E+03  0.7546771E-02  0.1019174E+00
         21   -1    0    0  502  501  0.00000000000E+00  0.00000000000E+00  0.70467039744E+02  0.70467039744E+02  0.00000000000E+00 0. -1.
         21   -1    0    0  501  502 -0.00000000000E+00 -0.00000000000E+00 -0.81692553723E+03  0.81692553723E+03  0.00000000000E+00 0. -1.
      99926    2    1    2    0    0 -0.71054273576E-14 -0.71054273576E-14 -0.74645849749E+03  0.88739257697E+03  0.47985966407E+03 0.  0.
      99925    2    3    3    0    0  0.63000405128E+02 -0.60483642872E+02 -0.65081936572E+03  0.70733238225E+03  0.26291810525E+03 0.  0.
         25    1    4    4    0    0  0.50390384892E+02 -0.55218782013E+02 -0.41815309379E+03  0.44281804697E+03  0.12509000000E+03 0.  0.
         25    1    4    4    0    0  0.12610020236E+02 -0.52648608594E+01 -0.23266627193E+03  0.26451433527E+03  0.12509000000E+03 0.  0.
         25    1    3    3    0    0 -0.63000405128E+02  0.60483642872E+02 -0.95639131762E+02  0.18006019473E+03  0.12509000000E+03 0.  0.
<mgrwt>
<rscale>  2 0.47985966E+03</rscale>
<asrwt>0</asrwt>
<pdfrwt beam="1">  1       21 0.10362800E-01 0.47985966E+03</pdfrwt>
<pdfrwt beam="2">  1       21 0.12013611E+00 0.47985966E+03</pdfrwt>
<totfact> 0.36203496E+04</totfact>
</mgrwt>
</event>
<event>
 7    0  0.4766352E-002  0.4517729E+03  0.7546771E-02  0.1027195E+00
         21   -1    0    0  502  501  0.00000000000E+00  0.00000000000E+00  0.25389280923E+03  0.25389280923E+03  0.00000000000E+00 0. -1.
         21   -1    0    0  501  502 -0.00000000000E+00 -0.00000000000E+00 -0.20096943980E+03  0.20096943980E+03  0.00000000000E+00 0. -1.
      99926    2    1    2    0    0 -0.71054273576E-14  0.00000000000E+00  0.52923369430E+02  0.45486224904E+03  0.45177293253E+03 0.  0.
      99925    2    3    3    0    0 -0.46095672676E+02 -0.92180326325E+02 -0.60663279684E+01  0.28238234847E+03  0.26283258320E+03 0.  0.
         25    1    3    3    0    0  0.46095672676E+02  0.92180326325E+02  0.58989697399E+02  0.17247990057E+03  0.12509000000E+03 0.  0.
         25    1    4    4    0    0  0.84681639151E+01 -0.29298738768E+02  0.18659131478E+02  0.13009918209E+03  0.12509000000E+03 0.  0.
         25    1    4    4    0    0 -0.54563836591E+02 -0.62881587557E+02 -0.24725459447E+02  0.15228316638E+03  0.12509000000E+03 0.  0.
<mgrwt>
<rscale>  2 0.45177293E+03</rscale>
<asrwt>0</asrwt>
<pdfrwt beam="1">  1       21 0.37337178E-01 0.45177293E+03</pdfrwt>
<pdfrwt beam="2">  1       21 0.29554329E-01 0.45177293E+03</pdfrwt>
<totfact> 0.70349699E+04</totfact>
</mgrwt>
</event>
<event>
 7    0  0.4766352E-002  0.4494795E+03  0.7546771E-02  0.1027877E+00
         21   -1    0    0  502  501  0.00000000000E+00  0.00000000000E+00  0.60530497697E+03  0.60530497697E+03  0.00000000000E+00 0.  1.
         21   -1    0    0  501  502 -0.00000000000E+00 -0.00000000000E+00 -0.83442146133E+02  0.83442146133E+02  0.00000000000E+00 0.  1.
      99926    2    1    2    0    0 -0.17763568394E-14  0.00000000000E+00  0.52186283083E+03  0.68874712310E+03  0.44947946046E+03 0.  0.
      99925    2    3    3    0    0  0.98654642240E+01  0.56508260755E+02  0.47022957929E+03  0.54176409114E+03  0.26287252100E+03 0.  0.
         25    1    4    4    0    0 -0.14312086386E+02  0.11006538706E+02  0.16455282398E+03  0.20748763744E+03  0.12509000000E+03 0.  0.
         25    1    4    4    0    0  0.24177550610E+02  0.45501722050E+02  0.30567675531E+03  0.33427645370E+03  0.12509000000E+03 0.  0.
         25    1    3    3    0    0 -0.98654642240E+01 -0.56508260755E+02  0.51633251543E+02  0.14698303196E+03  0.12509000000E+03 0.  0.
<mgrwt>
<rscale>  2 0.44947946E+03</rscale>
<asrwt>0</asrwt>
<pdfrwt beam="1">  1       21 0.89015436E-01 0.44947946E+03</pdfrwt>
<pdfrwt beam="2">  1       21 0.12270904E-01 0.44947946E+03</pdfrwt>
<totfact> 0.55908682E+04</totfact>
</mgrwt>
</event>
<event>
 7    0  0.4766352E-002  0.4574444E+03  0.7546771E-02  0.1025525E+00
         21   -1    0    0  502  501  0.00000000000E+00  0.00000000000E+00  0.27678929874E+04  0.27678929874E+04  0.00000000000E+00 0. -1.
         21   -1    0    0  501  502 -0.00000000000E+00 -0.00000000000E+00 -0.18900238086E+02  0.18900238086E+02  0.00000000000E+00 0. -1.
      99926    2    1    2    0    0  0.00000000000E+00  0.00000000000E+00  0.27489927493E+04  0.27867932255E+04  0.45744436365E+03 0.  0.
      99925    2    3    3    0    0 -0.37476886740E+02 -0.87739555657E+02  0.13332806614E+04  0.13623666845E+04  0.26325446689E+03 0.  0.
         25    1    4    4    0    0 -0.53419201525E+02 -0.26829207722E+02  0.72959647709E+03  0.74265196758E+03  0.12509000000E+03 0.  0.
         25    1    4    4    0    0  0.15942314786E+02 -0.60910347935E+02  0.60368418430E+03  0.61971471691E+03  0.12509000000E+03 0.  0.
         25    1    3    3    0    0  0.37476886740E+02  0.87739555657E+02  0.14157120879E+04  0.14244265410E+04  0.12509000000E+03 0.  0.
<mgrwt>
<rscale>  2 0.45744436E+03</rscale>
<asrwt>0</asrwt>
<pdfrwt beam="1">  1       21 0.40704281E+00 0.45744436E+03</pdfrwt>
<pdfrwt beam="2">  1       21 0.27794487E-02 0.45744436E+03</pdfrwt>
<totfact> 0.45334360E+03</totfact>
</mgrwt>
</event>
<event>
 7    0  0.4766352E-002  0.4543953E+03  0.7546771E-02  0.1026419E+00
         21   -1    0    0  502  501  0.00000000000E+00  0.00000000000E+00  0.38318851949E+02  0.38318851949E+02  0.00000000000E+00 0.  1.
         21   -1    0    0  501  502 -0.00000000000E+00 -0.00000000000E+00 -0.13470854491E+04  0.13470854491E+04  0.00000000000E+00 0.  1.
      99926    2    1    2    0    0  0.00000000000E+00 -0.35527136788E-14 -0.13087665971E+04  0.13854043010E+04  0.45439528117E+03 0.  0.
      99925    2    3    3    0    0 -0.71933199384E+02 -0.20955856252E+02 -0.56820777333E+03  0.63062723945E+03  0.26309144489E+03 0.  0.
         25    1    4    4    0    0 -0.10242869802E+02  0.20229309722E+02 -0.29197631063E+03  0.31845221843E+03  0.12509000000E+03 0.  0.
         25    1    3    3    0    0  0.71933199384E+02  0.20955856252E+02 -0.74055882382E+03  0.75477706160E+03  0.12509000000E+03 0.  0.
         25    1    4    4    0    0 -0.61690329582E+02 -0.41185165974E+02 -0.27623146270E+03  0.31217502101E+03  0.12509000000E+03 0.  0.
<mgrwt>
<rscale>  2 0.45439528E+03</rscale>
<asrwt>0</asrwt>
<pdfrwt beam="1">  1       21 0.56351271E-02 0.45439528E+03</pdfrwt>
<pdfrwt beam="2">  1       21 0.19810074E+00 0.45439528E+03</pdfrwt>
<totfact> 0.26849536E+04</totfact>
</mgrwt>
</event>
<event>
 7    0  0.4766352E-002  0.4474596E+03  0.7546771E-02  0.1028482E+00
         21   -1    0    0  502  501  0.00000000000E+00  0.00000000000E+00  0.87449834778E+02  0.87449834778E+02  0.00000000000E+00 0. -1.
         21   -1    0    0  501  502 -0.00000000000E+00 -0.00000000000E+00 -0.57238551058E+03  0.57238551058E+03  0.00000000000E+00 0. -1.
      99926    2    1    2    0    0  0.00000000000E+00  0.00000000000E+00 -0.48493567580E+03  0.65983534535E+03  0.44745957730E+03 0.  0.
      99925    2    3    3    0    0  0.17784672670E+02  0.13958100365E+02 -0.15473636818E+03  0.30601305380E+03  0.26303901291E+03 0.  0.
         25    1    4    4    0    0 -0.11323177622E+02 -0.60176497129E+01 -0.38137290983E+02  0.13140162679E+03  0.12509000000E+03 0.  0.
         25    1    3    3    0    0 -0.17784672670E+02 -0.13958100365E+02 -0.33019930762E+03  0.35382229155E+03  0.12509000000E+03 0.  0.
         25    1    4    4    0    0  0.29107850292E+02  0.19975750078E+02 -0.11659907720E+03  0.17461142701E+03  0.12509000000E+03 0.  0.
<mgrwt>
<rscale>  2 0.44745958E+03</rscale>
<asrwt>0</asrwt>
<pdfrwt beam="1">  1       21 0.12860270E-01 0.44745958E+03</pdfrwt>
<pdfrwt beam="2">  1       21 0.84174340E-01 0.44745958E+03</pdfrwt>
<totfact> 0.58541524E+04</totfact>
</mgrwt>
</event>
<event>
 7    0  0.4766352E-002  0.4561723E+03  0.7546771E-02  0.1025897E+00
         21   -1    0    0  502  501  0.00000000000E+00  0.00000000000E+00  0.64901892710E+02  0.64901892710E+02  0.00000000000E+00 0. -1.
         21   -1    0    0  501  502 -0.00000000000E+00 -0.00000000000E+00 -0.80156823364E+03  0.80156823364E+03  0.00000000000E+00 0. -1.
      99926    2    1    2    0    0  0.00000000000E+00 -0.14210854715E-13 -0.73666634092E+03  0.86647012635E+03  0.45617231612E+03 0.  0.
      99925    2    3    3    0    0 -0.33157335146E+02 -0.73885952126E+02 -0.30987748399E+03  0.41441395804E+03  0.26297591285E+03 0.  0.
         25    1    4    4    0    0 -0.44346635363E+02 -0.31295004314E+02 -0.11329816403E+03  0.17728503444E+03  0.12509000000E+03 0.  0.
         25    1    3    3    0    0  0.33157335146E+02  0.73885952126E+02 -0.42678885694E+03  0.45205616830E+03  0.12509000000E+03 0.  0.
         25    1    4    4    0    0  0.11189300216E+02 -0.42590947811E+02 -0.19657931995E+03  0.23712892360E+03  0.12509000000E+03 0.  0.
<mgrwt>
<rscale>  2 0.45617232E+03</rscale>
<asrwt>0</asrwt>
<pdfrwt beam="1">  1       21 0.95443955E-02 0.45617232E+03</pdfrwt>
<pdfrwt beam="2">  1       21 0.11787769E+00 0.45617232E+03</pdfrwt>
<totfact> 0.44302517E+04</totfact>
</mgrwt>
</event>
<event>
 7    0  0.4766352E-002  0.4513136E+03  0.7546771E-02  0.1027331E+00
         21   -1    0    0  502  501  0.00000000000E+00  0.00000000000E+00  0.28675554057E+02  0.28675554057E+02  0.00000000000E+00 0. -1.
         21   -1    0    0  501  502 -0.00000000000E+00 -0.00000000000E+00 -0.17757631404E+04  0.17757631404E+04  0.00000000000E+00 0. -1.
      99926    2    1    2    0    0  0.00000000000E+00  0.17763568394E-14 -0.17470875863E+04  0.18044386945E+04  0.45131360239E+03 0.  0.
      99925    2    3    3    0    0  0.25385903096E+02  0.10092926379E+02 -0.15277322396E+04  0.15504493493E+04  0.26302295983E+03 0.  0.
         25    1    4    4    0    0 -0.39694253702E+01  0.20698860640E+02 -0.95483269317E+03  0.96322228962E+03  0.12509000000E+03 0.  0.
         25    1    3    3    0    0 -0.25385903096E+02 -0.10092926379E+02 -0.21935534672E+03  0.25398934520E+03  0.12509000000E+03 0.  0.
         25    1    4    4    0    0  0.29355328467E+02 -0.10605934261E+02 -0.57289954645E+03  0.58722705964E+03  0.12509000000E+03 0.  0.
<mgrwt>
<rscale>  2 0.45131360E+03</rscale>
<asrwt>0</asrwt>
<pdfrwt beam="1">  1       21 0.42169922E-02 0.45131360E+03</pdfrwt>
<pdfrwt beam="2">  1       21 0.26114170E+00 0.45131360E+03</pdfrwt>
<totfact> 0.17674734E+04</totfact>
</mgrwt>
</event>
<event>
 7    0  0.4766352E-002  0.4111374E+03  0.7546771E-02  0.1039990E+00
         21   -1    0    0  502  501  0.00000000000E+00  0.00000000000E+00  0.35461703394E+03  0.35461703394E+03  0.00000000000E+00 0. -1.
         21   -1    0    0  501  502 -0.00000000000E+00 -0.00000000000E+00 -0.11916658379E+03  0.11916658379E+03  0.00000000000E+00 0. -1.
      99926    2    1    2    0    0  0.35527136788E-14 -0.35527136788E-14  0.23545045015E+03  0.47378361773E+03  0.41113744898E+03 0.  0.
      99925    2    3    3    0    0 -0.31045062451E+02  0.18004100446E+02  0.21590647965E+03  0.34218795512E+03  0.26303810586E+03 0.  0.
         25    1    3    3    0    0  0.31045062451E+02 -0.18004100446E+02  0.19543970495E+02  0.13159566261E+03  0.12509000000E+03 0.  0.
         25    1    4    4    0    0 -0.55010729580E+02  0.19901931278E+02  0.11157443272E+03  0.17753486805E+03  0.12509000000E+03 0.  0.
         25    1    4    4    0    0  0.23965667129E+02 -0.18978308316E+01  0.10433204693E+03  0.16465308707E+03  0.12509000000E+03 0.  0.
<mgrwt>
<rscale>  2 0.41113745E+03</rscale>
<asrwt>0</asrwt>
<pdfrwt beam="1">  1       21 0.52149564E-01 0.41113745E+03</pdfrwt>
<pdfrwt beam="2">  1       21 0.17524498E-01 0.41113745E+03</pdfrwt>
<totfact> 0.96669496E+04</totfact>
</mgrwt>
</event>
<event>
 7    0  0.4766352E-002  0.4385943E+03  0.7546771E-02  0.1031179E+00
         21   -1    0    0  502  501  0.00000000000E+00  0.00000000000E+00  0.13714038895E+04  0.13714038895E+04  0.00000000000E+00 0. -1.
         21   -1    0    0  501  502 -0.00000000000E+00 -0.00000000000E+00 -0.35067156401E+02  0.35067156401E+02  0.00000000000E+00 0. -1.
      99926    2    1    2    0    0  0.00000000000E+00  0.00000000000E+00  0.13363367331E+04  0.14064710459E+04  0.43859427576E+03 0.  0.
      99925    2    3    3    0    0 -0.24861911189E+02 -0.68318323102E+02  0.64858138914E+03  0.70366208954E+03  0.26305324559E+03 0.  0.
         25    1    4    4    0    0 -0.34727515897E+02 -0.60063492163E+02  0.40532927253E+03  0.42982897845E+03  0.12509000000E+03 0.  0.
         25    1    3    3    0    0  0.24861911189E+02  0.68318323102E+02  0.68775534398E+03  0.70280895638E+03  0.12509000000E+03 0.  0.
         25    1    4    4    0    0  0.98656047082E+01 -0.82548309387E+01  0.24325211661E+03  0.27383311109E+03  0.12509000000E+03 0.  0.
<mgrwt>
<rscale>  2 0.43859428E+03</rscale>
<asrwt>0</asrwt>
<pdfrwt beam="1">  1       21 0.20167701E+00 0.43859428E+03</pdfrwt>
<pdfrwt beam="2">  1       21 0.51569357E-02 0.43859428E+03</pdfrwt>
<totfact> 0.29779621E+04</totfact>
</mgrwt>
</event>
<event>
 7    0  0.4766352E-002  0.4498761E+03  0.7546771E-02  0.1027759E+00
         21   -1    0    0  502  501  0.00000000000E+00  0.00000000000E+00  0.29797640299E+03  0.29797640299E+03  0.00000000000E+00 0.  1.
         21   -1    0    0  501  502 -0.00000000000E+00 -0.00000000000E+00 -0.16980247447E+03  0.16980247447E+03  0.00000000000E+00 0.  1.
      99926    2    1    2    0    0 -0.35527136788E-14  0.00000000000E+00  0.12817392852E+03  0.46777887747E+03  0.44987611878E+03 0.  0.
      99925    2    3    3    0    0  0.29942648202E+02 -0.18377562410E+02 -0.25510761012E+02  0.26653079952E+03  0.26297066601E+03 0.  0.
         25    1    4    4    0    0  0.48971349784E+02 -0.25302383975E+02  0.26453647482E+01  0.13672201648E+03  0.12509000000E+03 0.  0.
         25    1    4    4    0    0 -0.19028701581E+02  0.69248215658E+01 -0.28156125760E+02  0.12980878304E+03  0.12509000000E+03 0.  0.
         25    1    3    3    0    0 -0.29942648202E+02  0.18377562410E+02  0.15368468953E+03  0.20124807795E+03  0.12509000000E+03 0.  0.
<mgrwt>
<rscale>  2 0.44987612E+03</rscale>
<asrwt>0</asrwt>
<pdfrwt beam="1">  1       21 0.43820059E-01 0.44987612E+03</pdfrwt>
<pdfrwt beam="2">  1       21 0.24970952E-01 0.44987612E+03</pdfrwt>
<totfact> 0.70420673E+04</totfact>
</mgrwt>
</event>
<event>
 7    0  0.4766352E-002  0.4513451E+03  0.7546771E-02  0.1027322E+00
         21   -1    0    0  502  501  0.00000000000E+00  0.00000000000E+00  0.68259808857E+03  0.68259808857E+03  0.00000000000E+00 0.  1.
         21   -1    0    0  501  502 -0.00000000000E+00 -0.00000000000E+00 -0.74609214191E+02  0.74609214191E+02  0.00000000000E+00 0.  1.
      99926    2    1    2    0    0  0.00000000000E+00  0.71054273576E-14  0.60798887438E+03  0.75720730276E+03  0.45134513178E+03 0.  0.
      99925    2    3    3    0    0 -0.83597763919E+02  0.42928841581E+02  0.47883261874E+03  0.55432724450E+03  0.26299533389E+03 0.  0.
         25    1    4    4    0    0 -0.66937189446E+02  0.42360657077E+02  0.20565632184E+03  0.25341081944E+03  0.12509000000E+03 0.  0.
         25    1    3    3    0    0  0.83597763919E+02 -0.42928841581E+02  0.12915625564E+03  0.20288005827E+03  0.12509000000E+03 0.  0.
         25    1    4    4    0    0 -0.16660574473E+02  0.56818450478E+00  0.27317629691E+03  0.30091642505E+03  0.12509000000E+03 0.  0.
<mgrwt>
<rscale>  2 0.45134513E+03</rscale>
<asrwt>0</asrwt>
<pdfrwt beam="1">  1       21 0.10038207E+00 0.45134513E+03</pdfrwt>
<pdfrwt beam="2">  1       21 0.10971944E-01 0.45134513E+03</pdfrwt>
<totfact> 0.51361777E+04</totfact>
</mgrwt>
</event>
<event>
 7    0  0.4766352E-002  0.4474429E+03  0.7546771E-02  0.1028487E+00
         21   -1    0    0  502  501  0.00000000000E+00  0.00000000000E+00  0.16951139560E+04  0.16951139560E+04  0.00000000000E+00 0. -1.
         21   -1    0    0  501  502 -0.00000000000E+00 -0.00000000000E+00 -0.29526793938E+02  0.29526793938E+02  0.00000000000E+00 0. -1.
      99926    2    1    2    0    0  0.00000000000E+00 -0.35527136788E-14  0.16655871620E+04  0.17246407499E+04  0.44744287001E+03 0.  0.
      99925    2    3    3    0    0  0.58202928416E+01  0.19189088089E+02  0.14574672365E+04  0.14809944727E+04  0.26216747643E+03 0.  0.
         25    1    4    4    0    0  0.23998644576E+02  0.40236938022E+02  0.67267876853E+03  0.68581278775E+03  0.12509000000E+03 0.  0.
         25    1    3    3    0    0 -0.58202928416E+01 -0.19189088089E+02  0.20811992555E+03  0.24364627726E+03  0.12509000000E+03 0.  0.
         25    1    4    4    0    0 -0.18178351734E+02 -0.21047849933E+02  0.78478846796E+03  0.79518168490E+03  0.12509000000E+03 0.  0.
<mgrwt>
<rscale>  2 0.44744287E+03</rscale>
<asrwt>0</asrwt>
<pdfrwt beam="1">  1       21 0.24928140E+00 0.44744287E+03</pdfrwt>
<pdfrwt beam="2">  1       21 0.43421767E-02 0.44744287E+03</pdfrwt>
<totfact> 0.19895369E+04</totfact>
</mgrwt>
</event>
<event>
 7    0  0.4766352E-002  0.4551399E+03  0.7546771E-02  0.1026200E+00
         21   -1    0    0  502  501  0.00000000000E+00  0.00000000000E+00  0.45523808968E+03  0.45523808968E+03  0.00000000000E+00 0.  1.
         21   -1    0    0  501  502 -0.00000000000E+00 -0.00000000000E+00 -0.11376044913E+03  0.11376044913E+03  0.00000000000E+00 0.  1.
      99926    2    1    2    0    0  0.00000000000E+00  0.00000000000E+00  0.34147764055E+03  0.56899853881E+03  0.45513993252E+03 0.  0.
      99925    2    3    3    0    0  0.93353715451E+02 -0.32368465490E+02  0.14559698817E+03  0.31645275717E+03  0.26302325146E+03 0.  0.
         25    1    4    4    0    0  0.22807750935E+02  0.16070781278E+02  0.51935591801E+02  0.13828693832E+03  0.12509000000E+03 0.  0.
         25    1    4    4    0    0  0.70545964516E+02 -0.48439246767E+02  0.93661396369E+02  0.17816581885E+03  0.12509000000E+03 0.  0.
         25    1    3    3    0    0 -0.93353715451E+02  0.32368465490E+02  0.19588065238E+03  0.25254578164E+03  0.12509000000E+03 0.  0.
<mgrwt>
<rscale>  2 0.45513993E+03</rscale>
<asrwt>0</asrwt>
<pdfrwt beam="1">  1       21 0.66946777E-01 0.45513993E+03</pdfrwt>
<pdfrwt beam="2">  1       21 0.16729478E-01 0.45513993E+03</pdfrwt>
<totfact> 0.60561212E+04</totfact>
</mgrwt>
</event>
<event>
 7    0  0.4766352E-002  0.4555637E+03  0.7546771E-02  0.1026076E+00
         21   -1    0    0  502  501  0.00000000000E+00  0.00000000000E+00  0.67031756113E+03  0.67031756113E+03  0.00000000000E+00 0.  1.
         21   -1    0    0  501  502 -0.00000000000E+00 -0.00000000000E+00 -0.77402965731E+02  0.77402965731E+02  0.00000000000E+00 0.  1.
      99926    2    1    2    0    0  0.00000000000E+00 -0.71054273576E-14  0.59291459540E+03  0.74772052686E+03  0.45556368254E+03 0.  0.
      99925    2    3    3    0    0  0.82202838568E+02 -0.58471417481E+02  0.28583806036E+03  0.40113760777E+03  0.26273897748E+03 0.  0.
         25    1    4    4    0    0  0.16913521431E+02 -0.88612573142E+01  0.92727092991E+02  0.15687705684E+03  0.12509000000E+03 0.  0.
         25    1    3    3    0    0 -0.82202838568E+02  0.58471417481E+02  0.30707653504E+03  0.34658291909E+03  0.12509000000E+03 0.  0.
         25    1    4    4    0    0  0.65289317137E+02 -0.49610160167E+02  0.19311096736E+03  0.24426055093E+03  0.12509000000E+03 0.  0.
<mgrwt>
<rscale>  2 0.45556368E+03</rscale>
<asrwt>0</asrwt>
<pdfrwt beam="1">  1       21 0.98576108E-01 0.45556368E+03</pdfrwt>
<pdfrwt beam="2">  1       21 0.11382789E-01 0.45556368E+03</pdfrwt>
<totfact> 0.50164809E+04</totfact>
</mgrwt>
</event>
<event>
 7    0  0.4766352E-002  0.4570798E+03  0.7546771E-02  0.1025632E+00
         21   -1    0    0  502  501  0.00000000000E+00  0.00000000000E+00  0.52320407048E+03  0.52320407048E+03  0.00000000000E+00 0. -1.
         21   -1    0    0  501  502 -0.00000000000E+00 -0.00000000000E+00 -0.99828142828E+02  0.99828142828E+02  0.00000000000E+00 0. -1.
      99926    2    1    2    0    0  0.00000000000E+00 -0.14210854715E-13  0.42337592766E+03  0.62303221331E+03  0.45707982093E+03 0.  0.
      99925    2    3    3    0    0 -0.93853501404E+02  0.64907844175E+02  0.28713198578E+03  0.40570428653E+03  0.26292524202E+03 0.  0.
         25    1    4    4    0    0 -0.63349481117E+02 -0.45619423489E+01  0.13770274724E+03  0.19657955838E+03  0.12509000000E+03 0.  0.
         25    1    4    4    0    0 -0.30504020286E+02  0.69469786523E+02  0.14942923854E+03  0.20912472815E+03  0.12509000000E+03 0.  0.
         25    1    3    3    0    0  0.93853501404E+02 -0.64907844175E+02  0.13624394188E+03  0.21732792678E+03  0.12509000000E+03 0.  0.
<mgrwt>
<rscale>  2 0.45707982E+03</rscale>
<asrwt>0</asrwt>
<pdfrwt beam="1">  1       21 0.76941774E-01 0.45707982E+03</pdfrwt>
<pdfrwt beam="2">  1       21 0.14680609E-01 0.45707982E+03</pdfrwt>
<totfact> 0.56351386E+04</totfact>
</mgrwt>
</event>
<event>
 7    0  0.4766352E-002  0.4463375E+03  0.7546771E-02  0.1028820E+00
         21   -1    0    0  502  501  0.00000000000E+00  0.00000000000E+00  0.12829155088E+03  0.12829155088E+03  0.00000000000E+00 0.  1.
         21   -1    0    0  501  502 -0.00000000000E+00 -0.00000000000E+00 -0.38821181283E+03  0.38821181283E+03  0.00000000000E+00 0.  1.
      99926    2    1    2    0    0 -0.14210854715E-13  0.00000000000E+00 -0.25992026196E+03  0.51650336371E+03  0.44633752044E+03 0.  0.
      99925    2    3    3    0    0  0.69466216287E+02  0.76609075364E+02 -0.14477370368E+03  0.31750400789E+03  0.26297312433E+03 0.  0.
         25    1    4    4    0    0  0.10657160204E+02  0.41625158501E+02 -0.32963686837E+02  0.13630972685E+03  0.12509000000E+03 0.  0.
         25    1    3    3    0    0 -0.69466216287E+02 -0.76609075364E+02 -0.11514655828E+03  0.19899935582E+03  0.12509000000E+03 0.  0.
         25    1    4    4    0    0  0.58809056083E+02  0.34983916863E+02 -0.11181001684E+03  0.18119428104E+03  0.12509000000E+03 0.  0.
<mgrwt>
<rscale>  2 0.44633752E+03</rscale>
<asrwt>0</asrwt>
<pdfrwt beam="1">  1       21 0.18866405E-01 0.44633752E+03</pdfrwt>
<pdfrwt beam="2">  1       21 0.57089972E-01 0.44633752E+03</pdfrwt>
<totfact> 0.68729250E+04</totfact>
</mgrwt>
</event>
<event>
 7    0  0.4766352E-002  0.4511683E+03  0.7546771E-02  0.1027374E+00
         21   -1    0    0  502  501  0.00000000000E+00  0.00000000000E+00  0.28544820893E+02  0.28544820893E+02  0.00000000000E+00 0. -1.
         21   -1    0    0  501  502 -0.00000000000E+00 -0.00000000000E+00 -0.17827473455E+04  0.17827473455E+04  0.00000000000E+00 0. -1.
      99926    2    1    2    0    0  0.00000000000E+00  0.00000000000E+00 -0.17542025246E+04  0.18112921664E+04  0.45116827758E+03 0.  0.
      99925    2    3    3    0    0 -0.59731823107E+02  0.88118089812E+02 -0.12107442172E+04  0.12435535572E+04  0.26304220488E+03 0.  0.
         25    1    4    4    0    0 -0.20445582893E+02  0.39012552983E+02 -0.76268343925E+03  0.77412759786E+03  0.12509000000E+03 0.  0.
         25    1    3    3    0    0  0.59731823107E+02 -0.88118089812E+02 -0.54345830732E+03  0.56773860917E+03  0.12509000000E+03 0.  0.
         25    1    4    4    0    0 -0.39286240213E+02  0.49105536829E+02 -0.44806077799E+03  0.46942595933E+03  0.12509000000E+03 0.  0.
<mgrwt>
<rscale>  2 0.45116828E+03</rscale>
<asrwt>0</asrwt>
<pdfrwt beam="1">  1       21 0.41977679E-02 0.45116828E+03</pdfrwt>
<pdfrwt beam="2">  1       21 0.26216872E+00 0.45116828E+03</pdfrwt>
<totfact> 0.17559992E+04</totfact>
</mgrwt>
</event>
<event>
 7    0  0.4766352E-002  0.4382506E+03  0.7546771E-02  0.1031285E+00
         21   -1    0    0  502  501  0.00000000000E+00  0.00000000000E+00  0.65406746827E+02  0.65406746827E+02  0.00000000000E+00 0.  1.
         21   -1    0    0  501  502 -0.00000000000E+00 -0.00000000000E+00 -0.73411228824E+03  0.73411228824E+03  0.00000000000E+00 0.  1.
      99926    2    1    2    0    0  0.00000000000E+00  0.00000000000E+00 -0.66870554141E+03  0.79951903507E+03  0.43825059762E+03 0.  0.
      99925    2    3    3    0    0  0.16630914882E+02 -0.85387734085E+02 -0.35036424473E+03  0.44659362973E+03  0.26291274915E+03 0.  0.
         25    1    4    4    0    0  0.23981755898E+02 -0.56311466238E+02 -0.12515394597E+03  0.18723547778E+03  0.12509000000E+03 0.  0.
         25    1    3    3    0    0 -0.16630914882E+02  0.85387734085E+02 -0.31834129668E+03  0.35292540534E+03  0.12509000000E+03 0.  0.
         25    1    4    4    0    0 -0.73508410159E+01 -0.29076267847E+02 -0.22521029876E+03  0.25935815195E+03  0.12509000000E+03 0.  0.
<mgrwt>
<rscale>  2 0.43825060E+03</rscale>
<asrwt>0</asrwt>
<pdfrwt beam="1">  1       21 0.96186386E-02 0.43825060E+03</pdfrwt>
<pdfrwt beam="2">  1       21 0.10795770E+00 0.43825060E+03</pdfrwt>
<totfact> 0.54621874E+04</totfact>
</mgrwt>
</event>
<event>
 7    0  0.4766352E-002  0.4521555E+03  0.7546771E-02  0.1027081E+00
         21   -1    0    0  502  501  0.00000000000E+00  0.00000000000E+00  0.87751034917E+02  0.87751034917E+02  0.00000000000E+00 0.  1.
         21   -1    0    0  501  502 -0.00000000000E+00 -0.00000000000E+00 -0.58245649592E+03  0.58245649592E+03  0.00000000000E+00 0.  1.
      99926    2    1    2    0    0  0.00000000000E+00  0.00000000000E+00 -0.49470546101E+03  0.67020753084E+03  0.45215554983E+03 0.  0.
      99925    2    3    3    0    0  0.77383773626E+02  0.59419511713E+02 -0.23331638352E+03  0.36444506630E+03  0.26242093045E+03 0.  0.
         25    1    3    3    0    0 -0.77383773626E+02 -0.59419511713E+02 -0.26138907748E+03  0.30576246454E+03  0.12509000000E+03 0.  0.
         25    1    4    4    0    0  0.42250214598E+02  0.36841730394E+02 -0.68132635758E+02  0.15307500739E+03  0.12509000000E+03 0.  0.
         25    1    4    4    0    0  0.35133559028E+02  0.22577781319E+02 -0.16518374776E+03  0.21137005891E+03  0.12509000000E+03 0.  0.
<mgrwt>
<rscale>  2 0.45215555E+03</rscale>
<asrwt>0</asrwt>
<pdfrwt beam="1">  1       21 0.12904564E-01 0.45215555E+03</pdfrwt>
<pdfrwt beam="2">  1       21 0.85655369E-01 0.45215555E+03</pdfrwt>
<totfact> 0.55791031E+04</totfact>
</mgrwt>
</event>
<event>
 7    0  0.4766352E-002  0.4632026E+03  0.7546771E-02  0.1023856E+00
         21   -1    0    0  502  501  0.00000000000E+00  0.00000000000E+00  0.10868041465E+03  0.10868041465E+03  0.00000000000E+00 0.  1.
         21   -1    0    0  501  502 -0.00000000000E+00 -0.00000000000E+00 -0.49354945364E+03  0.49354945364E+03  0.00000000000E+00 0.  1.
      99926    2    1    2    0    0 -0.71054273576E-14 -0.71054273576E-14 -0.38486903899E+03  0.60222986829E+03  0.46320258752E+03 0.  0.
      99925    2    3    3    0    0  0.32143856440E+02 -0.50023272380E+02 -0.37688606591E+03  0.46349706306E+03  0.26315559182E+03 0.  0.
         25    1    4    4    0    0  0.48368430760E+02 -0.43556071130E+00 -0.19487468308E+03  0.23656573085E+03  0.12509000000E+03 0.  0.
         25    1    4    4    0    0 -0.16224574320E+02 -0.49587711669E+02 -0.18201138283E+03  0.22693133221E+03  0.12509000000E+03 0.  0.
         25    1    3    3    0    0 -0.32143856440E+02  0.50023272380E+02 -0.79829730818E+01  0.13873280523E+03  0.12509000000E+03 0.  0.
<mgrwt>
<rscale>  2 0.46320259E+03</rscale>
<asrwt>0</asrwt>
<pdfrwt beam="1">  1       21 0.15982414E-01 0.46320259E+03</pdfrwt>
<pdfrwt beam="2">  1       21 0.72580801E-01 0.46320259E+03</pdfrwt>
<totfact> 0.54896004E+04</totfact>
</mgrwt>
</event>
<event>
 7    0  0.4766352E-002  0.4569602E+03  0.7546771E-02  0.1025667E+00
         21   -1    0    0  502  501  0.00000000000E+00  0.00000000000E+00  0.32965269108E+03  0.32965269108E+03  0.00000000000E+00 0.  1.
         21   -1    0    0  501  502 -0.00000000000E+00 -0.00000000000E+00 -0.15835803577E+03  0.15835803577E+03  0.00000000000E+00 0.  1.
      99926    2    1    2    0    0  0.00000000000E+00 -0.14210854715E-13  0.17129465531E+03  0.48801072685E+03  0.45696018490E+03 0.  0.
      99925    2    3    3    0    0 -0.41997996889E+02  0.93409557189E+02  0.51741855278E+02  0.28693970156E+03  0.26299809053E+03 0.  0.
         25    1    4    4    0    0 -0.40645544025E+02  0.78006808208E+02  0.66167425955E+01  0.15306342397E+03  0.12509000000E+03 0.  0.
         25    1    3    3    0    0  0.41997996889E+02 -0.93409557189E+02  0.11955280003E+03  0.20107102529E+03  0.12509000000E+03 0.  0.
         25    1    4    4    0    0 -0.13524528646E+01  0.15402748981E+02  0.45125112683E+02  0.13387627758E+03  0.12509000000E+03 0.  0.
<mgrwt>
<rscale>  2 0.45696018E+03</rscale>
<asrwt>0</asrwt>
<pdfrwt beam="1">  1       21 0.48478337E-01 0.45696018E+03</pdfrwt>
<pdfrwt beam="2">  1       21 0.23287947E-01 0.45696018E+03</pdfrwt>
<totfact> 0.65102469E+04</totfact>
</mgrwt>
</event>
<event>
 7    0  0.4766352E-002  0.4245661E+03  0.7546771E-02  0.1035590E+00
         21   -1    0    0  502  501  0.00000000000E+00  0.00000000000E+00  0.19112355460E+03  0.19112355460E+03  0.00000000000E+00 0. -1.
         21   -1    0    0  501  502 -0.00000000000E+00 -0.00000000000E+00 -0.23578512553E+03  0.23578512553E+03  0.00000000000E+00 0. -1.
      99926    2    1    2    0    0  0.00000000000E+00  0.00000000000E+00 -0.44661570934E+02  0.42690868013E+03  0.42456609056E+03 0.  0.
      99925    2    3    3    0    0  0.24091776604E+02 -0.15413208162E+02  0.46984204960E+02  0.26922406761E+03  0.26354525680E+03 0.  0.
         25    1    3    3    0    0 -0.24091776604E+02  0.15413208162E+02 -0.91645775894E+02  0.15768461252E+03  0.12509000000E+03 0.  0.
         25    1    4    4    0    0 -0.90898448041E+01 -0.28183661817E+02 -0.62642480122E+01  0.12870001156E+03  0.12509000000E+03 0.  0.
         25    1    4    4    0    0  0.33181621408E+02  0.12770453656E+02  0.53248452972E+02  0.14052405605E+03  0.12509000000E+03 0.  0.
<mgrwt>
<rscale>  2 0.42456609E+03</rscale>
<asrwt>0</asrwt>
<pdfrwt beam="1">  1       21 0.28106405E-01 0.42456609E+03</pdfrwt>
<pdfrwt beam="2">  1       21 0.34674283E-01 0.42456609E+03</pdfrwt>
<totfact> 0.90773499E+04</totfact>
</mgrwt>
</event>
<event>
 7    0  0.4766352E-002  0.4149965E+03  0.7546771E-02  0.1038707E+00
         21   -1    0    0  502  501  0.00000000000E+00  0.00000000000E+00  0.12347833215E+03  0.12347833215E+03  0.00000000000E+00 0.  1.
         21   -1    0    0  501  502 -0.00000000000E+00 -0.00000000000E+00 -0.34868887401E+03  0.34868887401E+03  0.00000000000E+00 0.  1.
      99926    2    1    2    0    0  0.71054273576E-14 -0.88817841970E-15 -0.22521054186E+03  0.47216720617E+03  0.41499648482E+03 0.  0.
      99925    2    3    3    0    0  0.48837633484E+02 -0.21671211324E+01 -0.20344455302E+03  0.33611178647E+03  0.26304303068E+03 0.  0.
         25    1    4    4    0    0 -0.15939386872E+02 -0.82501803710E+01 -0.10227726196E+03  0.16257390917E+03  0.12509000000E+03 0.  0.
         25    1    3    3    0    0 -0.48837633484E+02  0.21671211324E+01 -0.21765988835E+02  0.13605541969E+03  0.12509000000E+03 0.  0.
         25    1    4    4    0    0  0.64777020356E+02  0.60830592386E+01 -0.10116729107E+03  0.17353787730E+03  0.12509000000E+03 0.  0.
<mgrwt>
<rscale>  2 0.41499648E+03</rscale>
<asrwt>0</asrwt>
<pdfrwt beam="1">  1       21 0.18158578E-01 0.41499648E+03</pdfrwt>
<pdfrwt beam="2">  1       21 0.51277775E-01 0.41499648E+03</pdfrwt>
<totfact> 0.93662838E+04</totfact>
</mgrwt>
</event>
<event>
 7    0  0.4766352E-002  0.4604751E+03  0.7546771E-02  0.1024644E+00
         21   -1    0    0  502  501  0.00000000000E+00  0.00000000000E+00  0.24096598197E+03  0.24096598197E+03  0.00000000000E+00 0. -1.
         21   -1    0    0  501  502 -0.00000000000E+00 -0.00000000000E+00 -0.21998673290E+03  0.21998673290E+03  0.00000000000E+00 0. -1.
      99926    2    1    2    0    0  0.00000000000E+00 -0.35527136788E-14  0.20979249078E+02  0.46095271487E+03  0.46047505519E+03 0.  0.
      99925    2    3    3    0    0 -0.96773874248E+01 -0.29914964869E+02  0.12741140408E+03  0.29372870742E+03  0.26278190714E+03 0.  0.
         25    1    3    3    0    0  0.96773874248E+01  0.29914964869E+02 -0.10643215501E+03  0.16722400746E+03  0.12509000000E+03 0.  0.
         25    1    4    4    0    0 -0.23044914040E+01  0.50274569143E+01  0.10127194926E+03  0.16104068371E+03  0.12509000000E+03 0.  0.
         25    1    4    4    0    0 -0.73728960208E+01 -0.34942421783E+02  0.26139454824E+02  0.13268802370E+03  0.12509000000E+03 0.  0.
<mgrwt>
<rscale>  2 0.46047506E+03</rscale>
<asrwt>0</asrwt>
<pdfrwt beam="1">  1       21 0.35436174E-01 0.46047506E+03</pdfrwt>
<pdfrwt beam="2">  1       21 0.32350990E-01 0.46047506E+03</pdfrwt>
<totfact> 0.65216054E+04</totfact>
</mgrwt>
</event>
<event>
 7    0  0.4766352E-002  0.4616643E+03  0.7546771E-02  0.1024300E+00
         21   -1    0    0  502  501  0.00000000000E+00  0.00000000000E+00  0.50596363424E+02  0.50596363424E+02  0.00000000000E+00 0.  1.
         21   -1    0    0  501  502 -0.00000000000E+00 -0.00000000000E+00 -0.10531090782E+04  0.10531090782E+04  0.00000000000E+00 0.  1.
      99926    2    1    2    0    0  0.00000000000E+00  0.00000000000E+00 -0.10025127147E+04  0.11037054416E+04  0.46166433539E+03 0.  0.
      99925    2    3    3    0    0  0.93634443814E+02 -0.66214113476E+02 -0.71340281554E+03  0.76846857040E+03  0.26162692631E+03 0.  0.
         25    1    4    4    0    0  0.84493775568E+02 -0.26665002720E+02 -0.35416211391E+03  0.38591259568E+03  0.12509000000E+03 0.  0.
         25    1    3    3    0    0 -0.93634443814E+02  0.66214113476E+02 -0.28910989919E+03  0.33523687119E+03  0.12509000000E+03 0.  0.
         25    1    4    4    0    0  0.91406682460E+01 -0.39549110756E+02 -0.35924070163E+03  0.38255597471E+03  0.12509000000E+03 0.  0.
<mgrwt>
<rscale>  2 0.46166434E+03</rscale>
<asrwt>0</asrwt>
<pdfrwt beam="1">  1       21 0.74406422E-02 0.46166434E+03</pdfrwt>
<pdfrwt beam="2">  1       21 0.15486897E+00 0.46166434E+03</pdfrwt>
<totfact> 0.33585687E+04</totfact>
</mgrwt>
</event>
<event>
 7    0  0.4766352E-002  0.4528420E+03  0.7546771E-02  0.1026878E+00
         21   -1    0    0  502  501  0.00000000000E+00  0.00000000000E+00  0.14092158922E+03  0.14092158922E+03  0.00000000000E+00 0.  1.
         21   -1    0    0  501  502 -0.00000000000E+00 -0.00000000000E+00 -0.36379423758E+03  0.36379423758E+03  0.00000000000E+00 0.  1.
      99926    2    1    2    0    0  0.00000000000E+00  0.00000000000E+00 -0.22287264836E+03  0.50471582679E+03  0.45284196850E+03 0.  0.
      99925    2    3    3    0    0  0.91109676945E+02  0.46902429375E+02 -0.18835886284E+03  0.33936915884E+03  0.26304287416E+03 0.  0.
         25    1    4    4    0    0  0.54650319008E+02 -0.97420069212E+01 -0.11859035158E+03  0.18108766842E+03  0.12509000000E+03 0.  0.
         25    1    3    3    0    0 -0.91109676945E+02 -0.46902429375E+02 -0.34513785515E+02  0.16534666796E+03  0.12509000000E+03 0.  0.
         25    1    4    4    0    0  0.36459357937E+02  0.56644436296E+02 -0.69768511264E+02  0.15828149042E+03  0.12509000000E+03 0.  0.
<mgrwt>
<rscale>  2 0.45284197E+03</rscale>
<asrwt>0</asrwt>
<pdfrwt beam="1">  1       21 0.20723763E-01 0.45284197E+03</pdfrwt>
<pdfrwt beam="2">  1       21 0.53499152E-01 0.45284197E+03</pdfrwt>
<totfact> 0.66064981E+04</totfact>
</mgrwt>
</event>
<event>
 7    0  0.4766352E-002  0.4474781E+03  0.7546771E-02  0.1028477E+00
         21   -1    0    0  502  501  0.00000000000E+00  0.00000000000E+00  0.55577131091E+03  0.55577131091E+03  0.00000000000E+00 0. -1.
         21   -1    0    0  501  502 -0.00000000000E+00 -0.00000000000E+00 -0.90071531003E+02  0.90071531003E+02  0.00000000000E+00 0. -1.
      99926    2    1    2    0    0  0.00000000000E+00  0.71054273576E-14  0.46569977991E+03  0.64584284192E+03  0.44747814633E+03 0.  0.
      99925    2    3    3    0    0  0.65825602100E+02 -0.62865094831E+02  0.21694853443E+03  0.35290987985E+03  0.26304692863E+03 0.  0.
         25    1    4    4    0    0  0.48111967944E+02 -0.49881894179E+02  0.15732679874E+03  0.21260807729E+03  0.12509000000E+03 0.  0.
         25    1    4    4    0    0  0.17713634156E+02 -0.12983200653E+02  0.59621735690E+02  0.14030180256E+03  0.12509000000E+03 0.  0.
         25    1    3    3    0    0 -0.65825602100E+02  0.62865094831E+02  0.24875124548E+03  0.29293296207E+03  0.12509000000E+03 0.  0.
<mgrwt>
<rscale>  2 0.44747815E+03</rscale>
<asrwt>0</asrwt>
<pdfrwt beam="1">  1       21 0.81731074E-01 0.44747815E+03</pdfrwt>
<pdfrwt beam="2">  1       21 0.13245814E-01 0.44747815E+03</pdfrwt>
<totfact> 0.59388261E+04</totfact>
</mgrwt>
</event>
<event>
 7    0  0.4766352E-002  0.4729373E+03  0.7546771E-02  0.1021094E+00
         21   -1    0    0  502  501  0.00000000000E+00  0.00000000000E+00  0.60767728050E+02  0.60767728050E+02  0.00000000000E+00 0.  1.
         21   -1    0    0  501  502 -0.00000000000E+00 -0.00000000000E+00 -0.92018294822E+03  0.92018294822E+03  0.00000000000E+00 0.  1.
      99926    2    1    2    0    0  0.35527136788E-14  0.00000000000E+00 -0.85941522017E+03  0.98095067627E+03  0.47293731997E+03 0.  0.
      99925    2    3    3    0    0  0.18907420151E+02  0.99729157924E+02 -0.36561182990E+03  0.46153495470E+03  0.26275294245E+03 0.  0.
         25    1    3    3    0    0 -0.18907420151E+02 -0.99729157924E+02 -0.49380339027E+03  0.51941572158E+03  0.12509000000E+03 0.  0.
         25    1    4    4    0    0  0.15408184191E+01  0.91591816254E+02 -0.20681079590E+03  0.25847562424E+03  0.12509000000E+03 0.  0.
         25    1    4    4    0    0  0.17366601732E+02  0.81373416701E+01 -0.15880103401E+03  0.20305933046E+03  0.12509000000E+03 0.  0.
<mgrwt>
<rscale>  2 0.47293732E+03</rscale>
<asrwt>0</asrwt>
<pdfrwt beam="1">  1       21 0.89364307E-02 0.47293732E+03</pdfrwt>
<pdfrwt beam="2">  1       21 0.13532102E+00 0.47293732E+03</pdfrwt>
<totfact> 0.34773807E+04</totfact>
</mgrwt>
</event>
<event>
 7    0  0.4766352E-002  0.4612109E+03  0.7546771E-02  0.1024431E+00
         21   -1    0    0  502  501  0.00000000000E+00  0.00000000000E+00  0.23328352426E+03  0.23328352426E+03  0.00000000000E+00 0. -1.
         21   -1    0    0  501  502 -0.00000000000E+00 -0.00000000000E+00 -0.22795812459E+03  0.22795812459E+03  0.00000000000E+00 0. -1.
      99926    2    1    2    0    0  0.00000000000E+00  0.00000000000E+00  0.53253996683E+01  0.46124164885E+03  0.46121090485E+03 0.  0.
      99925    2    3    3    0    0 -0.43947739560E+02  0.10138135054E+03  0.48614151748E+02  0.28881483480E+03  0.26237585826E+03 0.  0.
         25    1    4    4    0    0 -0.46901843230E+02  0.67626497704E+02  0.53816047572E+02  0.15911254245E+03  0.12509000000E+03 0.  0.
         25    1    3    3    0    0  0.43947739560E+02 -0.10138135054E+03 -0.43288752080E+02  0.17242681406E+03  0.12509000000E+03 0.  0.
         25    1    4    4    0    0  0.29541036702E+01  0.33754852833E+02 -0.52018958241E+01  0.12970229234E+03  0.12509000000E+03 0.  0.
<mgrwt>
<rscale>  2 0.46121090E+03</rscale>
<asrwt>0</asrwt>
<pdfrwt beam="1">  1       21 0.34306401E-01 0.46121090E+03</pdfrwt>
<pdfrwt beam="2">  1       21 0.33523254E-01 0.46121090E+03</pdfrwt>
<totfact> 0.64818692E+04</totfact>
</mgrwt>
</event>
<event>
 7    0  0.4766352E-002  0.4478383E+03  0.7546771E-02  0.1028369E+00
         21   -1    0    0  502  501  0.00000000000E+00  0.00000000000E+00  0.19803480868E+03  0.19803480868E+03  0.00000000000E+00 0.  1.
         21   -1    0    0  501  502 -0.00000000000E+00 -0.00000000000E+00 -0.25318672327E+03  0.25318672327E+03  0.00000000000E+00 0.  1.
      99926    2    1    2    0    0  0.00000000000E+00  0.14210854715E-13 -0.55151914591E+02  0.45122153195E+03  0.44783829360E+03 0.  0.
      99925    2    3    3    0    0 -0.17662650597E+02  0.10467910194E+03 -0.27973204690E+02  0.28492097879E+03  0.26292162400E+03 0.  0.
         25    1    4    4    0    0 -0.30403113394E+02  0.87462289145E+02 -0.27299691526E+02  0.15800880540E+03  0.12509000000E+03 0.  0.
         25    1    3    3    0    0  0.17662650597E+02 -0.10467910194E+03 -0.27178709901E+02  0.16630055316E+03  0.12509000000E+03 0.  0.
         25    1    4    4    0    0  0.12740462797E+02  0.17216812793E+02 -0.67351316324E+00  0.12691217339E+03  0.12509000000E+03 0.  0.
<mgrwt>
<rscale>  2 0.44783829E+03</rscale>
<asrwt>0</asrwt>
<pdfrwt beam="1">  1       21 0.29122766E-01 0.44783829E+03</pdfrwt>
<pdfrwt beam="2">  1       21 0.37233341E-01 0.44783829E+03</pdfrwt>
<totfact> 0.72900579E+04</totfact>
</mgrwt>
</event>
<event>
 7    0  0.4766352E-002  0.4562995E+03  0.7546771E-02  0.1025860E+00
         21   -1    0    0  502  501  0.00000000000E+00  0.00000000000E+00  0.26065617276E+03  0.26065617276E+03  0.00000000000E+00 0.  1.
         21   -1    0    0  501  502 -0.00000000000E+00 -0.00000000000E+00 -0.19969722493E+03  0.19969722493E+03  0.00000000000E+00 0.  1.
      99926    2    1    2    0    0  0.00000000000E+00  0.00000000000E+00  0.60958947822E+02  0.46035339769E+03  0.45629952602E+03 0.  0.
      99925    2    3    3    0    0  0.52472253852E+02 -0.58783576127E+02 -0.45339971564E+02  0.27826601589E+03  0.26299698921E+03 0.  0.
         25    1    4    4    0    0  0.18597974243E+02 -0.64143963489E+02 -0.30335576481E+01  0.14183456303E+03  0.12509000000E+03 0.  0.
         25    1    4    4    0    0  0.33874279609E+02  0.53603873622E+01 -0.42306413916E+02  0.13643145286E+03  0.12509000000E+03 0.  0.
         25    1    3    3    0    0 -0.52472253852E+02  0.58783576127E+02  0.10629891939E+03  0.18208738180E+03  0.12509000000E+03 0.  0.
<mgrwt>
<rscale>  2 0.45629953E+03</rscale>
<asrwt>0</asrwt>
<pdfrwt beam="1">  1       21 0.38331790E-01 0.45629953E+03</pdfrwt>
<pdfrwt beam="2">  1       21 0.29367239E-01 0.45629953E+03</pdfrwt>
<totfact> 0.67453054E+04</totfact>
</mgrwt>
</event>
<event>
 7    0  0.4766352E-002  0.4594626E+03  0.7546771E-02  0.1024937E+00
         21   -1    0    0  502  501  0.00000000000E+00  0.00000000000E+00  0.13982064190E+03  0.13982064190E+03  0.00000000000E+00 0.  1.
         21   -1    0    0  501  502 -0.00000000000E+00 -0.00000000000E+00 -0.37745838408E+03  0.37745838408E+03  0.00000000000E+00 0.  1.
      99926    2    1    2    0    0  0.00000000000E+00 -0.17763568394E-14 -0.23763774218E+03  0.51727902597E+03  0.45946261459E+03 0.  0.
      99925    2    3    3    0    0  0.10963754983E+03  0.83673675270E+01 -0.19469708053E+03  0.34528538163E+03  0.26310575141E+03 0.  0.
         25    1    4    4    0    0  0.85978223739E+02 -0.16818064845E+02 -0.81634182812E+02  0.17316682756E+03  0.12509000000E+03 0.  0.
         25    1    3    3    0    0 -0.10963754983E+03 -0.83673675270E+01 -0.42940661651E+02  0.17199364435E+03  0.12509000000E+03 0.  0.
         25    1    4    4    0    0  0.23659326096E+02  0.25185432372E+02 -0.11306289772E+03  0.17211855407E+03  0.12509000000E+03 0.  0.
<mgrwt>
<rscale>  2 0.45946261E+03</rscale>
<asrwt>0</asrwt>
<pdfrwt beam="1">  1       21 0.20561859E-01 0.45946261E+03</pdfrwt>
<pdfrwt beam="2">  1       21 0.55508585E-01 0.45946261E+03</pdfrwt>
<totfact> 0.61853511E+04</totfact>
</mgrwt>
</event>
<event>
 7    0  0.4766352E-002  0.4517558E+03  0.7546771E-02  0.1027200E+00
         21   -1    0    0  502  501  0.00000000000E+00  0.00000000000E+00  0.11584719073E+03  0.11584719073E+03  0.00000000000E+00 0. -1.
         21   -1    0    0  501  502 -0.00000000000E+00 -0.00000000000E+00 -0.44041486594E+03  0.44041486594E+03  0.00000000000E+00 0. -1.
      99926    2    1    2    0    0  0.00000000000E+00 -0.17763568394E-14 -0.32456767521E+03  0.55626205666E+03  0.45175579674E+03 0.  0.
      99925    2    3    3    0    0  0.51955144871E+02 -0.10542269894E+02 -0.85412472593E+02  0.28121079676E+03  0.26262853083E+03 0.  0.
         25    1    3    3    0    0 -0.51955144871E+02  0.10542269894E+02 -0.23915520262E+03  0.27505125990E+03  0.12509000000E+03 0.  0.
         25    1    4    4    0    0  0.15221937891E+02 -0.13296978583E+02 -0.81678945450E+02  0.15075634402E+03  0.12509000000E+03 0.  0.
         25    1    4    4    0    0  0.36733206980E+02  0.27547086898E+01 -0.37335271427E+01  0.13045445274E+03  0.12509000000E+03 0.  0.
<mgrwt>
<rscale>  2 0.45175580E+03</rscale>
<asrwt>0</asrwt>
<pdfrwt beam="1">  1       21 0.17036352E-01 0.45175580E+03</pdfrwt>
<pdfrwt beam="2">  1       21 0.64766891E-01 0.45175580E+03</pdfrwt>
<totfact> 0.63057359E+04</totfact>
</mgrwt>
</event>
<event>
 7    0  0.4766352E-002  0.4539165E+03  0.7546771E-02  0.1026561E+00
         21   -1    0    0  502  501  0.00000000000E+00  0.00000000000E+00  0.42577042030E+03  0.42577042030E+03  0.00000000000E+00 0. -1.
         21   -1    0    0  501  502 -0.00000000000E+00 -0.00000000000E+00 -0.12098079452E+03  0.12098079452E+03  0.00000000000E+00 0. -1.
      99926    2    1    2    0    0 -0.35527136788E-14  0.00000000000E+00  0.30478962577E+03  0.54675121482E+03  0.45391648453E+03 0.  0.
      99925    2    3    3    0    0  0.19630163487E+02 -0.70797520711E+02  0.29405082258E+03  0.40128485358E+03  0.26299432540E+03 0.  0.
         25    1    3    3    0    0 -0.19630163487E+02  0.70797520711E+02  0.10738803192E+02  0.14546636124E+03  0.12509000000E+03 0.  0.
         25    1    4    4    0    0 -0.20647654066E+01 -0.53149281025E+02  0.20200779856E+03  0.24348258277E+03  0.12509000000E+03 0.  0.
         25    1    4    4    0    0  0.21694928894E+02 -0.17648239686E+02  0.92043024017E+02  0.15780227081E+03  0.12509000000E+03 0.  0.
<mgrwt>
<rscale>  2 0.45391648E+03</rscale>
<asrwt>0</asrwt>
<pdfrwt beam="1">  1       21 0.62613296E-01 0.45391648E+03</pdfrwt>
<pdfrwt beam="2">  1       21 0.17791293E-01 0.45391648E+03</pdfrwt>
<totfact> 0.62616819E+04</totfact>
</mgrwt>
</event>
<event>
 7    0  0.4766352E-002  0.4589731E+03  0.7546771E-02  0.1025079E+00
         21   -1    0    0  502  501  0.00000000000E+00  0.00000000000E+00  0.51883937013E+03  0.51883937013E+03  0.00000000000E+00 0.  1.
         21   -1    0    0  501  502 -0.00000000000E+00 -0.00000000000E+00 -0.10150363077E+03  0.10150363077E+03  0.00000000000E+00 0.  1.
      99926    2    1    2    0    0  0.17763568394E-14  0.00000000000E+00  0.41733573936E+03  0.62034300090E+03  0.45897311404E+03 0.  0.
      99925    2    3    3    0    0  0.12020767134E+02  0.11610565581E+03  0.26800373353E+03  0.39324703391E+03  0.26304411482E+03 0.  0.
         25    1    3    3    0    0 -0.12020767134E+02 -0.11610565581E+03  0.14933200584E+03  0.22709596699E+03  0.12509000000E+03 0.  0.
         25    1    4    4    0    0  0.21495847497E+02  0.19348768490E+02  0.10407980077E+03  0.16527721963E+03  0.12509000000E+03 0.  0.
         25    1    4    4    0    0 -0.94750803626E+01  0.96756887320E+02  0.16392393275E+03  0.22796981428E+03  0.12509000000E+03 0.  0.
<mgrwt>
<rscale>  2 0.45897311E+03</rscale>
<asrwt>0</asrwt>
<pdfrwt beam="1">  1       21 0.76299906E-01 0.45897311E+03</pdfrwt>
<pdfrwt beam="2">  1       21 0.14927005E-01 0.45897311E+03</pdfrwt>
<totfact> 0.55675799E+04</totfact>
</mgrwt>
</event>
<event>
 7    0  0.4766352E-002  0.4564323E+03  0.7546771E-02  0.1025821E+00
         21   -1    0    0  502  501  0.00000000000E+00  0.00000000000E+00  0.16926797275E+04  0.16926797275E+04  0.00000000000E+00 0.  1.
         21   -1    0    0  501  502 -0.00000000000E+00 -0.00000000000E+00 -0.30769325691E+02  0.30769325691E+02  0.00000000000E+00 0.  1.
      99926    2    1    2    0    0  0.71054273576E-14  0.00000000000E+00  0.16619104018E+04  0.17234490532E+04  0.45643231185E+03 0.  0.
      99925    2    3    3    0    0  0.35388458339E+02 -0.94417250873E+02  0.83935388529E+03  0.88534781157E+03  0.26298068835E+03 0.  0.
         25    1    4    4    0    0  0.49635417935E+02 -0.71387972028E+02  0.49845548723E+03  0.52121521286E+03  0.12509000000E+03 0.  0.
         25    1    3    3    0    0 -0.35388458339E+02  0.94417250873E+02  0.82255651649E+03  0.83810124160E+03  0.12509000000E+03 0.  0.
         25    1    4    4    0    0 -0.14246959595E+02 -0.23029278845E+02  0.34089839806E+03  0.36413259871E+03  0.12509000000E+03 0.  0.
<mgrwt>
<rscale>  2 0.45643231E+03</rscale>
<asrwt>0</asrwt>
<pdfrwt beam="1">  1       21 0.24892343E+00 0.45643231E+03</pdfrwt>
<pdfrwt beam="2">  1       21 0.45249020E-02 0.45643231E+03</pdfrwt>
<totfact> 0.18570458E+04</totfact>
</mgrwt>
</event>
<event>
 7    0  0.4766352E-002  0.4563964E+03  0.7546771E-02  0.1025832E+00
         21   -1    0    0  502  501  0.00000000000E+00  0.00000000000E+00  0.67822189177E+03  0.67822189177E+03  0.00000000000E+00 0. -1.
         21   -1    0    0  501  502 -0.00000000000E+00 -0.00000000000E+00 -0.76780801946E+02  0.76780801946E+02  0.00000000000E+00 0. -1.
      99926    2    1    2    0    0  0.71054273576E-14  0.00000000000E+00  0.60144108982E+03  0.75500269371E+03  0.45639640992E+03 0.  0.
      99925    2    3    3    0    0  0.47563377668E+02 -0.10060200924E+03  0.42218814466E+03  0.50972292364E+03  0.26304294371E+03 0.  0.
         25    1    3    3    0    0 -0.47563377668E+02  0.10060200924E+03  0.17925294516E+03  0.24527977007E+03  0.12509000000E+03 0.  0.
         25    1    4    4    0    0  0.16778647316E+02 -0.92158247576E+02  0.24151782649E+03  0.28766827113E+03  0.12509000000E+03 0.  0.
         25    1    4    4    0    0  0.30784730353E+02 -0.84437616639E+01  0.18067031817E+03  0.22205465251E+03  0.12509000000E+03 0.  0.
<mgrwt>
<rscale>  2 0.45639641E+03</rscale>
<asrwt>0</asrwt>
<pdfrwt beam="1">  1       21 0.99738510E-01 0.45639641E+03</pdfrwt>
<pdfrwt beam="2">  1       21 0.11291295E-01 0.45639641E+03</pdfrwt>
<totfact> 0.49471243E+04</totfact>
</mgrwt>
</event>
<event>
 7    0  0.4766352E-002  0.4571888E+03  0.7546771E-02  0.1025600E+00
         21   -1    0    0  502  501  0.00000000000E+00  0.00000000000E+00  0.24951693201E+03  0.24951693201E+03  0.00000000000E+00 0.  1.
         21   -1    0    0  501  502 -0.00000000000E+00 -0.00000000000E+00 -0.20942627847E+03  0.20942627847E+03  0.00000000000E+00 0.  1.
      99926    2    1    2    0    0 -0.71054273576E-14 -0.14210854715E-13  0.40090653540E+02  0.45894321048E+03  0.45718881214E+03 0.  0.
      99925    2    3    3    0    0  0.40652864623E+02  0.10668235075E+03  0.39928251535E+02  0.28958762646E+03  0.26312154751E+03 0.  0.
         25    1    3    3    0    0 -0.40652864623E+02 -0.10668235075E+03  0.16240200475E+00  0.16935558402E+03  0.12509000000E+03 0.  0.
         25    1    4    4    0    0  0.12646444014E+01  0.13702657457E+02  0.11959827047E+02  0.12641165971E+03  0.12509000000E+03 0.  0.
         25    1    4    4    0    0  0.39388220222E+02  0.92979693294E+02  0.27968424488E+02  0.16317596675E+03  0.12509000000E+03 0.  0.
<mgrwt>
<rscale>  2 0.45718881E+03</rscale>
<asrwt>0</asrwt>
<pdfrwt beam="1">  1       21 0.36693667E-01 0.45718881E+03</pdfrwt>
<pdfrwt beam="2">  1       21 0.30797982E-01 0.45718881E+03</pdfrwt>
<totfact> 0.67078774E+04</totfact>
</mgrwt>
</event>
<event>
 7    0  0.4766352E-002  0.4490015E+03  0.7546771E-02  0.1028020E+00
         21   -1    0    0  502  501  0.00000000000E+00  0.00000000000E+00  0.36252705130E+03  0.36252705130E+03  0.00000000000E+00 0. -1.
         21   -1    0    0  501  502 -0.00000000000E+00 -0.00000000000E+00 -0.13902574699E+03  0.13902574699E+03  0.00000000000E+00 0. -1.
      99926    2    1    2    0    0  0.00000000000E+00  0.00000000000E+00  0.22350130432E+03  0.50155279829E+03  0.44900153279E+03 0.  0.
      99925    2    3    3    0    0  0.22611123784E+02 -0.44499386277E+01  0.25853948364E+03  0.36962006171E+03  0.26314494209E+03 0.  0.
         25    1    4    4    0    0 -0.22214805659E+02 -0.29725253045E+01  0.15922363738E+03  0.20372041699E+03  0.12509000000E+03 0.  0.
         25    1    3    3    0    0 -0.22611123784E+02  0.44499386277E+01 -0.35038179322E+02  0.13193273658E+03  0.12509000000E+03 0.  0.
         25    1    4    4    0    0  0.44825929443E+02 -0.14774133231E+01  0.99315846255E+02  0.16589964472E+03  0.12509000000E+03 0.  0.
<mgrwt>
<rscale>  2 0.44900153E+03</rscale>
<asrwt>0</asrwt>
<pdfrwt beam="1">  1       21 0.53312802E-01 0.44900153E+03</pdfrwt>
<pdfrwt beam="2">  1       21 0.20444963E-01 0.44900153E+03</pdfrwt>
<totfact> 0.68358859E+04</totfact>
</mgrwt>
</event>
<event>
 7    0  0.4766352E-002  0.4586284E+03  0.7546771E-02  0.1025180E+00
         21   -1    0    0  502  501  0.00000000000E+00  0.00000000000E+00  0.47739314336E+02  0.47739314336E+02  0.00000000000E+00 0. -1.
         21   -1    0    0  501  502 -0.00000000000E+00 -0.00000000000E+00 -0.11015032861E+04  0.11015032861E+04  0.00000000000E+00 0. -1.
      99926    2    1    2    0    0  0.00000000000E+00 -0.17763568394E-14 -0.10537639718E+04  0.11492426004E+04  0.45862844054E+03 0.  0.
      99925    2    3    3    0    0 -0.81297142541E+02 -0.12939855989E+02 -0.45649396577E+03  0.53348645274E+03  0.26352303357E+03 0.  0.
         25    1    4    4    0    0 -0.48448647137E+02  0.70515228634E+01 -0.30515197272E+03  0.33341000276E+03  0.12509000000E+03 0.  0.
         25    1    3    3    0    0  0.81297142541E+02  0.12939855989E+02 -0.59727000599E+03  0.61575614769E+03  0.12509000000E+03 0.  0.
         25    1    4    4    0    0 -0.32848495403E+02 -0.19991378853E+02 -0.15134199304E+03  0.20007644998E+03  0.12509000000E+03 0.  0.
<mgrwt>
<rscale>  2 0.45862844E+03</rscale>
<asrwt>0</asrwt>
<pdfrwt beam="1">  1       21 0.70204876E-02 0.45862844E+03</pdfrwt>
<pdfrwt beam="2">  1       21 0.16198577E+00 0.45862844E+03</pdfrwt>
<totfact> 0.32868293E+04</totfact>
</mgrwt>
</event>
<event>
 7    0  0.4766352E-002  0.4458812E+03  0.7546771E-02  0.1028957E+00
         21   -1    0    0  502  501  0.00000000000E+00  0.00000000000E+00  0.87972622678E+03  0.87972622678E+03  0.00000000000E+00 0.  1.
         21   -1    0    0  501  502 -0.00000000000E+00 -0.00000000000E+00 -0.56497706448E+02  0.56497706448E+02  0.00000000000E+00 0.  1.
      99926    2    1    2    0    0  0.00000000000E+00  0.71054273576E-14  0.82322852033E+03  0.93622393323E+03  0.44588121340E+03 0.  0.
      99925    2    3    3    0    0 -0.90468283704E+02 -0.53927423266E+02  0.51178582854E+03  0.58446160479E+03  0.26187393121E+03 0.  0.
         25    1    4    4    0    0 -0.43502565646E+01 -0.22626161353E+02  0.22878892127E+03  0.26176849793E+03  0.12509000000E+03 0.  0.
         25    1    3    3    0    0  0.90468283704E+02  0.53927423266E+02  0.31144269180E+03  0.35176232844E+03  0.12509000000E+03 0.  0.
         25    1    4    4    0    0 -0.86118027139E+02 -0.31301261913E+02  0.28299690727E+03  0.32269310686E+03  0.12509000000E+03 0.  0.
<mgrwt>
<rscale>  2 0.44588121E+03</rscale>
<asrwt>0</asrwt>
<pdfrwt beam="1">  1       21 0.12937150E+00 0.44588121E+03</pdfrwt>
<pdfrwt beam="2">  1       21 0.83084868E-02 0.44588121E+03</pdfrwt>
<totfact> 0.44815479E+04</totfact>
</mgrwt>
</event>
<event>
 7    0  0.4766352E-002  0.4572080E+03  0.7546771E-02  0.1025594E+00
         21   -1    0    0  502  501  0.00000000000E+00  0.00000000000E+00  0.16361823209E+03  0.16361823209E+03  0.00000000000E+00 0. -1.
         21   -1    0    0  501  502 -0.00000000000E+00 -0.00000000000E+00 -0.31940080891E+03  0.31940080891E+03  0.00000000000E+00 0. -1.
      99926    2    1    2    0    0  0.17763568394E-14  0.00000000000E+00 -0.15578257682E+03  0.48301904100E+03  0.45720803004E+03 0.  0.
      99925    2    3    3    0    0 -0.85811500826E+01  0.10942248487E+03 -0.61026656282E+02  0.29151679844E+03  0.26307959758E+03 0.  0.
         25    1    4    4    0    0  0.25050132490E+02  0.68141929170E+02 -0.57141336766E+02  0.15551036016E+03  0.12509000000E+03 0.  0.
         25    1    3    3    0    0  0.85811500826E+01 -0.10942248487E+03 -0.94755920535E+02  0.19150224257E+03  0.12509000000E+03 0.  0.
         25    1    4    4    0    0 -0.33631282572E+02  0.41280555696E+02 -0.38853195160E+01  0.13600643828E+03  0.12509000000E+03 0.  0.
<mgrwt>
<rscale>  2 0.45720803E+03</rscale>
<asrwt>0</asrwt>
<pdfrwt beam="1">  1       21 0.24061505E-01 0.45720803E+03</pdfrwt>
<pdfrwt beam="2">  1       21 0.46970707E-01 0.45720803E+03</pdfrwt>
<totfact> 0.65328445E+04</totfact>
</mgrwt>
</event>
<event>
 7    0  0.4766352E-002  0.4563662E+03  0.7546771E-02  0.1025840E+00
         21   -1    0    0  502  501  0.00000000000E+00  0.00000000000E+00  0.45220283580E+03  0.45220283580E+03  0.00000000000E+00 0. -1.
         21   -1    0    0  501  502 -0.00000000000E+00 -0.00000000000E+00 -0.11514198118E+03  0.11514198118E+03  0.00000000000E+00 0. -1.
      99926    2    1    2    0    0 -0.28421709430E-13 -0.17763568394E-14  0.33706085461E+03  0.56734481698E+03  0.45636621439E+03 0.  0.
      99925    2    3    3    0    0 -0.11355245682E+03 -0.14209364906E+02  0.21351895949E+03  0.35756833009E+03  0.26299942608E+03 0.  0.
         25    1    4    4    0    0 -0.99757735428E+02 -0.37384835105E+01  0.10888463888E+03  0.19356899215E+03  0.12509000000E+03 0.  0.
         25    1    3    3    0    0  0.11355245682E+03  0.14209364906E+02  0.12354189512E+03  0.20977648689E+03  0.12509000000E+03 0.  0.
         25    1    4    4    0    0 -0.13794721391E+02 -0.10470881395E+02  0.10463432062E+03  0.16399933794E+03  0.12509000000E+03 0.  0.
<mgrwt>
<rscale>  2 0.45636621E+03</rscale>
<asrwt>0</asrwt>
<pdfrwt beam="1">  1       21 0.66500416E-01 0.45636621E+03</pdfrwt>
<pdfrwt beam="2">  1       21 0.16932644E-01 0.45636621E+03</pdfrwt>
<totfact> 0.60082889E+04</totfact>
</mgrwt>
</event>
<event>
 7    0  0.4766352E-002  0.4519965E+03  0.7546771E-02  0.1027128E+00
         21   -1    0    0  502  501  0.00000000000E+00  0.00000000000E+00  0.39465399355E+03  0.39465399355E+03  0.00000000000E+00 0. -1.
         21   -1    0    0  501  502 -0.00000000000E+00 -0.00000000000E+00 -0.12941766903E+03  0.12941766903E+03  0.00000000000E+00 0. -1.
      99926    2    1    2    0    0  0.00000000000E+00 -0.71054273576E-14  0.26523632451E+03  0.52407166258E+03  0.45199645981E+03 0.  0.
      99925    2    3    3    0    0  0.10137039041E+03  0.35133641958E+02  0.13707696210E+03  0.31530706040E+03  0.26290325207E+03 0.  0.
         25    1    3    3    0    0 -0.10137039041E+03 -0.35133641958E+02  0.12815936241E+03  0.20876460218E+03  0.12509000000E+03 0.  0.
         25    1    4    4    0    0  0.27271414075E+02 -0.14783381909E+02  0.77880653897E+02  0.15058281030E+03  0.12509000000E+03 0.  0.
         25    1    4    4    0    0  0.74098976338E+02  0.49917023867E+02  0.59196308201E+02  0.16472425010E+03  0.12509000000E+03 0.  0.
<mgrwt>
<rscale>  2 0.45199646E+03</rscale>
<asrwt>0</asrwt>
<pdfrwt beam="1">  1       21 0.58037352E-01 0.45199646E+03</pdfrwt>
<pdfrwt beam="2">  1       21 0.19032010E-01 0.45199646E+03</pdfrwt>
<totfact> 0.65146954E+04</totfact>
</mgrwt>
</event>
<event>
 7    0  0.4766352E-002  0.4612654E+03  0.7546771E-02  0.1024415E+00
         21   -1    0    0  502  501  0.00000000000E+00  0.00000000000E+00  0.15370313291E+03  0.15370313291E+03  0.00000000000E+00 0.  1.
         21   -1    0    0  501  502 -0.00000000000E+00 -0.00000000000E+00 -0.34606608064E+03  0.34606608064E+03  0.00000000000E+00 0.  1.
      99926    2    1    2    0    0  0.00000000000E+00  0.17763568394E-14 -0.19236294773E+03  0.49976921355E+03  0.46126539340E+03 0.  0.
      99925    2    3    3    0    0 -0.11232492049E+03 -0.88220233229E+01 -0.79045055067E+02  0.29683284727E+03  0.26299601257E+03 0.  0.
         25    1    4    4    0    0 -0.84939954844E+02 -0.35425820866E+02 -0.45063001390E+02  0.16170332992E+03  0.12509000000E+03 0.  0.
         25    1    3    3    0    0  0.11232492049E+03  0.88220233229E+01 -0.11331789267E+03  0.20293636628E+03  0.12509000000E+03 0.  0.
         25    1    4    4    0    0 -0.27384965650E+02  0.26603797543E+02 -0.33982053677E+02  0.13512951735E+03  0.12509000000E+03 0.  0.
<mgrwt>
<rscale>  2 0.46126539E+03</rscale>
<asrwt>0</asrwt>
<pdfrwt beam="1">  1       21 0.22603402E-01 0.46126539E+03</pdfrwt>
<pdfrwt beam="2">  1       21 0.50892071E-01 0.46126539E+03</pdfrwt>
<totfact> 0.62138294E+04</totfact>
</mgrwt>
</event>
<event>
 7    0  0.4766352E-002  0.4495107E+03  0.7546771E-02  0.1027868E+00
         21   -1    0    0  502  501  0.00000000000E+00  0.00000000000E+00  0.34262468452E+03  0.34262468452E+03  0.00000000000E+00 0. -1.
         21   -1    0    0  501  502 -0.00000000000E+00 -0.00000000000E+00 -0.14743528842E+03  0.14743528842E+03  0.00000000000E+00 0. -1.
      99926    2    1    2    0    0  0.00000000000E+00  0.00000000000E+00  0.19518939610E+03  0.49005997294E+03  0.44951070814E+03 0.  0.
      99925    2    3    3    0    0  0.22945895805E+02 -0.41457551091E+02  0.22919008214E+03  0.35204259205E+03  0.26298412536E+03 0.  0.
         25    1    4    4    0    0 -0.15393222995E+02 -0.45656884881E+02  0.13882371735E+03  0.19297936431E+03  0.12509000000E+03 0.  0.
         25    1    4    4    0    0  0.38339118800E+02  0.41993337900E+01  0.90366364784E+02  0.15906322774E+03  0.12509000000E+03 0.  0.
         25    1    3    3    0    0 -0.22945895805E+02  0.41457551091E+02 -0.34000686040E+02  0.13801738089E+03  0.12509000000E+03 0.  0.
<mgrwt>
<rscale>  2 0.44951071E+03</rscale>
<asrwt>0</asrwt>
<pdfrwt beam="1">  1       21 0.50385983E-01 0.44951071E+03</pdfrwt>
<pdfrwt beam="2">  1       21 0.21681660E-01 0.44951071E+03</pdfrwt>
<totfact> 0.68929948E+04</totfact>
</mgrwt>
</event>
<event>
 7    0  0.4766352E-002  0.4555883E+03  0.7546771E-02  0.1026069E+00
         21   -1    0    0  502  501  0.00000000000E+00  0.00000000000E+00  0.18013541336E+03  0.18013541336E+03  0.00000000000E+00 0. -1.
         21   -1    0    0  501  502 -0.00000000000E+00 -0.00000000000E+00 -0.28806202186E+03  0.28806202186E+03  0.00000000000E+00 0. -1.
      99926    2    1    2    0    0  0.71054273576E-14  0.71054273576E-14 -0.10792660851E+03  0.46819743522E+03  0.45558828510E+03 0.  0.
      99925    2    3    3    0    0  0.55606465252E+02  0.45076337689E+02 -0.15867037271E+03  0.31540217056E+03  0.26301765496E+03 0.  0.
         25    1    3    3    0    0 -0.55606465252E+02 -0.45076337689E+02  0.50743764200E+02  0.15279526466E+03  0.12509000000E+03 0.  0.
         25    1    4    4    0    0  0.58350069129E+02 -0.42377176230E+01 -0.80974378541E+02  0.16008449924E+03  0.12509000000E+03 0.  0.
         25    1    4    4    0    0 -0.27436038763E+01  0.49314055312E+02 -0.77695994165E+02  0.15531767132E+03  0.12509000000E+03 0.  0.
<mgrwt>
<rscale>  2 0.45558829E+03</rscale>
<asrwt>0</asrwt>
<pdfrwt beam="1">  1       21 0.26490502E-01 0.45558829E+03</pdfrwt>
<pdfrwt beam="2">  1       21 0.42362062E-01 0.45558829E+03</pdfrwt>
<totfact> 0.67255776E+04</totfact>
</mgrwt>
</event>
<event>
 7    0  0.4766352E-002  0.4477031E+03  0.7546771E-02  0.1028409E+00
         21   -1    0    0  502  501  0.00000000000E+00  0.00000000000E+00  0.26158618496E+03  0.26158618496E+03  0.00000000000E+00 0. -1.
         21   -1    0    0  501  502 -0.00000000000E+00 -0.00000000000E+00 -0.19156024270E+03  0.19156024270E+03  0.00000000000E+00 0. -1.
      99926    2    1    2    0    0  0.00000000000E+00  0.44408920985E-15  0.70025942258E+02  0.45314642766E+03  0.44770308499E+03 0.  0.
      99925    2    3    3    0    0  0.43558560441E+02  0.28185638526E+01 -0.53726871807E+02  0.27185230316E+03  0.26289124270E+03 0.  0.
         25    1    4    4    0    0 -0.12484023980E+02 -0.31328436173E+01 -0.47787190824E+02  0.13452430736E+03  0.12509000000E+03 0.  0.
         25    1    3    3    0    0 -0.43558560441E+02 -0.28185638526E+01  0.12375281406E+03  0.18129412450E+03  0.12509000000E+03 0.  0.
         25    1    4    4    0    0  0.56042584421E+02  0.59514074699E+01 -0.59396809830E+01  0.13732799580E+03  0.12509000000E+03 0.  0.
<mgrwt>
<rscale>  2 0.44770308E+03</rscale>
<asrwt>0</asrwt>
<pdfrwt beam="1">  1       21 0.38468557E-01 0.44770308E+03</pdfrwt>
<pdfrwt beam="2">  1       21 0.28170624E-01 0.44770308E+03</pdfrwt>
<totfact> 0.72829484E+04</totfact>
</mgrwt>
</event>
<event>
 7    0  0.4766352E-002  0.4494035E+03  0.7546771E-02  0.1027900E+00
         21   -1    0    0  502  501  0.00000000000E+00  0.00000000000E+00  0.46844858405E+03  0.46844858405E+03  0.00000000000E+00 0.  1.
         21   -1    0    0  501  502 -0.00000000000E+00 -0.00000000000E+00 -0.10778317809E+03  0.10778317809E+03  0.00000000000E+00 0.  1.
      99926    2    1    2    0    0  0.00000000000E+00  0.00000000000E+00  0.36066540596E+03  0.57623176214E+03  0.44940350314E+03 0.  0.
      99925    2    3    3    0    0 -0.88061967928E+02 -0.32063306433E+02  0.29676154330E+03  0.40737034683E+03  0.26286920718E+03 0.  0.
         25    1    4    4    0    0 -0.34086281867E+02 -0.38854098251E+02  0.10148647636E+03  0.16917011718E+03  0.12509000000E+03 0.  0.
         25    1    3    3    0    0  0.88061967928E+02  0.32063306433E+02  0.63903862665E+02  0.16886141530E+03  0.12509000000E+03 0.  0.
         25    1    4    4    0    0 -0.53975686062E+02  0.67907918181E+01  0.19527506694E+03  0.23820022966E+03  0.12509000000E+03 0.  0.
<mgrwt>
<rscale>  2 0.44940350E+03</rscale>
<asrwt>0</asrwt>
<pdfrwt beam="1">  1       21 0.68889497E-01 0.44940350E+03</pdfrwt>
<pdfrwt beam="2">  1       21 0.15850468E-01 0.44940350E+03</pdfrwt>
<totfact> 0.62903123E+04</totfact>
</mgrwt>
</event>
<event>
 7    0  0.4766352E-002  0.4541194E+03  0.7546771E-02  0.1026501E+00
         21   -1    0    0  502  501  0.00000000000E+00  0.00000000000E+00  0.43971620370E+03  0.43971620370E+03  0.00000000000E+00 0. -1.
         21   -1    0    0  501  502 -0.00000000000E+00 -0.00000000000E+00 -0.11724861781E+03  0.11724861781E+03  0.00000000000E+00 0. -1.
      99926    2    1    2    0    0  0.00000000000E+00  0.00000000000E+00  0.32246758589E+03  0.55696482151E+03  0.45411944293E+03 0.  0.
      99925    2    3    3    0    0 -0.10718799451E+03  0.32259529347E+02  0.20242968160E+03  0.35059973249E+03  0.26346243190E+03 0.  0.
         25    1    3    3    0    0  0.10718799451E+03 -0.32259529347E+02  0.12003790429E+03  0.20636508902E+03  0.12509000000E+03 0.  0.
         25    1    4    4    0    0 -0.59485198047E+02 -0.70911854977E+01  0.14212950986E+03  0.19858771204E+03  0.12509000000E+03 0.  0.
         25    1    4    4    0    0 -0.47702796466E+02  0.39350714844E+02  0.60300171745E+02  0.15201202045E+03  0.12509000000E+03 0.  0.
<mgrwt>
<rscale>  2 0.45411944E+03</rscale>
<asrwt>0</asrwt>
<pdfrwt beam="1">  1       21 0.64664147E-01 0.45411944E+03</pdfrwt>
<pdfrwt beam="2">  1       21 0.17242444E-01 0.45411944E+03</pdfrwt>
<totfact> 0.61838222E+04</totfact>
</mgrwt>
</event>
<event>
 7    0  0.4766352E-002  0.4467127E+03  0.7546771E-02  0.1028707E+00
         21   -1    0    0  502  501  0.00000000000E+00  0.00000000000E+00  0.77910953600E+03  0.77910953600E+03  0.00000000000E+00 0. -1.
         21   -1    0    0  501  502 -0.00000000000E+00 -0.00000000000E+00 -0.64032160250E+02  0.64032160250E+02  0.00000000000E+00 0. -1.
      99926    2    1    2    0    0  0.00000000000E+00  0.00000000000E+00  0.71507737575E+03  0.84314169625E+03  0.44671273392E+03 0.  0.
      99925    2    3    3    0    0 -0.18305467240E+02 -0.67574396156E+02  0.60167573198E+03  0.66036087106E+03  0.26298555935E+03 0.  0.
         25    1    4    4    0    0  0.45678631372E+01 -0.61582740288E+02  0.37906405515E+03  0.40391876074E+03  0.12509000000E+03 0.  0.
         25    1    4    4    0    0 -0.22873330377E+02 -0.59916558686E+01  0.22261167683E+03  0.25644211032E+03  0.12509000000E+03 0.  0.
         25    1    3    3    0    0  0.18305467240E+02  0.67574396156E+02  0.11340164377E+03  0.18278082519E+03  0.12509000000E+03 0.  0.
<mgrwt>
<rscale>  2 0.44671273E+03</rscale>
<asrwt>0</asrwt>
<pdfrwt beam="1">  1       21 0.11457493E+00 0.44671273E+03</pdfrwt>
<pdfrwt beam="2">  1       21 0.94164946E-02 0.44671273E+03</pdfrwt>
<totfact> 0.48846865E+04</totfact>
</mgrwt>
</event>
<event>
 7    0  0.4766352E-002  0.4382189E+03  0.7546771E-02  0.1031295E+00
         21   -1    0    0  502  501  0.00000000000E+00  0.00000000000E+00  0.35180129177E+02  0.35180129177E+02  0.00000000000E+00 0. -1.
         21   -1    0    0  501  502 -0.00000000000E+00 -0.00000000000E+00 -0.13646609535E+04  0.13646609535E+04  0.00000000000E+00 0. -1.
      99926    2    1    2    0    0 -0.71054273576E-14  0.00000000000E+00 -0.13294808243E+04  0.13998410827E+04  0.43821888881E+03 0.  0.
      99925    2    3    3    0    0 -0.41134684902E+02  0.22416390234E+02 -0.11199469417E+04  0.11513526264E+04  0.26293946293E+03 0.  0.
         25    1    4    4    0    0 -0.53378026202E+02 -0.19367977053E+01 -0.66308374489E+03  0.67689033506E+03  0.12509000000E+03 0.  0.
         25    1    4    4    0    0  0.12243341299E+02  0.24353187940E+02 -0.45686319680E+03  0.47446229129E+03  0.12509000000E+03 0.  0.
         25    1    3    3    0    0  0.41134684902E+02 -0.22416390234E+02 -0.20953388264E+03  0.24848845633E+03  0.12509000000E+03 0.  0.
<mgrwt>
<rscale>  2 0.43821889E+03</rscale>
<asrwt>0</asrwt>
<pdfrwt beam="1">  1       21 0.51735485E-02 0.43821889E+03</pdfrwt>
<pdfrwt beam="2">  1       21 0.20068543E+00 0.43821889E+03</pdfrwt>
<totfact> 0.30070816E+04</totfact>
</mgrwt>
</event>
<event>
 7    0  0.4766352E-002  0.4500019E+03  0.7546771E-02  0.1027721E+00
         21   -1    0    0  502  501  0.00000000000E+00  0.00000000000E+00  0.23820954310E+02  0.23820954310E+02  0.00000000000E+00 0. -1.
         21   -1    0    0  501  502 -0.00000000000E+00 -0.00000000000E+00 -0.21252472894E+04  0.21252472894E+04  0.00000000000E+00 0. -1.
      99926    2    1    2    0    0  0.00000000000E+00  0.71054273576E-14 -0.21014263351E+04  0.21490682437E+04  0.45000186034E+03 0.  0.
      99925    2    3    3    0    0  0.88736857369E+02  0.35969159960E+02 -0.15713926546E+04  0.15961204877E+04  0.26297856566E+03 0.  0.
         25    1    4    4    0    0  0.56273801756E+02  0.36229754223E+01 -0.59108387599E+03  0.60680105740E+03  0.12509000000E+03 0.  0.
         25    1    3    3    0    0 -0.88736857369E+02 -0.35969159960E+02 -0.53003368052E+03  0.55294775604E+03  0.12509000000E+03 0.  0.
         25    1    4    4    0    0  0.32463055613E+02  0.32346184538E+02 -0.98030877859E+03  0.98931943027E+03  0.12509000000E+03 0.  0.
<mgrwt>
<rscale>  2 0.45000186E+03</rscale>
<asrwt>0</asrwt>
<pdfrwt beam="1">  1       21 0.35030799E-02 0.45000186E+03</pdfrwt>
<pdfrwt beam="2">  1       21 0.31253651E+00 0.45000186E+03</pdfrwt>
<totfact> 0.11879542E+04</totfact>
</mgrwt>
</event>
<event>
 7    0  0.4766352E-002  0.4581725E+03  0.7546771E-02  0.1025313E+00
         21   -1    0    0  502  501  0.00000000000E+00  0.00000000000E+00  0.74049209352E+03  0.74049209352E+03  0.00000000000E+00 0. -1.
         21   -1    0    0  501  502 -0.00000000000E+00 -0.00000000000E+00 -0.70872474965E+02  0.70872474965E+02  0.00000000000E+00 0. -1.
      99926    2    1    2    0    0  0.00000000000E+00  0.00000000000E+00  0.66961961855E+03  0.81136456848E+03  0.45817248874E+03 0.  0.
      99925    2    3    3    0    0 -0.21412469446E+02 -0.90436822028E+02  0.29684365532E+03  0.40732652635E+03  0.26298560937E+03 0.  0.
         25    1    3    3    0    0  0.21412469446E+02  0.90436822028E+02  0.37277596323E+03  0.40403804213E+03  0.12509000000E+03 0.  0.
         25    1    4    4    0    0  0.14497704575E+02 -0.75582530187E+02  0.13906216420E+03  0.20225898230E+03  0.12509000000E+03 0.  0.
         25    1    4    4    0    0 -0.35910174021E+02 -0.14854291841E+02  0.15778149112E+03  0.20506754405E+03  0.12509000000E+03 0.  0.
<mgrwt>
<rscale>  2 0.45817249E+03</rscale>
<asrwt>0</asrwt>
<pdfrwt beam="1">  1       21 0.10889589E+00 0.45817249E+03</pdfrwt>
<pdfrwt beam="2">  1       21 0.10422423E-01 0.45817249E+03</pdfrwt>
<totfact> 0.46062551E+04</totfact>
</mgrwt>
</event>
<event>
 7    0  0.4766352E-002  0.4512684E+03  0.7546771E-02  0.1027344E+00
         21   -1    0    0  502  501  0.00000000000E+00  0.00000000000E+00  0.37161854589E+03  0.37161854589E+03  0.00000000000E+00 0. -1.
         21   -1    0    0  501  502 -0.00000000000E+00 -0.00000000000E+00 -0.13699742558E+03  0.13699742558E+03  0.00000000000E+00 0. -1.
      99926    2    1    2    0    0  0.00000000000E+00  0.00000000000E+00  0.23462112031E+03  0.50861597148E+03  0.45126836400E+03 0.  0.
      99925    2    3    3    0    0 -0.21272457372E+02 -0.64254242047E+02  0.24532055883E+03  0.36598669276E+03  0.26302653407E+03 0.  0.
         25    1    4    4    0    0  0.12682939278E+01 -0.31929295052E+01  0.79230933791E+02  0.14811094604E+03  0.12509000000E+03 0.  0.
         25    1    3    3    0    0  0.21272457372E+02  0.64254242047E+02 -0.10699438528E+02  0.14262927872E+03  0.12509000000E+03 0.  0.
         25    1    4    4    0    0 -0.22540751300E+02 -0.61061312542E+02  0.16608962504E+03  0.21787574671E+03  0.12509000000E+03 0.  0.
<mgrwt>
<rscale>  2 0.45126836E+03</rscale>
<asrwt>0</asrwt>
<pdfrwt beam="1">  1       21 0.54649786E-01 0.45126836E+03</pdfrwt>
<pdfrwt beam="2">  1       21 0.20146680E-01 0.45126836E+03</pdfrwt>
<totfact> 0.66620700E+04</totfact>
</mgrwt>
</event>
<event>
 7    0  0.4766352E-002  0.4496711E+03  0.7546771E-02  0.1027820E+00
         21   -1    0    0  502  501  0.00000000000E+00  0.00000000000E+00  0.24470703057E+03  0.24470703057E+03  0.00000000000E+00 0.  1.
         21   -1    0    0  501  502 -0.00000000000E+00 -0.00000000000E+00 -0.20657774342E+03  0.20657774342E+03  0.00000000000E+00 0.  1.
      99926    2    1    2    0    0  0.00000000000E+00  0.71054273576E-14  0.38129287149E+02  0.45128477399E+03  0.44967110725E+03 0.  0.
      99925    2    3    3    0    0 -0.76670060320E+02 -0.63963111184E+02  0.66125940558E+02  0.28880124115E+03  0.26280018861E+03 0.  0.
         25    1    3    3    0    0  0.76670060320E+02  0.63963111184E+02 -0.27996653409E+02  0.16248353284E+03  0.12509000000E+03 0.  0.
         25    1    4    4    0    0 -0.61091422446E+02  0.11965976964E+01  0.31433195055E+02  0.14272052268E+03  0.12509000000E+03 0.  0.
         25    1    4    4    0    0 -0.15578637874E+02 -0.65159708881E+02  0.34692745503E+02  0.14608071847E+03  0.12509000000E+03 0.  0.
<mgrwt>
<rscale>  2 0.44967111E+03</rscale>
<asrwt>0</asrwt>
<pdfrwt beam="1">  1       21 0.35986328E-01 0.44967111E+03</pdfrwt>
<pdfrwt beam="2">  1       21 0.30379080E-01 0.44967111E+03</pdfrwt>
<totfact> 0.71824412E+04</totfact>
</mgrwt>
</event>
<event>
 7    0  0.4766352E-002  0.4656874E+03  0.7546771E-02  0.1023145E+00
         21   -1    0    0  502  501  0.00000000000E+00  0.00000000000E+00  0.63394469890E+02  0.63394469890E+02  0.00000000000E+00 0. -1.
         21   -1    0    0  501  502 -0.00000000000E+00 -0.00000000000E+00 -0.85521966934E+03  0.85521966934E+03  0.00000000000E+00 0. -1.
      99926    2    1    2    0    0  0.00000000000E+00  0.00000000000E+00 -0.79182519945E+03  0.91861413923E+03  0.46568743843E+03 0.  0.
      99925    2    3    3    0    0  0.17133736362E+02 -0.11309494980E+03 -0.40469199308E+03  0.49599887665E+03  0.26297384619E+03 0.  0.
         25    1    4    4    0    0  0.44774346282E+02 -0.39733141714E+02 -0.21025745438E+03  0.25187133592E+03  0.12509000000E+03 0.  0.
         25    1    3    3    0    0 -0.17133736362E+02  0.11309494980E+03 -0.38713320637E+03  0.42261526258E+03  0.12509000000E+03 0.  0.
         25    1    4    4    0    0 -0.27640609920E+02 -0.73361808089E+02 -0.19443453870E+03  0.24412754073E+03  0.12509000000E+03 0.  0.
<mgrwt>
<rscale>  2 0.46568744E+03</rscale>
<asrwt>0</asrwt>
<pdfrwt beam="1">  1       21 0.93227159E-02 0.46568744E+03</pdfrwt>
<pdfrwt beam="2">  1       21 0.12576760E+00 0.46568744E+03</pdfrwt>
<totfact> 0.39066591E+04</totfact>
</mgrwt>
</event>
<event>
 7    0  0.4766352E-002  0.4507164E+03  0.7546771E-02  0.1027509E+00
         21   -1    0    0  502  501  0.00000000000E+00  0.00000000000E+00  0.26802454885E+02  0.26802454885E+02  0.00000000000E+00 0.  1.
         21   -1    0    0  501  502 -0.00000000000E+00 -0.00000000000E+00 -0.18948379873E+04  0.18948379873E+04  0.00000000000E+00 0.  1.
      99926    2    1    2    0    0 -0.17763568394E-14  0.00000000000E+00 -0.18680355324E+04  0.19216404422E+04  0.45071636167E+03 0.  0.
      99925    2    3    3    0    0  0.90706281388E+01  0.87127377461E+02 -0.14568072746E+04  0.14829724078E+04  0.26314686204E+03 0.  0.
         25    1    4    4    0    0 -0.23598216341E+02  0.17742617462E+02 -0.59031296697E+03  0.60414285013E+03  0.12509000000E+03 0.  0.
         25    1    4    4    0    0  0.32668844480E+02  0.69384759998E+02 -0.86649430758E+03  0.87882955770E+03  0.12509000000E+03 0.  0.
         25    1    3    3    0    0 -0.90706281388E+01 -0.87127377461E+02 -0.41122825784E+03  0.43866803433E+03  0.12509000000E+03 0.  0.
<mgrwt>
<rscale>  2 0.45071636E+03</rscale>
<asrwt>0</asrwt>
<pdfrwt beam="1">  1       21 0.39415354E-02 0.45071636E+03</pdfrwt>
<pdfrwt beam="2">  1       21 0.27865279E+00 0.45071636E+03</pdfrwt>
<totfact> 0.15541864E+04</totfact>
</mgrwt>
</event>
<event>
 7    0  0.4766352E-002  0.4506384E+03  0.7546771E-02  0.1027532E+00
         21   -1    0    0  502  501  0.00000000000E+00  0.00000000000E+00  0.90778767719E+03  0.90778767719E+03  0.00000000000E+00 0. -1.
         21   -1    0    0  501  502 -0.00000000000E+00 -0.00000000000E+00 -0.55925795129E+02  0.55925795129E+02  0.00000000000E+00 0. -1.
      99926    2    1    2    0    0 -0.35527136788E-14  0.00000000000E+00  0.85186188206E+03  0.96371347232E+03  0.45063842560E+03 0.  0.
      99925    2    3    3    0    0 -0.13324103622E+02 -0.10287437987E+03  0.46676460093E+03  0.54573249930E+03  0.26304771115E+03 0.  0.
         25    1    3    3    0    0  0.13324103622E+02  0.10287437987E+03  0.38509728113E+03  0.41798097302E+03  0.12509000000E+03 0.  0.
         25    1    4    4    0    0  0.26347090948E+02 -0.30182040570E+02  0.19103598619E+03  0.23183481381E+03  0.12509000000E+03 0.  0.
         25    1    4    4    0    0 -0.39671194570E+02 -0.72692339299E+02  0.27572861474E+03  0.31389768549E+03  0.12509000000E+03 0.  0.
<mgrwt>
<rscale>  2 0.45063843E+03</rscale>
<asrwt>0</asrwt>
<pdfrwt beam="1">  1       21 0.13349818E+00 0.45063843E+03</pdfrwt>
<pdfrwt beam="2">  1       21 0.82243822E-02 0.45063843E+03</pdfrwt>
<totfact> 0.42004682E+04</totfact>
</mgrwt>
</event>
<event>
 7    0  0.4766352E-002  0.4508989E+03  0.7546771E-02  0.1027454E+00
         21   -1    0    0  502  501  0.00000000000E+00  0.00000000000E+00  0.12063795484E+03  0.12063795484E+03  0.00000000000E+00 0. -1.
         21   -1    0    0  501  502 -0.00000000000E+00 -0.00000000000E+00 -0.42132222526E+03  0.42132222526E+03  0.00000000000E+00 0. -1.
      99926    2    1    2    0    0  0.35527136788E-14  0.00000000000E+00 -0.30068427042E+03  0.54196018009E+03  0.45089888703E+03 0.  0.
      99925    2    3    3    0    0  0.23077197966E+02  0.69562940136E+02 -0.28727572180E+03  0.39636190750E+03  0.26306626860E+03 0.  0.
         25    1    4    4    0    0 -0.15227256346E+02  0.72278629040E+01 -0.11029331277E+03  0.16761931357E+03  0.12509000000E+03 0.  0.
         25    1    3    3    0    0 -0.23077197966E+02 -0.69562940136E+02 -0.13408548622E+02  0.14559827259E+03  0.12509000000E+03 0.  0.
         25    1    4    4    0    0  0.38304454312E+02  0.62335077232E+02 -0.17698240903E+03  0.22874259393E+03  0.12509000000E+03 0.  0.
<mgrwt>
<rscale>  2 0.45089889E+03</rscale>
<asrwt>0</asrwt>
<pdfrwt beam="1">  1       21 0.17740876E-01 0.45089889E+03</pdfrwt>
<pdfrwt beam="2">  1       21 0.61959151E-01 0.45089889E+03</pdfrwt>
<totfact> 0.64467839E+04</totfact>
</mgrwt>
</event>
<event>
 7    0  0.4766352E-002  0.4613974E+03  0.7546771E-02  0.1024377E+00
         21   -1    0    0  502  501  0.00000000000E+00  0.00000000000E+00  0.79005357235E+02  0.79005357235E+02  0.00000000000E+00 0. -1.
         21   -1    0    0  501  502 -0.00000000000E+00 -0.00000000000E+00 -0.67364910044E+03  0.67364910044E+03  0.00000000000E+00 0. -1.
      99926    2    1    2    0    0  0.00000000000E+00  0.13322676296E-14 -0.59464374320E+03  0.75265445768E+03  0.46139738981E+03 0.  0.
      99925    2    3    3    0    0  0.11054663089E+03 -0.25476409343E+01 -0.44402691005E+03  0.52779897830E+03  0.26303006781E+03 0.  0.
         25    1    4    4    0    0  0.50543044496E+02  0.35512312794E+02 -0.18782064005E+03  0.23396543470E+03  0.12509000000E+03 0.  0.
         25    1    3    3    0    0 -0.11054663089E+03  0.25476409343E+01 -0.15061683316E+03  0.22485547937E+03  0.12509000000E+03 0.  0.
         25    1    4    4    0    0  0.60003586390E+02 -0.38059953728E+02 -0.25620627000E+03  0.29383354360E+03  0.12509000000E+03 0.  0.
<mgrwt>
<rscale>  2 0.46139739E+03</rscale>
<asrwt>0</asrwt>
<pdfrwt beam="1">  1       21 0.11618434E-01 0.46139739E+03</pdfrwt>
<pdfrwt beam="2">  1       21 0.99066050E-01 0.46139739E+03</pdfrwt>
<totfact> 0.47692212E+04</totfact>
</mgrwt>
</event>
<event>
 7    0  0.4766352E-002  0.4405611E+03  0.7546771E-02  0.1030575E+00
         21   -1    0    0  502  501  0.00000000000E+00  0.00000000000E+00  0.48084562435E+03  0.48084562435E+03  0.00000000000E+00 0.  1.
         21   -1    0    0  501  502 -0.00000000000E+00 -0.00000000000E+00 -0.10091287661E+03  0.10091287661E+03  0.00000000000E+00 0.  1.
      99926    2    1    2    0    0  0.00000000000E+00  0.00000000000E+00  0.37993274774E+03  0.58175850096E+03  0.44056107480E+03 0.  0.
      99925    2    3    3    0    0 -0.38284956961E+02  0.72091766358E+02  0.31627181207E+03  0.41939106722E+03  0.26305521750E+03 0.  0.
         25    1    4    4    0    0 -0.45394651077E+02  0.40142319774E+02  0.21094039177E+03  0.25261717512E+03  0.12509000000E+03 0.  0.
         25    1    4    4    0    0  0.71096941159E+01  0.31949446584E+02  0.10533142029E+03  0.16677389211E+03  0.12509000000E+03 0.  0.
         25    1    3    3    0    0  0.38284956961E+02 -0.72091766358E+02  0.63660935670E+02  0.16236743373E+03  0.12509000000E+03 0.  0.
<mgrwt>
<rscale>  2 0.44056107E+03</rscale>
<asrwt>0</asrwt>
<pdfrwt beam="1">  1       21 0.70712591E-01 0.44056107E+03</pdfrwt>
<pdfrwt beam="2">  1       21 0.14840129E-01 0.44056107E+03</pdfrwt>
<totfact> 0.67158784E+04</totfact>
</mgrwt>
</event>
<event>
 7    0  0.4766352E-002  0.4593421E+03  0.7546771E-02  0.1024972E+00
         21   -1    0    0  502  501  0.00000000000E+00  0.00000000000E+00  0.18655886347E+03  0.18655886347E+03  0.00000000000E+00 0.  1.
         21   -1    0    0  501  502 -0.00000000000E+00 -0.00000000000E+00 -0.28274611400E+03  0.28274611400E+03  0.00000000000E+00 0.  1.
      99926    2    1    2    0    0  0.00000000000E+00  0.00000000000E+00 -0.96187250530E+02  0.46930497746E+03  0.45934211075E+03 0.  0.
      99925    2    3    3    0    0  0.77351752227E+02  0.87996957301E+02 -0.60220756720E+02  0.29418257785E+03  0.26304009486E+03 0.  0.
         25    1    4    4    0    0  0.58328587474E+02  0.22627050592E+02 -0.79723871549E+00  0.13986547546E+03  0.12509000000E+03 0.  0.
         25    1    3    3    0    0 -0.77351752227E+02 -0.87996957301E+02 -0.35966493810E+02  0.17512239961E+03  0.12509000000E+03 0.  0.
         25    1    4    4    0    0  0.19023164753E+02  0.65369906710E+02 -0.59423518004E+02  0.15431710240E+03  0.12509000000E+03 0.  0.
<mgrwt>
<rscale>  2 0.45934211E+03</rscale>
<asrwt>0</asrwt>
<pdfrwt beam="1">  1       21 0.27435127E-01 0.45934211E+03</pdfrwt>
<pdfrwt beam="2">  1       21 0.41580311E-01 0.45934211E+03</pdfrwt>
<totfact> 0.65211850E+04</totfact>
</mgrwt>
</event>
<event>
 7    0  0.4766352E-002  0.4519582E+03  0.7546771E-02  0.1027140E+00
         21   -1    0    0  502  501  0.00000000000E+00  0.00000000000E+00  0.14668772696E+03  0.14668772696E+03  0.00000000000E+00 0.  1.
         21   -1    0    0  501  502 -0.00000000000E+00 -0.00000000000E+00 -0.34813101044E+03  0.34813101044E+03  0.00000000000E+00 0.  1.
      99926    2    1    2    0    0 -0.14210854715E-13 -0.17763568394E-14 -0.20144328348E+03  0.49481873740E+03  0.45195816889E+03 0.  0.
      99925    2    3    3    0    0  0.10459382486E+03  0.12953231115E+02 -0.91628466720E+02  0.29780488897E+03  0.26302912688E+03 0.  0.
         25    1    3    3    0    0 -0.10459382486E+03 -0.12953231115E+02 -0.10981481676E+03  0.19701384843E+03  0.12509000000E+03 0.  0.
         25    1    4    4    0    0  0.36333462798E+02 -0.19533198783E+02 -0.72638217702E+02  0.15041770223E+03  0.12509000000E+03 0.  0.
         25    1    4    4    0    0  0.68260362066E+02  0.32486429899E+02 -0.18990249018E+02  0.14738718674E+03  0.12509000000E+03 0.  0.
<mgrwt>
<rscale>  2 0.45195817E+03</rscale>
<asrwt>0</asrwt>
<pdfrwt beam="1">  1       21 0.21571725E-01 0.45195817E+03</pdfrwt>
<pdfrwt beam="2">  1       21 0.51195736E-01 0.45195817E+03</pdfrwt>
<totfact> 0.67245396E+04</totfact>
</mgrwt>
</event>
<event>
 7    0  0.4766352E-002  0.4558884E+03  0.7546771E-02  0.1025980E+00
         21   -1    0    0  502  501  0.00000000000E+00  0.00000000000E+00  0.16052610539E+03  0.16052610539E+03  0.00000000000E+00 0. -1.
         21   -1    0    0  501  502 -0.00000000000E+00 -0.00000000000E+00 -0.32367670265E+03  0.32367670265E+03  0.00000000000E+00 0. -1.
      99926    2    1    2    0    0  0.00000000000E+00  0.00000000000E+00 -0.16315059726E+03  0.48420280803E+03  0.45588840951E+03 0.  0.
      99925    2    3    3    0    0  0.42506667749E+02  0.99390828995E+02 -0.14143354671E+03  0.31745601773E+03  0.26284885651E+03 0.  0.
         25    1    4    4    0    0  0.29946090208E+02  0.11074421500E+02 -0.80702038706E+02  0.15224893524E+03  0.12509000000E+03 0.  0.
         25    1    4    4    0    0  0.12560577541E+02  0.88316407495E+02 -0.60731508003E+02  0.16520708249E+03  0.12509000000E+03 0.  0.
         25    1    3    3    0    0 -0.42506667749E+02 -0.99390828995E+02 -0.21717050549E+02  0.16674679030E+03  0.12509000000E+03 0.  0.
<mgrwt>
<rscale>  2 0.45588841E+03</rscale>
<asrwt>0</asrwt>
<pdfrwt beam="1">  1       21 0.23606780E-01 0.45588841E+03</pdfrwt>
<pdfrwt beam="2">  1       21 0.47599515E-01 0.45588841E+03</pdfrwt>
<totfact> 0.65929235E+04</totfact>
</mgrwt>
</event>
<event>
 7    0  0.4766352E-002  0.4614266E+03  0.7546771E-02  0.1024368E+00
         21   -1    0    0  502  501  0.00000000000E+00  0.00000000000E+00  0.30305871112E+04  0.30305871112E+04  0.00000000000E+00 0.  1.
         21   -1    0    0  501  502 -0.00000000000E+00 -0.00000000000E+00 -0.17563803817E+02  0.17563803817E+02  0.00000000000E+00 0.  1.
      99926    2    1    2    0    0  0.00000000000E+00  0.00000000000E+00  0.30130233074E+04  0.30481509151E+04  0.46142664627E+03 0.  0.
      99925    2    3    3    0    0 -0.68680367261E+02 -0.89797805510E+02  0.16388714679E+04  0.16636938284E+04  0.26305289873E+03 0.  0.
         25    1    3    3    0    0  0.68680367261E+02  0.89797805510E+02  0.13741518395E+04  0.13844570866E+04  0.12509000000E+03 0.  0.
         25    1    4    4    0    0 -0.17824742544E+02 -0.67491624790E+01  0.65092460421E+03  0.66310905672E+03  0.12509000000E+03 0.  0.
         25    1    4    4    0    0 -0.50855624717E+02 -0.83048643031E+02  0.98794686374E+03  0.10005847717E+04  0.12509000000E+03 0.  0.
<mgrwt>
<rscale>  2 0.46142665E+03</rscale>
<asrwt>0</asrwt>
<pdfrwt beam="1">  1       21 0.44567421E+00 0.46142665E+03</pdfrwt>
<pdfrwt beam="2">  1       21 0.25829144E-02 0.46142665E+03</pdfrwt>
<totfact> 0.28434301E+03</totfact>
</mgrwt>
</event>
<event>
 7    0  0.4766352E-002  0.4456391E+03  0.7546771E-02  0.1029031E+00
         21   -1    0    0  502  501  0.00000000000E+00  0.00000000000E+00  0.11564595375E+04  0.11564595375E+04  0.00000000000E+00 0. -1.
         21   -1    0    0  501  502 -0.00000000000E+00 -0.00000000000E+00 -0.42931502337E+02  0.42931502337E+02  0.00000000000E+00 0. -1.
      99926    2    1    2    0    0  0.00000000000E+00  0.00000000000E+00  0.11135280352E+04  0.11993910398E+04  0.44563907071E+03 0.  0.
      99925    2    3    3    0    0  0.11824619324E+02 -0.98934648809E+02  0.62481605760E+03  0.68517825172E+03  0.26295673490E+03 0.  0.
         25    1    4    4    0    0 -0.22921234048E+01 -0.89710925477E+02  0.37224097287E+03  0.40282025019E+03  0.12509000000E+03 0.  0.
         25    1    4    4    0    0  0.14116742729E+02 -0.92237233324E+01  0.25257508473E+03  0.28235800152E+03  0.12509000000E+03 0.  0.
         25    1    3    3    0    0 -0.11824619324E+02  0.98934648809E+02  0.48871197756E+03  0.51421278812E+03  0.12509000000E+03 0.  0.
<mgrwt>
<rscale>  2 0.44563907E+03</rscale>
<asrwt>0</asrwt>
<pdfrwt beam="1">  1       21 0.17006756E+00 0.44563907E+03</pdfrwt>
<pdfrwt beam="2">  1       21 0.63134570E-02 0.44563907E+03</pdfrwt>
<totfact> 0.34632612E+04</totfact>
</mgrwt>
</event>
<event>
 7    0  0.4766352E-002  0.4559843E+03  0.7546771E-02  0.1025952E+00
         21   -1    0    0  502  501  0.00000000000E+00  0.00000000000E+00  0.25947316850E+03  0.25947316850E+03  0.00000000000E+00 0.  1.
         21   -1    0    0  501  502 -0.00000000000E+00 -0.00000000000E+00 -0.20033063885E+03  0.20033063885E+03  0.00000000000E+00 0.  1.
      99926    2    1    2    0    0  0.00000000000E+00  0.00000000000E+00  0.59142529641E+02  0.45980380735E+03  0.45598432258E+03 0.  0.
      99925    2    3    3    0    0 -0.10257532534E+03 -0.49433858168E+02  0.44262326080E+02  0.28999705760E+03  0.26300900404E+03 0.  0.
         25    1    3    3    0    0  0.10257532534E+03  0.49433858168E+02  0.14880203561E+02  0.16980674975E+03  0.12509000000E+03 0.  0.
         25    1    4    4    0    0 -0.17393631507E+02 -0.47347680895E+02  0.13517790834E+02  0.13555286818E+03  0.12509000000E+03 0.  0.
         25    1    4    4    0    0 -0.85181693829E+02 -0.20861772730E+01  0.30744535246E+02  0.15444418942E+03  0.12509000000E+03 0.  0.
<mgrwt>
<rscale>  2 0.45598432E+03</rscale>
<asrwt>0</asrwt>
<pdfrwt beam="1">  1       21 0.38157819E-01 0.45598432E+03</pdfrwt>
<pdfrwt beam="2">  1       21 0.29460388E-01 0.45598432E+03</pdfrwt>
<totfact> 0.67662156E+04</totfact>
</mgrwt>
</event>
<event>
 7    0  0.4766352E-002  0.4434150E+03  0.7546771E-02  0.1029704E+00
         21   -1    0    0  502  501  0.00000000000E+00  0.00000000000E+00  0.68293492947E+02  0.68293492947E+02  0.00000000000E+00 0. -1.
         21   -1    0    0  501  502 -0.00000000000E+00 -0.00000000000E+00 -0.71974966849E+03  0.71974966849E+03  0.00000000000E+00 0. -1.
      99926    2    1    2    0    0  0.00000000000E+00  0.71054273576E-14 -0.65145617555E+03  0.78804316144E+03  0.44341501512E+03 0.  0.
      99925    2    3    3    0    0 -0.42087950513E+02  0.36527804319E+02 -0.26301555976E+03  0.37617024881E+03  0.26309921198E+03 0.  0.
         25    1    4    4    0    0 -0.22698766590E+02  0.53364103026E+01 -0.18403878047E+03  0.22374425601E+03  0.12509000000E+03 0.  0.
         25    1    3    3    0    0  0.42087950513E+02 -0.36527804319E+02 -0.38844061579E+03  0.41187291264E+03  0.12509000000E+03 0.  0.
         25    1    4    4    0    0 -0.19389183922E+02  0.31191394016E+02 -0.78976779282E+02  0.15242599280E+03  0.12509000000E+03 0.  0.
<mgrwt>
<rscale>  2 0.44341502E+03</rscale>
<asrwt>0</asrwt>
<pdfrwt beam="1">  1       21 0.10043161E-01 0.44341502E+03</pdfrwt>
<pdfrwt beam="2">  1       21 0.10584553E+00 0.44341502E+03</pdfrwt>
<totfact> 0.53006500E+04</totfact>
</mgrwt>
</event>
<event>
 7    0  0.4766352E-002  0.4471693E+03  0.7546771E-02  0.1028570E+00
         21   -1    0    0  502  501  0.00000000000E+00  0.00000000000E+00  0.70366094765E+02  0.70366094765E+02  0.00000000000E+00 0. -1.
         21   -1    0    0  501  502 -0.00000000000E+00 -0.00000000000E+00 -0.71042874056E+03  0.71042874056E+03  0.00000000000E+00 0. -1.
      99926    2    1    2    0    0  0.00000000000E+00  0.00000000000E+00 -0.64006264579E+03  0.78079483532E+03  0.44716930164E+03 0.  0.
      99925    2    3    3    0    0  0.32649323917E+02  0.29267507085E+02 -0.23824095335E+03  0.35767458535E+03  0.26315355180E+03 0.  0.
         25    1    4    4    0    0 -0.11816042447E+02  0.17217974495E+02 -0.76609051471E+02  0.14816387000E+03  0.12509000000E+03 0.  0.
         25    1    3    3    0    0 -0.32649323917E+02 -0.29267507085E+02 -0.40182169244E+03  0.42312024998E+03  0.12509000000E+03 0.  0.
         25    1    4    4    0    0  0.44465366364E+02  0.12049532590E+02 -0.16163190188E+03  0.20951071535E+03  0.12509000000E+03 0.  0.
<mgrwt>
<rscale>  2 0.44716930E+03</rscale>
<asrwt>0</asrwt>
<pdfrwt beam="1">  1       21 0.10347955E-01 0.44716930E+03</pdfrwt>
<pdfrwt beam="2">  1       21 0.10447482E+00 0.44716930E+03</pdfrwt>
<totfact> 0.51820280E+04</totfact>
</mgrwt>
</event>
<event>
 7    0  0.4766352E-002  0.4547019E+03  0.7546771E-02  0.1026329E+00
         21   -1    0    0  502  501  0.00000000000E+00  0.00000000000E+00  0.70084871928E+03  0.70084871928E+03  0.00000000000E+00 0.  1.
         21   -1    0    0  501  502 -0.00000000000E+00 -0.00000000000E+00 -0.73751226885E+02  0.73751226885E+02  0.00000000000E+00 0.  1.
      99926    2    1    2    0    0  0.00000000000E+00  0.00000000000E+00  0.62709749239E+03  0.77459994616E+03  0.45470189314E+03 0.  0.
      99925    2    3    3    0    0  0.36649642378E+02 -0.67047785265E+02  0.53634867789E+03  0.60220082427E+03  0.26293977767E+03 0.  0.
         25    1    4    4    0    0  0.13560485933E+02 -0.51437620353E+02  0.19599952331E+03  0.23852261277E+03  0.12509000000E+03 0.  0.
         25    1    4    4    0    0  0.23089156445E+02 -0.15610164912E+02  0.34034915458E+03  0.36367821150E+03  0.12509000000E+03 0.  0.
         25    1    3    3    0    0 -0.36649642378E+02  0.67047785265E+02  0.90748814502E+02  0.17239912189E+03  0.12509000000E+03 0.  0.
<mgrwt>
<rscale>  2 0.45470189E+03</rscale>
<asrwt>0</asrwt>
<pdfrwt beam="1">  1       21 0.10306598E+00 0.45470189E+03</pdfrwt>
<pdfrwt beam="2">  1       21 0.10845769E-01 0.45470189E+03</pdfrwt>
<totfact> 0.49132804E+04</totfact>
</mgrwt>
</event>
<event>
 7    0  0.4766352E-002  0.4130609E+03  0.7546771E-02  0.1039349E+00
         21   -1    0    0  502  501  0.00000000000E+00  0.00000000000E+00  0.15621568387E+03  0.15621568387E+03  0.00000000000E+00 0.  1.
         21   -1    0    0  501  502 -0.00000000000E+00 -0.00000000000E+00 -0.27305080557E+03  0.27305080557E+03  0.00000000000E+00 0.  1.
      99926    2    1    2    0    0  0.00000000000E+00 -0.71054273576E-14 -0.11683512170E+03  0.42926648944E+03  0.41306085907E+03 0.  0.
      99925    2    3    3    0    0 -0.54417542239E+02  0.35650952703E+02 -0.61019930722E+02  0.27762512643E+03  0.26290686478E+03 0.  0.
         25    1    3    3    0    0  0.54417542239E+02 -0.35650952703E+02 -0.55815190983E+02  0.15164136301E+03  0.12509000000E+03 0.  0.
         25    1    4    4    0    0 -0.27341681310E+02  0.34475176737E+02  0.67954219025E+01  0.13277722398E+03  0.12509000000E+03 0.  0.
         25    1    4    4    0    0 -0.27075860929E+02  0.11757759658E+01 -0.67815352625E+02  0.14484790246E+03  0.12509000000E+03 0.  0.
<mgrwt>
<rscale>  2 0.41306086E+03</rscale>
<asrwt>0</asrwt>
<pdfrwt beam="1">  1       21 0.22972895E-01 0.41306086E+03</pdfrwt>
<pdfrwt beam="2">  1       21 0.40154529E-01 0.41306086E+03</pdfrwt>
<totfact> 0.99915276E+04</totfact>
</mgrwt>
</event>
<event>
 7    0  0.4766352E-002  0.4526007E+03  0.7546771E-02  0.1026949E+00
         21   -1    0    0  502  501  0.00000000000E+00  0.00000000000E+00  0.31186262742E+03  0.31186262742E+03  0.00000000000E+00 0. -1.
         21   -1    0    0  501  502 -0.00000000000E+00 -0.00000000000E+00 -0.16421281294E+03  0.16421281294E+03  0.00000000000E+00 0. -1.
      99926    2    1    2    0    0  0.00000000000E+00  0.00000000000E+00  0.14764981447E+03  0.47607544036E+03  0.45260065975E+03 0.  0.
      99925    2    3    3    0    0 -0.33982458273E+02 -0.10007805524E+03  0.12841744542E+03  0.31118815544E+03  0.26301445432E+03 0.  0.
         25    1    3    3    0    0  0.33982458273E+02  0.10007805524E+03  0.19232369052E+02  0.16488728493E+03  0.12509000000E+03 0.  0.
         25    1    4    4    0    0  0.62869776183E+00 -0.27462017610E+02  0.26194452793E+02  0.13072189996E+03  0.12509000000E+03 0.  0.
         25    1    4    4    0    0 -0.34611156034E+02 -0.72616037631E+02  0.10222299263E+03  0.18046625548E+03  0.12509000000E+03 0.  0.
<mgrwt>
<rscale>  2 0.45260066E+03</rscale>
<asrwt>0</asrwt>
<pdfrwt beam="1">  1       21 0.45862151E-01 0.45260066E+03</pdfrwt>
<pdfrwt beam="2">  1       21 0.24148943E-01 0.45260066E+03</pdfrwt>
<totfact> 0.68277875E+04</totfact>
</mgrwt>
</event>
<event>
 7    0  0.4766352E-002  0.4577754E+03  0.7546771E-02  0.1025428E+00
         21   -1    0    0  502  501  0.00000000000E+00  0.00000000000E+00  0.81489935403E+02  0.81489935403E+02  0.00000000000E+00 0.  1.
         21   -1    0    0  501  502 -0.00000000000E+00 -0.00000000000E+00 -0.64289623865E+03  0.64289623865E+03  0.00000000000E+00 0.  1.
      99926    2    1    2    0    0 -0.14210854715E-13  0.00000000000E+00 -0.56140630324E+03  0.72438617405E+03  0.45777537268E+03 0.  0.
      99925    2    3    3    0    0  0.10413899769E+03  0.20659475456E+02 -0.42564685597E+03  0.51143106049E+03  0.26289682172E+03 0.  0.
         25    1    3    3    0    0 -0.10413899769E+03 -0.20659475456E+02 -0.13575944727E+03  0.21295511356E+03  0.12509000000E+03 0.  0.
         25    1    4    4    0    0  0.54122145519E+02  0.25563025766E+02 -0.14816751011E+03  0.20293790694E+03  0.12509000000E+03 0.  0.
         25    1    4    4    0    0  0.50016852173E+02 -0.49035503098E+01 -0.27747934587E+03  0.30849315355E+03  0.12509000000E+03 0.  0.
<mgrwt>
<rscale>  2 0.45777537E+03</rscale>
<asrwt>0</asrwt>
<pdfrwt beam="1">  1       21 0.11983813E-01 0.45777537E+03</pdfrwt>
<pdfrwt beam="2">  1       21 0.94543569E-01 0.45777537E+03</pdfrwt>
<totfact> 0.50487825E+04</totfact>
</mgrwt>
</event>
<event>
 7    0  0.4766352E-002  0.4552579E+03  0.7546771E-02  0.1026166E+00
         21   -1    0    0  502  501  0.00000000000E+00  0.00000000000E+00  0.22122436818E+03  0.22122436818E+03  0.00000000000E+00 0.  1.
         21   -1    0    0  501  502 -0.00000000000E+00 -0.00000000000E+00 -0.23421897720E+03  0.23421897720E+03  0.00000000000E+00 0.  1.
      99926    2    1    2    0    0 -0.35527136788E-14  0.00000000000E+00 -0.12994609020E+02  0.45544334539E+03  0.45525792799E+03 0.  0.
      99925    2    3    3    0    0 -0.23229348724E+02 -0.86444744710E+02 -0.77932730558E+02  0.28847998336E+03  0.26293515128E+03 0.  0.
         25    1    3    3    0    0  0.23229348724E+02  0.86444744710E+02  0.64938121538E+02  0.16696336203E+03  0.12509000000E+03 0.  0.
         25    1    4    4    0    0 -0.25672697540E+02 -0.98839735632E+01 -0.57460999461E+02  0.14037825648E+03  0.12509000000E+03 0.  0.
         25    1    4    4    0    0  0.24433488155E+01 -0.76560771147E+02 -0.20471731097E+02  0.14810172688E+03  0.12509000000E+03 0.  0.
<mgrwt>
<rscale>  2 0.45525793E+03</rscale>
<asrwt>0</asrwt>
<pdfrwt beam="1">  1       21 0.32532996E-01 0.45525793E+03</pdfrwt>
<pdfrwt beam="2">  1       21 0.34443967E-01 0.45525793E+03</pdfrwt>
<totfact> 0.68372516E+04</totfact>
</mgrwt>
</event>
<event>
 7    0  0.4766352E-002  0.4566847E+03  0.7546771E-02  0.1025747E+00
         21   -1    0    0  502  501  0.00000000000E+00  0.00000000000E+00  0.26618741561E+03  0.26618741561E+03  0.00000000000E+00 0.  1.
         21   -1    0    0  501  502 -0.00000000000E+00 -0.00000000000E+00 -0.19587789522E+03  0.19587789522E+03  0.00000000000E+00 0.  1.
      99926    2    1    2    0    0  0.00000000000E+00  0.00000000000E+00  0.70309520395E+02  0.46206531083E+03  0.45668470832E+03 0.  0.
      99925    2    3    3    0    0  0.93020325481E+02 -0.66241931861E+02  0.55265302161E+02  0.29202234246E+03  0.26302475241E+03 0.  0.
         25    1    4    4    0    0  0.63257389897E+02 -0.36916399875E+02 -0.91601615283E+01  0.14524370766E+03  0.12509000000E+03 0.  0.
         25    1    4    4    0    0  0.29762935584E+02 -0.29325531986E+02  0.64425463689E+02  0.14677863480E+03  0.12509000000E+03 0.  0.
         25    1    3    3    0    0 -0.93020325481E+02  0.66241931861E+02  0.15044218235E+02  0.17004296837E+03  0.12509000000E+03 0.  0.
<mgrwt>
<rscale>  2 0.45668471E+03</rscale>
<asrwt>0</asrwt>
<pdfrwt beam="1">  1       21 0.39145208E-01 0.45668471E+03</pdfrwt>
<pdfrwt beam="2">  1       21 0.28805573E-01 0.45668471E+03</pdfrwt>
<totfact> 0.67123957E+04</totfact>
</mgrwt>
</event>
<event>
 6    0  0.4766352E-002  0.4599336E+03  0.7546771E-02  0.1024800E+00
         21   -1    0    0  502  501  0.00000000000E+00  0.00000000000E+00  0.16834802429E+03  0.16834802429E+03  0.00000000000E+00 0.  1.
         21   -1    0    0  501  502 -0.00000000000E+00 -0.00000000000E+00 -0.31413932097E+03  0.31413932097E+03  0.00000000000E+00 0.  1.
      99926    2    1    2    0    0  0.00000000000E+00 -0.35527136788E-14 -0.14579129667E+03  0.48248734526E+03  0.45993362146E+03 0.  0.
         25    1    3    3    0    0 -0.21433347541E+02  0.16867504591E+02 -0.68883122332E+02  0.14538326499E+03  0.12509000000E+03 0.  0.
         25    1    3    3    0    0 -0.40610413504E+02  0.28754561556E+02  0.49370853627E+02  0.14339114262E+03  0.12509000000E+03 0.  0.
         25    1    3    3    0    0  0.62043761045E+02 -0.45622066147E+02 -0.12627902797E+03  0.19371293764E+03  0.12509000000E+03 0.  0.
<mgrwt>
<rscale>  2 0.45993362E+03</rscale>
<asrwt>0</asrwt>
<pdfrwt beam="1">  1       21 0.24757063E-01 0.45993362E+03</pdfrwt>
<pdfrwt beam="2">  1       21 0.46196958E-01 0.45993362E+03</pdfrwt>
<totfact> 0.63977200E+04</totfact>
</mgrwt>
</event>
<event>
 7    0  0.4766352E-002  0.4561448E+03  0.7546771E-02  0.1025905E+00
         21   -1    0    0  502  501  0.00000000000E+00  0.00000000000E+00  0.14200494976E+03  0.14200494976E+03  0.00000000000E+00 0. -1.
         21   -1    0    0  501  502 -0.00000000000E+00 -0.00000000000E+00 -0.36630430177E+03  0.36630430177E+03  0.00000000000E+00 0. -1.
      99926    2    1    2    0    0  0.00000000000E+00 -0.71054273576E-14 -0.22429935201E+03  0.50830925153E+03  0.45614481898E+03 0.  0.
      99925    2    3    3    0    0 -0.95424103741E+02 -0.61485590332E+02 -0.12650338089E+03  0.31312268063E+03  0.26297617830E+03 0.  0.
         25    1    4    4    0    0 -0.83871727983E+02 -0.16449988329E+02 -0.83074499485E+02  0.17278295470E+03  0.12509000000E+03 0.  0.
         25    1    3    3    0    0  0.95424103741E+02  0.61485590332E+02 -0.97795971119E+02  0.19518657090E+03  0.12509000000E+03 0.  0.
         25    1    4    4    0    0 -0.11552375758E+02 -0.45035602003E+02 -0.43428881402E+02  0.14033972593E+03  0.12509000000E+03 0.  0.
<mgrwt>
<rscale>  2 0.45614482E+03</rscale>
<asrwt>0</asrwt>
<pdfrwt beam="1">  1       21 0.20883081E-01 0.45614482E+03</pdfrwt>
<pdfrwt beam="2">  1       21 0.53868279E-01 0.45614482E+03</pdfrwt>
<totfact> 0.64106300E+04</totfact>
</mgrwt>
</event>
<event>
 7    0  0.4766352E-002  0.4523241E+03  0.7546771E-02  0.1027031E+00
         21   -1    0    0  502  501  0.00000000000E+00  0.00000000000E+00  0.57087350757E+03  0.57087350757E+03  0.00000000000E+00 0.  1.
         21   -1    0    0  501  502 -0.00000000000E+00 -0.00000000000E+00 -0.89598247332E+02  0.89598247332E+02  0.00000000000E+00 0.  1.
      99926    2    1    2    0    0  0.14210854715E-13  0.00000000000E+00  0.48127526024E+03  0.66047175490E+03  0.45232406846E+03 0.  0.
      99925    2    3    3    0    0  0.10943206595E+03 -0.13596469442E+02  0.31744200895E+03  0.42670032088E+03  0.26295150456E+03 0.  0.
         25    1    4    4    0    0  0.17638485267E+02 -0.52733199728E+01  0.11049864059E+03  0.16791778267E+03  0.12509000000E+03 0.  0.
         25    1    3    3    0    0 -0.10943206595E+03  0.13596469442E+02  0.16383325129E+03  0.23377143403E+03  0.12509000000E+03 0.  0.
         25    1    4    4    0    0  0.91793580678E+02 -0.83231494688E+01  0.20694336836E+03  0.25878253820E+03  0.12509000000E+03 0.  0.
<mgrwt>
<rscale>  2 0.45232407E+03</rscale>
<asrwt>0</asrwt>
<pdfrwt beam="1">  1       21 0.83951984E-01 0.45232407E+03</pdfrwt>
<pdfrwt beam="2">  1       21 0.13176213E-01 0.45232407E+03</pdfrwt>
<totfact> 0.56279894E+04</totfact>
</mgrwt>
</event>
<event>
 7    0  0.4766352E-002  0.4564394E+03  0.7546771E-02  0.1025819E+00
         21   -1    0    0  502  501  0.00000000000E+00  0.00000000000E+00  0.15633562788E+03  0.15633562788E+03  0.00000000000E+00 0.  1.
         21   -1    0    0  501  502 -0.00000000000E+00 -0.00000000000E+00 -0.33315643593E+03  0.33315643593E+03  0.00000000000E+00 0.  1.
      99926    2    1    2    0    0  0.00000000000E+00  0.17763568394E-14 -0.17682080805E+03  0.48949206380E+03  0.45643935234E+03 0.  0.
      99925    2    3    3    0    0 -0.90976840392E+02  0.14854729494E+02 -0.18403510825E+03  0.33393820592E+03  0.26296074959E+03 0.  0.
         25    1    4    4    0    0 -0.38810219502E+02 -0.30196662419E+02 -0.72434908569E+02  0.15268397309E+03  0.12509000000E+03 0.  0.
         25    1    4    4    0    0 -0.52166620890E+02  0.45051391912E+02 -0.11160019968E+03  0.18125423283E+03  0.12509000000E+03 0.  0.
         25    1    3    3    0    0  0.90976840392E+02 -0.14854729494E+02  0.72143002002E+01  0.15555385789E+03  0.12509000000E+03 0.  0.
<mgrwt>
<rscale>  2 0.45643935E+03</rscale>
<asrwt>0</asrwt>
<pdfrwt beam="1">  1       21 0.22990534E-01 0.45643935E+03</pdfrwt>
<pdfrwt beam="2">  1       21 0.48993592E-01 0.45643935E+03</pdfrwt>
<totfact> 0.65266408E+04</totfact>
</mgrwt>
</event>
<event>
 7    0  0.4766352E-002  0.4565623E+03  0.7546771E-02  0.1025783E+00
         21   -1    0    0  502  501  0.00000000000E+00  0.00000000000E+00  0.90682188264E+03  0.90682188264E+03  0.00000000000E+00 0.  1.
         21   -1    0    0  501  502 -0.00000000000E+00 -0.00000000000E+00 -0.57466944372E+02  0.57466944372E+02  0.00000000000E+00 0.  1.
      99926    2    1    2    0    0  0.00000000000E+00  0.88817841970E-15  0.84935493827E+03  0.96428882701E+03  0.45656229667E+03 0.  0.
      99925    2    3    3    0    0 -0.87527183228E+02 -0.71976928968E+01  0.68904839169E+03  0.74279726608E+03  0.26314877508E+03 0.  0.
         25    1    3    3    0    0  0.87527183228E+02  0.71976928968E+01  0.16030654658E+03  0.22149156093E+03  0.12509000000E+03 0.  0.
         25    1    4    4    0    0 -0.45189545076E+02 -0.20473992119E+02  0.24732404284E+03  0.28156343798E+03  0.12509000000E+03 0.  0.
         25    1    4    4    0    0 -0.42337638151E+02  0.13276299222E+02  0.44172434885E+03  0.46123382811E+03  0.12509000000E+03 0.  0.
<mgrwt>
<rscale>  2 0.45656230E+03</rscale>
<asrwt>0</asrwt>
<pdfrwt beam="1">  1       21 0.13335615E+00 0.45656230E+03</pdfrwt>
<pdfrwt beam="2">  1       21 0.84510218E-02 0.45656230E+03</pdfrwt>
<totfact> 0.40075831E+04</totfact>
</mgrwt>
</event>
<event>
 7    0  0.4766352E-002  0.4597755E+03  0.7546771E-02  0.1024846E+00
         21   -1    0    0  502  501  0.00000000000E+00  0.00000000000E+00  0.46697582574E+03  0.46697582574E+03  0.00000000000E+00 0.  1.
         21   -1    0    0  501  502 -0.00000000000E+00 -0.00000000000E+00 -0.11317155645E+03  0.11317155645E+03  0.00000000000E+00 0.  1.
      99926    2    1    2    0    0  0.00000000000E+00  0.00000000000E+00  0.35380426929E+03  0.58014738219E+03  0.45977551489E+03 0.  0.
      99925    2    3    3    0    0 -0.30024139195E+02  0.11055487586E+03  0.25509254200E+03  0.38389412052E+03  0.26301836681E+03 0.  0.
         25    1    4    4    0    0 -0.65238418483E+01  0.60416752502E+02  0.75836278254E+02  0.15840263159E+03  0.12509000000E+03 0.  0.
         25    1    3    3    0    0  0.30024139195E+02 -0.11055487586E+03  0.98711727287E+02  0.19625326167E+03  0.12509000000E+03 0.  0.
         25    1    4    4    0    0 -0.23500297346E+02  0.50138123356E+02  0.17925626375E+03  0.22549148893E+03  0.12509000000E+03 0.  0.
<mgrwt>
<rscale>  2 0.45977551E+03</rscale>
<asrwt>0</asrwt>
<pdfrwt beam="1">  1       21 0.68672915E-01 0.45977551E+03</pdfrwt>
<pdfrwt beam="2">  1       21 0.16642876E-01 0.45977551E+03</pdfrwt>
<totfact> 0.57707436E+04</totfact>
</mgrwt>
</event>
<event>
 7    0  0.4766352E-002  0.4563305E+03  0.7546771E-02  0.1025851E+00
         21   -1    0    0  502  501  0.00000000000E+00  0.00000000000E+00  0.29876283158E+02  0.29876283158E+02  0.00000000000E+00 0.  1.
         21   -1    0    0  501  502 -0.00000000000E+00 -0.00000000000E+00 -0.17424983435E+04  0.17424983435E+04  0.00000000000E+00 0.  1.
      99926    2    1    2    0    0 -0.35527136788E-14  0.00000000000E+00 -0.17126220603E+04  0.17723746266E+04  0.45633046759E+03 0.  0.
      99925    2    3    3    0    0  0.28780357571E+02 -0.45661080542E+02 -0.14681469430E+04  0.14925017370E+04  0.26304513964E+03 0.  0.
         25    1    4    4    0    0  0.29666490271E+02  0.14896110566E+02 -0.68514171230E+03  0.69725796430E+03  0.12509000000E+03 0.  0.
         25    1    3    3    0    0 -0.28780357571E+02  0.45661080542E+02 -0.24447511734E+03  0.27987288964E+03  0.12509000000E+03 0.  0.
         25    1    4    4    0    0 -0.88613270037E+00 -0.60557191109E+02 -0.78300523067E+03  0.79524377268E+03  0.12509000000E+03 0.  0.
<mgrwt>
<rscale>  2 0.45633047E+03</rscale>
<asrwt>0</asrwt>
<pdfrwt beam="1">  1       21 0.43935713E-02 0.45633047E+03</pdfrwt>
<pdfrwt beam="2">  1       21 0.25624974E+00 0.45633047E+03</pdfrwt>
<totfact> 0.17613714E+04</totfact>
</mgrwt>
</event>
<event>
 7    0  0.4766352E-002  0.4664235E+03  0.7546771E-02  0.1022935E+00
         21   -1    0    0  502  501  0.00000000000E+00  0.00000000000E+00  0.48457679753E+03  0.48457679753E+03  0.00000000000E+00 0.  1.
         21   -1    0    0  501  502 -0.00000000000E+00 -0.00000000000E+00 -0.11223757677E+03  0.11223757677E+03  0.00000000000E+00 0.  1.
      99926    2    1    2    0    0 -0.71054273576E-14  0.00000000000E+00  0.37233922076E+03  0.59681437429E+03  0.46642352218E+03 0.  0.
      99925    2    3    3    0    0 -0.63390790964E+02 -0.89669944716E+02  0.30476340017E+03  0.41716724519E+03  0.26284727317E+03 0.  0.
         25    1    3    3    0    0  0.63390790964E+02  0.89669944716E+02  0.67575820589E+02  0.17964712910E+03  0.12509000000E+03 0.  0.
         25    1    4    4    0    0 -0.28585815115E+02 -0.16081456555E+02  0.98437886143E+02  0.16252165271E+03  0.12509000000E+03 0.  0.
         25    1    4    4    0    0 -0.34804975849E+02 -0.73588488161E+02  0.20632551403E+03  0.25464559249E+03  0.12509000000E+03 0.  0.
<mgrwt>
<rscale>  2 0.46642352E+03</rscale>
<asrwt>0</asrwt>
<pdfrwt beam="1">  1       21 0.71261293E-01 0.46642352E+03</pdfrwt>
<pdfrwt beam="2">  1       21 0.16505526E-01 0.46642352E+03</pdfrwt>
<totfact> 0.53846717E+04</totfact>
</mgrwt>
</event>
<event>
 7    0  0.4766352E-002  0.4428054E+03  0.7546771E-02  0.1029890E+00
         21   -1    0    0  502  501  0.00000000000E+00  0.00000000000E+00  0.36319161571E+03  0.36319161571E+03  0.00000000000E+00 0. -1.
         21   -1    0    0  501  502 -0.00000000000E+00 -0.00000000000E+00 -0.13496772522E+03  0.13496772522E+03  0.00000000000E+00 0. -1.
      99926    2    1    2    0    0 -0.35527136788E-14 -0.71054273576E-14  0.22822389050E+03  0.49815934093E+03  0.44280535765E+03 0.  0.
      99925    2    3    3    0    0 -0.31459907618E+02 -0.52998232889E+02  0.54829024599E+02  0.27564681073E+03  0.26301407538E+03 0.  0.
         25    1    4    4    0    0 -0.40439224735E+02 -0.17714619655E+02 -0.39702989022E+01  0.13271175540E+03  0.12509000000E+03 0.  0.
         25    1    3    3    0    0  0.31459907618E+02  0.52998232889E+02  0.17339486590E+03  0.22251253020E+03  0.12509000000E+03 0.  0.
         25    1    4    4    0    0  0.89793171175E+01 -0.35283613235E+02  0.58799323501E+02  0.14293505533E+03  0.12509000000E+03 0.  0.
<mgrwt>
<rscale>  2 0.44280536E+03</rscale>
<asrwt>0</asrwt>
<pdfrwt beam="1">  1       21 0.53410532E-01 0.44280536E+03</pdfrwt>
<pdfrwt beam="2">  1       21 0.19848195E-01 0.44280536E+03</pdfrwt>
<totfact> 0.72133252E+04</totfact>
</mgrwt>
</event>
<event>
 7    0  0.4766352E-002  0.4646222E+03  0.7546771E-02  0.1023449E+00
         21   -1    0    0  502  501  0.00000000000E+00  0.00000000000E+00  0.47834960384E+02  0.47834960384E+02  0.00000000000E+00 0.  1.
         21   -1    0    0  501  502 -0.00000000000E+00 -0.00000000000E+00 -0.11282220250E+04  0.11282220250E+04  0.00000000000E+00 0.  1.
      99926    2    1    2    0    0 -0.71054273576E-14  0.14210854715E-13 -0.10803870647E+04  0.11760569854E+04  0.46462223740E+03 0.  0.
      99925    2    3    3    0    0  0.62454802178E+02  0.87812917431E+02 -0.52935217365E+03  0.60081906074E+03  0.26297929429E+03 0.  0.
         25    1    3    3    0    0 -0.62454802178E+02 -0.87812917431E+02 -0.55103489100E+03  0.57523792468E+03  0.12509000000E+03 0.  0.
         25    1    4    4    0    0  0.56368316001E+02  0.78818688615E+02 -0.31104457649E+03  0.34897852281E+03  0.12509000000E+03 0.  0.
         25    1    4    4    0    0  0.60864861769E+01  0.89942288164E+01 -0.21830759716E+03  0.25184053793E+03  0.12509000000E+03 0.  0.
<mgrwt>
<rscale>  2 0.46462224E+03</rscale>
<asrwt>0</asrwt>
<pdfrwt beam="1">  1       21 0.70345530E-02 0.46462224E+03</pdfrwt>
<pdfrwt beam="2">  1       21 0.16591500E+00 0.46462224E+03</pdfrwt>
<totfact> 0.30567314E+04</totfact>
</mgrwt>
</event>
<event>
 7    0  0.4766352E-002  0.4540479E+03  0.7546771E-02  0.1026522E+00
         21   -1    0    0  502  501  0.00000000000E+00  0.00000000000E+00  0.79176427022E+02  0.79176427022E+02  0.00000000000E+00 0.  1.
         21   -1    0    0  501  502 -0.00000000000E+00 -0.00000000000E+00 -0.65094984127E+03  0.65094984127E+03  0.00000000000E+00 0.  1.
      99926    2    1    2    0    0  0.14210854715E-13  0.00000000000E+00 -0.57177341425E+03  0.73012626829E+03  0.45404793845E+03 0.  0.
      99925    2    3    3    0    0  0.75320051146E+02 -0.36173731001E+02 -0.47875750706E+03  0.55326158553E+03  0.26440117726E+03 0.  0.
         25    1    4    4    0    0  0.71993431492E+02 -0.44372126889E+02 -0.23931951356E+03  0.28297222036E+03  0.12509000000E+03 0.  0.
         25    1    4    4    0    0  0.33266196546E+01  0.81983958879E+01 -0.23943799350E+03  0.27028936517E+03  0.12509000000E+03 0.  0.
         25    1    3    3    0    0 -0.75320051146E+02  0.36173731001E+02 -0.93015907185E+02  0.17686468276E+03  0.12509000000E+03 0.  0.
<mgrwt>
<rscale>  2 0.45404794E+03</rscale>
<asrwt>0</asrwt>
<pdfrwt beam="1">  1       21 0.11643592E-01 0.45404794E+03</pdfrwt>
<pdfrwt beam="2">  1       21 0.95727916E-01 0.45404794E+03</pdfrwt>
<totfact> 0.51683511E+04</totfact>
</mgrwt>
</event>
<event>
 7    0  0.4766352E-002  0.4541928E+03  0.7546771E-02  0.1026479E+00
         21   -1    0    0  502  501  0.00000000000E+00  0.00000000000E+00  0.13954393668E+04  0.13954393668E+04  0.00000000000E+00 0.  1.
         21   -1    0    0  501  502 -0.00000000000E+00 -0.00000000000E+00 -0.36958094399E+02  0.36958094399E+02  0.00000000000E+00 0.  1.
      99926    2    1    2    0    0  0.35527136788E-14  0.00000000000E+00  0.13584812724E+04  0.14323974612E+04  0.45419282181E+03 0.  0.
      99925    2    3    3    0    0  0.20296920659E+02 -0.10390267249E+03  0.97445281723E+03  0.10148653153E+04  0.26303152843E+03 0.  0.
         25    1    4    4    0    0  0.17523723785E+02 -0.92682569113E+02  0.58759127913E+03  0.60811854019E+03  0.12509000000E+03 0.  0.
         25    1    3    3    0    0 -0.20296920659E+02  0.10390267249E+03  0.38402845518E+03  0.41753214586E+03  0.12509000000E+03 0.  0.
         25    1    4    4    0    0  0.27731968739E+01 -0.11220103376E+02  0.38686153810E+03  0.40674677516E+03  0.12509000000E+03 0.  0.
<mgrwt>
<rscale>  2 0.45419282E+03</rscale>
<asrwt>0</asrwt>
<pdfrwt beam="1">  1       21 0.20521164E+00 0.45419282E+03</pdfrwt>
<pdfrwt beam="2">  1       21 0.54350148E-02 0.45419282E+03</pdfrwt>
<totfact> 0.25641785E+04</totfact>
</mgrwt>
</event>
<event>
 7    0  0.4766352E-002  0.4509628E+03  0.7546771E-02  0.1027435E+00
         21   -1    0    0  502  501  0.00000000000E+00  0.00000000000E+00  0.62614059084E+03  0.62614059084E+03  0.00000000000E+00 0.  1.
         21   -1    0    0  501  502 -0.00000000000E+00 -0.00000000000E+00 -0.81198783280E+02  0.81198783280E+02  0.00000000000E+00 0.  1.
      99926    2    1    2    0    0  0.00000000000E+00 -0.71054273576E-14  0.54494180756E+03  0.70733937412E+03  0.45096276626E+03 0.  0.
      99925    2    3    3    0    0 -0.33971488640E+02  0.52853346099E+02  0.48461888311E+03  0.55491266534E+03  0.26291646213E+03 0.  0.
         25    1    4    4    0    0 -0.13518537983E+01  0.59073873652E+02  0.28825051629E+03  0.31973022738E+03  0.12509000000E+03 0.  0.
         25    1    3    3    0    0  0.33971488640E+02 -0.52853346099E+02  0.60322924451E+02  0.15242670878E+03  0.12509000000E+03 0.  0.
         25    1    4    4    0    0 -0.32619634842E+02 -0.62205275524E+01  0.19636836682E+03  0.23518243796E+03  0.12509000000E+03 0.  0.
<mgrwt>
<rscale>  2 0.45096277E+03</rscale>
<asrwt>0</asrwt>
<pdfrwt beam="1">  1       21 0.92079496E-01 0.45096277E+03</pdfrwt>
<pdfrwt beam="2">  1       21 0.11940998E-01 0.45096277E+03</pdfrwt>
<totfact> 0.54207821E+04</totfact>
</mgrwt>
</event>
<event>
 7    0  0.4766352E-002  0.4567829E+03  0.7546771E-02  0.1025718E+00
         21   -1    0    0  502  501  0.00000000000E+00  0.00000000000E+00  0.10398430868E+03  0.10398430868E+03  0.00000000000E+00 0.  1.
         21   -1    0    0  501  502 -0.00000000000E+00 -0.00000000000E+00 -0.50163973077E+03  0.50163973077E+03  0.00000000000E+00 0.  1.
      99926    2    1    2    0    0  0.00000000000E+00  0.00000000000E+00 -0.39765542209E+03  0.60562403945E+03  0.45678292705E+03 0.  0.
      99925    2    3    3    0    0 -0.11071625778E+03 -0.24383226689E+02 -0.27352491821E+03  0.39608043641E+03  0.26308021541E+03 0.  0.
         25    1    3    3    0    0  0.11071625778E+03  0.24383226689E+02 -0.12413050388E+03  0.20954360304E+03  0.12509000000E+03 0.  0.
         25    1    4    4    0    0 -0.48642755837E+02 -0.38669537509E+02 -0.94744963875E+02  0.16877667821E+03  0.12509000000E+03 0.  0.
         25    1    4    4    0    0 -0.62073501948E+02  0.14286310820E+02 -0.17877995433E+03  0.22730375820E+03  0.12509000000E+03 0.  0.
<mgrwt>
<rscale>  2 0.45678293E+03</rscale>
<asrwt>0</asrwt>
<pdfrwt beam="1">  1       21 0.15291810E-01 0.45678293E+03</pdfrwt>
<pdfrwt beam="2">  1       21 0.73770550E-01 0.45678293E+03</pdfrwt>
<totfact> 0.57518967E+04</totfact>
</mgrwt>
</event>
<event>
 7    0  0.4766352E-002  0.4162009E+03  0.7546771E-02  0.1038310E+00
         21   -1    0    0  502  501  0.00000000000E+00  0.00000000000E+00  0.46732560989E+03  0.46732560989E+03  0.00000000000E+00 0. -1.
         21   -1    0    0  501  502 -0.00000000000E+00 -0.00000000000E+00 -0.92667287772E+02  0.92667287772E+02  0.00000000000E+00 0. -1.
      99926    2    1    2    0    0 -0.35527136788E-14  0.71054273576E-14  0.37465832212E+03  0.55999289767E+03  0.41620089753E+03 0.  0.
      99925    2    3    3    0    0  0.31941833227E+02 -0.41218903757E+02  0.30966869749E+03  0.40969173950E+03  0.26312229186E+03 0.  0.
         25    1    4    4    0    0 -0.14542552429E+02 -0.41852209159E+02  0.12891315382E+03  0.18501135795E+03  0.12509000000E+03 0.  0.
         25    1    4    4    0    0  0.46484385656E+02  0.63330540172E+00  0.18075554367E+03  0.22468038155E+03  0.12509000000E+03 0.  0.
         25    1    3    3    0    0 -0.31941833227E+02  0.41218903757E+02  0.64989624633E+02  0.15030115817E+03  0.12509000000E+03 0.  0.
<mgrwt>
<rscale>  2 0.41620090E+03</rscale>
<asrwt>0</asrwt>
<pdfrwt beam="1">  1       21 0.68724354E-01 0.41620090E+03</pdfrwt>
<pdfrwt beam="2">  1       21 0.13627542E-01 0.41620090E+03</pdfrwt>
<totfact> 0.84234758E+04</totfact>
</mgrwt>
</event>
<event>
 7    0  0.4766352E-002  0.4551125E+03  0.7546771E-02  0.1026208E+00
         21   -1    0    0  502  501  0.00000000000E+00  0.00000000000E+00  0.48059896695E+03  0.48059896695E+03  0.00000000000E+00 0. -1.
         21   -1    0    0  501  502 -0.00000000000E+00 -0.00000000000E+00 -0.10774438138E+03  0.10774438138E+03  0.00000000000E+00 0. -1.
      99926    2    1    2    0    0  0.00000000000E+00  0.00000000000E+00  0.37285458557E+03  0.58834334832E+03  0.45511246251E+03 0.  0.
      99925    2    3    3    0    0 -0.28000371796E+02 -0.11421060686E+02  0.37573659320E+03  0.45961776611E+03  0.26297536389E+03 0.  0.
         25    1    3    3    0    0  0.28000371796E+02  0.11421060686E+02 -0.28820076245E+01  0.12872558221E+03  0.12509000000E+03 0.  0.
         25    1    4    4    0    0 -0.25096000785E+02 -0.59393831577E+01  0.25723649450E+03  0.28719889925E+03  0.12509000000E+03 0.  0.
         25    1    4    4    0    0 -0.29043710109E+01 -0.54816775282E+01  0.11850009870E+03  0.17241886687E+03  0.12509000000E+03 0.  0.
<mgrwt>
<rscale>  2 0.45511246E+03</rscale>
<asrwt>0</asrwt>
<pdfrwt beam="1">  1       21 0.70676318E-01 0.45511246E+03</pdfrwt>
<pdfrwt beam="2">  1       21 0.15844762E-01 0.45511246E+03</pdfrwt>
<totfact> 0.59348789E+04</totfact>
</mgrwt>
</event>
<event>
 7    0  0.4766352E-002  0.4480895E+03  0.7546771E-02  0.1028293E+00
         21   -1    0    0  502  501  0.00000000000E+00  0.00000000000E+00  0.33591072705E+03  0.33591072705E+03  0.00000000000E+00 0. -1.
         21   -1    0    0  501  502 -0.00000000000E+00 -0.00000000000E+00 -0.14943273152E+03  0.14943273152E+03  0.00000000000E+00 0. -1.
      99926    2    1    2    0    0  0.00000000000E+00  0.00000000000E+00  0.18647799554E+03  0.48534345857E+03  0.44808953342E+03 0.  0.
      99925    2    3    3    0    0 -0.54327237916E+02  0.48908352221E+02  0.34184860397E+02  0.27514311888E+03  0.26304306774E+03 0.  0.
         25    1    4    4    0    0  0.98039199007E+01  0.41825625825E+02  0.16794018198E+02  0.13332309240E+03  0.12509000000E+03 0.  0.
         25    1    3    3    0    0  0.54327237916E+02 -0.48908352221E+02  0.15229313514E+03  0.21020033969E+03  0.12509000000E+03 0.  0.
         25    1    4    4    0    0 -0.64131157817E+02  0.70827263966E+01  0.17390842200E+02  0.14182002647E+03  0.12509000000E+03 0.  0.
<mgrwt>
<rscale>  2 0.44808953E+03</rscale>
<asrwt>0</asrwt>
<pdfrwt beam="1">  1       21 0.49398636E-01 0.44808953E+03</pdfrwt>
<pdfrwt beam="2">  1       21 0.21975402E-01 0.44808953E+03</pdfrwt>
<totfact> 0.70079502E+04</totfact>
</mgrwt>
</event>
<event>
 7    0  0.4766352E-002  0.4571419E+03  0.7546771E-02  0.1025613E+00
         21   -1    0    0  502  501  0.00000000000E+00  0.00000000000E+00  0.10847040787E+03  0.10847040787E+03  0.00000000000E+00 0.  1.
         21   -1    0    0  501  502 -0.00000000000E+00 -0.00000000000E+00 -0.48164914054E+03  0.48164914054E+03  0.00000000000E+00 0.  1.
      99926    2    1    2    0    0  0.00000000000E+00  0.00000000000E+00 -0.37317873267E+03  0.59011954841E+03  0.45714189799E+03 0.  0.
      99925    2    3    3    0    0 -0.10625723541E+03 -0.52841024367E+01 -0.29097340202E+03  0.40647928512E+03  0.26313754336E+03 0.  0.
         25    1    3    3    0    0  0.10625723541E+03  0.52841024367E+01 -0.82205330644E+02  0.18364026329E+03  0.12509000000E+03 0.  0.
         25    1    4    4    0    0 -0.65114928295E+02  0.14400019325E+02 -0.20031603392E+03  0.24540035857E+03  0.12509000000E+03 0.  0.
         25    1    4    4    0    0 -0.41142307119E+02 -0.19684121761E+02 -0.90657368106E+02  0.16107892654E+03  0.12509000000E+03 0.  0.
<mgrwt>
<rscale>  2 0.45714190E+03</rscale>
<asrwt>0</asrwt>
<pdfrwt beam="1">  1       21 0.15951530E-01 0.45714190E+03</pdfrwt>
<pdfrwt beam="2">  1       21 0.70830757E-01 0.45714190E+03</pdfrwt>
<totfact> 0.58297411E+04</totfact>
</mgrwt>
</event>
<event>
 7    0  0.4766352E-002  0.4572094E+03  0.7546771E-02  0.1025594E+00
         21   -1    0    0  502  501  0.00000000000E+00  0.00000000000E+00  0.21299412837E+03  0.21299412837E+03  0.00000000000E+00 0.  1.
         21   -1    0    0  501  502 -0.00000000000E+00 -0.00000000000E+00 -0.24535942241E+03  0.24535942241E+03  0.00000000000E+00 0.  1.
      99926    2    1    2    0    0  0.00000000000E+00  0.71054273576E-14 -0.32365294039E+02  0.45835355078E+03  0.45720943260E+03 0.  0.
      99925    2    3    3    0    0 -0.93323575475E+02 -0.29771108087E+02  0.40398393519E+02  0.28360324050E+03  0.26306493344E+03 0.  0.
         25    1    4    4    0    0 -0.41275151923E+02 -0.53312043640E+02  0.33020233760E+02  0.14588919117E+03  0.12509000000E+03 0.  0.
         25    1    4    4    0    0 -0.52048423552E+02  0.23540935553E+02  0.73781597590E+01  0.13771404933E+03  0.12509000000E+03 0.  0.
         25    1    3    3    0    0  0.93323575475E+02  0.29771108087E+02 -0.72763687558E+02  0.17475031028E+03  0.12509000000E+03 0.  0.
<mgrwt>
<rscale>  2 0.45720943E+03</rscale>
<asrwt>0</asrwt>
<pdfrwt beam="1">  1       21 0.31322666E-01 0.45720943E+03</pdfrwt>
<pdfrwt beam="2">  1       21 0.36082268E-01 0.45720943E+03</pdfrwt>
<totfact> 0.67109970E+04</totfact>
</mgrwt>
</event>
<event>
 7    0  0.4766352E-002  0.4475331E+03  0.7546771E-02  0.1028460E+00
         21   -1    0    0  502  501  0.00000000000E+00  0.00000000000E+00  0.26564488261E+03  0.26564488261E+03  0.00000000000E+00 0.  1.
         21   -1    0    0  501  502 -0.00000000000E+00 -0.00000000000E+00 -0.18849023004E+03  0.18849023004E+03  0.00000000000E+00 0.  1.
      99926    2    1    2    0    0  0.00000000000E+00  0.00000000000E+00  0.77154652562E+02  0.45413511265E+03  0.44753308272E+03 0.  0.
      99925    2    3    3    0    0 -0.68109967657E+02  0.45978687034E+02 -0.19158326881E+02  0.27615560410E+03  0.26294841477E+03 0.  0.
         25    1    4    4    0    0 -0.33847004483E+02 -0.17553552434E+02 -0.15498020862E+02  0.13168691532E+03  0.12509000000E+03 0.  0.
         25    1    4    4    0    0 -0.34262963174E+02  0.63532239468E+02 -0.36603060198E+01  0.14446868878E+03  0.12509000000E+03 0.  0.
         25    1    3    3    0    0  0.68109967657E+02 -0.45978687034E+02  0.96312979443E+02  0.17797950855E+03  0.12509000000E+03 0.  0.
<mgrwt>
<rscale>  2 0.44753308E+03</rscale>
<asrwt>0</asrwt>
<pdfrwt beam="1">  1       21 0.39065424E-01 0.44753308E+03</pdfrwt>
<pdfrwt beam="2">  1       21 0.27719151E-01 0.44753308E+03</pdfrwt>
<totfact> 0.72852209E+04</totfact>
</mgrwt>
</event>
<event>
 7    0  0.4766352E-002  0.4544595E+03  0.7546771E-02  0.1026400E+00
         21   -1    0    0  502  501  0.00000000000E+00  0.00000000000E+00  0.27769948675E+02  0.27769948675E+02  0.00000000000E+00 0.  1.
         21   -1    0    0  501  502 -0.00000000000E+00 -0.00000000000E+00 -0.18593251494E+04  0.18593251494E+04  0.00000000000E+00 0.  1.
      99926    2    1    2    0    0 -0.71054273576E-14  0.00000000000E+00 -0.18315552007E+04  0.18870950980E+04  0.45445952061E+03 0.  0.
      99925    2    3    3    0    0 -0.44713036710E+02 -0.85977006939E+02 -0.91340910020E+03  0.95541324712E+03  0.26288207829E+03 0.  0.
         25    1    3    3    0    0  0.44713036710E+02  0.85977006939E+02 -0.91814610050E+03  0.93168185092E+03  0.12509000000E+03 0.  0.
         25    1    4    4    0    0 -0.50149350037E+02 -0.14035340993E+02 -0.46330513828E+03  0.48271224074E+03  0.12509000000E+03 0.  0.
         25    1    4    4    0    0  0.54363133264E+01 -0.71941665946E+02 -0.45010396192E+03  0.47270100638E+03  0.12509000000E+03 0.  0.
<mgrwt>
<rscale>  2 0.45445952E+03</rscale>
<asrwt>0</asrwt>
<pdfrwt beam="1">  1       21 0.40838171E-02 0.45445952E+03</pdfrwt>
<pdfrwt beam="2">  1       21 0.27343010E+00 0.45445952E+03</pdfrwt>
<totfact> 0.15707765E+04</totfact>
</mgrwt>
</event>
<event>
 7    0  0.4766352E-002  0.4504142E+03  0.7546771E-02  0.1027599E+00
         21   -1    0    0  502  501  0.00000000000E+00  0.00000000000E+00  0.31051554830E+03  0.31051554830E+03  0.00000000000E+00 0.  1.
         21   -1    0    0  501  502 -0.00000000000E+00 -0.00000000000E+00 -0.16333556411E+03  0.16333556411E+03  0.00000000000E+00 0.  1.
      99926    2    1    2    0    0 -0.71054273576E-14  0.00000000000E+00  0.14717998419E+03  0.47385111241E+03  0.45041417494E+03 0.  0.
      99925    2    3    3    0    0  0.51464881734E+02  0.27310813890E+02 -0.36519023358E+01  0.26941950845E+03  0.26301904976E+03 0.  0.
         25    1    3    3    0    0 -0.51464881734E+02 -0.27310813890E+02  0.15083188652E+03  0.20443160396E+03  0.12509000000E+03 0.  0.
         25    1    4    4    0    0  0.59228308188E+02 -0.89362986533E+01  0.37553737918E+01  0.13874242630E+03  0.12509000000E+03 0.  0.
         25    1    4    4    0    0 -0.77634264535E+01  0.36247112543E+02 -0.74072761276E+01  0.13067708214E+03  0.12509000000E+03 0.  0.
<mgrwt>
<rscale>  2 0.45041417E+03</rscale>
<asrwt>0</asrwt>
<pdfrwt beam="1">  1       21 0.45664051E-01 0.45041417E+03</pdfrwt>
<pdfrwt beam="2">  1       21 0.24019936E-01 0.45041417E+03</pdfrwt>
<totfact> 0.69651124E+04</totfact>
</mgrwt>
</event>
<event>
 7    0  0.4766352E-002  0.4649521E+03  0.7546771E-02  0.1023355E+00
         21   -1    0    0  502  501  0.00000000000E+00  0.00000000000E+00  0.20377331487E+03  0.20377331487E+03  0.00000000000E+00 0.  1.
         21   -1    0    0  501  502 -0.00000000000E+00 -0.00000000000E+00 -0.26522178270E+03  0.26522178270E+03  0.00000000000E+00 0.  1.
      99926    2    1    2    0    0  0.00000000000E+00  0.00000000000E+00 -0.61448467834E+02  0.46899509758E+03  0.46495213447E+03 0.  0.
      99925    2    3    3    0    0  0.10692762558E+03  0.17276193665E+02  0.18964224128E+02  0.28502310756E+03  0.26295730845E+03 0.  0.
         25    1    4    4    0    0  0.10764422668E+02  0.78750046092E+01 -0.24458361487E+00  0.12579927032E+03  0.12509000000E+03 0.  0.
         25    1    4    4    0    0  0.96163202915E+02  0.94011890556E+01  0.19208807743E+02  0.15922383724E+03  0.12509000000E+03 0.  0.
         25    1    3    3    0    0 -0.10692762558E+03 -0.17276193665E+02 -0.80412691962E+02  0.18397199001E+03  0.12509000000E+03 0.  0.
<mgrwt>
<rscale>  2 0.46495213E+03</rscale>
<asrwt>0</asrwt>
<pdfrwt beam="1">  1       21 0.29966664E-01 0.46495213E+03</pdfrwt>
<pdfrwt beam="2">  1       21 0.39003203E-01 0.46495213E+03</pdfrwt>
<totfact> 0.62426278E+04</totfact>
</mgrwt>
</event>
<event>
 7    0  0.4766352E-002  0.4573840E+03  0.7546771E-02  0.1025543E+00
         21   -1    0    0  502  501  0.00000000000E+00  0.00000000000E+00  0.15744523430E+04  0.15744523430E+04  0.00000000000E+00 0.  1.
         21   -1    0    0  501  502 -0.00000000000E+00 -0.00000000000E+00 -0.33217924210E+02  0.33217924210E+02  0.00000000000E+00 0.  1.
      99926    2    1    2    0    0  0.00000000000E+00  0.71054273576E-14  0.15412344187E+04  0.16076702672E+04  0.45738403383E+03 0.  0.
      99925    2    3    3    0    0  0.26962479795E+02 -0.36505601870E+02  0.13414141029E+04  0.13675967346E+04  0.26242979810E+03 0.  0.
         25    1    4    4    0    0  0.33581131282E+02  0.15948226076E+02  0.66647909261E+03  0.67913469008E+03  0.12509000000E+03 0.  0.
         25    1    4    4    0    0 -0.66186514868E+01 -0.52453827946E+02  0.67493501025E+03  0.68846204454E+03  0.12509000000E+03 0.  0.
         25    1    3    3    0    0 -0.26962479795E+02  0.36505601870E+02  0.19982031589E+03  0.24007353254E+03  0.12509000000E+03 0.  0.
<mgrwt>
<rscale>  2 0.45738403E+03</rscale>
<asrwt>0</asrwt>
<pdfrwt beam="1">  1       21 0.23153706E+00 0.45738403E+03</pdfrwt>
<pdfrwt beam="2">  1       21 0.48849899E-02 0.45738403E+03</pdfrwt>
<totfact> 0.20868040E+04</totfact>
</mgrwt>
</event>
<event>
 7    0  0.4766352E-002  0.4461935E+03  0.7546771E-02  0.1028863E+00
         21   -1    0    0  502  501  0.00000000000E+00  0.00000000000E+00  0.16013760139E+03  0.16013760139E+03  0.00000000000E+00 0.  1.
         21   -1    0    0  501  502 -0.00000000000E+00 -0.00000000000E+00 -0.31080872534E+03  0.31080872534E+03  0.00000000000E+00 0.  1.
      99926    2    1    2    0    0 -0.20261570199E-14  0.00000000000E+00 -0.15067112395E+03  0.47094632673E+03  0.44619351751E+03 0.  0.
      99925    2    3    3    0    0 -0.18084189299E+00 -0.75607578964E+02 -0.17208217933E+03  0.32322198854E+03  0.26295178024E+03 0.  0.
         25    1    3    3    0    0  0.18084189299E+00  0.75607578964E+02  0.21411055387E+02  0.14772433819E+03  0.12509000000E+03 0.  0.
         25    1    4    4    0    0 -0.16522914440E+02 -0.47686204557E+02 -0.13000121014E+03  0.18733607113E+03  0.12509000000E+03 0.  0.
         25    1    4    4    0    0  0.16342072547E+02 -0.27921374407E+02 -0.42080969193E+02  0.13588591742E+03  0.12509000000E+03 0.  0.
<mgrwt>
<rscale>  2 0.44619352E+03</rscale>
<asrwt>0</asrwt>
<pdfrwt beam="1">  1       21 0.23549647E-01 0.44619352E+03</pdfrwt>
<pdfrwt beam="2">  1       21 0.45707165E-01 0.44619352E+03</pdfrwt>
<totfact> 0.72286832E+04</totfact>
</mgrwt>
</event>
<event>
 7    0  0.4766352E-002  0.4543370E+03  0.7546771E-02  0.1026437E+00
         21   -1    0    0  502  501  0.00000000000E+00  0.00000000000E+00  0.23131417595E+03  0.23131417595E+03  0.00000000000E+00 0.  1.
         21   -1    0    0  501  502 -0.00000000000E+00 -0.00000000000E+00 -0.22309714710E+03  0.22309714710E+03  0.00000000000E+00 0.  1.
      99926    2    1    2    0    0  0.71054273576E-14  0.00000000000E+00  0.82170288573E+01  0.45441132305E+03  0.45433702353E+03 0.  0.
      99925    2    3    3    0    0 -0.59299007598E+02  0.95242985434E+02 -0.37754436296E+01  0.28595086457E+03  0.26299438092E+03 0.  0.
         25    1    4    4    0    0  0.67757858489E+00  0.27784803035E+02 -0.24015488021E+02  0.13037141618E+03  0.12509000000E+03 0.  0.
         25    1    4    4    0    0 -0.59976586182E+02  0.67458182399E+02  0.20240044392E+02  0.15557944838E+03  0.12509000000E+03 0.  0.
         25    1    3    3    0    0  0.59299007598E+02 -0.95242985434E+02  0.11992472487E+02  0.16846045848E+03  0.12509000000E+03 0.  0.
<mgrwt>
<rscale>  2 0.45433702E+03</rscale>
<asrwt>0</asrwt>
<pdfrwt beam="1">  1       21 0.34016790E-01 0.45433702E+03</pdfrwt>
<pdfrwt beam="2">  1       21 0.32808404E-01 0.45433702E+03</pdfrwt>
<totfact> 0.68952972E+04</totfact>
</mgrwt>
</event>
<event>
 7    0  0.4766352E-002  0.4661015E+03  0.7546771E-02  0.1023026E+00
         21   -1    0    0  502  501  0.00000000000E+00  0.00000000000E+00  0.11397357393E+04  0.11397357393E+04  0.00000000000E+00 0. -1.
         21   -1    0    0  501  502 -0.00000000000E+00 -0.00000000000E+00 -0.47653730670E+02  0.47653730670E+02  0.00000000000E+00 0. -1.
      99926    2    1    2    0    0  0.14210854715E-13  0.71054273576E-14  0.10920820086E+04  0.11873894699E+04  0.46610153380E+03 0.  0.
      99925    2    3    3    0    0  0.10428118676E+03  0.43067859607E+02  0.55944104008E+03  0.62874529348E+03  0.26385026115E+03 0.  0.
         25    1    4    4    0    0  0.96703785574E+02  0.24320881534E+02  0.29841330300E+03  0.33858696805E+03  0.12509000000E+03 0.  0.
         25    1    3    3    0    0 -0.10428118676E+03 -0.43067859607E+02  0.53264096850E+03  0.55864417644E+03  0.12509000000E+03 0.  0.
         25    1    4    4    0    0  0.75774011852E+01  0.18746978073E+02  0.26102773708E+03  0.29015832544E+03  0.12509000000E+03 0.  0.
<mgrwt>
<rscale>  2 0.46610153E+03</rscale>
<asrwt>0</asrwt>
<pdfrwt beam="1">  1       21 0.16760818E+00 0.46610153E+03</pdfrwt>
<pdfrwt beam="2">  1       21 0.70079023E-02 0.46610153E+03</pdfrwt>
<totfact> 0.29888234E+04</totfact>
</mgrwt>
</event>
<event>
 7    0  0.4766352E-002  0.4580560E+03  0.7546771E-02  0.1025347E+00
         21   -1    0    0  502  501  0.00000000000E+00  0.00000000000E+00  0.21332477704E+02  0.21332477704E+02  0.00000000000E+00 0.  1.
         21   -1    0    0  501  502 -0.00000000000E+00 -0.00000000000E+00 -0.24588719945E+04  0.24588719945E+04  0.00000000000E+00 0.  1.
      99926    2    1    2    0    0 -0.14210854715E-13 -0.71054273576E-14 -0.24375395168E+04  0.24802044723E+04  0.45805603151E+03 0.  0.
      99925    2    3    3    0    0 -0.10855014519E+03  0.34288131352E+02 -0.14048823430E+04  0.14337881321E+04  0.26285965903E+03 0.  0.
         25    1    4    4    0    0 -0.71327675738E+02  0.54685320787E+02 -0.72215750352E+03  0.73840171291E+03  0.12509000000E+03 0.  0.
         25    1    4    4    0    0 -0.37222469453E+02 -0.20397189435E+02 -0.68272483945E+03  0.69538641924E+03  0.12509000000E+03 0.  0.
         25    1    3    3    0    0  0.10855014519E+03 -0.34288131352E+02 -0.10326571739E+04  0.10464163401E+04  0.12509000000E+03 0.  0.
<mgrwt>
<rscale>  2 0.45805603E+03</rscale>
<asrwt>0</asrwt>
<pdfrwt beam="1">  1       21 0.31371306E-02 0.45805603E+03</pdfrwt>
<pdfrwt beam="2">  1       21 0.36159865E+00 0.45805603E+03</pdfrwt>
<totfact> 0.71647499E+03</totfact>
</mgrwt>
</event>
<event>
 7    0  0.4766352E-002  0.4639447E+03  0.7546771E-02  0.1023643E+00
         21   -1    0    0  502  501  0.00000000000E+00  0.00000000000E+00  0.25491768415E+04  0.25491768415E+04  0.00000000000E+00 0. -1.
         21   -1    0    0  501  502 -0.00000000000E+00 -0.00000000000E+00 -0.21109238051E+02  0.21109238051E+02  0.00000000000E+00 0. -1.
      99926    2    1    2    0    0  0.00000000000E+00  0.35527136788E-14  0.25280676034E+04  0.25702860795E+04  0.46394474146E+03 0.  0.
      99925    2    3    3    0    0  0.99733898866E+02  0.16524442588E+02  0.19503426044E+04  0.19705914987E+04  0.26301078316E+03 0.  0.
         25    1    4    4    0    0  0.29196679585E+02  0.23649251516E+02  0.11544920091E+04  0.11618567211E+04  0.12509000000E+03 0.  0.
         25    1    4    4    0    0  0.70537219281E+02 -0.71248089285E+01  0.79585059530E+03  0.80873477751E+03  0.12509000000E+03 0.  0.
         25    1    3    3    0    0 -0.99733898866E+02 -0.16524442588E+02  0.57772499900E+03  0.59969458089E+03  0.12509000000E+03 0.  0.
<mgrwt>
<rscale>  2 0.46394474E+03</rscale>
<asrwt>0</asrwt>
<pdfrwt beam="1">  1       21 0.37487874E+00 0.46394474E+03</pdfrwt>
<pdfrwt beam="2">  1       21 0.31043015E-02 0.46394474E+03</pdfrwt>
<totfact> 0.60101794E+03</totfact>
</mgrwt>
</event>
<event>
 7    0  0.4766352E-002  0.4627247E+03  0.7546771E-02  0.1023994E+00
         21   -1    0    0  502  501  0.00000000000E+00  0.00000000000E+00  0.11635762564E+03  0.11635762564E+03  0.00000000000E+00 0. -1.
         21   -1    0    0  501  502 -0.00000000000E+00 -0.00000000000E+00 -0.46003466662E+03  0.46003466662E+03  0.00000000000E+00 0. -1.
      99926    2    1    2    0    0  0.17763568394E-14  0.00000000000E+00 -0.34367704098E+03  0.57639229225E+03  0.46272471953E+03 0.  0.
      99925    2    3    3    0    0 -0.84051652066E+01 -0.11239390471E+03 -0.26699913216E+03  0.39137865379E+03  0.26303170426E+03 0.  0.
         25    1    3    3    0    0  0.84051652066E+01  0.11239390471E+03 -0.76677908817E+02  0.18501363847E+03  0.12509000000E+03 0.  0.
         25    1    4    4    0    0  0.31059190297E+02 -0.61109498977E+02 -0.10759592640E+03  0.17867130616E+03  0.12509000000E+03 0.  0.
         25    1    4    4    0    0 -0.39464355503E+02 -0.51284405731E+02 -0.15940320576E+03  0.21270734762E+03  0.12509000000E+03 0.  0.
<mgrwt>
<rscale>  2 0.46272472E+03</rscale>
<asrwt>0</asrwt>
<pdfrwt beam="1">  1       21 0.17111416E-01 0.46272472E+03</pdfrwt>
<pdfrwt beam="2">  1       21 0.67652157E-01 0.46272472E+03</pdfrwt>
<totfact> 0.56617368E+04</totfact>
</mgrwt>
</event>
<event>
 7    0  0.4766352E-002  0.4489549E+03  0.7546771E-02  0.1028034E+00
         21   -1    0    0  502  501  0.00000000000E+00  0.00000000000E+00  0.35516259903E+03  0.35516259903E+03  0.00000000000E+00 0.  1.
         21   -1    0    0  501  502 -0.00000000000E+00 -0.00000000000E+00 -0.14187900838E+03  0.14187900838E+03  0.00000000000E+00 0.  1.
      99926    2    1    2    0    0  0.00000000000E+00  0.00000000000E+00  0.21328359065E+03  0.49704160741E+03  0.44895486350E+03 0.  0.
      99925    2    3    3    0    0 -0.77538905401E+02 -0.59373715389E+02  0.18471112569E+03  0.33579206855E+03  0.26286991729E+03 0.  0.
         25    1    4    4    0    0 -0.20906336064E+02 -0.10707054946E+02  0.12485850178E+03  0.17829433384E+03  0.12509000000E+03 0.  0.
         25    1    4    4    0    0 -0.56632569337E+02 -0.48666660443E+02  0.59852623916E+02  0.15749773471E+03  0.12509000000E+03 0.  0.
         25    1    3    3    0    0  0.77538905401E+02  0.59373715389E+02  0.28572464952E+02  0.16124953886E+03  0.12509000000E+03 0.  0.
<mgrwt>
<rscale>  2 0.44895486E+03</rscale>
<asrwt>0</asrwt>
<pdfrwt beam="1">  1       21 0.52229794E-01 0.44895486E+03</pdfrwt>
<pdfrwt beam="2">  1       21 0.20864560E-01 0.44895486E+03</pdfrwt>
<totfact> 0.68717770E+04</totfact>
</mgrwt>
</event>
<event>
 7    0  0.4766352E-002  0.4533190E+03  0.7546771E-02  0.1026737E+00
         21   -1    0    0  502  501  0.00000000000E+00  0.00000000000E+00  0.35414628588E+02  0.35414628588E+02  0.00000000000E+00 0. -1.
         21   -1    0    0  501  502 -0.00000000000E+00 -0.00000000000E+00 -0.14506584870E+04  0.14506584870E+04  0.00000000000E+00 0. -1.
      99926    2    1    2    0    0  0.00000000000E+00  0.35527136788E-14 -0.14152438584E+04  0.14860731156E+04  0.45331901141E+03 0.  0.
      99925    2    3    3    0    0  0.76300245897E+02 -0.20312222652E+02 -0.11502946954E+04  0.11826264465E+04  0.26304583580E+03 0.  0.
         25    1    4    4    0    0  0.55270468582E+00  0.53750542263E+00 -0.46012343601E+03  0.47682457871E+03  0.12509000000E+03 0.  0.
         25    1    4    4    0    0  0.75747541211E+02 -0.20849728075E+02 -0.69017125941E+03  0.70580186779E+03  0.12509000000E+03 0.  0.
         25    1    3    3    0    0 -0.76300245897E+02  0.20312222652E+02 -0.26494916300E+03  0.30344666910E+03  0.12509000000E+03 0.  0.
<mgrwt>
<rscale>  2 0.45331901E+03</rscale>
<asrwt>0</asrwt>
<pdfrwt beam="1">  1       21 0.52080323E-02 0.45331901E+03</pdfrwt>
<pdfrwt beam="2">  1       21 0.21333218E+00 0.45331901E+03</pdfrwt>
<totfact> 0.24440084E+04</totfact>
</mgrwt>
</event>
<event>
 7    0  0.4766352E-002  0.4599308E+03  0.7546771E-02  0.1024801E+00
         21   -1    0    0  502  501  0.00000000000E+00  0.00000000000E+00  0.35303134546E+02  0.35303134546E+02  0.00000000000E+00 0. -1.
         21   -1    0    0  501  502 -0.00000000000E+00 -0.00000000000E+00 -0.14979998797E+04  0.14979998797E+04  0.00000000000E+00 0. -1.
      99926    2    1    2    0    0  0.35527136788E-14  0.00000000000E+00 -0.14626967451E+04  0.15333030142E+04  0.45993082655E+03 0.  0.
      99925    2    3    3    0    0 -0.26096647515E+02  0.79863563728E+02 -0.64150018610E+03  0.69839552205E+03  0.26301063216E+03 0.  0.
         25    1    4    4    0    0 -0.49813726590E+02  0.30761909595E+02 -0.28591566154E+03  0.31752633915E+03  0.12509000000E+03 0.  0.
         25    1    3    3    0    0  0.26096647515E+02 -0.79863563728E+02 -0.82119655904E+03  0.83490749219E+03  0.12509000000E+03 0.  0.
         25    1    4    4    0    0  0.23717079075E+02  0.49101654132E+02 -0.35558452456E+03  0.38086918290E+03  0.12509000000E+03 0.  0.
<mgrwt>
<rscale>  2 0.45993083E+03</rscale>
<asrwt>0</asrwt>
<pdfrwt beam="1">  1       21 0.51916367E-02 0.45993083E+03</pdfrwt>
<pdfrwt beam="2">  1       21 0.22029413E+00 0.45993083E+03</pdfrwt>
<totfact> 0.22115470E+04</totfact>
</mgrwt>
</event>
<event>
 7    0  0.4766352E-002  0.4523603E+03  0.7546771E-02  0.1027021E+00
         21   -1    0    0  502  501  0.00000000000E+00  0.00000000000E+00  0.95538031989E+02  0.95538031989E+02  0.00000000000E+00 0.  1.
         21   -1    0    0  501  502 -0.00000000000E+00 -0.00000000000E+00 -0.53546696798E+03  0.53546696798E+03  0.00000000000E+00 0.  1.
      99926    2    1    2    0    0  0.14210854715E-13  0.00000000000E+00 -0.43992893599E+03  0.63100499996E+03  0.45236030027E+03 0.  0.
      99925    2    3    3    0    0  0.10138278495E+03 -0.40706240450E+02 -0.30251985529E+03  0.41544936758E+03  0.26295331730E+03 0.  0.
         25    1    3    3    0    0 -0.10138278495E+03  0.40706240450E+02 -0.13740908070E+03  0.21555563239E+03  0.12509000000E+03 0.  0.
         25    1    4    4    0    0  0.36493706540E+02 -0.18125738018E+02 -0.89783946182E+02  0.15927648316E+03  0.12509000000E+03 0.  0.
         25    1    4    4    0    0  0.64889078410E+02 -0.22580502431E+02 -0.21273590911E+03  0.25617288442E+03  0.12509000000E+03 0.  0.
<mgrwt>
<rscale>  2 0.45236030E+03</rscale>
<asrwt>0</asrwt>
<pdfrwt beam="1">  1       21 0.14049711E-01 0.45236030E+03</pdfrwt>
<pdfrwt beam="2">  1       21 0.78745141E-01 0.45236030E+03</pdfrwt>
<totfact> 0.58008586E+04</totfact>
</mgrwt>
</event>
<event>
 7    0  0.4766352E-002  0.4560741E+03  0.7546771E-02  0.1025926E+00
         21   -1    0    0  502  501  0.00000000000E+00  0.00000000000E+00  0.18956770024E+03  0.18956770024E+03  0.00000000000E+00 0.  1.
         21   -1    0    0  501  502 -0.00000000000E+00 -0.00000000000E+00 -0.27431305069E+03  0.27431305069E+03  0.00000000000E+00 0.  1.
      99926    2    1    2    0    0  0.00000000000E+00  0.00000000000E+00 -0.84745350452E+02  0.46388075093E+03  0.45607409119E+03 0.  0.
      99925    2    3    3    0    0 -0.23546344607E+02 -0.89788501491E+02  0.14328268887E+02  0.27927442521E+03  0.26300665380E+03 0.  0.
         25    1    4    4    0    0 -0.17587784593E+02 -0.68724799166E+02  0.40952206003E+02  0.14952263863E+03  0.12509000000E+03 0.  0.
         25    1    3    3    0    0  0.23546344607E+02  0.89788501491E+02 -0.99073619339E+02  0.18460632571E+03  0.12509000000E+03 0.  0.
         25    1    4    4    0    0 -0.59585600134E+01 -0.21063702325E+02 -0.26623937116E+02  0.12975178658E+03  0.12509000000E+03 0.  0.
<mgrwt>
<rscale>  2 0.45607409E+03</rscale>
<asrwt>0</asrwt>
<pdfrwt beam="1">  1       21 0.27877603E-01 0.45607409E+03</pdfrwt>
<pdfrwt beam="2">  1       21 0.40340154E-01 0.45607409E+03</pdfrwt>
<totfact> 0.67316709E+04</totfact>
</mgrwt>
</event>
<event>
 7    0  0.4766352E-002  0.4658412E+03  0.7546771E-02  0.1023101E+00
         21   -1    0    0  502  501  0.00000000000E+00  0.00000000000E+00  0.72105610276E+02  0.72105610276E+02  0.00000000000E+00 0.  1.
         21   -1    0    0  501  502 -0.00000000000E+00 -0.00000000000E+00 -0.75239646294E+03  0.75239646294E+03  0.00000000000E+00 0.  1.
      99926    2    1    2    0    0  0.00000000000E+00  0.00000000000E+00 -0.68029085266E+03  0.82450207322E+03  0.46584120097E+03 0.  0.
      99925    2    3    3    0    0  0.91010817685E+02  0.81394118624E+02 -0.39726669852E+03  0.49184887331E+03  0.26303329245E+03 0.  0.
         25    1    4    4    0    0  0.47983357726E+02  0.62068444729E+02 -0.14837997310E+03  0.20932992850E+03  0.12509000000E+03 0.  0.
         25    1    4    4    0    0  0.43027459959E+02  0.19325673894E+02 -0.24888672542E+03  0.28251894480E+03  0.12509000000E+03 0.  0.
         25    1    3    3    0    0 -0.91010817685E+02 -0.81394118624E+02 -0.28302415414E+03  0.33265319991E+03  0.12509000000E+03 0.  0.
<mgrwt>
<rscale>  2 0.46584120E+03</rscale>
<asrwt>0</asrwt>
<pdfrwt beam="1">  1       21 0.10603766E-01 0.46584120E+03</pdfrwt>
<pdfrwt beam="2">  1       21 0.11064654E+00 0.46584120E+03</pdfrwt>
<totfact> 0.42840265E+04</totfact>
</mgrwt>
</event>
<event>
 7    0  0.4766352E-002  0.4609015E+03  0.7546771E-02  0.1024520E+00
         21   -1    0    0  502  501  0.00000000000E+00  0.00000000000E+00  0.46873822083E+03  0.46873822083E+03  0.00000000000E+00 0. -1.
         21   -1    0    0  501  502 -0.00000000000E+00 -0.00000000000E+00 -0.11329893954E+03  0.11329893954E+03  0.00000000000E+00 0. -1.
      99926    2    1    2    0    0  0.35527136788E-14  0.00000000000E+00  0.35543928129E+03  0.58203716037E+03  0.46090147903E+03 0.  0.
      99925    2    3    3    0    0  0.20751409832E+02 -0.53900975260E+02  0.35350716197E+03  0.44424319342E+03  0.26277131729E+03 0.  0.
         25    1    4    4    0    0  0.44587892136E+02 -0.46490540463E+02  0.20231184296E+03  0.24642857054E+03  0.12509000000E+03 0.  0.
         25    1    4    4    0    0 -0.23836482304E+02 -0.74104347969E+01  0.15119531901E+03  0.19781462288E+03  0.12509000000E+03 0.  0.
         25    1    3    3    0    0 -0.20751409832E+02  0.53900975260E+02  0.19321193217E+01  0.13779396695E+03  0.12509000000E+03 0.  0.
<mgrwt>
<rscale>  2 0.46090148E+03</rscale>
<asrwt>0</asrwt>
<pdfrwt beam="1">  1       21 0.68932091E-01 0.46090148E+03</pdfrwt>
<pdfrwt beam="2">  1       21 0.16661609E-01 0.46090148E+03</pdfrwt>
<totfact> 0.57087450E+04</totfact>
</mgrwt>
</event>
<event>
 7    0  0.4766352E-002  0.4220284E+03  0.7546771E-02  0.1036408E+00
         21   -1    0    0  502  501  0.00000000000E+00  0.00000000000E+00  0.12858252272E+03  0.12858252272E+03  0.00000000000E+00 0. -1.
         21   -1    0    0  501  502 -0.00000000000E+00 -0.00000000000E+00 -0.34629115505E+03  0.34629115505E+03  0.00000000000E+00 0. -1.
      99926    2    1    2    0    0  0.88817841970E-15  0.00000000000E+00 -0.21770863234E+03  0.47487367777E+03  0.42202838914E+03 0.  0.
      99925    2    3    3    0    0 -0.43741249711E+01 -0.62277731406E+02 -0.19484615787E+03  0.33321263994E+03  0.26299807867E+03 0.  0.
         25    1    4    4    0    0  0.19420904825E+02 -0.45638696893E+02 -0.61062039969E+02  0.14777057563E+03  0.12509000000E+03 0.  0.
         25    1    4    4    0    0 -0.23795029796E+02 -0.16639034513E+02 -0.13378411790E+03  0.18544206431E+03  0.12509000000E+03 0.  0.
         25    1    3    3    0    0  0.43741249711E+01  0.62277731406E+02 -0.22862474466E+02  0.14166103782E+03  0.12509000000E+03 0.  0.
<mgrwt>
<rscale>  2 0.42202839E+03</rscale>
<asrwt>0</asrwt>
<pdfrwt beam="1">  1       21 0.18909195E-01 0.42202839E+03</pdfrwt>
<pdfrwt beam="2">  1       21 0.50925169E-01 0.42202839E+03</pdfrwt>
<totfact> 0.87932733E+04</totfact>
</mgrwt>
</event>
<event>
 7    0  0.4766352E-002  0.4550590E+03  0.7546771E-02  0.1026224E+00
         21   -1    0    0  502  501  0.00000000000E+00  0.00000000000E+00  0.33062448422E+02  0.33062448422E+02  0.00000000000E+00 0.  1.
         21   -1    0    0  501  502 -0.00000000000E+00 -0.00000000000E+00 -0.15658149901E+04  0.15658149901E+04  0.00000000000E+00 0.  1.
      99926    2    1    2    0    0  0.00000000000E+00  0.00000000000E+00 -0.15327525417E+04  0.15988774385E+04  0.45505901748E+03 0.  0.
      99925    2    3    3    0    0 -0.79478638604E+02 -0.79377026162E+02 -0.91499850794E+03  0.95865472682E+03  0.26301910472E+03 0.  0.
         25    1    4    4    0    0 -0.49933217971E+02 -0.26513630372E+01 -0.38316971849E+03  0.40616117152E+03  0.12509000000E+03 0.  0.
         25    1    4    4    0    0 -0.29545420633E+02 -0.76725663124E+02 -0.53182878944E+03  0.55249355530E+03  0.12509000000E+03 0.  0.
         25    1    3    3    0    0  0.79478638604E+02  0.79377026162E+02 -0.61775403374E+03  0.64022271170E+03  0.12509000000E+03 0.  0.
<mgrwt>
<rscale>  2 0.45505902E+03</rscale>
<asrwt>0</asrwt>
<pdfrwt beam="1">  1       21 0.48621250E-02 0.45505902E+03</pdfrwt>
<pdfrwt beam="2">  1       21 0.23026690E+00 0.45505902E+03</pdfrwt>
<totfact> 0.21445335E+04</totfact>
</mgrwt>
</event>
<event>
 7    0  0.4766352E-002  0.4552559E+03  0.7546771E-02  0.1026166E+00
         21   -1    0    0  502  501  0.00000000000E+00  0.00000000000E+00  0.24198858682E+04  0.24198858682E+04  0.00000000000E+00 0.  1.
         21   -1    0    0  501  502 -0.00000000000E+00 -0.00000000000E+00 -0.21411954360E+02  0.21411954360E+02  0.00000000000E+00 0.  1.
      99926    2    1    2    0    0  0.00000000000E+00  0.00000000000E+00  0.23984739138E+04  0.24412978226E+04  0.45525590942E+03 0.  0.
      99925    2    3    3    0    0  0.69251513942E+02  0.81413713010E+02  0.17121732545E+04  0.17355499441E+04  0.26300644511E+03 0.  0.
         25    1    3    3    0    0 -0.69251513942E+02 -0.81413713010E+02  0.68630065934E+03  0.70574787847E+03  0.12509000000E+03 0.  0.
         25    1    4    4    0    0 -0.10538954629E+01  0.20025444320E+02  0.69074134356E+03  0.70226294287E+03  0.12509000000E+03 0.  0.
         25    1    4    4    0    0  0.70305409405E+02  0.61388268690E+02  0.10214319109E+04  0.10332870012E+04  0.12509000000E+03 0.  0.
<mgrwt>
<rscale>  2 0.45525591E+03</rscale>
<asrwt>0</asrwt>
<pdfrwt beam="1">  1       21 0.35586538E+00 0.45525591E+03</pdfrwt>
<pdfrwt beam="2">  1       21 0.31488185E-02 0.45525591E+03</pdfrwt>
<totfact> 0.77358732E+03</totfact>
</mgrwt>
</event>
<event>
 7    0  0.4766352E-002  0.4598355E+03  0.7546771E-02  0.1024829E+00
         21   -1    0    0  502  501  0.00000000000E+00  0.00000000000E+00  0.16620390797E+03  0.16620390797E+03  0.00000000000E+00 0. -1.
         21   -1    0    0  501  502 -0.00000000000E+00 -0.00000000000E+00 -0.31805612855E+03  0.31805612855E+03  0.00000000000E+00 0. -1.
      99926    2    1    2    0    0  0.00000000000E+00 -0.17763568394E-14 -0.15185222058E+03  0.48426003653E+03  0.45983549893E+03 0.  0.
      99925    2    3    3    0    0  0.11608744697E+03 -0.13854126234E+02 -0.10919566983E+03  0.30780799891E+03  0.26297117280E+03 0.  0.
         25    1    4    4    0    0  0.74663567681E+02 -0.43638335838E+02 -0.47734443111E+02  0.15938957887E+03  0.12509000000E+03 0.  0.
         25    1    3    3    0    0 -0.11608744697E+03  0.13854126234E+02 -0.42656550755E+02  0.17645203762E+03  0.12509000000E+03 0.  0.
         25    1    4    4    0    0  0.41423879285E+02  0.29784209604E+02 -0.61461226718E+02  0.14841842004E+03  0.12509000000E+03 0.  0.
<mgrwt>
<rscale>  2 0.45983550E+03</rscale>
<asrwt>0</asrwt>
<pdfrwt beam="1">  1       21 0.24441751E-01 0.45983550E+03</pdfrwt>
<pdfrwt beam="2">  1       21 0.46772960E-01 0.45983550E+03</pdfrwt>
<totfact> 0.63903043E+04</totfact>
</mgrwt>
</event>
<event>
 7    0  0.4766352E-002  0.4567922E+03  0.7546771E-02  0.1025716E+00
         21   -1    0    0  502  501  0.00000000000E+00  0.00000000000E+00  0.70693899573E+03  0.70693899573E+03  0.00000000000E+00 0.  1.
         21   -1    0    0  501  502 -0.00000000000E+00 -0.00000000000E+00 -0.73789661339E+02  0.73789661339E+02  0.00000000000E+00 0.  1.
      99926    2    1    2    0    0  0.35527136788E-14  0.00000000000E+00  0.63314933439E+03  0.78072865707E+03  0.45679224635E+03 0.  0.
      99925    2    3    3    0    0  0.19446746625E+02 -0.10153330386E+03  0.48347560396E+03  0.55996425453E+03  0.26291466102E+03 0.  0.
         25    1    4    4    0    0  0.34043652333E+02 -0.63186232164E+02  0.31254052849E+03  0.34421005251E+03  0.12509000000E+03 0.  0.
         25    1    3    3    0    0 -0.19446746625E+02  0.10153330386E+03  0.14967373043E+03  0.22076440254E+03  0.12509000000E+03 0.  0.
         25    1    4    4    0    0 -0.14596905707E+02 -0.38347071695E+02  0.17093507546E+03  0.21575420202E+03  0.12509000000E+03 0.  0.
<mgrwt>
<rscale>  2 0.45679225E+03</rscale>
<asrwt>0</asrwt>
<pdfrwt beam="1">  1       21 0.10396161E+00 0.45679225E+03</pdfrwt>
<pdfrwt beam="2">  1       21 0.10851421E-01 0.45679225E+03</pdfrwt>
<totfact> 0.48031844E+04</totfact>
</mgrwt>
</event>
<event>
 7    0  0.4766352E-002  0.4943035E+03  0.7546771E-02  0.1015277E+00
         21   -1    0    0  502  501  0.00000000000E+00  0.00000000000E+00  0.96169986732E+03  0.96169986732E+03  0.00000000000E+00 0. -1.
         21   -1    0    0  501  502 -0.00000000000E+00 -0.00000000000E+00 -0.63516690428E+02  0.63516690428E+02  0.00000000000E+00 0. -1.
      99926    2    1    2    0    0  0.17763568394E-14  0.00000000000E+00  0.89818317689E+03  0.10252165577E+04  0.49430352116E+03 0.  0.
      99925    2    3    3    0    0  0.15832935156E+02  0.19373223249E+02  0.84782317771E+03  0.88806831229E+03  0.26312579314E+03 0.  0.
         25    1    4    4    0    0  0.24166766929E+02  0.19747853119E+02  0.30830663907E+03  0.33417735130E+03  0.12509000000E+03 0.  0.
         25    1    4    4    0    0 -0.83338317731E+01 -0.37462986980E+00  0.53951653864E+03  0.55389096099E+03  0.12509000000E+03 0.  0.
         25    1    3    3    0    0 -0.15832935156E+02 -0.19373223249E+02  0.50359999180E+02  0.13714824546E+03  0.12509000000E+03 0.  0.
<mgrwt>
<rscale>  2 0.49430352E+03</rscale>
<asrwt>0</asrwt>
<pdfrwt beam="1">  1       21 0.14142644E+00 0.49430352E+03</pdfrwt>
<pdfrwt beam="2">  1       21 0.93406904E-02 0.49430352E+03</pdfrwt>
<totfact> 0.28421359E+04</totfact>
</mgrwt>
</event>
<event>
 7    0  0.4766352E-002  0.4640739E+03  0.7546771E-02  0.1023606E+00
         21   -1    0    0  502  501  0.00000000000E+00  0.00000000000E+00  0.32153192568E+03  0.32153192568E+03  0.00000000000E+00 0. -1.
         21   -1    0    0  501  502 -0.00000000000E+00 -0.00000000000E+00 -0.16745192048E+03  0.16745192048E+03  0.00000000000E+00 0. -1.
      99926    2    1    2    0    0 -0.71054273576E-14 -0.14210854715E-13  0.15408000520E+03  0.48898384616E+03  0.46407386675E+03 0.  0.
      99925    2    3    3    0    0  0.62198556907E+02  0.90094199622E+02  0.40531516414E+02  0.28767216569E+03  0.26291984673E+03 0.  0.
         25    1    4    4    0    0  0.64859343402E+02  0.65342247016E+02  0.55451047689E+01  0.15541750210E+03  0.12509000000E+03 0.  0.
         25    1    4    4    0    0 -0.26607864949E+01  0.24751952606E+02  0.34986411645E+02  0.13225466359E+03  0.12509000000E+03 0.  0.
         25    1    3    3    0    0 -0.62198556907E+02 -0.90094199622E+02  0.11354848879E+03  0.20131168047E+03  0.12509000000E+03 0.  0.
<mgrwt>
<rscale>  2 0.46407387E+03</rscale>
<asrwt>0</asrwt>
<pdfrwt beam="1">  1       21 0.47284107E-01 0.46407387E+03</pdfrwt>
<pdfrwt beam="2">  1       21 0.24625282E-01 0.46407387E+03</pdfrwt>
<totfact> 0.61501026E+04</totfact>
</mgrwt>
</event>
<event>
 7    0  0.4766352E-002  0.4551909E+03  0.7546771E-02  0.1026185E+00
         21   -1    0    0  502  501  0.00000000000E+00  0.00000000000E+00  0.41930531216E+02  0.41930531216E+02  0.00000000000E+00 0.  1.
         21   -1    0    0  501  502 -0.00000000000E+00 -0.00000000000E+00 -0.12353690831E+04  0.12353690831E+04  0.00000000000E+00 0.  1.
      99926    2    1    2    0    0 -0.71054273576E-14  0.00000000000E+00 -0.11934385518E+04  0.12772996143E+04  0.45519086942E+03 0.  0.
      99925    2    3    3    0    0 -0.60314860056E+02 -0.51389975016E+02 -0.52623778758E+03  0.59386477480E+03  0.26357228571E+03 0.  0.
         25    1    4    4    0    0 -0.66178675961E+02 -0.12126949038E+02 -0.30863880156E+03  0.33975299553E+03  0.12509000000E+03 0.  0.
         25    1    4    4    0    0  0.58638159051E+01 -0.39263025978E+02 -0.21759898603E+03  0.25411177927E+03  0.12509000000E+03 0.  0.
         25    1    3    3    0    0  0.60314860056E+02  0.51389975016E+02 -0.66720076425E+03  0.68343483947E+03  0.12509000000E+03 0.  0.
<mgrwt>
<rscale>  2 0.45519087E+03</rscale>
<asrwt>0</asrwt>
<pdfrwt beam="1">  1       21 0.61662554E-02 0.45519087E+03</pdfrwt>
<pdfrwt beam="2">  1       21 0.18167190E+00 0.45519087E+03</pdfrwt>
<totfact> 0.29737029E+04</totfact>
</mgrwt>
</event>
<event>
 7    0  0.4766352E-002  0.4535082E+03  0.7546771E-02  0.1026681E+00
         21   -1    0    0  502  501  0.00000000000E+00  0.00000000000E+00  0.16364562098E+03  0.16364562098E+03  0.00000000000E+00 0. -1.
         21   -1    0    0  501  502 -0.00000000000E+00 -0.00000000000E+00 -0.31419979090E+03  0.31419979090E+03  0.00000000000E+00 0. -1.
      99926    2    1    2    0    0  0.00000000000E+00  0.00000000000E+00 -0.15055416992E+03  0.47784541187E+03  0.45350819129E+03 0.  0.
      99925    2    3    3    0    0  0.20824385657E+02 -0.98702296850E+02 -0.44097811882E+02  0.28508581365E+03  0.26297054149E+03 0.  0.
         25    1    4    4    0    0 -0.19290049902E+02 -0.29652361855E+02 -0.42176840725E+02  0.13666661107E+03  0.12509000000E+03 0.  0.
         25    1    3    3    0    0 -0.20824385657E+02  0.98702296850E+02 -0.10645635804E+03  0.19275959823E+03  0.12509000000E+03 0.  0.
         25    1    4    4    0    0  0.40114435559E+02 -0.69049934994E+02 -0.19209711576E+01  0.14841920258E+03  0.12509000000E+03 0.  0.
<mgrwt>
<rscale>  2 0.45350819E+03</rscale>
<asrwt>0</asrwt>
<pdfrwt beam="1">  1       21 0.24065533E-01 0.45350819E+03</pdfrwt>
<pdfrwt beam="2">  1       21 0.46205851E-01 0.45350819E+03</pdfrwt>
<totfact> 0.67654804E+04</totfact>
</mgrwt>
</event>
<event>
 7    0  0.4766352E-002  0.4522896E+03  0.7546771E-02  0.1027041E+00
         21   -1    0    0  502  501  0.00000000000E+00  0.00000000000E+00  0.26702070170E+02  0.26702070170E+02  0.00000000000E+00 0. -1.
         21   -1    0    0  501  502 -0.00000000000E+00 -0.00000000000E+00 -0.19152621487E+04  0.19152621487E+04  0.00000000000E+00 0. -1.
      99926    2    1    2    0    0  0.00000000000E+00  0.00000000000E+00 -0.18885600785E+04  0.19419642188E+04  0.45228957223E+03 0.  0.
      99925    2    3    3    0    0  0.44024265163E+02  0.40549631746E+02 -0.15908313438E+04  0.16135250066E+04  0.26293758580E+03 0.  0.
         25    1    4    4    0    0 -0.12522682325E+02 -0.18458224866E+01 -0.77788971647E+03  0.78798486262E+03  0.12509000000E+03 0.  0.
         25    1    3    3    0    0 -0.44024265163E+02 -0.40549631746E+02 -0.29772873474E+03  0.32843921226E+03  0.12509000000E+03 0.  0.
         25    1    4    4    0    0  0.56546947489E+02  0.42395454232E+02 -0.81294162729E+03  0.82554014396E+03  0.12509000000E+03 0.  0.
<mgrwt>
<rscale>  2 0.45228957E+03</rscale>
<asrwt>0</asrwt>
<pdfrwt beam="1">  1       21 0.39267750E-02 0.45228957E+03</pdfrwt>
<pdfrwt beam="2">  1       21 0.28165620E+00 0.45228957E+03</pdfrwt>
<totfact> 0.14993609E+04</totfact>
</mgrwt>
</event>
<event>
 7    0  0.4766352E-002  0.4675469E+03  0.7546771E-02  0.1022615E+00
         21   -1    0    0  502  501  0.00000000000E+00  0.00000000000E+00  0.62342070217E+02  0.62342070217E+02  0.00000000000E+00 0.  1.
         21   -1    0    0  501  502 -0.00000000000E+00 -0.00000000000E+00 -0.87661564848E+03  0.87661564848E+03  0.00000000000E+00 0.  1.
      99926    2    1    2    0    0  0.35527136788E-14  0.00000000000E+00 -0.81427357826E+03  0.93895771870E+03  0.46754693587E+03 0.  0.
      99925    2    3    3    0    0  0.21803333382E+02  0.11116400620E+03 -0.61140095297E+03  0.67506828766E+03  0.26281789530E+03 0.  0.
         25    1    4    4    0    0  0.39554283660E+02  0.48983118871E+02 -0.36976256979E+03  0.39539316308E+03  0.12509000000E+03 0.  0.
         25    1    4    4    0    0 -0.17750950277E+02  0.62180887326E+02 -0.24163838318E+03  0.27967512458E+03  0.12509000000E+03 0.  0.
         25    1    3    3    0    0 -0.21803333382E+02 -0.11116400620E+03 -0.20287262529E+03  0.26388943104E+03  0.12509000000E+03 0.  0.
<mgrwt>
<rscale>  2 0.46754694E+03</rscale>
<asrwt>0</asrwt>
<pdfrwt beam="1">  1       21 0.91679515E-02 0.46754694E+03</pdfrwt>
<pdfrwt beam="2">  1       21 0.12891407E+00 0.46754694E+03</pdfrwt>
<totfact> 0.37747333E+04</totfact>
</mgrwt>
</event>
<event>
 7    0  0.4766352E-002  0.4549219E+03  0.7546771E-02  0.1026264E+00
         21   -1    0    0  502  501  0.00000000000E+00  0.00000000000E+00  0.19132804405E+03  0.19132804405E+03  0.00000000000E+00 0.  1.
         21   -1    0    0  501  502 -0.00000000000E+00 -0.00000000000E+00 -0.27041772851E+03  0.27041772851E+03  0.00000000000E+00 0.  1.
      99926    2    1    2    0    0  0.00000000000E+00  0.00000000000E+00 -0.79089684460E+02  0.46174577255E+03  0.45492194966E+03 0.  0.
      99925    2    3    3    0    0  0.10194440037E+03 -0.36410513608E+02 -0.83303388412E+02  0.29626571433E+03  0.26289833149E+03 0.  0.
         25    1    4    4    0    0  0.79302857435E+02  0.76640379075E+01 -0.28687214295E+02  0.15105676098E+03  0.12509000000E+03 0.  0.
         25    1    3    3    0    0 -0.10194440037E+03  0.36410513608E+02  0.42137039520E+01  0.16548005822E+03  0.12509000000E+03 0.  0.
         25    1    4    4    0    0  0.22641542937E+02 -0.44074551516E+02 -0.54616174117E+02  0.14520895335E+03  0.12509000000E+03 0.  0.
<mgrwt>
<rscale>  2 0.45492195E+03</rscale>
<asrwt>0</asrwt>
<pdfrwt beam="1">  1       21 0.28136477E-01 0.45492195E+03</pdfrwt>
<pdfrwt beam="2">  1       21 0.39767313E-01 0.45492195E+03</pdfrwt>
<totfact> 0.68094587E+04</totfact>
</mgrwt>
</event>
<event>
 7    0  0.4766352E-002  0.4572174E+03  0.7546771E-02  0.1025591E+00
         21   -1    0    0  502  501  0.00000000000E+00  0.00000000000E+00  0.74993537312E+02  0.74993537312E+02  0.00000000000E+00 0. -1.
         21   -1    0    0  501  502 -0.00000000000E+00 -0.00000000000E+00 -0.69688590162E+03  0.69688590162E+03  0.00000000000E+00 0. -1.
      99926    2    1    2    0    0 -0.71054273576E-14  0.14210854715E-13 -0.62189236431E+03  0.77187943893E+03  0.45721740503E+03 0.  0.
      99925    2    3    3    0    0 -0.52897249903E+02  0.91353668725E+02 -0.46910973691E+03  0.54797398752E+03  0.26280778888E+03 0.  0.
         25    1    4    4    0    0 -0.65540315980E+02  0.36557182977E+02 -0.25185828815E+03  0.29105337321E+03  0.12509000000E+03 0.  0.
         25    1    4    4    0    0  0.12643066076E+02  0.54796485748E+02 -0.21725144876E+03  0.25692061431E+03  0.12509000000E+03 0.  0.
         25    1    3    3    0    0  0.52897249903E+02 -0.91353668725E+02 -0.15278262740E+03  0.22390545141E+03  0.12509000000E+03 0.  0.
<mgrwt>
<rscale>  2 0.45721741E+03</rscale>
<asrwt>0</asrwt>
<pdfrwt beam="1">  1       21 0.11028461E-01 0.45721741E+03</pdfrwt>
<pdfrwt beam="2">  1       21 0.10248322E+00 0.45721741E+03</pdfrwt>
<totfact> 0.48308636E+04</totfact>
</mgrwt>
</event>
<event>
 7    0  0.4766352E-002  0.4567808E+03  0.7546771E-02  0.1025719E+00
         21   -1    0    0  502  501  0.00000000000E+00  0.00000000000E+00  0.68069757220E+02  0.68069757220E+02  0.00000000000E+00 0.  1.
         21   -1    0    0  501  502 -0.00000000000E+00 -0.00000000000E+00 -0.76630464261E+03  0.76630464261E+03  0.00000000000E+00 0.  1.
      99926    2    1    2    0    0  0.00000000000E+00  0.00000000000E+00 -0.69823488539E+03  0.83437439983E+03  0.45678078322E+03 0.  0.
      99925    2    3    3    0    0 -0.10774772930E+03  0.36418359648E+02 -0.46678204274E+03  0.54774956392E+03  0.26307458878E+03 0.  0.
         25    1    4    4    0    0 -0.81156249724E+02  0.23535578190E+02 -0.19071982622E+03  0.24323203022E+03  0.12509000000E+03 0.  0.
         25    1    4    4    0    0 -0.26591479577E+02  0.12882781459E+02 -0.27606221652E+03  0.30451753370E+03  0.12509000000E+03 0.  0.
         25    1    3    3    0    0  0.10774772930E+03 -0.36418359648E+02 -0.23145284265E+03  0.28662483591E+03  0.12509000000E+03 0.  0.
<mgrwt>
<rscale>  2 0.45678078E+03</rscale>
<asrwt>0</asrwt>
<pdfrwt beam="1">  1       21 0.10010259E-01 0.45678078E+03</pdfrwt>
<pdfrwt beam="2">  1       21 0.11269186E+00 0.45678078E+03</pdfrwt>
<totfact> 0.45507506E+04</totfact>
</mgrwt>
</event>
<event>
 7    0  0.4766352E-002  0.4516815E+03  0.7546771E-02  0.1027222E+00
         21   -1    0    0  502  501  0.00000000000E+00  0.00000000000E+00  0.68757263549E+02  0.68757263549E+02  0.00000000000E+00 0.  1.
         21   -1    0    0  501  502 -0.00000000000E+00 -0.00000000000E+00 -0.74179855830E+03  0.74179855830E+03  0.00000000000E+00 0.  1.
      99926    2    1    2    0    0  0.00000000000E+00  0.00000000000E+00 -0.67304129475E+03  0.81055582185E+03  0.45168147614E+03 0.  0.
      99925    2    3    3    0    0 -0.10930423537E+03 -0.10274833145E+02 -0.43829884304E+03  0.52279808555E+03  0.26298093919E+03 0.  0.
         25    1    4    4    0    0 -0.20920110901E+02 -0.57029753820E+01 -0.24680047483E+03  0.27753947006E+03  0.12509000000E+03 0.  0.
         25    1    4    4    0    0 -0.88384124466E+02 -0.45718577628E+01 -0.19149836822E+03  0.24525861549E+03  0.12509000000E+03 0.  0.
         25    1    3    3    0    0  0.10930423537E+03  0.10274833145E+02 -0.23474245171E+03  0.28775773630E+03  0.12509000000E+03 0.  0.
<mgrwt>
<rscale>  2 0.45168148E+03</rscale>
<asrwt>0</asrwt>
<pdfrwt beam="1">  1       21 0.10111363E-01 0.45168148E+03</pdfrwt>
<pdfrwt beam="2">  1       21 0.10908802E+00 0.45168148E+03</pdfrwt>
<totfact> 0.48509431E+04</totfact>
</mgrwt>
</event>
<event>
 7    0  0.4766352E-002  0.4634714E+03  0.7546771E-02  0.1023779E+00
         21   -1    0    0  502  501  0.00000000000E+00  0.00000000000E+00  0.87445032523E+02  0.87445032523E+02  0.00000000000E+00 0.  1.
         21   -1    0    0  501  502 -0.00000000000E+00 -0.00000000000E+00 -0.61411653847E+03  0.61411653847E+03  0.00000000000E+00 0.  1.
      99926    2    1    2    0    0 -0.99920072216E-15  0.14210854715E-13 -0.52667150595E+03  0.70156157099E+03  0.46347142600E+03 0.  0.
      99925    2    3    3    0    0 -0.36566788014E+00  0.12120770035E+03 -0.32657297786E+03  0.43627235263E+03  0.26266369270E+03 0.  0.
         25    1    4    4    0    0 -0.10015304327E+02  0.10063443137E+03 -0.20264581029E+03  0.25872848244E+03  0.12509000000E+03 0.  0.
         25    1    3    3    0    0  0.36566788014E+00 -0.12120770035E+03 -0.20009852808E+03  0.26528921836E+03  0.12509000000E+03 0.  0.
         25    1    4    4    0    0  0.96496364473E+01  0.20573268975E+02 -0.12392716758E+03  0.17754387020E+03  0.12509000000E+03 0.  0.
<mgrwt>
<rscale>  2 0.46347143E+03</rscale>
<asrwt>0</asrwt>
<pdfrwt beam="1">  1       21 0.12859563E-01 0.46347143E+03</pdfrwt>
<pdfrwt beam="2">  1       21 0.90311258E-01 0.46347143E+03</pdfrwt>
<totfact> 0.49438908E+04</totfact>
</mgrwt>
</event>
<event>
 7    0  0.4766352E-002  0.4551371E+03  0.7546771E-02  0.1026201E+00
         21   -1    0    0  502  501  0.00000000000E+00  0.00000000000E+00  0.10615729773E+04  0.10615729773E+04  0.00000000000E+00 0.  1.
         21   -1    0    0  501  502 -0.00000000000E+00 -0.00000000000E+00 -0.48783688091E+02  0.48783688091E+02  0.00000000000E+00 0.  1.
      99926    2    1    2    0    0  0.00000000000E+00  0.00000000000E+00  0.10127892892E+04  0.11103566654E+04  0.45513710028E+03 0.  0.
      99925    2    3    3    0    0 -0.10497304014E+03  0.38914464743E+02  0.59365952638E+03  0.65885811510E+03  0.26292338781E+03 0.  0.
         25    1    3    3    0    0  0.10497304014E+03 -0.38914464743E+02  0.41912976286E+03  0.45149855031E+03  0.12509000000E+03 0.  0.
         25    1    4    4    0    0 -0.14510525905E+02  0.30385754343E+02  0.23610026733E+03  0.26930409162E+03  0.12509000000E+03 0.  0.
         25    1    4    4    0    0 -0.90462514236E+02  0.85287103992E+01  0.35755925904E+03  0.38955402348E+03  0.12509000000E+03 0.  0.
<mgrwt>
<rscale>  2 0.45513710E+03</rscale>
<asrwt>0</asrwt>
<pdfrwt beam="1">  1       21 0.15611366E+00 0.45513710E+03</pdfrwt>
<pdfrwt beam="2">  1       21 0.71740725E-02 0.45513710E+03</pdfrwt>
<totfact> 0.35096260E+04</totfact>
</mgrwt>
</event>
<event>
 7    0  0.4766352E-002  0.4552047E+03  0.7546771E-02  0.1026181E+00
         21   -1    0    0  502  501  0.00000000000E+00  0.00000000000E+00  0.56996760662E+03  0.56996760662E+03  0.00000000000E+00 0. -1.
         21   -1    0    0  501  502 -0.00000000000E+00 -0.00000000000E+00 -0.90887317054E+02  0.90887317054E+02  0.00000000000E+00 0. -1.
      99926    2    1    2    0    0 -0.35527136788E-14  0.00000000000E+00  0.47908028957E+03  0.66085492367E+03  0.45520468615E+03 0.  0.
      99925    2    3    3    0    0 -0.26217823767E+02  0.44663359136E+02  0.44788842453E+03  0.52192101681E+03  0.26289792130E+03 0.  0.
         25    1    4    4    0    0 -0.25150156203E+02  0.17901343166E+02  0.15007735351E+03  0.19779713997E+03  0.12509000000E+03 0.  0.
         25    1    3    3    0    0  0.26217823767E+02 -0.44663359136E+02  0.31191865033E+02  0.13893390686E+03  0.12509000000E+03 0.  0.
         25    1    4    4    0    0 -0.10676675645E+01  0.26762015970E+02  0.29781107102E+03  0.32412387684E+03  0.12509000000E+03 0.  0.
<mgrwt>
<rscale>  2 0.45520469E+03</rscale>
<asrwt>0</asrwt>
<pdfrwt beam="1">  1       21 0.83818764E-01 0.45520469E+03</pdfrwt>
<pdfrwt beam="2">  1       21 0.13365782E-01 0.45520469E+03</pdfrwt>
<totfact> 0.54991106E+04</totfact>
</mgrwt>
</event>
<event>
 7    0  0.4766352E-002  0.4496137E+03  0.7546771E-02  0.1027837E+00
         21   -1    0    0  502  501  0.00000000000E+00  0.00000000000E+00  0.78898787831E+02  0.78898787831E+02  0.00000000000E+00 0.  1.
         21   -1    0    0  501  502 -0.00000000000E+00 -0.00000000000E+00 -0.64054366134E+03  0.64054366134E+03  0.00000000000E+00 0.  1.
      99926    2    1    2    0    0  0.00000000000E+00  0.00000000000E+00 -0.56164487351E+03  0.71944244917E+03  0.44961369389E+03 0.  0.
      99925    2    3    3    0    0 -0.53125765054E+02 -0.92820997095E+02 -0.38236310073E+03  0.47607534670E+03  0.26269394839E+03 0.  0.
         25    1    4    4    0    0  0.90434794988E+00 -0.62131727975E+02 -0.23239629902E+03  0.27113966395E+03  0.12509000000E+03 0.  0.
         25    1    4    4    0    0 -0.54030113004E+02 -0.30689269120E+02 -0.14996680170E+03  0.20493568275E+03  0.12509000000E+03 0.  0.
         25    1    3    3    0    0  0.53125765054E+02  0.92820997095E+02 -0.17928177278E+03  0.24336710247E+03  0.12509000000E+03 0.  0.
<mgrwt>
<rscale>  2 0.44961369E+03</rscale>
<asrwt>0</asrwt>
<pdfrwt beam="1">  1       21 0.11602763E-01 0.44961369E+03</pdfrwt>
<pdfrwt beam="2">  1       21 0.94197600E-01 0.44961369E+03</pdfrwt>
<totfact> 0.54116631E+04</totfact>
</mgrwt>
</event>
<event>
 7    0  0.4766352E-002  0.4693134E+03  0.7546771E-02  0.1022114E+00
         21   -1    0    0  502  501  0.00000000000E+00  0.00000000000E+00  0.13619362963E+03  0.13619362963E+03  0.00000000000E+00 0. -1.
         21   -1    0    0  501  502 -0.00000000000E+00 -0.00000000000E+00 -0.40430504607E+03  0.40430504607E+03  0.00000000000E+00 0. -1.
      99926    2    1    2    0    0  0.00000000000E+00  0.00000000000E+00 -0.26811141644E+03  0.54049867570E+03  0.46931342066E+03 0.  0.
      99925    2    3    3    0    0  0.10011508142E+03 -0.25299518046E+02 -0.25011008678E+03  0.37729741618E+03  0.26293571383E+03 0.  0.
         25    1    4    4    0    0  0.21650447043E+02 -0.30758579115E+02 -0.14954122249E+03  0.19855708844E+03  0.12509000000E+03 0.  0.
         25    1    3    3    0    0 -0.10011508142E+03  0.25299518046E+02 -0.18001329660E+02  0.16320125953E+03  0.12509000000E+03 0.  0.
         25    1    4    4    0    0  0.78464634378E+02  0.54590610684E+01 -0.10056886429E+03  0.17874032774E+03  0.12509000000E+03 0.  0.
<mgrwt>
<rscale>  2 0.46931342E+03</rscale>
<asrwt>0</asrwt>
<pdfrwt beam="1">  1       21 0.20028475E-01 0.46931342E+03</pdfrwt>
<pdfrwt beam="2">  1       21 0.59456625E-01 0.46931342E+03</pdfrwt>
<totfact> 0.55887135E+04</totfact>
</mgrwt>
</event>
<event>
 7    0  0.4766352E-002  0.4585389E+03  0.7546771E-02  0.1025206E+00
         21   -1    0    0  502  501  0.00000000000E+00  0.00000000000E+00  0.98745464316E+02  0.98745464316E+02  0.00000000000E+00 0.  1.
         21   -1    0    0  501  502 -0.00000000000E+00 -0.00000000000E+00 -0.53232293049E+03  0.53232293049E+03  0.00000000000E+00 0.  1.
      99926    2    1    2    0    0  0.00000000000E+00  0.00000000000E+00 -0.43357746618E+03  0.63106839481E+03  0.45853887485E+03 0.  0.
      99925    2    3    3    0    0  0.93311397625E+02  0.65250699088E+02 -0.23707350780E+03  0.37178865319E+03  0.26278942878E+03 0.  0.
         25    1    4    4    0    0  0.32859656447E+02  0.14247782325E+02 -0.15564703280E+03  0.20287006492E+03  0.12509000000E+03 0.  0.
         25    1    3    3    0    0 -0.93311397625E+02 -0.65250699088E+02 -0.19650395837E+03  0.25927974162E+03  0.12509000000E+03 0.  0.
         25    1    4    4    0    0  0.60451741179E+02  0.51002916763E+02 -0.81426475007E+02  0.16891858827E+03  0.12509000000E+03 0.  0.
<mgrwt>
<rscale>  2 0.45853887E+03</rscale>
<asrwt>0</asrwt>
<pdfrwt beam="1">  1       21 0.14521392E-01 0.45853887E+03</pdfrwt>
<pdfrwt beam="2">  1       21 0.78282783E-01 0.45853887E+03</pdfrwt>
<totfact> 0.55245946E+04</totfact>
</mgrwt>
</event>
<event>
 7    0  0.4766352E-002  0.4533316E+03  0.7546771E-02  0.1026733E+00
         21   -1    0    0  502  501  0.00000000000E+00  0.00000000000E+00  0.13167909703E+03  0.13167909703E+03  0.00000000000E+00 0.  1.
         21   -1    0    0  501  502 -0.00000000000E+00 -0.00000000000E+00 -0.39017121086E+03  0.39017121086E+03  0.00000000000E+00 0.  1.
      99926    2    1    2    0    0 -0.71054273576E-14  0.00000000000E+00 -0.25849211383E+03  0.52185030789E+03  0.45333163461E+03 0.  0.
      99925    2    3    3    0    0  0.62931847287E+02  0.80508090138E+02 -0.11007042028E+03  0.30249106556E+03  0.26257070923E+03 0.  0.
         25    1    4    4    0    0  0.51183684295E+02  0.58798113047E+02 -0.25738501630E+02  0.14962274627E+03  0.12509000000E+03 0.  0.
         25    1    3    3    0    0 -0.62931847287E+02 -0.80508090138E+02 -0.14842169355E+03  0.21935924233E+03  0.12509000000E+03 0.  0.
         25    1    4    4    0    0  0.11748162992E+02  0.21709977091E+02 -0.84331918652E+02  0.15286831929E+03  0.12509000000E+03 0.  0.
<mgrwt>
<rscale>  2 0.45333163E+03</rscale>
<asrwt>0</asrwt>
<pdfrwt beam="1">  1       21 0.19364573E-01 0.45333163E+03</pdfrwt>
<pdfrwt beam="2">  1       21 0.57378119E-01 0.45333163E+03</pdfrwt>
<totfact> 0.64611897E+04</totfact>
</mgrwt>
</event>
<event>
 7    0  0.4766352E-002  0.4527110E+03  0.7546771E-02  0.1026917E+00
         21   -1    0    0  502  501  0.00000000000E+00  0.00000000000E+00  0.58837767849E+03  0.58837767849E+03  0.00000000000E+00 0. -1.
         21   -1    0    0  501  502 -0.00000000000E+00 -0.00000000000E+00 -0.87081492006E+02  0.87081492006E+02  0.00000000000E+00 0. -1.
      99926    2    1    2    0    0 -0.14210854715E-13 -0.35527136788E-14  0.50129618649E+03  0.67545917050E+03  0.45271097228E+03 0.  0.
      99925    2    3    3    0    0 -0.99853551459E+02 -0.31986864008E+02  0.37063817572E+03  0.46638283256E+03  0.26295702691E+03 0.  0.
         25    1    4    4    0    0 -0.57882313649E+02 -0.32433235680E+02  0.25144546496E+03  0.28857339960E+03  0.12509000000E+03 0.  0.
         25    1    4    4    0    0 -0.41971237810E+02  0.44637167151E+00  0.11919271076E+03  0.17780943296E+03  0.12509000000E+03 0.  0.
         25    1    3    3    0    0  0.99853551459E+02  0.31986864008E+02  0.13065801077E+03  0.20907633794E+03  0.12509000000E+03 0.  0.
<mgrwt>
<rscale>  2 0.45271097E+03</rscale>
<asrwt>0</asrwt>
<pdfrwt beam="1">  1       21 0.86526127E-01 0.45271097E+03</pdfrwt>
<pdfrwt beam="2">  1       21 0.12806102E-01 0.45271097E+03</pdfrwt>
<totfact> 0.55245554E+04</totfact>
</mgrwt>
</event>
<event>
 7    0  0.4766352E-002  0.4579694E+03  0.7546771E-02  0.1025372E+00
         21   -1    0    0  502  501  0.00000000000E+00  0.00000000000E+00  0.60227833125E+03  0.60227833125E+03  0.00000000000E+00 0. -1.
         21   -1    0    0  501  502 -0.00000000000E+00 -0.00000000000E+00 -0.87059389652E+02  0.87059389652E+02  0.00000000000E+00 0. -1.
      99926    2    1    2    0    0  0.35527136788E-14  0.00000000000E+00  0.51521894160E+03  0.68933772090E+03  0.45796936107E+03 0.  0.
      99925    2    3    3    0    0  0.25825411852E+02 -0.11274330842E+03  0.31114599417E+03  0.42349701397E+03  0.26298267179E+03 0.  0.
         25    1    3    3    0    0 -0.25825411852E+02  0.11274330842E+03  0.20407294743E+03  0.26584070693E+03  0.12509000000E+03 0.  0.
         25    1    4    4    0    0  0.16259208595E+02 -0.37253905866E+02  0.94265128910E+02  0.16181977010E+03  0.12509000000E+03 0.  0.
         25    1    4    4    0    0  0.95662032575E+01 -0.75489402555E+02  0.21688086526E+03  0.26167724387E+03  0.12509000000E+03 0.  0.
<mgrwt>
<rscale>  2 0.45796936E+03</rscale>
<asrwt>0</asrwt>
<pdfrwt beam="1">  1       21 0.88570341E-01 0.45796936E+03</pdfrwt>
<pdfrwt beam="2">  1       21 0.12802852E-01 0.45796936E+03</pdfrwt>
<totfact> 0.52253596E+04</totfact>
</mgrwt>
</event>
<event>
 7    0  0.4766352E-002  0.4581902E+03  0.7546771E-02  0.1025307E+00
         21   -1    0    0  502  501  0.00000000000E+00  0.00000000000E+00  0.58469275062E+03  0.58469275062E+03  0.00000000000E+00 0.  1.
         21   -1    0    0  501  502 -0.00000000000E+00 -0.00000000000E+00 -0.89764359740E+02  0.89764359740E+02  0.00000000000E+00 0.  1.
      99926    2    1    2    0    0 -0.17763568394E-14  0.00000000000E+00  0.49492839088E+03  0.67445711036E+03  0.45819022427E+03 0.  0.
      99925    2    3    3    0    0 -0.46847156419E+01  0.10765006301E+03  0.37371827443E+03  0.46964040436E+03  0.26322286781E+03 0.  0.
         25    1    4    4    0    0  0.23285200249E+02  0.80596033582E+02  0.23243053944E+03  0.27696459150E+03  0.12509000000E+03 0.  0.
         25    1    4    4    0    0 -0.27969915891E+02  0.27054029426E+02  0.14128773499E+03  0.19267581286E+03  0.12509000000E+03 0.  0.
         25    1    3    3    0    0  0.46847156419E+01 -0.10765006301E+03  0.12121011645E+03  0.20481670600E+03  0.12509000000E+03 0.  0.
<mgrwt>
<rscale>  2 0.45819022E+03</rscale>
<asrwt>0</asrwt>
<pdfrwt beam="1">  1       21 0.85984226E-01 0.45819022E+03</pdfrwt>
<pdfrwt beam="2">  1       21 0.13200641E-01 0.45819022E+03</pdfrwt>
<totfact> 0.52967671E+04</totfact>
</mgrwt>
</event>
<event>
 7    0  0.4766352E-002  0.4479254E+03  0.7546771E-02  0.1028343E+00
         21   -1    0    0  502  501  0.00000000000E+00  0.00000000000E+00  0.11731711658E+03  0.11731711658E+03  0.00000000000E+00 0.  1.
         21   -1    0    0  501  502 -0.00000000000E+00 -0.00000000000E+00 -0.42755297144E+03  0.42755297144E+03  0.00000000000E+00 0.  1.
      99926    2    1    2    0    0  0.00000000000E+00  0.00000000000E+00 -0.31023585487E+03  0.54487008802E+03  0.44792535893E+03 0.  0.
      99925    2    3    3    0    0 -0.56944717112E+02 -0.76854986727E+02 -0.13989009186E+03  0.31289039738E+03  0.26302428250E+03 0.  0.
         25    1    3    3    0    0  0.56944717112E+02  0.76854986727E+02 -0.17034576301E+03  0.23197969063E+03  0.12509000000E+03 0.  0.
         25    1    4    4    0    0 -0.40076164909E+02 -0.22668485074E+02 -0.10878410822E+03  0.17205071784E+03  0.12509000000E+03 0.  0.
         25    1    4    4    0    0 -0.16868552202E+02 -0.54186501653E+02 -0.31105983640E+02  0.14083967954E+03  0.12509000000E+03 0.  0.
<mgrwt>
<rscale>  2 0.44792536E+03</rscale>
<asrwt>0</asrwt>
<pdfrwt beam="1">  1       21 0.17252517E-01 0.44792536E+03</pdfrwt>
<pdfrwt beam="2">  1       21 0.62875437E-01 0.44792536E+03</pdfrwt>
<totfact> 0.65814450E+04</totfact>
</mgrwt>
</event>
<event>
 7    0  0.4766352E-002  0.4592423E+03  0.7546771E-02  0.1025001E+00
         21   -1    0    0  502  501  0.00000000000E+00  0.00000000000E+00  0.67864794400E+03  0.67864794400E+03  0.00000000000E+00 0.  1.
         21   -1    0    0  501  502 -0.00000000000E+00 -0.00000000000E+00 -0.77692523768E+02  0.77692523768E+02  0.00000000000E+00 0.  1.
      99926    2    1    2    0    0 -0.14210854715E-13  0.71054273576E-14  0.60095542024E+03  0.75634046777E+03  0.45924229561E+03 0.  0.
      99925    2    3    3    0    0 -0.92616680307E+02  0.42013176239E+02  0.28115895534E+03  0.39820607469E+03  0.26301095662E+03 0.  0.
         25    1    4    4    0    0 -0.27071612804E+02  0.56052779374E+02  0.12959123336E+03  0.19056805126E+03  0.12509000000E+03 0.  0.
         25    1    3    3    0    0  0.92616680307E+02 -0.42013176239E+02  0.31979646489E+03  0.35813439308E+03  0.12509000000E+03 0.  0.
         25    1    4    4    0    0 -0.65545067503E+02 -0.14039603135E+02  0.15156772198E+03  0.20763802344E+03  0.12509000000E+03 0.  0.
<mgrwt>
<rscale>  2 0.45924230E+03</rscale>
<asrwt>0</asrwt>
<pdfrwt beam="1">  1       21 0.99801165E-01 0.45924230E+03</pdfrwt>
<pdfrwt beam="2">  1       21 0.11425372E-01 0.45924230E+03</pdfrwt>
<totfact> 0.48317526E+04</totfact>
</mgrwt>
</event>
<event>
 7    0  0.4766352E-002  0.4643708E+03  0.7546771E-02  0.1023521E+00
         21   -1    0    0  502  501  0.00000000000E+00  0.00000000000E+00  0.38373654633E+03  0.38373654633E+03  0.00000000000E+00 0.  1.
         21   -1    0    0  501  502 -0.00000000000E+00 -0.00000000000E+00 -0.14048714861E+03  0.14048714861E+03  0.00000000000E+00 0.  1.
      99926    2    1    2    0    0  0.14210854715E-13 -0.90205620751E-16  0.24324939772E+03  0.52422369493E+03  0.46437077087E+03 0.  0.
      99925    2    3    3    0    0 -0.10912169618E+03 -0.40568325421E-01  0.91218131197E+02  0.29912691503E+03  0.26315132075E+03 0.  0.
         25    1    3    3    0    0  0.10912169618E+03  0.40568325421E-01  0.15203126652E+03  0.22509677991E+03  0.12509000000E+03 0.  0.
         25    1    4    4    0    0 -0.75091095932E+02 -0.26507881640E+02  0.22334212965E+02  0.14995887985E+03  0.12509000000E+03 0.  0.
         25    1    4    4    0    0 -0.34030600250E+02  0.26467313315E+02  0.68883918232E+02  0.14916803518E+03  0.12509000000E+03 0.  0.
<mgrwt>
<rscale>  2 0.46437077E+03</rscale>
<asrwt>0</asrwt>
<pdfrwt beam="1">  1       21 0.56431845E-01 0.46437077E+03</pdfrwt>
<pdfrwt beam="2">  1       21 0.20659875E-01 0.46437077E+03</pdfrwt>
<totfact> 0.59083839E+04</totfact>
</mgrwt>
</event>
<event>
 7    0  0.4766352E-002  0.4547162E+03  0.7546771E-02  0.1026325E+00
         21   -1    0    0  502  501  0.00000000000E+00  0.00000000000E+00  0.14060742174E+03  0.14060742174E+03  0.00000000000E+00 0. -1.
         21   -1    0    0  501  502 -0.00000000000E+00 -0.00000000000E+00 -0.36763143249E+03  0.36763143249E+03  0.00000000000E+00 0. -1.
      99926    2    1    2    0    0 -0.71054273576E-14  0.71054273576E-14 -0.22702401075E+03  0.50823885424E+03  0.45471620985E+03 0.  0.
      99925    2    3    3    0    0 -0.28121960240E+02  0.47080455393E+02 -0.32602477113E+02  0.27063697131E+03  0.26300957169E+03 0.  0.
         25    1    3    3    0    0  0.28121960240E+02 -0.47080455393E+02 -0.19442153364E+03  0.23760188293E+03  0.12509000000E+03 0.  0.
         25    1    4    4    0    0  0.45846975088E+01  0.18812469153E+02 -0.52055701512E+02  0.13686574665E+03  0.12509000000E+03 0.  0.
         25    1    4    4    0    0 -0.32706657749E+02  0.28267986239E+02  0.19453224398E+02  0.13377122466E+03  0.12509000000E+03 0.  0.
<mgrwt>
<rscale>  2 0.45471621E+03</rscale>
<asrwt>0</asrwt>
<pdfrwt beam="1">  1       21 0.20677563E-01 0.45471621E+03</pdfrwt>
<pdfrwt beam="2">  1       21 0.54063444E-01 0.45471621E+03</pdfrwt>
<totfact> 0.64841569E+04</totfact>
</mgrwt>
</event>
<event>
 7    0  0.4766352E-002  0.4027863E+03  0.7546771E-02  0.1042819E+00
         21   -1    0    0  502  501  0.00000000000E+00  0.00000000000E+00  0.11464705623E+03  0.11464705623E+03  0.00000000000E+00 0. -1.
         21   -1    0    0  501  502 -0.00000000000E+00 -0.00000000000E+00 -0.35377445402E+03  0.35377445402E+03  0.00000000000E+00 0. -1.
      99926    2    1    2    0    0 -0.71054273576E-14 -0.17763568394E-14 -0.23912739779E+03  0.46842151025E+03  0.40278629431E+03 0.  0.
      99925    2    3    3    0    0 -0.47182485318E+02 -0.11492686757E+02 -0.17537727935E+03  0.31986224776E+03  0.26305208355E+03 0.  0.
         25    1    4    4    0    0  0.13167463262E+02  0.47844693741E+00 -0.62303571492E+02  0.14036685549E+03  0.12509000000E+03 0.  0.
         25    1    4    4    0    0 -0.60349948581E+02 -0.11971133694E+02 -0.11307370786E+03  0.17949539227E+03  0.12509000000E+03 0.  0.
         25    1    3    3    0    0  0.47182485318E+02  0.11492686757E+02 -0.63750118441E+02  0.14855926249E+03  0.12509000000E+03 0.  0.
<mgrwt>
<rscale>  2 0.40278629E+03</rscale>
<asrwt>0</asrwt>
<pdfrwt beam="1">  1       21 0.16859861E-01 0.40278629E+03</pdfrwt>
<pdfrwt beam="2">  1       21 0.52025655E-01 0.40278629E+03</pdfrwt>
<totfact> 0.10463564E+05</totfact>
</mgrwt>
</event>
<event>
 7    0  0.4766352E-002  0.4455164E+03  0.7546771E-02  0.1029068E+00
         21   -1    0    0  502  501  0.00000000000E+00  0.00000000000E+00  0.45615556090E+03  0.45615556090E+03  0.00000000000E+00 0.  1.
         21   -1    0    0  501  502 -0.00000000000E+00 -0.00000000000E+00 -0.10878135074E+03  0.10878135074E+03  0.00000000000E+00 0.  1.
      99926    2    1    2    0    0  0.00000000000E+00  0.00000000000E+00  0.34737421016E+03  0.56493691164E+03  0.44551641076E+03 0.  0.
      99925    2    3    3    0    0  0.21331878983E+02 -0.98533575831E+02  0.18944708560E+03  0.33965397976E+03  0.26326927868E+03 0.  0.
         25    1    4    4    0    0 -0.12493108613E+02 -0.79345240215E+02  0.12202341376E+03  0.19232515830E+03  0.12509000000E+03 0.  0.
         25    1    3    3    0    0 -0.21331878983E+02  0.98533575831E+02  0.15792712456E+03  0.22528293188E+03  0.12509000000E+03 0.  0.
         25    1    4    4    0    0  0.33824987596E+02 -0.19188335616E+02  0.67423671836E+02  0.14732882146E+03  0.12509000000E+03 0.  0.
<mgrwt>
<rscale>  2 0.44551641E+03</rscale>
<asrwt>0</asrwt>
<pdfrwt beam="1">  1       21 0.67081699E-01 0.44551641E+03</pdfrwt>
<pdfrwt beam="2">  1       21 0.15997258E-01 0.44551641E+03</pdfrwt>
<totfact> 0.65679395E+04</totfact>
</mgrwt>
</event>
<event>
 7    0  0.4766352E-002  0.4518473E+03  0.7546771E-02  0.1027173E+00
         21   -1    0    0  502  501  0.00000000000E+00  0.00000000000E+00  0.11801945442E+03  0.11801945442E+03  0.00000000000E+00 0. -1.
         21   -1    0    0  501  502 -0.00000000000E+00 -0.00000000000E+00 -0.43248372065E+03  0.43248372065E+03  0.00000000000E+00 0. -1.
      99926    2    1    2    0    0  0.00000000000E+00  0.14210854715E-13 -0.31446426622E+03  0.55050317507E+03  0.45184728728E+03 0.  0.
      99925    2    3    3    0    0  0.50340917742E+02  0.73843183891E+02 -0.11978064976E+03  0.30243817869E+03  0.26293425807E+03 0.  0.
         25    1    4    4    0    0  0.61690882174E+01  0.11783371568E+02 -0.25782119097E+02  0.12841001230E+03  0.12509000000E+03 0.  0.
         25    1    3    3    0    0 -0.50340917742E+02 -0.73843183891E+02 -0.19468361647E+03  0.24806499637E+03  0.12509000000E+03 0.  0.
         25    1    4    4    0    0  0.44171829525E+02  0.62059812323E+02 -0.93998530662E+02  0.17402816639E+03  0.12509000000E+03 0.  0.
<mgrwt>
<rscale>  2 0.45184729E+03</rscale>
<asrwt>0</asrwt>
<pdfrwt beam="1">  1       21 0.17355802E-01 0.45184729E+03</pdfrwt>
<pdfrwt beam="2">  1       21 0.63600546E-01 0.45184729E+03</pdfrwt>
<totfact> 0.63399953E+04</totfact>
</mgrwt>
</event>
<event>
 7    0  0.4766352E-002  0.4813341E+03  0.7546771E-02  0.1018769E+00
         21   -1    0    0  502  501  0.00000000000E+00  0.00000000000E+00  0.10015524005E+03  0.10015524005E+03  0.00000000000E+00 0.  1.
         21   -1    0    0  501  502 -0.00000000000E+00 -0.00000000000E+00 -0.57830861114E+03  0.57830861114E+03  0.00000000000E+00 0.  1.
      99926    2    1    2    0    0  0.14210854715E-13  0.71054273576E-14 -0.47815337109E+03  0.67846385119E+03  0.48133413663E+03 0.  0.
      99925    2    3    3    0    0 -0.12093044052E+03 -0.48520693863E+02 -0.23801795764E+03  0.37797931902E+03  0.26312998361E+03 0.  0.
         25    1    3    3    0    0  0.12093044052E+03  0.48520693863E+02 -0.24013541346E+03  0.30048453217E+03  0.12509000000E+03 0.  0.
         25    1    4    4    0    0 -0.57288107658E+02  0.10752354322E+02 -0.85167593664E+02  0.16216833080E+03  0.12509000000E+03 0.  0.
         25    1    4    4    0    0 -0.63642332863E+02 -0.59273048185E+02 -0.15285036397E+03  0.21581098823E+03  0.12509000000E+03 0.  0.
<mgrwt>
<rscale>  2 0.48133414E+03</rscale>
<asrwt>0</asrwt>
<pdfrwt beam="1">  1       21 0.14728711E-01 0.48133414E+03</pdfrwt>
<pdfrwt beam="2">  1       21 0.85045387E-01 0.48133414E+03</pdfrwt>
<totfact> 0.44178272E+04</totfact>
</mgrwt>
</event>
<event>
 7    0  0.4766352E-002  0.4621476E+03  0.7546771E-02  0.1024160E+00
         21   -1    0    0  502  501  0.00000000000E+00  0.00000000000E+00  0.65832245363E+02  0.65832245363E+02  0.00000000000E+00 0. -1.
         21   -1    0    0  501  502 -0.00000000000E+00 -0.00000000000E+00 -0.81107806099E+03  0.81107806099E+03  0.00000000000E+00 0. -1.
      99926    2    1    2    0    0  0.35527136788E-14  0.00000000000E+00 -0.74524581563E+03  0.87691030635E+03  0.46214755185E+03 0.  0.
      99925    2    3    3    0    0 -0.23740124641E+02 -0.11668756512E+03 -0.48933427813E+03  0.56817448968E+03  0.26304872857E+03 0.  0.
         25    1    3    3    0    0  0.23740124641E+02  0.11668756512E+03 -0.25591153749E+03  0.30873581667E+03  0.12509000000E+03 0.  0.
         25    1    4    4    0    0 -0.29786160993E+02 -0.61181185865E+02 -0.17737278458E+03  0.22746200936E+03  0.12509000000E+03 0.  0.
         25    1    4    4    0    0  0.60460363519E+01 -0.55506379251E+02 -0.31196149355E+03  0.34071248033E+03  0.12509000000E+03 0.  0.
<mgrwt>
<rscale>  2 0.46214755E+03</rscale>
<asrwt>0</asrwt>
<pdfrwt beam="1">  1       21 0.96812132E-02 0.46214755E+03</pdfrwt>
<pdfrwt beam="2">  1       21 0.11927618E+00 0.46214755E+03</pdfrwt>
<totfact> 0.41854340E+04</totfact>
</mgrwt>
</event>
<event>
 7    0  0.4766352E-002  0.4603582E+03  0.7546771E-02  0.1024677E+00
         21   -1    0    0  502  501  0.00000000000E+00  0.00000000000E+00  0.73610679630E+02  0.73610679630E+02  0.00000000000E+00 0. -1.
         21   -1    0    0  501  502 -0.00000000000E+00 -0.00000000000E+00 -0.71976538435E+03  0.71976538435E+03  0.00000000000E+00 0. -1.
      99926    2    1    2    0    0 -0.14210854715E-13  0.00000000000E+00 -0.64615470472E+03  0.79337606398E+03  0.46035820452E+03 0.  0.
      99925    2    3    3    0    0  0.10441914882E+03  0.47051928675E+02 -0.35247290837E+03  0.45423929475E+03  0.26263842661E+03 0.  0.
         25    1    3    3    0    0 -0.10441914882E+03 -0.47051928675E+02 -0.29368179635E+03  0.33913676923E+03  0.12509000000E+03 0.  0.
         25    1    4    4    0    0  0.40053865517E+02  0.49967318885E+02 -0.13270245781E+03  0.19328345896E+03  0.12509000000E+03 0.  0.
         25    1    4    4    0    0  0.64365283308E+02 -0.29153902103E+01 -0.21977045055E+03  0.26095583579E+03  0.12509000000E+03 0.  0.
<mgrwt>
<rscale>  2 0.46035820E+03</rscale>
<asrwt>0</asrwt>
<pdfrwt beam="1">  1       21 0.10825100E-01 0.46035820E+03</pdfrwt>
<pdfrwt beam="2">  1       21 0.10584785E+00 0.46035820E+03</pdfrwt>
<totfact> 0.46116775E+04</totfact>
</mgrwt>
</event>
<event>
 7    0  0.4766352E-002  0.4666601E+03  0.7546771E-02  0.1022867E+00
         21   -1    0    0  502  501  0.00000000000E+00  0.00000000000E+00  0.74589928127E+02  0.74589928127E+02  0.00000000000E+00 0.  1.
         21   -1    0    0  501  502 -0.00000000000E+00 -0.00000000000E+00 -0.72989638670E+03  0.72989638670E+03  0.00000000000E+00 0.  1.
      99926    2    1    2    0    0  0.00000000000E+00  0.00000000000E+00 -0.65530645857E+03  0.80448631483E+03  0.46666012911E+03 0.  0.
      99925    2    3    3    0    0  0.28173960900E+02 -0.12050068133E+03 -0.40476232124E+03  0.49832612942E+03  0.26302510963E+03 0.  0.
         25    1    4    4    0    0 -0.18668307820E+02 -0.44759730407E+02 -0.22445463727E+03  0.26149441959E+03  0.12509000000E+03 0.  0.
         25    1    4    4    0    0  0.46842268720E+02 -0.75740950924E+02 -0.18030768397E+03  0.23683170984E+03  0.12509000000E+03 0.  0.
         25    1    3    3    0    0 -0.28173960900E+02  0.12050068133E+03 -0.25054413733E+03  0.30616018540E+03  0.12509000000E+03 0.  0.
<mgrwt>
<rscale>  2 0.46666013E+03</rscale>
<asrwt>0</asrwt>
<pdfrwt beam="1">  1       21 0.10969107E-01 0.46666013E+03</pdfrwt>
<pdfrwt beam="2">  1       21 0.10733770E+00 0.46666013E+03</pdfrwt>
<totfact> 0.43435602E+04</totfact>
</mgrwt>
</event>
<event>
 7    0  0.4766352E-002  0.4556203E+03  0.7546771E-02  0.1026059E+00
         21   -1    0    0  502  501  0.00000000000E+00  0.00000000000E+00  0.15593768886E+03  0.15593768886E+03  0.00000000000E+00 0. -1.
         21   -1    0    0  501  502 -0.00000000000E+00 -0.00000000000E+00 -0.33280892542E+03  0.33280892542E+03  0.00000000000E+00 0. -1.
      99926    2    1    2    0    0  0.14210854715E-13  0.00000000000E+00 -0.17687123655E+03  0.48874661428E+03  0.45562025707E+03 0.  0.
      99925    2    3    3    0    0  0.11199175174E+03  0.17835562448E+02 -0.10195440023E+03  0.30402980343E+03  0.26301931850E+03 0.  0.
         25    1    3    3    0    0 -0.11199175174E+03 -0.17835562448E+02 -0.74916836323E+02  0.18471681085E+03  0.12509000000E+03 0.  0.
         25    1    4    4    0    0  0.96973060782E+02  0.16806685177E+00 -0.68641756954E+02  0.17251956892E+03  0.12509000000E+03 0.  0.
         25    1    4    4    0    0  0.15018690955E+02  0.17667495596E+02 -0.33312643277E+02  0.13151023451E+03  0.12509000000E+03 0.  0.
<mgrwt>
<rscale>  2 0.45562026E+03</rscale>
<asrwt>0</asrwt>
<pdfrwt beam="1">  1       21 0.22932013E-01 0.45562026E+03</pdfrwt>
<pdfrwt beam="2">  1       21 0.48942489E-01 0.45562026E+03</pdfrwt>
<totfact> 0.65744390E+04</totfact>
</mgrwt>
</event>
<event>
 7    0  0.4766352E-002  0.4500897E+03  0.7546771E-02  0.1027695E+00
         21   -1    0    0  502  501  0.00000000000E+00  0.00000000000E+00  0.15327779270E+04  0.15327779270E+04  0.00000000000E+00 0. -1.
         21   -1    0    0  501  502 -0.00000000000E+00 -0.00000000000E+00 -0.33041435258E+02  0.33041435258E+02  0.00000000000E+00 0. -1.
      99926    2    1    2    0    0 -0.14210854715E-13  0.00000000000E+00  0.14997364918E+04  0.15658193623E+04  0.45008969169E+03 0.  0.
      99925    2    3    3    0    0 -0.67029169755E+02  0.22808878219E+02  0.12338111783E+04  0.12635331817E+04  0.26308349065E+03 0.  0.
         25    1    3    3    0    0  0.67029169755E+02 -0.22808878219E+02  0.26592531345E+03  0.30228618056E+03  0.12509000000E+03 0.  0.
         25    1    4    4    0    0 -0.68579845389E+02  0.19892128180E+02  0.75661885884E+03  0.77020678886E+03  0.12509000000E+03 0.  0.
         25    1    4    4    0    0  0.15506756334E+01  0.29167500394E+01  0.47719231950E+03  0.49332639288E+03  0.12509000000E+03 0.  0.
<mgrwt>
<rscale>  2 0.45008969E+03</rscale>
<asrwt>0</asrwt>
<pdfrwt beam="1">  1       21 0.22540847E+00 0.45008969E+03</pdfrwt>
<pdfrwt beam="2">  1       21 0.48590356E-02 0.45008969E+03</pdfrwt>
<totfact> 0.23078773E+04</totfact>
</mgrwt>
</event>
<event>
 7    0  0.4766352E-002  0.4505432E+03  0.7546771E-02  0.1027560E+00
         21   -1    0    0  502  501  0.00000000000E+00  0.00000000000E+00  0.15715605247E+04  0.15715605247E+04  0.00000000000E+00 0.  1.
         21   -1    0    0  501  502 -0.00000000000E+00 -0.00000000000E+00 -0.32291024352E+02  0.32291024352E+02  0.00000000000E+00 0.  1.
      99926    2    1    2    0    0  0.00000000000E+00  0.00000000000E+00  0.15392695004E+04  0.16038515491E+04  0.45054322401E+03 0.  0.
      99925    2    3    3    0    0 -0.49872470815E+02  0.95828287708E+02  0.10220169144E+04  0.10608339897E+04  0.26302063829E+03 0.  0.
         25    1    4    4    0    0 -0.40300551720E+02  0.29111156403E+02  0.37581542350E+03  0.39919460735E+03  0.12509000000E+03 0.  0.
         25    1    3    3    0    0  0.49872470815E+02 -0.95828287708E+02  0.51725258593E+03  0.54301755941E+03  0.12509000000E+03 0.  0.
         25    1    4    4    0    0 -0.95719190949E+01  0.66717131304E+02  0.64620149092E+03  0.66163938230E+03  0.12509000000E+03 0.  0.
<mgrwt>
<rscale>  2 0.45054322E+03</rscale>
<asrwt>0</asrwt>
<pdfrwt beam="1">  1       21 0.23111179E+00 0.45054322E+03</pdfrwt>
<pdfrwt beam="2">  1       21 0.47486811E-02 0.45054322E+03</pdfrwt>
<totfact> 0.22097794E+04</totfact>
</mgrwt>
</event>
<event>
 7    0  0.4766352E-002  0.4496366E+03  0.7546771E-02  0.1027830E+00
         21   -1    0    0  502  501  0.00000000000E+00  0.00000000000E+00  0.75492208180E+02  0.75492208180E+02  0.00000000000E+00 0. -1.
         21   -1    0    0  501  502 -0.00000000000E+00 -0.00000000000E+00 -0.66951625255E+03  0.66951625255E+03  0.00000000000E+00 0. -1.
      99926    2    1    2    0    0  0.35527136788E-14  0.71054273576E-14 -0.59402404437E+03  0.74500846073E+03  0.44963656576E+03 0.  0.
      99925    2    3    3    0    0  0.27914350897E+02 -0.63113333448E+02 -0.23788279394E+03  0.36128121098E+03  0.26300833810E+03 0.  0.
         25    1    3    3    0    0 -0.27914350897E+02  0.63113333448E+02 -0.35614125043E+03  0.38372724975E+03  0.12509000000E+03 0.  0.
         25    1    4    4    0    0 -0.53875643224E+01 -0.41167579913E+02 -0.16478364003E+03  0.21100936379E+03  0.12509000000E+03 0.  0.
         25    1    4    4    0    0  0.33301915219E+02 -0.21945753535E+02 -0.73099153912E+02  0.15027184719E+03  0.12509000000E+03 0.  0.
<mgrwt>
<rscale>  2 0.44963657E+03</rscale>
<asrwt>0</asrwt>
<pdfrwt beam="1">  1       21 0.11101795E-01 0.44963657E+03</pdfrwt>
<pdfrwt beam="2">  1       21 0.98458275E-01 0.44963657E+03</pdfrwt>
<totfact> 0.52713924E+04</totfact>
</mgrwt>
</event>
